Protein in INSANE! Membrane UpperLeaflet>POPC=1.0 LowerLeaflet>POPC=1.0
239078
   85AUC    AUC    1  34.077   8.937   7.503
   86AUC    AUC    2  34.322   8.937   7.351
   87AUC    AUC    3  34.322   8.937   7.654
   88AUC    AUC    4  33.832   8.937   7.351
   89AUC    AUC    5  33.832   8.937   7.654
   90AUC    AUC    6  33.925   9.183   7.503
   91AUC    AUC    7  34.229   9.183   7.503
   92AUC    AUC    8  33.925   8.692   7.503
   93AUC    AUC    9  34.229   8.692   7.503
   94AUC    AUC   10  34.077   8.786   7.748
   95AUC    AUC   11  34.077   9.089   7.748
   96AUC    AUC   12  34.077   8.786   7.257
   97AUC    AUC   13  34.077   9.089   7.257
   98AUC    AUC   14  34.568   8.937   7.199
   99AUC    AUC   15  34.568   8.937   7.503
  100AUC    AUC   16  34.568   8.937   7.806
  101AUC    AUC   17  33.586   8.937   7.199
  102AUC    AUC   18  33.586   8.937   7.503
  103AUC    AUC   19  33.586   8.937   7.806
  104AUC    AUC   20  33.774   9.428   7.503
  105AUC    AUC   21  34.077   9.428   7.503
  106AUC    AUC   22  34.380   9.428   7.503
  107AUC    AUC   23  33.774   8.447   7.503
  108AUC    AUC   24  34.077   8.447   7.503
  109AUC    AUC   25  34.380   8.447   7.503
  110AUC    AUC   26  34.077   8.634   7.993
  111AUC    AUC   27  34.077   8.937   7.993
  112AUC    AUC   28  34.077   9.241   7.993
  113AUC    AUC   29  34.077   8.634   7.012
  114AUC    AUC   30  34.077   8.937   7.012
  115AUC    AUC   31  34.077   9.241   7.012
  116AUC    AUC   32  34.322   8.786   7.900
  117AUC    AUC   33  34.322   9.089   7.900
  118AUC    AUC   34  34.322   8.786   7.106
  119AUC    AUC   35  34.322   9.089   7.106
  120AUC    AUC   36  33.832   8.786   7.900
  121AUC    AUC   37  33.832   9.089   7.900
  122AUC    AUC   38  33.832   8.786   7.106
  123AUC    AUC   39  33.832   9.089   7.106
  124AUC    AUC   40  34.474   9.183   7.351
  125AUC    AUC   41  34.474   9.183   7.654
  126AUC    AUC   42  33.680   9.183   7.351
  127AUC    AUC   43  33.680   9.183   7.654
  128AUC    AUC   44  34.474   8.692   7.351
  129AUC    AUC   45  34.474   8.692   7.654
  130AUC    AUC   46  33.680   8.692   7.351
  131AUC    AUC   47  33.680   8.692   7.654
  132AUC    AUC   48  33.925   9.335   7.748
  133AUC    AUC   49  34.229   9.335   7.748
  134AUC    AUC   50  33.925   8.540   7.748
  135AUC    AUC   51  34.229   8.540   7.748
  136AUC    AUC   52  33.925   9.335   7.257
  137AUC    AUC   53  34.229   9.335   7.257
  138AUC    AUC   54  33.925   8.540   7.257
  139AUC    AUC   55  34.229   8.540   7.257
  140AUSL   AUS   56  34.486   8.937   8.083
  141AUSL   AUS   57  34.342   8.521   8.013
  142AUL    AUL   58  34.568   8.634   8.297
  143THSLK    S   59  34.452   8.334   8.153
  144ETHY    C1   60  34.488   7.935   8.368
  145ETHY    C1   61  34.598   7.505   8.665
  146ETHY    C1   62  34.776   7.141   9.000
  147ETHY    C1   63  35.010   6.845   9.364
  148ETHY    C1   64  35.296   6.628   9.752
  149ETHY    C1   65  35.627   6.495  10.156
  150THSLK    S   66  34.579   8.885   8.324
  151ETHY    C1   67  34.783   8.665   8.665
  152ETHY    C1   68  35.047   8.488   9.094
  153ETHY    C1   69  35.323   8.412   9.535
  154ETHY    C1   70  35.600   8.429   9.980
  155ETHY    C1   71  35.870   8.542  10.419
  156ETHY    C1   72  36.129   8.751  10.845
  157AUSL   AUS   73  34.241   8.786   8.176
  158AUSL   AUS   74  33.913   9.089   8.176
  159AUL    AUL   75  34.077   8.937   8.484
  160THSLK    S   76  34.316   8.731   8.413
  161ETHY    C1   77  34.380   8.451   8.765
  162ETHY    C1   78  34.483   8.196   9.223
  163ETHY    C1   79  34.610   8.037   9.708
  164ETHY    C1   80  34.752   7.968  10.208
  165ETHY    C1   81  34.906   7.996  10.713
  166ETHY    C1   82  35.066   8.120  11.212
  167THSLK    S   83  33.828   9.043   8.428
  168ETHY    C1   84  33.754   8.893   8.850
  169ETHY    C1   85  33.649   8.805   9.367
  170ETHY    C1   86  33.527   8.817   9.878
  171ETHY    C1   87  33.389   8.918  10.373
  172ETHY    C1   88  33.234   9.111  10.840
  173ETHY    C1   89  33.065   9.392  11.268
  174AUSL   AUS   90  34.241   9.089   8.176
  175AUSL   AUS   91  34.587   9.202   7.919
  176AUL    AUL   92  34.568   9.241   8.297
  177THSLK    S   93  34.326   9.145   8.410
  178ETHY    C1   94  34.400   9.426   8.759
  179ETHY    C1   95  34.505   9.681   9.217
  180ETHY    C1   96  34.627   9.840   9.703
  181ETHY    C1   97  34.766   9.909  10.204
  182ETHY    C1   98  34.920   9.882  10.708
  183ETHY    C1   99  35.089   9.758  11.206
  184THSLK    S  100  34.759   9.300   8.080
  185ETHY    C1  101  35.122   9.271   8.350
  186ETHY    C1  102  35.544   9.327   8.673
  187ETHY    C1  103  35.936   9.481   8.989
  188ETHY    C1  104  36.290   9.719   9.293
  189ETHY    C1  105  36.597  10.040   9.580
  190ETHY    C1  106  36.848  10.437   9.844
  191AUSL   AUS  107  34.486   8.937   6.923
  192AUSL   AUS  108  34.342   9.354   6.992
  193AUL    AUL  109  34.568   9.241   6.708
  194THSLK    S  110  34.588   8.885   6.687
  195ETHY    C1  111  34.801   8.665   6.351
  196ETHY    C1  112  35.066   8.488   5.923
  197ETHY    C1  113  35.338   8.412   5.479
  198ETHY    C1  114  35.612   8.429   5.033
  199ETHY    C1  115  35.883   8.542   4.594
  200ETHY    C1  116  36.148   8.751   4.173
  201THSLK    S  117  34.520   9.465   6.829
  202ETHY    C1  118  34.822   9.533   6.497
  203ETHY    C1  119  35.141   9.696   6.100
  204ETHY    C1  120  35.406   9.943   5.719
  205ETHY    C1  121  35.618  10.263   5.362
  206ETHY    C1  122  35.771  10.653   5.039
  207ETHY    C1  123  35.862  11.105   4.759
  208AUSL   AUS  124  34.241   8.786   6.829
  209AUSL   AUS  125  34.587   8.673   7.086
  210AUL    AUL  126  34.568   8.634   6.708
  211THSLK    S  127  34.720   8.481   6.949
  212ETHY    C1  128  34.903   8.114   6.752
  213ETHY    C1  129  35.175   7.742   6.483
  214ETHY    C1  130  35.500   7.453   6.186
  215ETHY    C1  131  35.866   7.246   5.874
  216ETHY    C1  132  36.270   7.127   5.555
  217ETHY    C1  133  36.703   7.102   5.235
  218THSLK    S  134  34.326   8.730   6.596
  219ETHY    C1  135  34.400   8.449   6.246
  220ETHY    C1  136  34.505   8.193   5.788
  221ETHY    C1  137  34.627   8.035   5.302
  222ETHY    C1  138  34.766   7.966   4.801
  223ETHY    C1  139  34.920   7.993   4.297
  224ETHY    C1  140  35.089   8.117   3.799
  225AUSL   AUS  141  34.241   9.089   6.829
  226AUSL   AUS  142  33.913   8.786   6.829
  227AUL    AUL  143  34.077   8.937   6.521
  228THSLK    S  144  33.821   8.730   6.597
  229ETHY    C1  145  33.686   8.452   6.264
  230ETHY    C1  146  33.525   8.199   5.822
  231ETHY    C1  147  33.373   8.042   5.343
  232ETHY    C1  148  33.237   7.973   4.842
  233ETHY    C1  149  33.120   7.999   4.328
  234ETHY    C1  150  33.027   8.118   3.810
  235THSLK    S  151  34.343   9.043   6.583
  236ETHY    C1  152  34.489   8.893   6.179
  237ETHY    C1  153  34.651   8.802   5.678
  238ETHY    C1  154  34.798   8.812   5.173
  239ETHY    C1  155  34.931   8.913   4.677
  240ETHY    C1  156  35.048   9.108   4.200
  241ETHY    C1  157  35.149   9.394   3.754
  242AUSL   AUS  158  33.668   8.937   8.083
  243AUSL   AUS  159  33.812   9.354   8.013
  244AUL    AUL  160  33.586   9.241   8.297
  245THSLK    S  161  33.566   8.885   8.319
  246ETHY    C1  162  33.354   8.665   8.654
  247ETHY    C1  163  33.088   8.488   9.082
  248ETHY    C1  164  32.816   8.412   9.526
  249ETHY    C1  165  32.542   8.429   9.973
  250ETHY    C1  166  32.271   8.542  10.411
  251ETHY    C1  167  32.006   8.751  10.832
  252THSLK    S  168  33.695   9.478   8.202
  253ETHY    C1  169  33.652   9.621   8.632
  254ETHY    C1  170  33.541   9.846   9.104
  255ETHY    C1  171  33.365  10.123   9.515
  256ETHY    C1  172  33.134  10.439   9.863
  257ETHY    C1  173  32.848  10.787  10.138
  258ETHY    C1  174  32.511  11.160  10.334
  259AUSL   AUS  175  33.913   8.786   8.176
  260AUSL   AUS  176  33.567   8.673   7.919
  261AUL    AUL  177  33.586   8.634   8.297
  262THSLK    S  178  33.390   8.510   8.026
  263ETHY    C1  179  33.019   8.253   8.082
  264ETHY    C1  180  32.597   7.965   8.237
  265ETHY    C1  181  32.207   7.710   8.482
  266ETHY    C1  182  31.855   7.493   8.803
  267ETHY    C1  183  31.549   7.322   9.198
  268ETHY    C1  184  31.292   7.201   9.657
  269THSLK    S  185  33.811   8.732   8.406
  270ETHY    C1  186  33.665   8.456   8.736
  271ETHY    C1  187  33.503   8.204   9.178
  272ETHY    C1  188  33.356   8.046   9.658
  273ETHY    C1  189  33.223   7.976  10.160
  274ETHY    C1  190  33.106   8.002  10.674
  275ETHY    C1  191  33.005   8.123  11.190
  276AUSL   AUS  192  33.668   8.937   6.923
  277AUSL   AUS  193  33.812   8.521   6.992
  278AUL    AUL  194  33.586   8.634   6.708
  279THSLK    S  195  33.575   8.885   6.681
  280ETHY    C1  196  33.371   8.665   6.341
  281ETHY    C1  197  33.107   8.488   5.911
  282ETHY    C1  198  32.831   8.412   5.470
  283ETHY    C1  199  32.554   8.429   5.025
  284ETHY    C1  200  32.284   8.542   4.586
  285ETHY    C1  201  32.025   8.751   4.161
  286THSLK    S  202  33.641   8.348   6.878
  287ETHY    C1  203  33.346   8.022   6.760
  288ETHY    C1  204  33.028   7.655   6.538
  289ETHY    C1  205  32.760   7.320   6.233
  290ETHY    C1  206  32.546   7.020   5.861
  291ETHY    C1  207  32.394   6.762   5.426
  292ETHY    C1  208  32.308   6.550   4.937
  293AUSL   AUS  209  33.913   9.089   6.829
  294AUSL   AUS  210  33.567   9.202   7.086
  295AUL    AUL  211  33.586   9.241   6.708
  296THSLK    S  212  33.440   9.329   6.895
  297ETHY    C1  213  33.263   9.410   6.484
  298ETHY    C1  214  32.992   9.550   6.046
  299ETHY    C1  215  32.665   9.738   5.679
  300ETHY    C1  216  32.296   9.967   5.385
  301ETHY    C1  217  31.894  10.234   5.173
  302ETHY    C1  218  31.465  10.536   5.047
  303THSLK    S  219  33.838   9.045   6.576
  304ETHY    C1  220  33.774   8.898   6.150
  305ETHY    C1  221  33.671   8.809   5.634
  306ETHY    C1  222  33.544   8.820   5.123
  307ETHY    C1  223  33.402   8.921   4.629
  308ETHY    C1  224  33.249   9.114   4.162
  309ETHY    C1  225  33.088   9.397   3.732
  310AUSL   AUS  226  34.657   9.346   7.503
  311AUSL   AUS  227  34.587   9.202   7.086
  312AUL    AUL  228  34.871   9.428   7.199
  313THSLK    S  229  34.765   9.301   6.934
  314ETHY    C1  230  35.135   9.274   6.671
  315ETHY    C1  231  35.557   9.330   6.349
  316ETHY    C1  232  35.947   9.484   6.030
  317ETHY    C1  233  36.299   9.721   5.724
  318ETHY    C1  234  36.606  10.042   5.438
  319ETHY    C1  235  36.862  10.441   5.179
  320THSLK    S  236  34.923   9.399   7.508
  321ETHY    C1  237  35.377   9.421   7.513
  322ETHY    C1  238  35.899   9.535   7.514
  323ETHY    C1  239  36.382   9.744   7.511
  324ETHY    C1  240  36.818  10.034   7.510
  325ETHY    C1  241  37.197  10.401   7.510
  326ETHY    C1  242  37.511  10.841   7.514
  327AUSL   AUS  243  34.751   9.101   7.351
  328AUSL   AUS  244  34.751   8.774   7.654
  329AUL    AUL  245  35.059   8.937   7.503
  330THSLK    S  246  35.007   9.140   7.350
  331ETHY    C1  247  35.443   9.032   7.286
  332ETHY    C1  248  35.969   8.994   7.201
  333ETHY    C1  249  36.484   9.058   7.113
  334ETHY    C1  250  36.978   9.212   7.026
  335ETHY    C1  251  37.438   9.457   6.945
  336ETHY    C1  252  37.857   9.789   6.873
  337THSLK    S  253  34.978   8.634   7.663
  338ETHY    C1  254  35.297   8.318   7.728
  339ETHY    C1  255  35.730   8.014   7.807
  340ETHY    C1  256  36.205   7.804   7.887
  341ETHY    C1  257  36.708   7.683   7.971
  342ETHY    C1  258  37.228   7.657   8.058
  343ETHY    C1  259  37.756   7.727   8.147
  344AUSL   AUS  260  34.751   9.101   7.654
  345AUSL   AUS  261  34.493   9.448   7.767
  346AUL    AUL  262  34.871   9.428   7.806
  347THSLK    S  263  34.676   9.562   7.926
  348ETHY    C1  264  35.059   9.680   8.140
  349ETHY    C1  265  35.477   9.903   8.388
  350ETHY    C1  266  35.836  10.208   8.622
  351ETHY    C1  267  36.133  10.581   8.840
  352ETHY    C1  268  36.358  11.015   9.038
  353ETHY    C1  269  36.505  11.503   9.215
  354THSLK    S  270  35.005   9.140   7.665
  355ETHY    C1  271  35.440   9.032   7.740
  356ETHY    C1  272  35.966   8.994   7.826
  357ETHY    C1  273  36.481   9.057   7.910
  358ETHY    C1  274  36.975   9.211   7.993
  359ETHY    C1  275  37.436   9.456   8.075
  360ETHY    C1  276  37.853   9.788   8.155
  361AUSL   AUS  277  33.497   9.346   7.503
  362AUSL   AUS  278  33.567   9.202   7.919
  363AUL    AUL  279  33.283   9.428   7.806
  364THSLK    S  280  33.434   9.321   8.109
  365ETHY    C1  281  33.251   9.393   8.519
  366ETHY    C1  282  32.979   9.533   8.957
  367ETHY    C1  283  32.654   9.724   9.324
  368ETHY    C1  284  32.288   9.955   9.619
  369ETHY    C1  285  31.885  10.222   9.831
  370ETHY    C1  286  31.451  10.518   9.956
  371THSLK    S  287  33.286   9.487   7.508
  372ETHY    C1  288  33.064   9.884   7.513
  373ETHY    C1  289  32.728  10.299   7.514
  374ETHY    C1  290  32.325  10.638   7.511
  375ETHY    C1  291  31.871  10.899   7.510
  376ETHY    C1  292  31.372  11.073   7.510
  377ETHY    C1  293  30.839  11.157   7.514
  378AUSL   AUS  294  33.403   9.101   7.351
  379AUSL   AUS  295  33.661   9.448   7.238
  380AUL    AUL  296  33.283   9.428   7.199
  381THSLK    S  297  33.176   9.216   7.303
  382ETHY    C1  298  32.857   9.416   7.049
  383ETHY    C1  299  32.424   9.622   6.813
  384ETHY    C1  300  31.949   9.788   6.661
  385ETHY    C1  301  31.446   9.917   6.590
  386ETHY    C1  302  30.926  10.007   6.605
  387ETHY    C1  303  30.398  10.055   6.708
  388THSLK    S  304  33.549   9.611   7.060
  389ETHY    C1  305  33.470   9.921   6.737
  390ETHY    C1  306  33.295  10.295   6.397
  391ETHY    C1  307  33.041  10.663   6.120
  392ETHY    C1  308  32.721  11.020   5.909
  393ETHY    C1  309  32.340  11.358   5.770
  394ETHY    C1  310  31.905  11.672   5.709
  395AUSL   AUS  311  33.403   9.101   7.654
  396AUSL   AUS  312  33.403   8.774   7.351
  397AUL    AUL  313  33.095   8.937   7.503
  398THSLK    S  314  33.149   8.701   7.394
  399ETHY    C1  315  32.714   8.683   7.524
  400ETHY    C1  316  32.188   8.623   7.597
  401ETHY    C1  317  31.673   8.519   7.578
  402ETHY    C1  318  31.179   8.376   7.477
  403ETHY    C1  319  30.719   8.193   7.294
  404ETHY    C1  320  30.301   7.973   7.034
  405THSLK    S  321  33.175   9.207   7.707
  406ETHY    C1  322  32.854   9.398   7.966
  407ETHY    C1  323  32.421   9.602   8.202
  408ETHY    C1  324  31.946   9.773   8.352
  409ETHY    C1  325  31.444   9.905   8.422
  410ETHY    C1  326  30.924   9.993   8.407
  411ETHY    C1  327  30.395  10.034   8.308
  412AUSL   AUS  328  34.657   8.528   7.503
  413AUSL   AUS  329  34.587   8.673   7.919
  414AUL    AUL  330  34.871   8.447   7.806
  415THSLK    S  331  34.868   8.387   7.508
  416ETHY    C1  332  35.090   7.991   7.513
  417ETHY    C1  333  35.426   7.576   7.514
  418ETHY    C1  334  35.829   7.237   7.511
  419ETHY    C1  335  36.283   6.976   7.510
  420ETHY    C1  336  36.782   6.802   7.510
  421ETHY    C1  337  37.315   6.718   7.514
  422THSLK    S  338  34.714   8.482   8.064
  423ETHY    C1  339  34.891   8.117   8.270
  424ETHY    C1  340  35.162   7.745   8.540
  425ETHY    C1  341  35.489   7.456   8.834
  426ETHY    C1  342  35.858   7.248   9.142
  427ETHY    C1  343  36.260   7.130   9.462
  428ETHY    C1  344  36.689   7.105   9.789
  429AUSL   AUS  345  34.751   8.774   7.351
  430AUSL   AUS  346  34.493   8.427   7.238
  431AUL    AUL  347  34.871   8.447   7.199
  432THSLK    S  348  34.979   8.634   7.353
  433ETHY    C1  349  35.300   8.317   7.298
  434ETHY    C1  350  35.733   8.014   7.221
  435ETHY    C1  351  36.208   7.804   7.136
  436ETHY    C1  352  36.710   7.683   7.048
  437ETHY    C1  353  37.230   7.656   6.963
  438ETHY    C1  354  37.759   7.727   6.881
  439THSLK    S  355  34.609   8.238   7.108
  440ETHY    C1  356  34.693   7.809   6.984
  441ETHY    C1  357  34.868   7.337   6.803
  442ETHY    C1  358  35.121   6.926   6.593
  443ETHY    C1  359  35.439   6.578   6.366
  444ETHY    C1  360  35.821   6.303   6.126
  445ETHY    C1  361  36.259   6.106   5.880
  446AUSL   AUS  362  33.497   8.528   7.503
  447AUSL   AUS  363  33.567   8.673   7.086
  448AUL    AUL  364  33.283   8.447   7.199
  449THSLK    S  365  33.396   8.502   6.978
  450ETHY    C1  366  33.032   8.237   6.921
  451ETHY    C1  367  32.610   7.947   6.766
  452ETHY    C1  368  32.218   7.695   6.521
  453ETHY    C1  369  31.864   7.482   6.200
  454ETHY    C1  370  31.557   7.309   5.806
  455ETHY    C1  371  31.306   7.182   5.346
  456THSLK    S  372  33.231   8.476   7.508
  457ETHY    C1  373  32.777   8.454   7.513
  458ETHY    C1  374  32.255   8.340   7.514
  459ETHY    C1  375  31.773   8.131   7.511
  460ETHY    C1  376  31.336   7.841   7.510
  461ETHY    C1  377  30.957   7.474   7.510
  462ETHY    C1  378  30.644   7.034   7.514
  463AUSL   AUS  379  33.403   8.774   7.654
  464AUSL   AUS  380  33.661   8.427   7.767
  465AUL    AUL  381  33.283   8.447   7.806
  466THSLK    S  382  33.473   8.287   7.878
  467ETHY    C1  383  33.086   8.050   7.893
  468ETHY    C1  384  32.668   7.730   7.982
  469ETHY    C1  385  32.310   7.381   8.149
  470ETHY    C1  386  32.015   7.017   8.382
  471ETHY    C1  387  31.790   6.646   8.683
  472ETHY    C1  388  31.639   6.275   9.045
  473THSLK    S  389  33.147   8.711   7.616
  474ETHY    C1  390  32.711   8.701   7.491
  475ETHY    C1  391  32.185   8.642   7.419
  476ETHY    C1  392  31.670   8.535   7.436
  477ETHY    C1  393  31.176   8.389   7.535
  478ETHY    C1  394  30.716   8.207   7.718
  479ETHY    C1  395  30.297   7.994   7.983
  480AUSL   AUS  396  34.077   9.517   7.912
  481AUSL   AUS  397  33.661   9.448   7.767
  482AUL    AUL  398  33.774   9.732   7.993
  483THSLK    S  399  33.545   9.604   7.952
  484ETHY    C1  400  33.461   9.906   8.280
  485ETHY    C1  401  33.286  10.279   8.621
  486ETHY    C1  402  33.033  10.650   8.895
  487ETHY    C1  403  32.715  11.009   9.105
  488ETHY    C1  404  32.333  11.347   9.244
  489ETHY    C1  405  31.895  11.655   9.309
  490THSLK    S  406  34.119   9.739   8.035
  491ETHY    C1  407  34.303  10.014   8.347
  492ETHY    C1  408  34.453  10.394   8.691
  493ETHY    C1  409  34.519  10.817   8.998
  494ETHY    C1  410  34.506  11.268   9.264
  495ETHY    C1  411  34.409  11.737   9.485
  496ETHY    C1  412  34.229  12.216   9.656
  497AUSL   AUS  413  33.925   9.611   7.666
  498AUSL   AUS  414  34.229   9.611   7.339
  499AUL    AUL  415  34.077   9.919   7.503
  500THSLK    S  416  33.968   9.855   7.776
  501ETHY    C1  417  34.112  10.249   7.951
  502ETHY    C1  418  34.199  10.743   8.137
  503ETHY    C1  419  34.187  11.244   8.294
  504ETHY    C1  420  34.086  11.742   8.425
  505ETHY    C1  421  33.894  12.223   8.527
  506ETHY    C1  422  33.614  12.678   8.600
  507THSLK    S  423  34.284   9.842   7.243
  508ETHY    C1  424  34.560  10.172   7.096
  509ETHY    C1  425  34.810  10.613   6.927
  510ETHY    C1  426  34.966  11.090   6.771
  511ETHY    C1  427  35.035  11.592   6.635
  512ETHY    C1  428  35.011  12.108   6.525
  513ETHY    C1  429  34.894  12.628   6.443
  514AUSL   AUS  430  34.229   9.611   7.666
  515AUSL   AUS  431  34.342   9.354   8.013
  516AUL    AUL  432  34.380   9.732   7.993
  517THSLK    S  433  34.513   9.462   8.183
  518ETHY    C1  434  34.808   9.527   8.523
  519ETHY    C1  435  35.126   9.689   8.920
  520ETHY    C1  436  35.394   9.938   9.298
  521ETHY    C1  437  35.608  10.260   9.653
  522ETHY    C1  438  35.760  10.648   9.976
  523ETHY    C1  439  35.846  11.098  10.262
  524THSLK    S  440  34.282   9.840   7.772
  525ETHY    C1  441  34.554  10.168   7.929
  526ETHY    C1  442  34.804  10.608   8.100
  527ETHY    C1  443  34.962  11.087   8.251
  528ETHY    C1  444  35.031  11.589   8.383
  529ETHY    C1  445  35.007  12.104   8.494
  530ETHY    C1  446  34.888  12.623   8.585
  531AUSL   AUS  447  34.077   8.357   7.912
  532AUSL   AUS  448  34.493   8.427   7.767
  533AUL    AUL  449  34.380   8.143   7.993
  534THSLK    S  450  34.030   8.107   7.989
  535ETHY    C1  451  33.840   7.711   8.103
  536ETHY    C1  452  33.689   7.233   8.289
  537ETHY    C1  453  33.626   6.768   8.528
  538ETHY    C1  454  33.641   6.326   8.809
  539ETHY    C1  455  33.737   5.919   9.132
  540ETHY    C1  456  33.912   5.556   9.489
  541THSLK    S  457  34.605   8.240   7.907
  542ETHY    C1  458  34.684   7.812   8.040
  543ETHY    C1  459  34.859   7.342   8.222
  544ETHY    C1  460  35.113   6.930   8.428
  545ETHY    C1  461  35.433   6.581   8.652
  546ETHY    C1  462  35.814   6.306   8.893
  547ETHY    C1  463  36.249   6.110   9.147
  548AUSL   AUS  464  33.925   8.264   7.666
  549AUSL   AUS  465  33.812   8.521   8.013
  550AUL    AUL  466  33.774   8.143   7.993
  551THSLK    S  467  33.870   8.028   7.745
  552ETHY    C1  468  33.595   7.669   7.788
  553ETHY    C1  469  33.344   7.204   7.869
  554ETHY    C1  470  33.188   6.714   7.981
  555ETHY    C1  471  33.119   6.215   8.122
  556ETHY    C1  472  33.143   5.715   8.292
  557ETHY    C1  473  33.260   5.227   8.489
  558THSLK    S  474  33.634   8.355   8.129
  559ETHY    C1  475  33.332   8.037   8.248
  560ETHY    C1  476  33.013   7.670   8.471
  561ETHY    C1  477  32.748   7.333   8.776
  562ETHY    C1  478  32.536   7.031   9.147
  563ETHY    C1  479  32.383   6.773   9.582
  564ETHY    C1  480  32.292   6.566  10.072
  565AUSL   AUS  481  34.229   8.264   7.666
  566AUSL   AUS  482  33.925   8.264   7.339
  567AUL    AUL  483  34.077   7.956   7.503
  568THSLK    S  484  33.872   8.025   7.270
  569ETHY    C1  485  33.600   7.663   7.236
  570ETHY    C1  486  33.350   7.198   7.157
  571ETHY    C1  487  33.193   6.709   7.041
  572ETHY    C1  488  33.123   6.210   6.896
  573ETHY    C1  489  33.147   5.711   6.727
  574ETHY    C1  490  33.266   5.220   6.538
  575THSLK    S  491  34.183   8.012   7.749
  576ETHY    C1  492  34.036   7.586   7.811
  577ETHY    C1  493  33.950   7.068   7.906
  578ETHY    C1  494  33.962   6.555   8.025
  579ETHY    C1  495  34.064   6.060   8.165
  580ETHY    C1  496  34.256   5.595   8.325
  581ETHY    C1  497  34.534   5.169   8.504
  582AUSL   AUS  498  34.077   9.517   7.094
  583AUSL   AUS  499  34.493   9.448   7.238
  584AUL    AUL  500  34.380   9.732   7.012
  585THSLK    S  501  34.124   9.744   6.977
  586ETHY    C1  502  34.314  10.023   6.674
  587ETHY    C1  503  34.465  10.404   6.330
  588ETHY    C1  504  34.529  10.824   6.021
  589ETHY    C1  505  34.513  11.274   5.752
  590ETHY    C1  506  34.417  11.744   5.532
  591ETHY    C1  507  34.242  12.227   5.366
  592THSLK    S  508  34.681   9.564   7.089
  593ETHY    C1  509  35.068   9.684   6.883
  594ETHY    C1  510  35.486   9.907   6.637
  595ETHY    C1  511  35.844  10.211   6.400
  596ETHY    C1  512  36.139  10.583   6.178
  597ETHY    C1  513  36.364  11.018   5.981
  598ETHY    C1  514  36.515  11.507   5.811
  599AUSL   AUS  515  33.925   9.611   7.339
  600AUSL   AUS  516  33.812   9.354   6.992
  601AUL    AUL  517  33.774   9.732   7.012
  602THSLK    S  518  33.971   9.858   7.239
  603ETHY    C1  519  34.118  10.255   7.074
  604ETHY    C1  520  34.204  10.749   6.889
  605ETHY    C1  521  34.192  11.250   6.727
  606ETHY    C1  522  34.090  11.746   6.593
  607ETHY    C1  523  33.898  12.227   6.492
  608ETHY    C1  524  33.620  12.685   6.427
  609THSLK    S  525  33.702   9.486   6.805
  610ETHY    C1  526  33.666   9.635   6.377
  611ETHY    C1  527  33.556   9.861   5.906
  612ETHY    C1  528  33.378  10.136   5.494
  613ETHY    C1  529  33.144  10.449   5.145
  614ETHY    C1  530  32.858  10.798   4.870
  615ETHY    C1  531  32.527  11.176   4.675
  616AUSL   AUS  532  34.077   8.357   7.094
  617AUSL   AUS  533  33.661   8.427   7.238
  618AUL    AUL  534  33.774   8.143   7.012
  619THSLK    S  535  33.478   8.279   7.134
  620ETHY    C1  536  33.095   8.035   7.124
  621ETHY    C1  537  32.677   7.714   7.035
  622ETHY    C1  538  32.318   7.368   6.866
  623ETHY    C1  539  32.021   7.007   6.631
  624ETHY    C1  540  31.796   6.635   6.331
  625ETHY    C1  541  31.649   6.258   5.974
  626THSLK    S  542  34.035   8.102   7.024
  627ETHY    C1  543  33.851   7.701   6.917
  628ETHY    C1  544  33.701   7.223   6.732
  629ETHY    C1  545  33.635   6.760   6.491
  630ETHY    C1  546  33.648   6.320   6.206
  631ETHY    C1  547  33.745   5.913   5.885
  632ETHY    C1  548  33.925   5.545   5.533
  633AUSL   AUS  549  34.229   8.264   7.339
  634AUSL   AUS  550  34.342   8.521   6.992
  635AUL    AUL  551  34.380   8.143   7.012
  636THSLK    S  552  34.186   8.010   7.266
  637ETHY    C1  553  34.042   7.582   7.213
  638ETHY    C1  554  33.955   7.063   7.120
  639ETHY    C1  555  33.967   6.551   6.997
  640ETHY    C1  556  34.068   6.057   6.854
  641ETHY    C1  557  34.260   5.592   6.695
  642ETHY    C1  558  34.540   5.164   6.523
  643THSLK    S  559  34.459   8.331   6.859
  644ETHY    C1  560  34.503   7.929   6.651
  645ETHY    C1  561  34.613   7.498   6.355
  646ETHY    C1  562  34.789   7.135   6.017
  647ETHY    C1  563  35.020   6.841   5.651
  648ETHY    C1  564  35.306   6.624   5.264
  649ETHY    C1  565  35.643   6.488   4.865
  650AUC    AUC  566  16.393   6.160   7.503
  651AUC    AUC  567  16.638   6.160   7.351
  652AUC    AUC  568  16.638   6.160   7.654
  653AUC    AUC  569  16.148   6.160   7.351
  654AUC    AUC  570  16.148   6.160   7.654
  655AUC    AUC  571  16.241   6.406   7.503
  656AUC    AUC  572  16.545   6.406   7.503
  657AUC    AUC  573  16.241   5.915   7.503
  658AUC    AUC  574  16.545   5.915   7.503
  659AUC    AUC  575  16.393   6.009   7.748
  660AUC    AUC  576  16.393   6.312   7.748
  661AUC    AUC  577  16.393   6.009   7.257
  662AUC    AUC  578  16.393   6.312   7.257
  663AUC    AUC  579  16.884   6.160   7.199
  664AUC    AUC  580  16.884   6.160   7.503
  665AUC    AUC  581  16.884   6.160   7.806
  666AUC    AUC  582  15.902   6.160   7.199
  667AUC    AUC  583  15.902   6.160   7.503
  668AUC    AUC  584  15.902   6.160   7.806
  669AUC    AUC  585  16.090   6.651   7.503
  670AUC    AUC  586  16.393   6.651   7.503
  671AUC    AUC  587  16.696   6.651   7.503
  672AUC    AUC  588  16.090   5.670   7.503
  673AUC    AUC  589  16.393   5.670   7.503
  674AUC    AUC  590  16.696   5.670   7.503
  675AUC    AUC  591  16.393   5.857   7.993
  676AUC    AUC  592  16.393   6.160   7.993
  677AUC    AUC  593  16.393   6.464   7.993
  678AUC    AUC  594  16.393   5.857   7.012
  679AUC    AUC  595  16.393   6.160   7.012
  680AUC    AUC  596  16.393   6.464   7.012
  681AUC    AUC  597  16.638   6.009   7.900
  682AUC    AUC  598  16.638   6.312   7.900
  683AUC    AUC  599  16.638   6.009   7.106
  684AUC    AUC  600  16.638   6.312   7.106
  685AUC    AUC  601  16.148   6.009   7.900
  686AUC    AUC  602  16.148   6.312   7.900
  687AUC    AUC  603  16.148   6.009   7.106
  688AUC    AUC  604  16.148   6.312   7.106
  689AUC    AUC  605  16.790   6.406   7.351
  690AUC    AUC  606  16.790   6.406   7.654
  691AUC    AUC  607  15.996   6.406   7.351
  692AUC    AUC  608  15.996   6.406   7.654
  693AUC    AUC  609  16.790   5.915   7.351
  694AUC    AUC  610  16.790   5.915   7.654
  695AUC    AUC  611  15.996   5.915   7.351
  696AUC    AUC  612  15.996   5.915   7.654
  697AUC    AUC  613  16.241   6.558   7.748
  698AUC    AUC  614  16.545   6.558   7.748
  699AUC    AUC  615  16.241   5.763   7.748
  700AUC    AUC  616  16.545   5.763   7.748
  701AUC    AUC  617  16.241   6.558   7.257
  702AUC    AUC  618  16.545   6.558   7.257
  703AUC    AUC  619  16.241   5.763   7.257
  704AUC    AUC  620  16.545   5.763   7.257
  705AUSL   AUS  621  16.802   6.160   8.083
  706AUSL   AUS  622  16.658   5.744   8.013
  707AUL    AUL  623  16.884   5.857   8.297
  708THSLK    S  624  16.768   5.557   8.153
  709ETHY    C1  625  16.804   5.158   8.368
  710ETHY    C1  626  16.914   4.728   8.665
  711ETHY    C1  627  17.092   4.364   9.000
  712ETHY    C1  628  17.326   4.068   9.364
  713ETHY    C1  629  17.612   3.851   9.752
  714ETHY    C1  630  17.943   3.718  10.156
  715THSLK    S  631  16.895   6.108   8.324
  716ETHY    C1  632  17.099   5.888   8.665
  717ETHY    C1  633  17.363   5.711   9.094
  718ETHY    C1  634  17.639   5.635   9.535
  719ETHY    C1  635  17.916   5.652   9.980
  720ETHY    C1  636  18.186   5.765  10.419
  721ETHY    C1  637  18.445   5.974  10.845
  722AUSL   AUS  638  16.557   6.009   8.176
  723AUSL   AUS  639  16.229   6.312   8.176
  724AUL    AUL  640  16.393   6.160   8.484
  725THSLK    S  641  16.632   5.954   8.413
  726ETHY    C1  642  16.696   5.674   8.765
  727ETHY    C1  643  16.799   5.419   9.223
  728ETHY    C1  644  16.926   5.260   9.708
  729ETHY    C1  645  17.068   5.191  10.208
  730ETHY    C1  646  17.222   5.219  10.713
  731ETHY    C1  647  17.382   5.343  11.212
  732THSLK    S  648  16.144   6.266   8.428
  733ETHY    C1  649  16.070   6.116   8.850
  734ETHY    C1  650  15.965   6.028   9.367
  735ETHY    C1  651  15.843   6.040   9.878
  736ETHY    C1  652  15.705   6.141  10.373
  737ETHY    C1  653  15.550   6.334  10.840
  738ETHY    C1  654  15.381   6.615  11.268
  739AUSL   AUS  655  16.557   6.312   8.176
  740AUSL   AUS  656  16.903   6.425   7.919
  741AUL    AUL  657  16.884   6.464   8.297
  742THSLK    S  658  16.642   6.368   8.410
  743ETHY    C1  659  16.716   6.649   8.759
  744ETHY    C1  660  16.821   6.904   9.217
  745ETHY    C1  661  16.943   7.063   9.703
  746ETHY    C1  662  17.082   7.132  10.204
  747ETHY    C1  663  17.236   7.105  10.708
  748ETHY    C1  664  17.405   6.981  11.206
  749THSLK    S  665  17.075   6.523   8.080
  750ETHY    C1  666  17.438   6.494   8.350
  751ETHY    C1  667  17.860   6.550   8.673
  752ETHY    C1  668  18.252   6.704   8.989
  753ETHY    C1  669  18.606   6.942   9.293
  754ETHY    C1  670  18.913   7.263   9.580
  755ETHY    C1  671  19.164   7.660   9.844
  756AUSL   AUS  672  16.802   6.160   6.923
  757AUSL   AUS  673  16.658   6.577   6.992
  758AUL    AUL  674  16.884   6.464   6.708
  759THSLK    S  675  16.904   6.108   6.687
  760ETHY    C1  676  17.117   5.888   6.351
  761ETHY    C1  677  17.382   5.711   5.923
  762ETHY    C1  678  17.654   5.635   5.479
  763ETHY    C1  679  17.928   5.652   5.033
  764ETHY    C1  680  18.199   5.765   4.594
  765ETHY    C1  681  18.464   5.974   4.173
  766THSLK    S  682  16.836   6.688   6.829
  767ETHY    C1  683  17.138   6.756   6.497
  768ETHY    C1  684  17.457   6.919   6.100
  769ETHY    C1  685  17.722   7.166   5.719
  770ETHY    C1  686  17.934   7.486   5.362
  771ETHY    C1  687  18.087   7.876   5.039
  772ETHY    C1  688  18.178   8.328   4.759
  773AUSL   AUS  689  16.557   6.009   6.829
  774AUSL   AUS  690  16.903   5.896   7.086
  775AUL    AUL  691  16.884   5.857   6.708
  776THSLK    S  692  17.036   5.704   6.949
  777ETHY    C1  693  17.219   5.337   6.752
  778ETHY    C1  694  17.491   4.965   6.483
  779ETHY    C1  695  17.816   4.676   6.186
  780ETHY    C1  696  18.182   4.469   5.874
  781ETHY    C1  697  18.586   4.350   5.555
  782ETHY    C1  698  19.019   4.325   5.235
  783THSLK    S  699  16.642   5.953   6.596
  784ETHY    C1  700  16.716   5.672   6.246
  785ETHY    C1  701  16.821   5.416   5.788
  786ETHY    C1  702  16.943   5.258   5.302
  787ETHY    C1  703  17.082   5.189   4.801
  788ETHY    C1  704  17.236   5.216   4.297
  789ETHY    C1  705  17.405   5.340   3.799
  790AUSL   AUS  706  16.557   6.312   6.829
  791AUSL   AUS  707  16.229   6.009   6.829
  792AUL    AUL  708  16.393   6.160   6.521
  793THSLK    S  709  16.137   5.953   6.597
  794ETHY    C1  710  16.002   5.675   6.264
  795ETHY    C1  711  15.841   5.422   5.822
  796ETHY    C1  712  15.689   5.265   5.343
  797ETHY    C1  713  15.553   5.196   4.842
  798ETHY    C1  714  15.436   5.222   4.328
  799ETHY    C1  715  15.343   5.341   3.810
  800THSLK    S  716  16.659   6.266   6.583
  801ETHY    C1  717  16.805   6.116   6.179
  802ETHY    C1  718  16.967   6.025   5.678
  803ETHY    C1  719  17.114   6.035   5.173
  804ETHY    C1  720  17.247   6.136   4.677
  805ETHY    C1  721  17.364   6.331   4.200
  806ETHY    C1  722  17.465   6.617   3.754
  807AUSL   AUS  723  15.984   6.160   8.083
  808AUSL   AUS  724  16.128   6.577   8.013
  809AUL    AUL  725  15.902   6.464   8.297
  810THSLK    S  726  15.882   6.108   8.319
  811ETHY    C1  727  15.670   5.888   8.654
  812ETHY    C1  728  15.404   5.711   9.082
  813ETHY    C1  729  15.132   5.635   9.526
  814ETHY    C1  730  14.858   5.652   9.973
  815ETHY    C1  731  14.587   5.765  10.411
  816ETHY    C1  732  14.322   5.974  10.832
  817THSLK    S  733  16.011   6.701   8.202
  818ETHY    C1  734  15.968   6.844   8.632
  819ETHY    C1  735  15.857   7.069   9.104
  820ETHY    C1  736  15.681   7.346   9.515
  821ETHY    C1  737  15.450   7.662   9.863
  822ETHY    C1  738  15.164   8.010  10.138
  823ETHY    C1  739  14.827   8.383  10.334
  824AUSL   AUS  740  16.229   6.009   8.176
  825AUSL   AUS  741  15.883   5.896   7.919
  826AUL    AUL  742  15.902   5.857   8.297
  827THSLK    S  743  15.706   5.733   8.026
  828ETHY    C1  744  15.335   5.476   8.082
  829ETHY    C1  745  14.913   5.188   8.237
  830ETHY    C1  746  14.523   4.933   8.482
  831ETHY    C1  747  14.171   4.716   8.803
  832ETHY    C1  748  13.865   4.545   9.198
  833ETHY    C1  749  13.608   4.424   9.657
  834THSLK    S  750  16.127   5.955   8.406
  835ETHY    C1  751  15.981   5.679   8.736
  836ETHY    C1  752  15.819   5.427   9.178
  837ETHY    C1  753  15.672   5.269   9.658
  838ETHY    C1  754  15.539   5.199  10.160
  839ETHY    C1  755  15.422   5.225  10.674
  840ETHY    C1  756  15.321   5.346  11.190
  841AUSL   AUS  757  15.984   6.160   6.923
  842AUSL   AUS  758  16.128   5.744   6.992
  843AUL    AUL  759  15.902   5.857   6.708
  844THSLK    S  760  15.891   6.108   6.681
  845ETHY    C1  761  15.687   5.888   6.341
  846ETHY    C1  762  15.423   5.711   5.911
  847ETHY    C1  763  15.147   5.635   5.470
  848ETHY    C1  764  14.870   5.652   5.025
  849ETHY    C1  765  14.600   5.765   4.586
  850ETHY    C1  766  14.341   5.974   4.161
  851THSLK    S  767  15.957   5.571   6.878
  852ETHY    C1  768  15.662   5.245   6.760
  853ETHY    C1  769  15.344   4.878   6.538
  854ETHY    C1  770  15.076   4.543   6.233
  855ETHY    C1  771  14.862   4.243   5.861
  856ETHY    C1  772  14.710   3.985   5.426
  857ETHY    C1  773  14.624   3.773   4.937
  858AUSL   AUS  774  16.229   6.312   6.829
  859AUSL   AUS  775  15.883   6.425   7.086
  860AUL    AUL  776  15.902   6.464   6.708
  861THSLK    S  777  15.756   6.552   6.895
  862ETHY    C1  778  15.579   6.633   6.484
  863ETHY    C1  779  15.308   6.773   6.046
  864ETHY    C1  780  14.981   6.961   5.679
  865ETHY    C1  781  14.612   7.190   5.385
  866ETHY    C1  782  14.210   7.457   5.173
  867ETHY    C1  783  13.781   7.759   5.047
  868THSLK    S  784  16.154   6.268   6.576
  869ETHY    C1  785  16.090   6.121   6.150
  870ETHY    C1  786  15.987   6.032   5.634
  871ETHY    C1  787  15.860   6.043   5.123
  872ETHY    C1  788  15.718   6.144   4.629
  873ETHY    C1  789  15.565   6.337   4.162
  874ETHY    C1  790  15.404   6.620   3.732
  875AUSL   AUS  791  16.973   6.569   7.503
  876AUSL   AUS  792  16.903   6.425   7.086
  877AUL    AUL  793  17.187   6.651   7.199
  878THSLK    S  794  17.081   6.524   6.934
  879ETHY    C1  795  17.451   6.497   6.671
  880ETHY    C1  796  17.873   6.553   6.349
  881ETHY    C1  797  18.263   6.707   6.030
  882ETHY    C1  798  18.615   6.944   5.724
  883ETHY    C1  799  18.922   7.265   5.438
  884ETHY    C1  800  19.178   7.664   5.179
  885THSLK    S  801  17.239   6.622   7.508
  886ETHY    C1  802  17.693   6.644   7.513
  887ETHY    C1  803  18.215   6.758   7.514
  888ETHY    C1  804  18.698   6.967   7.511
  889ETHY    C1  805  19.134   7.257   7.510
  890ETHY    C1  806  19.513   7.624   7.510
  891ETHY    C1  807  19.827   8.064   7.514
  892AUSL   AUS  808  17.067   6.324   7.351
  893AUSL   AUS  809  17.067   5.997   7.654
  894AUL    AUL  810  17.375   6.160   7.503
  895THSLK    S  811  17.323   6.363   7.350
  896ETHY    C1  812  17.759   6.255   7.286
  897ETHY    C1  813  18.285   6.217   7.201
  898ETHY    C1  814  18.800   6.281   7.113
  899ETHY    C1  815  19.294   6.435   7.026
  900ETHY    C1  816  19.754   6.680   6.945
  901ETHY    C1  817  20.173   7.012   6.873
  902THSLK    S  818  17.294   5.857   7.663
  903ETHY    C1  819  17.613   5.541   7.728
  904ETHY    C1  820  18.046   5.237   7.807
  905ETHY    C1  821  18.521   5.027   7.887
  906ETHY    C1  822  19.024   4.906   7.971
  907ETHY    C1  823  19.544   4.880   8.058
  908ETHY    C1  824  20.072   4.950   8.147
  909AUSL   AUS  825  17.067   6.324   7.654
  910AUSL   AUS  826  16.809   6.671   7.767
  911AUL    AUL  827  17.187   6.651   7.806
  912THSLK    S  828  16.992   6.785   7.926
  913ETHY    C1  829  17.375   6.903   8.140
  914ETHY    C1  830  17.793   7.126   8.388
  915ETHY    C1  831  18.152   7.431   8.622
  916ETHY    C1  832  18.449   7.804   8.840
  917ETHY    C1  833  18.674   8.238   9.038
  918ETHY    C1  834  18.821   8.726   9.215
  919THSLK    S  835  17.321   6.363   7.665
  920ETHY    C1  836  17.756   6.255   7.740
  921ETHY    C1  837  18.282   6.217   7.826
  922ETHY    C1  838  18.797   6.280   7.910
  923ETHY    C1  839  19.291   6.434   7.993
  924ETHY    C1  840  19.752   6.679   8.075
  925ETHY    C1  841  20.169   7.011   8.155
  926AUSL   AUS  842  15.813   6.569   7.503
  927AUSL   AUS  843  15.883   6.425   7.919
  928AUL    AUL  844  15.599   6.651   7.806
  929THSLK    S  845  15.750   6.544   8.109
  930ETHY    C1  846  15.567   6.616   8.519
  931ETHY    C1  847  15.295   6.756   8.957
  932ETHY    C1  848  14.970   6.947   9.324
  933ETHY    C1  849  14.604   7.178   9.619
  934ETHY    C1  850  14.201   7.445   9.831
  935ETHY    C1  851  13.767   7.741   9.956
  936THSLK    S  852  15.602   6.710   7.508
  937ETHY    C1  853  15.380   7.107   7.513
  938ETHY    C1  854  15.044   7.522   7.514
  939ETHY    C1  855  14.641   7.861   7.511
  940ETHY    C1  856  14.187   8.122   7.510
  941ETHY    C1  857  13.688   8.296   7.510
  942ETHY    C1  858  13.155   8.380   7.514
  943AUSL   AUS  859  15.719   6.324   7.351
  944AUSL   AUS  860  15.977   6.671   7.238
  945AUL    AUL  861  15.599   6.651   7.199
  946THSLK    S  862  15.492   6.439   7.303
  947ETHY    C1  863  15.173   6.639   7.049
  948ETHY    C1  864  14.740   6.845   6.813
  949ETHY    C1  865  14.265   7.011   6.661
  950ETHY    C1  866  13.762   7.140   6.590
  951ETHY    C1  867  13.242   7.230   6.605
  952ETHY    C1  868  12.714   7.278   6.708
  953THSLK    S  869  15.865   6.834   7.060
  954ETHY    C1  870  15.786   7.144   6.737
  955ETHY    C1  871  15.611   7.518   6.397
  956ETHY    C1  872  15.357   7.886   6.120
  957ETHY    C1  873  15.037   8.243   5.909
  958ETHY    C1  874  14.656   8.581   5.770
  959ETHY    C1  875  14.221   8.895   5.709
  960AUSL   AUS  876  15.719   6.324   7.654
  961AUSL   AUS  877  15.719   5.997   7.351
  962AUL    AUL  878  15.411   6.160   7.503
  963THSLK    S  879  15.465   5.924   7.394
  964ETHY    C1  880  15.030   5.906   7.524
  965ETHY    C1  881  14.504   5.846   7.597
  966ETHY    C1  882  13.989   5.742   7.578
  967ETHY    C1  883  13.495   5.599   7.477
  968ETHY    C1  884  13.035   5.416   7.294
  969ETHY    C1  885  12.617   5.196   7.034
  970THSLK    S  886  15.491   6.430   7.707
  971ETHY    C1  887  15.170   6.621   7.966
  972ETHY    C1  888  14.737   6.825   8.202
  973ETHY    C1  889  14.262   6.996   8.352
  974ETHY    C1  890  13.760   7.128   8.422
  975ETHY    C1  891  13.240   7.216   8.407
  976ETHY    C1  892  12.711   7.257   8.308
  977AUSL   AUS  893  16.973   5.751   7.503
  978AUSL   AUS  894  16.903   5.896   7.919
  979AUL    AUL  895  17.187   5.670   7.806
  980THSLK    S  896  17.184   5.610   7.508
  981ETHY    C1  897  17.406   5.214   7.513
  982ETHY    C1  898  17.742   4.799   7.514
  983ETHY    C1  899  18.145   4.460   7.511
  984ETHY    C1  900  18.599   4.199   7.510
  985ETHY    C1  901  19.098   4.025   7.510
  986ETHY    C1  902  19.631   3.941   7.514
  987THSLK    S  903  17.030   5.705   8.064
  988ETHY    C1  904  17.207   5.340   8.270
  989ETHY    C1  905  17.478   4.968   8.540
  990ETHY    C1  906  17.805   4.679   8.834
  991ETHY    C1  907  18.174   4.471   9.142
  992ETHY    C1  908  18.576   4.353   9.462
  993ETHY    C1  909  19.005   4.328   9.789
  994AUSL   AUS  910  17.067   5.997   7.351
  995AUSL   AUS  911  16.809   5.650   7.238
  996AUL    AUL  912  17.187   5.670   7.199
  997THSLK    S  913  17.295   5.857   7.353
  998ETHY    C1  914  17.616   5.540   7.298
  999ETHY    C1  915  18.049   5.237   7.221
 1000ETHY    C1  916  18.524   5.027   7.136
 1001ETHY    C1  917  19.026   4.906   7.048
 1002ETHY    C1  918  19.546   4.879   6.963
 1003ETHY    C1  919  20.075   4.950   6.881
 1004THSLK    S  920  16.925   5.461   7.108
 1005ETHY    C1  921  17.009   5.032   6.984
 1006ETHY    C1  922  17.184   4.560   6.803
 1007ETHY    C1  923  17.437   4.149   6.593
 1008ETHY    C1  924  17.755   3.801   6.366
 1009ETHY    C1  925  18.137   3.526   6.126
 1010ETHY    C1  926  18.575   3.329   5.880
 1011AUSL   AUS  927  15.813   5.751   7.503
 1012AUSL   AUS  928  15.883   5.896   7.086
 1013AUL    AUL  929  15.599   5.670   7.199
 1014THSLK    S  930  15.712   5.725   6.978
 1015ETHY    C1  931  15.348   5.460   6.921
 1016ETHY    C1  932  14.926   5.170   6.766
 1017ETHY    C1  933  14.534   4.918   6.521
 1018ETHY    C1  934  14.180   4.705   6.200
 1019ETHY    C1  935  13.873   4.532   5.806
 1020ETHY    C1  936  13.622   4.405   5.346
 1021THSLK    S  937  15.547   5.699   7.508
 1022ETHY    C1  938  15.093   5.677   7.513
 1023ETHY    C1  939  14.571   5.563   7.514
 1024ETHY    C1  940  14.089   5.354   7.511
 1025ETHY    C1  941  13.652   5.064   7.510
 1026ETHY    C1  942  13.273   4.697   7.510
 1027ETHY    C1  943  12.960   4.257   7.514
 1028AUSL   AUS  944  15.719   5.997   7.654
 1029AUSL   AUS  945  15.977   5.650   7.767
 1030AUL    AUL  946  15.599   5.670   7.806
 1031THSLK    S  947  15.789   5.510   7.878
 1032ETHY    C1  948  15.402   5.273   7.893
 1033ETHY    C1  949  14.984   4.953   7.982
 1034ETHY    C1  950  14.626   4.604   8.149
 1035ETHY    C1  951  14.331   4.240   8.382
 1036ETHY    C1  952  14.106   3.869   8.683
 1037ETHY    C1  953  13.955   3.498   9.045
 1038THSLK    S  954  15.463   5.934   7.616
 1039ETHY    C1  955  15.027   5.924   7.491
 1040ETHY    C1  956  14.501   5.865   7.419
 1041ETHY    C1  957  13.986   5.758   7.436
 1042ETHY    C1  958  13.492   5.612   7.535
 1043ETHY    C1  959  13.032   5.430   7.718
 1044ETHY    C1  960  12.613   5.217   7.983
 1045AUSL   AUS  961  16.393   6.740   7.912
 1046AUSL   AUS  962  15.977   6.671   7.767
 1047AUL    AUL  963  16.090   6.955   7.993
 1048THSLK    S  964  15.861   6.827   7.952
 1049ETHY    C1  965  15.777   7.129   8.280
 1050ETHY    C1  966  15.602   7.502   8.621
 1051ETHY    C1  967  15.349   7.873   8.895
 1052ETHY    C1  968  15.031   8.232   9.105
 1053ETHY    C1  969  14.649   8.570   9.244
 1054ETHY    C1  970  14.211   8.878   9.309
 1055THSLK    S  971  16.435   6.962   8.035
 1056ETHY    C1  972  16.619   7.237   8.347
 1057ETHY    C1  973  16.769   7.617   8.691
 1058ETHY    C1  974  16.835   8.040   8.998
 1059ETHY    C1  975  16.822   8.491   9.264
 1060ETHY    C1  976  16.725   8.960   9.485
 1061ETHY    C1  977  16.545   9.439   9.656
 1062AUSL   AUS  978  16.241   6.834   7.666
 1063AUSL   AUS  979  16.545   6.834   7.339
 1064AUL    AUL  980  16.393   7.142   7.503
 1065THSLK    S  981  16.284   7.078   7.776
 1066ETHY    C1  982  16.428   7.472   7.951
 1067ETHY    C1  983  16.515   7.966   8.137
 1068ETHY    C1  984  16.503   8.467   8.294
 1069ETHY    C1  985  16.402   8.965   8.425
 1070ETHY    C1  986  16.210   9.446   8.527
 1071ETHY    C1  987  15.930   9.901   8.600
 1072THSLK    S  988  16.600   7.065   7.243
 1073ETHY    C1  989  16.876   7.395   7.096
 1074ETHY    C1  990  17.126   7.836   6.927
 1075ETHY    C1  991  17.282   8.313   6.771
 1076ETHY    C1  992  17.351   8.815   6.635
 1077ETHY    C1  993  17.327   9.331   6.525
 1078ETHY    C1  994  17.210   9.851   6.443
 1079AUSL   AUS  995  16.545   6.834   7.666
 1080AUSL   AUS  996  16.658   6.577   8.013
 1081AUL    AUL  997  16.696   6.955   7.993
 1082THSLK    S  998  16.829   6.685   8.183
 1083ETHY    C1  999  17.124   6.750   8.523
 1084ETHY    C1 1000  17.442   6.912   8.920
 1085ETHY    C1 1001  17.710   7.161   9.298
 1086ETHY    C1 1002  17.924   7.483   9.653
 1087ETHY    C1 1003  18.076   7.871   9.976
 1088ETHY    C1 1004  18.162   8.321  10.262
 1089THSLK    S 1005  16.598   7.063   7.772
 1090ETHY    C1 1006  16.870   7.391   7.929
 1091ETHY    C1 1007  17.120   7.831   8.100
 1092ETHY    C1 1008  17.278   8.310   8.251
 1093ETHY    C1 1009  17.347   8.812   8.383
 1094ETHY    C1 1010  17.323   9.327   8.494
 1095ETHY    C1 1011  17.204   9.846   8.585
 1096AUSL   AUS 1012  16.393   5.580   7.912
 1097AUSL   AUS 1013  16.809   5.650   7.767
 1098AUL    AUL 1014  16.696   5.366   7.993
 1099THSLK    S 1015  16.346   5.330   7.989
 1100ETHY    C1 1016  16.156   4.934   8.103
 1101ETHY    C1 1017  16.005   4.456   8.289
 1102ETHY    C1 1018  15.942   3.991   8.528
 1103ETHY    C1 1019  15.957   3.549   8.809
 1104ETHY    C1 1020  16.053   3.142   9.132
 1105ETHY    C1 1021  16.228   2.779   9.489
 1106THSLK    S 1022  16.921   5.463   7.907
 1107ETHY    C1 1023  17.000   5.035   8.040
 1108ETHY    C1 1024  17.175   4.565   8.222
 1109ETHY    C1 1025  17.429   4.153   8.428
 1110ETHY    C1 1026  17.749   3.804   8.652
 1111ETHY    C1 1027  18.130   3.529   8.893
 1112ETHY    C1 1028  18.565   3.333   9.147
 1113AUSL   AUS 1029  16.241   5.487   7.666
 1114AUSL   AUS 1030  16.128   5.744   8.013
 1115AUL    AUL 1031  16.090   5.366   7.993
 1116THSLK    S 1032  16.186   5.251   7.745
 1117ETHY    C1 1033  15.911   4.892   7.788
 1118ETHY    C1 1034  15.660   4.427   7.869
 1119ETHY    C1 1035  15.504   3.937   7.981
 1120ETHY    C1 1036  15.435   3.438   8.122
 1121ETHY    C1 1037  15.459   2.938   8.292
 1122ETHY    C1 1038  15.576   2.450   8.489
 1123THSLK    S 1039  15.950   5.578   8.129
 1124ETHY    C1 1040  15.648   5.260   8.248
 1125ETHY    C1 1041  15.329   4.893   8.471
 1126ETHY    C1 1042  15.064   4.556   8.776
 1127ETHY    C1 1043  14.852   4.254   9.147
 1128ETHY    C1 1044  14.699   3.996   9.582
 1129ETHY    C1 1045  14.608   3.789  10.072
 1130AUSL   AUS 1046  16.545   5.487   7.666
 1131AUSL   AUS 1047  16.241   5.487   7.339
 1132AUL    AUL 1048  16.393   5.179   7.503
 1133THSLK    S 1049  16.188   5.248   7.270
 1134ETHY    C1 1050  15.916   4.886   7.236
 1135ETHY    C1 1051  15.666   4.421   7.157
 1136ETHY    C1 1052  15.509   3.932   7.041
 1137ETHY    C1 1053  15.439   3.433   6.896
 1138ETHY    C1 1054  15.463   2.934   6.727
 1139ETHY    C1 1055  15.582   2.443   6.538
 1140THSLK    S 1056  16.499   5.235   7.749
 1141ETHY    C1 1057  16.352   4.809   7.811
 1142ETHY    C1 1058  16.266   4.291   7.906
 1143ETHY    C1 1059  16.278   3.778   8.025
 1144ETHY    C1 1060  16.380   3.283   8.165
 1145ETHY    C1 1061  16.572   2.818   8.325
 1146ETHY    C1 1062  16.850   2.392   8.504
 1147AUSL   AUS 1063  16.393   6.740   7.094
 1148AUSL   AUS 1064  16.809   6.671   7.238
 1149AUL    AUL 1065  16.696   6.955   7.012
 1150THSLK    S 1066  16.440   6.967   6.977
 1151ETHY    C1 1067  16.630   7.246   6.674
 1152ETHY    C1 1068  16.781   7.627   6.330
 1153ETHY    C1 1069  16.845   8.047   6.021
 1154ETHY    C1 1070  16.829   8.497   5.752
 1155ETHY    C1 1071  16.733   8.967   5.532
 1156ETHY    C1 1072  16.558   9.450   5.366
 1157THSLK    S 1073  16.997   6.787   7.089
 1158ETHY    C1 1074  17.384   6.907   6.883
 1159ETHY    C1 1075  17.802   7.130   6.637
 1160ETHY    C1 1076  18.160   7.434   6.400
 1161ETHY    C1 1077  18.455   7.806   6.178
 1162ETHY    C1 1078  18.680   8.241   5.981
 1163ETHY    C1 1079  18.831   8.730   5.811
 1164AUSL   AUS 1080  16.241   6.834   7.339
 1165AUSL   AUS 1081  16.128   6.577   6.992
 1166AUL    AUL 1082  16.090   6.955   7.012
 1167THSLK    S 1083  16.287   7.081   7.239
 1168ETHY    C1 1084  16.434   7.478   7.074
 1169ETHY    C1 1085  16.520   7.972   6.889
 1170ETHY    C1 1086  16.508   8.473   6.727
 1171ETHY    C1 1087  16.406   8.969   6.593
 1172ETHY    C1 1088  16.214   9.450   6.492
 1173ETHY    C1 1089  15.936   9.908   6.427
 1174THSLK    S 1090  16.018   6.709   6.805
 1175ETHY    C1 1091  15.982   6.858   6.377
 1176ETHY    C1 1092  15.872   7.084   5.906
 1177ETHY    C1 1093  15.694   7.359   5.494
 1178ETHY    C1 1094  15.460   7.672   5.145
 1179ETHY    C1 1095  15.174   8.021   4.870
 1180ETHY    C1 1096  14.843   8.399   4.675
 1181AUSL   AUS 1097  16.393   5.580   7.094
 1182AUSL   AUS 1098  15.977   5.650   7.238
 1183AUL    AUL 1099  16.090   5.366   7.012
 1184THSLK    S 1100  15.794   5.502   7.134
 1185ETHY    C1 1101  15.411   5.258   7.124
 1186ETHY    C1 1102  14.993   4.937   7.035
 1187ETHY    C1 1103  14.634   4.591   6.866
 1188ETHY    C1 1104  14.337   4.230   6.631
 1189ETHY    C1 1105  14.112   3.858   6.331
 1190ETHY    C1 1106  13.965   3.481   5.974
 1191THSLK    S 1107  16.351   5.325   7.024
 1192ETHY    C1 1108  16.167   4.924   6.917
 1193ETHY    C1 1109  16.017   4.446   6.732
 1194ETHY    C1 1110  15.951   3.983   6.491
 1195ETHY    C1 1111  15.964   3.543   6.206
 1196ETHY    C1 1112  16.061   3.136   5.885
 1197ETHY    C1 1113  16.241   2.768   5.533
 1198AUSL   AUS 1114  16.545   5.487   7.339
 1199AUSL   AUS 1115  16.658   5.744   6.992
 1200AUL    AUL 1116  16.696   5.366   7.012
 1201THSLK    S 1117  16.502   5.233   7.266
 1202ETHY    C1 1118  16.358   4.805   7.213
 1203ETHY    C1 1119  16.271   4.286   7.120
 1204ETHY    C1 1120  16.283   3.774   6.997
 1205ETHY    C1 1121  16.384   3.280   6.854
 1206ETHY    C1 1122  16.576   2.815   6.695
 1207ETHY    C1 1123  16.856   2.387   6.523
 1208THSLK    S 1124  16.775   5.554   6.859
 1209ETHY    C1 1125  16.819   5.152   6.651
 1210ETHY    C1 1126  16.929   4.721   6.355
 1211ETHY    C1 1127  17.105   4.358   6.017
 1212ETHY    C1 1128  17.336   4.064   5.651
 1213ETHY    C1 1129  17.622   3.847   5.264
 1214ETHY    C1 1130  17.959   3.711   4.865
 1215AUC    AUC 1131  41.245  35.732   7.503
 1216AUC    AUC 1132  41.490  35.732   7.351
 1217AUC    AUC 1133  41.490  35.732   7.654
 1218AUC    AUC 1134  41.000  35.732   7.351
 1219AUC    AUC 1135  41.000  35.732   7.654
 1220AUC    AUC 1136  41.093  35.978   7.503
 1221AUC    AUC 1137  41.397  35.978   7.503
 1222AUC    AUC 1138  41.093  35.487   7.503
 1223AUC    AUC 1139  41.397  35.487   7.503
 1224AUC    AUC 1140  41.245  35.581   7.748
 1225AUC    AUC 1141  41.245  35.884   7.748
 1226AUC    AUC 1142  41.245  35.581   7.257
 1227AUC    AUC 1143  41.245  35.884   7.257
 1228AUC    AUC 1144  41.736  35.732   7.199
 1229AUC    AUC 1145  41.736  35.732   7.503
 1230AUC    AUC 1146  41.736  35.732   7.806
 1231AUC    AUC 1147  40.754  35.732   7.199
 1232AUC    AUC 1148  40.754  35.732   7.503
 1233AUC    AUC 1149  40.754  35.732   7.806
 1234AUC    AUC 1150  40.942  36.223   7.503
 1235AUC    AUC 1151  41.245  36.223   7.503
 1236AUC    AUC 1152  41.548  36.223   7.503
 1237AUC    AUC 1153  40.942  35.242   7.503
 1238AUC    AUC 1154  41.245  35.242   7.503
 1239AUC    AUC 1155  41.548  35.242   7.503
 1240AUC    AUC 1156  41.245  35.429   7.993
 1241AUC    AUC 1157  41.245  35.732   7.993
 1242AUC    AUC 1158  41.245  36.036   7.993
 1243AUC    AUC 1159  41.245  35.429   7.012
 1244AUC    AUC 1160  41.245  35.732   7.012
 1245AUC    AUC 1161  41.245  36.036   7.012
 1246AUC    AUC 1162  41.490  35.581   7.900
 1247AUC    AUC 1163  41.490  35.884   7.900
 1248AUC    AUC 1164  41.490  35.581   7.106
 1249AUC    AUC 1165  41.490  35.884   7.106
 1250AUC    AUC 1166  41.000  35.581   7.900
 1251AUC    AUC 1167  41.000  35.884   7.900
 1252AUC    AUC 1168  41.000  35.581   7.106
 1253AUC    AUC 1169  41.000  35.884   7.106
 1254AUC    AUC 1170  41.642  35.978   7.351
 1255AUC    AUC 1171  41.642  35.978   7.654
 1256AUC    AUC 1172  40.848  35.978   7.351
 1257AUC    AUC 1173  40.848  35.978   7.654
 1258AUC    AUC 1174  41.642  35.487   7.351
 1259AUC    AUC 1175  41.642  35.487   7.654
 1260AUC    AUC 1176  40.848  35.487   7.351
 1261AUC    AUC 1177  40.848  35.487   7.654
 1262AUC    AUC 1178  41.093  36.130   7.748
 1263AUC    AUC 1179  41.397  36.130   7.748
 1264AUC    AUC 1180  41.093  35.335   7.748
 1265AUC    AUC 1181  41.397  35.335   7.748
 1266AUC    AUC 1182  41.093  36.130   7.257
 1267AUC    AUC 1183  41.397  36.130   7.257
 1268AUC    AUC 1184  41.093  35.335   7.257
 1269AUC    AUC 1185  41.397  35.335   7.257
 1270AUSL   AUS 1186  41.654  35.732   8.083
 1271AUSL   AUS 1187  41.510  35.316   8.013
 1272AUL    AUL 1188  41.736  35.429   8.297
 1273THSLK    S 1189  41.620  35.129   8.153
 1274ETHY    C1 1190  41.656  34.730   8.368
 1275ETHY    C1 1191  41.766  34.300   8.665
 1276ETHY    C1 1192  41.944  33.936   9.000
 1277ETHY    C1 1193  42.178  33.640   9.364
 1278ETHY    C1 1194  42.464  33.423   9.752
 1279ETHY    C1 1195  42.795  33.290  10.156
 1280THSLK    S 1196  41.747  35.680   8.324
 1281ETHY    C1 1197  41.951  35.460   8.665
 1282ETHY    C1 1198  42.215  35.283   9.094
 1283ETHY    C1 1199  42.491  35.207   9.535
 1284ETHY    C1 1200  42.768  35.224   9.980
 1285ETHY    C1 1201  43.038  35.337  10.419
 1286ETHY    C1 1202  43.297  35.546  10.845
 1287AUSL   AUS 1203  41.409  35.581   8.176
 1288AUSL   AUS 1204  41.081  35.884   8.176
 1289AUL    AUL 1205  41.245  35.732   8.484
 1290THSLK    S 1206  41.484  35.526   8.413
 1291ETHY    C1 1207  41.548  35.246   8.765
 1292ETHY    C1 1208  41.651  34.991   9.223
 1293ETHY    C1 1209  41.778  34.832   9.708
 1294ETHY    C1 1210  41.920  34.763  10.208
 1295ETHY    C1 1211  42.074  34.791  10.713
 1296ETHY    C1 1212  42.234  34.915  11.212
 1297THSLK    S 1213  40.996  35.838   8.428
 1298ETHY    C1 1214  40.922  35.688   8.850
 1299ETHY    C1 1215  40.817  35.600   9.367
 1300ETHY    C1 1216  40.695  35.612   9.878
 1301ETHY    C1 1217  40.557  35.713  10.373
 1302ETHY    C1 1218  40.402  35.906  10.840
 1303ETHY    C1 1219  40.233  36.187  11.268
 1304AUSL   AUS 1220  41.409  35.884   8.176
 1305AUSL   AUS 1221  41.755  35.997   7.919
 1306AUL    AUL 1222  41.736  36.036   8.297
 1307THSLK    S 1223  41.494  35.940   8.410
 1308ETHY    C1 1224  41.568  36.221   8.759
 1309ETHY    C1 1225  41.673  36.476   9.217
 1310ETHY    C1 1226  41.795  36.635   9.703
 1311ETHY    C1 1227  41.934  36.704  10.204
 1312ETHY    C1 1228  42.088  36.677  10.708
 1313ETHY    C1 1229  42.257  36.553  11.206
 1314THSLK    S 1230  41.927  36.095   8.080
 1315ETHY    C1 1231  42.290  36.066   8.350
 1316ETHY    C1 1232  42.712  36.122   8.673
 1317ETHY    C1 1233  43.104  36.276   8.989
 1318ETHY    C1 1234  43.458  36.514   9.293
 1319ETHY    C1 1235  43.765  36.835   9.580
 1320ETHY    C1 1236  44.016  37.232   9.844
 1321AUSL   AUS 1237  41.654  35.732   6.923
 1322AUSL   AUS 1238  41.510  36.149   6.992
 1323AUL    AUL 1239  41.736  36.036   6.708
 1324THSLK    S 1240  41.756  35.680   6.687
 1325ETHY    C1 1241  41.969  35.460   6.351
 1326ETHY    C1 1242  42.234  35.283   5.923
 1327ETHY    C1 1243  42.506  35.207   5.479
 1328ETHY    C1 1244  42.780  35.224   5.033
 1329ETHY    C1 1245  43.051  35.337   4.594
 1330ETHY    C1 1246  43.316  35.546   4.173
 1331THSLK    S 1247  41.688  36.260   6.829
 1332ETHY    C1 1248  41.990  36.328   6.497
 1333ETHY    C1 1249  42.309  36.491   6.100
 1334ETHY    C1 1250  42.574  36.738   5.719
 1335ETHY    C1 1251  42.786  37.058   5.362
 1336ETHY    C1 1252  42.939  37.448   5.039
 1337ETHY    C1 1253  43.030  37.900   4.759
 1338AUSL   AUS 1254  41.409  35.581   6.829
 1339AUSL   AUS 1255  41.755  35.468   7.086
 1340AUL    AUL 1256  41.736  35.429   6.708
 1341THSLK    S 1257  41.888  35.276   6.949
 1342ETHY    C1 1258  42.071  34.909   6.752
 1343ETHY    C1 1259  42.343  34.537   6.483
 1344ETHY    C1 1260  42.668  34.248   6.186
 1345ETHY    C1 1261  43.034  34.041   5.874
 1346ETHY    C1 1262  43.438  33.922   5.555
 1347ETHY    C1 1263  43.871  33.897   5.235
 1348THSLK    S 1264  41.494  35.525   6.596
 1349ETHY    C1 1265  41.568  35.244   6.246
 1350ETHY    C1 1266  41.673  34.988   5.788
 1351ETHY    C1 1267  41.795  34.830   5.302
 1352ETHY    C1 1268  41.934  34.761   4.801
 1353ETHY    C1 1269  42.088  34.788   4.297
 1354ETHY    C1 1270  42.257  34.912   3.799
 1355AUSL   AUS 1271  41.409  35.884   6.829
 1356AUSL   AUS 1272  41.081  35.581   6.829
 1357AUL    AUL 1273  41.245  35.732   6.521
 1358THSLK    S 1274  40.989  35.525   6.597
 1359ETHY    C1 1275  40.854  35.247   6.264
 1360ETHY    C1 1276  40.693  34.994   5.822
 1361ETHY    C1 1277  40.541  34.837   5.343
 1362ETHY    C1 1278  40.405  34.768   4.842
 1363ETHY    C1 1279  40.288  34.794   4.328
 1364ETHY    C1 1280  40.195  34.913   3.810
 1365THSLK    S 1281  41.511  35.838   6.583
 1366ETHY    C1 1282  41.657  35.688   6.179
 1367ETHY    C1 1283  41.819  35.597   5.678
 1368ETHY    C1 1284  41.966  35.607   5.173
 1369ETHY    C1 1285  42.099  35.708   4.677
 1370ETHY    C1 1286  42.216  35.903   4.200
 1371ETHY    C1 1287  42.317  36.189   3.754
 1372AUSL   AUS 1288  40.836  35.732   8.083
 1373AUSL   AUS 1289  40.980  36.149   8.013
 1374AUL    AUL 1290  40.754  36.036   8.297
 1375THSLK    S 1291  40.734  35.680   8.319
 1376ETHY    C1 1292  40.522  35.460   8.654
 1377ETHY    C1 1293  40.256  35.283   9.082
 1378ETHY    C1 1294  39.984  35.207   9.526
 1379ETHY    C1 1295  39.710  35.224   9.973
 1380ETHY    C1 1296  39.439  35.337  10.411
 1381ETHY    C1 1297  39.174  35.546  10.832
 1382THSLK    S 1298  40.863  36.273   8.202
 1383ETHY    C1 1299  40.820  36.416   8.632
 1384ETHY    C1 1300  40.709  36.641   9.104
 1385ETHY    C1 1301  40.533  36.918   9.515
 1386ETHY    C1 1302  40.302  37.234   9.863
 1387ETHY    C1 1303  40.016  37.582  10.138
 1388ETHY    C1 1304  39.679  37.955  10.334
 1389AUSL   AUS 1305  41.081  35.581   8.176
 1390AUSL   AUS 1306  40.735  35.468   7.919
 1391AUL    AUL 1307  40.754  35.429   8.297
 1392THSLK    S 1308  40.558  35.305   8.026
 1393ETHY    C1 1309  40.187  35.048   8.082
 1394ETHY    C1 1310  39.765  34.760   8.237
 1395ETHY    C1 1311  39.375  34.505   8.482
 1396ETHY    C1 1312  39.023  34.288   8.803
 1397ETHY    C1 1313  38.717  34.117   9.198
 1398ETHY    C1 1314  38.460  33.996   9.657
 1399THSLK    S 1315  40.979  35.527   8.406
 1400ETHY    C1 1316  40.833  35.251   8.736
 1401ETHY    C1 1317  40.671  34.999   9.178
 1402ETHY    C1 1318  40.524  34.841   9.658
 1403ETHY    C1 1319  40.391  34.771  10.160
 1404ETHY    C1 1320  40.274  34.797  10.674
 1405ETHY    C1 1321  40.173  34.918  11.190
 1406AUSL   AUS 1322  40.836  35.732   6.923
 1407AUSL   AUS 1323  40.980  35.316   6.992
 1408AUL    AUL 1324  40.754  35.429   6.708
 1409THSLK    S 1325  40.743  35.680   6.681
 1410ETHY    C1 1326  40.539  35.460   6.341
 1411ETHY    C1 1327  40.275  35.283   5.911
 1412ETHY    C1 1328  39.999  35.207   5.470
 1413ETHY    C1 1329  39.722  35.224   5.025
 1414ETHY    C1 1330  39.452  35.337   4.586
 1415ETHY    C1 1331  39.193  35.546   4.161
 1416THSLK    S 1332  40.809  35.143   6.878
 1417ETHY    C1 1333  40.514  34.817   6.760
 1418ETHY    C1 1334  40.196  34.450   6.538
 1419ETHY    C1 1335  39.928  34.115   6.233
 1420ETHY    C1 1336  39.714  33.815   5.861
 1421ETHY    C1 1337  39.562  33.557   5.426
 1422ETHY    C1 1338  39.476  33.345   4.937
 1423AUSL   AUS 1339  41.081  35.884   6.829
 1424AUSL   AUS 1340  40.735  35.997   7.086
 1425AUL    AUL 1341  40.754  36.036   6.708
 1426THSLK    S 1342  40.608  36.124   6.895
 1427ETHY    C1 1343  40.431  36.205   6.484
 1428ETHY    C1 1344  40.160  36.345   6.046
 1429ETHY    C1 1345  39.833  36.533   5.679
 1430ETHY    C1 1346  39.464  36.762   5.385
 1431ETHY    C1 1347  39.062  37.029   5.173
 1432ETHY    C1 1348  38.633  37.331   5.047
 1433THSLK    S 1349  41.006  35.840   6.576
 1434ETHY    C1 1350  40.942  35.693   6.150
 1435ETHY    C1 1351  40.839  35.604   5.634
 1436ETHY    C1 1352  40.712  35.615   5.123
 1437ETHY    C1 1353  40.570  35.716   4.629
 1438ETHY    C1 1354  40.417  35.909   4.162
 1439ETHY    C1 1355  40.256  36.192   3.732
 1440AUSL   AUS 1356  41.825  36.141   7.503
 1441AUSL   AUS 1357  41.755  35.997   7.086
 1442AUL    AUL 1358  42.039  36.223   7.199
 1443THSLK    S 1359  41.933  36.096   6.934
 1444ETHY    C1 1360  42.303  36.069   6.671
 1445ETHY    C1 1361  42.725  36.125   6.349
 1446ETHY    C1 1362  43.115  36.279   6.030
 1447ETHY    C1 1363  43.467  36.516   5.724
 1448ETHY    C1 1364  43.774  36.837   5.438
 1449ETHY    C1 1365  44.030  37.236   5.179
 1450THSLK    S 1366  42.091  36.194   7.508
 1451ETHY    C1 1367  42.545  36.216   7.513
 1452ETHY    C1 1368  43.067  36.330   7.514
 1453ETHY    C1 1369  43.550  36.539   7.511
 1454ETHY    C1 1370  43.986  36.829   7.510
 1455ETHY    C1 1371  44.365  37.196   7.510
 1456ETHY    C1 1372  44.679  37.636   7.514
 1457AUSL   AUS 1373  41.919  35.896   7.351
 1458AUSL   AUS 1374  41.919  35.569   7.654
 1459AUL    AUL 1375  42.227  35.732   7.503
 1460THSLK    S 1376  42.175  35.935   7.350
 1461ETHY    C1 1377  42.611  35.827   7.286
 1462ETHY    C1 1378  43.137  35.789   7.201
 1463ETHY    C1 1379  43.652  35.853   7.113
 1464ETHY    C1 1380  44.146  36.007   7.026
 1465ETHY    C1 1381  44.606  36.252   6.945
 1466ETHY    C1 1382  45.025  36.584   6.873
 1467THSLK    S 1383  42.146  35.429   7.663
 1468ETHY    C1 1384  42.465  35.113   7.728
 1469ETHY    C1 1385  42.898  34.809   7.807
 1470ETHY    C1 1386  43.373  34.599   7.887
 1471ETHY    C1 1387  43.876  34.478   7.971
 1472ETHY    C1 1388  44.396  34.452   8.058
 1473ETHY    C1 1389  44.924  34.522   8.147
 1474AUSL   AUS 1390  41.919  35.896   7.654
 1475AUSL   AUS 1391  41.661  36.243   7.767
 1476AUL    AUL 1392  42.039  36.223   7.806
 1477THSLK    S 1393  41.844  36.357   7.926
 1478ETHY    C1 1394  42.227  36.475   8.140
 1479ETHY    C1 1395  42.645  36.698   8.388
 1480ETHY    C1 1396  43.004  37.003   8.622
 1481ETHY    C1 1397  43.301  37.376   8.840
 1482ETHY    C1 1398  43.526  37.810   9.038
 1483ETHY    C1 1399  43.673  38.298   9.215
 1484THSLK    S 1400  42.173  35.935   7.665
 1485ETHY    C1 1401  42.608  35.827   7.740
 1486ETHY    C1 1402  43.134  35.789   7.826
 1487ETHY    C1 1403  43.649  35.852   7.910
 1488ETHY    C1 1404  44.143  36.006   7.993
 1489ETHY    C1 1405  44.604  36.251   8.075
 1490ETHY    C1 1406  45.021  36.583   8.155
 1491AUSL   AUS 1407  40.665  36.141   7.503
 1492AUSL   AUS 1408  40.735  35.997   7.919
 1493AUL    AUL 1409  40.451  36.223   7.806
 1494THSLK    S 1410  40.602  36.116   8.109
 1495ETHY    C1 1411  40.419  36.188   8.519
 1496ETHY    C1 1412  40.147  36.328   8.957
 1497ETHY    C1 1413  39.822  36.519   9.324
 1498ETHY    C1 1414  39.456  36.750   9.619
 1499ETHY    C1 1415  39.053  37.017   9.831
 1500ETHY    C1 1416  38.619  37.313   9.956
 1501THSLK    S 1417  40.454  36.282   7.508
 1502ETHY    C1 1418  40.232  36.679   7.513
 1503ETHY    C1 1419  39.896  37.094   7.514
 1504ETHY    C1 1420  39.493  37.433   7.511
 1505ETHY    C1 1421  39.039  37.694   7.510
 1506ETHY    C1 1422  38.540  37.868   7.510
 1507ETHY    C1 1423  38.007  37.952   7.514
 1508AUSL   AUS 1424  40.571  35.896   7.351
 1509AUSL   AUS 1425  40.829  36.243   7.238
 1510AUL    AUL 1426  40.451  36.223   7.199
 1511THSLK    S 1427  40.344  36.011   7.303
 1512ETHY    C1 1428  40.025  36.211   7.049
 1513ETHY    C1 1429  39.592  36.417   6.813
 1514ETHY    C1 1430  39.117  36.583   6.661
 1515ETHY    C1 1431  38.614  36.712   6.590
 1516ETHY    C1 1432  38.094  36.802   6.605
 1517ETHY    C1 1433  37.566  36.850   6.708
 1518THSLK    S 1434  40.717  36.406   7.060
 1519ETHY    C1 1435  40.638  36.716   6.737
 1520ETHY    C1 1436  40.463  37.090   6.397
 1521ETHY    C1 1437  40.209  37.458   6.120
 1522ETHY    C1 1438  39.889  37.815   5.909
 1523ETHY    C1 1439  39.508  38.153   5.770
 1524ETHY    C1 1440  39.073  38.467   5.709
 1525AUSL   AUS 1441  40.571  35.896   7.654
 1526AUSL   AUS 1442  40.571  35.569   7.351
 1527AUL    AUL 1443  40.263  35.732   7.503
 1528THSLK    S 1444  40.317  35.496   7.394
 1529ETHY    C1 1445  39.882  35.478   7.524
 1530ETHY    C1 1446  39.356  35.418   7.597
 1531ETHY    C1 1447  38.841  35.314   7.578
 1532ETHY    C1 1448  38.347  35.171   7.477
 1533ETHY    C1 1449  37.887  34.988   7.294
 1534ETHY    C1 1450  37.469  34.768   7.034
 1535THSLK    S 1451  40.343  36.002   7.707
 1536ETHY    C1 1452  40.022  36.193   7.966
 1537ETHY    C1 1453  39.589  36.397   8.202
 1538ETHY    C1 1454  39.114  36.568   8.352
 1539ETHY    C1 1455  38.612  36.700   8.422
 1540ETHY    C1 1456  38.092  36.788   8.407
 1541ETHY    C1 1457  37.563  36.829   8.308
 1542AUSL   AUS 1458  41.825  35.323   7.503
 1543AUSL   AUS 1459  41.755  35.468   7.919
 1544AUL    AUL 1460  42.039  35.242   7.806
 1545THSLK    S 1461  42.036  35.182   7.508
 1546ETHY    C1 1462  42.258  34.786   7.513
 1547ETHY    C1 1463  42.594  34.371   7.514
 1548ETHY    C1 1464  42.997  34.032   7.511
 1549ETHY    C1 1465  43.451  33.771   7.510
 1550ETHY    C1 1466  43.950  33.597   7.510
 1551ETHY    C1 1467  44.483  33.513   7.514
 1552THSLK    S 1468  41.882  35.277   8.064
 1553ETHY    C1 1469  42.059  34.912   8.270
 1554ETHY    C1 1470  42.330  34.540   8.540
 1555ETHY    C1 1471  42.657  34.251   8.834
 1556ETHY    C1 1472  43.026  34.043   9.142
 1557ETHY    C1 1473  43.428  33.925   9.462
 1558ETHY    C1 1474  43.857  33.900   9.789
 1559AUSL   AUS 1475  41.919  35.569   7.351
 1560AUSL   AUS 1476  41.661  35.222   7.238
 1561AUL    AUL 1477  42.039  35.242   7.199
 1562THSLK    S 1478  42.147  35.429   7.353
 1563ETHY    C1 1479  42.468  35.112   7.298
 1564ETHY    C1 1480  42.901  34.809   7.221
 1565ETHY    C1 1481  43.376  34.599   7.136
 1566ETHY    C1 1482  43.878  34.478   7.048
 1567ETHY    C1 1483  44.398  34.451   6.963
 1568ETHY    C1 1484  44.927  34.522   6.881
 1569THSLK    S 1485  41.777  35.033   7.108
 1570ETHY    C1 1486  41.861  34.604   6.984
 1571ETHY    C1 1487  42.036  34.132   6.803
 1572ETHY    C1 1488  42.289  33.721   6.593
 1573ETHY    C1 1489  42.607  33.373   6.366
 1574ETHY    C1 1490  42.989  33.098   6.126
 1575ETHY    C1 1491  43.427  32.901   5.880
 1576AUSL   AUS 1492  40.665  35.323   7.503
 1577AUSL   AUS 1493  40.735  35.468   7.086
 1578AUL    AUL 1494  40.451  35.242   7.199
 1579THSLK    S 1495  40.564  35.297   6.978
 1580ETHY    C1 1496  40.200  35.032   6.921
 1581ETHY    C1 1497  39.778  34.742   6.766
 1582ETHY    C1 1498  39.386  34.490   6.521
 1583ETHY    C1 1499  39.032  34.277   6.200
 1584ETHY    C1 1500  38.725  34.104   5.806
 1585ETHY    C1 1501  38.474  33.977   5.346
 1586THSLK    S 1502  40.399  35.271   7.508
 1587ETHY    C1 1503  39.945  35.249   7.513
 1588ETHY    C1 1504  39.423  35.135   7.514
 1589ETHY    C1 1505  38.941  34.926   7.511
 1590ETHY    C1 1506  38.504  34.636   7.510
 1591ETHY    C1 1507  38.125  34.269   7.510
 1592ETHY    C1 1508  37.812  33.829   7.514
 1593AUSL   AUS 1509  40.571  35.569   7.654
 1594AUSL   AUS 1510  40.829  35.222   7.767
 1595AUL    AUL 1511  40.451  35.242   7.806
 1596THSLK    S 1512  40.641  35.082   7.878
 1597ETHY    C1 1513  40.254  34.845   7.893
 1598ETHY    C1 1514  39.836  34.525   7.982
 1599ETHY    C1 1515  39.478  34.176   8.149
 1600ETHY    C1 1516  39.183  33.812   8.382
 1601ETHY    C1 1517  38.958  33.441   8.683
 1602ETHY    C1 1518  38.807  33.070   9.045
 1603THSLK    S 1519  40.315  35.506   7.616
 1604ETHY    C1 1520  39.879  35.496   7.491
 1605ETHY    C1 1521  39.353  35.437   7.419
 1606ETHY    C1 1522  38.838  35.330   7.436
 1607ETHY    C1 1523  38.344  35.184   7.535
 1608ETHY    C1 1524  37.884  35.002   7.718
 1609ETHY    C1 1525  37.465  34.789   7.983
 1610AUSL   AUS 1526  41.245  36.312   7.912
 1611AUSL   AUS 1527  40.829  36.243   7.767
 1612AUL    AUL 1528  40.942  36.527   7.993
 1613THSLK    S 1529  40.713  36.399   7.952
 1614ETHY    C1 1530  40.629  36.701   8.280
 1615ETHY    C1 1531  40.454  37.074   8.621
 1616ETHY    C1 1532  40.201  37.445   8.895
 1617ETHY    C1 1533  39.883  37.804   9.105
 1618ETHY    C1 1534  39.501  38.142   9.244
 1619ETHY    C1 1535  39.063  38.450   9.309
 1620THSLK    S 1536  41.287  36.534   8.035
 1621ETHY    C1 1537  41.471  36.809   8.347
 1622ETHY    C1 1538  41.621  37.189   8.691
 1623ETHY    C1 1539  41.687  37.612   8.998
 1624ETHY    C1 1540  41.674  38.063   9.264
 1625ETHY    C1 1541  41.577  38.532   9.485
 1626ETHY    C1 1542  41.397  39.011   9.656
 1627AUSL   AUS 1543  41.093  36.406   7.666
 1628AUSL   AUS 1544  41.397  36.406   7.339
 1629AUL    AUL 1545  41.245  36.714   7.503
 1630THSLK    S 1546  41.136  36.650   7.776
 1631ETHY    C1 1547  41.280  37.044   7.951
 1632ETHY    C1 1548  41.367  37.538   8.137
 1633ETHY    C1 1549  41.355  38.039   8.294
 1634ETHY    C1 1550  41.254  38.537   8.425
 1635ETHY    C1 1551  41.062  39.018   8.527
 1636ETHY    C1 1552  40.782  39.473   8.600
 1637THSLK    S 1553  41.452  36.637   7.243
 1638ETHY    C1 1554  41.728  36.967   7.096
 1639ETHY    C1 1555  41.978  37.408   6.927
 1640ETHY    C1 1556  42.134  37.885   6.771
 1641ETHY    C1 1557  42.203  38.387   6.635
 1642ETHY    C1 1558  42.179  38.903   6.525
 1643ETHY    C1 1559  42.062  39.423   6.443
 1644AUSL   AUS 1560  41.397  36.406   7.666
 1645AUSL   AUS 1561  41.510  36.149   8.013
 1646AUL    AUL 1562  41.548  36.527   7.993
 1647THSLK    S 1563  41.681  36.257   8.183
 1648ETHY    C1 1564  41.976  36.322   8.523
 1649ETHY    C1 1565  42.294  36.484   8.920
 1650ETHY    C1 1566  42.562  36.733   9.298
 1651ETHY    C1 1567  42.776  37.055   9.653
 1652ETHY    C1 1568  42.928  37.443   9.976
 1653ETHY    C1 1569  43.014  37.893  10.262
 1654THSLK    S 1570  41.450  36.635   7.772
 1655ETHY    C1 1571  41.722  36.963   7.929
 1656ETHY    C1 1572  41.972  37.403   8.100
 1657ETHY    C1 1573  42.130  37.882   8.251
 1658ETHY    C1 1574  42.199  38.384   8.383
 1659ETHY    C1 1575  42.175  38.899   8.494
 1660ETHY    C1 1576  42.056  39.418   8.585
 1661AUSL   AUS 1577  41.245  35.152   7.912
 1662AUSL   AUS 1578  41.661  35.222   7.767
 1663AUL    AUL 1579  41.548  34.938   7.993
 1664THSLK    S 1580  41.198  34.902   7.989
 1665ETHY    C1 1581  41.008  34.506   8.103
 1666ETHY    C1 1582  40.857  34.028   8.289
 1667ETHY    C1 1583  40.794  33.563   8.528
 1668ETHY    C1 1584  40.809  33.121   8.809
 1669ETHY    C1 1585  40.905  32.714   9.132
 1670ETHY    C1 1586  41.080  32.351   9.489
 1671THSLK    S 1587  41.773  35.035   7.907
 1672ETHY    C1 1588  41.852  34.607   8.040
 1673ETHY    C1 1589  42.027  34.137   8.222
 1674ETHY    C1 1590  42.281  33.725   8.428
 1675ETHY    C1 1591  42.601  33.376   8.652
 1676ETHY    C1 1592  42.982  33.101   8.893
 1677ETHY    C1 1593  43.417  32.905   9.147
 1678AUSL   AUS 1594  41.093  35.059   7.666
 1679AUSL   AUS 1595  40.980  35.316   8.013
 1680AUL    AUL 1596  40.942  34.938   7.993
 1681THSLK    S 1597  41.038  34.823   7.745
 1682ETHY    C1 1598  40.763  34.464   7.788
 1683ETHY    C1 1599  40.512  33.999   7.869
 1684ETHY    C1 1600  40.356  33.509   7.981
 1685ETHY    C1 1601  40.287  33.010   8.122
 1686ETHY    C1 1602  40.311  32.510   8.292
 1687ETHY    C1 1603  40.428  32.022   8.489
 1688THSLK    S 1604  40.802  35.150   8.129
 1689ETHY    C1 1605  40.500  34.832   8.248
 1690ETHY    C1 1606  40.181  34.465   8.471
 1691ETHY    C1 1607  39.916  34.128   8.776
 1692ETHY    C1 1608  39.704  33.826   9.147
 1693ETHY    C1 1609  39.551  33.568   9.582
 1694ETHY    C1 1610  39.460  33.361  10.072
 1695AUSL   AUS 1611  41.397  35.059   7.666
 1696AUSL   AUS 1612  41.093  35.059   7.339
 1697AUL    AUL 1613  41.245  34.751   7.503
 1698THSLK    S 1614  41.040  34.820   7.270
 1699ETHY    C1 1615  40.768  34.458   7.236
 1700ETHY    C1 1616  40.518  33.993   7.157
 1701ETHY    C1 1617  40.361  33.504   7.041
 1702ETHY    C1 1618  40.291  33.005   6.896
 1703ETHY    C1 1619  40.315  32.506   6.727
 1704ETHY    C1 1620  40.434  32.015   6.538
 1705THSLK    S 1621  41.351  34.807   7.749
 1706ETHY    C1 1622  41.204  34.381   7.811
 1707ETHY    C1 1623  41.118  33.863   7.906
 1708ETHY    C1 1624  41.130  33.350   8.025
 1709ETHY    C1 1625  41.232  32.855   8.165
 1710ETHY    C1 1626  41.424  32.390   8.325
 1711ETHY    C1 1627  41.702  31.964   8.504
 1712AUSL   AUS 1628  41.245  36.312   7.094
 1713AUSL   AUS 1629  41.661  36.243   7.238
 1714AUL    AUL 1630  41.548  36.527   7.012
 1715THSLK    S 1631  41.292  36.539   6.977
 1716ETHY    C1 1632  41.482  36.818   6.674
 1717ETHY    C1 1633  41.633  37.199   6.330
 1718ETHY    C1 1634  41.697  37.619   6.021
 1719ETHY    C1 1635  41.681  38.069   5.752
 1720ETHY    C1 1636  41.585  38.539   5.532
 1721ETHY    C1 1637  41.410  39.022   5.366
 1722THSLK    S 1638  41.849  36.359   7.089
 1723ETHY    C1 1639  42.236  36.479   6.883
 1724ETHY    C1 1640  42.654  36.702   6.637
 1725ETHY    C1 1641  43.012  37.006   6.400
 1726ETHY    C1 1642  43.307  37.378   6.178
 1727ETHY    C1 1643  43.532  37.813   5.981
 1728ETHY    C1 1644  43.683  38.302   5.811
 1729AUSL   AUS 1645  41.093  36.406   7.339
 1730AUSL   AUS 1646  40.980  36.149   6.992
 1731AUL    AUL 1647  40.942  36.527   7.012
 1732THSLK    S 1648  41.139  36.653   7.239
 1733ETHY    C1 1649  41.286  37.050   7.074
 1734ETHY    C1 1650  41.372  37.544   6.889
 1735ETHY    C1 1651  41.360  38.045   6.727
 1736ETHY    C1 1652  41.258  38.541   6.593
 1737ETHY    C1 1653  41.066  39.022   6.492
 1738ETHY    C1 1654  40.788  39.480   6.427
 1739THSLK    S 1655  40.870  36.281   6.805
 1740ETHY    C1 1656  40.834  36.430   6.377
 1741ETHY    C1 1657  40.724  36.656   5.906
 1742ETHY    C1 1658  40.546  36.931   5.494
 1743ETHY    C1 1659  40.312  37.244   5.145
 1744ETHY    C1 1660  40.026  37.593   4.870
 1745ETHY    C1 1661  39.695  37.971   4.675
 1746AUSL   AUS 1662  41.245  35.152   7.094
 1747AUSL   AUS 1663  40.829  35.222   7.238
 1748AUL    AUL 1664  40.942  34.938   7.012
 1749THSLK    S 1665  40.646  35.074   7.134
 1750ETHY    C1 1666  40.263  34.830   7.124
 1751ETHY    C1 1667  39.845  34.509   7.035
 1752ETHY    C1 1668  39.486  34.163   6.866
 1753ETHY    C1 1669  39.189  33.802   6.631
 1754ETHY    C1 1670  38.964  33.430   6.331
 1755ETHY    C1 1671  38.817  33.053   5.974
 1756THSLK    S 1672  41.203  34.897   7.024
 1757ETHY    C1 1673  41.019  34.496   6.917
 1758ETHY    C1 1674  40.869  34.018   6.732
 1759ETHY    C1 1675  40.803  33.555   6.491
 1760ETHY    C1 1676  40.816  33.115   6.206
 1761ETHY    C1 1677  40.913  32.708   5.885
 1762ETHY    C1 1678  41.093  32.340   5.533
 1763AUSL   AUS 1679  41.397  35.059   7.339
 1764AUSL   AUS 1680  41.510  35.316   6.992
 1765AUL    AUL 1681  41.548  34.938   7.012
 1766THSLK    S 1682  41.354  34.805   7.266
 1767ETHY    C1 1683  41.210  34.377   7.213
 1768ETHY    C1 1684  41.123  33.858   7.120
 1769ETHY    C1 1685  41.135  33.346   6.997
 1770ETHY    C1 1686  41.236  32.852   6.854
 1771ETHY    C1 1687  41.428  32.387   6.695
 1772ETHY    C1 1688  41.708  31.959   6.523
 1773THSLK    S 1689  41.627  35.126   6.859
 1774ETHY    C1 1690  41.671  34.724   6.651
 1775ETHY    C1 1691  41.781  34.293   6.355
 1776ETHY    C1 1692  41.957  33.930   6.017
 1777ETHY    C1 1693  42.188  33.636   5.651
 1778ETHY    C1 1694  42.474  33.419   5.264
 1779ETHY    C1 1695  42.811  33.283   4.865
 1780AUC    AUC 1696  26.127  31.164   7.503
 1781AUC    AUC 1697  26.372  31.164   7.351
 1782AUC    AUC 1698  26.372  31.164   7.654
 1783AUC    AUC 1699  25.882  31.164   7.351
 1784AUC    AUC 1700  25.882  31.164   7.654
 1785AUC    AUC 1701  25.975  31.410   7.503
 1786AUC    AUC 1702  26.279  31.410   7.503
 1787AUC    AUC 1703  25.975  30.919   7.503
 1788AUC    AUC 1704  26.279  30.919   7.503
 1789AUC    AUC 1705  26.127  31.013   7.748
 1790AUC    AUC 1706  26.127  31.316   7.748
 1791AUC    AUC 1707  26.127  31.013   7.257
 1792AUC    AUC 1708  26.127  31.316   7.257
 1793AUC    AUC 1709  26.618  31.164   7.199
 1794AUC    AUC 1710  26.618  31.164   7.503
 1795AUC    AUC 1711  26.618  31.164   7.806
 1796AUC    AUC 1712  25.636  31.164   7.199
 1797AUC    AUC 1713  25.636  31.164   7.503
 1798AUC    AUC 1714  25.636  31.164   7.806
 1799AUC    AUC 1715  25.824  31.655   7.503
 1800AUC    AUC 1716  26.127  31.655   7.503
 1801AUC    AUC 1717  26.430  31.655   7.503
 1802AUC    AUC 1718  25.824  30.674   7.503
 1803AUC    AUC 1719  26.127  30.674   7.503
 1804AUC    AUC 1720  26.430  30.674   7.503
 1805AUC    AUC 1721  26.127  30.861   7.993
 1806AUC    AUC 1722  26.127  31.164   7.993
 1807AUC    AUC 1723  26.127  31.468   7.993
 1808AUC    AUC 1724  26.127  30.861   7.012
 1809AUC    AUC 1725  26.127  31.164   7.012
 1810AUC    AUC 1726  26.127  31.468   7.012
 1811AUC    AUC 1727  26.372  31.013   7.900
 1812AUC    AUC 1728  26.372  31.316   7.900
 1813AUC    AUC 1729  26.372  31.013   7.106
 1814AUC    AUC 1730  26.372  31.316   7.106
 1815AUC    AUC 1731  25.882  31.013   7.900
 1816AUC    AUC 1732  25.882  31.316   7.900
 1817AUC    AUC 1733  25.882  31.013   7.106
 1818AUC    AUC 1734  25.882  31.316   7.106
 1819AUC    AUC 1735  26.524  31.410   7.351
 1820AUC    AUC 1736  26.524  31.410   7.654
 1821AUC    AUC 1737  25.730  31.410   7.351
 1822AUC    AUC 1738  25.730  31.410   7.654
 1823AUC    AUC 1739  26.524  30.919   7.351
 1824AUC    AUC 1740  26.524  30.919   7.654
 1825AUC    AUC 1741  25.730  30.919   7.351
 1826AUC    AUC 1742  25.730  30.919   7.654
 1827AUC    AUC 1743  25.975  31.562   7.748
 1828AUC    AUC 1744  26.279  31.562   7.748
 1829AUC    AUC 1745  25.975  30.767   7.748
 1830AUC    AUC 1746  26.279  30.767   7.748
 1831AUC    AUC 1747  25.975  31.562   7.257
 1832AUC    AUC 1748  26.279  31.562   7.257
 1833AUC    AUC 1749  25.975  30.767   7.257
 1834AUC    AUC 1750  26.279  30.767   7.257
 1835AUSL   AUS 1751  26.536  31.164   8.083
 1836AUSL   AUS 1752  26.392  30.748   8.013
 1837AUL    AUL 1753  26.618  30.861   8.297
 1838THSLK    S 1754  26.502  30.561   8.153
 1839ETHY    C1 1755  26.538  30.162   8.368
 1840ETHY    C1 1756  26.648  29.732   8.665
 1841ETHY    C1 1757  26.826  29.368   9.000
 1842ETHY    C1 1758  27.060  29.072   9.364
 1843ETHY    C1 1759  27.346  28.855   9.752
 1844ETHY    C1 1760  27.677  28.722  10.156
 1845THSLK    S 1761  26.629  31.112   8.324
 1846ETHY    C1 1762  26.833  30.892   8.665
 1847ETHY    C1 1763  27.097  30.715   9.094
 1848ETHY    C1 1764  27.373  30.639   9.535
 1849ETHY    C1 1765  27.650  30.656   9.980
 1850ETHY    C1 1766  27.920  30.769  10.419
 1851ETHY    C1 1767  28.179  30.978  10.845
 1852AUSL   AUS 1768  26.291  31.013   8.176
 1853AUSL   AUS 1769  25.963  31.316   8.176
 1854AUL    AUL 1770  26.127  31.164   8.484
 1855THSLK    S 1771  26.366  30.958   8.413
 1856ETHY    C1 1772  26.430  30.678   8.765
 1857ETHY    C1 1773  26.533  30.423   9.223
 1858ETHY    C1 1774  26.660  30.264   9.708
 1859ETHY    C1 1775  26.802  30.195  10.208
 1860ETHY    C1 1776  26.956  30.223  10.713
 1861ETHY    C1 1777  27.116  30.347  11.212
 1862THSLK    S 1778  25.878  31.270   8.428
 1863ETHY    C1 1779  25.804  31.120   8.850
 1864ETHY    C1 1780  25.699  31.032   9.367
 1865ETHY    C1 1781  25.577  31.044   9.878
 1866ETHY    C1 1782  25.439  31.145  10.373
 1867ETHY    C1 1783  25.284  31.338  10.840
 1868ETHY    C1 1784  25.115  31.619  11.268
 1869AUSL   AUS 1785  26.291  31.316   8.176
 1870AUSL   AUS 1786  26.637  31.429   7.919
 1871AUL    AUL 1787  26.618  31.468   8.297
 1872THSLK    S 1788  26.376  31.372   8.410
 1873ETHY    C1 1789  26.450  31.653   8.759
 1874ETHY    C1 1790  26.555  31.908   9.217
 1875ETHY    C1 1791  26.677  32.067   9.703
 1876ETHY    C1 1792  26.816  32.136  10.204
 1877ETHY    C1 1793  26.970  32.109  10.708
 1878ETHY    C1 1794  27.139  31.985  11.206
 1879THSLK    S 1795  26.809  31.527   8.080
 1880ETHY    C1 1796  27.172  31.498   8.350
 1881ETHY    C1 1797  27.594  31.554   8.673
 1882ETHY    C1 1798  27.986  31.708   8.989
 1883ETHY    C1 1799  28.340  31.946   9.293
 1884ETHY    C1 1800  28.647  32.267   9.580
 1885ETHY    C1 1801  28.898  32.664   9.844
 1886AUSL   AUS 1802  26.536  31.164   6.923
 1887AUSL   AUS 1803  26.392  31.581   6.992
 1888AUL    AUL 1804  26.618  31.468   6.708
 1889THSLK    S 1805  26.638  31.112   6.687
 1890ETHY    C1 1806  26.851  30.892   6.351
 1891ETHY    C1 1807  27.116  30.715   5.923
 1892ETHY    C1 1808  27.388  30.639   5.479
 1893ETHY    C1 1809  27.662  30.656   5.033
 1894ETHY    C1 1810  27.933  30.769   4.594
 1895ETHY    C1 1811  28.198  30.978   4.173
 1896THSLK    S 1812  26.570  31.692   6.829
 1897ETHY    C1 1813  26.872  31.760   6.497
 1898ETHY    C1 1814  27.191  31.923   6.100
 1899ETHY    C1 1815  27.456  32.170   5.719
 1900ETHY    C1 1816  27.668  32.490   5.362
 1901ETHY    C1 1817  27.821  32.880   5.039
 1902ETHY    C1 1818  27.912  33.332   4.759
 1903AUSL   AUS 1819  26.291  31.013   6.829
 1904AUSL   AUS 1820  26.637  30.900   7.086
 1905AUL    AUL 1821  26.618  30.861   6.708
 1906THSLK    S 1822  26.770  30.708   6.949
 1907ETHY    C1 1823  26.953  30.341   6.752
 1908ETHY    C1 1824  27.225  29.969   6.483
 1909ETHY    C1 1825  27.550  29.680   6.186
 1910ETHY    C1 1826  27.916  29.473   5.874
 1911ETHY    C1 1827  28.320  29.354   5.555
 1912ETHY    C1 1828  28.753  29.329   5.235
 1913THSLK    S 1829  26.376  30.957   6.596
 1914ETHY    C1 1830  26.450  30.676   6.246
 1915ETHY    C1 1831  26.555  30.420   5.788
 1916ETHY    C1 1832  26.677  30.262   5.302
 1917ETHY    C1 1833  26.816  30.193   4.801
 1918ETHY    C1 1834  26.970  30.220   4.297
 1919ETHY    C1 1835  27.139  30.344   3.799
 1920AUSL   AUS 1836  26.291  31.316   6.829
 1921AUSL   AUS 1837  25.963  31.013   6.829
 1922AUL    AUL 1838  26.127  31.164   6.521
 1923THSLK    S 1839  25.871  30.957   6.597
 1924ETHY    C1 1840  25.736  30.679   6.264
 1925ETHY    C1 1841  25.575  30.426   5.822
 1926ETHY    C1 1842  25.423  30.269   5.343
 1927ETHY    C1 1843  25.287  30.200   4.842
 1928ETHY    C1 1844  25.170  30.226   4.328
 1929ETHY    C1 1845  25.077  30.345   3.810
 1930THSLK    S 1846  26.393  31.270   6.583
 1931ETHY    C1 1847  26.539  31.120   6.179
 1932ETHY    C1 1848  26.701  31.029   5.678
 1933ETHY    C1 1849  26.848  31.039   5.173
 1934ETHY    C1 1850  26.981  31.140   4.677
 1935ETHY    C1 1851  27.098  31.335   4.200
 1936ETHY    C1 1852  27.199  31.621   3.754
 1937AUSL   AUS 1853  25.718  31.164   8.083
 1938AUSL   AUS 1854  25.862  31.581   8.013
 1939AUL    AUL 1855  25.636  31.468   8.297
 1940THSLK    S 1856  25.616  31.112   8.319
 1941ETHY    C1 1857  25.404  30.892   8.654
 1942ETHY    C1 1858  25.138  30.715   9.082
 1943ETHY    C1 1859  24.866  30.639   9.526
 1944ETHY    C1 1860  24.592  30.656   9.973
 1945ETHY    C1 1861  24.321  30.769  10.411
 1946ETHY    C1 1862  24.056  30.978  10.832
 1947THSLK    S 1863  25.745  31.705   8.202
 1948ETHY    C1 1864  25.702  31.848   8.632
 1949ETHY    C1 1865  25.591  32.073   9.104
 1950ETHY    C1 1866  25.415  32.350   9.515
 1951ETHY    C1 1867  25.184  32.666   9.863
 1952ETHY    C1 1868  24.898  33.014  10.138
 1953ETHY    C1 1869  24.561  33.387  10.334
 1954AUSL   AUS 1870  25.963  31.013   8.176
 1955AUSL   AUS 1871  25.617  30.900   7.919
 1956AUL    AUL 1872  25.636  30.861   8.297
 1957THSLK    S 1873  25.440  30.737   8.026
 1958ETHY    C1 1874  25.069  30.480   8.082
 1959ETHY    C1 1875  24.647  30.192   8.237
 1960ETHY    C1 1876  24.257  29.937   8.482
 1961ETHY    C1 1877  23.905  29.720   8.803
 1962ETHY    C1 1878  23.599  29.549   9.198
 1963ETHY    C1 1879  23.342  29.428   9.657
 1964THSLK    S 1880  25.861  30.959   8.406
 1965ETHY    C1 1881  25.715  30.683   8.736
 1966ETHY    C1 1882  25.553  30.431   9.178
 1967ETHY    C1 1883  25.406  30.273   9.658
 1968ETHY    C1 1884  25.273  30.203  10.160
 1969ETHY    C1 1885  25.156  30.229  10.674
 1970ETHY    C1 1886  25.055  30.350  11.190
 1971AUSL   AUS 1887  25.718  31.164   6.923
 1972AUSL   AUS 1888  25.862  30.748   6.992
 1973AUL    AUL 1889  25.636  30.861   6.708
 1974THSLK    S 1890  25.625  31.112   6.681
 1975ETHY    C1 1891  25.421  30.892   6.341
 1976ETHY    C1 1892  25.157  30.715   5.911
 1977ETHY    C1 1893  24.881  30.639   5.470
 1978ETHY    C1 1894  24.604  30.656   5.025
 1979ETHY    C1 1895  24.334  30.769   4.586
 1980ETHY    C1 1896  24.075  30.978   4.161
 1981THSLK    S 1897  25.691  30.575   6.878
 1982ETHY    C1 1898  25.396  30.249   6.760
 1983ETHY    C1 1899  25.078  29.882   6.538
 1984ETHY    C1 1900  24.810  29.547   6.233
 1985ETHY    C1 1901  24.596  29.247   5.861
 1986ETHY    C1 1902  24.444  28.989   5.426
 1987ETHY    C1 1903  24.358  28.777   4.937
 1988AUSL   AUS 1904  25.963  31.316   6.829
 1989AUSL   AUS 1905  25.617  31.429   7.086
 1990AUL    AUL 1906  25.636  31.468   6.708
 1991THSLK    S 1907  25.490  31.556   6.895
 1992ETHY    C1 1908  25.313  31.637   6.484
 1993ETHY    C1 1909  25.042  31.777   6.046
 1994ETHY    C1 1910  24.715  31.965   5.679
 1995ETHY    C1 1911  24.346  32.194   5.385
 1996ETHY    C1 1912  23.944  32.461   5.173
 1997ETHY    C1 1913  23.515  32.763   5.047
 1998THSLK    S 1914  25.888  31.272   6.576
 1999ETHY    C1 1915  25.824  31.125   6.150
 2000ETHY    C1 1916  25.721  31.036   5.634
 2001ETHY    C1 1917  25.594  31.047   5.123
 2002ETHY    C1 1918  25.452  31.148   4.629
 2003ETHY    C1 1919  25.299  31.341   4.162
 2004ETHY    C1 1920  25.138  31.624   3.732
 2005AUSL   AUS 1921  26.707  31.573   7.503
 2006AUSL   AUS 1922  26.637  31.429   7.086
 2007AUL    AUL 1923  26.921  31.655   7.199
 2008THSLK    S 1924  26.815  31.528   6.934
 2009ETHY    C1 1925  27.185  31.501   6.671
 2010ETHY    C1 1926  27.607  31.557   6.349
 2011ETHY    C1 1927  27.997  31.711   6.030
 2012ETHY    C1 1928  28.349  31.948   5.724
 2013ETHY    C1 1929  28.656  32.269   5.438
 2014ETHY    C1 1930  28.912  32.668   5.179
 2015THSLK    S 1931  26.973  31.626   7.508
 2016ETHY    C1 1932  27.427  31.648   7.513
 2017ETHY    C1 1933  27.949  31.762   7.514
 2018ETHY    C1 1934  28.432  31.971   7.511
 2019ETHY    C1 1935  28.868  32.261   7.510
 2020ETHY    C1 1936  29.247  32.628   7.510
 2021ETHY    C1 1937  29.561  33.068   7.514
 2022AUSL   AUS 1938  26.801  31.328   7.351
 2023AUSL   AUS 1939  26.801  31.001   7.654
 2024AUL    AUL 1940  27.109  31.164   7.503
 2025THSLK    S 1941  27.057  31.367   7.350
 2026ETHY    C1 1942  27.493  31.259   7.286
 2027ETHY    C1 1943  28.019  31.221   7.201
 2028ETHY    C1 1944  28.534  31.285   7.113
 2029ETHY    C1 1945  29.028  31.439   7.026
 2030ETHY    C1 1946  29.488  31.684   6.945
 2031ETHY    C1 1947  29.907  32.016   6.873
 2032THSLK    S 1948  27.028  30.861   7.663
 2033ETHY    C1 1949  27.347  30.545   7.728
 2034ETHY    C1 1950  27.780  30.241   7.807
 2035ETHY    C1 1951  28.255  30.031   7.887
 2036ETHY    C1 1952  28.758  29.910   7.971
 2037ETHY    C1 1953  29.278  29.884   8.058
 2038ETHY    C1 1954  29.806  29.954   8.147
 2039AUSL   AUS 1955  26.801  31.328   7.654
 2040AUSL   AUS 1956  26.543  31.675   7.767
 2041AUL    AUL 1957  26.921  31.655   7.806
 2042THSLK    S 1958  26.726  31.789   7.926
 2043ETHY    C1 1959  27.109  31.907   8.140
 2044ETHY    C1 1960  27.527  32.130   8.388
 2045ETHY    C1 1961  27.886  32.435   8.622
 2046ETHY    C1 1962  28.183  32.808   8.840
 2047ETHY    C1 1963  28.408  33.242   9.038
 2048ETHY    C1 1964  28.555  33.730   9.215
 2049THSLK    S 1965  27.055  31.367   7.665
 2050ETHY    C1 1966  27.490  31.259   7.740
 2051ETHY    C1 1967  28.016  31.221   7.826
 2052ETHY    C1 1968  28.531  31.284   7.910
 2053ETHY    C1 1969  29.025  31.438   7.993
 2054ETHY    C1 1970  29.486  31.683   8.075
 2055ETHY    C1 1971  29.903  32.015   8.155
 2056AUSL   AUS 1972  25.547  31.573   7.503
 2057AUSL   AUS 1973  25.617  31.429   7.919
 2058AUL    AUL 1974  25.333  31.655   7.806
 2059THSLK    S 1975  25.484  31.548   8.109
 2060ETHY    C1 1976  25.301  31.620   8.519
 2061ETHY    C1 1977  25.029  31.760   8.957
 2062ETHY    C1 1978  24.704  31.951   9.324
 2063ETHY    C1 1979  24.338  32.182   9.619
 2064ETHY    C1 1980  23.935  32.449   9.831
 2065ETHY    C1 1981  23.501  32.745   9.956
 2066THSLK    S 1982  25.336  31.714   7.508
 2067ETHY    C1 1983  25.114  32.111   7.513
 2068ETHY    C1 1984  24.778  32.526   7.514
 2069ETHY    C1 1985  24.375  32.865   7.511
 2070ETHY    C1 1986  23.921  33.126   7.510
 2071ETHY    C1 1987  23.422  33.300   7.510
 2072ETHY    C1 1988  22.889  33.384   7.514
 2073AUSL   AUS 1989  25.453  31.328   7.351
 2074AUSL   AUS 1990  25.711  31.675   7.238
 2075AUL    AUL 1991  25.333  31.655   7.199
 2076THSLK    S 1992  25.226  31.443   7.303
 2077ETHY    C1 1993  24.907  31.643   7.049
 2078ETHY    C1 1994  24.474  31.849   6.813
 2079ETHY    C1 1995  23.999  32.015   6.661
 2080ETHY    C1 1996  23.496  32.144   6.590
 2081ETHY    C1 1997  22.976  32.234   6.605
 2082ETHY    C1 1998  22.448  32.282   6.708
 2083THSLK    S 1999  25.599  31.838   7.060
 2084ETHY    C1 2000  25.520  32.148   6.737
 2085ETHY    C1 2001  25.345  32.522   6.397
 2086ETHY    C1 2002  25.091  32.890   6.120
 2087ETHY    C1 2003  24.771  33.247   5.909
 2088ETHY    C1 2004  24.390  33.585   5.770
 2089ETHY    C1 2005  23.955  33.899   5.709
 2090AUSL   AUS 2006  25.453  31.328   7.654
 2091AUSL   AUS 2007  25.453  31.001   7.351
 2092AUL    AUL 2008  25.145  31.164   7.503
 2093THSLK    S 2009  25.199  30.928   7.394
 2094ETHY    C1 2010  24.764  30.910   7.524
 2095ETHY    C1 2011  24.238  30.850   7.597
 2096ETHY    C1 2012  23.723  30.746   7.578
 2097ETHY    C1 2013  23.229  30.603   7.477
 2098ETHY    C1 2014  22.769  30.420   7.294
 2099ETHY    C1 2015  22.351  30.200   7.034
 2100THSLK    S 2016  25.225  31.434   7.707
 2101ETHY    C1 2017  24.904  31.625   7.966
 2102ETHY    C1 2018  24.471  31.829   8.202
 2103ETHY    C1 2019  23.996  32.000   8.352
 2104ETHY    C1 2020  23.494  32.132   8.422
 2105ETHY    C1 2021  22.974  32.220   8.407
 2106ETHY    C1 2022  22.445  32.261   8.308
 2107AUSL   AUS 2023  26.707  30.755   7.503
 2108AUSL   AUS 2024  26.637  30.900   7.919
 2109AUL    AUL 2025  26.921  30.674   7.806
 2110THSLK    S 2026  26.918  30.614   7.508
 2111ETHY    C1 2027  27.140  30.218   7.513
 2112ETHY    C1 2028  27.476  29.803   7.514
 2113ETHY    C1 2029  27.879  29.464   7.511
 2114ETHY    C1 2030  28.333  29.203   7.510
 2115ETHY    C1 2031  28.832  29.029   7.510
 2116ETHY    C1 2032  29.365  28.945   7.514
 2117THSLK    S 2033  26.764  30.709   8.064
 2118ETHY    C1 2034  26.941  30.344   8.270
 2119ETHY    C1 2035  27.212  29.972   8.540
 2120ETHY    C1 2036  27.539  29.683   8.834
 2121ETHY    C1 2037  27.908  29.475   9.142
 2122ETHY    C1 2038  28.310  29.357   9.462
 2123ETHY    C1 2039  28.739  29.332   9.789
 2124AUSL   AUS 2040  26.801  31.001   7.351
 2125AUSL   AUS 2041  26.543  30.654   7.238
 2126AUL    AUL 2042  26.921  30.674   7.199
 2127THSLK    S 2043  27.029  30.861   7.353
 2128ETHY    C1 2044  27.350  30.544   7.298
 2129ETHY    C1 2045  27.783  30.241   7.221
 2130ETHY    C1 2046  28.258  30.031   7.136
 2131ETHY    C1 2047  28.760  29.910   7.048
 2132ETHY    C1 2048  29.280  29.883   6.963
 2133ETHY    C1 2049  29.809  29.954   6.881
 2134THSLK    S 2050  26.659  30.465   7.108
 2135ETHY    C1 2051  26.743  30.036   6.984
 2136ETHY    C1 2052  26.918  29.564   6.803
 2137ETHY    C1 2053  27.171  29.153   6.593
 2138ETHY    C1 2054  27.489  28.805   6.366
 2139ETHY    C1 2055  27.871  28.530   6.126
 2140ETHY    C1 2056  28.309  28.333   5.880
 2141AUSL   AUS 2057  25.547  30.755   7.503
 2142AUSL   AUS 2058  25.617  30.900   7.086
 2143AUL    AUL 2059  25.333  30.674   7.199
 2144THSLK    S 2060  25.446  30.729   6.978
 2145ETHY    C1 2061  25.082  30.464   6.921
 2146ETHY    C1 2062  24.660  30.174   6.766
 2147ETHY    C1 2063  24.268  29.922   6.521
 2148ETHY    C1 2064  23.914  29.709   6.200
 2149ETHY    C1 2065  23.607  29.536   5.806
 2150ETHY    C1 2066  23.356  29.409   5.346
 2151THSLK    S 2067  25.281  30.703   7.508
 2152ETHY    C1 2068  24.827  30.681   7.513
 2153ETHY    C1 2069  24.305  30.567   7.514
 2154ETHY    C1 2070  23.823  30.358   7.511
 2155ETHY    C1 2071  23.386  30.068   7.510
 2156ETHY    C1 2072  23.007  29.701   7.510
 2157ETHY    C1 2073  22.694  29.261   7.514
 2158AUSL   AUS 2074  25.453  31.001   7.654
 2159AUSL   AUS 2075  25.711  30.654   7.767
 2160AUL    AUL 2076  25.333  30.674   7.806
 2161THSLK    S 2077  25.523  30.514   7.878
 2162ETHY    C1 2078  25.136  30.277   7.893
 2163ETHY    C1 2079  24.718  29.957   7.982
 2164ETHY    C1 2080  24.360  29.608   8.149
 2165ETHY    C1 2081  24.065  29.244   8.382
 2166ETHY    C1 2082  23.840  28.873   8.683
 2167ETHY    C1 2083  23.689  28.502   9.045
 2168THSLK    S 2084  25.197  30.938   7.616
 2169ETHY    C1 2085  24.761  30.928   7.491
 2170ETHY    C1 2086  24.235  30.869   7.419
 2171ETHY    C1 2087  23.720  30.762   7.436
 2172ETHY    C1 2088  23.226  30.616   7.535
 2173ETHY    C1 2089  22.766  30.434   7.718
 2174ETHY    C1 2090  22.347  30.221   7.983
 2175AUSL   AUS 2091  26.127  31.744   7.912
 2176AUSL   AUS 2092  25.711  31.675   7.767
 2177AUL    AUL 2093  25.824  31.959   7.993
 2178THSLK    S 2094  25.595  31.831   7.952
 2179ETHY    C1 2095  25.511  32.133   8.280
 2180ETHY    C1 2096  25.336  32.506   8.621
 2181ETHY    C1 2097  25.083  32.877   8.895
 2182ETHY    C1 2098  24.765  33.236   9.105
 2183ETHY    C1 2099  24.383  33.574   9.244
 2184ETHY    C1 2100  23.945  33.882   9.309
 2185THSLK    S 2101  26.169  31.966   8.035
 2186ETHY    C1 2102  26.353  32.241   8.347
 2187ETHY    C1 2103  26.503  32.621   8.691
 2188ETHY    C1 2104  26.569  33.044   8.998
 2189ETHY    C1 2105  26.556  33.495   9.264
 2190ETHY    C1 2106  26.459  33.964   9.485
 2191ETHY    C1 2107  26.279  34.443   9.656
 2192AUSL   AUS 2108  25.975  31.838   7.666
 2193AUSL   AUS 2109  26.279  31.838   7.339
 2194AUL    AUL 2110  26.127  32.146   7.503
 2195THSLK    S 2111  26.018  32.082   7.776
 2196ETHY    C1 2112  26.162  32.476   7.951
 2197ETHY    C1 2113  26.249  32.970   8.137
 2198ETHY    C1 2114  26.237  33.471   8.294
 2199ETHY    C1 2115  26.136  33.969   8.425
 2200ETHY    C1 2116  25.944  34.450   8.527
 2201ETHY    C1 2117  25.664  34.905   8.600
 2202THSLK    S 2118  26.334  32.069   7.243
 2203ETHY    C1 2119  26.610  32.399   7.096
 2204ETHY    C1 2120  26.860  32.840   6.927
 2205ETHY    C1 2121  27.016  33.317   6.771
 2206ETHY    C1 2122  27.085  33.819   6.635
 2207ETHY    C1 2123  27.061  34.335   6.525
 2208ETHY    C1 2124  26.944  34.855   6.443
 2209AUSL   AUS 2125  26.279  31.838   7.666
 2210AUSL   AUS 2126  26.392  31.581   8.013
 2211AUL    AUL 2127  26.430  31.959   7.993
 2212THSLK    S 2128  26.563  31.689   8.183
 2213ETHY    C1 2129  26.858  31.754   8.523
 2214ETHY    C1 2130  27.176  31.916   8.920
 2215ETHY    C1 2131  27.444  32.165   9.298
 2216ETHY    C1 2132  27.658  32.487   9.653
 2217ETHY    C1 2133  27.810  32.875   9.976
 2218ETHY    C1 2134  27.896  33.325  10.262
 2219THSLK    S 2135  26.332  32.067   7.772
 2220ETHY    C1 2136  26.604  32.395   7.929
 2221ETHY    C1 2137  26.854  32.835   8.100
 2222ETHY    C1 2138  27.012  33.314   8.251
 2223ETHY    C1 2139  27.081  33.816   8.383
 2224ETHY    C1 2140  27.057  34.331   8.494
 2225ETHY    C1 2141  26.938  34.850   8.585
 2226AUSL   AUS 2142  26.127  30.584   7.912
 2227AUSL   AUS 2143  26.543  30.654   7.767
 2228AUL    AUL 2144  26.430  30.370   7.993
 2229THSLK    S 2145  26.080  30.334   7.989
 2230ETHY    C1 2146  25.890  29.938   8.103
 2231ETHY    C1 2147  25.739  29.460   8.289
 2232ETHY    C1 2148  25.676  28.995   8.528
 2233ETHY    C1 2149  25.691  28.553   8.809
 2234ETHY    C1 2150  25.787  28.146   9.132
 2235ETHY    C1 2151  25.962  27.783   9.489
 2236THSLK    S 2152  26.655  30.467   7.907
 2237ETHY    C1 2153  26.734  30.039   8.040
 2238ETHY    C1 2154  26.909  29.569   8.222
 2239ETHY    C1 2155  27.163  29.157   8.428
 2240ETHY    C1 2156  27.483  28.808   8.652
 2241ETHY    C1 2157  27.864  28.533   8.893
 2242ETHY    C1 2158  28.299  28.337   9.147
 2243AUSL   AUS 2159  25.975  30.491   7.666
 2244AUSL   AUS 2160  25.862  30.748   8.013
 2245AUL    AUL 2161  25.824  30.370   7.993
 2246THSLK    S 2162  25.920  30.255   7.745
 2247ETHY    C1 2163  25.645  29.896   7.788
 2248ETHY    C1 2164  25.394  29.431   7.869
 2249ETHY    C1 2165  25.238  28.941   7.981
 2250ETHY    C1 2166  25.169  28.442   8.122
 2251ETHY    C1 2167  25.193  27.942   8.292
 2252ETHY    C1 2168  25.310  27.454   8.489
 2253THSLK    S 2169  25.684  30.582   8.129
 2254ETHY    C1 2170  25.382  30.264   8.248
 2255ETHY    C1 2171  25.063  29.897   8.471
 2256ETHY    C1 2172  24.798  29.560   8.776
 2257ETHY    C1 2173  24.586  29.258   9.147
 2258ETHY    C1 2174  24.433  29.000   9.582
 2259ETHY    C1 2175  24.342  28.793  10.072
 2260AUSL   AUS 2176  26.279  30.491   7.666
 2261AUSL   AUS 2177  25.975  30.491   7.339
 2262AUL    AUL 2178  26.127  30.183   7.503
 2263THSLK    S 2179  25.922  30.252   7.270
 2264ETHY    C1 2180  25.650  29.890   7.236
 2265ETHY    C1 2181  25.400  29.425   7.157
 2266ETHY    C1 2182  25.243  28.936   7.041
 2267ETHY    C1 2183  25.173  28.437   6.896
 2268ETHY    C1 2184  25.197  27.938   6.727
 2269ETHY    C1 2185  25.316  27.447   6.538
 2270THSLK    S 2186  26.233  30.239   7.749
 2271ETHY    C1 2187  26.086  29.813   7.811
 2272ETHY    C1 2188  26.000  29.295   7.906
 2273ETHY    C1 2189  26.012  28.782   8.025
 2274ETHY    C1 2190  26.114  28.287   8.165
 2275ETHY    C1 2191  26.306  27.822   8.325
 2276ETHY    C1 2192  26.584  27.396   8.504
 2277AUSL   AUS 2193  26.127  31.744   7.094
 2278AUSL   AUS 2194  26.543  31.675   7.238
 2279AUL    AUL 2195  26.430  31.959   7.012
 2280THSLK    S 2196  26.174  31.971   6.977
 2281ETHY    C1 2197  26.364  32.250   6.674
 2282ETHY    C1 2198  26.515  32.631   6.330
 2283ETHY    C1 2199  26.579  33.051   6.021
 2284ETHY    C1 2200  26.563  33.501   5.752
 2285ETHY    C1 2201  26.467  33.971   5.532
 2286ETHY    C1 2202  26.292  34.454   5.366
 2287THSLK    S 2203  26.731  31.791   7.089
 2288ETHY    C1 2204  27.118  31.911   6.883
 2289ETHY    C1 2205  27.536  32.134   6.637
 2290ETHY    C1 2206  27.894  32.438   6.400
 2291ETHY    C1 2207  28.189  32.810   6.178
 2292ETHY    C1 2208  28.414  33.245   5.981
 2293ETHY    C1 2209  28.565  33.734   5.811
 2294AUSL   AUS 2210  25.975  31.838   7.339
 2295AUSL   AUS 2211  25.862  31.581   6.992
 2296AUL    AUL 2212  25.824  31.959   7.012
 2297THSLK    S 2213  26.021  32.085   7.239
 2298ETHY    C1 2214  26.168  32.482   7.074
 2299ETHY    C1 2215  26.254  32.976   6.889
 2300ETHY    C1 2216  26.242  33.477   6.727
 2301ETHY    C1 2217  26.140  33.973   6.593
 2302ETHY    C1 2218  25.948  34.454   6.492
 2303ETHY    C1 2219  25.670  34.912   6.427
 2304THSLK    S 2220  25.752  31.713   6.805
 2305ETHY    C1 2221  25.716  31.862   6.377
 2306ETHY    C1 2222  25.606  32.088   5.906
 2307ETHY    C1 2223  25.428  32.363   5.494
 2308ETHY    C1 2224  25.194  32.676   5.145
 2309ETHY    C1 2225  24.908  33.025   4.870
 2310ETHY    C1 2226  24.577  33.403   4.675
 2311AUSL   AUS 2227  26.127  30.584   7.094
 2312AUSL   AUS 2228  25.711  30.654   7.238
 2313AUL    AUL 2229  25.824  30.370   7.012
 2314THSLK    S 2230  25.528  30.506   7.134
 2315ETHY    C1 2231  25.145  30.262   7.124
 2316ETHY    C1 2232  24.727  29.941   7.035
 2317ETHY    C1 2233  24.368  29.595   6.866
 2318ETHY    C1 2234  24.071  29.234   6.631
 2319ETHY    C1 2235  23.846  28.862   6.331
 2320ETHY    C1 2236  23.699  28.485   5.974
 2321THSLK    S 2237  26.085  30.329   7.024
 2322ETHY    C1 2238  25.901  29.928   6.917
 2323ETHY    C1 2239  25.751  29.450   6.732
 2324ETHY    C1 2240  25.685  28.987   6.491
 2325ETHY    C1 2241  25.698  28.547   6.206
 2326ETHY    C1 2242  25.795  28.140   5.885
 2327ETHY    C1 2243  25.975  27.772   5.533
 2328AUSL   AUS 2244  26.279  30.491   7.339
 2329AUSL   AUS 2245  26.392  30.748   6.992
 2330AUL    AUL 2246  26.430  30.370   7.012
 2331THSLK    S 2247  26.236  30.237   7.266
 2332ETHY    C1 2248  26.092  29.809   7.213
 2333ETHY    C1 2249  26.005  29.290   7.120
 2334ETHY    C1 2250  26.017  28.778   6.997
 2335ETHY    C1 2251  26.118  28.284   6.854
 2336ETHY    C1 2252  26.310  27.819   6.695
 2337ETHY    C1 2253  26.590  27.391   6.523
 2338THSLK    S 2254  26.509  30.558   6.859
 2339ETHY    C1 2255  26.553  30.156   6.651
 2340ETHY    C1 2256  26.663  29.725   6.355
 2341ETHY    C1 2257  26.839  29.362   6.017
 2342ETHY    C1 2258  27.070  29.068   5.651
 2343ETHY    C1 2259  27.356  28.851   5.264
 2344ETHY    C1 2260  27.693  28.715   4.865
 2345AUC    AUC 2261  26.752  47.120   7.503
 2346AUC    AUC 2262  26.997  47.120   7.351
 2347AUC    AUC 2263  26.997  47.120   7.654
 2348AUC    AUC 2264  26.507  47.120   7.351
 2349AUC    AUC 2265  26.507  47.120   7.654
 2350AUC    AUC 2266  26.600  47.366   7.503
 2351AUC    AUC 2267  26.904  47.366   7.503
 2352AUC    AUC 2268  26.600  46.875   7.503
 2353AUC    AUC 2269  26.904  46.875   7.503
 2354AUC    AUC 2270  26.752  46.969   7.748
 2355AUC    AUC 2271  26.752  47.272   7.748
 2356AUC    AUC 2272  26.752  46.969   7.257
 2357AUC    AUC 2273  26.752  47.272   7.257
 2358AUC    AUC 2274  27.243  47.120   7.199
 2359AUC    AUC 2275  27.243  47.120   7.503
 2360AUC    AUC 2276  27.243  47.120   7.806
 2361AUC    AUC 2277  26.261  47.120   7.199
 2362AUC    AUC 2278  26.261  47.120   7.503
 2363AUC    AUC 2279  26.261  47.120   7.806
 2364AUC    AUC 2280  26.449  47.611   7.503
 2365AUC    AUC 2281  26.752  47.611   7.503
 2366AUC    AUC 2282  27.055  47.611   7.503
 2367AUC    AUC 2283  26.449  46.630   7.503
 2368AUC    AUC 2284  26.752  46.630   7.503
 2369AUC    AUC 2285  27.055  46.630   7.503
 2370AUC    AUC 2286  26.752  46.817   7.993
 2371AUC    AUC 2287  26.752  47.120   7.993
 2372AUC    AUC 2288  26.752  47.424   7.993
 2373AUC    AUC 2289  26.752  46.817   7.012
 2374AUC    AUC 2290  26.752  47.120   7.012
 2375AUC    AUC 2291  26.752  47.424   7.012
 2376AUC    AUC 2292  26.997  46.969   7.900
 2377AUC    AUC 2293  26.997  47.272   7.900
 2378AUC    AUC 2294  26.997  46.969   7.106
 2379AUC    AUC 2295  26.997  47.272   7.106
 2380AUC    AUC 2296  26.507  46.969   7.900
 2381AUC    AUC 2297  26.507  47.272   7.900
 2382AUC    AUC 2298  26.507  46.969   7.106
 2383AUC    AUC 2299  26.507  47.272   7.106
 2384AUC    AUC 2300  27.149  47.366   7.351
 2385AUC    AUC 2301  27.149  47.366   7.654
 2386AUC    AUC 2302  26.355  47.366   7.351
 2387AUC    AUC 2303  26.355  47.366   7.654
 2388AUC    AUC 2304  27.149  46.875   7.351
 2389AUC    AUC 2305  27.149  46.875   7.654
 2390AUC    AUC 2306  26.355  46.875   7.351
 2391AUC    AUC 2307  26.355  46.875   7.654
 2392AUC    AUC 2308  26.600  47.518   7.748
 2393AUC    AUC 2309  26.904  47.518   7.748
 2394AUC    AUC 2310  26.600  46.723   7.748
 2395AUC    AUC 2311  26.904  46.723   7.748
 2396AUC    AUC 2312  26.600  47.518   7.257
 2397AUC    AUC 2313  26.904  47.518   7.257
 2398AUC    AUC 2314  26.600  46.723   7.257
 2399AUC    AUC 2315  26.904  46.723   7.257
 2400AUSL   AUS 2316  27.161  47.120   8.083
 2401AUSL   AUS 2317  27.017  46.704   8.013
 2402AUL    AUL 2318  27.243  46.817   8.297
 2403THSLK    S 2319  27.127  46.517   8.153
 2404ETHY    C1 2320  27.163  46.118   8.368
 2405ETHY    C1 2321  27.273  45.688   8.665
 2406ETHY    C1 2322  27.451  45.324   9.000
 2407ETHY    C1 2323  27.685  45.028   9.364
 2408ETHY    C1 2324  27.971  44.811   9.752
 2409ETHY    C1 2325  28.302  44.678  10.156
 2410THSLK    S 2326  27.254  47.068   8.324
 2411ETHY    C1 2327  27.458  46.848   8.665
 2412ETHY    C1 2328  27.722  46.671   9.094
 2413ETHY    C1 2329  27.998  46.595   9.535
 2414ETHY    C1 2330  28.275  46.612   9.980
 2415ETHY    C1 2331  28.545  46.725  10.419
 2416ETHY    C1 2332  28.804  46.934  10.845
 2417AUSL   AUS 2333  26.916  46.969   8.176
 2418AUSL   AUS 2334  26.588  47.272   8.176
 2419AUL    AUL 2335  26.752  47.120   8.484
 2420THSLK    S 2336  26.991  46.914   8.413
 2421ETHY    C1 2337  27.055  46.634   8.765
 2422ETHY    C1 2338  27.158  46.379   9.223
 2423ETHY    C1 2339  27.285  46.220   9.708
 2424ETHY    C1 2340  27.427  46.151  10.208
 2425ETHY    C1 2341  27.581  46.179  10.713
 2426ETHY    C1 2342  27.741  46.303  11.212
 2427THSLK    S 2343  26.503  47.226   8.428
 2428ETHY    C1 2344  26.429  47.076   8.850
 2429ETHY    C1 2345  26.324  46.988   9.367
 2430ETHY    C1 2346  26.202  47.000   9.878
 2431ETHY    C1 2347  26.064  47.101  10.373
 2432ETHY    C1 2348  25.909  47.294  10.840
 2433ETHY    C1 2349  25.740  47.575  11.268
 2434AUSL   AUS 2350  26.916  47.272   8.176
 2435AUSL   AUS 2351  27.262  47.385   7.919
 2436AUL    AUL 2352  27.243  47.424   8.297
 2437THSLK    S 2353  27.001  47.328   8.410
 2438ETHY    C1 2354  27.075  47.609   8.759
 2439ETHY    C1 2355  27.180  47.864   9.217
 2440ETHY    C1 2356  27.302  48.023   9.703
 2441ETHY    C1 2357  27.441  48.092  10.204
 2442ETHY    C1 2358  27.595  48.065  10.708
 2443ETHY    C1 2359  27.764  47.941  11.206
 2444THSLK    S 2360  27.434  47.483   8.080
 2445ETHY    C1 2361  27.797  47.454   8.350
 2446ETHY    C1 2362  28.219  47.510   8.673
 2447ETHY    C1 2363  28.611  47.664   8.989
 2448ETHY    C1 2364  28.965  47.902   9.293
 2449ETHY    C1 2365  29.272  48.223   9.580
 2450ETHY    C1 2366  29.523  48.620   9.844
 2451AUSL   AUS 2367  27.161  47.120   6.923
 2452AUSL   AUS 2368  27.017  47.537   6.992
 2453AUL    AUL 2369  27.243  47.424   6.708
 2454THSLK    S 2370  27.263  47.068   6.687
 2455ETHY    C1 2371  27.476  46.848   6.351
 2456ETHY    C1 2372  27.741  46.671   5.923
 2457ETHY    C1 2373  28.013  46.595   5.479
 2458ETHY    C1 2374  28.287  46.612   5.033
 2459ETHY    C1 2375  28.558  46.725   4.594
 2460ETHY    C1 2376  28.823  46.934   4.173
 2461THSLK    S 2377  27.195  47.648   6.829
 2462ETHY    C1 2378  27.497  47.716   6.497
 2463ETHY    C1 2379  27.816  47.879   6.100
 2464ETHY    C1 2380  28.081  48.126   5.719
 2465ETHY    C1 2381  28.293  48.446   5.362
 2466ETHY    C1 2382  28.446  48.836   5.039
 2467ETHY    C1 2383  28.537  49.288   4.759
 2468AUSL   AUS 2384  26.916  46.969   6.829
 2469AUSL   AUS 2385  27.262  46.856   7.086
 2470AUL    AUL 2386  27.243  46.817   6.708
 2471THSLK    S 2387  27.395  46.664   6.949
 2472ETHY    C1 2388  27.578  46.297   6.752
 2473ETHY    C1 2389  27.850  45.925   6.483
 2474ETHY    C1 2390  28.175  45.636   6.186
 2475ETHY    C1 2391  28.541  45.429   5.874
 2476ETHY    C1 2392  28.945  45.310   5.555
 2477ETHY    C1 2393  29.378  45.285   5.235
 2478THSLK    S 2394  27.001  46.913   6.596
 2479ETHY    C1 2395  27.075  46.632   6.246
 2480ETHY    C1 2396  27.180  46.376   5.788
 2481ETHY    C1 2397  27.302  46.218   5.302
 2482ETHY    C1 2398  27.441  46.149   4.801
 2483ETHY    C1 2399  27.595  46.176   4.297
 2484ETHY    C1 2400  27.764  46.300   3.799
 2485AUSL   AUS 2401  26.916  47.272   6.829
 2486AUSL   AUS 2402  26.588  46.969   6.829
 2487AUL    AUL 2403  26.752  47.120   6.521
 2488THSLK    S 2404  26.496  46.913   6.597
 2489ETHY    C1 2405  26.361  46.635   6.264
 2490ETHY    C1 2406  26.200  46.382   5.822
 2491ETHY    C1 2407  26.048  46.225   5.343
 2492ETHY    C1 2408  25.912  46.156   4.842
 2493ETHY    C1 2409  25.795  46.182   4.328
 2494ETHY    C1 2410  25.702  46.301   3.810
 2495THSLK    S 2411  27.018  47.226   6.583
 2496ETHY    C1 2412  27.164  47.076   6.179
 2497ETHY    C1 2413  27.326  46.985   5.678
 2498ETHY    C1 2414  27.473  46.995   5.173
 2499ETHY    C1 2415  27.606  47.096   4.677
 2500ETHY    C1 2416  27.723  47.291   4.200
 2501ETHY    C1 2417  27.824  47.577   3.754
 2502AUSL   AUS 2418  26.343  47.120   8.083
 2503AUSL   AUS 2419  26.487  47.537   8.013
 2504AUL    AUL 2420  26.261  47.424   8.297
 2505THSLK    S 2421  26.241  47.068   8.319
 2506ETHY    C1 2422  26.029  46.848   8.654
 2507ETHY    C1 2423  25.763  46.671   9.082
 2508ETHY    C1 2424  25.491  46.595   9.526
 2509ETHY    C1 2425  25.217  46.612   9.973
 2510ETHY    C1 2426  24.946  46.725  10.411
 2511ETHY    C1 2427  24.681  46.934  10.832
 2512THSLK    S 2428  26.370  47.661   8.202
 2513ETHY    C1 2429  26.327  47.804   8.632
 2514ETHY    C1 2430  26.216  48.029   9.104
 2515ETHY    C1 2431  26.040  48.306   9.515
 2516ETHY    C1 2432  25.809  48.622   9.863
 2517ETHY    C1 2433  25.523  48.970  10.138
 2518ETHY    C1 2434  25.186  49.343  10.334
 2519AUSL   AUS 2435  26.588  46.969   8.176
 2520AUSL   AUS 2436  26.242  46.856   7.919
 2521AUL    AUL 2437  26.261  46.817   8.297
 2522THSLK    S 2438  26.065  46.693   8.026
 2523ETHY    C1 2439  25.694  46.436   8.082
 2524ETHY    C1 2440  25.272  46.148   8.237
 2525ETHY    C1 2441  24.882  45.893   8.482
 2526ETHY    C1 2442  24.530  45.676   8.803
 2527ETHY    C1 2443  24.224  45.505   9.198
 2528ETHY    C1 2444  23.967  45.384   9.657
 2529THSLK    S 2445  26.486  46.915   8.406
 2530ETHY    C1 2446  26.340  46.639   8.736
 2531ETHY    C1 2447  26.178  46.387   9.178
 2532ETHY    C1 2448  26.031  46.229   9.658
 2533ETHY    C1 2449  25.898  46.159  10.160
 2534ETHY    C1 2450  25.781  46.185  10.674
 2535ETHY    C1 2451  25.680  46.306  11.190
 2536AUSL   AUS 2452  26.343  47.120   6.923
 2537AUSL   AUS 2453  26.487  46.704   6.992
 2538AUL    AUL 2454  26.261  46.817   6.708
 2539THSLK    S 2455  26.250  47.068   6.681
 2540ETHY    C1 2456  26.046  46.848   6.341
 2541ETHY    C1 2457  25.782  46.671   5.911
 2542ETHY    C1 2458  25.506  46.595   5.470
 2543ETHY    C1 2459  25.229  46.612   5.025
 2544ETHY    C1 2460  24.959  46.725   4.586
 2545ETHY    C1 2461  24.700  46.934   4.161
 2546THSLK    S 2462  26.316  46.531   6.878
 2547ETHY    C1 2463  26.021  46.205   6.760
 2548ETHY    C1 2464  25.703  45.838   6.538
 2549ETHY    C1 2465  25.435  45.503   6.233
 2550ETHY    C1 2466  25.221  45.203   5.861
 2551ETHY    C1 2467  25.069  44.945   5.426
 2552ETHY    C1 2468  24.983  44.733   4.937
 2553AUSL   AUS 2469  26.588  47.272   6.829
 2554AUSL   AUS 2470  26.242  47.385   7.086
 2555AUL    AUL 2471  26.261  47.424   6.708
 2556THSLK    S 2472  26.115  47.512   6.895
 2557ETHY    C1 2473  25.938  47.593   6.484
 2558ETHY    C1 2474  25.667  47.733   6.046
 2559ETHY    C1 2475  25.340  47.921   5.679
 2560ETHY    C1 2476  24.971  48.150   5.385
 2561ETHY    C1 2477  24.569  48.417   5.173
 2562ETHY    C1 2478  24.140  48.719   5.047
 2563THSLK    S 2479  26.513  47.228   6.576
 2564ETHY    C1 2480  26.449  47.081   6.150
 2565ETHY    C1 2481  26.346  46.992   5.634
 2566ETHY    C1 2482  26.219  47.003   5.123
 2567ETHY    C1 2483  26.077  47.104   4.629
 2568ETHY    C1 2484  25.924  47.297   4.162
 2569ETHY    C1 2485  25.763  47.580   3.732
 2570AUSL   AUS 2486  27.332  47.529   7.503
 2571AUSL   AUS 2487  27.262  47.385   7.086
 2572AUL    AUL 2488  27.546  47.611   7.199
 2573THSLK    S 2489  27.440  47.484   6.934
 2574ETHY    C1 2490  27.810  47.457   6.671
 2575ETHY    C1 2491  28.232  47.513   6.349
 2576ETHY    C1 2492  28.622  47.667   6.030
 2577ETHY    C1 2493  28.974  47.904   5.724
 2578ETHY    C1 2494  29.281  48.225   5.438
 2579ETHY    C1 2495  29.537  48.624   5.179
 2580THSLK    S 2496  27.598  47.582   7.508
 2581ETHY    C1 2497  28.052  47.604   7.513
 2582ETHY    C1 2498  28.574  47.718   7.514
 2583ETHY    C1 2499  29.057  47.927   7.511
 2584ETHY    C1 2500  29.493  48.217   7.510
 2585ETHY    C1 2501  29.872  48.584   7.510
 2586ETHY    C1 2502  30.186  49.024   7.514
 2587AUSL   AUS 2503  27.426  47.284   7.351
 2588AUSL   AUS 2504  27.426  46.957   7.654
 2589AUL    AUL 2505  27.734  47.120   7.503
 2590THSLK    S 2506  27.682  47.323   7.350
 2591ETHY    C1 2507  28.118  47.215   7.286
 2592ETHY    C1 2508  28.644  47.177   7.201
 2593ETHY    C1 2509  29.159  47.241   7.113
 2594ETHY    C1 2510  29.653  47.395   7.026
 2595ETHY    C1 2511  30.113  47.640   6.945
 2596ETHY    C1 2512  30.532  47.972   6.873
 2597THSLK    S 2513  27.653  46.817   7.663
 2598ETHY    C1 2514  27.972  46.501   7.728
 2599ETHY    C1 2515  28.405  46.197   7.807
 2600ETHY    C1 2516  28.880  45.987   7.887
 2601ETHY    C1 2517  29.383  45.866   7.971
 2602ETHY    C1 2518  29.903  45.840   8.058
 2603ETHY    C1 2519  30.431  45.910   8.147
 2604AUSL   AUS 2520  27.426  47.284   7.654
 2605AUSL   AUS 2521  27.168  47.631   7.767
 2606AUL    AUL 2522  27.546  47.611   7.806
 2607THSLK    S 2523  27.351  47.745   7.926
 2608ETHY    C1 2524  27.734  47.863   8.140
 2609ETHY    C1 2525  28.152  48.086   8.388
 2610ETHY    C1 2526  28.511  48.391   8.622
 2611ETHY    C1 2527  28.808  48.764   8.840
 2612ETHY    C1 2528  29.033  49.198   9.038
 2613ETHY    C1 2529  29.180  49.686   9.215
 2614THSLK    S 2530  27.680  47.323   7.665
 2615ETHY    C1 2531  28.115  47.215   7.740
 2616ETHY    C1 2532  28.641  47.177   7.826
 2617ETHY    C1 2533  29.156  47.240   7.910
 2618ETHY    C1 2534  29.650  47.394   7.993
 2619ETHY    C1 2535  30.111  47.639   8.075
 2620ETHY    C1 2536  30.528  47.971   8.155
 2621AUSL   AUS 2537  26.172  47.529   7.503
 2622AUSL   AUS 2538  26.242  47.385   7.919
 2623AUL    AUL 2539  25.958  47.611   7.806
 2624THSLK    S 2540  26.109  47.504   8.109
 2625ETHY    C1 2541  25.926  47.576   8.519
 2626ETHY    C1 2542  25.654  47.716   8.957
 2627ETHY    C1 2543  25.329  47.907   9.324
 2628ETHY    C1 2544  24.963  48.138   9.619
 2629ETHY    C1 2545  24.560  48.405   9.831
 2630ETHY    C1 2546  24.126  48.701   9.956
 2631THSLK    S 2547  25.961  47.670   7.508
 2632ETHY    C1 2548  25.739  48.067   7.513
 2633ETHY    C1 2549  25.403  48.482   7.514
 2634ETHY    C1 2550  25.000  48.821   7.511
 2635ETHY    C1 2551  24.546  49.082   7.510
 2636ETHY    C1 2552  24.047  49.256   7.510
 2637ETHY    C1 2553  23.514  49.340   7.514
 2638AUSL   AUS 2554  26.078  47.284   7.351
 2639AUSL   AUS 2555  26.336  47.631   7.238
 2640AUL    AUL 2556  25.958  47.611   7.199
 2641THSLK    S 2557  25.851  47.399   7.303
 2642ETHY    C1 2558  25.532  47.599   7.049
 2643ETHY    C1 2559  25.099  47.805   6.813
 2644ETHY    C1 2560  24.624  47.971   6.661
 2645ETHY    C1 2561  24.121  48.100   6.590
 2646ETHY    C1 2562  23.601  48.190   6.605
 2647ETHY    C1 2563  23.073  48.238   6.708
 2648THSLK    S 2564  26.224  47.794   7.060
 2649ETHY    C1 2565  26.145  48.104   6.737
 2650ETHY    C1 2566  25.970  48.478   6.397
 2651ETHY    C1 2567  25.716  48.846   6.120
 2652ETHY    C1 2568  25.396  49.203   5.909
 2653ETHY    C1 2569  25.015  49.541   5.770
 2654ETHY    C1 2570  24.580  49.855   5.709
 2655AUSL   AUS 2571  26.078  47.284   7.654
 2656AUSL   AUS 2572  26.078  46.957   7.351
 2657AUL    AUL 2573  25.770  47.120   7.503
 2658THSLK    S 2574  25.824  46.884   7.394
 2659ETHY    C1 2575  25.389  46.866   7.524
 2660ETHY    C1 2576  24.863  46.806   7.597
 2661ETHY    C1 2577  24.348  46.702   7.578
 2662ETHY    C1 2578  23.854  46.559   7.477
 2663ETHY    C1 2579  23.394  46.376   7.294
 2664ETHY    C1 2580  22.976  46.156   7.034
 2665THSLK    S 2581  25.850  47.390   7.707
 2666ETHY    C1 2582  25.529  47.581   7.966
 2667ETHY    C1 2583  25.096  47.785   8.202
 2668ETHY    C1 2584  24.621  47.956   8.352
 2669ETHY    C1 2585  24.119  48.088   8.422
 2670ETHY    C1 2586  23.599  48.176   8.407
 2671ETHY    C1 2587  23.070  48.217   8.308
 2672AUSL   AUS 2588  27.332  46.711   7.503
 2673AUSL   AUS 2589  27.262  46.856   7.919
 2674AUL    AUL 2590  27.546  46.630   7.806
 2675THSLK    S 2591  27.543  46.570   7.508
 2676ETHY    C1 2592  27.765  46.174   7.513
 2677ETHY    C1 2593  28.101  45.759   7.514
 2678ETHY    C1 2594  28.504  45.420   7.511
 2679ETHY    C1 2595  28.958  45.159   7.510
 2680ETHY    C1 2596  29.457  44.985   7.510
 2681ETHY    C1 2597  29.990  44.901   7.514
 2682THSLK    S 2598  27.389  46.665   8.064
 2683ETHY    C1 2599  27.566  46.300   8.270
 2684ETHY    C1 2600  27.837  45.928   8.540
 2685ETHY    C1 2601  28.164  45.639   8.834
 2686ETHY    C1 2602  28.533  45.431   9.142
 2687ETHY    C1 2603  28.935  45.313   9.462
 2688ETHY    C1 2604  29.364  45.288   9.789
 2689AUSL   AUS 2605  27.426  46.957   7.351
 2690AUSL   AUS 2606  27.168  46.610   7.238
 2691AUL    AUL 2607  27.546  46.630   7.199
 2692THSLK    S 2608  27.654  46.817   7.353
 2693ETHY    C1 2609  27.975  46.500   7.298
 2694ETHY    C1 2610  28.408  46.197   7.221
 2695ETHY    C1 2611  28.883  45.987   7.136
 2696ETHY    C1 2612  29.385  45.866   7.048
 2697ETHY    C1 2613  29.905  45.839   6.963
 2698ETHY    C1 2614  30.434  45.910   6.881
 2699THSLK    S 2615  27.284  46.421   7.108
 2700ETHY    C1 2616  27.368  45.992   6.984
 2701ETHY    C1 2617  27.543  45.520   6.803
 2702ETHY    C1 2618  27.796  45.109   6.593
 2703ETHY    C1 2619  28.114  44.761   6.366
 2704ETHY    C1 2620  28.496  44.486   6.126
 2705ETHY    C1 2621  28.934  44.289   5.880
 2706AUSL   AUS 2622  26.172  46.711   7.503
 2707AUSL   AUS 2623  26.242  46.856   7.086
 2708AUL    AUL 2624  25.958  46.630   7.199
 2709THSLK    S 2625  26.071  46.685   6.978
 2710ETHY    C1 2626  25.707  46.420   6.921
 2711ETHY    C1 2627  25.285  46.130   6.766
 2712ETHY    C1 2628  24.893  45.878   6.521
 2713ETHY    C1 2629  24.539  45.665   6.200
 2714ETHY    C1 2630  24.232  45.492   5.806
 2715ETHY    C1 2631  23.981  45.365   5.346
 2716THSLK    S 2632  25.906  46.659   7.508
 2717ETHY    C1 2633  25.452  46.637   7.513
 2718ETHY    C1 2634  24.930  46.523   7.514
 2719ETHY    C1 2635  24.448  46.314   7.511
 2720ETHY    C1 2636  24.011  46.024   7.510
 2721ETHY    C1 2637  23.632  45.657   7.510
 2722ETHY    C1 2638  23.319  45.217   7.514
 2723AUSL   AUS 2639  26.078  46.957   7.654
 2724AUSL   AUS 2640  26.336  46.610   7.767
 2725AUL    AUL 2641  25.958  46.630   7.806
 2726THSLK    S 2642  26.148  46.470   7.878
 2727ETHY    C1 2643  25.761  46.233   7.893
 2728ETHY    C1 2644  25.343  45.913   7.982
 2729ETHY    C1 2645  24.985  45.564   8.149
 2730ETHY    C1 2646  24.690  45.200   8.382
 2731ETHY    C1 2647  24.465  44.829   8.683
 2732ETHY    C1 2648  24.314  44.458   9.045
 2733THSLK    S 2649  25.822  46.894   7.616
 2734ETHY    C1 2650  25.386  46.884   7.491
 2735ETHY    C1 2651  24.860  46.825   7.419
 2736ETHY    C1 2652  24.345  46.718   7.436
 2737ETHY    C1 2653  23.851  46.572   7.535
 2738ETHY    C1 2654  23.391  46.390   7.718
 2739ETHY    C1 2655  22.972  46.177   7.983
 2740AUSL   AUS 2656  26.752  47.700   7.912
 2741AUSL   AUS 2657  26.336  47.631   7.767
 2742AUL    AUL 2658  26.449  47.915   7.993
 2743THSLK    S 2659  26.220  47.787   7.952
 2744ETHY    C1 2660  26.136  48.089   8.280
 2745ETHY    C1 2661  25.961  48.462   8.621
 2746ETHY    C1 2662  25.708  48.833   8.895
 2747ETHY    C1 2663  25.390  49.192   9.105
 2748ETHY    C1 2664  25.008  49.530   9.244
 2749ETHY    C1 2665  24.570  49.838   9.309
 2750THSLK    S 2666  26.794  47.922   8.035
 2751ETHY    C1 2667  26.978  48.197   8.347
 2752ETHY    C1 2668  27.128  48.577   8.691
 2753ETHY    C1 2669  27.194  49.000   8.998
 2754ETHY    C1 2670  27.181  49.451   9.264
 2755ETHY    C1 2671  27.084  49.920   9.485
 2756ETHY    C1 2672  26.904  50.399   9.656
 2757AUSL   AUS 2673  26.600  47.794   7.666
 2758AUSL   AUS 2674  26.904  47.794   7.339
 2759AUL    AUL 2675  26.752  48.102   7.503
 2760THSLK    S 2676  26.643  48.038   7.776
 2761ETHY    C1 2677  26.787  48.432   7.951
 2762ETHY    C1 2678  26.874  48.926   8.137
 2763ETHY    C1 2679  26.862  49.427   8.294
 2764ETHY    C1 2680  26.761  49.925   8.425
 2765ETHY    C1 2681  26.569  50.406   8.527
 2766ETHY    C1 2682  26.289  50.861   8.600
 2767THSLK    S 2683  26.959  48.025   7.243
 2768ETHY    C1 2684  27.235  48.355   7.096
 2769ETHY    C1 2685  27.485  48.796   6.927
 2770ETHY    C1 2686  27.641  49.273   6.771
 2771ETHY    C1 2687  27.710  49.775   6.635
 2772ETHY    C1 2688  27.686  50.291   6.525
 2773ETHY    C1 2689  27.569  50.811   6.443
 2774AUSL   AUS 2690  26.904  47.794   7.666
 2775AUSL   AUS 2691  27.017  47.537   8.013
 2776AUL    AUL 2692  27.055  47.915   7.993
 2777THSLK    S 2693  27.188  47.645   8.183
 2778ETHY    C1 2694  27.483  47.710   8.523
 2779ETHY    C1 2695  27.801  47.872   8.920
 2780ETHY    C1 2696  28.069  48.121   9.298
 2781ETHY    C1 2697  28.283  48.443   9.653
 2782ETHY    C1 2698  28.435  48.831   9.976
 2783ETHY    C1 2699  28.521  49.281  10.262
 2784THSLK    S 2700  26.957  48.023   7.772
 2785ETHY    C1 2701  27.229  48.351   7.929
 2786ETHY    C1 2702  27.479  48.791   8.100
 2787ETHY    C1 2703  27.637  49.270   8.251
 2788ETHY    C1 2704  27.706  49.772   8.383
 2789ETHY    C1 2705  27.682  50.287   8.494
 2790ETHY    C1 2706  27.563  50.806   8.585
 2791AUSL   AUS 2707  26.752  46.540   7.912
 2792AUSL   AUS 2708  27.168  46.610   7.767
 2793AUL    AUL 2709  27.055  46.326   7.993
 2794THSLK    S 2710  26.705  46.290   7.989
 2795ETHY    C1 2711  26.515  45.894   8.103
 2796ETHY    C1 2712  26.364  45.416   8.289
 2797ETHY    C1 2713  26.301  44.951   8.528
 2798ETHY    C1 2714  26.316  44.509   8.809
 2799ETHY    C1 2715  26.412  44.102   9.132
 2800ETHY    C1 2716  26.587  43.739   9.489
 2801THSLK    S 2717  27.280  46.423   7.907
 2802ETHY    C1 2718  27.359  45.995   8.040
 2803ETHY    C1 2719  27.534  45.525   8.222
 2804ETHY    C1 2720  27.788  45.113   8.428
 2805ETHY    C1 2721  28.108  44.764   8.652
 2806ETHY    C1 2722  28.489  44.489   8.893
 2807ETHY    C1 2723  28.924  44.293   9.147
 2808AUSL   AUS 2724  26.600  46.447   7.666
 2809AUSL   AUS 2725  26.487  46.704   8.013
 2810AUL    AUL 2726  26.449  46.326   7.993
 2811THSLK    S 2727  26.545  46.211   7.745
 2812ETHY    C1 2728  26.270  45.852   7.788
 2813ETHY    C1 2729  26.019  45.387   7.869
 2814ETHY    C1 2730  25.863  44.897   7.981
 2815ETHY    C1 2731  25.794  44.398   8.122
 2816ETHY    C1 2732  25.818  43.898   8.292
 2817ETHY    C1 2733  25.935  43.410   8.489
 2818THSLK    S 2734  26.309  46.538   8.129
 2819ETHY    C1 2735  26.007  46.220   8.248
 2820ETHY    C1 2736  25.688  45.853   8.471
 2821ETHY    C1 2737  25.423  45.516   8.776
 2822ETHY    C1 2738  25.211  45.214   9.147
 2823ETHY    C1 2739  25.058  44.956   9.582
 2824ETHY    C1 2740  24.967  44.749  10.072
 2825AUSL   AUS 2741  26.904  46.447   7.666
 2826AUSL   AUS 2742  26.600  46.447   7.339
 2827AUL    AUL 2743  26.752  46.139   7.503
 2828THSLK    S 2744  26.547  46.208   7.270
 2829ETHY    C1 2745  26.275  45.846   7.236
 2830ETHY    C1 2746  26.025  45.381   7.157
 2831ETHY    C1 2747  25.868  44.892   7.041
 2832ETHY    C1 2748  25.798  44.393   6.896
 2833ETHY    C1 2749  25.822  43.894   6.727
 2834ETHY    C1 2750  25.941  43.403   6.538
 2835THSLK    S 2751  26.858  46.195   7.749
 2836ETHY    C1 2752  26.711  45.769   7.811
 2837ETHY    C1 2753  26.625  45.251   7.906
 2838ETHY    C1 2754  26.637  44.738   8.025
 2839ETHY    C1 2755  26.739  44.243   8.165
 2840ETHY    C1 2756  26.931  43.778   8.325
 2841ETHY    C1 2757  27.209  43.352   8.504
 2842AUSL   AUS 2758  26.752  47.700   7.094
 2843AUSL   AUS 2759  27.168  47.631   7.238
 2844AUL    AUL 2760  27.055  47.915   7.012
 2845THSLK    S 2761  26.799  47.927   6.977
 2846ETHY    C1 2762  26.989  48.206   6.674
 2847ETHY    C1 2763  27.140  48.587   6.330
 2848ETHY    C1 2764  27.204  49.007   6.021
 2849ETHY    C1 2765  27.188  49.457   5.752
 2850ETHY    C1 2766  27.092  49.927   5.532
 2851ETHY    C1 2767  26.917  50.410   5.366
 2852THSLK    S 2768  27.356  47.747   7.089
 2853ETHY    C1 2769  27.743  47.867   6.883
 2854ETHY    C1 2770  28.161  48.090   6.637
 2855ETHY    C1 2771  28.519  48.394   6.400
 2856ETHY    C1 2772  28.814  48.766   6.178
 2857ETHY    C1 2773  29.039  49.201   5.981
 2858ETHY    C1 2774  29.190  49.690   5.811
 2859AUSL   AUS 2775  26.600  47.794   7.339
 2860AUSL   AUS 2776  26.487  47.537   6.992
 2861AUL    AUL 2777  26.449  47.915   7.012
 2862THSLK    S 2778  26.646  48.041   7.239
 2863ETHY    C1 2779  26.793  48.438   7.074
 2864ETHY    C1 2780  26.879  48.932   6.889
 2865ETHY    C1 2781  26.867  49.433   6.727
 2866ETHY    C1 2782  26.765  49.929   6.593
 2867ETHY    C1 2783  26.573  50.410   6.492
 2868ETHY    C1 2784  26.295  50.868   6.427
 2869THSLK    S 2785  26.377  47.669   6.805
 2870ETHY    C1 2786  26.341  47.818   6.377
 2871ETHY    C1 2787  26.231  48.044   5.906
 2872ETHY    C1 2788  26.053  48.319   5.494
 2873ETHY    C1 2789  25.819  48.632   5.145
 2874ETHY    C1 2790  25.533  48.981   4.870
 2875ETHY    C1 2791  25.202  49.359   4.675
 2876AUSL   AUS 2792  26.752  46.540   7.094
 2877AUSL   AUS 2793  26.336  46.610   7.238
 2878AUL    AUL 2794  26.449  46.326   7.012
 2879THSLK    S 2795  26.153  46.462   7.134
 2880ETHY    C1 2796  25.770  46.218   7.124
 2881ETHY    C1 2797  25.352  45.897   7.035
 2882ETHY    C1 2798  24.993  45.551   6.866
 2883ETHY    C1 2799  24.696  45.190   6.631
 2884ETHY    C1 2800  24.471  44.818   6.331
 2885ETHY    C1 2801  24.324  44.441   5.974
 2886THSLK    S 2802  26.710  46.285   7.024
 2887ETHY    C1 2803  26.526  45.884   6.917
 2888ETHY    C1 2804  26.376  45.406   6.732
 2889ETHY    C1 2805  26.310  44.943   6.491
 2890ETHY    C1 2806  26.323  44.503   6.206
 2891ETHY    C1 2807  26.420  44.096   5.885
 2892ETHY    C1 2808  26.600  43.728   5.533
 2893AUSL   AUS 2809  26.904  46.447   7.339
 2894AUSL   AUS 2810  27.017  46.704   6.992
 2895AUL    AUL 2811  27.055  46.326   7.012
 2896THSLK    S 2812  26.861  46.193   7.266
 2897ETHY    C1 2813  26.717  45.765   7.213
 2898ETHY    C1 2814  26.630  45.246   7.120
 2899ETHY    C1 2815  26.642  44.734   6.997
 2900ETHY    C1 2816  26.743  44.240   6.854
 2901ETHY    C1 2817  26.935  43.775   6.695
 2902ETHY    C1 2818  27.215  43.347   6.523
 2903THSLK    S 2819  27.134  46.514   6.859
 2904ETHY    C1 2820  27.178  46.112   6.651
 2905ETHY    C1 2821  27.288  45.681   6.355
 2906ETHY    C1 2822  27.464  45.318   6.017
 2907ETHY    C1 2823  27.695  45.024   5.651
 2908ETHY    C1 2824  27.981  44.807   5.264
 2909ETHY    C1 2825  28.318  44.671   4.865
 2910AUC    AUC 2826  19.695  19.646   7.503
 2911AUC    AUC 2827  19.940  19.646   7.351
 2912AUC    AUC 2828  19.940  19.646   7.654
 2913AUC    AUC 2829  19.450  19.646   7.351
 2914AUC    AUC 2830  19.450  19.646   7.654
 2915AUC    AUC 2831  19.543  19.892   7.503
 2916AUC    AUC 2832  19.847  19.892   7.503
 2917AUC    AUC 2833  19.543  19.401   7.503
 2918AUC    AUC 2834  19.847  19.401   7.503
 2919AUC    AUC 2835  19.695  19.495   7.748
 2920AUC    AUC 2836  19.695  19.798   7.748
 2921AUC    AUC 2837  19.695  19.495   7.257
 2922AUC    AUC 2838  19.695  19.798   7.257
 2923AUC    AUC 2839  20.186  19.646   7.199
 2924AUC    AUC 2840  20.186  19.646   7.503
 2925AUC    AUC 2841  20.186  19.646   7.806
 2926AUC    AUC 2842  19.204  19.646   7.199
 2927AUC    AUC 2843  19.204  19.646   7.503
 2928AUC    AUC 2844  19.204  19.646   7.806
 2929AUC    AUC 2845  19.392  20.137   7.503
 2930AUC    AUC 2846  19.695  20.137   7.503
 2931AUC    AUC 2847  19.998  20.137   7.503
 2932AUC    AUC 2848  19.392  19.156   7.503
 2933AUC    AUC 2849  19.695  19.156   7.503
 2934AUC    AUC 2850  19.998  19.156   7.503
 2935AUC    AUC 2851  19.695  19.343   7.993
 2936AUC    AUC 2852  19.695  19.646   7.993
 2937AUC    AUC 2853  19.695  19.950   7.993
 2938AUC    AUC 2854  19.695  19.343   7.012
 2939AUC    AUC 2855  19.695  19.646   7.012
 2940AUC    AUC 2856  19.695  19.950   7.012
 2941AUC    AUC 2857  19.940  19.495   7.900
 2942AUC    AUC 2858  19.940  19.798   7.900
 2943AUC    AUC 2859  19.940  19.495   7.106
 2944AUC    AUC 2860  19.940  19.798   7.106
 2945AUC    AUC 2861  19.450  19.495   7.900
 2946AUC    AUC 2862  19.450  19.798   7.900
 2947AUC    AUC 2863  19.450  19.495   7.106
 2948AUC    AUC 2864  19.450  19.798   7.106
 2949AUC    AUC 2865  20.092  19.892   7.351
 2950AUC    AUC 2866  20.092  19.892   7.654
 2951AUC    AUC 2867  19.298  19.892   7.351
 2952AUC    AUC 2868  19.298  19.892   7.654
 2953AUC    AUC 2869  20.092  19.401   7.351
 2954AUC    AUC 2870  20.092  19.401   7.654
 2955AUC    AUC 2871  19.298  19.401   7.351
 2956AUC    AUC 2872  19.298  19.401   7.654
 2957AUC    AUC 2873  19.543  20.044   7.748
 2958AUC    AUC 2874  19.847  20.044   7.748
 2959AUC    AUC 2875  19.543  19.249   7.748
 2960AUC    AUC 2876  19.847  19.249   7.748
 2961AUC    AUC 2877  19.543  20.044   7.257
 2962AUC    AUC 2878  19.847  20.044   7.257
 2963AUC    AUC 2879  19.543  19.249   7.257
 2964AUC    AUC 2880  19.847  19.249   7.257
 2965AUSL   AUS 2881  20.104  19.646   8.083
 2966AUSL   AUS 2882  19.960  19.230   8.013
 2967AUL    AUL 2883  20.186  19.343   8.297
 2968THSLK    S 2884  20.070  19.043   8.153
 2969ETHY    C1 2885  20.106  18.644   8.368
 2970ETHY    C1 2886  20.216  18.214   8.665
 2971ETHY    C1 2887  20.394  17.850   9.000
 2972ETHY    C1 2888  20.628  17.554   9.364
 2973ETHY    C1 2889  20.914  17.337   9.752
 2974ETHY    C1 2890  21.245  17.204  10.156
 2975THSLK    S 2891  20.197  19.594   8.324
 2976ETHY    C1 2892  20.401  19.374   8.665
 2977ETHY    C1 2893  20.665  19.197   9.094
 2978ETHY    C1 2894  20.941  19.121   9.535
 2979ETHY    C1 2895  21.218  19.138   9.980
 2980ETHY    C1 2896  21.488  19.251  10.419
 2981ETHY    C1 2897  21.747  19.460  10.845
 2982AUSL   AUS 2898  19.859  19.495   8.176
 2983AUSL   AUS 2899  19.531  19.798   8.176
 2984AUL    AUL 2900  19.695  19.646   8.484
 2985THSLK    S 2901  19.934  19.440   8.413
 2986ETHY    C1 2902  19.998  19.160   8.765
 2987ETHY    C1 2903  20.101  18.905   9.223
 2988ETHY    C1 2904  20.228  18.746   9.708
 2989ETHY    C1 2905  20.370  18.677  10.208
 2990ETHY    C1 2906  20.524  18.705  10.713
 2991ETHY    C1 2907  20.684  18.829  11.212
 2992THSLK    S 2908  19.446  19.752   8.428
 2993ETHY    C1 2909  19.372  19.602   8.850
 2994ETHY    C1 2910  19.267  19.514   9.367
 2995ETHY    C1 2911  19.145  19.526   9.878
 2996ETHY    C1 2912  19.007  19.627  10.373
 2997ETHY    C1 2913  18.852  19.820  10.840
 2998ETHY    C1 2914  18.683  20.101  11.268
 2999AUSL   AUS 2915  19.859  19.798   8.176
 3000AUSL   AUS 2916  20.205  19.911   7.919
 3001AUL    AUL 2917  20.186  19.950   8.297
 3002THSLK    S 2918  19.944  19.854   8.410
 3003ETHY    C1 2919  20.018  20.135   8.759
 3004ETHY    C1 2920  20.123  20.390   9.217
 3005ETHY    C1 2921  20.245  20.549   9.703
 3006ETHY    C1 2922  20.384  20.618  10.204
 3007ETHY    C1 2923  20.538  20.591  10.708
 3008ETHY    C1 2924  20.707  20.467  11.206
 3009THSLK    S 2925  20.377  20.009   8.080
 3010ETHY    C1 2926  20.740  19.980   8.350
 3011ETHY    C1 2927  21.162  20.036   8.673
 3012ETHY    C1 2928  21.554  20.190   8.989
 3013ETHY    C1 2929  21.908  20.428   9.293
 3014ETHY    C1 2930  22.215  20.749   9.580
 3015ETHY    C1 2931  22.466  21.146   9.844
 3016AUSL   AUS 2932  20.104  19.646   6.923
 3017AUSL   AUS 2933  19.960  20.063   6.992
 3018AUL    AUL 2934  20.186  19.950   6.708
 3019THSLK    S 2935  20.206  19.594   6.687
 3020ETHY    C1 2936  20.419  19.374   6.351
 3021ETHY    C1 2937  20.684  19.197   5.923
 3022ETHY    C1 2938  20.956  19.121   5.479
 3023ETHY    C1 2939  21.230  19.138   5.033
 3024ETHY    C1 2940  21.501  19.251   4.594
 3025ETHY    C1 2941  21.766  19.460   4.173
 3026THSLK    S 2942  20.138  20.174   6.829
 3027ETHY    C1 2943  20.440  20.242   6.497
 3028ETHY    C1 2944  20.759  20.405   6.100
 3029ETHY    C1 2945  21.024  20.652   5.719
 3030ETHY    C1 2946  21.236  20.972   5.362
 3031ETHY    C1 2947  21.389  21.362   5.039
 3032ETHY    C1 2948  21.480  21.814   4.759
 3033AUSL   AUS 2949  19.859  19.495   6.829
 3034AUSL   AUS 2950  20.205  19.382   7.086
 3035AUL    AUL 2951  20.186  19.343   6.708
 3036THSLK    S 2952  20.338  19.190   6.949
 3037ETHY    C1 2953  20.521  18.823   6.752
 3038ETHY    C1 2954  20.793  18.451   6.483
 3039ETHY    C1 2955  21.118  18.162   6.186
 3040ETHY    C1 2956  21.484  17.955   5.874
 3041ETHY    C1 2957  21.888  17.836   5.555
 3042ETHY    C1 2958  22.321  17.811   5.235
 3043THSLK    S 2959  19.944  19.439   6.596
 3044ETHY    C1 2960  20.018  19.158   6.246
 3045ETHY    C1 2961  20.123  18.902   5.788
 3046ETHY    C1 2962  20.245  18.744   5.302
 3047ETHY    C1 2963  20.384  18.675   4.801
 3048ETHY    C1 2964  20.538  18.702   4.297
 3049ETHY    C1 2965  20.707  18.826   3.799
 3050AUSL   AUS 2966  19.859  19.798   6.829
 3051AUSL   AUS 2967  19.531  19.495   6.829
 3052AUL    AUL 2968  19.695  19.646   6.521
 3053THSLK    S 2969  19.439  19.439   6.597
 3054ETHY    C1 2970  19.304  19.161   6.264
 3055ETHY    C1 2971  19.143  18.908   5.822
 3056ETHY    C1 2972  18.991  18.751   5.343
 3057ETHY    C1 2973  18.855  18.682   4.842
 3058ETHY    C1 2974  18.738  18.708   4.328
 3059ETHY    C1 2975  18.645  18.827   3.810
 3060THSLK    S 2976  19.961  19.752   6.583
 3061ETHY    C1 2977  20.107  19.602   6.179
 3062ETHY    C1 2978  20.269  19.511   5.678
 3063ETHY    C1 2979  20.416  19.521   5.173
 3064ETHY    C1 2980  20.549  19.622   4.677
 3065ETHY    C1 2981  20.666  19.817   4.200
 3066ETHY    C1 2982  20.767  20.103   3.754
 3067AUSL   AUS 2983  19.286  19.646   8.083
 3068AUSL   AUS 2984  19.430  20.063   8.013
 3069AUL    AUL 2985  19.204  19.950   8.297
 3070THSLK    S 2986  19.184  19.594   8.319
 3071ETHY    C1 2987  18.972  19.374   8.654
 3072ETHY    C1 2988  18.706  19.197   9.082
 3073ETHY    C1 2989  18.434  19.121   9.526
 3074ETHY    C1 2990  18.160  19.138   9.973
 3075ETHY    C1 2991  17.889  19.251  10.411
 3076ETHY    C1 2992  17.624  19.460  10.832
 3077THSLK    S 2993  19.313  20.187   8.202
 3078ETHY    C1 2994  19.270  20.330   8.632
 3079ETHY    C1 2995  19.159  20.555   9.104
 3080ETHY    C1 2996  18.983  20.832   9.515
 3081ETHY    C1 2997  18.752  21.148   9.863
 3082ETHY    C1 2998  18.466  21.496  10.138
 3083ETHY    C1 2999  18.129  21.869  10.334
 3084AUSL   AUS 3000  19.531  19.495   8.176
 3085AUSL   AUS 3001  19.185  19.382   7.919
 3086AUL    AUL 3002  19.204  19.343   8.297
 3087THSLK    S 3003  19.008  19.219   8.026
 3088ETHY    C1 3004  18.637  18.962   8.082
 3089ETHY    C1 3005  18.215  18.674   8.237
 3090ETHY    C1 3006  17.825  18.419   8.482
 3091ETHY    C1 3007  17.473  18.202   8.803
 3092ETHY    C1 3008  17.167  18.031   9.198
 3093ETHY    C1 3009  16.910  17.910   9.657
 3094THSLK    S 3010  19.429  19.441   8.406
 3095ETHY    C1 3011  19.283  19.165   8.736
 3096ETHY    C1 3012  19.121  18.913   9.178
 3097ETHY    C1 3013  18.974  18.755   9.658
 3098ETHY    C1 3014  18.841  18.685  10.160
 3099ETHY    C1 3015  18.724  18.711  10.674
 3100ETHY    C1 3016  18.623  18.832  11.190
 3101AUSL   AUS 3017  19.286  19.646   6.923
 3102AUSL   AUS 3018  19.430  19.230   6.992
 3103AUL    AUL 3019  19.204  19.343   6.708
 3104THSLK    S 3020  19.193  19.594   6.681
 3105ETHY    C1 3021  18.989  19.374   6.341
 3106ETHY    C1 3022  18.725  19.197   5.911
 3107ETHY    C1 3023  18.449  19.121   5.470
 3108ETHY    C1 3024  18.172  19.138   5.025
 3109ETHY    C1 3025  17.902  19.251   4.586
 3110ETHY    C1 3026  17.643  19.460   4.161
 3111THSLK    S 3027  19.259  19.057   6.878
 3112ETHY    C1 3028  18.964  18.731   6.760
 3113ETHY    C1 3029  18.646  18.364   6.538
 3114ETHY    C1 3030  18.378  18.029   6.233
 3115ETHY    C1 3031  18.164  17.729   5.861
 3116ETHY    C1 3032  18.012  17.471   5.426
 3117ETHY    C1 3033  17.926  17.259   4.937
 3118AUSL   AUS 3034  19.531  19.798   6.829
 3119AUSL   AUS 3035  19.185  19.911   7.086
 3120AUL    AUL 3036  19.204  19.950   6.708
 3121THSLK    S 3037  19.058  20.038   6.895
 3122ETHY    C1 3038  18.881  20.119   6.484
 3123ETHY    C1 3039  18.610  20.259   6.046
 3124ETHY    C1 3040  18.283  20.447   5.679
 3125ETHY    C1 3041  17.914  20.676   5.385
 3126ETHY    C1 3042  17.512  20.943   5.173
 3127ETHY    C1 3043  17.083  21.245   5.047
 3128THSLK    S 3044  19.456  19.754   6.576
 3129ETHY    C1 3045  19.392  19.607   6.150
 3130ETHY    C1 3046  19.289  19.518   5.634
 3131ETHY    C1 3047  19.162  19.529   5.123
 3132ETHY    C1 3048  19.020  19.630   4.629
 3133ETHY    C1 3049  18.867  19.823   4.162
 3134ETHY    C1 3050  18.706  20.106   3.732
 3135AUSL   AUS 3051  20.275  20.055   7.503
 3136AUSL   AUS 3052  20.205  19.911   7.086
 3137AUL    AUL 3053  20.489  20.137   7.199
 3138THSLK    S 3054  20.383  20.010   6.934
 3139ETHY    C1 3055  20.753  19.983   6.671
 3140ETHY    C1 3056  21.175  20.039   6.349
 3141ETHY    C1 3057  21.565  20.193   6.030
 3142ETHY    C1 3058  21.917  20.430   5.724
 3143ETHY    C1 3059  22.224  20.751   5.438
 3144ETHY    C1 3060  22.480  21.150   5.179
 3145THSLK    S 3061  20.541  20.108   7.508
 3146ETHY    C1 3062  20.995  20.130   7.513
 3147ETHY    C1 3063  21.517  20.244   7.514
 3148ETHY    C1 3064  22.000  20.453   7.511
 3149ETHY    C1 3065  22.436  20.743   7.510
 3150ETHY    C1 3066  22.815  21.110   7.510
 3151ETHY    C1 3067  23.129  21.550   7.514
 3152AUSL   AUS 3068  20.369  19.810   7.351
 3153AUSL   AUS 3069  20.369  19.483   7.654
 3154AUL    AUL 3070  20.677  19.646   7.503
 3155THSLK    S 3071  20.625  19.849   7.350
 3156ETHY    C1 3072  21.061  19.741   7.286
 3157ETHY    C1 3073  21.587  19.703   7.201
 3158ETHY    C1 3074  22.102  19.767   7.113
 3159ETHY    C1 3075  22.596  19.921   7.026
 3160ETHY    C1 3076  23.056  20.166   6.945
 3161ETHY    C1 3077  23.475  20.498   6.873
 3162THSLK    S 3078  20.596  19.343   7.663
 3163ETHY    C1 3079  20.915  19.027   7.728
 3164ETHY    C1 3080  21.348  18.723   7.807
 3165ETHY    C1 3081  21.823  18.513   7.887
 3166ETHY    C1 3082  22.326  18.392   7.971
 3167ETHY    C1 3083  22.846  18.366   8.058
 3168ETHY    C1 3084  23.374  18.436   8.147
 3169AUSL   AUS 3085  20.369  19.810   7.654
 3170AUSL   AUS 3086  20.111  20.157   7.767
 3171AUL    AUL 3087  20.489  20.137   7.806
 3172THSLK    S 3088  20.294  20.271   7.926
 3173ETHY    C1 3089  20.677  20.389   8.140
 3174ETHY    C1 3090  21.095  20.612   8.388
 3175ETHY    C1 3091  21.454  20.917   8.622
 3176ETHY    C1 3092  21.751  21.290   8.840
 3177ETHY    C1 3093  21.976  21.724   9.038
 3178ETHY    C1 3094  22.123  22.212   9.215
 3179THSLK    S 3095  20.623  19.849   7.665
 3180ETHY    C1 3096  21.058  19.741   7.740
 3181ETHY    C1 3097  21.584  19.703   7.826
 3182ETHY    C1 3098  22.099  19.766   7.910
 3183ETHY    C1 3099  22.593  19.920   7.993
 3184ETHY    C1 3100  23.054  20.165   8.075
 3185ETHY    C1 3101  23.471  20.497   8.155
 3186AUSL   AUS 3102  19.115  20.055   7.503
 3187AUSL   AUS 3103  19.185  19.911   7.919
 3188AUL    AUL 3104  18.901  20.137   7.806
 3189THSLK    S 3105  19.052  20.030   8.109
 3190ETHY    C1 3106  18.869  20.102   8.519
 3191ETHY    C1 3107  18.597  20.242   8.957
 3192ETHY    C1 3108  18.272  20.433   9.324
 3193ETHY    C1 3109  17.906  20.664   9.619
 3194ETHY    C1 3110  17.503  20.931   9.831
 3195ETHY    C1 3111  17.069  21.227   9.956
 3196THSLK    S 3112  18.904  20.196   7.508
 3197ETHY    C1 3113  18.682  20.593   7.513
 3198ETHY    C1 3114  18.346  21.008   7.514
 3199ETHY    C1 3115  17.943  21.347   7.511
 3200ETHY    C1 3116  17.489  21.608   7.510
 3201ETHY    C1 3117  16.990  21.782   7.510
 3202ETHY    C1 3118  16.457  21.866   7.514
 3203AUSL   AUS 3119  19.021  19.810   7.351
 3204AUSL   AUS 3120  19.279  20.157   7.238
 3205AUL    AUL 3121  18.901  20.137   7.199
 3206THSLK    S 3122  18.794  19.925   7.303
 3207ETHY    C1 3123  18.475  20.125   7.049
 3208ETHY    C1 3124  18.042  20.331   6.813
 3209ETHY    C1 3125  17.567  20.497   6.661
 3210ETHY    C1 3126  17.064  20.626   6.590
 3211ETHY    C1 3127  16.544  20.716   6.605
 3212ETHY    C1 3128  16.016  20.764   6.708
 3213THSLK    S 3129  19.167  20.320   7.060
 3214ETHY    C1 3130  19.088  20.630   6.737
 3215ETHY    C1 3131  18.913  21.004   6.397
 3216ETHY    C1 3132  18.659  21.372   6.120
 3217ETHY    C1 3133  18.339  21.729   5.909
 3218ETHY    C1 3134  17.958  22.067   5.770
 3219ETHY    C1 3135  17.523  22.381   5.709
 3220AUSL   AUS 3136  19.021  19.810   7.654
 3221AUSL   AUS 3137  19.021  19.483   7.351
 3222AUL    AUL 3138  18.713  19.646   7.503
 3223THSLK    S 3139  18.767  19.410   7.394
 3224ETHY    C1 3140  18.332  19.392   7.524
 3225ETHY    C1 3141  17.806  19.332   7.597
 3226ETHY    C1 3142  17.291  19.228   7.578
 3227ETHY    C1 3143  16.797  19.085   7.477
 3228ETHY    C1 3144  16.337  18.902   7.294
 3229ETHY    C1 3145  15.919  18.682   7.034
 3230THSLK    S 3146  18.793  19.916   7.707
 3231ETHY    C1 3147  18.472  20.107   7.966
 3232ETHY    C1 3148  18.039  20.311   8.202
 3233ETHY    C1 3149  17.564  20.482   8.352
 3234ETHY    C1 3150  17.062  20.614   8.422
 3235ETHY    C1 3151  16.542  20.702   8.407
 3236ETHY    C1 3152  16.013  20.743   8.308
 3237AUSL   AUS 3153  20.275  19.237   7.503
 3238AUSL   AUS 3154  20.205  19.382   7.919
 3239AUL    AUL 3155  20.489  19.156   7.806
 3240THSLK    S 3156  20.486  19.096   7.508
 3241ETHY    C1 3157  20.708  18.700   7.513
 3242ETHY    C1 3158  21.044  18.285   7.514
 3243ETHY    C1 3159  21.447  17.946   7.511
 3244ETHY    C1 3160  21.901  17.685   7.510
 3245ETHY    C1 3161  22.400  17.511   7.510
 3246ETHY    C1 3162  22.933  17.427   7.514
 3247THSLK    S 3163  20.332  19.191   8.064
 3248ETHY    C1 3164  20.509  18.826   8.270
 3249ETHY    C1 3165  20.780  18.454   8.540
 3250ETHY    C1 3166  21.107  18.165   8.834
 3251ETHY    C1 3167  21.476  17.957   9.142
 3252ETHY    C1 3168  21.878  17.839   9.462
 3253ETHY    C1 3169  22.307  17.814   9.789
 3254AUSL   AUS 3170  20.369  19.483   7.351
 3255AUSL   AUS 3171  20.111  19.136   7.238
 3256AUL    AUL 3172  20.489  19.156   7.199
 3257THSLK    S 3173  20.597  19.343   7.353
 3258ETHY    C1 3174  20.918  19.026   7.298
 3259ETHY    C1 3175  21.351  18.723   7.221
 3260ETHY    C1 3176  21.826  18.513   7.136
 3261ETHY    C1 3177  22.328  18.392   7.048
 3262ETHY    C1 3178  22.848  18.365   6.963
 3263ETHY    C1 3179  23.377  18.436   6.881
 3264THSLK    S 3180  20.227  18.947   7.108
 3265ETHY    C1 3181  20.311  18.518   6.984
 3266ETHY    C1 3182  20.486  18.046   6.803
 3267ETHY    C1 3183  20.739  17.635   6.593
 3268ETHY    C1 3184  21.057  17.287   6.366
 3269ETHY    C1 3185  21.439  17.012   6.126
 3270ETHY    C1 3186  21.877  16.815   5.880
 3271AUSL   AUS 3187  19.115  19.237   7.503
 3272AUSL   AUS 3188  19.185  19.382   7.086
 3273AUL    AUL 3189  18.901  19.156   7.199
 3274THSLK    S 3190  19.014  19.211   6.978
 3275ETHY    C1 3191  18.650  18.946   6.921
 3276ETHY    C1 3192  18.228  18.656   6.766
 3277ETHY    C1 3193  17.836  18.404   6.521
 3278ETHY    C1 3194  17.482  18.191   6.200
 3279ETHY    C1 3195  17.175  18.018   5.806
 3280ETHY    C1 3196  16.924  17.891   5.346
 3281THSLK    S 3197  18.849  19.185   7.508
 3282ETHY    C1 3198  18.395  19.163   7.513
 3283ETHY    C1 3199  17.873  19.049   7.514
 3284ETHY    C1 3200  17.391  18.840   7.511
 3285ETHY    C1 3201  16.954  18.550   7.510
 3286ETHY    C1 3202  16.575  18.183   7.510
 3287ETHY    C1 3203  16.262  17.743   7.514
 3288AUSL   AUS 3204  19.021  19.483   7.654
 3289AUSL   AUS 3205  19.279  19.136   7.767
 3290AUL    AUL 3206  18.901  19.156   7.806
 3291THSLK    S 3207  19.091  18.996   7.878
 3292ETHY    C1 3208  18.704  18.759   7.893
 3293ETHY    C1 3209  18.286  18.439   7.982
 3294ETHY    C1 3210  17.928  18.090   8.149
 3295ETHY    C1 3211  17.633  17.726   8.382
 3296ETHY    C1 3212  17.408  17.355   8.683
 3297ETHY    C1 3213  17.257  16.984   9.045
 3298THSLK    S 3214  18.765  19.420   7.616
 3299ETHY    C1 3215  18.329  19.410   7.491
 3300ETHY    C1 3216  17.803  19.351   7.419
 3301ETHY    C1 3217  17.288  19.244   7.436
 3302ETHY    C1 3218  16.794  19.098   7.535
 3303ETHY    C1 3219  16.334  18.916   7.718
 3304ETHY    C1 3220  15.915  18.703   7.983
 3305AUSL   AUS 3221  19.695  20.226   7.912
 3306AUSL   AUS 3222  19.279  20.157   7.767
 3307AUL    AUL 3223  19.392  20.441   7.993
 3308THSLK    S 3224  19.163  20.313   7.952
 3309ETHY    C1 3225  19.079  20.615   8.280
 3310ETHY    C1 3226  18.904  20.988   8.621
 3311ETHY    C1 3227  18.651  21.359   8.895
 3312ETHY    C1 3228  18.333  21.718   9.105
 3313ETHY    C1 3229  17.951  22.056   9.244
 3314ETHY    C1 3230  17.513  22.364   9.309
 3315THSLK    S 3231  19.737  20.448   8.035
 3316ETHY    C1 3232  19.921  20.723   8.347
 3317ETHY    C1 3233  20.071  21.103   8.691
 3318ETHY    C1 3234  20.137  21.526   8.998
 3319ETHY    C1 3235  20.124  21.977   9.264
 3320ETHY    C1 3236  20.027  22.446   9.485
 3321ETHY    C1 3237  19.847  22.925   9.656
 3322AUSL   AUS 3238  19.543  20.320   7.666
 3323AUSL   AUS 3239  19.847  20.320   7.339
 3324AUL    AUL 3240  19.695  20.628   7.503
 3325THSLK    S 3241  19.586  20.564   7.776
 3326ETHY    C1 3242  19.730  20.958   7.951
 3327ETHY    C1 3243  19.817  21.452   8.137
 3328ETHY    C1 3244  19.805  21.953   8.294
 3329ETHY    C1 3245  19.704  22.451   8.425
 3330ETHY    C1 3246  19.512  22.932   8.527
 3331ETHY    C1 3247  19.232  23.387   8.600
 3332THSLK    S 3248  19.902  20.551   7.243
 3333ETHY    C1 3249  20.178  20.881   7.096
 3334ETHY    C1 3250  20.428  21.322   6.927
 3335ETHY    C1 3251  20.584  21.799   6.771
 3336ETHY    C1 3252  20.653  22.301   6.635
 3337ETHY    C1 3253  20.629  22.817   6.525
 3338ETHY    C1 3254  20.512  23.337   6.443
 3339AUSL   AUS 3255  19.847  20.320   7.666
 3340AUSL   AUS 3256  19.960  20.063   8.013
 3341AUL    AUL 3257  19.998  20.441   7.993
 3342THSLK    S 3258  20.131  20.171   8.183
 3343ETHY    C1 3259  20.426  20.236   8.523
 3344ETHY    C1 3260  20.744  20.398   8.920
 3345ETHY    C1 3261  21.012  20.647   9.298
 3346ETHY    C1 3262  21.226  20.969   9.653
 3347ETHY    C1 3263  21.378  21.357   9.976
 3348ETHY    C1 3264  21.464  21.807  10.262
 3349THSLK    S 3265  19.900  20.549   7.772
 3350ETHY    C1 3266  20.172  20.877   7.929
 3351ETHY    C1 3267  20.422  21.317   8.100
 3352ETHY    C1 3268  20.580  21.796   8.251
 3353ETHY    C1 3269  20.649  22.298   8.383
 3354ETHY    C1 3270  20.625  22.813   8.494
 3355ETHY    C1 3271  20.506  23.332   8.585
 3356AUSL   AUS 3272  19.695  19.066   7.912
 3357AUSL   AUS 3273  20.111  19.136   7.767
 3358AUL    AUL 3274  19.998  18.852   7.993
 3359THSLK    S 3275  19.648  18.816   7.989
 3360ETHY    C1 3276  19.458  18.420   8.103
 3361ETHY    C1 3277  19.307  17.942   8.289
 3362ETHY    C1 3278  19.244  17.477   8.528
 3363ETHY    C1 3279  19.259  17.035   8.809
 3364ETHY    C1 3280  19.355  16.628   9.132
 3365ETHY    C1 3281  19.530  16.265   9.489
 3366THSLK    S 3282  20.223  18.949   7.907
 3367ETHY    C1 3283  20.302  18.521   8.040
 3368ETHY    C1 3284  20.477  18.051   8.222
 3369ETHY    C1 3285  20.731  17.639   8.428
 3370ETHY    C1 3286  21.051  17.290   8.652
 3371ETHY    C1 3287  21.432  17.015   8.893
 3372ETHY    C1 3288  21.867  16.819   9.147
 3373AUSL   AUS 3289  19.543  18.973   7.666
 3374AUSL   AUS 3290  19.430  19.230   8.013
 3375AUL    AUL 3291  19.392  18.852   7.993
 3376THSLK    S 3292  19.488  18.737   7.745
 3377ETHY    C1 3293  19.213  18.378   7.788
 3378ETHY    C1 3294  18.962  17.913   7.869
 3379ETHY    C1 3295  18.806  17.423   7.981
 3380ETHY    C1 3296  18.737  16.924   8.122
 3381ETHY    C1 3297  18.761  16.424   8.292
 3382ETHY    C1 3298  18.878  15.936   8.489
 3383THSLK    S 3299  19.252  19.064   8.129
 3384ETHY    C1 3300  18.950  18.746   8.248
 3385ETHY    C1 3301  18.631  18.379   8.471
 3386ETHY    C1 3302  18.366  18.042   8.776
 3387ETHY    C1 3303  18.154  17.740   9.147
 3388ETHY    C1 3304  18.001  17.482   9.582
 3389ETHY    C1 3305  17.910  17.275  10.072
 3390AUSL   AUS 3306  19.847  18.973   7.666
 3391AUSL   AUS 3307  19.543  18.973   7.339
 3392AUL    AUL 3308  19.695  18.665   7.503
 3393THSLK    S 3309  19.490  18.734   7.270
 3394ETHY    C1 3310  19.218  18.372   7.236
 3395ETHY    C1 3311  18.968  17.907   7.157
 3396ETHY    C1 3312  18.811  17.418   7.041
 3397ETHY    C1 3313  18.741  16.919   6.896
 3398ETHY    C1 3314  18.765  16.420   6.727
 3399ETHY    C1 3315  18.884  15.929   6.538
 3400THSLK    S 3316  19.801  18.721   7.749
 3401ETHY    C1 3317  19.654  18.295   7.811
 3402ETHY    C1 3318  19.568  17.777   7.906
 3403ETHY    C1 3319  19.580  17.264   8.025
 3404ETHY    C1 3320  19.682  16.769   8.165
 3405ETHY    C1 3321  19.874  16.304   8.325
 3406ETHY    C1 3322  20.152  15.878   8.504
 3407AUSL   AUS 3323  19.695  20.226   7.094
 3408AUSL   AUS 3324  20.111  20.157   7.238
 3409AUL    AUL 3325  19.998  20.441   7.012
 3410THSLK    S 3326  19.742  20.453   6.977
 3411ETHY    C1 3327  19.932  20.732   6.674
 3412ETHY    C1 3328  20.083  21.113   6.330
 3413ETHY    C1 3329  20.147  21.533   6.021
 3414ETHY    C1 3330  20.131  21.983   5.752
 3415ETHY    C1 3331  20.035  22.453   5.532
 3416ETHY    C1 3332  19.860  22.936   5.366
 3417THSLK    S 3333  20.299  20.273   7.089
 3418ETHY    C1 3334  20.686  20.393   6.883
 3419ETHY    C1 3335  21.104  20.616   6.637
 3420ETHY    C1 3336  21.462  20.920   6.400
 3421ETHY    C1 3337  21.757  21.292   6.178
 3422ETHY    C1 3338  21.982  21.727   5.981
 3423ETHY    C1 3339  22.133  22.216   5.811
 3424AUSL   AUS 3340  19.543  20.320   7.339
 3425AUSL   AUS 3341  19.430  20.063   6.992
 3426AUL    AUL 3342  19.392  20.441   7.012
 3427THSLK    S 3343  19.589  20.567   7.239
 3428ETHY    C1 3344  19.736  20.964   7.074
 3429ETHY    C1 3345  19.822  21.458   6.889
 3430ETHY    C1 3346  19.810  21.959   6.727
 3431ETHY    C1 3347  19.708  22.455   6.593
 3432ETHY    C1 3348  19.516  22.936   6.492
 3433ETHY    C1 3349  19.238  23.394   6.427
 3434THSLK    S 3350  19.320  20.195   6.805
 3435ETHY    C1 3351  19.284  20.344   6.377
 3436ETHY    C1 3352  19.174  20.570   5.906
 3437ETHY    C1 3353  18.996  20.845   5.494
 3438ETHY    C1 3354  18.762  21.158   5.145
 3439ETHY    C1 3355  18.476  21.507   4.870
 3440ETHY    C1 3356  18.145  21.885   4.675
 3441AUSL   AUS 3357  19.695  19.066   7.094
 3442AUSL   AUS 3358  19.279  19.136   7.238
 3443AUL    AUL 3359  19.392  18.852   7.012
 3444THSLK    S 3360  19.096  18.988   7.134
 3445ETHY    C1 3361  18.713  18.744   7.124
 3446ETHY    C1 3362  18.295  18.423   7.035
 3447ETHY    C1 3363  17.936  18.077   6.866
 3448ETHY    C1 3364  17.639  17.716   6.631
 3449ETHY    C1 3365  17.414  17.344   6.331
 3450ETHY    C1 3366  17.267  16.967   5.974
 3451THSLK    S 3367  19.653  18.811   7.024
 3452ETHY    C1 3368  19.469  18.410   6.917
 3453ETHY    C1 3369  19.319  17.932   6.732
 3454ETHY    C1 3370  19.253  17.469   6.491
 3455ETHY    C1 3371  19.266  17.029   6.206
 3456ETHY    C1 3372  19.363  16.622   5.885
 3457ETHY    C1 3373  19.543  16.254   5.533
 3458AUSL   AUS 3374  19.847  18.973   7.339
 3459AUSL   AUS 3375  19.960  19.230   6.992
 3460AUL    AUL 3376  19.998  18.852   7.012
 3461THSLK    S 3377  19.804  18.719   7.266
 3462ETHY    C1 3378  19.660  18.291   7.213
 3463ETHY    C1 3379  19.573  17.772   7.120
 3464ETHY    C1 3380  19.585  17.260   6.997
 3465ETHY    C1 3381  19.686  16.766   6.854
 3466ETHY    C1 3382  19.878  16.301   6.695
 3467ETHY    C1 3383  20.158  15.873   6.523
 3468THSLK    S 3384  20.077  19.040   6.859
 3469ETHY    C1 3385  20.121  18.638   6.651
 3470ETHY    C1 3386  20.231  18.207   6.355
 3471ETHY    C1 3387  20.407  17.844   6.017
 3472ETHY    C1 3388  20.638  17.550   5.651
 3473ETHY    C1 3389  20.924  17.333   5.264
 3474ETHY    C1 3390  21.261  17.197   4.865
 3475AUC    AUC 3391  41.862  17.480   7.503
 3476AUC    AUC 3392  42.107  17.480   7.351
 3477AUC    AUC 3393  42.107  17.480   7.654
 3478AUC    AUC 3394  41.617  17.480   7.351
 3479AUC    AUC 3395  41.617  17.480   7.654
 3480AUC    AUC 3396  41.710  17.726   7.503
 3481AUC    AUC 3397  42.014  17.726   7.503
 3482AUC    AUC 3398  41.710  17.235   7.503
 3483AUC    AUC 3399  42.014  17.235   7.503
 3484AUC    AUC 3400  41.862  17.329   7.748
 3485AUC    AUC 3401  41.862  17.632   7.748
 3486AUC    AUC 3402  41.862  17.329   7.257
 3487AUC    AUC 3403  41.862  17.632   7.257
 3488AUC    AUC 3404  42.353  17.480   7.199
 3489AUC    AUC 3405  42.353  17.480   7.503
 3490AUC    AUC 3406  42.353  17.480   7.806
 3491AUC    AUC 3407  41.371  17.480   7.199
 3492AUC    AUC 3408  41.371  17.480   7.503
 3493AUC    AUC 3409  41.371  17.480   7.806
 3494AUC    AUC 3410  41.559  17.971   7.503
 3495AUC    AUC 3411  41.862  17.971   7.503
 3496AUC    AUC 3412  42.165  17.971   7.503
 3497AUC    AUC 3413  41.559  16.990   7.503
 3498AUC    AUC 3414  41.862  16.990   7.503
 3499AUC    AUC 3415  42.165  16.990   7.503
 3500AUC    AUC 3416  41.862  17.177   7.993
 3501AUC    AUC 3417  41.862  17.480   7.993
 3502AUC    AUC 3418  41.862  17.784   7.993
 3503AUC    AUC 3419  41.862  17.177   7.012
 3504AUC    AUC 3420  41.862  17.480   7.012
 3505AUC    AUC 3421  41.862  17.784   7.012
 3506AUC    AUC 3422  42.107  17.329   7.900
 3507AUC    AUC 3423  42.107  17.632   7.900
 3508AUC    AUC 3424  42.107  17.329   7.106
 3509AUC    AUC 3425  42.107  17.632   7.106
 3510AUC    AUC 3426  41.617  17.329   7.900
 3511AUC    AUC 3427  41.617  17.632   7.900
 3512AUC    AUC 3428  41.617  17.329   7.106
 3513AUC    AUC 3429  41.617  17.632   7.106
 3514AUC    AUC 3430  42.259  17.726   7.351
 3515AUC    AUC 3431  42.259  17.726   7.654
 3516AUC    AUC 3432  41.465  17.726   7.351
 3517AUC    AUC 3433  41.465  17.726   7.654
 3518AUC    AUC 3434  42.259  17.235   7.351
 3519AUC    AUC 3435  42.259  17.235   7.654
 3520AUC    AUC 3436  41.465  17.235   7.351
 3521AUC    AUC 3437  41.465  17.235   7.654
 3522AUC    AUC 3438  41.710  17.878   7.748
 3523AUC    AUC 3439  42.014  17.878   7.748
 3524AUC    AUC 3440  41.710  17.083   7.748
 3525AUC    AUC 3441  42.014  17.083   7.748
 3526AUC    AUC 3442  41.710  17.878   7.257
 3527AUC    AUC 3443  42.014  17.878   7.257
 3528AUC    AUC 3444  41.710  17.083   7.257
 3529AUC    AUC 3445  42.014  17.083   7.257
 3530AUSL   AUS 3446  42.271  17.480   8.083
 3531AUSL   AUS 3447  42.127  17.064   8.013
 3532AUL    AUL 3448  42.353  17.177   8.297
 3533THSLK    S 3449  42.237  16.877   8.153
 3534ETHY    C1 3450  42.273  16.478   8.368
 3535ETHY    C1 3451  42.383  16.048   8.665
 3536ETHY    C1 3452  42.561  15.684   9.000
 3537ETHY    C1 3453  42.795  15.388   9.364
 3538ETHY    C1 3454  43.081  15.171   9.752
 3539ETHY    C1 3455  43.412  15.038  10.156
 3540THSLK    S 3456  42.364  17.428   8.324
 3541ETHY    C1 3457  42.568  17.208   8.665
 3542ETHY    C1 3458  42.832  17.031   9.094
 3543ETHY    C1 3459  43.108  16.955   9.535
 3544ETHY    C1 3460  43.385  16.972   9.980
 3545ETHY    C1 3461  43.655  17.085  10.419
 3546ETHY    C1 3462  43.914  17.294  10.845
 3547AUSL   AUS 3463  42.026  17.329   8.176
 3548AUSL   AUS 3464  41.698  17.632   8.176
 3549AUL    AUL 3465  41.862  17.480   8.484
 3550THSLK    S 3466  42.101  17.274   8.413
 3551ETHY    C1 3467  42.165  16.994   8.765
 3552ETHY    C1 3468  42.268  16.739   9.223
 3553ETHY    C1 3469  42.395  16.580   9.708
 3554ETHY    C1 3470  42.537  16.511  10.208
 3555ETHY    C1 3471  42.691  16.539  10.713
 3556ETHY    C1 3472  42.851  16.663  11.212
 3557THSLK    S 3473  41.613  17.586   8.428
 3558ETHY    C1 3474  41.539  17.436   8.850
 3559ETHY    C1 3475  41.434  17.348   9.367
 3560ETHY    C1 3476  41.312  17.360   9.878
 3561ETHY    C1 3477  41.174  17.461  10.373
 3562ETHY    C1 3478  41.019  17.654  10.840
 3563ETHY    C1 3479  40.850  17.935  11.268
 3564AUSL   AUS 3480  42.026  17.632   8.176
 3565AUSL   AUS 3481  42.372  17.745   7.919
 3566AUL    AUL 3482  42.353  17.784   8.297
 3567THSLK    S 3483  42.111  17.688   8.410
 3568ETHY    C1 3484  42.185  17.969   8.759
 3569ETHY    C1 3485  42.290  18.224   9.217
 3570ETHY    C1 3486  42.412  18.383   9.703
 3571ETHY    C1 3487  42.551  18.452  10.204
 3572ETHY    C1 3488  42.705  18.425  10.708
 3573ETHY    C1 3489  42.874  18.301  11.206
 3574THSLK    S 3490  42.544  17.843   8.080
 3575ETHY    C1 3491  42.907  17.814   8.350
 3576ETHY    C1 3492  43.329  17.870   8.673
 3577ETHY    C1 3493  43.721  18.024   8.989
 3578ETHY    C1 3494  44.075  18.262   9.293
 3579ETHY    C1 3495  44.382  18.583   9.580
 3580ETHY    C1 3496  44.633  18.980   9.844
 3581AUSL   AUS 3497  42.271  17.480   6.923
 3582AUSL   AUS 3498  42.127  17.897   6.992
 3583AUL    AUL 3499  42.353  17.784   6.708
 3584THSLK    S 3500  42.373  17.428   6.687
 3585ETHY    C1 3501  42.586  17.208   6.351
 3586ETHY    C1 3502  42.851  17.031   5.923
 3587ETHY    C1 3503  43.123  16.955   5.479
 3588ETHY    C1 3504  43.397  16.972   5.033
 3589ETHY    C1 3505  43.668  17.085   4.594
 3590ETHY    C1 3506  43.933  17.294   4.173
 3591THSLK    S 3507  42.305  18.008   6.829
 3592ETHY    C1 3508  42.607  18.076   6.497
 3593ETHY    C1 3509  42.926  18.239   6.100
 3594ETHY    C1 3510  43.191  18.486   5.719
 3595ETHY    C1 3511  43.403  18.806   5.362
 3596ETHY    C1 3512  43.556  19.196   5.039
 3597ETHY    C1 3513  43.647  19.648   4.759
 3598AUSL   AUS 3514  42.026  17.329   6.829
 3599AUSL   AUS 3515  42.372  17.216   7.086
 3600AUL    AUL 3516  42.353  17.177   6.708
 3601THSLK    S 3517  42.505  17.024   6.949
 3602ETHY    C1 3518  42.688  16.657   6.752
 3603ETHY    C1 3519  42.960  16.285   6.483
 3604ETHY    C1 3520  43.285  15.996   6.186
 3605ETHY    C1 3521  43.651  15.789   5.874
 3606ETHY    C1 3522  44.055  15.670   5.555
 3607ETHY    C1 3523  44.488  15.645   5.235
 3608THSLK    S 3524  42.111  17.273   6.596
 3609ETHY    C1 3525  42.185  16.992   6.246
 3610ETHY    C1 3526  42.290  16.736   5.788
 3611ETHY    C1 3527  42.412  16.578   5.302
 3612ETHY    C1 3528  42.551  16.509   4.801
 3613ETHY    C1 3529  42.705  16.536   4.297
 3614ETHY    C1 3530  42.874  16.660   3.799
 3615AUSL   AUS 3531  42.026  17.632   6.829
 3616AUSL   AUS 3532  41.698  17.329   6.829
 3617AUL    AUL 3533  41.862  17.480   6.521
 3618THSLK    S 3534  41.606  17.273   6.597
 3619ETHY    C1 3535  41.471  16.995   6.264
 3620ETHY    C1 3536  41.310  16.742   5.822
 3621ETHY    C1 3537  41.158  16.585   5.343
 3622ETHY    C1 3538  41.022  16.516   4.842
 3623ETHY    C1 3539  40.905  16.542   4.328
 3624ETHY    C1 3540  40.812  16.661   3.810
 3625THSLK    S 3541  42.128  17.586   6.583
 3626ETHY    C1 3542  42.274  17.436   6.179
 3627ETHY    C1 3543  42.436  17.345   5.678
 3628ETHY    C1 3544  42.583  17.355   5.173
 3629ETHY    C1 3545  42.716  17.456   4.677
 3630ETHY    C1 3546  42.833  17.651   4.200
 3631ETHY    C1 3547  42.934  17.937   3.754
 3632AUSL   AUS 3548  41.453  17.480   8.083
 3633AUSL   AUS 3549  41.597  17.897   8.013
 3634AUL    AUL 3550  41.371  17.784   8.297
 3635THSLK    S 3551  41.351  17.428   8.319
 3636ETHY    C1 3552  41.139  17.208   8.654
 3637ETHY    C1 3553  40.873  17.031   9.082
 3638ETHY    C1 3554  40.601  16.955   9.526
 3639ETHY    C1 3555  40.327  16.972   9.973
 3640ETHY    C1 3556  40.056  17.085  10.411
 3641ETHY    C1 3557  39.791  17.294  10.832
 3642THSLK    S 3558  41.480  18.021   8.202
 3643ETHY    C1 3559  41.437  18.164   8.632
 3644ETHY    C1 3560  41.326  18.389   9.104
 3645ETHY    C1 3561  41.150  18.666   9.515
 3646ETHY    C1 3562  40.919  18.982   9.863
 3647ETHY    C1 3563  40.633  19.330  10.138
 3648ETHY    C1 3564  40.296  19.703  10.334
 3649AUSL   AUS 3565  41.698  17.329   8.176
 3650AUSL   AUS 3566  41.352  17.216   7.919
 3651AUL    AUL 3567  41.371  17.177   8.297
 3652THSLK    S 3568  41.175  17.053   8.026
 3653ETHY    C1 3569  40.804  16.796   8.082
 3654ETHY    C1 3570  40.382  16.508   8.237
 3655ETHY    C1 3571  39.992  16.253   8.482
 3656ETHY    C1 3572  39.640  16.036   8.803
 3657ETHY    C1 3573  39.334  15.865   9.198
 3658ETHY    C1 3574  39.077  15.744   9.657
 3659THSLK    S 3575  41.596  17.275   8.406
 3660ETHY    C1 3576  41.450  16.999   8.736
 3661ETHY    C1 3577  41.288  16.747   9.178
 3662ETHY    C1 3578  41.141  16.589   9.658
 3663ETHY    C1 3579  41.008  16.519  10.160
 3664ETHY    C1 3580  40.891  16.545  10.674
 3665ETHY    C1 3581  40.790  16.666  11.190
 3666AUSL   AUS 3582  41.453  17.480   6.923
 3667AUSL   AUS 3583  41.597  17.064   6.992
 3668AUL    AUL 3584  41.371  17.177   6.708
 3669THSLK    S 3585  41.360  17.428   6.681
 3670ETHY    C1 3586  41.156  17.208   6.341
 3671ETHY    C1 3587  40.892  17.031   5.911
 3672ETHY    C1 3588  40.616  16.955   5.470
 3673ETHY    C1 3589  40.339  16.972   5.025
 3674ETHY    C1 3590  40.069  17.085   4.586
 3675ETHY    C1 3591  39.810  17.294   4.161
 3676THSLK    S 3592  41.426  16.891   6.878
 3677ETHY    C1 3593  41.131  16.565   6.760
 3678ETHY    C1 3594  40.813  16.198   6.538
 3679ETHY    C1 3595  40.545  15.863   6.233
 3680ETHY    C1 3596  40.331  15.563   5.861
 3681ETHY    C1 3597  40.179  15.305   5.426
 3682ETHY    C1 3598  40.093  15.093   4.937
 3683AUSL   AUS 3599  41.698  17.632   6.829
 3684AUSL   AUS 3600  41.352  17.745   7.086
 3685AUL    AUL 3601  41.371  17.784   6.708
 3686THSLK    S 3602  41.225  17.872   6.895
 3687ETHY    C1 3603  41.048  17.953   6.484
 3688ETHY    C1 3604  40.777  18.093   6.046
 3689ETHY    C1 3605  40.450  18.281   5.679
 3690ETHY    C1 3606  40.081  18.510   5.385
 3691ETHY    C1 3607  39.679  18.777   5.173
 3692ETHY    C1 3608  39.250  19.079   5.047
 3693THSLK    S 3609  41.623  17.588   6.576
 3694ETHY    C1 3610  41.559  17.441   6.150
 3695ETHY    C1 3611  41.456  17.352   5.634
 3696ETHY    C1 3612  41.329  17.363   5.123
 3697ETHY    C1 3613  41.187  17.464   4.629
 3698ETHY    C1 3614  41.034  17.657   4.162
 3699ETHY    C1 3615  40.873  17.940   3.732
 3700AUSL   AUS 3616  42.442  17.889   7.503
 3701AUSL   AUS 3617  42.372  17.745   7.086
 3702AUL    AUL 3618  42.656  17.971   7.199
 3703THSLK    S 3619  42.550  17.844   6.934
 3704ETHY    C1 3620  42.920  17.817   6.671
 3705ETHY    C1 3621  43.342  17.873   6.349
 3706ETHY    C1 3622  43.732  18.027   6.030
 3707ETHY    C1 3623  44.084  18.264   5.724
 3708ETHY    C1 3624  44.391  18.585   5.438
 3709ETHY    C1 3625  44.647  18.984   5.179
 3710THSLK    S 3626  42.708  17.942   7.508
 3711ETHY    C1 3627  43.162  17.964   7.513
 3712ETHY    C1 3628  43.684  18.078   7.514
 3713ETHY    C1 3629  44.167  18.287   7.511
 3714ETHY    C1 3630  44.603  18.577   7.510
 3715ETHY    C1 3631  44.982  18.944   7.510
 3716ETHY    C1 3632  45.296  19.384   7.514
 3717AUSL   AUS 3633  42.536  17.644   7.351
 3718AUSL   AUS 3634  42.536  17.317   7.654
 3719AUL    AUL 3635  42.844  17.480   7.503
 3720THSLK    S 3636  42.792  17.683   7.350
 3721ETHY    C1 3637  43.228  17.575   7.286
 3722ETHY    C1 3638  43.754  17.537   7.201
 3723ETHY    C1 3639  44.269  17.601   7.113
 3724ETHY    C1 3640  44.763  17.755   7.026
 3725ETHY    C1 3641  45.223  18.000   6.945
 3726ETHY    C1 3642  45.642  18.332   6.873
 3727THSLK    S 3643  42.763  17.177   7.663
 3728ETHY    C1 3644  43.082  16.861   7.728
 3729ETHY    C1 3645  43.515  16.557   7.807
 3730ETHY    C1 3646  43.990  16.347   7.887
 3731ETHY    C1 3647  44.493  16.226   7.971
 3732ETHY    C1 3648  45.013  16.200   8.058
 3733ETHY    C1 3649  45.541  16.270   8.147
 3734AUSL   AUS 3650  42.536  17.644   7.654
 3735AUSL   AUS 3651  42.278  17.991   7.767
 3736AUL    AUL 3652  42.656  17.971   7.806
 3737THSLK    S 3653  42.461  18.105   7.926
 3738ETHY    C1 3654  42.844  18.223   8.140
 3739ETHY    C1 3655  43.262  18.446   8.388
 3740ETHY    C1 3656  43.621  18.751   8.622
 3741ETHY    C1 3657  43.918  19.124   8.840
 3742ETHY    C1 3658  44.143  19.558   9.038
 3743ETHY    C1 3659  44.290  20.046   9.215
 3744THSLK    S 3660  42.790  17.683   7.665
 3745ETHY    C1 3661  43.225  17.575   7.740
 3746ETHY    C1 3662  43.751  17.537   7.826
 3747ETHY    C1 3663  44.266  17.600   7.910
 3748ETHY    C1 3664  44.760  17.754   7.993
 3749ETHY    C1 3665  45.221  17.999   8.075
 3750ETHY    C1 3666  45.638  18.331   8.155
 3751AUSL   AUS 3667  41.282  17.889   7.503
 3752AUSL   AUS 3668  41.352  17.745   7.919
 3753AUL    AUL 3669  41.068  17.971   7.806
 3754THSLK    S 3670  41.219  17.864   8.109
 3755ETHY    C1 3671  41.036  17.936   8.519
 3756ETHY    C1 3672  40.764  18.076   8.957
 3757ETHY    C1 3673  40.439  18.267   9.324
 3758ETHY    C1 3674  40.073  18.498   9.619
 3759ETHY    C1 3675  39.670  18.765   9.831
 3760ETHY    C1 3676  39.236  19.061   9.956
 3761THSLK    S 3677  41.071  18.030   7.508
 3762ETHY    C1 3678  40.849  18.427   7.513
 3763ETHY    C1 3679  40.513  18.842   7.514
 3764ETHY    C1 3680  40.110  19.181   7.511
 3765ETHY    C1 3681  39.656  19.442   7.510
 3766ETHY    C1 3682  39.157  19.616   7.510
 3767ETHY    C1 3683  38.624  19.700   7.514
 3768AUSL   AUS 3684  41.188  17.644   7.351
 3769AUSL   AUS 3685  41.446  17.991   7.238
 3770AUL    AUL 3686  41.068  17.971   7.199
 3771THSLK    S 3687  40.961  17.759   7.303
 3772ETHY    C1 3688  40.642  17.959   7.049
 3773ETHY    C1 3689  40.209  18.165   6.813
 3774ETHY    C1 3690  39.734  18.331   6.661
 3775ETHY    C1 3691  39.231  18.460   6.590
 3776ETHY    C1 3692  38.711  18.550   6.605
 3777ETHY    C1 3693  38.183  18.598   6.708
 3778THSLK    S 3694  41.334  18.154   7.060
 3779ETHY    C1 3695  41.255  18.464   6.737
 3780ETHY    C1 3696  41.080  18.838   6.397
 3781ETHY    C1 3697  40.826  19.206   6.120
 3782ETHY    C1 3698  40.506  19.563   5.909
 3783ETHY    C1 3699  40.125  19.901   5.770
 3784ETHY    C1 3700  39.690  20.215   5.709
 3785AUSL   AUS 3701  41.188  17.644   7.654
 3786AUSL   AUS 3702  41.188  17.317   7.351
 3787AUL    AUL 3703  40.880  17.480   7.503
 3788THSLK    S 3704  40.934  17.244   7.394
 3789ETHY    C1 3705  40.499  17.226   7.524
 3790ETHY    C1 3706  39.973  17.166   7.597
 3791ETHY    C1 3707  39.458  17.062   7.578
 3792ETHY    C1 3708  38.964  16.919   7.477
 3793ETHY    C1 3709  38.504  16.736   7.294
 3794ETHY    C1 3710  38.086  16.516   7.034
 3795THSLK    S 3711  40.960  17.750   7.707
 3796ETHY    C1 3712  40.639  17.941   7.966
 3797ETHY    C1 3713  40.206  18.145   8.202
 3798ETHY    C1 3714  39.731  18.316   8.352
 3799ETHY    C1 3715  39.229  18.448   8.422
 3800ETHY    C1 3716  38.709  18.536   8.407
 3801ETHY    C1 3717  38.180  18.577   8.308
 3802AUSL   AUS 3718  42.442  17.071   7.503
 3803AUSL   AUS 3719  42.372  17.216   7.919
 3804AUL    AUL 3720  42.656  16.990   7.806
 3805THSLK    S 3721  42.653  16.930   7.508
 3806ETHY    C1 3722  42.875  16.534   7.513
 3807ETHY    C1 3723  43.211  16.119   7.514
 3808ETHY    C1 3724  43.614  15.780   7.511
 3809ETHY    C1 3725  44.068  15.519   7.510
 3810ETHY    C1 3726  44.567  15.345   7.510
 3811ETHY    C1 3727  45.100  15.261   7.514
 3812THSLK    S 3728  42.499  17.025   8.064
 3813ETHY    C1 3729  42.676  16.660   8.270
 3814ETHY    C1 3730  42.947  16.288   8.540
 3815ETHY    C1 3731  43.274  15.999   8.834
 3816ETHY    C1 3732  43.643  15.791   9.142
 3817ETHY    C1 3733  44.045  15.673   9.462
 3818ETHY    C1 3734  44.474  15.648   9.789
 3819AUSL   AUS 3735  42.536  17.317   7.351
 3820AUSL   AUS 3736  42.278  16.970   7.238
 3821AUL    AUL 3737  42.656  16.990   7.199
 3822THSLK    S 3738  42.764  17.177   7.353
 3823ETHY    C1 3739  43.085  16.860   7.298
 3824ETHY    C1 3740  43.518  16.557   7.221
 3825ETHY    C1 3741  43.993  16.347   7.136
 3826ETHY    C1 3742  44.495  16.226   7.048
 3827ETHY    C1 3743  45.015  16.199   6.963
 3828ETHY    C1 3744  45.544  16.270   6.881
 3829THSLK    S 3745  42.394  16.781   7.108
 3830ETHY    C1 3746  42.478  16.352   6.984
 3831ETHY    C1 3747  42.653  15.880   6.803
 3832ETHY    C1 3748  42.906  15.469   6.593
 3833ETHY    C1 3749  43.224  15.121   6.366
 3834ETHY    C1 3750  43.606  14.846   6.126
 3835ETHY    C1 3751  44.044  14.649   5.880
 3836AUSL   AUS 3752  41.282  17.071   7.503
 3837AUSL   AUS 3753  41.352  17.216   7.086
 3838AUL    AUL 3754  41.068  16.990   7.199
 3839THSLK    S 3755  41.181  17.045   6.978
 3840ETHY    C1 3756  40.817  16.780   6.921
 3841ETHY    C1 3757  40.395  16.490   6.766
 3842ETHY    C1 3758  40.003  16.238   6.521
 3843ETHY    C1 3759  39.649  16.025   6.200
 3844ETHY    C1 3760  39.342  15.852   5.806
 3845ETHY    C1 3761  39.091  15.725   5.346
 3846THSLK    S 3762  41.016  17.019   7.508
 3847ETHY    C1 3763  40.562  16.997   7.513
 3848ETHY    C1 3764  40.040  16.883   7.514
 3849ETHY    C1 3765  39.558  16.674   7.511
 3850ETHY    C1 3766  39.121  16.384   7.510
 3851ETHY    C1 3767  38.742  16.017   7.510
 3852ETHY    C1 3768  38.429  15.577   7.514
 3853AUSL   AUS 3769  41.188  17.317   7.654
 3854AUSL   AUS 3770  41.446  16.970   7.767
 3855AUL    AUL 3771  41.068  16.990   7.806
 3856THSLK    S 3772  41.258  16.830   7.878
 3857ETHY    C1 3773  40.871  16.593   7.893
 3858ETHY    C1 3774  40.453  16.273   7.982
 3859ETHY    C1 3775  40.095  15.924   8.149
 3860ETHY    C1 3776  39.800  15.560   8.382
 3861ETHY    C1 3777  39.575  15.189   8.683
 3862ETHY    C1 3778  39.424  14.818   9.045
 3863THSLK    S 3779  40.932  17.254   7.616
 3864ETHY    C1 3780  40.496  17.244   7.491
 3865ETHY    C1 3781  39.970  17.185   7.419
 3866ETHY    C1 3782  39.455  17.078   7.436
 3867ETHY    C1 3783  38.961  16.932   7.535
 3868ETHY    C1 3784  38.501  16.750   7.718
 3869ETHY    C1 3785  38.082  16.537   7.983
 3870AUSL   AUS 3786  41.862  18.060   7.912
 3871AUSL   AUS 3787  41.446  17.991   7.767
 3872AUL    AUL 3788  41.559  18.275   7.993
 3873THSLK    S 3789  41.330  18.147   7.952
 3874ETHY    C1 3790  41.246  18.449   8.280
 3875ETHY    C1 3791  41.071  18.822   8.621
 3876ETHY    C1 3792  40.818  19.193   8.895
 3877ETHY    C1 3793  40.500  19.552   9.105
 3878ETHY    C1 3794  40.118  19.890   9.244
 3879ETHY    C1 3795  39.680  20.198   9.309
 3880THSLK    S 3796  41.904  18.282   8.035
 3881ETHY    C1 3797  42.088  18.557   8.347
 3882ETHY    C1 3798  42.238  18.937   8.691
 3883ETHY    C1 3799  42.304  19.360   8.998
 3884ETHY    C1 3800  42.291  19.811   9.264
 3885ETHY    C1 3801  42.194  20.280   9.485
 3886ETHY    C1 3802  42.014  20.759   9.656
 3887AUSL   AUS 3803  41.710  18.154   7.666
 3888AUSL   AUS 3804  42.014  18.154   7.339
 3889AUL    AUL 3805  41.862  18.462   7.503
 3890THSLK    S 3806  41.753  18.398   7.776
 3891ETHY    C1 3807  41.897  18.792   7.951
 3892ETHY    C1 3808  41.984  19.286   8.137
 3893ETHY    C1 3809  41.972  19.787   8.294
 3894ETHY    C1 3810  41.871  20.285   8.425
 3895ETHY    C1 3811  41.679  20.766   8.527
 3896ETHY    C1 3812  41.399  21.221   8.600
 3897THSLK    S 3813  42.069  18.385   7.243
 3898ETHY    C1 3814  42.345  18.715   7.096
 3899ETHY    C1 3815  42.595  19.156   6.927
 3900ETHY    C1 3816  42.751  19.633   6.771
 3901ETHY    C1 3817  42.820  20.135   6.635
 3902ETHY    C1 3818  42.796  20.651   6.525
 3903ETHY    C1 3819  42.679  21.171   6.443
 3904AUSL   AUS 3820  42.014  18.154   7.666
 3905AUSL   AUS 3821  42.127  17.897   8.013
 3906AUL    AUL 3822  42.165  18.275   7.993
 3907THSLK    S 3823  42.298  18.005   8.183
 3908ETHY    C1 3824  42.593  18.070   8.523
 3909ETHY    C1 3825  42.911  18.232   8.920
 3910ETHY    C1 3826  43.179  18.481   9.298
 3911ETHY    C1 3827  43.393  18.803   9.653
 3912ETHY    C1 3828  43.545  19.191   9.976
 3913ETHY    C1 3829  43.631  19.641  10.262
 3914THSLK    S 3830  42.067  18.383   7.772
 3915ETHY    C1 3831  42.339  18.711   7.929
 3916ETHY    C1 3832  42.589  19.151   8.100
 3917ETHY    C1 3833  42.747  19.630   8.251
 3918ETHY    C1 3834  42.816  20.132   8.383
 3919ETHY    C1 3835  42.792  20.647   8.494
 3920ETHY    C1 3836  42.673  21.166   8.585
 3921AUSL   AUS 3837  41.862  16.900   7.912
 3922AUSL   AUS 3838  42.278  16.970   7.767
 3923AUL    AUL 3839  42.165  16.686   7.993
 3924THSLK    S 3840  41.815  16.650   7.989
 3925ETHY    C1 3841  41.625  16.254   8.103
 3926ETHY    C1 3842  41.474  15.776   8.289
 3927ETHY    C1 3843  41.411  15.311   8.528
 3928ETHY    C1 3844  41.426  14.869   8.809
 3929ETHY    C1 3845  41.522  14.462   9.132
 3930ETHY    C1 3846  41.697  14.099   9.489
 3931THSLK    S 3847  42.390  16.783   7.907
 3932ETHY    C1 3848  42.469  16.355   8.040
 3933ETHY    C1 3849  42.644  15.885   8.222
 3934ETHY    C1 3850  42.898  15.473   8.428
 3935ETHY    C1 3851  43.218  15.124   8.652
 3936ETHY    C1 3852  43.599  14.849   8.893
 3937ETHY    C1 3853  44.034  14.653   9.147
 3938AUSL   AUS 3854  41.710  16.807   7.666
 3939AUSL   AUS 3855  41.597  17.064   8.013
 3940AUL    AUL 3856  41.559  16.686   7.993
 3941THSLK    S 3857  41.655  16.571   7.745
 3942ETHY    C1 3858  41.380  16.212   7.788
 3943ETHY    C1 3859  41.129  15.747   7.869
 3944ETHY    C1 3860  40.973  15.257   7.981
 3945ETHY    C1 3861  40.904  14.758   8.122
 3946ETHY    C1 3862  40.928  14.258   8.292
 3947ETHY    C1 3863  41.045  13.770   8.489
 3948THSLK    S 3864  41.419  16.898   8.129
 3949ETHY    C1 3865  41.117  16.580   8.248
 3950ETHY    C1 3866  40.798  16.213   8.471
 3951ETHY    C1 3867  40.533  15.876   8.776
 3952ETHY    C1 3868  40.321  15.574   9.147
 3953ETHY    C1 3869  40.168  15.316   9.582
 3954ETHY    C1 3870  40.077  15.109  10.072
 3955AUSL   AUS 3871  42.014  16.807   7.666
 3956AUSL   AUS 3872  41.710  16.807   7.339
 3957AUL    AUL 3873  41.862  16.499   7.503
 3958THSLK    S 3874  41.657  16.568   7.270
 3959ETHY    C1 3875  41.385  16.206   7.236
 3960ETHY    C1 3876  41.135  15.741   7.157
 3961ETHY    C1 3877  40.978  15.252   7.041
 3962ETHY    C1 3878  40.908  14.753   6.896
 3963ETHY    C1 3879  40.932  14.254   6.727
 3964ETHY    C1 3880  41.051  13.763   6.538
 3965THSLK    S 3881  41.968  16.555   7.749
 3966ETHY    C1 3882  41.821  16.129   7.811
 3967ETHY    C1 3883  41.735  15.611   7.906
 3968ETHY    C1 3884  41.747  15.098   8.025
 3969ETHY    C1 3885  41.849  14.603   8.165
 3970ETHY    C1 3886  42.041  14.138   8.325
 3971ETHY    C1 3887  42.319  13.712   8.504
 3972AUSL   AUS 3888  41.862  18.060   7.094
 3973AUSL   AUS 3889  42.278  17.991   7.238
 3974AUL    AUL 3890  42.165  18.275   7.012
 3975THSLK    S 3891  41.909  18.287   6.977
 3976ETHY    C1 3892  42.099  18.566   6.674
 3977ETHY    C1 3893  42.250  18.947   6.330
 3978ETHY    C1 3894  42.314  19.367   6.021
 3979ETHY    C1 3895  42.298  19.817   5.752
 3980ETHY    C1 3896  42.202  20.287   5.532
 3981ETHY    C1 3897  42.027  20.770   5.366
 3982THSLK    S 3898  42.466  18.107   7.089
 3983ETHY    C1 3899  42.853  18.227   6.883
 3984ETHY    C1 3900  43.271  18.450   6.637
 3985ETHY    C1 3901  43.629  18.754   6.400
 3986ETHY    C1 3902  43.924  19.126   6.178
 3987ETHY    C1 3903  44.149  19.561   5.981
 3988ETHY    C1 3904  44.300  20.050   5.811
 3989AUSL   AUS 3905  41.710  18.154   7.339
 3990AUSL   AUS 3906  41.597  17.897   6.992
 3991AUL    AUL 3907  41.559  18.275   7.012
 3992THSLK    S 3908  41.756  18.401   7.239
 3993ETHY    C1 3909  41.903  18.798   7.074
 3994ETHY    C1 3910  41.989  19.292   6.889
 3995ETHY    C1 3911  41.977  19.793   6.727
 3996ETHY    C1 3912  41.875  20.289   6.593
 3997ETHY    C1 3913  41.683  20.770   6.492
 3998ETHY    C1 3914  41.405  21.228   6.427
 3999THSLK    S 3915  41.487  18.029   6.805
 4000ETHY    C1 3916  41.451  18.178   6.377
 4001ETHY    C1 3917  41.341  18.404   5.906
 4002ETHY    C1 3918  41.163  18.679   5.494
 4003ETHY    C1 3919  40.929  18.992   5.145
 4004ETHY    C1 3920  40.643  19.341   4.870
 4005ETHY    C1 3921  40.312  19.719   4.675
 4006AUSL   AUS 3922  41.862  16.900   7.094
 4007AUSL   AUS 3923  41.446  16.970   7.238
 4008AUL    AUL 3924  41.559  16.686   7.012
 4009THSLK    S 3925  41.263  16.822   7.134
 4010ETHY    C1 3926  40.880  16.578   7.124
 4011ETHY    C1 3927  40.462  16.257   7.035
 4012ETHY    C1 3928  40.103  15.911   6.866
 4013ETHY    C1 3929  39.806  15.550   6.631
 4014ETHY    C1 3930  39.581  15.178   6.331
 4015ETHY    C1 3931  39.434  14.801   5.974
 4016THSLK    S 3932  41.820  16.645   7.024
 4017ETHY    C1 3933  41.636  16.244   6.917
 4018ETHY    C1 3934  41.486  15.766   6.732
 4019ETHY    C1 3935  41.420  15.303   6.491
 4020ETHY    C1 3936  41.433  14.863   6.206
 4021ETHY    C1 3937  41.530  14.456   5.885
 4022ETHY    C1 3938  41.710  14.088   5.533
 4023AUSL   AUS 3939  42.014  16.807   7.339
 4024AUSL   AUS 3940  42.127  17.064   6.992
 4025AUL    AUL 3941  42.165  16.686   7.012
 4026THSLK    S 3942  41.971  16.553   7.266
 4027ETHY    C1 3943  41.827  16.125   7.213
 4028ETHY    C1 3944  41.740  15.606   7.120
 4029ETHY    C1 3945  41.752  15.094   6.997
 4030ETHY    C1 3946  41.853  14.600   6.854
 4031ETHY    C1 3947  42.045  14.135   6.695
 4032ETHY    C1 3948  42.325  13.707   6.523
 4033THSLK    S 3949  42.244  16.874   6.859
 4034ETHY    C1 3950  42.288  16.472   6.651
 4035ETHY    C1 3951  42.398  16.041   6.355
 4036ETHY    C1 3952  42.574  15.678   6.017
 4037ETHY    C1 3953  42.805  15.384   5.651
 4038ETHY    C1 3954  43.091  15.167   5.264
 4039ETHY    C1 3955  43.428  15.031   4.865
 4040AUC    AUC 3956  -4.334  25.889   7.503
 4041AUC    AUC 3957  -4.089  25.889   7.351
 4042AUC    AUC 3958  -4.089  25.889   7.654
 4043AUC    AUC 3959  -4.579  25.889   7.351
 4044AUC    AUC 3960  -4.579  25.889   7.654
 4045AUC    AUC 3961  -4.486  26.135   7.503
 4046AUC    AUC 3962  -4.182  26.135   7.503
 4047AUC    AUC 3963  -4.486  25.644   7.503
 4048AUC    AUC 3964  -4.182  25.644   7.503
 4049AUC    AUC 3965  -4.334  25.738   7.748
 4050AUC    AUC 3966  -4.334  26.041   7.748
 4051AUC    AUC 3967  -4.334  25.738   7.257
 4052AUC    AUC 3968  -4.334  26.041   7.257
 4053AUC    AUC 3969  -3.843  25.889   7.199
 4054AUC    AUC 3970  -3.843  25.889   7.503
 4055AUC    AUC 3971  -3.843  25.889   7.806
 4056AUC    AUC 3972  -4.825  25.889   7.199
 4057AUC    AUC 3973  -4.825  25.889   7.503
 4058AUC    AUC 3974  -4.825  25.889   7.806
 4059AUC    AUC 3975  -4.637  26.380   7.503
 4060AUC    AUC 3976  -4.334  26.380   7.503
 4061AUC    AUC 3977  -4.031  26.380   7.503
 4062AUC    AUC 3978  -4.637  25.399   7.503
 4063AUC    AUC 3979  -4.334  25.399   7.503
 4064AUC    AUC 3980  -4.031  25.399   7.503
 4065AUC    AUC 3981  -4.334  25.586   7.993
 4066AUC    AUC 3982  -4.334  25.889   7.993
 4067AUC    AUC 3983  -4.334  26.193   7.993
 4068AUC    AUC 3984  -4.334  25.586   7.012
 4069AUC    AUC 3985  -4.334  25.889   7.012
 4070AUC    AUC 3986  -4.334  26.193   7.012
 4071AUC    AUC 3987  -4.089  25.738   7.900
 4072AUC    AUC 3988  -4.089  26.041   7.900
 4073AUC    AUC 3989  -4.089  25.738   7.106
 4074AUC    AUC 3990  -4.089  26.041   7.106
 4075AUC    AUC 3991  -4.579  25.738   7.900
 4076AUC    AUC 3992  -4.579  26.041   7.900
 4077AUC    AUC 3993  -4.579  25.738   7.106
 4078AUC    AUC 3994  -4.579  26.041   7.106
 4079AUC    AUC 3995  -3.937  26.135   7.351
 4080AUC    AUC 3996  -3.937  26.135   7.654
 4081AUC    AUC 3997  -4.731  26.135   7.351
 4082AUC    AUC 3998  -4.731  26.135   7.654
 4083AUC    AUC 3999  -3.937  25.644   7.351
 4084AUC    AUC 4000  -3.937  25.644   7.654
 4085AUC    AUC 4001  -4.731  25.644   7.351
 4086AUC    AUC 4002  -4.731  25.644   7.654
 4087AUC    AUC 4003  -4.486  26.287   7.748
 4088AUC    AUC 4004  -4.182  26.287   7.748
 4089AUC    AUC 4005  -4.486  25.492   7.748
 4090AUC    AUC 4006  -4.182  25.492   7.748
 4091AUC    AUC 4007  -4.486  26.287   7.257
 4092AUC    AUC 4008  -4.182  26.287   7.257
 4093AUC    AUC 4009  -4.486  25.492   7.257
 4094AUC    AUC 4010  -4.182  25.492   7.257
 4095AUSL   AUS 4011  -3.925  25.889   8.083
 4096AUSL   AUS 4012  -4.069  25.473   8.013
 4097AUL    AUL 4013  -3.843  25.586   8.297
 4098THSLK    S 4014  -3.959  25.286   8.153
 4099ETHY    C1 4015  -3.923  24.887   8.368
 4100ETHY    C1 4016  -3.813  24.457   8.665
 4101ETHY    C1 4017  -3.635  24.093   9.000
 4102ETHY    C1 4018  -3.401  23.797   9.364
 4103ETHY    C1 4019  -3.115  23.580   9.752
 4104ETHY    C1 4020  -2.784  23.447  10.156
 4105THSLK    S 4021  -3.832  25.837   8.324
 4106ETHY    C1 4022  -3.628  25.617   8.665
 4107ETHY    C1 4023  -3.364  25.440   9.094
 4108ETHY    C1 4024  -3.088  25.364   9.535
 4109ETHY    C1 4025  -2.811  25.381   9.980
 4110ETHY    C1 4026  -2.541  25.494  10.419
 4111ETHY    C1 4027  -2.282  25.703  10.845
 4112AUSL   AUS 4028  -4.170  25.738   8.176
 4113AUSL   AUS 4029  -4.498  26.041   8.176
 4114AUL    AUL 4030  -4.334  25.889   8.484
 4115THSLK    S 4031  -4.095  25.683   8.413
 4116ETHY    C1 4032  -4.031  25.403   8.765
 4117ETHY    C1 4033  -3.928  25.148   9.223
 4118ETHY    C1 4034  -3.801  24.989   9.708
 4119ETHY    C1 4035  -3.659  24.920  10.208
 4120ETHY    C1 4036  -3.505  24.948  10.713
 4121ETHY    C1 4037  -3.345  25.072  11.212
 4122THSLK    S 4038  -4.583  25.995   8.428
 4123ETHY    C1 4039  -4.657  25.845   8.850
 4124ETHY    C1 4040  -4.762  25.757   9.367
 4125ETHY    C1 4041  -4.884  25.769   9.878
 4126ETHY    C1 4042  -5.022  25.870  10.373
 4127ETHY    C1 4043  -5.177  26.063  10.840
 4128ETHY    C1 4044  -5.346  26.344  11.268
 4129AUSL   AUS 4045  -4.170  26.041   8.176
 4130AUSL   AUS 4046  -3.824  26.154   7.919
 4131AUL    AUL 4047  -3.843  26.193   8.297
 4132THSLK    S 4048  -4.085  26.097   8.410
 4133ETHY    C1 4049  -4.011  26.378   8.759
 4134ETHY    C1 4050  -3.906  26.633   9.217
 4135ETHY    C1 4051  -3.784  26.792   9.703
 4136ETHY    C1 4052  -3.645  26.861  10.204
 4137ETHY    C1 4053  -3.491  26.834  10.708
 4138ETHY    C1 4054  -3.322  26.710  11.206
 4139THSLK    S 4055  -3.652  26.252   8.080
 4140ETHY    C1 4056  -3.289  26.223   8.350
 4141ETHY    C1 4057  -2.867  26.279   8.673
 4142ETHY    C1 4058  -2.475  26.433   8.989
 4143ETHY    C1 4059  -2.121  26.671   9.293
 4144ETHY    C1 4060  -1.814  26.992   9.580
 4145ETHY    C1 4061  -1.563  27.389   9.844
 4146AUSL   AUS 4062  -3.925  25.889   6.923
 4147AUSL   AUS 4063  -4.069  26.306   6.992
 4148AUL    AUL 4064  -3.843  26.193   6.708
 4149THSLK    S 4065  -3.823  25.837   6.687
 4150ETHY    C1 4066  -3.610  25.617   6.351
 4151ETHY    C1 4067  -3.345  25.440   5.923
 4152ETHY    C1 4068  -3.073  25.364   5.479
 4153ETHY    C1 4069  -2.799  25.381   5.033
 4154ETHY    C1 4070  -2.528  25.494   4.594
 4155ETHY    C1 4071  -2.263  25.703   4.173
 4156THSLK    S 4072  -3.891  26.417   6.829
 4157ETHY    C1 4073  -3.589  26.485   6.497
 4158ETHY    C1 4074  -3.270  26.648   6.100
 4159ETHY    C1 4075  -3.005  26.895   5.719
 4160ETHY    C1 4076  -2.793  27.215   5.362
 4161ETHY    C1 4077  -2.640  27.605   5.039
 4162ETHY    C1 4078  -2.549  28.057   4.759
 4163AUSL   AUS 4079  -4.170  25.738   6.829
 4164AUSL   AUS 4080  -3.824  25.625   7.086
 4165AUL    AUL 4081  -3.843  25.586   6.708
 4166THSLK    S 4082  -3.691  25.433   6.949
 4167ETHY    C1 4083  -3.508  25.066   6.752
 4168ETHY    C1 4084  -3.236  24.694   6.483
 4169ETHY    C1 4085  -2.911  24.405   6.186
 4170ETHY    C1 4086  -2.545  24.198   5.874
 4171ETHY    C1 4087  -2.141  24.079   5.555
 4172ETHY    C1 4088  -1.708  24.054   5.235
 4173THSLK    S 4089  -4.085  25.682   6.596
 4174ETHY    C1 4090  -4.011  25.401   6.246
 4175ETHY    C1 4091  -3.906  25.145   5.788
 4176ETHY    C1 4092  -3.784  24.987   5.302
 4177ETHY    C1 4093  -3.645  24.918   4.801
 4178ETHY    C1 4094  -3.491  24.945   4.297
 4179ETHY    C1 4095  -3.322  25.069   3.799
 4180AUSL   AUS 4096  -4.170  26.041   6.829
 4181AUSL   AUS 4097  -4.498  25.738   6.829
 4182AUL    AUL 4098  -4.334  25.889   6.521
 4183THSLK    S 4099  -4.590  25.682   6.597
 4184ETHY    C1 4100  -4.725  25.404   6.264
 4185ETHY    C1 4101  -4.886  25.151   5.822
 4186ETHY    C1 4102  -5.038  24.994   5.343
 4187ETHY    C1 4103  -5.174  24.925   4.842
 4188ETHY    C1 4104  -5.291  24.951   4.328
 4189ETHY    C1 4105  -5.384  25.070   3.810
 4190THSLK    S 4106  -4.068  25.995   6.583
 4191ETHY    C1 4107  -3.922  25.845   6.179
 4192ETHY    C1 4108  -3.760  25.754   5.678
 4193ETHY    C1 4109  -3.613  25.764   5.173
 4194ETHY    C1 4110  -3.480  25.865   4.677
 4195ETHY    C1 4111  -3.363  26.060   4.200
 4196ETHY    C1 4112  -3.262  26.346   3.754
 4197AUSL   AUS 4113  -4.743  25.889   8.083
 4198AUSL   AUS 4114  -4.599  26.306   8.013
 4199AUL    AUL 4115  -4.825  26.193   8.297
 4200THSLK    S 4116  -4.845  25.837   8.319
 4201ETHY    C1 4117  -5.057  25.617   8.654
 4202ETHY    C1 4118  -5.323  25.440   9.082
 4203ETHY    C1 4119  -5.595  25.364   9.526
 4204ETHY    C1 4120  -5.869  25.381   9.973
 4205ETHY    C1 4121  -6.140  25.494  10.411
 4206ETHY    C1 4122  -6.405  25.703  10.832
 4207THSLK    S 4123  -4.716  26.430   8.202
 4208ETHY    C1 4124  -4.759  26.573   8.632
 4209ETHY    C1 4125  -4.870  26.798   9.104
 4210ETHY    C1 4126  -5.046  27.075   9.515
 4211ETHY    C1 4127  -5.277  27.391   9.863
 4212ETHY    C1 4128  -5.563  27.739  10.138
 4213ETHY    C1 4129  -5.900  28.112  10.334
 4214AUSL   AUS 4130  -4.498  25.738   8.176
 4215AUSL   AUS 4131  -4.844  25.625   7.919
 4216AUL    AUL 4132  -4.825  25.586   8.297
 4217THSLK    S 4133  -5.021  25.462   8.026
 4218ETHY    C1 4134  -5.392  25.205   8.082
 4219ETHY    C1 4135  -5.814  24.917   8.237
 4220ETHY    C1 4136  -6.204  24.662   8.482
 4221ETHY    C1 4137  -6.556  24.445   8.803
 4222ETHY    C1 4138  -6.862  24.274   9.198
 4223ETHY    C1 4139  -7.119  24.153   9.657
 4224THSLK    S 4140  -4.600  25.684   8.406
 4225ETHY    C1 4141  -4.746  25.408   8.736
 4226ETHY    C1 4142  -4.908  25.156   9.178
 4227ETHY    C1 4143  -5.055  24.998   9.658
 4228ETHY    C1 4144  -5.188  24.928  10.160
 4229ETHY    C1 4145  -5.305  24.954  10.674
 4230ETHY    C1 4146  -5.406  25.075  11.190
 4231AUSL   AUS 4147  -4.743  25.889   6.923
 4232AUSL   AUS 4148  -4.599  25.473   6.992
 4233AUL    AUL 4149  -4.825  25.586   6.708
 4234THSLK    S 4150  -4.836  25.837   6.681
 4235ETHY    C1 4151  -5.040  25.617   6.341
 4236ETHY    C1 4152  -5.304  25.440   5.911
 4237ETHY    C1 4153  -5.580  25.364   5.470
 4238ETHY    C1 4154  -5.857  25.381   5.025
 4239ETHY    C1 4155  -6.127  25.494   4.586
 4240ETHY    C1 4156  -6.386  25.703   4.161
 4241THSLK    S 4157  -4.770  25.300   6.878
 4242ETHY    C1 4158  -5.065  24.974   6.760
 4243ETHY    C1 4159  -5.383  24.607   6.538
 4244ETHY    C1 4160  -5.651  24.272   6.233
 4245ETHY    C1 4161  -5.865  23.972   5.861
 4246ETHY    C1 4162  -6.017  23.714   5.426
 4247ETHY    C1 4163  -6.103  23.502   4.937
 4248AUSL   AUS 4164  -4.498  26.041   6.829
 4249AUSL   AUS 4165  -4.844  26.154   7.086
 4250AUL    AUL 4166  -4.825  26.193   6.708
 4251THSLK    S 4167  -4.971  26.281   6.895
 4252ETHY    C1 4168  -5.148  26.362   6.484
 4253ETHY    C1 4169  -5.419  26.502   6.046
 4254ETHY    C1 4170  -5.746  26.690   5.679
 4255ETHY    C1 4171  -6.115  26.919   5.385
 4256ETHY    C1 4172  -6.517  27.186   5.173
 4257ETHY    C1 4173  -6.946  27.488   5.047
 4258THSLK    S 4174  -4.573  25.997   6.576
 4259ETHY    C1 4175  -4.637  25.850   6.150
 4260ETHY    C1 4176  -4.740  25.761   5.634
 4261ETHY    C1 4177  -4.867  25.772   5.123
 4262ETHY    C1 4178  -5.009  25.873   4.629
 4263ETHY    C1 4179  -5.162  26.066   4.162
 4264ETHY    C1 4180  -5.323  26.349   3.732
 4265AUSL   AUS 4181  -3.754  26.298   7.503
 4266AUSL   AUS 4182  -3.824  26.154   7.086
 4267AUL    AUL 4183  -3.540  26.380   7.199
 4268THSLK    S 4184  -3.646  26.253   6.934
 4269ETHY    C1 4185  -3.276  26.226   6.671
 4270ETHY    C1 4186  -2.854  26.282   6.349
 4271ETHY    C1 4187  -2.464  26.436   6.030
 4272ETHY    C1 4188  -2.112  26.673   5.724
 4273ETHY    C1 4189  -1.805  26.994   5.438
 4274ETHY    C1 4190  -1.549  27.393   5.179
 4275THSLK    S 4191  -3.488  26.351   7.508
 4276ETHY    C1 4192  -3.034  26.373   7.513
 4277ETHY    C1 4193  -2.512  26.487   7.514
 4278ETHY    C1 4194  -2.029  26.696   7.511
 4279ETHY    C1 4195  -1.593  26.986   7.510
 4280ETHY    C1 4196  -1.214  27.353   7.510
 4281ETHY    C1 4197  -0.900  27.793   7.514
 4282AUSL   AUS 4198  -3.660  26.053   7.351
 4283AUSL   AUS 4199  -3.660  25.726   7.654
 4284AUL    AUL 4200  -3.352  25.889   7.503
 4285THSLK    S 4201  -3.404  26.092   7.350
 4286ETHY    C1 4202  -2.968  25.984   7.286
 4287ETHY    C1 4203  -2.442  25.946   7.201
 4288ETHY    C1 4204  -1.927  26.010   7.113
 4289ETHY    C1 4205  -1.433  26.164   7.026
 4290ETHY    C1 4206  -0.973  26.409   6.945
 4291ETHY    C1 4207  -0.554  26.741   6.873
 4292THSLK    S 4208  -3.433  25.586   7.663
 4293ETHY    C1 4209  -3.114  25.270   7.728
 4294ETHY    C1 4210  -2.681  24.966   7.807
 4295ETHY    C1 4211  -2.206  24.756   7.887
 4296ETHY    C1 4212  -1.703  24.635   7.971
 4297ETHY    C1 4213  -1.183  24.609   8.058
 4298ETHY    C1 4214  -0.655  24.679   8.147
 4299AUSL   AUS 4215  -3.660  26.053   7.654
 4300AUSL   AUS 4216  -3.918  26.400   7.767
 4301AUL    AUL 4217  -3.540  26.380   7.806
 4302THSLK    S 4218  -3.735  26.514   7.926
 4303ETHY    C1 4219  -3.352  26.632   8.140
 4304ETHY    C1 4220  -2.934  26.855   8.388
 4305ETHY    C1 4221  -2.575  27.160   8.622
 4306ETHY    C1 4222  -2.278  27.533   8.840
 4307ETHY    C1 4223  -2.053  27.967   9.038
 4308ETHY    C1 4224  -1.906  28.455   9.215
 4309THSLK    S 4225  -3.406  26.092   7.665
 4310ETHY    C1 4226  -2.971  25.984   7.740
 4311ETHY    C1 4227  -2.445  25.946   7.826
 4312ETHY    C1 4228  -1.930  26.009   7.910
 4313ETHY    C1 4229  -1.436  26.163   7.993
 4314ETHY    C1 4230  -0.975  26.408   8.075
 4315ETHY    C1 4231  -0.558  26.740   8.155
 4316AUSL   AUS 4232  -4.914  26.298   7.503
 4317AUSL   AUS 4233  -4.844  26.154   7.919
 4318AUL    AUL 4234  -5.128  26.380   7.806
 4319THSLK    S 4235  -4.977  26.273   8.109
 4320ETHY    C1 4236  -5.160  26.345   8.519
 4321ETHY    C1 4237  -5.432  26.485   8.957
 4322ETHY    C1 4238  -5.757  26.676   9.324
 4323ETHY    C1 4239  -6.123  26.907   9.619
 4324ETHY    C1 4240  -6.526  27.174   9.831
 4325ETHY    C1 4241  -6.960  27.470   9.956
 4326THSLK    S 4242  -5.125  26.439   7.508
 4327ETHY    C1 4243  -5.347  26.836   7.513
 4328ETHY    C1 4244  -5.683  27.251   7.514
 4329ETHY    C1 4245  -6.086  27.590   7.511
 4330ETHY    C1 4246  -6.540  27.851   7.510
 4331ETHY    C1 4247  -7.039  28.025   7.510
 4332ETHY    C1 4248  -7.572  28.109   7.514
 4333AUSL   AUS 4249  -5.008  26.053   7.351
 4334AUSL   AUS 4250  -4.750  26.400   7.238
 4335AUL    AUL 4251  -5.128  26.380   7.199
 4336THSLK    S 4252  -5.235  26.168   7.303
 4337ETHY    C1 4253  -5.554  26.368   7.049
 4338ETHY    C1 4254  -5.987  26.574   6.813
 4339ETHY    C1 4255  -6.462  26.740   6.661
 4340ETHY    C1 4256  -6.965  26.869   6.590
 4341ETHY    C1 4257  -7.485  26.959   6.605
 4342ETHY    C1 4258  -8.013  27.007   6.708
 4343THSLK    S 4259  -4.862  26.563   7.060
 4344ETHY    C1 4260  -4.941  26.873   6.737
 4345ETHY    C1 4261  -5.116  27.247   6.397
 4346ETHY    C1 4262  -5.370  27.615   6.120
 4347ETHY    C1 4263  -5.690  27.972   5.909
 4348ETHY    C1 4264  -6.071  28.310   5.770
 4349ETHY    C1 4265  -6.506  28.624   5.709
 4350AUSL   AUS 4266  -5.008  26.053   7.654
 4351AUSL   AUS 4267  -5.008  25.726   7.351
 4352AUL    AUL 4268  -5.316  25.889   7.503
 4353THSLK    S 4269  -5.262  25.653   7.394
 4354ETHY    C1 4270  -5.697  25.635   7.524
 4355ETHY    C1 4271  -6.223  25.575   7.597
 4356ETHY    C1 4272  -6.738  25.471   7.578
 4357ETHY    C1 4273  -7.232  25.328   7.477
 4358ETHY    C1 4274  -7.692  25.145   7.294
 4359ETHY    C1 4275  -8.110  24.925   7.034
 4360THSLK    S 4276  -5.236  26.159   7.707
 4361ETHY    C1 4277  -5.557  26.350   7.966
 4362ETHY    C1 4278  -5.990  26.554   8.202
 4363ETHY    C1 4279  -6.465  26.725   8.352
 4364ETHY    C1 4280  -6.967  26.857   8.422
 4365ETHY    C1 4281  -7.487  26.945   8.407
 4366ETHY    C1 4282  -8.016  26.986   8.308
 4367AUSL   AUS 4283  -3.754  25.480   7.503
 4368AUSL   AUS 4284  -3.824  25.625   7.919
 4369AUL    AUL 4285  -3.540  25.399   7.806
 4370THSLK    S 4286  -3.543  25.339   7.508
 4371ETHY    C1 4287  -3.321  24.943   7.513
 4372ETHY    C1 4288  -2.985  24.528   7.514
 4373ETHY    C1 4289  -2.582  24.189   7.511
 4374ETHY    C1 4290  -2.128  23.928   7.510
 4375ETHY    C1 4291  -1.629  23.754   7.510
 4376ETHY    C1 4292  -1.096  23.670   7.514
 4377THSLK    S 4293  -3.697  25.434   8.064
 4378ETHY    C1 4294  -3.520  25.069   8.270
 4379ETHY    C1 4295  -3.249  24.697   8.540
 4380ETHY    C1 4296  -2.922  24.408   8.834
 4381ETHY    C1 4297  -2.553  24.200   9.142
 4382ETHY    C1 4298  -2.151  24.082   9.462
 4383ETHY    C1 4299  -1.722  24.057   9.789
 4384AUSL   AUS 4300  -3.660  25.726   7.351
 4385AUSL   AUS 4301  -3.918  25.379   7.238
 4386AUL    AUL 4302  -3.540  25.399   7.199
 4387THSLK    S 4303  -3.432  25.586   7.353
 4388ETHY    C1 4304  -3.111  25.269   7.298
 4389ETHY    C1 4305  -2.678  24.966   7.221
 4390ETHY    C1 4306  -2.203  24.756   7.136
 4391ETHY    C1 4307  -1.701  24.635   7.048
 4392ETHY    C1 4308  -1.181  24.608   6.963
 4393ETHY    C1 4309  -0.652  24.679   6.881
 4394THSLK    S 4310  -3.802  25.190   7.108
 4395ETHY    C1 4311  -3.718  24.761   6.984
 4396ETHY    C1 4312  -3.543  24.289   6.803
 4397ETHY    C1 4313  -3.290  23.878   6.593
 4398ETHY    C1 4314  -2.972  23.530   6.366
 4399ETHY    C1 4315  -2.590  23.255   6.126
 4400ETHY    C1 4316  -2.152  23.058   5.880
 4401AUSL   AUS 4317  -4.914  25.480   7.503
 4402AUSL   AUS 4318  -4.844  25.625   7.086
 4403AUL    AUL 4319  -5.128  25.399   7.199
 4404THSLK    S 4320  -5.015  25.454   6.978
 4405ETHY    C1 4321  -5.379  25.189   6.921
 4406ETHY    C1 4322  -5.801  24.899   6.766
 4407ETHY    C1 4323  -6.193  24.647   6.521
 4408ETHY    C1 4324  -6.547  24.434   6.200
 4409ETHY    C1 4325  -6.854  24.261   5.806
 4410ETHY    C1 4326  -7.105  24.134   5.346
 4411THSLK    S 4327  -5.180  25.428   7.508
 4412ETHY    C1 4328  -5.634  25.406   7.513
 4413ETHY    C1 4329  -6.156  25.292   7.514
 4414ETHY    C1 4330  -6.638  25.083   7.511
 4415ETHY    C1 4331  -7.075  24.793   7.510
 4416ETHY    C1 4332  -7.454  24.426   7.510
 4417ETHY    C1 4333  -7.767  23.986   7.514
 4418AUSL   AUS 4334  -5.008  25.726   7.654
 4419AUSL   AUS 4335  -4.750  25.379   7.767
 4420AUL    AUL 4336  -5.128  25.399   7.806
 4421THSLK    S 4337  -4.938  25.239   7.878
 4422ETHY    C1 4338  -5.325  25.002   7.893
 4423ETHY    C1 4339  -5.743  24.682   7.982
 4424ETHY    C1 4340  -6.101  24.333   8.149
 4425ETHY    C1 4341  -6.396  23.969   8.382
 4426ETHY    C1 4342  -6.621  23.598   8.683
 4427ETHY    C1 4343  -6.772  23.227   9.045
 4428THSLK    S 4344  -5.264  25.663   7.616
 4429ETHY    C1 4345  -5.700  25.653   7.491
 4430ETHY    C1 4346  -6.226  25.594   7.419
 4431ETHY    C1 4347  -6.741  25.487   7.436
 4432ETHY    C1 4348  -7.235  25.341   7.535
 4433ETHY    C1 4349  -7.695  25.159   7.718
 4434ETHY    C1 4350  -8.114  24.946   7.983
 4435AUSL   AUS 4351  -4.334  26.469   7.912
 4436AUSL   AUS 4352  -4.750  26.400   7.767
 4437AUL    AUL 4353  -4.637  26.684   7.993
 4438THSLK    S 4354  -4.866  26.556   7.952
 4439ETHY    C1 4355  -4.950  26.858   8.280
 4440ETHY    C1 4356  -5.125  27.231   8.621
 4441ETHY    C1 4357  -5.378  27.602   8.895
 4442ETHY    C1 4358  -5.696  27.961   9.105
 4443ETHY    C1 4359  -6.078  28.299   9.244
 4444ETHY    C1 4360  -6.516  28.607   9.309
 4445THSLK    S 4361  -4.292  26.691   8.035
 4446ETHY    C1 4362  -4.108  26.966   8.347
 4447ETHY    C1 4363  -3.958  27.346   8.691
 4448ETHY    C1 4364  -3.892  27.769   8.998
 4449ETHY    C1 4365  -3.905  28.220   9.264
 4450ETHY    C1 4366  -4.002  28.689   9.485
 4451ETHY    C1 4367  -4.182  29.168   9.656
 4452AUSL   AUS 4368  -4.486  26.563   7.666
 4453AUSL   AUS 4369  -4.182  26.563   7.339
 4454AUL    AUL 4370  -4.334  26.871   7.503
 4455THSLK    S 4371  -4.443  26.807   7.776
 4456ETHY    C1 4372  -4.299  27.201   7.951
 4457ETHY    C1 4373  -4.212  27.695   8.137
 4458ETHY    C1 4374  -4.224  28.196   8.294
 4459ETHY    C1 4375  -4.325  28.694   8.425
 4460ETHY    C1 4376  -4.517  29.175   8.527
 4461ETHY    C1 4377  -4.797  29.630   8.600
 4462THSLK    S 4378  -4.127  26.794   7.243
 4463ETHY    C1 4379  -3.851  27.124   7.096
 4464ETHY    C1 4380  -3.601  27.565   6.927
 4465ETHY    C1 4381  -3.445  28.042   6.771
 4466ETHY    C1 4382  -3.376  28.544   6.635
 4467ETHY    C1 4383  -3.400  29.060   6.525
 4468ETHY    C1 4384  -3.517  29.580   6.443
 4469AUSL   AUS 4385  -4.182  26.563   7.666
 4470AUSL   AUS 4386  -4.069  26.306   8.013
 4471AUL    AUL 4387  -4.031  26.684   7.993
 4472THSLK    S 4388  -3.898  26.414   8.183
 4473ETHY    C1 4389  -3.603  26.479   8.523
 4474ETHY    C1 4390  -3.285  26.641   8.920
 4475ETHY    C1 4391  -3.017  26.890   9.298
 4476ETHY    C1 4392  -2.803  27.212   9.653
 4477ETHY    C1 4393  -2.651  27.600   9.976
 4478ETHY    C1 4394  -2.565  28.050  10.262
 4479THSLK    S 4395  -4.129  26.792   7.772
 4480ETHY    C1 4396  -3.857  27.120   7.929
 4481ETHY    C1 4397  -3.607  27.560   8.100
 4482ETHY    C1 4398  -3.449  28.039   8.251
 4483ETHY    C1 4399  -3.380  28.541   8.383
 4484ETHY    C1 4400  -3.404  29.056   8.494
 4485ETHY    C1 4401  -3.523  29.575   8.585
 4486AUSL   AUS 4402  -4.334  25.309   7.912
 4487AUSL   AUS 4403  -3.918  25.379   7.767
 4488AUL    AUL 4404  -4.031  25.095   7.993
 4489THSLK    S 4405  -4.381  25.059   7.989
 4490ETHY    C1 4406  -4.571  24.663   8.103
 4491ETHY    C1 4407  -4.722  24.185   8.289
 4492ETHY    C1 4408  -4.785  23.720   8.528
 4493ETHY    C1 4409  -4.770  23.278   8.809
 4494ETHY    C1 4410  -4.674  22.871   9.132
 4495ETHY    C1 4411  -4.499  22.508   9.489
 4496THSLK    S 4412  -3.806  25.192   7.907
 4497ETHY    C1 4413  -3.727  24.764   8.040
 4498ETHY    C1 4414  -3.552  24.294   8.222
 4499ETHY    C1 4415  -3.298  23.882   8.428
 4500ETHY    C1 4416  -2.978  23.533   8.652
 4501ETHY    C1 4417  -2.597  23.258   8.893
 4502ETHY    C1 4418  -2.162  23.062   9.147
 4503AUSL   AUS 4419  -4.486  25.216   7.666
 4504AUSL   AUS 4420  -4.599  25.473   8.013
 4505AUL    AUL 4421  -4.637  25.095   7.993
 4506THSLK    S 4422  -4.541  24.980   7.745
 4507ETHY    C1 4423  -4.816  24.621   7.788
 4508ETHY    C1 4424  -5.067  24.156   7.869
 4509ETHY    C1 4425  -5.223  23.666   7.981
 4510ETHY    C1 4426  -5.292  23.167   8.122
 4511ETHY    C1 4427  -5.268  22.667   8.292
 4512ETHY    C1 4428  -5.151  22.179   8.489
 4513THSLK    S 4429  -4.777  25.307   8.129
 4514ETHY    C1 4430  -5.079  24.989   8.248
 4515ETHY    C1 4431  -5.398  24.622   8.471
 4516ETHY    C1 4432  -5.663  24.285   8.776
 4517ETHY    C1 4433  -5.875  23.983   9.147
 4518ETHY    C1 4434  -6.028  23.725   9.582
 4519ETHY    C1 4435  -6.119  23.518  10.072
 4520AUSL   AUS 4436  -4.182  25.216   7.666
 4521AUSL   AUS 4437  -4.486  25.216   7.339
 4522AUL    AUL 4438  -4.334  24.908   7.503
 4523THSLK    S 4439  -4.539  24.977   7.270
 4524ETHY    C1 4440  -4.811  24.615   7.236
 4525ETHY    C1 4441  -5.061  24.150   7.157
 4526ETHY    C1 4442  -5.218  23.661   7.041
 4527ETHY    C1 4443  -5.288  23.162   6.896
 4528ETHY    C1 4444  -5.264  22.663   6.727
 4529ETHY    C1 4445  -5.145  22.172   6.538
 4530THSLK    S 4446  -4.228  24.964   7.749
 4531ETHY    C1 4447  -4.375  24.538   7.811
 4532ETHY    C1 4448  -4.461  24.020   7.906
 4533ETHY    C1 4449  -4.449  23.507   8.025
 4534ETHY    C1 4450  -4.347  23.012   8.165
 4535ETHY    C1 4451  -4.155  22.547   8.325
 4536ETHY    C1 4452  -3.877  22.121   8.504
 4537AUSL   AUS 4453  -4.334  26.469   7.094
 4538AUSL   AUS 4454  -3.918  26.400   7.238
 4539AUL    AUL 4455  -4.031  26.684   7.012
 4540THSLK    S 4456  -4.287  26.696   6.977
 4541ETHY    C1 4457  -4.097  26.975   6.674
 4542ETHY    C1 4458  -3.946  27.356   6.330
 4543ETHY    C1 4459  -3.882  27.776   6.021
 4544ETHY    C1 4460  -3.898  28.226   5.752
 4545ETHY    C1 4461  -3.994  28.696   5.532
 4546ETHY    C1 4462  -4.169  29.179   5.366
 4547THSLK    S 4463  -3.730  26.516   7.089
 4548ETHY    C1 4464  -3.343  26.636   6.883
 4549ETHY    C1 4465  -2.925  26.859   6.637
 4550ETHY    C1 4466  -2.567  27.163   6.400
 4551ETHY    C1 4467  -2.272  27.535   6.178
 4552ETHY    C1 4468  -2.047  27.970   5.981
 4553ETHY    C1 4469  -1.896  28.459   5.811
 4554AUSL   AUS 4470  -4.486  26.563   7.339
 4555AUSL   AUS 4471  -4.599  26.306   6.992
 4556AUL    AUL 4472  -4.637  26.684   7.012
 4557THSLK    S 4473  -4.440  26.810   7.239
 4558ETHY    C1 4474  -4.293  27.207   7.074
 4559ETHY    C1 4475  -4.207  27.701   6.889
 4560ETHY    C1 4476  -4.219  28.202   6.727
 4561ETHY    C1 4477  -4.321  28.698   6.593
 4562ETHY    C1 4478  -4.513  29.179   6.492
 4563ETHY    C1 4479  -4.791  29.637   6.427
 4564THSLK    S 4480  -4.709  26.438   6.805
 4565ETHY    C1 4481  -4.745  26.587   6.377
 4566ETHY    C1 4482  -4.855  26.813   5.906
 4567ETHY    C1 4483  -5.033  27.088   5.494
 4568ETHY    C1 4484  -5.267  27.401   5.145
 4569ETHY    C1 4485  -5.553  27.750   4.870
 4570ETHY    C1 4486  -5.884  28.128   4.675
 4571AUSL   AUS 4487  -4.334  25.309   7.094
 4572AUSL   AUS 4488  -4.750  25.379   7.238
 4573AUL    AUL 4489  -4.637  25.095   7.012
 4574THSLK    S 4490  -4.933  25.231   7.134
 4575ETHY    C1 4491  -5.316  24.987   7.124
 4576ETHY    C1 4492  -5.734  24.666   7.035
 4577ETHY    C1 4493  -6.093  24.320   6.866
 4578ETHY    C1 4494  -6.390  23.959   6.631
 4579ETHY    C1 4495  -6.615  23.587   6.331
 4580ETHY    C1 4496  -6.762  23.210   5.974
 4581THSLK    S 4497  -4.376  25.054   7.024
 4582ETHY    C1 4498  -4.560  24.653   6.917
 4583ETHY    C1 4499  -4.710  24.175   6.732
 4584ETHY    C1 4500  -4.776  23.712   6.491
 4585ETHY    C1 4501  -4.763  23.272   6.206
 4586ETHY    C1 4502  -4.666  22.865   5.885
 4587ETHY    C1 4503  -4.486  22.497   5.533
 4588AUSL   AUS 4504  -4.182  25.216   7.339
 4589AUSL   AUS 4505  -4.069  25.473   6.992
 4590AUL    AUL 4506  -4.031  25.095   7.012
 4591THSLK    S 4507  -4.225  24.962   7.266
 4592ETHY    C1 4508  -4.369  24.534   7.213
 4593ETHY    C1 4509  -4.456  24.015   7.120
 4594ETHY    C1 4510  -4.444  23.503   6.997
 4595ETHY    C1 4511  -4.343  23.009   6.854
 4596ETHY    C1 4512  -4.151  22.544   6.695
 4597ETHY    C1 4513  -3.871  22.116   6.523
 4598THSLK    S 4514  -3.952  25.283   6.859
 4599ETHY    C1 4515  -3.908  24.881   6.651
 4600ETHY    C1 4516  -3.798  24.450   6.355
 4601ETHY    C1 4517  -3.622  24.087   6.017
 4602ETHY    C1 4518  -3.391  23.793   5.651
 4603ETHY    C1 4519  -3.105  23.576   5.264
 4604ETHY    C1 4520  -2.768  23.440   4.865
 4605AUC    AUC 4521   7.207   5.908   7.503
 4606AUC    AUC 4522   7.452   5.908   7.351
 4607AUC    AUC 4523   7.452   5.908   7.654
 4608AUC    AUC 4524   6.962   5.908   7.351
 4609AUC    AUC 4525   6.962   5.908   7.654
 4610AUC    AUC 4526   7.055   6.154   7.503
 4611AUC    AUC 4527   7.359   6.154   7.503
 4612AUC    AUC 4528   7.055   5.663   7.503
 4613AUC    AUC 4529   7.359   5.663   7.503
 4614AUC    AUC 4530   7.207   5.757   7.748
 4615AUC    AUC 4531   7.207   6.060   7.748
 4616AUC    AUC 4532   7.207   5.757   7.257
 4617AUC    AUC 4533   7.207   6.060   7.257
 4618AUC    AUC 4534   7.698   5.908   7.199
 4619AUC    AUC 4535   7.698   5.908   7.503
 4620AUC    AUC 4536   7.698   5.908   7.806
 4621AUC    AUC 4537   6.716   5.908   7.199
 4622AUC    AUC 4538   6.716   5.908   7.503
 4623AUC    AUC 4539   6.716   5.908   7.806
 4624AUC    AUC 4540   6.904   6.399   7.503
 4625AUC    AUC 4541   7.207   6.399   7.503
 4626AUC    AUC 4542   7.510   6.399   7.503
 4627AUC    AUC 4543   6.904   5.418   7.503
 4628AUC    AUC 4544   7.207   5.418   7.503
 4629AUC    AUC 4545   7.510   5.418   7.503
 4630AUC    AUC 4546   7.207   5.605   7.993
 4631AUC    AUC 4547   7.207   5.908   7.993
 4632AUC    AUC 4548   7.207   6.212   7.993
 4633AUC    AUC 4549   7.207   5.605   7.012
 4634AUC    AUC 4550   7.207   5.908   7.012
 4635AUC    AUC 4551   7.207   6.212   7.012
 4636AUC    AUC 4552   7.452   5.757   7.900
 4637AUC    AUC 4553   7.452   6.060   7.900
 4638AUC    AUC 4554   7.452   5.757   7.106
 4639AUC    AUC 4555   7.452   6.060   7.106
 4640AUC    AUC 4556   6.962   5.757   7.900
 4641AUC    AUC 4557   6.962   6.060   7.900
 4642AUC    AUC 4558   6.962   5.757   7.106
 4643AUC    AUC 4559   6.962   6.060   7.106
 4644AUC    AUC 4560   7.604   6.154   7.351
 4645AUC    AUC 4561   7.604   6.154   7.654
 4646AUC    AUC 4562   6.810   6.154   7.351
 4647AUC    AUC 4563   6.810   6.154   7.654
 4648AUC    AUC 4564   7.604   5.663   7.351
 4649AUC    AUC 4565   7.604   5.663   7.654
 4650AUC    AUC 4566   6.810   5.663   7.351
 4651AUC    AUC 4567   6.810   5.663   7.654
 4652AUC    AUC 4568   7.055   6.306   7.748
 4653AUC    AUC 4569   7.359   6.306   7.748
 4654AUC    AUC 4570   7.055   5.511   7.748
 4655AUC    AUC 4571   7.359   5.511   7.748
 4656AUC    AUC 4572   7.055   6.306   7.257
 4657AUC    AUC 4573   7.359   6.306   7.257
 4658AUC    AUC 4574   7.055   5.511   7.257
 4659AUC    AUC 4575   7.359   5.511   7.257
 4660AUSL   AUS 4576   7.616   5.908   8.083
 4661AUSL   AUS 4577   7.472   5.492   8.013
 4662AUL    AUL 4578   7.698   5.605   8.297
 4663THSLK    S 4579   7.582   5.305   8.153
 4664ETHY    C1 4580   7.618   4.906   8.368
 4665ETHY    C1 4581   7.728   4.476   8.665
 4666ETHY    C1 4582   7.906   4.112   9.000
 4667ETHY    C1 4583   8.140   3.816   9.364
 4668ETHY    C1 4584   8.426   3.599   9.752
 4669ETHY    C1 4585   8.757   3.466  10.156
 4670THSLK    S 4586   7.709   5.856   8.324
 4671ETHY    C1 4587   7.913   5.636   8.665
 4672ETHY    C1 4588   8.177   5.459   9.094
 4673ETHY    C1 4589   8.453   5.383   9.535
 4674ETHY    C1 4590   8.730   5.400   9.980
 4675ETHY    C1 4591   9.000   5.513  10.419
 4676ETHY    C1 4592   9.259   5.722  10.845
 4677AUSL   AUS 4593   7.371   5.757   8.176
 4678AUSL   AUS 4594   7.043   6.060   8.176
 4679AUL    AUL 4595   7.207   5.908   8.484
 4680THSLK    S 4596   7.446   5.702   8.413
 4681ETHY    C1 4597   7.510   5.422   8.765
 4682ETHY    C1 4598   7.613   5.167   9.223
 4683ETHY    C1 4599   7.740   5.008   9.708
 4684ETHY    C1 4600   7.882   4.939  10.208
 4685ETHY    C1 4601   8.036   4.967  10.713
 4686ETHY    C1 4602   8.196   5.091  11.212
 4687THSLK    S 4603   6.958   6.014   8.428
 4688ETHY    C1 4604   6.884   5.864   8.850
 4689ETHY    C1 4605   6.779   5.776   9.367
 4690ETHY    C1 4606   6.657   5.788   9.878
 4691ETHY    C1 4607   6.519   5.889  10.373
 4692ETHY    C1 4608   6.364   6.082  10.840
 4693ETHY    C1 4609   6.195   6.363  11.268
 4694AUSL   AUS 4610   7.371   6.060   8.176
 4695AUSL   AUS 4611   7.717   6.173   7.919
 4696AUL    AUL 4612   7.698   6.212   8.297
 4697THSLK    S 4613   7.456   6.116   8.410
 4698ETHY    C1 4614   7.530   6.397   8.759
 4699ETHY    C1 4615   7.635   6.652   9.217
 4700ETHY    C1 4616   7.757   6.811   9.703
 4701ETHY    C1 4617   7.896   6.880  10.204
 4702ETHY    C1 4618   8.050   6.853  10.708
 4703ETHY    C1 4619   8.219   6.729  11.206
 4704THSLK    S 4620   7.889   6.271   8.080
 4705ETHY    C1 4621   8.252   6.242   8.350
 4706ETHY    C1 4622   8.674   6.298   8.673
 4707ETHY    C1 4623   9.066   6.452   8.989
 4708ETHY    C1 4624   9.420   6.690   9.293
 4709ETHY    C1 4625   9.727   7.011   9.580
 4710ETHY    C1 4626   9.978   7.408   9.844
 4711AUSL   AUS 4627   7.616   5.908   6.923
 4712AUSL   AUS 4628   7.472   6.325   6.992
 4713AUL    AUL 4629   7.698   6.212   6.708
 4714THSLK    S 4630   7.718   5.856   6.687
 4715ETHY    C1 4631   7.931   5.636   6.351
 4716ETHY    C1 4632   8.196   5.459   5.923
 4717ETHY    C1 4633   8.468   5.383   5.479
 4718ETHY    C1 4634   8.742   5.400   5.033
 4719ETHY    C1 4635   9.013   5.513   4.594
 4720ETHY    C1 4636   9.278   5.722   4.173
 4721THSLK    S 4637   7.650   6.436   6.829
 4722ETHY    C1 4638   7.952   6.504   6.497
 4723ETHY    C1 4639   8.271   6.667   6.100
 4724ETHY    C1 4640   8.536   6.914   5.719
 4725ETHY    C1 4641   8.748   7.234   5.362
 4726ETHY    C1 4642   8.901   7.624   5.039
 4727ETHY    C1 4643   8.992   8.076   4.759
 4728AUSL   AUS 4644   7.371   5.757   6.829
 4729AUSL   AUS 4645   7.717   5.644   7.086
 4730AUL    AUL 4646   7.698   5.605   6.708
 4731THSLK    S 4647   7.850   5.452   6.949
 4732ETHY    C1 4648   8.033   5.085   6.752
 4733ETHY    C1 4649   8.305   4.713   6.483
 4734ETHY    C1 4650   8.630   4.424   6.186
 4735ETHY    C1 4651   8.996   4.217   5.874
 4736ETHY    C1 4652   9.400   4.098   5.555
 4737ETHY    C1 4653   9.833   4.073   5.235
 4738THSLK    S 4654   7.456   5.701   6.596
 4739ETHY    C1 4655   7.530   5.420   6.246
 4740ETHY    C1 4656   7.635   5.164   5.788
 4741ETHY    C1 4657   7.757   5.006   5.302
 4742ETHY    C1 4658   7.896   4.937   4.801
 4743ETHY    C1 4659   8.050   4.964   4.297
 4744ETHY    C1 4660   8.219   5.088   3.799
 4745AUSL   AUS 4661   7.371   6.060   6.829
 4746AUSL   AUS 4662   7.043   5.757   6.829
 4747AUL    AUL 4663   7.207   5.908   6.521
 4748THSLK    S 4664   6.951   5.701   6.597
 4749ETHY    C1 4665   6.816   5.423   6.264
 4750ETHY    C1 4666   6.655   5.170   5.822
 4751ETHY    C1 4667   6.503   5.013   5.343
 4752ETHY    C1 4668   6.367   4.944   4.842
 4753ETHY    C1 4669   6.250   4.970   4.328
 4754ETHY    C1 4670   6.157   5.089   3.810
 4755THSLK    S 4671   7.473   6.014   6.583
 4756ETHY    C1 4672   7.619   5.864   6.179
 4757ETHY    C1 4673   7.781   5.773   5.678
 4758ETHY    C1 4674   7.928   5.783   5.173
 4759ETHY    C1 4675   8.061   5.884   4.677
 4760ETHY    C1 4676   8.178   6.079   4.200
 4761ETHY    C1 4677   8.279   6.365   3.754
 4762AUSL   AUS 4678   6.798   5.908   8.083
 4763AUSL   AUS 4679   6.942   6.325   8.013
 4764AUL    AUL 4680   6.716   6.212   8.297
 4765THSLK    S 4681   6.696   5.856   8.319
 4766ETHY    C1 4682   6.484   5.636   8.654
 4767ETHY    C1 4683   6.218   5.459   9.082
 4768ETHY    C1 4684   5.946   5.383   9.526
 4769ETHY    C1 4685   5.672   5.400   9.973
 4770ETHY    C1 4686   5.401   5.513  10.411
 4771ETHY    C1 4687   5.136   5.722  10.832
 4772THSLK    S 4688   6.825   6.449   8.202
 4773ETHY    C1 4689   6.782   6.592   8.632
 4774ETHY    C1 4690   6.671   6.817   9.104
 4775ETHY    C1 4691   6.495   7.094   9.515
 4776ETHY    C1 4692   6.264   7.410   9.863
 4777ETHY    C1 4693   5.978   7.758  10.138
 4778ETHY    C1 4694   5.641   8.131  10.334
 4779AUSL   AUS 4695   7.043   5.757   8.176
 4780AUSL   AUS 4696   6.697   5.644   7.919
 4781AUL    AUL 4697   6.716   5.605   8.297
 4782THSLK    S 4698   6.520   5.481   8.026
 4783ETHY    C1 4699   6.149   5.224   8.082
 4784ETHY    C1 4700   5.727   4.936   8.237
 4785ETHY    C1 4701   5.337   4.681   8.482
 4786ETHY    C1 4702   4.985   4.464   8.803
 4787ETHY    C1 4703   4.679   4.293   9.198
 4788ETHY    C1 4704   4.422   4.172   9.657
 4789THSLK    S 4705   6.941   5.703   8.406
 4790ETHY    C1 4706   6.795   5.427   8.736
 4791ETHY    C1 4707   6.633   5.175   9.178
 4792ETHY    C1 4708   6.486   5.017   9.658
 4793ETHY    C1 4709   6.353   4.947  10.160
 4794ETHY    C1 4710   6.236   4.973  10.674
 4795ETHY    C1 4711   6.135   5.094  11.190
 4796AUSL   AUS 4712   6.798   5.908   6.923
 4797AUSL   AUS 4713   6.942   5.492   6.992
 4798AUL    AUL 4714   6.716   5.605   6.708
 4799THSLK    S 4715   6.705   5.856   6.681
 4800ETHY    C1 4716   6.501   5.636   6.341
 4801ETHY    C1 4717   6.237   5.459   5.911
 4802ETHY    C1 4718   5.961   5.383   5.470
 4803ETHY    C1 4719   5.684   5.400   5.025
 4804ETHY    C1 4720   5.414   5.513   4.586
 4805ETHY    C1 4721   5.155   5.722   4.161
 4806THSLK    S 4722   6.771   5.319   6.878
 4807ETHY    C1 4723   6.476   4.993   6.760
 4808ETHY    C1 4724   6.158   4.626   6.538
 4809ETHY    C1 4725   5.890   4.291   6.233
 4810ETHY    C1 4726   5.676   3.991   5.861
 4811ETHY    C1 4727   5.524   3.733   5.426
 4812ETHY    C1 4728   5.438   3.521   4.937
 4813AUSL   AUS 4729   7.043   6.060   6.829
 4814AUSL   AUS 4730   6.697   6.173   7.086
 4815AUL    AUL 4731   6.716   6.212   6.708
 4816THSLK    S 4732   6.570   6.300   6.895
 4817ETHY    C1 4733   6.393   6.381   6.484
 4818ETHY    C1 4734   6.122   6.521   6.046
 4819ETHY    C1 4735   5.795   6.709   5.679
 4820ETHY    C1 4736   5.426   6.938   5.385
 4821ETHY    C1 4737   5.024   7.205   5.173
 4822ETHY    C1 4738   4.595   7.507   5.047
 4823THSLK    S 4739   6.968   6.016   6.576
 4824ETHY    C1 4740   6.904   5.869   6.150
 4825ETHY    C1 4741   6.801   5.780   5.634
 4826ETHY    C1 4742   6.674   5.791   5.123
 4827ETHY    C1 4743   6.532   5.892   4.629
 4828ETHY    C1 4744   6.379   6.085   4.162
 4829ETHY    C1 4745   6.218   6.368   3.732
 4830AUSL   AUS 4746   7.787   6.317   7.503
 4831AUSL   AUS 4747   7.717   6.173   7.086
 4832AUL    AUL 4748   8.001   6.399   7.199
 4833THSLK    S 4749   7.895   6.272   6.934
 4834ETHY    C1 4750   8.265   6.245   6.671
 4835ETHY    C1 4751   8.687   6.301   6.349
 4836ETHY    C1 4752   9.077   6.455   6.030
 4837ETHY    C1 4753   9.429   6.692   5.724
 4838ETHY    C1 4754   9.736   7.013   5.438
 4839ETHY    C1 4755   9.992   7.412   5.179
 4840THSLK    S 4756   8.053   6.370   7.508
 4841ETHY    C1 4757   8.507   6.392   7.513
 4842ETHY    C1 4758   9.029   6.506   7.514
 4843ETHY    C1 4759   9.512   6.715   7.511
 4844ETHY    C1 4760   9.948   7.005   7.510
 4845ETHY    C1 4761  10.327   7.372   7.510
 4846ETHY    C1 4762  10.641   7.812   7.514
 4847AUSL   AUS 4763   7.881   6.072   7.351
 4848AUSL   AUS 4764   7.881   5.745   7.654
 4849AUL    AUL 4765   8.189   5.908   7.503
 4850THSLK    S 4766   8.137   6.111   7.350
 4851ETHY    C1 4767   8.573   6.003   7.286
 4852ETHY    C1 4768   9.099   5.965   7.201
 4853ETHY    C1 4769   9.614   6.029   7.113
 4854ETHY    C1 4770  10.108   6.183   7.026
 4855ETHY    C1 4771  10.568   6.428   6.945
 4856ETHY    C1 4772  10.987   6.760   6.873
 4857THSLK    S 4773   8.108   5.605   7.663
 4858ETHY    C1 4774   8.427   5.289   7.728
 4859ETHY    C1 4775   8.860   4.985   7.807
 4860ETHY    C1 4776   9.335   4.775   7.887
 4861ETHY    C1 4777   9.838   4.654   7.971
 4862ETHY    C1 4778  10.358   4.628   8.058
 4863ETHY    C1 4779  10.886   4.698   8.147
 4864AUSL   AUS 4780   7.881   6.072   7.654
 4865AUSL   AUS 4781   7.623   6.419   7.767
 4866AUL    AUL 4782   8.001   6.399   7.806
 4867THSLK    S 4783   7.806   6.533   7.926
 4868ETHY    C1 4784   8.189   6.651   8.140
 4869ETHY    C1 4785   8.607   6.874   8.388
 4870ETHY    C1 4786   8.966   7.179   8.622
 4871ETHY    C1 4787   9.263   7.552   8.840
 4872ETHY    C1 4788   9.488   7.986   9.038
 4873ETHY    C1 4789   9.635   8.474   9.215
 4874THSLK    S 4790   8.135   6.111   7.665
 4875ETHY    C1 4791   8.570   6.003   7.740
 4876ETHY    C1 4792   9.096   5.965   7.826
 4877ETHY    C1 4793   9.611   6.028   7.910
 4878ETHY    C1 4794  10.105   6.182   7.993
 4879ETHY    C1 4795  10.566   6.427   8.075
 4880ETHY    C1 4796  10.983   6.759   8.155
 4881AUSL   AUS 4797   6.627   6.317   7.503
 4882AUSL   AUS 4798   6.697   6.173   7.919
 4883AUL    AUL 4799   6.413   6.399   7.806
 4884THSLK    S 4800   6.564   6.292   8.109
 4885ETHY    C1 4801   6.381   6.364   8.519
 4886ETHY    C1 4802   6.109   6.504   8.957
 4887ETHY    C1 4803   5.784   6.695   9.324
 4888ETHY    C1 4804   5.418   6.926   9.619
 4889ETHY    C1 4805   5.015   7.193   9.831
 4890ETHY    C1 4806   4.581   7.489   9.956
 4891THSLK    S 4807   6.416   6.458   7.508
 4892ETHY    C1 4808   6.194   6.855   7.513
 4893ETHY    C1 4809   5.858   7.270   7.514
 4894ETHY    C1 4810   5.455   7.609   7.511
 4895ETHY    C1 4811   5.001   7.870   7.510
 4896ETHY    C1 4812   4.502   8.044   7.510
 4897ETHY    C1 4813   3.969   8.128   7.514
 4898AUSL   AUS 4814   6.533   6.072   7.351
 4899AUSL   AUS 4815   6.791   6.419   7.238
 4900AUL    AUL 4816   6.413   6.399   7.199
 4901THSLK    S 4817   6.306   6.187   7.303
 4902ETHY    C1 4818   5.987   6.387   7.049
 4903ETHY    C1 4819   5.554   6.593   6.813
 4904ETHY    C1 4820   5.079   6.759   6.661
 4905ETHY    C1 4821   4.576   6.888   6.590
 4906ETHY    C1 4822   4.056   6.978   6.605
 4907ETHY    C1 4823   3.528   7.026   6.708
 4908THSLK    S 4824   6.679   6.582   7.060
 4909ETHY    C1 4825   6.600   6.892   6.737
 4910ETHY    C1 4826   6.425   7.266   6.397
 4911ETHY    C1 4827   6.171   7.634   6.120
 4912ETHY    C1 4828   5.851   7.991   5.909
 4913ETHY    C1 4829   5.470   8.329   5.770
 4914ETHY    C1 4830   5.035   8.643   5.709
 4915AUSL   AUS 4831   6.533   6.072   7.654
 4916AUSL   AUS 4832   6.533   5.745   7.351
 4917AUL    AUL 4833   6.225   5.908   7.503
 4918THSLK    S 4834   6.279   5.672   7.394
 4919ETHY    C1 4835   5.844   5.654   7.524
 4920ETHY    C1 4836   5.318   5.594   7.597
 4921ETHY    C1 4837   4.803   5.490   7.578
 4922ETHY    C1 4838   4.309   5.347   7.477
 4923ETHY    C1 4839   3.849   5.164   7.294
 4924ETHY    C1 4840   3.431   4.944   7.034
 4925THSLK    S 4841   6.305   6.178   7.707
 4926ETHY    C1 4842   5.984   6.369   7.966
 4927ETHY    C1 4843   5.551   6.573   8.202
 4928ETHY    C1 4844   5.076   6.744   8.352
 4929ETHY    C1 4845   4.574   6.876   8.422
 4930ETHY    C1 4846   4.054   6.964   8.407
 4931ETHY    C1 4847   3.525   7.005   8.308
 4932AUSL   AUS 4848   7.787   5.499   7.503
 4933AUSL   AUS 4849   7.717   5.644   7.919
 4934AUL    AUL 4850   8.001   5.418   7.806
 4935THSLK    S 4851   7.998   5.358   7.508
 4936ETHY    C1 4852   8.220   4.962   7.513
 4937ETHY    C1 4853   8.556   4.547   7.514
 4938ETHY    C1 4854   8.959   4.208   7.511
 4939ETHY    C1 4855   9.413   3.947   7.510
 4940ETHY    C1 4856   9.912   3.773   7.510
 4941ETHY    C1 4857  10.445   3.689   7.514
 4942THSLK    S 4858   7.844   5.453   8.064
 4943ETHY    C1 4859   8.021   5.088   8.270
 4944ETHY    C1 4860   8.292   4.716   8.540
 4945ETHY    C1 4861   8.619   4.427   8.834
 4946ETHY    C1 4862   8.988   4.219   9.142
 4947ETHY    C1 4863   9.390   4.101   9.462
 4948ETHY    C1 4864   9.819   4.076   9.789
 4949AUSL   AUS 4865   7.881   5.745   7.351
 4950AUSL   AUS 4866   7.623   5.398   7.238
 4951AUL    AUL 4867   8.001   5.418   7.199
 4952THSLK    S 4868   8.109   5.605   7.353
 4953ETHY    C1 4869   8.430   5.288   7.298
 4954ETHY    C1 4870   8.863   4.985   7.221
 4955ETHY    C1 4871   9.338   4.775   7.136
 4956ETHY    C1 4872   9.840   4.654   7.048
 4957ETHY    C1 4873  10.360   4.627   6.963
 4958ETHY    C1 4874  10.889   4.698   6.881
 4959THSLK    S 4875   7.739   5.209   7.108
 4960ETHY    C1 4876   7.823   4.780   6.984
 4961ETHY    C1 4877   7.998   4.308   6.803
 4962ETHY    C1 4878   8.251   3.897   6.593
 4963ETHY    C1 4879   8.569   3.549   6.366
 4964ETHY    C1 4880   8.951   3.274   6.126
 4965ETHY    C1 4881   9.389   3.077   5.880
 4966AUSL   AUS 4882   6.627   5.499   7.503
 4967AUSL   AUS 4883   6.697   5.644   7.086
 4968AUL    AUL 4884   6.413   5.418   7.199
 4969THSLK    S 4885   6.526   5.473   6.978
 4970ETHY    C1 4886   6.162   5.208   6.921
 4971ETHY    C1 4887   5.740   4.918   6.766
 4972ETHY    C1 4888   5.348   4.666   6.521
 4973ETHY    C1 4889   4.994   4.453   6.200
 4974ETHY    C1 4890   4.687   4.280   5.806
 4975ETHY    C1 4891   4.436   4.153   5.346
 4976THSLK    S 4892   6.361   5.447   7.508
 4977ETHY    C1 4893   5.907   5.425   7.513
 4978ETHY    C1 4894   5.385   5.311   7.514
 4979ETHY    C1 4895   4.903   5.102   7.511
 4980ETHY    C1 4896   4.466   4.812   7.510
 4981ETHY    C1 4897   4.087   4.445   7.510
 4982ETHY    C1 4898   3.774   4.005   7.514
 4983AUSL   AUS 4899   6.533   5.745   7.654
 4984AUSL   AUS 4900   6.791   5.398   7.767
 4985AUL    AUL 4901   6.413   5.418   7.806
 4986THSLK    S 4902   6.603   5.258   7.878
 4987ETHY    C1 4903   6.216   5.021   7.893
 4988ETHY    C1 4904   5.798   4.701   7.982
 4989ETHY    C1 4905   5.440   4.352   8.149
 4990ETHY    C1 4906   5.145   3.988   8.382
 4991ETHY    C1 4907   4.920   3.617   8.683
 4992ETHY    C1 4908   4.769   3.246   9.045
 4993THSLK    S 4909   6.277   5.682   7.616
 4994ETHY    C1 4910   5.841   5.672   7.491
 4995ETHY    C1 4911   5.315   5.613   7.419
 4996ETHY    C1 4912   4.800   5.506   7.436
 4997ETHY    C1 4913   4.306   5.360   7.535
 4998ETHY    C1 4914   3.846   5.178   7.718
 4999ETHY    C1 4915   3.427   4.965   7.983
 5000AUSL   AUS 4916   7.207   6.488   7.912
 5001AUSL   AUS 4917   6.791   6.419   7.767
 5002AUL    AUL 4918   6.904   6.703   7.993
 5003THSLK    S 4919   6.675   6.575   7.952
 5004ETHY    C1 4920   6.591   6.877   8.280
 5005ETHY    C1 4921   6.416   7.250   8.621
 5006ETHY    C1 4922   6.163   7.621   8.895
 5007ETHY    C1 4923   5.845   7.980   9.105
 5008ETHY    C1 4924   5.463   8.318   9.244
 5009ETHY    C1 4925   5.025   8.626   9.309
 5010THSLK    S 4926   7.249   6.710   8.035
 5011ETHY    C1 4927   7.433   6.985   8.347
 5012ETHY    C1 4928   7.583   7.365   8.691
 5013ETHY    C1 4929   7.649   7.788   8.998
 5014ETHY    C1 4930   7.636   8.239   9.264
 5015ETHY    C1 4931   7.539   8.708   9.485
 5016ETHY    C1 4932   7.359   9.187   9.656
 5017AUSL   AUS 4933   7.055   6.582   7.666
 5018AUSL   AUS 4934   7.359   6.582   7.339
 5019AUL    AUL 4935   7.207   6.890   7.503
 5020THSLK    S 4936   7.098   6.826   7.776
 5021ETHY    C1 4937   7.242   7.220   7.951
 5022ETHY    C1 4938   7.329   7.714   8.137
 5023ETHY    C1 4939   7.317   8.215   8.294
 5024ETHY    C1 4940   7.216   8.713   8.425
 5025ETHY    C1 4941   7.024   9.194   8.527
 5026ETHY    C1 4942   6.744   9.649   8.600
 5027THSLK    S 4943   7.414   6.813   7.243
 5028ETHY    C1 4944   7.690   7.143   7.096
 5029ETHY    C1 4945   7.940   7.584   6.927
 5030ETHY    C1 4946   8.096   8.061   6.771
 5031ETHY    C1 4947   8.165   8.563   6.635
 5032ETHY    C1 4948   8.141   9.079   6.525
 5033ETHY    C1 4949   8.024   9.599   6.443
 5034AUSL   AUS 4950   7.359   6.582   7.666
 5035AUSL   AUS 4951   7.472   6.325   8.013
 5036AUL    AUL 4952   7.510   6.703   7.993
 5037THSLK    S 4953   7.643   6.433   8.183
 5038ETHY    C1 4954   7.938   6.498   8.523
 5039ETHY    C1 4955   8.256   6.660   8.920
 5040ETHY    C1 4956   8.524   6.909   9.298
 5041ETHY    C1 4957   8.738   7.231   9.653
 5042ETHY    C1 4958   8.890   7.619   9.976
 5043ETHY    C1 4959   8.976   8.069  10.262
 5044THSLK    S 4960   7.412   6.811   7.772
 5045ETHY    C1 4961   7.684   7.139   7.929
 5046ETHY    C1 4962   7.934   7.579   8.100
 5047ETHY    C1 4963   8.092   8.058   8.251
 5048ETHY    C1 4964   8.161   8.560   8.383
 5049ETHY    C1 4965   8.137   9.075   8.494
 5050ETHY    C1 4966   8.018   9.594   8.585
 5051AUSL   AUS 4967   7.207   5.328   7.912
 5052AUSL   AUS 4968   7.623   5.398   7.767
 5053AUL    AUL 4969   7.510   5.114   7.993
 5054THSLK    S 4970   7.160   5.078   7.989
 5055ETHY    C1 4971   6.970   4.682   8.103
 5056ETHY    C1 4972   6.819   4.204   8.289
 5057ETHY    C1 4973   6.756   3.739   8.528
 5058ETHY    C1 4974   6.771   3.297   8.809
 5059ETHY    C1 4975   6.867   2.890   9.132
 5060ETHY    C1 4976   7.042   2.527   9.489
 5061THSLK    S 4977   7.735   5.211   7.907
 5062ETHY    C1 4978   7.814   4.783   8.040
 5063ETHY    C1 4979   7.989   4.313   8.222
 5064ETHY    C1 4980   8.243   3.901   8.428
 5065ETHY    C1 4981   8.563   3.552   8.652
 5066ETHY    C1 4982   8.944   3.277   8.893
 5067ETHY    C1 4983   9.379   3.081   9.147
 5068AUSL   AUS 4984   7.055   5.235   7.666
 5069AUSL   AUS 4985   6.942   5.492   8.013
 5070AUL    AUL 4986   6.904   5.114   7.993
 5071THSLK    S 4987   7.000   4.999   7.745
 5072ETHY    C1 4988   6.725   4.640   7.788
 5073ETHY    C1 4989   6.474   4.175   7.869
 5074ETHY    C1 4990   6.318   3.685   7.981
 5075ETHY    C1 4991   6.249   3.186   8.122
 5076ETHY    C1 4992   6.273   2.686   8.292
 5077ETHY    C1 4993   6.390   2.198   8.489
 5078THSLK    S 4994   6.764   5.326   8.129
 5079ETHY    C1 4995   6.462   5.008   8.248
 5080ETHY    C1 4996   6.143   4.641   8.471
 5081ETHY    C1 4997   5.878   4.304   8.776
 5082ETHY    C1 4998   5.666   4.002   9.147
 5083ETHY    C1 4999   5.513   3.744   9.582
 5084ETHY    C1 5000   5.422   3.537  10.072
 5085AUSL   AUS 5001   7.359   5.235   7.666
 5086AUSL   AUS 5002   7.055   5.235   7.339
 5087AUL    AUL 5003   7.207   4.927   7.503
 5088THSLK    S 5004   7.002   4.996   7.270
 5089ETHY    C1 5005   6.730   4.634   7.236
 5090ETHY    C1 5006   6.480   4.169   7.157
 5091ETHY    C1 5007   6.323   3.680   7.041
 5092ETHY    C1 5008   6.253   3.181   6.896
 5093ETHY    C1 5009   6.277   2.682   6.727
 5094ETHY    C1 5010   6.396   2.191   6.538
 5095THSLK    S 5011   7.313   4.983   7.749
 5096ETHY    C1 5012   7.166   4.557   7.811
 5097ETHY    C1 5013   7.080   4.039   7.906
 5098ETHY    C1 5014   7.092   3.526   8.025
 5099ETHY    C1 5015   7.194   3.031   8.165
 5100ETHY    C1 5016   7.386   2.566   8.325
 5101ETHY    C1 5017   7.664   2.140   8.504
 5102AUSL   AUS 5018   7.207   6.488   7.094
 5103AUSL   AUS 5019   7.623   6.419   7.238
 5104AUL    AUL 5020   7.510   6.703   7.012
 5105THSLK    S 5021   7.254   6.715   6.977
 5106ETHY    C1 5022   7.444   6.994   6.674
 5107ETHY    C1 5023   7.595   7.375   6.330
 5108ETHY    C1 5024   7.659   7.795   6.021
 5109ETHY    C1 5025   7.643   8.245   5.752
 5110ETHY    C1 5026   7.547   8.715   5.532
 5111ETHY    C1 5027   7.372   9.198   5.366
 5112THSLK    S 5028   7.811   6.535   7.089
 5113ETHY    C1 5029   8.198   6.655   6.883
 5114ETHY    C1 5030   8.616   6.878   6.637
 5115ETHY    C1 5031   8.974   7.182   6.400
 5116ETHY    C1 5032   9.269   7.554   6.178
 5117ETHY    C1 5033   9.494   7.989   5.981
 5118ETHY    C1 5034   9.645   8.478   5.811
 5119AUSL   AUS 5035   7.055   6.582   7.339
 5120AUSL   AUS 5036   6.942   6.325   6.992
 5121AUL    AUL 5037   6.904   6.703   7.012
 5122THSLK    S 5038   7.101   6.829   7.239
 5123ETHY    C1 5039   7.248   7.226   7.074
 5124ETHY    C1 5040   7.334   7.720   6.889
 5125ETHY    C1 5041   7.322   8.221   6.727
 5126ETHY    C1 5042   7.220   8.717   6.593
 5127ETHY    C1 5043   7.028   9.198   6.492
 5128ETHY    C1 5044   6.750   9.656   6.427
 5129THSLK    S 5045   6.832   6.457   6.805
 5130ETHY    C1 5046   6.796   6.606   6.377
 5131ETHY    C1 5047   6.686   6.832   5.906
 5132ETHY    C1 5048   6.508   7.107   5.494
 5133ETHY    C1 5049   6.274   7.420   5.145
 5134ETHY    C1 5050   5.988   7.769   4.870
 5135ETHY    C1 5051   5.657   8.147   4.675
 5136AUSL   AUS 5052   7.207   5.328   7.094
 5137AUSL   AUS 5053   6.791   5.398   7.238
 5138AUL    AUL 5054   6.904   5.114   7.012
 5139THSLK    S 5055   6.608   5.250   7.134
 5140ETHY    C1 5056   6.225   5.006   7.124
 5141ETHY    C1 5057   5.807   4.685   7.035
 5142ETHY    C1 5058   5.448   4.339   6.866
 5143ETHY    C1 5059   5.151   3.978   6.631
 5144ETHY    C1 5060   4.926   3.606   6.331
 5145ETHY    C1 5061   4.779   3.229   5.974
 5146THSLK    S 5062   7.165   5.073   7.024
 5147ETHY    C1 5063   6.981   4.672   6.917
 5148ETHY    C1 5064   6.831   4.194   6.732
 5149ETHY    C1 5065   6.765   3.731   6.491
 5150ETHY    C1 5066   6.778   3.291   6.206
 5151ETHY    C1 5067   6.875   2.884   5.885
 5152ETHY    C1 5068   7.055   2.516   5.533
 5153AUSL   AUS 5069   7.359   5.235   7.339
 5154AUSL   AUS 5070   7.472   5.492   6.992
 5155AUL    AUL 5071   7.510   5.114   7.012
 5156THSLK    S 5072   7.316   4.981   7.266
 5157ETHY    C1 5073   7.172   4.553   7.213
 5158ETHY    C1 5074   7.085   4.034   7.120
 5159ETHY    C1 5075   7.097   3.522   6.997
 5160ETHY    C1 5076   7.198   3.028   6.854
 5161ETHY    C1 5077   7.390   2.563   6.695
 5162ETHY    C1 5078   7.670   2.135   6.523
 5163THSLK    S 5079   7.589   5.302   6.859
 5164ETHY    C1 5080   7.633   4.900   6.651
 5165ETHY    C1 5081   7.743   4.469   6.355
 5166ETHY    C1 5082   7.919   4.106   6.017
 5167ETHY    C1 5083   8.150   3.812   5.651
 5168ETHY    C1 5084   8.436   3.595   5.264
 5169ETHY    C1 5085   8.773   3.459   4.865
 5170AUC    AUC 5086  15.988  28.051   7.503
 5171AUC    AUC 5087  16.233  28.051   7.351
 5172AUC    AUC 5088  16.233  28.051   7.654
 5173AUC    AUC 5089  15.743  28.051   7.351
 5174AUC    AUC 5090  15.743  28.051   7.654
 5175AUC    AUC 5091  15.836  28.297   7.503
 5176AUC    AUC 5092  16.140  28.297   7.503
 5177AUC    AUC 5093  15.836  27.806   7.503
 5178AUC    AUC 5094  16.140  27.806   7.503
 5179AUC    AUC 5095  15.988  27.900   7.748
 5180AUC    AUC 5096  15.988  28.203   7.748
 5181AUC    AUC 5097  15.988  27.900   7.257
 5182AUC    AUC 5098  15.988  28.203   7.257
 5183AUC    AUC 5099  16.479  28.051   7.199
 5184AUC    AUC 5100  16.479  28.051   7.503
 5185AUC    AUC 5101  16.479  28.051   7.806
 5186AUC    AUC 5102  15.497  28.051   7.199
 5187AUC    AUC 5103  15.497  28.051   7.503
 5188AUC    AUC 5104  15.497  28.051   7.806
 5189AUC    AUC 5105  15.685  28.542   7.503
 5190AUC    AUC 5106  15.988  28.542   7.503
 5191AUC    AUC 5107  16.291  28.542   7.503
 5192AUC    AUC 5108  15.685  27.561   7.503
 5193AUC    AUC 5109  15.988  27.561   7.503
 5194AUC    AUC 5110  16.291  27.561   7.503
 5195AUC    AUC 5111  15.988  27.748   7.993
 5196AUC    AUC 5112  15.988  28.051   7.993
 5197AUC    AUC 5113  15.988  28.355   7.993
 5198AUC    AUC 5114  15.988  27.748   7.012
 5199AUC    AUC 5115  15.988  28.051   7.012
 5200AUC    AUC 5116  15.988  28.355   7.012
 5201AUC    AUC 5117  16.233  27.900   7.900
 5202AUC    AUC 5118  16.233  28.203   7.900
 5203AUC    AUC 5119  16.233  27.900   7.106
 5204AUC    AUC 5120  16.233  28.203   7.106
 5205AUC    AUC 5121  15.743  27.900   7.900
 5206AUC    AUC 5122  15.743  28.203   7.900
 5207AUC    AUC 5123  15.743  27.900   7.106
 5208AUC    AUC 5124  15.743  28.203   7.106
 5209AUC    AUC 5125  16.385  28.297   7.351
 5210AUC    AUC 5126  16.385  28.297   7.654
 5211AUC    AUC 5127  15.591  28.297   7.351
 5212AUC    AUC 5128  15.591  28.297   7.654
 5213AUC    AUC 5129  16.385  27.806   7.351
 5214AUC    AUC 5130  16.385  27.806   7.654
 5215AUC    AUC 5131  15.591  27.806   7.351
 5216AUC    AUC 5132  15.591  27.806   7.654
 5217AUC    AUC 5133  15.836  28.449   7.748
 5218AUC    AUC 5134  16.140  28.449   7.748
 5219AUC    AUC 5135  15.836  27.654   7.748
 5220AUC    AUC 5136  16.140  27.654   7.748
 5221AUC    AUC 5137  15.836  28.449   7.257
 5222AUC    AUC 5138  16.140  28.449   7.257
 5223AUC    AUC 5139  15.836  27.654   7.257
 5224AUC    AUC 5140  16.140  27.654   7.257
 5225AUSL   AUS 5141  16.397  28.051   8.083
 5226AUSL   AUS 5142  16.253  27.635   8.013
 5227AUL    AUL 5143  16.479  27.748   8.297
 5228THSLK    S 5144  16.363  27.448   8.153
 5229ETHY    C1 5145  16.399  27.049   8.368
 5230ETHY    C1 5146  16.509  26.619   8.665
 5231ETHY    C1 5147  16.687  26.255   9.000
 5232ETHY    C1 5148  16.921  25.959   9.364
 5233ETHY    C1 5149  17.207  25.742   9.752
 5234ETHY    C1 5150  17.538  25.609  10.156
 5235THSLK    S 5151  16.490  27.999   8.324
 5236ETHY    C1 5152  16.694  27.779   8.665
 5237ETHY    C1 5153  16.958  27.602   9.094
 5238ETHY    C1 5154  17.234  27.526   9.535
 5239ETHY    C1 5155  17.511  27.543   9.980
 5240ETHY    C1 5156  17.781  27.656  10.419
 5241ETHY    C1 5157  18.040  27.865  10.845
 5242AUSL   AUS 5158  16.152  27.900   8.176
 5243AUSL   AUS 5159  15.824  28.203   8.176
 5244AUL    AUL 5160  15.988  28.051   8.484
 5245THSLK    S 5161  16.227  27.845   8.413
 5246ETHY    C1 5162  16.291  27.565   8.765
 5247ETHY    C1 5163  16.394  27.310   9.223
 5248ETHY    C1 5164  16.521  27.151   9.708
 5249ETHY    C1 5165  16.663  27.082  10.208
 5250ETHY    C1 5166  16.817  27.110  10.713
 5251ETHY    C1 5167  16.977  27.234  11.212
 5252THSLK    S 5168  15.739  28.157   8.428
 5253ETHY    C1 5169  15.665  28.007   8.850
 5254ETHY    C1 5170  15.560  27.919   9.367
 5255ETHY    C1 5171  15.438  27.931   9.878
 5256ETHY    C1 5172  15.300  28.032  10.373
 5257ETHY    C1 5173  15.145  28.225  10.840
 5258ETHY    C1 5174  14.976  28.506  11.268
 5259AUSL   AUS 5175  16.152  28.203   8.176
 5260AUSL   AUS 5176  16.498  28.316   7.919
 5261AUL    AUL 5177  16.479  28.355   8.297
 5262THSLK    S 5178  16.237  28.259   8.410
 5263ETHY    C1 5179  16.311  28.540   8.759
 5264ETHY    C1 5180  16.416  28.795   9.217
 5265ETHY    C1 5181  16.538  28.954   9.703
 5266ETHY    C1 5182  16.677  29.023  10.204
 5267ETHY    C1 5183  16.831  28.996  10.708
 5268ETHY    C1 5184  17.000  28.872  11.206
 5269THSLK    S 5185  16.670  28.414   8.080
 5270ETHY    C1 5186  17.033  28.385   8.350
 5271ETHY    C1 5187  17.455  28.441   8.673
 5272ETHY    C1 5188  17.847  28.595   8.989
 5273ETHY    C1 5189  18.201  28.833   9.293
 5274ETHY    C1 5190  18.508  29.154   9.580
 5275ETHY    C1 5191  18.759  29.551   9.844
 5276AUSL   AUS 5192  16.397  28.051   6.923
 5277AUSL   AUS 5193  16.253  28.468   6.992
 5278AUL    AUL 5194  16.479  28.355   6.708
 5279THSLK    S 5195  16.499  27.999   6.687
 5280ETHY    C1 5196  16.712  27.779   6.351
 5281ETHY    C1 5197  16.977  27.602   5.923
 5282ETHY    C1 5198  17.249  27.526   5.479
 5283ETHY    C1 5199  17.523  27.543   5.033
 5284ETHY    C1 5200  17.794  27.656   4.594
 5285ETHY    C1 5201  18.059  27.865   4.173
 5286THSLK    S 5202  16.431  28.579   6.829
 5287ETHY    C1 5203  16.733  28.647   6.497
 5288ETHY    C1 5204  17.052  28.810   6.100
 5289ETHY    C1 5205  17.317  29.057   5.719
 5290ETHY    C1 5206  17.529  29.377   5.362
 5291ETHY    C1 5207  17.682  29.767   5.039
 5292ETHY    C1 5208  17.773  30.219   4.759
 5293AUSL   AUS 5209  16.152  27.900   6.829
 5294AUSL   AUS 5210  16.498  27.787   7.086
 5295AUL    AUL 5211  16.479  27.748   6.708
 5296THSLK    S 5212  16.631  27.595   6.949
 5297ETHY    C1 5213  16.814  27.228   6.752
 5298ETHY    C1 5214  17.086  26.856   6.483
 5299ETHY    C1 5215  17.411  26.567   6.186
 5300ETHY    C1 5216  17.777  26.360   5.874
 5301ETHY    C1 5217  18.181  26.241   5.555
 5302ETHY    C1 5218  18.614  26.216   5.235
 5303THSLK    S 5219  16.237  27.844   6.596
 5304ETHY    C1 5220  16.311  27.563   6.246
 5305ETHY    C1 5221  16.416  27.307   5.788
 5306ETHY    C1 5222  16.538  27.149   5.302
 5307ETHY    C1 5223  16.677  27.080   4.801
 5308ETHY    C1 5224  16.831  27.107   4.297
 5309ETHY    C1 5225  17.000  27.231   3.799
 5310AUSL   AUS 5226  16.152  28.203   6.829
 5311AUSL   AUS 5227  15.824  27.900   6.829
 5312AUL    AUL 5228  15.988  28.051   6.521
 5313THSLK    S 5229  15.732  27.844   6.597
 5314ETHY    C1 5230  15.597  27.566   6.264
 5315ETHY    C1 5231  15.436  27.313   5.822
 5316ETHY    C1 5232  15.284  27.156   5.343
 5317ETHY    C1 5233  15.148  27.087   4.842
 5318ETHY    C1 5234  15.031  27.113   4.328
 5319ETHY    C1 5235  14.938  27.232   3.810
 5320THSLK    S 5236  16.254  28.157   6.583
 5321ETHY    C1 5237  16.400  28.007   6.179
 5322ETHY    C1 5238  16.562  27.916   5.678
 5323ETHY    C1 5239  16.709  27.926   5.173
 5324ETHY    C1 5240  16.842  28.027   4.677
 5325ETHY    C1 5241  16.959  28.222   4.200
 5326ETHY    C1 5242  17.060  28.508   3.754
 5327AUSL   AUS 5243  15.579  28.051   8.083
 5328AUSL   AUS 5244  15.723  28.468   8.013
 5329AUL    AUL 5245  15.497  28.355   8.297
 5330THSLK    S 5246  15.477  27.999   8.319
 5331ETHY    C1 5247  15.265  27.779   8.654
 5332ETHY    C1 5248  14.999  27.602   9.082
 5333ETHY    C1 5249  14.727  27.526   9.526
 5334ETHY    C1 5250  14.453  27.543   9.973
 5335ETHY    C1 5251  14.182  27.656  10.411
 5336ETHY    C1 5252  13.917  27.865  10.832
 5337THSLK    S 5253  15.606  28.592   8.202
 5338ETHY    C1 5254  15.563  28.735   8.632
 5339ETHY    C1 5255  15.452  28.960   9.104
 5340ETHY    C1 5256  15.276  29.237   9.515
 5341ETHY    C1 5257  15.045  29.553   9.863
 5342ETHY    C1 5258  14.759  29.901  10.138
 5343ETHY    C1 5259  14.422  30.274  10.334
 5344AUSL   AUS 5260  15.824  27.900   8.176
 5345AUSL   AUS 5261  15.478  27.787   7.919
 5346AUL    AUL 5262  15.497  27.748   8.297
 5347THSLK    S 5263  15.301  27.624   8.026
 5348ETHY    C1 5264  14.930  27.367   8.082
 5349ETHY    C1 5265  14.508  27.079   8.237
 5350ETHY    C1 5266  14.118  26.824   8.482
 5351ETHY    C1 5267  13.766  26.607   8.803
 5352ETHY    C1 5268  13.460  26.436   9.198
 5353ETHY    C1 5269  13.203  26.315   9.657
 5354THSLK    S 5270  15.722  27.846   8.406
 5355ETHY    C1 5271  15.576  27.570   8.736
 5356ETHY    C1 5272  15.414  27.318   9.178
 5357ETHY    C1 5273  15.267  27.160   9.658
 5358ETHY    C1 5274  15.134  27.090  10.160
 5359ETHY    C1 5275  15.017  27.116  10.674
 5360ETHY    C1 5276  14.916  27.237  11.190
 5361AUSL   AUS 5277  15.579  28.051   6.923
 5362AUSL   AUS 5278  15.723  27.635   6.992
 5363AUL    AUL 5279  15.497  27.748   6.708
 5364THSLK    S 5280  15.486  27.999   6.681
 5365ETHY    C1 5281  15.282  27.779   6.341
 5366ETHY    C1 5282  15.018  27.602   5.911
 5367ETHY    C1 5283  14.742  27.526   5.470
 5368ETHY    C1 5284  14.465  27.543   5.025
 5369ETHY    C1 5285  14.195  27.656   4.586
 5370ETHY    C1 5286  13.936  27.865   4.161
 5371THSLK    S 5287  15.552  27.462   6.878
 5372ETHY    C1 5288  15.257  27.136   6.760
 5373ETHY    C1 5289  14.939  26.769   6.538
 5374ETHY    C1 5290  14.671  26.434   6.233
 5375ETHY    C1 5291  14.457  26.134   5.861
 5376ETHY    C1 5292  14.305  25.876   5.426
 5377ETHY    C1 5293  14.219  25.664   4.937
 5378AUSL   AUS 5294  15.824  28.203   6.829
 5379AUSL   AUS 5295  15.478  28.316   7.086
 5380AUL    AUL 5296  15.497  28.355   6.708
 5381THSLK    S 5297  15.351  28.443   6.895
 5382ETHY    C1 5298  15.174  28.524   6.484
 5383ETHY    C1 5299  14.903  28.664   6.046
 5384ETHY    C1 5300  14.576  28.852   5.679
 5385ETHY    C1 5301  14.207  29.081   5.385
 5386ETHY    C1 5302  13.805  29.348   5.173
 5387ETHY    C1 5303  13.376  29.650   5.047
 5388THSLK    S 5304  15.749  28.159   6.576
 5389ETHY    C1 5305  15.685  28.012   6.150
 5390ETHY    C1 5306  15.582  27.923   5.634
 5391ETHY    C1 5307  15.455  27.934   5.123
 5392ETHY    C1 5308  15.313  28.035   4.629
 5393ETHY    C1 5309  15.160  28.228   4.162
 5394ETHY    C1 5310  14.999  28.511   3.732
 5395AUSL   AUS 5311  16.568  28.460   7.503
 5396AUSL   AUS 5312  16.498  28.316   7.086
 5397AUL    AUL 5313  16.782  28.542   7.199
 5398THSLK    S 5314  16.676  28.415   6.934
 5399ETHY    C1 5315  17.046  28.388   6.671
 5400ETHY    C1 5316  17.468  28.444   6.349
 5401ETHY    C1 5317  17.858  28.598   6.030
 5402ETHY    C1 5318  18.210  28.835   5.724
 5403ETHY    C1 5319  18.517  29.156   5.438
 5404ETHY    C1 5320  18.773  29.555   5.179
 5405THSLK    S 5321  16.834  28.513   7.508
 5406ETHY    C1 5322  17.288  28.535   7.513
 5407ETHY    C1 5323  17.810  28.649   7.514
 5408ETHY    C1 5324  18.293  28.858   7.511
 5409ETHY    C1 5325  18.729  29.148   7.510
 5410ETHY    C1 5326  19.108  29.515   7.510
 5411ETHY    C1 5327  19.422  29.955   7.514
 5412AUSL   AUS 5328  16.662  28.215   7.351
 5413AUSL   AUS 5329  16.662  27.888   7.654
 5414AUL    AUL 5330  16.970  28.051   7.503
 5415THSLK    S 5331  16.918  28.254   7.350
 5416ETHY    C1 5332  17.354  28.146   7.286
 5417ETHY    C1 5333  17.880  28.108   7.201
 5418ETHY    C1 5334  18.395  28.172   7.113
 5419ETHY    C1 5335  18.889  28.326   7.026
 5420ETHY    C1 5336  19.349  28.571   6.945
 5421ETHY    C1 5337  19.768  28.903   6.873
 5422THSLK    S 5338  16.889  27.748   7.663
 5423ETHY    C1 5339  17.208  27.432   7.728
 5424ETHY    C1 5340  17.641  27.128   7.807
 5425ETHY    C1 5341  18.116  26.918   7.887
 5426ETHY    C1 5342  18.619  26.797   7.971
 5427ETHY    C1 5343  19.139  26.771   8.058
 5428ETHY    C1 5344  19.667  26.841   8.147
 5429AUSL   AUS 5345  16.662  28.215   7.654
 5430AUSL   AUS 5346  16.404  28.562   7.767
 5431AUL    AUL 5347  16.782  28.542   7.806
 5432THSLK    S 5348  16.587  28.676   7.926
 5433ETHY    C1 5349  16.970  28.794   8.140
 5434ETHY    C1 5350  17.388  29.017   8.388
 5435ETHY    C1 5351  17.747  29.322   8.622
 5436ETHY    C1 5352  18.044  29.695   8.840
 5437ETHY    C1 5353  18.269  30.129   9.038
 5438ETHY    C1 5354  18.416  30.617   9.215
 5439THSLK    S 5355  16.916  28.254   7.665
 5440ETHY    C1 5356  17.351  28.146   7.740
 5441ETHY    C1 5357  17.877  28.108   7.826
 5442ETHY    C1 5358  18.392  28.171   7.910
 5443ETHY    C1 5359  18.886  28.325   7.993
 5444ETHY    C1 5360  19.347  28.570   8.075
 5445ETHY    C1 5361  19.764  28.902   8.155
 5446AUSL   AUS 5362  15.408  28.460   7.503
 5447AUSL   AUS 5363  15.478  28.316   7.919
 5448AUL    AUL 5364  15.194  28.542   7.806
 5449THSLK    S 5365  15.345  28.435   8.109
 5450ETHY    C1 5366  15.162  28.507   8.519
 5451ETHY    C1 5367  14.890  28.647   8.957
 5452ETHY    C1 5368  14.565  28.838   9.324
 5453ETHY    C1 5369  14.199  29.069   9.619
 5454ETHY    C1 5370  13.796  29.336   9.831
 5455ETHY    C1 5371  13.362  29.632   9.956
 5456THSLK    S 5372  15.197  28.601   7.508
 5457ETHY    C1 5373  14.975  28.998   7.513
 5458ETHY    C1 5374  14.639  29.413   7.514
 5459ETHY    C1 5375  14.236  29.752   7.511
 5460ETHY    C1 5376  13.782  30.013   7.510
 5461ETHY    C1 5377  13.283  30.187   7.510
 5462ETHY    C1 5378  12.750  30.271   7.514
 5463AUSL   AUS 5379  15.314  28.215   7.351
 5464AUSL   AUS 5380  15.572  28.562   7.238
 5465AUL    AUL 5381  15.194  28.542   7.199
 5466THSLK    S 5382  15.087  28.330   7.303
 5467ETHY    C1 5383  14.768  28.530   7.049
 5468ETHY    C1 5384  14.335  28.736   6.813
 5469ETHY    C1 5385  13.860  28.902   6.661
 5470ETHY    C1 5386  13.357  29.031   6.590
 5471ETHY    C1 5387  12.837  29.121   6.605
 5472ETHY    C1 5388  12.309  29.169   6.708
 5473THSLK    S 5389  15.460  28.725   7.060
 5474ETHY    C1 5390  15.381  29.035   6.737
 5475ETHY    C1 5391  15.206  29.409   6.397
 5476ETHY    C1 5392  14.952  29.777   6.120
 5477ETHY    C1 5393  14.632  30.134   5.909
 5478ETHY    C1 5394  14.251  30.472   5.770
 5479ETHY    C1 5395  13.816  30.786   5.709
 5480AUSL   AUS 5396  15.314  28.215   7.654
 5481AUSL   AUS 5397  15.314  27.888   7.351
 5482AUL    AUL 5398  15.006  28.051   7.503
 5483THSLK    S 5399  15.060  27.815   7.394
 5484ETHY    C1 5400  14.625  27.797   7.524
 5485ETHY    C1 5401  14.099  27.737   7.597
 5486ETHY    C1 5402  13.584  27.633   7.578
 5487ETHY    C1 5403  13.090  27.490   7.477
 5488ETHY    C1 5404  12.630  27.307   7.294
 5489ETHY    C1 5405  12.212  27.087   7.034
 5490THSLK    S 5406  15.086  28.321   7.707
 5491ETHY    C1 5407  14.765  28.512   7.966
 5492ETHY    C1 5408  14.332  28.716   8.202
 5493ETHY    C1 5409  13.857  28.887   8.352
 5494ETHY    C1 5410  13.355  29.019   8.422
 5495ETHY    C1 5411  12.835  29.107   8.407
 5496ETHY    C1 5412  12.306  29.148   8.308
 5497AUSL   AUS 5413  16.568  27.642   7.503
 5498AUSL   AUS 5414  16.498  27.787   7.919
 5499AUL    AUL 5415  16.782  27.561   7.806
 5500THSLK    S 5416  16.779  27.501   7.508
 5501ETHY    C1 5417  17.001  27.105   7.513
 5502ETHY    C1 5418  17.337  26.690   7.514
 5503ETHY    C1 5419  17.740  26.351   7.511
 5504ETHY    C1 5420  18.194  26.090   7.510
 5505ETHY    C1 5421  18.693  25.916   7.510
 5506ETHY    C1 5422  19.226  25.832   7.514
 5507THSLK    S 5423  16.625  27.596   8.064
 5508ETHY    C1 5424  16.802  27.231   8.270
 5509ETHY    C1 5425  17.073  26.859   8.540
 5510ETHY    C1 5426  17.400  26.570   8.834
 5511ETHY    C1 5427  17.769  26.362   9.142
 5512ETHY    C1 5428  18.171  26.244   9.462
 5513ETHY    C1 5429  18.600  26.219   9.789
 5514AUSL   AUS 5430  16.662  27.888   7.351
 5515AUSL   AUS 5431  16.404  27.541   7.238
 5516AUL    AUL 5432  16.782  27.561   7.199
 5517THSLK    S 5433  16.890  27.748   7.353
 5518ETHY    C1 5434  17.211  27.431   7.298
 5519ETHY    C1 5435  17.644  27.128   7.221
 5520ETHY    C1 5436  18.119  26.918   7.136
 5521ETHY    C1 5437  18.621  26.797   7.048
 5522ETHY    C1 5438  19.141  26.770   6.963
 5523ETHY    C1 5439  19.670  26.841   6.881
 5524THSLK    S 5440  16.520  27.352   7.108
 5525ETHY    C1 5441  16.604  26.923   6.984
 5526ETHY    C1 5442  16.779  26.451   6.803
 5527ETHY    C1 5443  17.032  26.040   6.593
 5528ETHY    C1 5444  17.350  25.692   6.366
 5529ETHY    C1 5445  17.732  25.417   6.126
 5530ETHY    C1 5446  18.170  25.220   5.880
 5531AUSL   AUS 5447  15.408  27.642   7.503
 5532AUSL   AUS 5448  15.478  27.787   7.086
 5533AUL    AUL 5449  15.194  27.561   7.199
 5534THSLK    S 5450  15.307  27.616   6.978
 5535ETHY    C1 5451  14.943  27.351   6.921
 5536ETHY    C1 5452  14.521  27.061   6.766
 5537ETHY    C1 5453  14.129  26.809   6.521
 5538ETHY    C1 5454  13.775  26.596   6.200
 5539ETHY    C1 5455  13.468  26.423   5.806
 5540ETHY    C1 5456  13.217  26.296   5.346
 5541THSLK    S 5457  15.142  27.590   7.508
 5542ETHY    C1 5458  14.688  27.568   7.513
 5543ETHY    C1 5459  14.166  27.454   7.514
 5544ETHY    C1 5460  13.684  27.245   7.511
 5545ETHY    C1 5461  13.247  26.955   7.510
 5546ETHY    C1 5462  12.868  26.588   7.510
 5547ETHY    C1 5463  12.555  26.148   7.514
 5548AUSL   AUS 5464  15.314  27.888   7.654
 5549AUSL   AUS 5465  15.572  27.541   7.767
 5550AUL    AUL 5466  15.194  27.561   7.806
 5551THSLK    S 5467  15.384  27.401   7.878
 5552ETHY    C1 5468  14.997  27.164   7.893
 5553ETHY    C1 5469  14.579  26.844   7.982
 5554ETHY    C1 5470  14.221  26.495   8.149
 5555ETHY    C1 5471  13.926  26.131   8.382
 5556ETHY    C1 5472  13.701  25.760   8.683
 5557ETHY    C1 5473  13.550  25.389   9.045
 5558THSLK    S 5474  15.058  27.825   7.616
 5559ETHY    C1 5475  14.622  27.815   7.491
 5560ETHY    C1 5476  14.096  27.756   7.419
 5561ETHY    C1 5477  13.581  27.649   7.436
 5562ETHY    C1 5478  13.087  27.503   7.535
 5563ETHY    C1 5479  12.627  27.321   7.718
 5564ETHY    C1 5480  12.208  27.108   7.983
 5565AUSL   AUS 5481  15.988  28.631   7.912
 5566AUSL   AUS 5482  15.572  28.562   7.767
 5567AUL    AUL 5483  15.685  28.846   7.993
 5568THSLK    S 5484  15.456  28.718   7.952
 5569ETHY    C1 5485  15.372  29.020   8.280
 5570ETHY    C1 5486  15.197  29.393   8.621
 5571ETHY    C1 5487  14.944  29.764   8.895
 5572ETHY    C1 5488  14.626  30.123   9.105
 5573ETHY    C1 5489  14.244  30.461   9.244
 5574ETHY    C1 5490  13.806  30.769   9.309
 5575THSLK    S 5491  16.030  28.853   8.035
 5576ETHY    C1 5492  16.214  29.128   8.347
 5577ETHY    C1 5493  16.364  29.508   8.691
 5578ETHY    C1 5494  16.430  29.931   8.998
 5579ETHY    C1 5495  16.417  30.382   9.264
 5580ETHY    C1 5496  16.320  30.851   9.485
 5581ETHY    C1 5497  16.140  31.330   9.656
 5582AUSL   AUS 5498  15.836  28.725   7.666
 5583AUSL   AUS 5499  16.140  28.725   7.339
 5584AUL    AUL 5500  15.988  29.033   7.503
 5585THSLK    S 5501  15.879  28.969   7.776
 5586ETHY    C1 5502  16.023  29.363   7.951
 5587ETHY    C1 5503  16.110  29.857   8.137
 5588ETHY    C1 5504  16.098  30.358   8.294
 5589ETHY    C1 5505  15.997  30.856   8.425
 5590ETHY    C1 5506  15.805  31.337   8.527
 5591ETHY    C1 5507  15.525  31.792   8.600
 5592THSLK    S 5508  16.195  28.956   7.243
 5593ETHY    C1 5509  16.471  29.286   7.096
 5594ETHY    C1 5510  16.721  29.727   6.927
 5595ETHY    C1 5511  16.877  30.204   6.771
 5596ETHY    C1 5512  16.946  30.706   6.635
 5597ETHY    C1 5513  16.922  31.222   6.525
 5598ETHY    C1 5514  16.805  31.742   6.443
 5599AUSL   AUS 5515  16.140  28.725   7.666
 5600AUSL   AUS 5516  16.253  28.468   8.013
 5601AUL    AUL 5517  16.291  28.846   7.993
 5602THSLK    S 5518  16.424  28.576   8.183
 5603ETHY    C1 5519  16.719  28.641   8.523
 5604ETHY    C1 5520  17.037  28.803   8.920
 5605ETHY    C1 5521  17.305  29.052   9.298
 5606ETHY    C1 5522  17.519  29.374   9.653
 5607ETHY    C1 5523  17.671  29.762   9.976
 5608ETHY    C1 5524  17.757  30.212  10.262
 5609THSLK    S 5525  16.193  28.954   7.772
 5610ETHY    C1 5526  16.465  29.282   7.929
 5611ETHY    C1 5527  16.715  29.722   8.100
 5612ETHY    C1 5528  16.873  30.201   8.251
 5613ETHY    C1 5529  16.942  30.703   8.383
 5614ETHY    C1 5530  16.918  31.218   8.494
 5615ETHY    C1 5531  16.799  31.737   8.585
 5616AUSL   AUS 5532  15.988  27.471   7.912
 5617AUSL   AUS 5533  16.404  27.541   7.767
 5618AUL    AUL 5534  16.291  27.257   7.993
 5619THSLK    S 5535  15.941  27.221   7.989
 5620ETHY    C1 5536  15.751  26.825   8.103
 5621ETHY    C1 5537  15.600  26.347   8.289
 5622ETHY    C1 5538  15.537  25.882   8.528
 5623ETHY    C1 5539  15.552  25.440   8.809
 5624ETHY    C1 5540  15.648  25.033   9.132
 5625ETHY    C1 5541  15.823  24.670   9.489
 5626THSLK    S 5542  16.516  27.354   7.907
 5627ETHY    C1 5543  16.595  26.926   8.040
 5628ETHY    C1 5544  16.770  26.456   8.222
 5629ETHY    C1 5545  17.024  26.044   8.428
 5630ETHY    C1 5546  17.344  25.695   8.652
 5631ETHY    C1 5547  17.725  25.420   8.893
 5632ETHY    C1 5548  18.160  25.224   9.147
 5633AUSL   AUS 5549  15.836  27.378   7.666
 5634AUSL   AUS 5550  15.723  27.635   8.013
 5635AUL    AUL 5551  15.685  27.257   7.993
 5636THSLK    S 5552  15.781  27.142   7.745
 5637ETHY    C1 5553  15.506  26.783   7.788
 5638ETHY    C1 5554  15.255  26.318   7.869
 5639ETHY    C1 5555  15.099  25.828   7.981
 5640ETHY    C1 5556  15.030  25.329   8.122
 5641ETHY    C1 5557  15.054  24.829   8.292
 5642ETHY    C1 5558  15.171  24.341   8.489
 5643THSLK    S 5559  15.545  27.469   8.129
 5644ETHY    C1 5560  15.243  27.151   8.248
 5645ETHY    C1 5561  14.924  26.784   8.471
 5646ETHY    C1 5562  14.659  26.447   8.776
 5647ETHY    C1 5563  14.447  26.145   9.147
 5648ETHY    C1 5564  14.294  25.887   9.582
 5649ETHY    C1 5565  14.203  25.680  10.072
 5650AUSL   AUS 5566  16.140  27.378   7.666
 5651AUSL   AUS 5567  15.836  27.378   7.339
 5652AUL    AUL 5568  15.988  27.070   7.503
 5653THSLK    S 5569  15.783  27.139   7.270
 5654ETHY    C1 5570  15.511  26.777   7.236
 5655ETHY    C1 5571  15.261  26.312   7.157
 5656ETHY    C1 5572  15.104  25.823   7.041
 5657ETHY    C1 5573  15.034  25.324   6.896
 5658ETHY    C1 5574  15.058  24.825   6.727
 5659ETHY    C1 5575  15.177  24.334   6.538
 5660THSLK    S 5576  16.094  27.126   7.749
 5661ETHY    C1 5577  15.947  26.700   7.811
 5662ETHY    C1 5578  15.861  26.182   7.906
 5663ETHY    C1 5579  15.873  25.669   8.025
 5664ETHY    C1 5580  15.975  25.174   8.165
 5665ETHY    C1 5581  16.167  24.709   8.325
 5666ETHY    C1 5582  16.445  24.283   8.504
 5667AUSL   AUS 5583  15.988  28.631   7.094
 5668AUSL   AUS 5584  16.404  28.562   7.238
 5669AUL    AUL 5585  16.291  28.846   7.012
 5670THSLK    S 5586  16.035  28.858   6.977
 5671ETHY    C1 5587  16.225  29.137   6.674
 5672ETHY    C1 5588  16.376  29.518   6.330
 5673ETHY    C1 5589  16.440  29.938   6.021
 5674ETHY    C1 5590  16.424  30.388   5.752
 5675ETHY    C1 5591  16.328  30.858   5.532
 5676ETHY    C1 5592  16.153  31.341   5.366
 5677THSLK    S 5593  16.592  28.678   7.089
 5678ETHY    C1 5594  16.979  28.798   6.883
 5679ETHY    C1 5595  17.397  29.021   6.637
 5680ETHY    C1 5596  17.755  29.325   6.400
 5681ETHY    C1 5597  18.050  29.697   6.178
 5682ETHY    C1 5598  18.275  30.132   5.981
 5683ETHY    C1 5599  18.426  30.621   5.811
 5684AUSL   AUS 5600  15.836  28.725   7.339
 5685AUSL   AUS 5601  15.723  28.468   6.992
 5686AUL    AUL 5602  15.685  28.846   7.012
 5687THSLK    S 5603  15.882  28.972   7.239
 5688ETHY    C1 5604  16.029  29.369   7.074
 5689ETHY    C1 5605  16.115  29.863   6.889
 5690ETHY    C1 5606  16.103  30.364   6.727
 5691ETHY    C1 5607  16.001  30.860   6.593
 5692ETHY    C1 5608  15.809  31.341   6.492
 5693ETHY    C1 5609  15.531  31.799   6.427
 5694THSLK    S 5610  15.613  28.600   6.805
 5695ETHY    C1 5611  15.577  28.749   6.377
 5696ETHY    C1 5612  15.467  28.975   5.906
 5697ETHY    C1 5613  15.289  29.250   5.494
 5698ETHY    C1 5614  15.055  29.563   5.145
 5699ETHY    C1 5615  14.769  29.912   4.870
 5700ETHY    C1 5616  14.438  30.290   4.675
 5701AUSL   AUS 5617  15.988  27.471   7.094
 5702AUSL   AUS 5618  15.572  27.541   7.238
 5703AUL    AUL 5619  15.685  27.257   7.012
 5704THSLK    S 5620  15.389  27.393   7.134
 5705ETHY    C1 5621  15.006  27.149   7.124
 5706ETHY    C1 5622  14.588  26.828   7.035
 5707ETHY    C1 5623  14.229  26.482   6.866
 5708ETHY    C1 5624  13.932  26.121   6.631
 5709ETHY    C1 5625  13.707  25.749   6.331
 5710ETHY    C1 5626  13.560  25.372   5.974
 5711THSLK    S 5627  15.946  27.216   7.024
 5712ETHY    C1 5628  15.762  26.815   6.917
 5713ETHY    C1 5629  15.612  26.337   6.732
 5714ETHY    C1 5630  15.546  25.874   6.491
 5715ETHY    C1 5631  15.559  25.434   6.206
 5716ETHY    C1 5632  15.656  25.027   5.885
 5717ETHY    C1 5633  15.836  24.659   5.533
 5718AUSL   AUS 5634  16.140  27.378   7.339
 5719AUSL   AUS 5635  16.253  27.635   6.992
 5720AUL    AUL 5636  16.291  27.257   7.012
 5721THSLK    S 5637  16.097  27.124   7.266
 5722ETHY    C1 5638  15.953  26.696   7.213
 5723ETHY    C1 5639  15.866  26.177   7.120
 5724ETHY    C1 5640  15.878  25.665   6.997
 5725ETHY    C1 5641  15.979  25.171   6.854
 5726ETHY    C1 5642  16.171  24.706   6.695
 5727ETHY    C1 5643  16.451  24.278   6.523
 5728THSLK    S 5644  16.370  27.445   6.859
 5729ETHY    C1 5645  16.414  27.043   6.651
 5730ETHY    C1 5646  16.524  26.612   6.355
 5731ETHY    C1 5647  16.700  26.249   6.017
 5732ETHY    C1 5648  16.931  25.955   5.651
 5733ETHY    C1 5649  17.217  25.738   5.264
 5734ETHY    C1 5650  17.554  25.602   4.865
 5735POPC   NC3 5651  40.749  30.735   9.455
 5735POPC   PO4 5652  40.752  30.724   9.155
 5735POPC   GL1 5653  40.761  30.702   8.855
 5735POPC   GL2 5654  40.634  30.682   8.855
 5735POPC   C1A 5655  40.740  30.657   8.555
 5735POPC   D2A 5656  40.735  30.742   8.255
 5735POPC   C3A 5657  40.821  30.689   7.955
 5735POPC   C4A 5658  40.779  30.745   7.655
 5735POPC   C1B 5659  40.503  30.592   8.555
 5735POPC   C2B 5660  40.544  30.668   8.255
 5735POPC   C3B 5661  40.557  30.615   7.955
 5735POPC   C4B 5662  40.550  30.595   7.655
 5736POPC   NC3 5663  36.158  19.871   9.455
 5736POPC   PO4 5664  36.171  19.813   9.155
 5736POPC   GL1 5665  36.172  19.870   8.855
 5736POPC   GL2 5666  36.137  19.963   8.855
 5736POPC   C1A 5667  36.151  19.810   8.555
 5736POPC   D2A 5668  36.167  19.804   8.255
 5736POPC   C3A 5669  36.095  19.787   7.955
 5736POPC   C4A 5670  36.174  19.867   7.655
 5736POPC   C1B 5671  36.198  20.083   8.555
 5736POPC   C2B 5672  36.192  20.085   8.255
 5736POPC   C3B 5673  36.165  20.121   7.955
 5736POPC   C4B 5674  36.189  20.114   7.655
 5737POPC   NC3 5675  28.391  22.176   9.455
 5737POPC   PO4 5676  28.339  22.166   9.155
 5737POPC   GL1 5677  28.369  22.152   8.855
 5737POPC   GL2 5678  28.408  22.029   8.855
 5737POPC   C1A 5679  28.408  22.206   8.555
 5737POPC   D2A 5680  28.389  22.123   8.255
 5737POPC   C3A 5681  28.330  22.133   7.955
 5737POPC   C4A 5682  28.371  22.131   7.655
 5737POPC   C1B 5683  28.406  21.951   8.555
 5737POPC   C2B 5684  28.380  21.869   8.255
 5737POPC   C3B 5685  28.336  21.954   7.955
 5737POPC   C4B 5686  28.317  21.957   7.655
 5738POPC   NC3 5687   4.284  33.835   9.455
 5738POPC   PO4 5688   4.304  33.806   9.155
 5738POPC   GL1 5689   4.319  33.799   8.855
 5738POPC   GL2 5690   4.193  33.838   8.855
 5738POPC   C1A 5691   4.326  33.760   8.555
 5738POPC   D2A 5692   4.289  33.766   8.255
 5738POPC   C3A 5693   4.331  33.785   7.955
 5738POPC   C4A 5694   4.353  33.768   7.655
 5738POPC   C1B 5695   4.069  33.866   8.555
 5738POPC   C2B 5696   4.121  33.896   8.255
 5738POPC   C3B 5697   4.066  33.881   7.955
 5738POPC   C4B 5698   4.056  33.962   7.655
 5739POPC   NC3 5699   8.217  33.831   9.455
 5739POPC   PO4 5700   8.213  33.846   9.155
 5739POPC   GL1 5701   8.148  33.817   8.855
 5739POPC   GL2 5702   8.294  33.655   8.855
 5739POPC   C1A 5703   8.210  33.824   8.555
 5739POPC   D2A 5704   8.183  33.810   8.255
 5739POPC   C3A 5705   8.208  33.780   7.955
 5739POPC   C4A 5706   8.195  33.825   7.655
 5739POPC   C1B 5707   8.313  33.602   8.555
 5739POPC   C2B 5708   8.365  33.549   8.255
 5739POPC   C3B 5709   8.325  33.596   7.955
 5739POPC   C4B 5710   8.389  33.563   7.655
 5740POPC   NC3 5711   9.772  40.739   9.455
 5740POPC   PO4 5712   9.739  40.781   9.155
 5740POPC   GL1 5713   9.791  40.786   8.855
 5740POPC   GL2 5714   9.810  40.827   8.855
 5740POPC   C1A 5715   9.766  40.775   8.555
 5740POPC   D2A 5716   9.725  40.804   8.255
 5740POPC   C3A 5717   9.722  40.818   7.955
 5740POPC   C4A 5718   9.769  40.779   7.655
 5740POPC   C1B 5719   9.933  40.889   8.555
 5740POPC   C2B 5720   9.918  40.921   8.255
 5740POPC   C3B 5721   9.901  40.923   7.955
 5740POPC   C4B 5722   9.955  40.951   7.655
 5741POPC   NC3 5723  32.244  12.802   9.455
 5741POPC   PO4 5724  32.256  12.810   9.155
 5741POPC   GL1 5725  32.234  12.870   8.855
 5741POPC   GL2 5726  32.168  12.925   8.855
 5741POPC   C1A 5727  32.263  12.858   8.555
 5741POPC   D2A 5728  32.211  12.858   8.255
 5741POPC   C3A 5729  32.237  12.854   7.955
 5741POPC   C4A 5730  32.201  12.860   7.655
 5741POPC   C1B 5731  31.978  12.983   8.555
 5741POPC   C2B 5732  32.013  12.917   8.255
 5741POPC   C3B 5733  32.058  12.939   7.955
 5741POPC   C4B 5734  32.059  12.978   7.655
 5742POPC   NC3 5735  29.955  14.401   9.455
 5742POPC   PO4 5736  29.944  14.443   9.155
 5742POPC   GL1 5737  29.926  14.370   8.855
 5742POPC   GL2 5738  30.041  14.354   8.855
 5742POPC   C1A 5739  29.933  14.405   8.555
 5742POPC   D2A 5740  29.918  14.394   8.255
 5742POPC   C3A 5741  29.892  14.411   7.955
 5742POPC   C4A 5742  29.898  14.404   7.655
 5742POPC   C1B 5743  30.168  14.267   8.555
 5742POPC   C2B 5744  30.167  14.298   8.255
 5742POPC   C3B 5745  30.166  14.320   7.955
 5742POPC   C4B 5746  30.179  14.309   7.655
 5743POPC   NC3 5747   8.214  32.200   9.455
 5743POPC   PO4 5748   8.238  32.289   9.155
 5743POPC   GL1 5749   8.158  32.246   8.855
 5743POPC   GL2 5750   8.044  32.139   8.855
 5743POPC   C1A 5751   8.245  32.237   8.555
 5743POPC   D2A 5752   8.241  32.208   8.255
 5743POPC   C3A 5753   8.187  32.293   7.955
 5743POPC   C4A 5754   8.166  32.281   7.655
 5743POPC   C1B 5755   7.960  32.110   8.555
 5743POPC   C2B 5756   7.970  32.092   8.255
 5743POPC   C3B 5757   7.993  32.144   7.955
 5743POPC   C4B 5758   7.957  32.074   7.655
 5744POPC   NC3 5759  19.084   2.737   9.455
 5744POPC   PO4 5760  19.061   2.737   9.155
 5744POPC   GL1 5761  19.080   2.793   8.855
 5744POPC   GL2 5762  18.987   2.730   8.855
 5744POPC   C1A 5763  19.087   2.762   8.555
 5744POPC   D2A 5764  19.063   2.718   8.255
 5744POPC   C3A 5765  19.031   2.762   7.955
 5744POPC   C4A 5766  19.020   2.742   7.655
 5744POPC   C1B 5767  18.840   2.616   8.555
 5744POPC   C2B 5768  18.859   2.621   8.255
 5744POPC   C3B 5769  18.802   2.637   7.955
 5744POPC   C4B 5770  18.818   2.616   7.655
 5745POPC   NC3 5771  42.297  44.616   9.455
 5745POPC   PO4 5772  42.286  44.627   9.155
 5745POPC   GL1 5773  42.337  44.710   8.855
 5745POPC   GL2 5774  42.432  44.662   8.855
 5745POPC   C1A 5775  42.346  44.652   8.555
 5745POPC   D2A 5776  42.350  44.612   8.255
 5745POPC   C3A 5777  42.305  44.706   7.955
 5745POPC   C4A 5778  42.362  44.650   7.655
 5745POPC   C1B 5779  42.529  44.740   8.555
 5745POPC   C2B 5780  42.533  44.717   8.255
 5745POPC   C3B 5781  42.547  44.731   7.955
 5745POPC   C4B 5782  42.613  44.708   7.655
 5746POPC   NC3 5783  29.953  15.188   9.455
 5746POPC   PO4 5784  29.969  15.206   9.155
 5746POPC   GL1 5785  29.902  15.149   8.855
 5746POPC   GL2 5786  29.864  15.303   8.855
 5746POPC   C1A 5787  29.924  15.216   8.555
 5746POPC   D2A 5788  29.949  15.213   8.255
 5746POPC   C3A 5789  29.888  15.173   7.955
 5746POPC   C4A 5790  29.896  15.165   7.655
 5746POPC   C1B 5791  29.920  15.403   8.555
 5746POPC   C2B 5792  29.897  15.389   8.255
 5746POPC   C3B 5793  29.882  15.458   7.955
 5746POPC   C4B 5794  29.876  15.447   7.655
 5747POPC   NC3 5795   0.424  41.571   9.455
 5747POPC   PO4 5796   0.470  41.555   9.155
 5747POPC   GL1 5797   0.403  41.522   8.855
 5747POPC   GL2 5798   0.556  41.521   8.855
 5747POPC   C1A 5799   0.401  41.587   8.555
 5747POPC   D2A 5800   0.425  41.538   8.255
 5747POPC   C3A 5801   0.425  41.548   7.955
 5747POPC   C4A 5802   0.477  41.546   7.655
 5747POPC   C1B 5803   0.665  41.452   8.555
 5747POPC   C2B 5804   0.705  41.481   8.255
 5747POPC   C3B 5805   0.635  41.462   7.955
 5747POPC   C4B 5806   0.696  41.486   7.655
 5748POPC   NC3 5807  32.294  19.033   9.455
 5748POPC   PO4 5808  32.231  19.081   9.155
 5748POPC   GL1 5809  32.246  19.059   8.855
 5748POPC   GL2 5810  32.185  18.923   8.855
 5748POPC   C1A 5811  32.242  19.046   8.555
 5748POPC   D2A 5812  32.286  19.090   8.255
 5748POPC   C3A 5813  32.225  19.056   7.955
 5748POPC   C4A 5814  32.286  19.054   7.655
 5748POPC   C1B 5815  32.201  18.809   8.555
 5748POPC   C2B 5816  32.256  18.781   8.255
 5748POPC   C3B 5817  32.261  18.853   7.955
 5748POPC   C4B 5818  32.235  18.781   7.655
 5749POPC   NC3 5819  19.056  42.351   9.455
 5749POPC   PO4 5820  19.044  42.334   9.155
 5749POPC   GL1 5821  19.091  42.380   8.855
 5749POPC   GL2 5822  18.958  42.434   8.855
 5749POPC   C1A 5823  19.045  42.331   8.555
 5749POPC   D2A 5824  19.055  42.303   8.255
 5749POPC   C3A 5825  19.090  42.362   7.955
 5749POPC   C4A 5826  19.060  42.307   7.655
 5749POPC   C1B 5827  18.835  42.505   8.555
 5749POPC   C2B 5828  18.861  42.469   8.255
 5749POPC   C3B 5829  18.803  42.412   7.955
 5749POPC   C4B 5830  18.837  42.449   7.655
 5750POPC   NC3 5831   1.974  13.656   9.455
 5750POPC   PO4 5832   2.007  13.610   9.155
 5750POPC   GL1 5833   1.977  13.602   8.855
 5750POPC   GL2 5834   2.067  13.755   8.855
 5750POPC   C1A 5835   1.969  13.674   8.555
 5750POPC   D2A 5836   1.996  13.589   8.255
 5750POPC   C3A 5837   2.015  13.644   7.955
 5750POPC   C4A 5838   2.016  13.591   7.655
 5750POPC   C1B 5839   2.144  13.867   8.555
 5750POPC   C2B 5840   2.144  13.795   8.255
 5750POPC   C3B 5841   2.087  13.876   7.955
 5750POPC   C4B 5842   2.087  13.820   7.655
 5751POPC   NC3 5843   9.710  37.675   9.455
 5751POPC   PO4 5844   9.720  37.697   9.155
 5751POPC   GL1 5845   9.763  37.710   8.855
 5751POPC   GL2 5846   9.599  37.701   8.855
 5751POPC   C1A 5847   9.798  37.723   8.555
 5751POPC   D2A 5848   9.713  37.658   8.255
 5751POPC   C3A 5849   9.714  37.645   7.955
 5751POPC   C4A 5850   9.718  37.636   7.655
 5751POPC   C1B 5851   9.533  37.655   8.555
 5751POPC   C2B 5852   9.511  37.634   8.255
 5751POPC   C3B 5853   9.521  37.663   7.955
 5751POPC   C4B 5854   9.505  37.655   7.655
 5752POPC   NC3 5855  11.282  19.097   9.455
 5752POPC   PO4 5856  11.297  19.071   9.155
 5752POPC   GL1 5857  11.303  19.052   8.855
 5752POPC   GL2 5858  11.409  18.912   8.855
 5752POPC   C1A 5859  11.348  19.083   8.555
 5752POPC   D2A 5860  11.258  19.019   8.255
 5752POPC   C3A 5861  11.336  19.038   7.955
 5752POPC   C4A 5862  11.272  19.040   7.655
 5752POPC   C1B 5863  11.406  18.891   8.555
 5752POPC   C2B 5864  11.402  18.863   8.255
 5752POPC   C3B 5865  11.468  18.900   7.955
 5752POPC   C4B 5866  11.407  18.847   7.655
 5753POPC   NC3 5867  11.279  43.921   9.455
 5753POPC   PO4 5868  11.289  43.897   9.155
 5753POPC   GL1 5869  11.272  43.921   8.855
 5753POPC   GL2 5870  11.375  43.885   8.855
 5753POPC   C1A 5871  11.304  43.890   8.555
 5753POPC   D2A 5872  11.298  43.872   8.255
 5753POPC   C3A 5873  11.332  43.898   7.955
 5753POPC   C4A 5874  11.334  43.870   7.655
 5753POPC   C1B 5875  11.554  43.875   8.555
 5753POPC   C2B 5876  11.527  43.823   8.255
 5753POPC   C3B 5877  11.539  43.900   7.955
 5753POPC   C4B 5878  11.561  43.813   7.655
 5754POPC   NC3 5879  26.808  40.830   9.455
 5754POPC   PO4 5880  26.828  40.764   9.155
 5754POPC   GL1 5881  26.789  40.734   8.855
 5754POPC   GL2 5882  26.678  40.687   8.855
 5754POPC   C1A 5883  26.836  40.746   8.555
 5754POPC   D2A 5884  26.778  40.754   8.255
 5754POPC   C3A 5885  26.774  40.830   7.955
 5754POPC   C4A 5886  26.805  40.795   7.655
 5754POPC   C1B 5887  26.586  40.700   8.555
 5754POPC   C2B 5888  26.588  40.672   8.255
 5754POPC   C3B 5889  26.583  40.661   7.955
 5754POPC   C4B 5890  26.555  40.657   7.655
 5755POPC   NC3 5891  32.289  16.711   9.455
 5755POPC   PO4 5892  32.240  16.728   9.155
 5755POPC   GL1 5893  32.222  16.715   8.855
 5755POPC   GL2 5894  32.347  16.671   8.855
 5755POPC   C1A 5895  32.207  16.735   8.555
 5755POPC   D2A 5896  32.256  16.760   8.255
 5755POPC   C3A 5897  32.248  16.697   7.955
 5755POPC   C4A 5898  32.230  16.750   7.655
 5755POPC   C1B 5899  32.422  16.546   8.555
 5755POPC   C2B 5900  32.440  16.519   8.255
 5755POPC   C3B 5901  32.436  16.583   7.955
 5755POPC   C4B 5902  32.370  16.590   7.655
 5756POPC   NC3 5903  34.553   1.261   9.455
 5756POPC   PO4 5904  34.580   1.186   9.155
 5756POPC   GL1 5905  34.540   1.257   8.855
 5756POPC   GL2 5906  34.464   1.229   8.855
 5756POPC   C1A 5907  34.601   1.169   8.555
 5756POPC   D2A 5908  34.530   1.238   8.255
 5756POPC   C3A 5909  34.582   1.252   7.955
 5756POPC   C4A 5910  34.565   1.176   7.655
 5756POPC   C1B 5911  34.358   1.278   8.555
 5756POPC   C2B 5912  34.333   1.270   8.255
 5756POPC   C3B 5913  34.374   1.284   7.955
 5756POPC   C4B 5914  34.334   1.325   7.655
 5757POPC   NC3 5915   2.023  33.064   9.455
 5757POPC   PO4 5916   1.961  32.977   9.155
 5757POPC   GL1 5917   2.039  33.049   8.855
 5757POPC   GL2 5918   2.129  33.098   8.855
 5757POPC   C1A 5919   2.021  33.063   8.555
 5757POPC   D2A 5920   1.976  32.987   8.255
 5757POPC   C3A 5921   1.978  33.043   7.955
 5757POPC   C4A 5922   1.977  33.032   7.655
 5757POPC   C1B 5923   2.179  33.103   8.555
 5757POPC   C2B 5924   2.210  33.096   8.255
 5757POPC   C3B 5925   2.186  33.093   7.955
 5757POPC   C4B 5926   2.246  33.124   7.655
 5758POPC   NC3 5927  14.385  39.189   9.455
 5758POPC   PO4 5928  14.404  39.276   9.155
 5758POPC   GL1 5929  14.390  39.181   8.855
 5758POPC   GL2 5930  14.464  39.121   8.855
 5758POPC   C1A 5931  14.417  39.257   8.555
 5758POPC   D2A 5932  14.448  39.183   8.255
 5758POPC   C3A 5933  14.424  39.243   7.955
 5758POPC   C4A 5934  14.419  39.234   7.655
 5758POPC   C1B 5935  14.617  39.017   8.555
 5758POPC   C2B 5936  14.628  39.019   8.255
 5758POPC   C3B 5937  14.553  39.026   7.955
 5758POPC   C4B 5938  14.579  39.036   7.655
 5759POPC   NC3 5939  14.372  33.012   9.455
 5759POPC   PO4 5940  14.369  32.987   9.155
 5759POPC   GL1 5941  14.442  33.055   8.855
 5759POPC   GL2 5942  14.490  32.897   8.855
 5759POPC   C1A 5943  14.382  33.060   8.555
 5759POPC   D2A 5944  14.367  32.980   8.255
 5759POPC   C3A 5945  14.384  33.018   7.955
 5759POPC   C4A 5946  14.429  32.981   7.655
 5759POPC   C1B 5947  14.569  32.827   8.555
 5759POPC   C2B 5948  14.543  32.830   8.255
 5759POPC   C3B 5949  14.519  32.821   7.955
 5759POPC   C4B 5950  14.610  32.825   7.655
 5760POPC   NC3 5951  26.775  10.551   9.455
 5760POPC   PO4 5952  26.799  10.512   9.155
 5760POPC   GL1 5953  26.862  10.538   8.855
 5760POPC   GL2 5954  26.940  10.475   8.855
 5760POPC   C1A 5955  26.815  10.510   8.555
 5760POPC   D2A 5956  26.783  10.478   8.255
 5760POPC   C3A 5957  26.836  10.529   7.955
 5760POPC   C4A 5958  26.851  10.484   7.655
 5760POPC   C1B 5959  27.017  10.349   8.555
 5760POPC   C2B 5960  27.010  10.348   8.255
 5760POPC   C3B 5961  26.989  10.389   7.955
 5760POPC   C4B 5962  27.039  10.323   7.655
 5761POPC   NC3 5963  29.964   9.773   9.455
 5761POPC   PO4 5964  29.873   9.704   9.155
 5761POPC   GL1 5965  29.933   9.780   8.855
 5761POPC   GL2 5966  29.805   9.647   8.855
 5761POPC   C1A 5967  29.908   9.707   8.555
 5761POPC   D2A 5968  29.906   9.736   8.255
 5761POPC   C3A 5969  29.890   9.765   7.955
 5761POPC   C4A 5970  29.918   9.730   7.655
 5761POPC   C1B 5971  29.744   9.598   8.555
 5761POPC   C2B 5972  29.757   9.590   8.255
 5761POPC   C3B 5973  29.704   9.581   7.955
 5761POPC   C4B 5974  29.737   9.602   7.655
 5762POPC   NC3 5975  24.517  19.078   9.455
 5762POPC   PO4 5976  24.529  19.012   9.155
 5762POPC   GL1 5977  24.453  19.029   8.855
 5762POPC   GL2 5978  24.649  19.017   8.855
 5762POPC   C1A 5979  24.496  19.068   8.555
 5762POPC   D2A 5980  24.490  19.107   8.255
 5762POPC   C3A 5981  24.482  19.056   7.955
 5762POPC   C4A 5982  24.445  19.088   7.655
 5762POPC   C1B 5983  24.774  19.119   8.555
 5762POPC   C2B 5984  24.787  19.058   8.255
 5762POPC   C3B 5985  24.748  19.090   7.955
 5762POPC   C4B 5986  24.726  19.105   7.655
 5763POPC   NC3 5987  29.109  12.100   9.455
 5763POPC   PO4 5988  29.181  12.080   9.155
 5763POPC   GL1 5989  29.161  12.101   8.855
 5763POPC   GL2 5990  29.017  12.064   8.855
 5763POPC   C1A 5991  29.137  12.092   8.555
 5763POPC   D2A 5992  29.133  12.043   8.255
 5763POPC   C3A 5993  29.105  12.040   7.955
 5763POPC   C4A 5994  29.172  12.042   7.655
 5763POPC   C1B 5995  28.884  12.131   8.555
 5763POPC   C2B 5996  28.876  12.194   8.255
 5763POPC   C3B 5997  28.878  12.143   7.955
 5763POPC   C4B 5998  28.861  12.139   7.655
 5764POPC   NC3 5999   2.736  28.343   9.455
 5764POPC   PO4 6000   2.813  28.396   9.155
 5764POPC   GL1 6001   2.718  28.366   8.855
 5764POPC   GL2 6002   2.910  28.386   8.855
 5764POPC   C1A 6003   2.747  28.375   8.555
 5764POPC   D2A 6004   2.815  28.406   8.255
 5764POPC   C3A 6005   2.783  28.368   7.955
 5764POPC   C4A 6006   2.722  28.369   7.655
 5764POPC   C1B 6007   2.986  28.361   8.555
 5764POPC   C2B 6008   3.057  28.414   8.255
 5764POPC   C3B 6009   3.058  28.430   7.955
 5764POPC   C4B 6010   3.049  28.355   7.655
 5765POPC   NC3 6011  17.552  15.970   9.455
 5765POPC   PO4 6012  17.533  15.980   9.155
 5765POPC   GL1 6013  17.468  15.944   8.855
 5765POPC   GL2 6014  17.377  15.842   8.855
 5765POPC   C1A 6015  17.531  15.980   8.555
 5765POPC   D2A 6016  17.495  15.919   8.255
 5765POPC   C3A 6017  17.466  15.948   7.955
 5765POPC   C4A 6018  17.481  15.999   7.655
 5765POPC   C1B 6019  17.278  15.778   8.555
 5765POPC   C2B 6020  17.311  15.769   8.255
 5765POPC   C3B 6021  17.350  15.805   7.955
 5765POPC   C4B 6022  17.315  15.854   7.655
 5766POPC   NC3 6023  18.267  31.522   9.455
 5766POPC   PO4 6024  18.236  31.491   9.155
 5766POPC   GL1 6025  18.287  31.447   8.855
 5766POPC   GL2 6026  18.408  31.408   8.855
 5766POPC   C1A 6027  18.265  31.489   8.555
 5766POPC   D2A 6028  18.259  31.458   8.255
 5766POPC   C3A 6029  18.278  31.515   7.955
 5766POPC   C4A 6030  18.274  31.500   7.655
 5766POPC   C1B 6031  18.497  31.349   8.555
 5766POPC   C2B 6032  18.547  31.384   8.255
 5766POPC   C3B 6033  18.491  31.413   7.955
 5766POPC   C4B 6034  18.535  31.405   7.655
 5767POPC   NC3 6035  38.485  39.278   9.455
 5767POPC   PO4 6036  38.448  39.190   9.155
 5767POPC   GL1 6037  38.437  39.246   8.855
 5767POPC   GL2 6038  38.462  39.066   8.855
 5767POPC   C1A 6039  38.499  39.225   8.555
 5767POPC   D2A 6040  38.437  39.242   8.255
 5767POPC   C3A 6041  38.486  39.238   7.955
 5767POPC   C4A 6042  38.441  39.277   7.655
 5767POPC   C1B 6043  38.478  38.961   8.555
 5767POPC   C2B 6044  38.476  38.932   8.255
 5767POPC   C3B 6045  38.441  39.000   7.955
 5767POPC   C4B 6046  38.440  38.967   7.655
 5768POPC   NC3 6047  36.159  39.223   9.455
 5768POPC   PO4 6048  36.102  39.217   9.155
 5768POPC   GL1 6049  36.083  39.214   8.855
 5768POPC   GL2 6050  36.103  39.110   8.855
 5768POPC   C1A 6051  36.092  39.227   8.555
 5768POPC   D2A 6052  36.116  39.191   8.255
 5768POPC   C3A 6053  36.096  39.252   7.955
 5768POPC   C4A 6054  36.107  39.270   7.655
 5768POPC   C1B 6055  36.042  38.960   8.555
 5768POPC   C2B 6056  36.059  39.022   8.255
 5768POPC   C3B 6057  36.112  38.994   7.955
 5768POPC   C4B 6058  36.115  38.978   7.655
 5769POPC   NC3 6059  22.174  41.608   9.455
 5769POPC   PO4 6060  22.162  41.607   9.155
 5769POPC   GL1 6061  22.137  41.533   8.855
 5769POPC   GL2 6062  22.078  41.513   8.855
 5769POPC   C1A 6063  22.143  41.536   8.555
 5769POPC   D2A 6064  22.186  41.528   8.255
 5769POPC   C3A 6065  22.151  41.548   7.955
 5769POPC   C4A 6066  22.136  41.543   7.655
 5769POPC   C1B 6067  21.998  41.410   8.555
 5769POPC   C2B 6068  21.982  41.438   8.255
 5769POPC   C3B 6069  21.969  41.403   7.955
 5769POPC   C4B 6070  21.967  41.396   7.655
 5770POPC   NC3 6071   5.142  34.603   9.455
 5770POPC   PO4 6072   5.079  34.553   9.155
 5770POPC   GL1 6073   5.091  34.594   8.855
 5770POPC   GL2 6074   5.167  34.621   8.855
 5770POPC   C1A 6075   5.093  34.580   8.555
 5770POPC   D2A 6076   5.130  34.573   8.255
 5770POPC   C3A 6077   5.067  34.591   7.955
 5770POPC   C4A 6078   5.086  34.623   7.655
 5770POPC   C1B 6079   5.328  34.647   8.555
 5770POPC   C2B 6080   5.338  34.644   8.255
 5770POPC   C3B 6081   5.353  34.696   7.955
 5770POPC   C4B 6082   5.355  34.641   7.655
 5771POPC   NC3 6083  14.356  40.808   9.455
 5771POPC   PO4 6084  14.418  40.808   9.155
 5771POPC   GL1 6085  14.407  40.764   8.855
 5771POPC   GL2 6086  14.466  40.701   8.855
 5771POPC   C1A 6087  14.390  40.816   8.555
 5771POPC   D2A 6088  14.376  40.813   8.255
 5771POPC   C3A 6089  14.446  40.734   7.955
 5771POPC   C4A 6090  14.424  40.776   7.655
 5771POPC   C1B 6091  14.608  40.698   8.555
 5771POPC   C2B 6092  14.606  40.697   8.255
 5771POPC   C3B 6093  14.605  40.654   7.955
 5771POPC   C4B 6094  14.627  40.635   7.655
 5772POPC   NC3 6095   9.755  28.328   9.455
 5772POPC   PO4 6096   9.789  28.352   9.155
 5772POPC   GL1 6097   9.750  28.336   8.855
 5772POPC   GL2 6098   9.711  28.270   8.855
 5772POPC   C1A 6099   9.744  28.363   8.555
 5772POPC   D2A 6100   9.777  28.410   8.255
 5772POPC   C3A 6101   9.703  28.331   7.955
 5772POPC   C4A 6102   9.773  28.350   7.655
 5772POPC   C1B 6103   9.628  28.158   8.555
 5772POPC   C2B 6104   9.689  28.098   8.255
 5772POPC   C3B 6105   9.621  28.104   7.955
 5772POPC   C4B 6106   9.694  28.110   7.655
 5773POPC   NC3 6107   6.665  38.444   9.455
 5773POPC   PO4 6108   6.626  38.465   9.155
 5773POPC   GL1 6109   6.665  38.492   8.855
 5773POPC   GL2 6110   6.637  38.331   8.855
 5773POPC   C1A 6111   6.598  38.420   8.555
 5773POPC   D2A 6112   6.600  38.409   8.255
 5773POPC   C3A 6113   6.666  38.462   7.955
 5773POPC   C4A 6114   6.658  38.501   7.655
 5773POPC   C1B 6115   6.671  38.252   8.555
 5773POPC   C2B 6116   6.683  38.246   8.255
 5773POPC   C3B 6117   6.653  38.198   7.955
 5773POPC   C4B 6118   6.640  38.242   7.655
 5774POPC   NC3 6119   1.949  26.049   9.455
 5774POPC   PO4 6120   2.022  25.992   9.155
 5774POPC   GL1 6121   1.945  26.048   8.855
 5774POPC   GL2 6122   1.933  26.184   8.855
 5774POPC   C1A 6123   1.960  26.069   8.555
 5774POPC   D2A 6124   2.032  26.012   8.255
 5774POPC   C3A 6125   1.983  26.032   7.955
 5774POPC   C4A 6126   1.945  26.079   7.655
 5774POPC   C1B 6127   1.853  26.255   8.555
 5774POPC   C2B 6128   1.890  26.289   8.255
 5774POPC   C3B 6129   1.892  26.250   7.955
 5774POPC   C4B 6130   1.836  26.257   7.655
 5775POPC   NC3 6131  26.071   7.445   9.455
 5775POPC   PO4 6132  25.999   7.411   9.155
 5775POPC   GL1 6133  26.026   7.372   8.855
 5775POPC   GL2 6134  26.144   7.438   8.855
 5775POPC   C1A 6135  26.013   7.417   8.555
 5775POPC   D2A 6136  26.085   7.378   8.255
 5775POPC   C3A 6137  26.025   7.469   7.955
 5775POPC   C4A 6138  26.056   7.459   7.655
 5775POPC   C1B 6139  26.280   7.366   8.555
 5775POPC   C2B 6140  26.270   7.360   8.255
 5775POPC   C3B 6141  26.261   7.350   7.955
 5775POPC   C4B 6142  26.257   7.331   7.655
 5776POPC   NC3 6143  19.849  43.080   9.455
 5776POPC   PO4 6144  19.815  43.109   9.155
 5776POPC   GL1 6145  19.844  43.121   8.855
 5776POPC   GL2 6146  19.998  43.101   8.855
 5776POPC   C1A 6147  19.796  43.104   8.555
 5776POPC   D2A 6148  19.844  43.071   8.255
 5776POPC   C3A 6149  19.799  43.064   7.955
 5776POPC   C4A 6150  19.880  43.119   7.655
 5776POPC   C1B 6151  20.042  43.080   8.555
 5776POPC   C2B 6152  20.049  43.138   8.255
 5776POPC   C3B 6153  20.052  43.065   7.955
 5776POPC   C4B 6154  20.115  43.114   7.655
 5777POPC   NC3 6155  35.390  43.936   9.455
 5777POPC   PO4 6156  35.309  43.921   9.155
 5777POPC   GL1 6157  35.381  43.853   8.855
 5777POPC   GL2 6158  35.514  43.867   8.855
 5777POPC   C1A 6159  35.314  43.853   8.555
 5777POPC   D2A 6160  35.329  43.927   8.255
 5777POPC   C3A 6161  35.358  43.849   7.955
 5777POPC   C4A 6162  35.393  43.858   7.655
 5777POPC   C1B 6163  35.596  43.750   8.555
 5777POPC   C2B 6164  35.571  43.802   8.255
 5777POPC   C3B 6165  35.562  43.818   7.955
 5777POPC   C4B 6166  35.571  43.815   7.655
 5778POPC   NC3 6167  37.691  22.963   9.455
 5778POPC   PO4 6168  37.718  22.986   9.155
 5778POPC   GL1 6169  37.634  22.952   8.855
 5778POPC   GL2 6170  37.849  22.932   8.855
 5778POPC   C1A 6171  37.713  22.986   8.555
 5778POPC   D2A 6172  37.633  22.927   8.255
 5778POPC   C3A 6173  37.631  22.947   7.955
 5778POPC   C4A 6174  37.664  22.910   7.655
 5778POPC   C1B 6175  37.972  22.917   8.555
 5778POPC   C2B 6176  37.941  22.965   8.255
 5778POPC   C3B 6177  37.968  22.930   7.955
 5778POPC   C4B 6178  37.919  22.950   7.655
 5779POPC   NC3 6179  11.309   8.229   9.455
 5779POPC   PO4 6180  11.252   8.239   9.155
 5779POPC   GL1 6181  11.320   8.190   8.855
 5779POPC   GL2 6182  11.226   8.128   8.855
 5779POPC   C1A 6183  11.251   8.179   8.555
 5779POPC   D2A 6184  11.285   8.152   8.255
 5779POPC   C3A 6185  11.288   8.191   7.955
 5779POPC   C4A 6186  11.319   8.228   7.655
 5779POPC   C1B 6187  11.104   8.034   8.555
 5779POPC   C2B 6188  11.112   8.030   8.255
 5779POPC   C3B 6189  11.149   7.978   7.955
 5779POPC   C4B 6190  11.089   8.009   7.655
 5780POPC   NC3 6191  15.968  40.822   9.455
 5780POPC   PO4 6192  15.988  40.735   9.155
 5780POPC   GL1 6193  15.992  40.814   8.855
 5780POPC   GL2 6194  16.095  40.784   8.855
 5780POPC   C1A 6195  15.993  40.776   8.555
 5780POPC   D2A 6196  15.939  40.774   8.255
 5780POPC   C3A 6197  15.916  40.741   7.955
 5780POPC   C4A 6198  15.938  40.801   7.655
 5780POPC   C1B 6199  16.196  40.849   8.555
 5780POPC   C2B 6200  16.222  40.913   8.255
 5780POPC   C3B 6201  16.180  40.865   7.955
 5780POPC   C4B 6202  16.169  40.830   7.655
 5781POPC   NC3 6203  21.395  36.924   9.455
 5781POPC   PO4 6204  21.396  36.944   9.155
 5781POPC   GL1 6205  21.392  36.923   8.855
 5781POPC   GL2 6206  21.277  36.799   8.855
 5781POPC   C1A 6207  21.343  36.860   8.555
 5781POPC   D2A 6208  21.397  36.900   8.255
 5781POPC   C3A 6209  21.427  36.910   7.955
 5781POPC   C4A 6210  21.389  36.871   7.655
 5781POPC   C1B 6211  21.186  36.704   8.555
 5781POPC   C2B 6212  21.182  36.741   8.255
 5781POPC   C3B 6213  21.198  36.716   7.955
 5781POPC   C4B 6214  21.180  36.725   7.655
 5782POPC   NC3 6215  31.445  20.596   9.455
 5782POPC   PO4 6216  31.435  20.651   9.155
 5782POPC   GL1 6217  31.493  20.655   8.855
 5782POPC   GL2 6218  31.584  20.716   8.855
 5782POPC   C1A 6219  31.448  20.601   8.555
 5782POPC   D2A 6220  31.470  20.601   8.255
 5782POPC   C3A 6221  31.497  20.638   7.955
 5782POPC   C4A 6222  31.492  20.643   7.655
 5782POPC   C1B 6223  31.625  20.769   8.555
 5782POPC   C2B 6224  31.685  20.772   8.255
 5782POPC   C3B 6225  31.656  20.744   7.955
 5782POPC   C4B 6226  31.615  20.828   7.655
 5783POPC   NC3 6227  36.146   0.455   9.455
 5783POPC   PO4 6228  36.112   0.412   9.155
 5783POPC   GL1 6229  36.159   0.408   8.855
 5783POPC   GL2 6230  36.035   0.545   8.855
 5783POPC   C1A 6231  36.094   0.396   8.555
 5783POPC   D2A 6232  36.090   0.462   8.255
 5783POPC   C3A 6233  36.097   0.448   7.955
 5783POPC   C4A 6234  36.137   0.392   7.655
 5783POPC   C1B 6235  35.947   0.591   8.555
 5783POPC   C2B 6236  35.962   0.560   8.255
 5783POPC   C3B 6237  35.907   0.642   7.955
 5783POPC   C4B 6238  35.899   0.593   7.655
 5784POPC   NC3 6239  12.896  39.271   9.455
 5784POPC   PO4 6240  12.869  39.233   9.155
 5784POPC   GL1 6241  12.859  39.185   8.855
 5784POPC   GL2 6242  12.867  39.321   8.855
 5784POPC   C1A 6243  12.868  39.253   8.555
 5784POPC   D2A 6244  12.826  39.266   8.255
 5784POPC   C3A 6245  12.895  39.229   7.955
 5784POPC   C4A 6246  12.897  39.255   7.655
 5784POPC   C1B 6247  12.865  39.432   8.555
 5784POPC   C2B 6248  12.870  39.495   8.255
 5784POPC   C3B 6249  12.877  39.449   7.955
 5784POPC   C4B 6250  12.817  39.514   7.655
 5785POPC   NC3 6251  10.529  29.165   9.455
 5785POPC   PO4 6252  10.513  29.158   9.155
 5785POPC   GL1 6253  10.545  29.110   8.855
 5785POPC   GL2 6254  10.573  29.258   8.855
 5785POPC   C1A 6255  10.493  29.178   8.555
 5785POPC   D2A 6256  10.529  29.122   8.255
 5785POPC   C3A 6257  10.564  29.138   7.955
 5785POPC   C4A 6258  10.517  29.161   7.655
 5785POPC   C1B 6259  10.632  29.341   8.555
 5785POPC   C2B 6260  10.680  29.375   8.255
 5785POPC   C3B 6261  10.600  29.385   7.955
 5785POPC   C4B 6262  10.687  29.403   7.655
 5786POPC   NC3 6263  30.721  16.704   9.455
 5786POPC   PO4 6264  30.670  16.753   9.155
 5786POPC   GL1 6265  30.659  16.696   8.855
 5786POPC   GL2 6266  30.846  16.744   8.855
 5786POPC   C1A 6267  30.717  16.683   8.555
 5786POPC   D2A 6268  30.658  16.779   8.255
 5786POPC   C3A 6269  30.711  16.727   7.955
 5786POPC   C4A 6270  30.696  16.774   7.655
 5786POPC   C1B 6271  30.948  16.807   8.555
 5786POPC   C2B 6272  30.975  16.796   8.255
 5786POPC   C3B 6273  30.980  16.847   7.955
 5786POPC   C4B 6274  30.934  16.857   7.655
 5787POPC   NC3 6275  31.490  26.827   9.455
 5787POPC   PO4 6276  31.479  26.837   9.155
 5787POPC   GL1 6277  31.473  26.798   8.855
 5787POPC   GL2 6278  31.420  26.757   8.855
 5787POPC   C1A 6279  31.426  26.848   8.555
 5787POPC   D2A 6280  31.494  26.811   8.255
 5787POPC   C3A 6281  31.462  26.848   7.955
 5787POPC   C4A 6282  31.432  26.775   7.655
 5787POPC   C1B 6283  31.298  26.579   8.555
 5787POPC   C2B 6284  31.306  26.567   8.255
 5787POPC   C3B 6285  31.372  26.643   7.955
 5787POPC   C4B 6286  31.373  26.647   7.655
 5788POPC   NC3 6287  32.227  34.616   9.455
 5788POPC   PO4 6288  32.242  34.530   9.155
 5788POPC   GL1 6289  32.218  34.550   8.855
 5788POPC   GL2 6290  32.336  34.481   8.855
 5788POPC   C1A 6291  32.278  34.588   8.555
 5788POPC   D2A 6292  32.226  34.552   8.255
 5788POPC   C3A 6293  32.241  34.572   7.955
 5788POPC   C4A 6294  32.284  34.567   7.655
 5788POPC   C1B 6295  32.406  34.395   8.555
 5788POPC   C2B 6296  32.349  34.342   8.255
 5788POPC   C3B 6297  32.375  34.380   7.955
 5788POPC   C4B 6298  32.399  34.328   7.655
 5789POPC   NC3 6299  40.763   6.596   9.455
 5789POPC   PO4 6300  40.746   6.635   9.155
 5789POPC   GL1 6301  40.781   6.678   8.855
 5789POPC   GL2 6302  40.751   6.807   8.855
 5789POPC   C1A 6303  40.740   6.665   8.555
 5789POPC   D2A 6304  40.801   6.681   8.255
 5789POPC   C3A 6305  40.803   6.636   7.955
 5789POPC   C4A 6306  40.771   6.692   7.655
 5789POPC   C1B 6307  40.652   6.841   8.555
 5789POPC   C2B 6308  40.706   6.914   8.255
 5789POPC   C3B 6309  40.729   6.836   7.955
 5789POPC   C4B 6310  40.651   6.880   7.655
 5790POPC   NC3 6311  36.920   2.007   9.455
 5790POPC   PO4 6312  36.898   1.965   9.155
 5790POPC   GL1 6313  36.929   2.039   8.855
 5790POPC   GL2 6314  36.756   2.103   8.855
 5790POPC   C1A 6315  36.940   2.003   8.555
 5790POPC   D2A 6316  36.911   2.033   8.255
 5790POPC   C3A 6317  36.904   2.020   7.955
 5790POPC   C4A 6318  36.932   1.988   7.655
 5790POPC   C1B 6319  36.698   2.122   8.555
 5790POPC   C2B 6320  36.643   2.158   8.255
 5790POPC   C3B 6321  36.736   2.134   7.955
 5790POPC   C4B 6322  36.657   2.111   7.655
 5791POPC   NC3 6323  32.223  22.195   9.455
 5791POPC   PO4 6324  32.223  22.116   9.155
 5791POPC   GL1 6325  32.296  22.206   8.855
 5791POPC   GL2 6326  32.148  22.117   8.855
 5791POPC   C1A 6327  32.267  22.126   8.555
 5791POPC   D2A 6328  32.251  22.201   8.255
 5791POPC   C3A 6329  32.232  22.209   7.955
 5791POPC   C4A 6330  32.201  22.202   7.655
 5791POPC   C1B 6331  32.081  21.962   8.555
 5791POPC   C2B 6332  32.048  22.004   8.255
 5791POPC   C3B 6333  32.055  21.944   7.955
 5791POPC   C4B 6334  32.058  21.937   7.655
 5792POPC   NC3 6335   8.202  20.595   9.455
 5792POPC   PO4 6336   8.226  20.610   9.155
 5792POPC   GL1 6337   8.176  20.593   8.855
 5792POPC   GL2 6338   8.103  20.642   8.855
 5792POPC   C1A 6339   8.173  20.589   8.555
 5792POPC   D2A 6340   8.155  20.632   8.255
 5792POPC   C3A 6341   8.204  20.617   7.955
 5792POPC   C4A 6342   8.168  20.569   7.655
 5792POPC   C1B 6343   7.964  20.667   8.555
 5792POPC   C2B 6344   7.929  20.662   8.255
 5792POPC   C3B 6345   7.920  20.743   7.955
 5792POPC   C4B 6346   7.993  20.702   7.655
 5793POPC   NC3 6347   2.772  41.606   9.455
 5793POPC   PO4 6348   2.797  41.537   9.155
 5793POPC   GL1 6349   2.795  41.538   8.855
 5793POPC   GL2 6350   2.632  41.554   8.855
 5793POPC   C1A 6351   2.796  41.551   8.555
 5793POPC   D2A 6352   2.784  41.545   8.255
 5793POPC   C3A 6353   2.716  41.587   7.955
 5793POPC   C4A 6354   2.754  41.552   7.655
 5793POPC   C1B 6355   2.576  41.410   8.555
 5793POPC   C2B 6356   2.532  41.428   8.255
 5793POPC   C3B 6357   2.557  41.443   7.955
 5793POPC   C4B 6358   2.492  41.411   7.655
 5794POPC   NC3 6359  40.812  38.461   9.455
 5794POPC   PO4 6360  40.797  38.436   9.155
 5794POPC   GL1 6361  40.773  38.469   8.855
 5794POPC   GL2 6362  40.847  38.370   8.855
 5794POPC   C1A 6363  40.738  38.492   8.555
 5794POPC   D2A 6364  40.779  38.463   8.255
 5794POPC   C3A 6365  40.776  38.502   7.955
 5794POPC   C4A 6366  40.767  38.426   7.655
 5794POPC   C1B 6367  40.994  38.239   8.555
 5794POPC   C2B 6368  40.949  38.300   8.255
 5794POPC   C3B 6369  40.965  38.220   7.955
 5794POPC   C4B 6370  40.914  38.233   7.655
 5795POPC   NC3 6371  42.347   1.212   9.455
 5795POPC   PO4 6372  42.368   1.222   9.155
 5795POPC   GL1 6373  42.361   1.172   8.855
 5795POPC   GL2 6374  42.243   1.135   8.855
 5795POPC   C1A 6375  42.295   1.182   8.555
 5795POPC   D2A 6376  42.291   1.239   8.255
 5795POPC   C3A 6377  42.294   1.185   7.955
 5795POPC   C4A 6378  42.366   1.252   7.655
 5795POPC   C1B 6379  42.159   1.055   8.555
 5795POPC   C2B 6380  42.132   1.072   8.255
 5795POPC   C3B 6381  42.143   1.020   7.955
 5795POPC   C4B 6382  42.181   1.022   7.655
 5796POPC   NC3 6383  33.029  28.393   9.455
 5796POPC   PO4 6384  33.065  28.343   9.155
 5796POPC   GL1 6385  33.028  28.408   8.855
 5796POPC   GL2 6386  33.103  28.307   8.855
 5796POPC   C1A 6387  33.058  28.366   8.555
 5796POPC   D2A 6388  33.072  28.360   8.255
 5796POPC   C3A 6389  33.061  28.326   7.955
 5796POPC   C4A 6390  32.986  28.383   7.655
 5796POPC   C1B 6391  33.270  28.296   8.555
 5796POPC   C2B 6392  33.242  28.229   8.255
 5796POPC   C3B 6393  33.249  28.291   7.955
 5796POPC   C4B 6394  33.218  28.307   7.655
 5797POPC   NC3 6395  18.280  33.808   9.455
 5797POPC   PO4 6396  18.264  33.773   9.155
 5797POPC   GL1 6397  18.282  33.806   8.855
 5797POPC   GL2 6398  18.192  33.925   8.855
 5797POPC   C1A 6399  18.270  33.770   8.555
 5797POPC   D2A 6400  18.238  33.827   8.255
 5797POPC   C3A 6401  18.263  33.768   7.955
 5797POPC   C4A 6402  18.310  33.784   7.655
 5797POPC   C1B 6403  18.121  34.023   8.555
 5797POPC   C2B 6404  18.196  34.034   8.255
 5797POPC   C3B 6405  18.120  34.045   7.955
 5797POPC   C4B 6406  18.180  34.046   7.655
 5798POPC   NC3 6407  31.480  36.149   9.455
 5798POPC   PO4 6408  31.430  36.101   9.155
 5798POPC   GL1 6409  31.437  36.083   8.855
 5798POPC   GL2 6410  31.498  36.031   8.855
 5798POPC   C1A 6411  31.499  36.081   8.555
 5798POPC   D2A 6412  31.438  36.104   8.255
 5798POPC   C3A 6413  31.503  36.168   7.955
 5798POPC   C4A 6414  31.512  36.109   7.655
 5798POPC   C1B 6415  31.589  35.924   8.555
 5798POPC   C2B 6416  31.635  35.862   8.255
 5798POPC   C3B 6417  31.610  35.865   7.955
 5798POPC   C4B 6418  31.563  35.873   7.655
 5799POPC   NC3 6419  11.349  19.813   9.455
 5799POPC   PO4 6420  11.257  19.838   9.155
 5799POPC   GL1 6421  11.259  19.882   8.855
 5799POPC   GL2 6422  11.186  19.722   8.855
 5799POPC   C1A 6423  11.333  19.852   8.555
 5799POPC   D2A 6424  11.251  19.853   8.255
 5799POPC   C3A 6425  11.347  19.873   7.955
 5799POPC   C4A 6426  11.321  19.834   7.655
 5799POPC   C1B 6427  11.129  19.639   8.555
 5799POPC   C2B 6428  11.116  19.684   8.255
 5799POPC   C3B 6429  11.135  19.667   7.955
 5799POPC   C4B 6430  11.181  19.605   7.655
 5800POPC   NC3 6431  18.268  14.417   9.455
 5800POPC   PO4 6432  18.260  14.406   9.155
 5800POPC   GL1 6433  18.276  14.427   8.855
 5800POPC   GL2 6434  18.318  14.351   8.855
 5800POPC   C1A 6435  18.324  14.409   8.555
 5800POPC   D2A 6436  18.252  14.433   8.255
 5800POPC   C3A 6437  18.314  14.398   7.955
 5800POPC   C4A 6438  18.261  14.395   7.655
 5800POPC   C1B 6439  18.449  14.155   8.555
 5800POPC   C2B 6440  18.439  14.204   8.255
 5800POPC   C3B 6441  18.409  14.214   7.955
 5800POPC   C4B 6442  18.455  14.241   7.655
 5801POPC   NC3 6443  20.598  42.377   9.455
 5801POPC   PO4 6444  20.591  42.347   9.155
 5801POPC   GL1 6445  20.587  42.384   8.855
 5801POPC   GL2 6446  20.628  42.210   8.855
 5801POPC   C1A 6447  20.619  42.304   8.555
 5801POPC   D2A 6448  20.588  42.360   8.255
 5801POPC   C3A 6449  20.658  42.308   7.955
 5801POPC   C4A 6450  20.616  42.350   7.655
 5801POPC   C1B 6451  20.533  42.058   8.555
 5801POPC   C2B 6452  20.623  42.045   8.255
 5801POPC   C3B 6453  20.575  42.077   7.955
 5801POPC   C4B 6454  20.551  42.054   7.655
 5802POPC   NC3 6455   7.436  27.633   9.455
 5802POPC   PO4 6456   7.452  27.624   9.155
 5802POPC   GL1 6457   7.467  27.624   8.855
 5802POPC   GL2 6458   7.289  27.632   8.855
 5802POPC   C1A 6459   7.430  27.592   8.555
 5802POPC   D2A 6460   7.403  27.603   8.255
 5802POPC   C3A 6461   7.381  27.632   7.955
 5802POPC   C4A 6462   7.468  27.589   7.655
 5802POPC   C1B 6463   7.270  27.741   8.555
 5802POPC   C2B 6464   7.222  27.785   8.255
 5802POPC   C3B 6465   7.190  27.723   7.955
 5802POPC   C4B 6466   7.262  27.789   7.655
 5803POPC   NC3 6467   0.481  40.737   9.455
 5803POPC   PO4 6468   0.444  40.809   9.155
 5803POPC   GL1 6469   0.484  40.748   8.855
 5803POPC   GL2 6470   0.434  40.690   8.855
 5803POPC   C1A 6471   0.478  40.788   8.555
 5803POPC   D2A 6472   0.427  40.832   8.255
 5803POPC   C3A 6473   0.480  40.827   7.955
 5803POPC   C4A 6474   0.421  40.806   7.655
 5803POPC   C1B 6475   0.405  40.579   8.555
 5803POPC   C2B 6476   0.454  40.533   8.255
 5803POPC   C3B 6477   0.409  40.487   7.955
 5803POPC   C4B 6478   0.457  40.570   7.655
 5804POPC   NC3 6479   4.340  19.828   9.455
 5804POPC   PO4 6480   4.301  19.813   9.155
 5804POPC   GL1 6481   4.312  19.836   8.855
 5804POPC   GL2 6482   4.149  19.861   8.855
 5804POPC   C1A 6483   4.335  19.817   8.555
 5804POPC   D2A 6484   4.319  19.882   8.255
 5804POPC   C3A 6485   4.292  19.798   7.955
 5804POPC   C4A 6486   4.317  19.880   7.655
 5804POPC   C1B 6487   4.048  19.921   8.555
 5804POPC   C2B 6488   4.098  19.943   8.255
 5804POPC   C3B 6489   4.055  19.909   7.955
 5804POPC   C4B 6490   4.120  19.936   7.655
 5805POPC   NC3 6491  36.156  18.241   9.455
 5805POPC   PO4 6492  36.150  18.323   9.155
 5805POPC   GL1 6493  36.112  18.278   8.855
 5805POPC   GL2 6494  36.248  18.380   8.855
 5805POPC   C1A 6495  36.098  18.281   8.555
 5805POPC   D2A 6496  36.107  18.252   8.255
 5805POPC   C3A 6497  36.124  18.320   7.955
 5805POPC   C4A 6498  36.078  18.293   7.655
 5805POPC   C1B 6499  36.346  18.368   8.555
 5805POPC   C2B 6500  36.402  18.344   8.255
 5805POPC   C3B 6501  36.326  18.366   7.955
 5805POPC   C4B 6502  36.379  18.392   7.655
 5806POPC   NC3 6503  41.592  22.212   9.455
 5806POPC   PO4 6504  41.548  22.159   9.155
 5806POPC   GL1 6505  41.549  22.195   8.855
 5806POPC   GL2 6506  41.638  22.071   8.855
 5806POPC   C1A 6507  41.599  22.193   8.555
 5806POPC   D2A 6508  41.606  22.207   8.255
 5806POPC   C3A 6509  41.583  22.139   7.955
 5806POPC   C4A 6510  41.583  22.149   7.655
 5806POPC   C1B 6511  41.802  22.027   8.555
 5806POPC   C2B 6512  41.780  22.005   8.255
 5806POPC   C3B 6513  41.798  22.025   7.955
 5806POPC   C4B 6514  41.742  22.003   7.655
 5807POPC   NC3 6515  22.192  33.818   9.455
 5807POPC   PO4 6516  22.127  33.768   9.155
 5807POPC   GL1 6517  22.179  33.817   8.855
 5807POPC   GL2 6518  22.040  33.878   8.855
 5807POPC   C1A 6519  22.210  33.842   8.555
 5807POPC   D2A 6520  22.154  33.809   8.255
 5807POPC   C3A 6521  22.139  33.801   7.955
 5807POPC   C4A 6522  22.136  33.845   7.655
 5807POPC   C1B 6523  21.914  33.864   8.555
 5807POPC   C2B 6524  21.963  33.899   8.255
 5807POPC   C3B 6525  21.975  33.922   7.955
 5807POPC   C4B 6526  21.970  33.940   7.655
 5808POPC   NC3 6527  15.209  33.758   9.455
 5808POPC   PO4 6528  15.198  33.835   9.155
 5808POPC   GL1 6529  15.170  33.810   8.855
 5808POPC   GL2 6530  15.272  33.766   8.855
 5808POPC   C1A 6531  15.149  33.827   8.555
 5808POPC   D2A 6532  15.179  33.761   8.255
 5808POPC   C3A 6533  15.132  33.829   7.955
 5808POPC   C4A 6534  15.203  33.825   7.655
 5808POPC   C1B 6535  15.387  33.754   8.555
 5808POPC   C2B 6536  15.457  33.763   8.255
 5808POPC   C3B 6537  15.409  33.769   7.955
 5808POPC   C4B 6538  15.378  33.745   7.655
 5809POPC   NC3 6539  27.605  44.620   9.455
 5809POPC   PO4 6540  27.596  44.652   9.155
 5809POPC   GL1 6541  27.596  44.619   8.855
 5809POPC   GL2 6542  27.533  44.736   8.855
 5809POPC   C1A 6543  27.640  44.662   8.555
 5809POPC   D2A 6544  27.616  44.681   8.255
 5809POPC   C3A 6545  27.594  44.655   7.955
 5809POPC   C4A 6546  27.576  44.622   7.655
 5809POPC   C1B 6547  27.476  44.876   8.555
 5809POPC   C2B 6548  27.525  44.843   8.255
 5809POPC   C3B 6549  27.491  44.844   7.955
 5809POPC   C4B 6550  27.498  44.842   7.655
 5810POPC   NC3 6551  35.317  36.134   9.455
 5810POPC   PO4 6552  35.396  36.136   9.155
 5810POPC   GL1 6553  35.338  36.144   8.855
 5810POPC   GL2 6554  35.319  36.277   8.855
 5810POPC   C1A 6555  35.310  36.132   8.555
 5810POPC   D2A 6556  35.374  36.152   8.255
 5810POPC   C3A 6557  35.367  36.116   7.955
 5810POPC   C4A 6558  35.364  36.100   7.655
 5810POPC   C1B 6559  35.307  36.390   8.555
 5810POPC   C2B 6560  35.286  36.350   8.255
 5810POPC   C3B 6561  35.291  36.410   7.955
 5810POPC   C4B 6562  35.230  36.335   7.655
 5811POPC   NC3 6563  29.936  23.691   9.455
 5811POPC   PO4 6564  29.949  23.757   9.155
 5811POPC   GL1 6565  29.890  23.692   8.855
 5811POPC   GL2 6566  29.981  23.628   8.855
 5811POPC   C1A 6567  29.936  23.669   8.555
 5811POPC   D2A 6568  29.886  23.693   8.255
 5811POPC   C3A 6569  29.874  23.707   7.955
 5811POPC   C4A 6570  29.926  23.689   7.655
 5811POPC   C1B 6571  29.977  23.438   8.555
 5811POPC   C2B 6572  30.010  23.511   8.255
 5811POPC   C3B 6573  30.003  23.459   7.955
 5811POPC   C4B 6574  30.008  23.503   7.655
 5812POPC   NC3 6575  44.685  22.965   9.455
 5812POPC   PO4 6576  44.693  22.979   9.155
 5812POPC   GL1 6577  44.652  22.933   8.855
 5812POPC   GL2 6578  44.608  22.789   8.855
 5812POPC   C1A 6579  44.648  22.915   8.555
 5812POPC   D2A 6580  44.709  22.910   8.255
 5812POPC   C3A 6581  44.635  22.908   7.955
 5812POPC   C4A 6582  44.672  22.925   7.655
 5812POPC   C1B 6583  44.657  22.688   8.555
 5812POPC   C2B 6584  44.649  22.661   8.255
 5812POPC   C3B 6585  44.586  22.734   7.955
 5812POPC   C4B 6586  44.637  22.728   7.655
 5813POPC   NC3 6587  44.649  11.329   9.455
 5813POPC   PO4 6588  44.675  11.285   9.155
 5813POPC   GL1 6589  44.673  11.315   8.855
 5813POPC   GL2 6590  44.645  11.128   8.855
 5813POPC   C1A 6591  44.693  11.343   8.555
 5813POPC   D2A 6592  44.655  11.258   8.255
 5813POPC   C3A 6593  44.638  11.252   7.955
 5813POPC   C4A 6594  44.684  11.326   7.655
 5813POPC   C1B 6595  44.606  11.056   8.555
 5813POPC   C2B 6596  44.653  11.054   8.255
 5813POPC   C3B 6597  44.600  11.020   7.955
 5813POPC   C4B 6598  44.581  11.052   7.655
 5814POPC   NC3 6599  22.947  12.855   9.455
 5814POPC   PO4 6600  22.914  12.833   9.155
 5814POPC   GL1 6601  22.984  12.900   8.855
 5814POPC   GL2 6602  22.852  12.915   8.855
 5814POPC   C1A 6603  22.919  12.810   8.555
 5814POPC   D2A 6604  22.968  12.883   8.255
 5814POPC   C3A 6605  22.976  12.846   7.955
 5814POPC   C4A 6606  22.954  12.808   7.655
 5814POPC   C1B 6607  22.833  13.047   8.555
 5814POPC   C2B 6608  22.754  13.064   8.255
 5814POPC   C3B 6609  22.744  13.098   7.955
 5814POPC   C4B 6610  22.785  13.047   7.655
 5815POPC   NC3 6611  21.430  22.127   9.455
 5815POPC   PO4 6612  21.362  22.137   9.155
 5815POPC   GL1 6613  21.405  22.191   8.855
 5815POPC   GL2 6614  21.253  22.105   8.855
 5815POPC   C1A 6615  21.422  22.212   8.555
 5815POPC   D2A 6616  21.422  22.156   8.255
 5815POPC   C3A 6617  21.377  22.141   7.955
 5815POPC   C4A 6618  21.338  22.160   7.655
 5815POPC   C1B 6619  21.150  22.045   8.555
 5815POPC   C2B 6620  21.150  22.004   8.255
 5815POPC   C3B 6621  21.208  22.001   7.955
 5815POPC   C4B 6622  21.185  22.018   7.655
 5816POPC   NC3 6623  34.595  15.152   9.455
 5816POPC   PO4 6624  34.612  15.132   9.155
 5816POPC   GL1 6625  34.583  15.164   8.855
 5816POPC   GL2 6626  34.657  15.155   8.855
 5816POPC   C1A 6627  34.540  15.203   8.555
 5816POPC   D2A 6628  34.580  15.185   8.255
 5816POPC   C3A 6629  34.625  15.131   7.955
 5816POPC   C4A 6630  34.550  15.199   7.655
 5816POPC   C1B 6631  34.854  15.201   8.555
 5816POPC   C2B 6632  34.805  15.132   8.255
 5816POPC   C3B 6633  34.813  15.184   7.955
 5816POPC   C4B 6634  34.793  15.210   7.655
 5817POPC   NC3 6635  25.996  26.844   9.455
 5817POPC   PO4 6636  26.074  26.850   9.155
 5817POPC   GL1 6637  26.046  26.770   8.855
 5817POPC   GL2 6638  26.056  26.728   8.855
 5817POPC   C1A 6639  25.996  26.799   8.555
 5817POPC   D2A 6640  26.078  26.844   8.255
 5817POPC   C3A 6641  26.027  26.808   7.955
 5817POPC   C4A 6642  26.010  26.826   7.655
 5817POPC   C1B 6643  25.947  26.542   8.555
 5817POPC   C2B 6644  26.024  26.533   8.255
 5817POPC   C3B 6645  25.957  26.611   7.955
 5817POPC   C4B 6646  25.960  26.595   7.655
 5818POPC   NC3 6647   9.730  35.370   9.455
 5818POPC   PO4 6648   9.735  35.352   9.155
 5818POPC   GL1 6649   9.785  35.351   8.855
 5818POPC   GL2 6650   9.845  35.512   8.855
 5818POPC   C1A 6651   9.794  35.345   8.555
 5818POPC   D2A 6652   9.702  35.356   8.255
 5818POPC   C3A 6653   9.718  35.341   7.955
 5818POPC   C4A 6654   9.732  35.340   7.655
 5818POPC   C1B 6655   9.801  35.611   8.555
 5818POPC   C2B 6656   9.854  35.619   8.255
 5818POPC   C3B 6657   9.818  35.610   7.955
 5818POPC   C4B 6658   9.887  35.615   7.655
 5819POPC   NC3 6659   7.398  33.015   9.455
 5819POPC   PO4 6660   7.407  33.007   9.155
 5819POPC   GL1 6661   7.453  32.990   8.855
 5819POPC   GL2 6662   7.359  32.949   8.855
 5819POPC   C1A 6663   7.451  32.995   8.555
 5819POPC   D2A 6664   7.429  32.995   8.255
 5819POPC   C3A 6665   7.397  33.073   7.955
 5819POPC   C4A 6666   7.410  32.982   7.655
 5819POPC   C1B 6667   7.262  32.858   8.555
 5819POPC   C2B 6668   7.218  32.839   8.255
 5819POPC   C3B 6669   7.253  32.872   7.955
 5819POPC   C4B 6670   7.282  32.883   7.655
 5820POPC   NC3 6671  30.701   6.633   9.455
 5820POPC   PO4 6672  30.744   6.645   9.155
 5820POPC   GL1 6673  30.674   6.617   8.855
 5820POPC   GL2 6674  30.816   6.676   8.855
 5820POPC   C1A 6675  30.722   6.597   8.555
 5820POPC   D2A 6676  30.682   6.604   8.255
 5820POPC   C3A 6677  30.713   6.653   7.955
 5820POPC   C4A 6678  30.674   6.659   7.655
 5820POPC   C1B 6679  30.888   6.737   8.555
 5820POPC   C2B 6680  30.937   6.798   8.255
 5820POPC   C3B 6681  30.891   6.737   7.955
 5820POPC   C4B 6682  30.902   6.712   7.655
 5821POPC   NC3 6683  38.445   8.980   9.455
 5821POPC   PO4 6684  38.425   8.987   9.155
 5821POPC   GL1 6685  38.414   8.941   8.855
 5821POPC   GL2 6686  38.449   8.900   8.855
 5821POPC   C1A 6687  38.500   9.010   8.555
 5821POPC   D2A 6688  38.455   8.931   8.255
 5821POPC   C3A 6689  38.490   8.962   7.955
 5821POPC   C4A 6690  38.410   8.970   7.655
 5821POPC   C1B 6691  38.532   8.741   8.555
 5821POPC   C2B 6692  38.534   8.773   8.255
 5821POPC   C3B 6693  38.540   8.719   7.955
 5821POPC   C4B 6694  38.487   8.711   7.655
 5822POPC   NC3 6695  39.985  40.751   9.455
 5822POPC   PO4 6696  40.018  40.820   9.155
 5822POPC   GL1 6697  40.026  40.818   8.855
 5822POPC   GL2 6698  40.066  40.704   8.855
 5822POPC   C1A 6699  40.020  40.784   8.555
 5822POPC   D2A 6700  39.982  40.829   8.255
 5822POPC   C3A 6701  39.991  40.758   7.955
 5822POPC   C4A 6702  39.979  40.813   7.655
 5822POPC   C1B 6703  40.122  40.547   8.555
 5822POPC   C2B 6704  40.155  40.600   8.255
 5822POPC   C3B 6705  40.180  40.534   7.955
 5822POPC   C4B 6706  40.148  40.614   7.655
 5823POPC   NC3 6707  22.178   4.290   9.455
 5823POPC   PO4 6708  22.165   4.347   9.155
 5823POPC   GL1 6709  22.116   4.330   8.855
 5823POPC   GL2 6710  22.022   4.232   8.855
 5823POPC   C1A 6711  22.114   4.299   8.555
 5823POPC   D2A 6712  22.141   4.347   8.255
 5823POPC   C3A 6713  22.193   4.291   7.955
 5823POPC   C4A 6714  22.199   4.276   7.655
 5823POPC   C1B 6715  21.956   4.238   8.555
 5823POPC   C2B 6716  21.985   4.200   8.255
 5823POPC   C3B 6717  21.914   4.147   7.955
 5823POPC   C4B 6718  21.943   4.201   7.655
 5824POPC   NC3 6719  31.453  29.872   9.455
 5824POPC   PO4 6720  31.426  29.917   9.155
 5824POPC   GL1 6721  31.489  29.967   8.855
 5824POPC   GL2 6722  31.486  30.065   8.855
 5824POPC   C1A 6723  31.433  29.890   8.555
 5824POPC   D2A 6724  31.438  29.956   8.255
 5824POPC   C3A 6725  31.491  29.942   7.955
 5824POPC   C4A 6726  31.444  29.942   7.655
 5824POPC   C1B 6727  31.499  30.158   8.555
 5824POPC   C2B 6728  31.481  30.204   8.255
 5824POPC   C3B 6729  31.475  30.164   7.955
 5824POPC   C4B 6730  31.493  30.201   7.655
 5825POPC   NC3 6731  21.357  31.500   9.455
 5825POPC   PO4 6732  21.364  31.506   9.155
 5825POPC   GL1 6733  21.385  31.482   8.855
 5825POPC   GL2 6734  21.400  31.589   8.855
 5825POPC   C1A 6735  21.337  31.517   8.555
 5825POPC   D2A 6736  21.416  31.506   8.255
 5825POPC   C3A 6737  21.386  31.438   7.955
 5825POPC   C4A 6738  21.402  31.435   7.655
 5825POPC   C1B 6739  21.471  31.669   8.555
 5825POPC   C2B 6740  21.438  31.697   8.255
 5825POPC   C3B 6741  21.465  31.698   7.955
 5825POPC   C4B 6742  21.465  31.670   7.655
 5826POPC   NC3 6743  15.987  39.267   9.455
 5826POPC   PO4 6744  15.968  39.269   9.155
 5826POPC   GL1 6745  15.953  39.273   8.855
 5826POPC   GL2 6746  16.054  39.260   8.855
 5826POPC   C1A 6747  16.003  39.206   8.555
 5826POPC   D2A 6748  15.908  39.278   8.255
 5826POPC   C3A 6749  15.928  39.211   7.955
 5826POPC   C4A 6750  15.980  39.257   7.655
 5826POPC   C1B 6751  16.237  39.275   8.555
 5826POPC   C2B 6752  16.206  39.313   8.255
 5826POPC   C3B 6753  16.205  39.321   7.955
 5826POPC   C4B 6754  16.178  39.298   7.655
 5827POPC   NC3 6755  14.409  38.433   9.455
 5827POPC   PO4 6756  14.367  38.438   9.155
 5827POPC   GL1 6757  14.440  38.410   8.855
 5827POPC   GL2 6758  14.252  38.386   8.855
 5827POPC   C1A 6759  14.358  38.481   8.555
 5827POPC   D2A 6760  14.376  38.468   8.255
 5827POPC   C3A 6761  14.449  38.426   7.955
 5827POPC   C4A 6762  14.354  38.462   7.655
 5827POPC   C1B 6763  14.166  38.374   8.555
 5827POPC   C2B 6764  14.168  38.345   8.255
 5827POPC   C3B 6765  14.179  38.318   7.955
 5827POPC   C4B 6766  14.215  38.355   7.655
 5828POPC   NC3 6767  33.067  41.519   9.455
 5828POPC   PO4 6768  33.002  41.519   9.155
 5828POPC   GL1 6769  33.050  41.584   8.855
 5828POPC   GL2 6770  33.108  41.657   8.855
 5828POPC   C1A 6771  33.002  41.581   8.555
 5828POPC   D2A 6772  33.002  41.536   8.255
 5828POPC   C3A 6773  33.063  41.532   7.955
 5828POPC   C4A 6774  33.068  41.553   7.655
 5828POPC   C1B 6775  33.237  41.651   8.555
 5828POPC   C2B 6776  33.209  41.725   8.255
 5828POPC   C3B 6777  33.254  41.647   7.955
 5828POPC   C4B 6778  33.282  41.732   7.655
 5829POPC   NC3 6779   0.475  43.900   9.455
 5829POPC   PO4 6780   0.429  43.896   9.155
 5829POPC   GL1 6781   0.404  43.919   8.855
 5829POPC   GL2 6782   0.574  43.861   8.855
 5829POPC   C1A 6783   0.478  43.861   8.555
 5829POPC   D2A 6784   0.465  43.859   8.255
 5829POPC   C3A 6785   0.468  43.885   7.955
 5829POPC   C4A 6786   0.394  43.885   7.655
 5829POPC   C1B 6787   0.679  43.942   8.555
 5829POPC   C2B 6788   0.672  43.918   8.255
 5829POPC   C3B 6789   0.710  43.933   7.955
 5829POPC   C4B 6790   0.686  43.917   7.655
 5830POPC   NC3 6791   7.468   9.751   9.455
 5830POPC   PO4 6792   7.390   9.722   9.155
 5830POPC   GL1 6793   7.407   9.699   8.855
 5830POPC   GL2 6794   7.478   9.667   8.855
 5830POPC   C1A 6795   7.386   9.788   8.555
 5830POPC   D2A 6796   7.417   9.782   8.255
 5830POPC   C3A 6797   7.385   9.723   7.955
 5830POPC   C4A 6798   7.394   9.774   7.655
 5830POPC   C1B 6799   7.560   9.518   8.555
 5830POPC   C2B 6800   7.565   9.483   8.255
 5830POPC   C3B 6801   7.516   9.509   7.955
 5830POPC   C4B 6802   7.556   9.503   7.655
 5831POPC   NC3 6803  39.962  22.972   9.455
 5831POPC   PO4 6804  40.019  22.974   9.155
 5831POPC   GL1 6805  40.010  22.948   8.855
 5831POPC   GL2 6806  39.867  22.965   8.855
 5831POPC   C1A 6807  40.031  22.919   8.555
 5831POPC   D2A 6808  40.025  22.979   8.255
 5831POPC   C3A 6809  39.959  22.900   7.955
 5831POPC   C4A 6810  40.055  22.898   7.655
 5831POPC   C1B 6811  39.763  23.106   8.555
 5831POPC   C2B 6812  39.823  23.041   8.255
 5831POPC   C3B 6813  39.764  23.108   7.955
 5831POPC   C4B 6814  39.806  23.068   7.655
 5832POPC   NC3 6815  35.322  17.545   9.455
 5832POPC   PO4 6816  35.391  17.471   9.155
 5832POPC   GL1 6817  35.347  17.542   8.855
 5832POPC   GL2 6818  35.321  17.606   8.855
 5832POPC   C1A 6819  35.336  17.480   8.555
 5832POPC   D2A 6820  35.395  17.529   8.255
 5832POPC   C3A 6821  35.351  17.523   7.955
 5832POPC   C4A 6822  35.349  17.466   7.655
 5832POPC   C1B 6823  35.172  17.721   8.555
 5832POPC   C2B 6824  35.195  17.667   8.255
 5832POPC   C3B 6825  35.152  17.666   7.955
 5832POPC   C4B 6826  35.229  17.658   7.655
 5833POPC   NC3 6827  34.622  14.414   9.455
 5833POPC   PO4 6828  34.608  14.388   9.155
 5833POPC   GL1 6829  34.610  14.362   8.855
 5833POPC   GL2 6830  34.692  14.299   8.855
 5833POPC   C1A 6831  34.572  14.392   8.555
 5833POPC   D2A 6832  34.571  14.381   8.255
 5833POPC   C3A 6833  34.598  14.394   7.955
 5833POPC   C4A 6834  34.607  14.438   7.655
 5833POPC   C1B 6835  34.774  14.305   8.555
 5833POPC   C2B 6836  34.770  14.287   8.255
 5833POPC   C3B 6837  34.820  14.259   7.955
 5833POPC   C4B 6838  34.735  14.222   7.655
 5834POPC   NC3 6839  23.733  12.835   9.455
 5834POPC   PO4 6840  23.733  12.894   9.155
 5834POPC   GL1 6841  23.707  12.886   8.855
 5834POPC   GL2 6842  23.816  12.698   8.855
 5834POPC   C1A 6843  23.677  12.820   8.555
 5834POPC   D2A 6844  23.712  12.856   8.255
 5834POPC   C3A 6845  23.678  12.818   7.955
 5834POPC   C4A 6846  23.686  12.897   7.655
 5834POPC   C1B 6847  23.808  12.575   8.555
 5834POPC   C2B 6848  23.823  12.642   8.255
 5834POPC   C3B 6849  23.865  12.631   7.955
 5834POPC   C4B 6850  23.835  12.647   7.655
 5835POPC   NC3 6851  29.906   8.967   9.455
 5835POPC   PO4 6852  29.915   8.942   9.155
 5835POPC   GL1 6853  29.923   8.929   8.855
 5835POPC   GL2 6854  30.029   8.976   8.855
 5835POPC   C1A 6855  29.942   8.926   8.555
 5835POPC   D2A 6856  29.945   8.993   8.255
 5835POPC   C3A 6857  29.924   8.990   7.955
 5835POPC   C4A 6858  29.871   8.980   7.655
 5835POPC   C1B 6859  30.111   9.084   8.555
 5835POPC   C2B 6860  30.158   9.053   8.255
 5835POPC   C3B 6861  30.117   9.099   7.955
 5835POPC   C4B 6862  30.149   9.096   7.655
 5836POPC   NC3 6863   5.895  23.763   9.455
 5836POPC   PO4 6864   5.890  23.734   9.155
 5836POPC   GL1 6865   5.913  23.681   8.855
 5836POPC   GL2 6866   5.868  23.543   8.855
 5836POPC   C1A 6867   5.862  23.669   8.555
 5836POPC   D2A 6868   5.871  23.719   8.255
 5836POPC   C3A 6869   5.837  23.705   7.955
 5836POPC   C4A 6870   5.856  23.702   7.655
 5836POPC   C1B 6871   5.828  23.448   8.555
 5836POPC   C2B 6872   5.868  23.420   8.255
 5836POPC   C3B 6873   5.847  23.456   7.955
 5836POPC   C4B 6874   5.825  23.444   7.655
 5837POPC   NC3 6875  22.889   7.455   9.455
 5837POPC   PO4 6876  22.983   7.456   9.155
 5837POPC   GL1 6877  22.940   7.420   8.855
 5837POPC   GL2 6878  22.850   7.440   8.855
 5837POPC   C1A 6879  22.940   7.440   8.555
 5837POPC   D2A 6880  22.960   7.431   8.255
 5837POPC   C3A 6881  22.937   7.391   7.955
 5837POPC   C4A 6882  22.985   7.391   7.655
 5837POPC   C1B 6883  22.655   7.451   8.555
 5837POPC   C2B 6884  22.691   7.450   8.255
 5837POPC   C3B 6885  22.702   7.472   7.955
 5837POPC   C4B 6886  22.650   7.451   7.655
 5838POPC   NC3 6887  32.992  22.118   9.455
 5838POPC   PO4 6888  33.030  22.127   9.155
 5838POPC   GL1 6889  32.984  22.153   8.855
 5838POPC   GL2 6890  32.896  22.096   8.855
 5838POPC   C1A 6891  33.056  22.209   8.555
 5838POPC   D2A 6892  33.071  22.156   8.255
 5838POPC   C3A 6893  32.977  22.211   7.955
 5838POPC   C4A 6894  32.979  22.187   7.655
 5838POPC   C1B 6895  32.804  22.112   8.555
 5838POPC   C2B 6896  32.827  22.110   8.255
 5838POPC   C3B 6897  32.762  22.114   7.955
 5838POPC   C4B 6898  32.746  22.091   7.655
 5839POPC   NC3 6899  19.802  26.061   9.455
 5839POPC   PO4 6900  19.849  26.059   9.155
 5839POPC   GL1 6901  19.836  26.006   8.855
 5839POPC   GL2 6902  19.751  25.951   8.855
 5839POPC   C1A 6903  19.800  26.041   8.555
 5839POPC   D2A 6904  19.837  25.995   8.255
 5839POPC   C3A 6905  19.837  26.011   7.955
 5839POPC   C4A 6906  19.851  26.004   7.655
 5839POPC   C1B 6907  19.643  25.875   8.555
 5839POPC   C2B 6908  19.706  25.812   8.255
 5839POPC   C3B 6909  19.648  25.877   7.955
 5839POPC   C4B 6910  19.637  25.907   7.655
 5840POPC   NC3 6911  30.653  38.440   9.455
 5840POPC   PO4 6912  30.693  38.459   9.155
 5840POPC   GL1 6913  30.679  38.471   8.855
 5840POPC   GL2 6914  30.742  38.364   8.855
 5840POPC   C1A 6915  30.730  38.451   8.555
 5840POPC   D2A 6916  30.703  38.464   8.255
 5840POPC   C3A 6917  30.677  38.435   7.955
 5840POPC   C4A 6918  30.723  38.501   7.655
 5840POPC   C1B 6919  30.793  38.272   8.555
 5840POPC   C2B 6920  30.835  38.200   8.255
 5840POPC   C3B 6921  30.817  38.272   7.955
 5840POPC   C4B 6922  30.816  38.249   7.655
 5841POPC   NC3 6923   2.718   7.394   9.455
 5841POPC   PO4 6924   2.755   7.422   9.155
 5841POPC   GL1 6925   2.757   7.455   8.855
 5841POPC   GL2 6926   2.765   7.314   8.855
 5841POPC   C1A 6927   2.786   7.409   8.555
 5841POPC   D2A 6928   2.787   7.441   8.255
 5841POPC   C3A 6929   2.727   7.389   7.955
 5841POPC   C4A 6930   2.765   7.394   7.655
 5841POPC   C1B 6931   2.810   7.128   8.555
 5841POPC   C2B 6932   2.865   7.153   8.255
 5841POPC   C3B 6933   2.847   7.226   7.955
 5841POPC   C4B 6934   2.792   7.169   7.655
 5842POPC   NC3 6935  21.354  15.130   9.455
 5842POPC   PO4 6936  21.386  15.139   9.155
 5842POPC   GL1 6937  21.354  15.178   8.855
 5842POPC   GL2 6938  21.331  15.320   8.855
 5842POPC   C1A 6939  21.339  15.152   8.555
 5842POPC   D2A 6940  21.426  15.160   8.255
 5842POPC   C3A 6941  21.399  15.133   7.955
 5842POPC   C4A 6942  21.423  15.207   7.655
 5842POPC   C1B 6943  21.253  15.409   8.555
 5842POPC   C2B 6944  21.259  15.422   8.255
 5842POPC   C3B 6945  21.283  15.420   7.955
 5842POPC   C4B 6946  21.214  15.390   7.655
 5843POPC   NC3 6947  30.741  43.867   9.455
 5843POPC   PO4 6948  30.714  43.847   9.155
 5843POPC   GL1 6949  30.692  43.857   8.855
 5843POPC   GL2 6950  30.572  43.999   8.855
 5843POPC   C1A 6951  30.680  43.931   8.555
 5843POPC   D2A 6952  30.734  43.920   8.255
 5843POPC   C3A 6953  30.729  43.873   7.955
 5843POPC   C4A 6954  30.665  43.841   7.655
 5843POPC   C1B 6955  30.499  44.091   8.555
 5843POPC   C2B 6956  30.523  44.118   8.255
 5843POPC   C3B 6957  30.545  44.048   7.955
 5843POPC   C4B 6958  30.512  44.099   7.655
 5844POPC   NC3 6959  29.179  13.630   9.455
 5844POPC   PO4 6960  29.140  13.605   9.155
 5844POPC   GL1 6961  29.149  13.663   8.855
 5844POPC   GL2 6962  29.106  13.790   8.855
 5844POPC   C1A 6963  29.176  13.580   8.555
 5844POPC   D2A 6964  29.158  13.663   8.255
 5844POPC   C3A 6965  29.166  13.614   7.955
 5844POPC   C4A 6966  29.190  13.605   7.655
 5844POPC   C1B 6967  29.111  13.874   8.555
 5844POPC   C2B 6968  29.180  13.832   8.255
 5844POPC   C3B 6969  29.119  13.906   7.955
 5844POPC   C4B 6970  29.100  13.844   7.655
 5845POPC   NC3 6971  36.127  19.054   9.455
 5845POPC   PO4 6972  36.131  19.044   9.155
 5845POPC   GL1 6973  36.133  19.070   8.855
 5845POPC   GL2 6974  35.965  19.017   8.855
 5845POPC   C1A 6975  36.135  19.047   8.555
 5845POPC   D2A 6976  36.079  19.098   8.255
 5845POPC   C3A 6977  36.154  19.107   7.955
 5845POPC   C4A 6978  36.139  19.048   7.655
 5845POPC   C1B 6979  35.892  18.992   8.555
 5845POPC   C2B 6980  35.838  18.980   8.255
 5845POPC   C3B 6981  35.881  18.998   7.955
 5845POPC   C4B 6982  35.853  19.015   7.655
 5846POPC   NC3 6983  33.067  12.848   9.455
 5846POPC   PO4 6984  33.000  12.885   9.155
 5846POPC   GL1 6985  32.991  12.890   8.855
 5846POPC   GL2 6986  32.996  12.983   8.855
 5846POPC   C1A 6987  33.038  12.898   8.555
 5846POPC   D2A 6988  33.060  12.856   8.255
 5846POPC   C3A 6989  33.038  12.844   7.955
 5846POPC   C4A 6990  33.051  12.814   7.655
 5846POPC   C1B 6991  33.017  13.100   8.555
 5846POPC   C2B 6992  33.009  13.137   8.255
 5846POPC   C3B 6993  33.047  13.055   7.955
 5846POPC   C4B 6994  33.003  13.134   7.655
 5847POPC   NC3 6995  24.512  17.469   9.455
 5847POPC   PO4 6996  24.467  17.495   9.155
 5847POPC   GL1 6997  24.496  17.503   8.855
 5847POPC   GL2 6998  24.640  17.467   8.855
 5847POPC   C1A 6999  24.465  17.545   8.555
 5847POPC   D2A 7000  24.522  17.511   8.255
 5847POPC   C3A 7001  24.454  17.458   7.955
 5847POPC   C4A 7002  24.519  17.507   7.655
 5847POPC   C1B 7003  24.770  17.428   8.555
 5847POPC   C2B 7004  24.692  17.450   8.255
 5847POPC   C3B 7005  24.689  17.416   7.955
 5847POPC   C4B 7006  24.764  17.462   7.655
 5848POPC   NC3 7007   7.383  34.584   9.455
 5848POPC   PO4 7008   7.375  34.529   9.155
 5848POPC   GL1 7009   7.436  34.605   8.855
 5848POPC   GL2 7010   7.321  34.480   8.855
 5848POPC   C1A 7011   7.403  34.604   8.555
 5848POPC   D2A 7012   7.374  34.532   8.255
 5848POPC   C3A 7013   7.423  34.574   7.955
 5848POPC   C4A 7014   7.444  34.538   7.655
 5848POPC   C1B 7015   7.259  34.398   8.555
 5848POPC   C2B 7016   7.282  34.408   8.255
 5848POPC   C3B 7017   7.249  34.383   7.955
 5848POPC   C4B 7018   7.266  34.388   7.655
 5849POPC   NC3 7019  11.318  44.654   9.455
 5849POPC   PO4 7020  11.305  44.675   9.155
 5849POPC   GL1 7021  11.307  44.678   8.855
 5849POPC   GL2 7022  11.359  44.769   8.855
 5849POPC   C1A 7023  11.328  44.693   8.555
 5849POPC   D2A 7024  11.349  44.679   8.255
 5849POPC   C3A 7025  11.276  44.700   7.955
 5849POPC   C4A 7026  11.260  44.710   7.655
 5849POPC   C1B 7027  11.424  44.834   8.555
 5849POPC   C2B 7028  11.428  44.867   8.255
 5849POPC   C3B 7029  11.503  44.841   7.955
 5849POPC   C4B 7030  11.459  44.845   7.655
 5850POPC   NC3 7031   6.601  15.955   9.455
 5850POPC   PO4 7032   6.623  15.966   9.155
 5850POPC   GL1 7033   6.647  15.971   8.855
 5850POPC   GL2 7034   6.584  15.901   8.855
 5850POPC   C1A 7035   6.676  15.951   8.555
 5850POPC   D2A 7036   6.605  15.959   8.255
 5850POPC   C3A 7037   6.617  15.999   7.955
 5850POPC   C4A 7038   6.623  15.927   7.655
 5850POPC   C1B 7039   6.451  15.883   8.555
 5850POPC   C2B 7040   6.431  15.851   8.255
 5850POPC   C3B 7041   6.423  15.812   7.955
 5850POPC   C4B 7042   6.442  15.850   7.655
 5851POPC   NC3 7043  13.585  20.659   9.455
 5851POPC   PO4 7044  13.667  20.628   9.155
 5851POPC   GL1 7045  13.612  20.563   8.855
 5851POPC   GL2 7046  13.608  20.744   8.855
 5851POPC   C1A 7047  13.613  20.580   8.555
 5851POPC   D2A 7048  13.667  20.601   8.255
 5851POPC   C3A 7049  13.622  20.612   7.955
 5851POPC   C4A 7050  13.607  20.634   7.655
 5851POPC   C1B 7051  13.637  20.831   8.555
 5851POPC   C2B 7052  13.604  20.844   8.255
 5851POPC   C3B 7053  13.629  20.855   7.955
 5851POPC   C4B 7054  13.564  20.829   7.655
 5852POPC   NC3 7055   9.728  21.342   9.455
 5852POPC   PO4 7056   9.703  21.417   9.155
 5852POPC   GL1 7057   9.775  21.336   8.855
 5852POPC   GL2 7058   9.701  21.532   8.855
 5852POPC   C1A 7059   9.784  21.359   8.555
 5852POPC   D2A 7060   9.731  21.403   8.255
 5852POPC   C3A 7061   9.765  21.405   7.955
 5852POPC   C4A 7062   9.761  21.352   7.655
 5852POPC   C1B 7063   9.605  21.547   8.555
 5852POPC   C2B 7064   9.557  21.596   8.255
 5852POPC   C3B 7065   9.627  21.555   7.955
 5852POPC   C4B 7066   9.635  21.599   7.655
 5853POPC   NC3 7067  28.389  10.517   9.455
 5853POPC   PO4 7068  28.383  10.508   9.155
 5853POPC   GL1 7069  28.336  10.485   8.855
 5853POPC   GL2 7070  28.424  10.606   8.855
 5853POPC   C1A 7071  28.364  10.480   8.555
 5853POPC   D2A 7072  28.417  10.539   8.255
 5853POPC   C3A 7073  28.406  10.552   7.955
 5853POPC   C4A 7074  28.360  10.501   7.655
 5853POPC   C1B 7075  28.491  10.691   8.555
 5853POPC   C2B 7076  28.515  10.733   8.255
 5853POPC   C3B 7077  28.549  10.736   7.955
 5853POPC   C4B 7078  28.492  10.743   7.655
 5854POPC   NC3 7079   9.703  15.976   9.455
 5854POPC   PO4 7080   9.779  15.993   9.155
 5854POPC   GL1 7081   9.746  15.979   8.855
 5854POPC   GL2 7082   9.653  15.967   8.855
 5854POPC   C1A 7083   9.786  15.926   8.555
 5854POPC   D2A 7084   9.728  15.990   8.255
 5854POPC   C3A 7085   9.727  15.906   7.955
 5854POPC   C4A 7086   9.717  15.944   7.655
 5854POPC   C1B 7087   9.501  15.988   8.555
 5854POPC   C2B 7088   9.492  16.085   8.255
 5854POPC   C3B 7089   9.490  16.052   7.955
 5854POPC   C4B 7090   9.528  16.044   7.655
 5855POPC   NC3 7091   5.136  15.156   9.455
 5855POPC   PO4 7092   5.100  15.192   9.155
 5855POPC   GL1 7093   5.056  15.189   8.855
 5855POPC   GL2 7094   4.991  15.105   8.855
 5855POPC   C1A 7095   5.105  15.170   8.555
 5855POPC   D2A 7096   5.078  15.132   8.255
 5855POPC   C3A 7097   5.049  15.178   7.955
 5855POPC   C4A 7098   5.123  15.157   7.655
 5855POPC   C1B 7099   4.994  14.956   8.555
 5855POPC   C2B 7100   5.004  14.919   8.255
 5855POPC   C3B 7101   4.948  14.960   7.955
 5855POPC   C4B 7102   4.984  14.946   7.655
 5856POPC   NC3 7103   3.580  43.119   9.455
 5856POPC   PO4 7104   3.557  43.151   9.155
 5856POPC   GL1 7105   3.579  43.072   8.855
 5856POPC   GL2 7106   3.525  42.967   8.855
 5856POPC   C1A 7107   3.560  43.133   8.555
 5856POPC   D2A 7108   3.539  43.108   8.255
 5856POPC   C3A 7109   3.502  43.084   7.955
 5856POPC   C4A 7110   3.505  43.111   7.655
 5856POPC   C1B 7111   3.449  42.871   8.555
 5856POPC   C2B 7112   3.483  42.915   8.255
 5856POPC   C3B 7113   3.418  42.875   7.955
 5856POPC   C4B 7114   3.420  42.875   7.655
 5857POPC   NC3 7115   2.772   5.875   9.455
 5857POPC   PO4 7116   2.763   5.821   9.155
 5857POPC   GL1 7117   2.787   5.886   8.855
 5857POPC   GL2 7118   2.912   5.841   8.855
 5857POPC   C1A 7119   2.718   5.848   8.555
 5857POPC   D2A 7120   2.799   5.881   8.255
 5857POPC   C3A 7121   2.775   5.870   7.955
 5857POPC   C4A 7122   2.795   5.853   7.655
 5857POPC   C1B 7123   3.044   5.769   8.555
 5857POPC   C2B 7124   3.008   5.777   8.255
 5857POPC   C3B 7125   3.037   5.853   7.955
 5857POPC   C4B 7126   3.034   5.861   7.655
 5858POPC   NC3 7127  34.610  40.799   9.455
 5858POPC   PO4 7128  34.553  40.766   9.155
 5858POPC   GL1 7129  34.528  40.777   8.855
 5858POPC   GL2 7130  34.647  40.903   8.855
 5858POPC   C1A 7131  34.598  40.796   8.555
 5858POPC   D2A 7132  34.594  40.802   8.255
 5858POPC   C3A 7133  34.556  40.748   7.955
 5858POPC   C4A 7134  34.532  40.793   7.655
 5858POPC   C1B 7135  34.731  40.940   8.555
 5858POPC   C2B 7136  34.735  40.923   8.255
 5858POPC   C3B 7137  34.780  40.900   7.955
 5858POPC   C4B 7138  34.766  40.907   7.655
 5859POPC   NC3 7139  21.360   8.942   9.455
 5859POPC   PO4 7140  21.424   8.962   9.155
 5859POPC   GL1 7141  21.415   8.998   8.855
 5859POPC   GL2 7142  21.382   8.824   8.855
 5859POPC   C1A 7143  21.384   8.931   8.555
 5859POPC   D2A 7144  21.412   9.010   8.255
 5859POPC   C3A 7145  21.337   8.994   7.955
 5859POPC   C4A 7146  21.343   8.937   7.655
 5859POPC   C1B 7147  21.323   8.688   8.555
 5859POPC   C2B 7148  21.327   8.770   8.255
 5859POPC   C3B 7149  21.329   8.755   7.955
 5859POPC   C4B 7150  21.288   8.715   7.655
 5860POPC   NC3 7151  42.372   3.494   9.455
 5860POPC   PO4 7152  42.337   3.509   9.155
 5860POPC   GL1 7153  42.365   3.556   8.855
 5860POPC   GL2 7154  42.445   3.481   8.855
 5860POPC   C1A 7155  42.336   3.542   8.555
 5860POPC   D2A 7156  42.372   3.585   8.255
 5860POPC   C3A 7157  42.300   3.535   7.955
 5860POPC   C4A 7158  42.337   3.507   7.655
 5860POPC   C1B 7159  42.486   3.334   8.555
 5860POPC   C2B 7160  42.536   3.374   8.255
 5860POPC   C3B 7161  42.482   3.339   7.955
 5860POPC   C4B 7162  42.558   3.344   7.655
 5861POPC   NC3 7163   8.220  13.665   9.455
 5861POPC   PO4 7164   8.196  13.587   9.155
 5861POPC   GL1 7165   8.225  13.639   8.855
 5861POPC   GL2 7166   8.134  13.521   8.855
 5861POPC   C1A 7167   8.163  13.586   8.555
 5861POPC   D2A 7168   8.165  13.665   8.255
 5861POPC   C3A 7169   8.203  13.639   7.955
 5861POPC   C4A 7170   8.193  13.642   7.655
 5861POPC   C1B 7171   7.938  13.454   8.555
 5861POPC   C2B 7172   8.001  13.506   8.255
 5861POPC   C3B 7173   7.941  13.542   7.955
 5861POPC   C4B 7174   7.947  13.524   7.655
 5862POPC   NC3 7175  10.550  22.176   9.455
 5862POPC   PO4 7176  10.548  22.178   9.155
 5862POPC   GL1 7177  10.481  22.187   8.855
 5862POPC   GL2 7178  10.359  22.174   8.855
 5862POPC   C1A 7179  10.570  22.202   8.555
 5862POPC   D2A 7180  10.546  22.133   8.255
 5862POPC   C3A 7181  10.561  22.168   7.955
 5862POPC   C4A 7182  10.498  22.121   7.655
 5862POPC   C1B 7183  10.317  22.137   8.555
 5862POPC   C2B 7184  10.316  22.153   8.255
 5862POPC   C3B 7185  10.252  22.169   7.955
 5862POPC   C4B 7186  10.227  22.199   7.655
 5863POPC   NC3 7187  39.225  22.160   9.455
 5863POPC   PO4 7188  39.230  22.134   9.155
 5863POPC   GL1 7189  39.212  22.140   8.855
 5863POPC   GL2 7190  39.318  22.297   8.855
 5863POPC   C1A 7191  39.216  22.173   8.555
 5863POPC   D2A 7192  39.237  22.159   8.255
 5863POPC   C3A 7193  39.247  22.162   7.955
 5863POPC   C4A 7194  39.203  22.205   7.655
 5863POPC   C1B 7195  39.431  22.321   8.555
 5863POPC   C2B 7196  39.382  22.400   8.255
 5863POPC   C3B 7197  39.354  22.365   7.955
 5863POPC   C4B 7198  39.362  22.385   7.655
 5864POPC   NC3 7199   8.185  27.593   9.455
 5864POPC   PO4 7200   8.166  27.558   9.155
 5864POPC   GL1 7201   8.240  27.612   8.855
 5864POPC   GL2 7202   8.101  27.555   8.855
 5864POPC   C1A 7203   8.224  27.596   8.555
 5864POPC   D2A 7204   8.158  27.575   8.255
 5864POPC   C3A 7205   8.229  27.603   7.955
 5864POPC   C4A 7206   8.219  27.619   7.655
 5864POPC   C1B 7207   7.936  27.598   8.555
 5864POPC   C2B 7208   7.955  27.593   8.255
 5864POPC   C3B 7209   7.996  27.555   7.955
 5864POPC   C4B 7210   7.934  27.592   7.655
 5865POPC   NC3 7211  10.543  31.498   9.455
 5865POPC   PO4 7212  10.487  31.520   9.155
 5865POPC   GL1 7213  10.511  31.433   8.855
 5865POPC   GL2 7214  10.615  31.351   8.855
 5865POPC   C1A 7215  10.536  31.508   8.555
 5865POPC   D2A 7216  10.527  31.518   8.255
 5865POPC   C3A 7217  10.523  31.471   7.955
 5865POPC   C4A 7218  10.561  31.495   7.655
 5865POPC   C1B 7219  10.699  31.365   8.555
 5865POPC   C2B 7220  10.753  31.335   8.255
 5865POPC   C3B 7221  10.732  31.325   7.955
 5865POPC   C4B 7222  10.694  31.330   7.655
 5866POPC   NC3 7223   8.235  10.558   9.455
 5866POPC   PO4 7224   8.235  10.573   9.155
 5866POPC   GL1 7225   8.170  10.548   8.855
 5866POPC   GL2 7226   8.274  10.490   8.855
 5866POPC   C1A 7227   8.192  10.481   8.555
 5866POPC   D2A 7228   8.190  10.549   8.255
 5866POPC   C3A 7229   8.197  10.540   7.955
 5866POPC   C4A 7230   8.151  10.534   7.655
 5866POPC   C1B 7231   8.346  10.389   8.555
 5866POPC   C2B 7232   8.352  10.339   8.255
 5866POPC   C3B 7233   8.441  10.381   7.955
 5866POPC   C4B 7234   8.350  10.351   7.655
 5867POPC   NC3 7235   5.140  17.498   9.455
 5867POPC   PO4 7236   5.111  17.536   9.155
 5867POPC   GL1 7237   5.053  17.512   8.855
 5867POPC   GL2 7238   5.230  17.577   8.855
 5867POPC   C1A 7239   5.137  17.478   8.555
 5867POPC   D2A 7240   5.131  17.555   8.255
 5867POPC   C3A 7241   5.087  17.507   7.955
 5867POPC   C4A 7242   5.100  17.521   7.655
 5867POPC   C1B 7243   5.329  17.643   8.555
 5867POPC   C2B 7244   5.256  17.650   8.255
 5867POPC   C3B 7245   5.341  17.624   7.955
 5867POPC   C4B 7246   5.300  17.597   7.655
 5868POPC   NC3 7247  31.458  41.565   9.455
 5868POPC   PO4 7248  31.450  41.588   9.155
 5868POPC   GL1 7249  31.431  41.572   8.855
 5868POPC   GL2 7250  31.333  41.595   8.855
 5868POPC   C1A 7251  31.455  41.594   8.555
 5868POPC   D2A 7252  31.447  41.558   8.255
 5868POPC   C3A 7253  31.443  41.523   7.955
 5868POPC   C4A 7254  31.498  41.557   7.655
 5868POPC   C1B 7255  31.256  41.583   8.555
 5868POPC   C2B 7256  31.251  41.531   8.255
 5868POPC   C3B 7257  31.269  41.577   7.955
 5868POPC   C4B 7258  31.211  41.561   7.655
 5869POPC   NC3 7259   9.012  36.081   9.455
 5869POPC   PO4 7260   8.949  36.136   9.155
 5869POPC   GL1 7261   8.965  36.150   8.855
 5869POPC   GL2 7262   8.974  36.006   8.855
 5869POPC   C1A 7263   8.941  36.112   8.555
 5869POPC   D2A 7264   9.017  36.138   8.255
 5869POPC   C3A 7265   8.996  36.156   7.955
 5869POPC   C4A 7266   9.020  36.171   7.655
 5869POPC   C1B 7267   8.895  35.866   8.555
 5869POPC   C2B 7268   8.849  35.869   8.255
 5869POPC   C3B 7269   8.903  35.893   7.955
 5869POPC   C4B 7270   8.848  35.888   7.655
 5870POPC   NC3 7271  26.027  22.988   9.455
 5870POPC   PO4 7272  26.030  22.931   9.155
 5870POPC   GL1 7273  25.998  22.953   8.855
 5870POPC   GL2 7274  26.071  23.084   8.855
 5870POPC   C1A 7275  26.005  22.961   8.555
 5870POPC   D2A 7276  26.014  22.907   8.255
 5870POPC   C3A 7277  26.022  22.943   7.955
 5870POPC   C4A 7278  26.045  22.908   7.655
 5870POPC   C1B 7279  26.150  23.135   8.555
 5870POPC   C2B 7280  26.107  23.172   8.255
 5870POPC   C3B 7281  26.129  23.144   7.955
 5870POPC   C4B 7282  26.163  23.207   7.655
 5871POPC   NC3 7283  26.820  12.087   9.455
 5871POPC   PO4 7284  26.830  12.047   9.155
 5871POPC   GL1 7285  26.821  12.062   8.855
 5871POPC   GL2 7286  26.725  12.068   8.855
 5871POPC   C1A 7287  26.812  12.037   8.555
 5871POPC   D2A 7288  26.775  12.110   8.255
 5871POPC   C3A 7289  26.768  12.079   7.955
 5871POPC   C4A 7290  26.768  12.088   7.655
 5871POPC   C1B 7291  26.538  12.121   8.555
 5871POPC   C2B 7292  26.562  12.137   8.255
 5871POPC   C3B 7293  26.554  12.158   7.955
 5871POPC   C4B 7294  26.609  12.175   7.655
 5872POPC   NC3 7295  19.799  25.237   9.455
 5872POPC   PO4 7296  19.875  25.295   9.155
 5872POPC   GL1 7297  19.800  25.257   8.855
 5872POPC   GL2 7298  19.722  25.258   8.855
 5872POPC   C1A 7299  19.853  25.308   8.555
 5872POPC   D2A 7300  19.858  25.284   8.255
 5872POPC   C3A 7301  19.872  25.291   7.955
 5872POPC   C4A 7302  19.878  25.314   7.655
 5872POPC   C1B 7303  19.627  25.276   8.555
 5872POPC   C2B 7304  19.575  25.267   8.255
 5872POPC   C3B 7305  19.565  25.329   7.955
 5872POPC   C4B 7306  19.607  25.283   7.655
 5873POPC   NC3 7307  32.215  36.931   9.455
 5873POPC   PO4 7308  32.268  36.935   9.155
 5873POPC   GL1 7309  32.222  36.901   8.855
 5873POPC   GL2 7310  32.235  36.762   8.855
 5873POPC   C1A 7311  32.289  36.857   8.555
 5873POPC   D2A 7312  32.262  36.889   8.255
 5873POPC   C3A 7313  32.203  36.883   7.955
 5873POPC   C4A 7314  32.219  36.936   7.655
 5873POPC   C1B 7315  32.122  36.652   8.555
 5873POPC   C2B 7316  32.161  36.631   8.255
 5873POPC   C3B 7317  32.180  36.641   7.955
 5873POPC   C4B 7318  32.164  36.673   7.655
 5874POPC   NC3 7319   5.886   1.980   9.455
 5874POPC   PO4 7320   5.849   1.948   9.155
 5874POPC   GL1 7321   5.903   2.006   8.855
 5874POPC   GL2 7322   5.913   2.093   8.855
 5874POPC   C1A 7323   5.903   1.982   8.555
 5874POPC   D2A 7324   5.855   1.964   8.255
 5874POPC   C3A 7325   5.910   2.039   7.955
 5874POPC   C4A 7326   5.906   1.981   7.655
 5874POPC   C1B 7327   5.983   2.163   8.555
 5874POPC   C2B 7328   6.016   2.189   8.255
 5874POPC   C3B 7329   5.993   2.173   7.955
 5874POPC   C4B 7330   5.987   2.242   7.655
 5875POPC   NC3 7331   1.217  35.366   9.455
 5875POPC   PO4 7332   1.234  35.399   9.155
 5875POPC   GL1 7333   1.188  35.340   8.855
 5875POPC   GL2 7334   1.351  35.466   8.855
 5875POPC   C1A 7335   1.219  35.347   8.555
 5875POPC   D2A 7336   1.184  35.308   8.255
 5875POPC   C3A 7337   1.215  35.393   7.955
 5875POPC   C4A 7338   1.180  35.363   7.655
 5875POPC   C1B 7339   1.383  35.499   8.555
 5875POPC   C2B 7340   1.449  35.469   8.255
 5875POPC   C3B 7341   1.388  35.512   7.955
 5875POPC   C4B 7342   1.441  35.512   7.655
 5876POPC   NC3 7343  22.921   4.354   9.455
 5876POPC   PO4 7344  22.898   4.268   9.155
 5876POPC   GL1 7345  22.937   4.330   8.855
 5876POPC   GL2 7346  23.067   4.265   8.855
 5876POPC   C1A 7347  22.981   4.291   8.555
 5876POPC   D2A 7348  22.959   4.318   8.255
 5876POPC   C3A 7349  22.985   4.347   7.955
 5876POPC   C4A 7350  22.915   4.283   7.655
 5876POPC   C1B 7351  23.084   4.102   8.555
 5876POPC   C2B 7352  23.113   4.146   8.255
 5876POPC   C3B 7353  23.115   4.188   7.955
 5876POPC   C4B 7354  23.128   4.115   7.655
 5877POPC   NC3 7355  43.912   1.164   9.455
 5877POPC   PO4 7356  43.865   1.223   9.155
 5877POPC   GL1 7357  43.882   1.169   8.855
 5877POPC   GL2 7358  43.829   1.308   8.855
 5877POPC   C1A 7359  43.926   1.187   8.555
 5877POPC   D2A 7360  43.910   1.167   8.255
 5877POPC   C3A 7361  43.918   1.262   7.955
 5877POPC   C4A 7362  43.883   1.201   7.655
 5877POPC   C1B 7363  43.744   1.439   8.555
 5877POPC   C2B 7364  43.799   1.441   8.255
 5877POPC   C3B 7365  43.825   1.480   7.955
 5877POPC   C4B 7366  43.760   1.469   7.655
 5878POPC   NC3 7367   6.599   0.403   9.455
 5878POPC   PO4 7368   6.690   0.471   9.155
 5878POPC   GL1 7369   6.679   0.459   8.855
 5878POPC   GL2 7370   6.681   0.326   8.855
 5878POPC   C1A 7371   6.602   0.431   8.555
 5878POPC   D2A 7372   6.631   0.389   8.255
 5878POPC   C3A 7373   6.643   0.427   7.955
 5878POPC   C4A 7374   6.659   0.451   7.655
 5878POPC   C1B 7375   6.741   0.198   8.555
 5878POPC   C2B 7376   6.820   0.185   8.255
 5878POPC   C3B 7377   6.820   0.244   7.955
 5878POPC   C4B 7378   6.830   0.238   7.655
 5879POPC   NC3 7379  22.200  37.682   9.455
 5879POPC   PO4 7380  22.178  37.681   9.155
 5879POPC   GL1 7381  22.133  37.707   8.855
 5879POPC   GL2 7382  22.123  37.539   8.855
 5879POPC   C1A 7383  22.132  37.677   8.555
 5879POPC   D2A 7384  22.193  37.702   8.255
 5879POPC   C3A 7385  22.162  37.663   7.955
 5879POPC   C4A 7386  22.162  37.684   7.655
 5879POPC   C1B 7387  22.050  37.512   8.555
 5879POPC   C2B 7388  22.036  37.508   8.255
 5879POPC   C3B 7389  22.044  37.525   7.955
 5879POPC   C4B 7390  22.023  37.433   7.655
 5880POPC   NC3 7391  35.395  42.370   9.455
 5880POPC   PO4 7392  35.399  42.354   9.155
 5880POPC   GL1 7393  35.305  42.361   8.855
 5880POPC   GL2 7394  35.227  42.442   8.855
 5880POPC   C1A 7395  35.358  42.322   8.555
 5880POPC   D2A 7396  35.376  42.357   8.255
 5880POPC   C3A 7397  35.392  42.313   7.955
 5880POPC   C4A 7398  35.361  42.300   7.655
 5880POPC   C1B 7399  35.190  42.492   8.555
 5880POPC   C2B 7400  35.208  42.471   8.255
 5880POPC   C3B 7401  35.130  42.477   7.955
 5880POPC   C4B 7402  35.178  42.543   7.655
 5881POPC   NC3 7403  18.298  12.097   9.455
 5881POPC   PO4 7404  18.326  12.063   9.155
 5881POPC   GL1 7405  18.286  12.100   8.855
 5881POPC   GL2 7406  18.282  11.946   8.855
 5881POPC   C1A 7407  18.282  12.090   8.555
 5881POPC   D2A 7408  18.255  12.041   8.255
 5881POPC   C3A 7409  18.276  12.074   7.955
 5881POPC   C4A 7410  18.236  12.091   7.655
 5881POPC   C1B 7411  18.378  11.786   8.555
 5881POPC   C2B 7412  18.318  11.815   8.255
 5881POPC   C3B 7413  18.340  11.816   7.955
 5881POPC   C4B 7414  18.345  11.841   7.655
 5882POPC   NC3 7415  11.346  31.462   9.455
 5882POPC   PO4 7416  11.308  31.459   9.155
 5882POPC   GL1 7417  11.252  31.507   8.855
 5882POPC   GL2 7418  11.238  31.363   8.855
 5882POPC   C1A 7419  11.322  31.484   8.555
 5882POPC   D2A 7420  11.343  31.489   8.255
 5882POPC   C3A 7421  11.349  31.446   7.955
 5882POPC   C4A 7422  11.341  31.471   7.655
 5882POPC   C1B 7423  11.145  31.261   8.555
 5882POPC   C2B 7424  11.204  31.295   8.255
 5882POPC   C3B 7425  11.165  31.235   7.955
 5882POPC   C4B 7426  11.213  31.215   7.655
 5883POPC   NC3 7427  33.803  23.679   9.455
 5883POPC   PO4 7428  33.773  23.754   9.155
 5883POPC   GL1 7429  33.827  23.681   8.855
 5883POPC   GL2 7430  33.927  23.650   8.855
 5883POPC   C1A 7431  33.826  23.705   8.555
 5883POPC   D2A 7432  33.802  23.674   8.255
 5883POPC   C3A 7433  33.791  23.754   7.955
 5883POPC   C4A 7434  33.809  23.732   7.655
 5883POPC   C1B 7435  34.050  23.632   8.555
 5883POPC   C2B 7436  34.054  23.608   8.255
 5883POPC   C3B 7437  34.036  23.598   7.955
 5883POPC   C4B 7438  34.001  23.553   7.655
 5884POPC   NC3 7439  43.086   5.860   9.455
 5884POPC   PO4 7440  43.116   5.877   9.155
 5884POPC   GL1 7441  43.086   5.828   8.855
 5884POPC   GL2 7442  43.021   5.991   8.855
 5884POPC   C1A 7443  43.139   5.914   8.555
 5884POPC   D2A 7444  43.075   5.826   8.255
 5884POPC   C3A 7445  43.110   5.838   7.955
 5884POPC   C4A 7446  43.125   5.889   7.655
 5884POPC   C1B 7447  42.883   6.020   8.555
 5884POPC   C2B 7448  42.915   5.983   8.255
 5884POPC   C3B 7449  42.908   6.048   7.955
 5884POPC   C4B 7450  42.867   6.013   7.655
 5885POPC   NC3 7451  39.266  39.271   9.455
 5885POPC   PO4 7452  39.197  39.254   9.155
 5885POPC   GL1 7453  39.223  39.271   8.855
 5885POPC   GL2 7454  39.264  39.368   8.855
 5885POPC   C1A 7455  39.216  39.209   8.555
 5885POPC   D2A 7456  39.183  39.227   8.255
 5885POPC   C3A 7457  39.230  39.235   7.955
 5885POPC   C4A 7458  39.274  39.248   7.655
 5885POPC   C1B 7459  39.402  39.445   8.555
 5885POPC   C2B 7460  39.343  39.455   8.255
 5885POPC   C3B 7461  39.387  39.474   7.955
 5885POPC   C4B 7462  39.356  39.471   7.655
 5886POPC   NC3 7463  17.476  12.846   9.455
 5886POPC   PO4 7464  17.548  12.813   9.155
 5886POPC   GL1 7465  17.527  12.820   8.855
 5886POPC   GL2 7466  17.582  12.996   8.855
 5886POPC   C1A 7467  17.474  12.839   8.555
 5886POPC   D2A 7468  17.541  12.873   8.255
 5886POPC   C3A 7469  17.493  12.863   7.955
 5886POPC   C4A 7470  17.496  12.873   7.655
 5886POPC   C1B 7471  17.606  13.067   8.555
 5886POPC   C2B 7472  17.643  13.100   8.255
 5886POPC   C3B 7473  17.594  13.052   7.955
 5886POPC   C4B 7474  17.637  13.074   7.655
 5887POPC   NC3 7475  42.303   5.078   9.455
 5887POPC   PO4 7476  42.308   5.091   9.155
 5887POPC   GL1 7477  42.357   5.047   8.855
 5887POPC   GL2 7478  42.166   5.131   8.855
 5887POPC   C1A 7479  42.321   5.085   8.555
 5887POPC   D2A 7480  42.307   5.106   8.255
 5887POPC   C3A 7481  42.324   5.066   7.955
 5887POPC   C4A 7482  42.344   5.134   7.655
 5887POPC   C1B 7483  42.059   5.061   8.555
 5887POPC   C2B 7484  42.113   5.100   8.255
 5887POPC   C3B 7485  42.107   5.079   7.955
 5887POPC   C4B 7486  42.114   5.102   7.655
 5888POPC   NC3 7487  12.804  33.010   9.455
 5888POPC   PO4 7488  12.832  32.992   9.155
 5888POPC   GL1 7489  12.861  33.004   8.855
 5888POPC   GL2 7490  12.982  33.068   8.855
 5888POPC   C1A 7491  12.852  33.060   8.555
 5888POPC   D2A 7492  12.845  33.011   8.255
 5888POPC   C3A 7493  12.843  33.018   7.955
 5888POPC   C4A 7494  12.821  33.061   7.655
 5888POPC   C1B 7495  13.042  33.126   8.555
 5888POPC   C2B 7496  13.055  33.134   8.255
 5888POPC   C3B 7497  13.094  33.107   7.955
 5888POPC   C4B 7498  13.104  33.128   7.655
 5889POPC   NC3 7499  17.516  33.011   9.455
 5889POPC   PO4 7500  17.525  33.023   9.155
 5889POPC   GL1 7501  17.557  32.980   8.855
 5889POPC   GL2 7502  17.635  33.017   8.855
 5889POPC   C1A 7503  17.477  33.043   8.555
 5889POPC   D2A 7504  17.474  33.010   8.255
 5889POPC   C3A 7505  17.462  33.032   7.955
 5889POPC   C4A 7506  17.483  33.011   7.655
 5889POPC   C1B 7507  17.755  32.996   8.555
 5889POPC   C2B 7508  17.710  32.945   8.255
 5889POPC   C3B 7509  17.753  32.971   7.955
 5889POPC   C4B 7510  17.796  32.935   7.655
 5890POPC   NC3 7511  22.144  35.380   9.455
 5890POPC   PO4 7512  22.129  35.400   9.155
 5890POPC   GL1 7513  22.132  35.340   8.855
 5890POPC   GL2 7514  22.033  35.351   8.855
 5890POPC   C1A 7515  22.189  35.344   8.555
 5890POPC   D2A 7516  22.154  35.382   8.255
 5890POPC   C3A 7517  22.130  35.336   7.955
 5890POPC   C4A 7518  22.152  35.360   7.655
 5890POPC   C1B 7519  21.919  35.298   8.555
 5890POPC   C2B 7520  21.970  35.276   8.255
 5890POPC   C3B 7521  21.937  35.230   7.955
 5890POPC   C4B 7522  21.948  35.281   7.655
 5891POPC   NC3 7523  39.194   8.159   9.455
 5891POPC   PO4 7524  39.247   8.159   9.155
 5891POPC   GL1 7525  39.205   8.194   8.855
 5891POPC   GL2 7526  39.216   8.313   8.855
 5891POPC   C1A 7527  39.265   8.208   8.555
 5891POPC   D2A 7528  39.243   8.172   8.255
 5891POPC   C3A 7529  39.264   8.160   7.955
 5891POPC   C4A 7530  39.214   8.171   7.655
 5891POPC   C1B 7531  39.275   8.416   8.555
 5891POPC   C2B 7532  39.284   8.491   8.255
 5891POPC   C3B 7533  39.267   8.472   7.955
 5891POPC   C4B 7534  39.273   8.444   7.655
 5892POPC   NC3 7535  14.365  11.335   9.455
 5892POPC   PO4 7536  14.365  11.335   9.155
 5892POPC   GL1 7537  14.453  11.346   8.855
 5892POPC   GL2 7538  14.427  11.395   8.855
 5892POPC   C1A 7539  14.361  11.272   8.555
 5892POPC   D2A 7540  14.376  11.347   8.255
 5892POPC   C3A 7541  14.418  11.350   7.955
 5892POPC   C4A 7542  14.363  11.290   7.655
 5892POPC   C1B 7543  14.463  11.568   8.555
 5892POPC   C2B 7544  14.483  11.579   8.255
 5892POPC   C3B 7545  14.395  11.584   7.955
 5892POPC   C4B 7546  14.465  11.519   7.655
 5893POPC   NC3 7547  11.341   8.950   9.455
 5893POPC   PO4 7548  11.318   9.003   9.155
 5893POPC   GL1 7549  11.344   8.961   8.855
 5893POPC   GL2 7550  11.385   8.886   8.855
 5893POPC   C1A 7551  11.265   8.971   8.555
 5893POPC   D2A 7552  11.281   8.942   8.255
 5893POPC   C3A 7553  11.257   8.994   7.955
 5893POPC   C4A 7554  11.284   8.936   7.655
 5893POPC   C1B 7555  11.456   8.810   8.555
 5893POPC   C2B 7556  11.479   8.818   8.255
 5893POPC   C3B 7557  11.453   8.787   7.955
 5893POPC   C4B 7558  11.486   8.845   7.655
 5894POPC   NC3 7559  40.797   2.770   9.455
 5894POPC   PO4 7560  40.778   2.778   9.155
 5894POPC   GL1 7561  40.764   2.787   8.855
 5894POPC   GL2 7562  40.932   2.791   8.855
 5894POPC   C1A 7563  40.815   2.737   8.555
 5894POPC   D2A 7564  40.754   2.735   8.255
 5894POPC   C3A 7565  40.796   2.729   7.955
 5894POPC   C4A 7566  40.771   2.741   7.655
 5894POPC   C1B 7567  41.001   2.886   8.555
 5894POPC   C2B 7568  40.968   2.829   8.255
 5894POPC   C3B 7569  40.975   2.835   7.955
 5894POPC   C4B 7570  41.025   2.847   7.655
 5895POPC   NC3 7571  13.609  24.526   9.455
 5895POPC   PO4 7572  13.604  24.478   9.155
 5895POPC   GL1 7573  13.655  24.539   8.855
 5895POPC   GL2 7574  13.735  24.403   8.855
 5895POPC   C1A 7575  13.663  24.531   8.555
 5895POPC   D2A 7576  13.646  24.501   8.255
 5895POPC   C3A 7577  13.630  24.495   7.955
 5895POPC   C4A 7578  13.625  24.490   7.655
 5895POPC   C1B 7579  13.778  24.265   8.555
 5895POPC   C2B 7580  13.753  24.330   8.255
 5895POPC   C3B 7581  13.761  24.282   7.955
 5895POPC   C4B 7582  13.831  24.267   7.655
 5896POPC   NC3 7583  41.584  13.653   9.455
 5896POPC   PO4 7584  41.574  13.605   9.155
 5896POPC   GL1 7585  41.573  13.589   8.855
 5896POPC   GL2 7586  41.479  13.666   8.855
 5896POPC   C1A 7587  41.556  13.652   8.555
 5896POPC   D2A 7588  41.572  13.655   8.255
 5896POPC   C3A 7589  41.590  13.637   7.955
 5896POPC   C4A 7590  41.512  13.624   7.655
 5896POPC   C1B 7591  41.347  13.714   8.555
 5896POPC   C2B 7592  41.340  13.761   8.255
 5896POPC   C3B 7593  41.314  13.716   7.955
 5896POPC   C4B 7594  41.383  13.691   7.655
 5897POPC   NC3 7595  26.786  25.273   9.455
 5897POPC   PO4 7596  26.806  25.305   9.155
 5897POPC   GL1 7597  26.851  25.220   8.855
 5897POPC   GL2 7598  26.724  25.202   8.855
 5897POPC   C1A 7599  26.824  25.266   8.555
 5897POPC   D2A 7600  26.833  25.242   8.255
 5897POPC   C3A 7601  26.821  25.220   7.955
 5897POPC   C4A 7602  26.804  25.266   7.655
 5897POPC   C1B 7603  26.697  25.096   8.555
 5897POPC   C2B 7604  26.697  25.021   8.255
 5897POPC   C3B 7605  26.670  25.010   7.955
 5897POPC   C4B 7606  26.651  25.108   7.655
 5898POPC   NC3 7607  10.568  21.366   9.455
 5898POPC   PO4 7608  10.549  21.401   9.155
 5898POPC   GL1 7609  10.518  21.403   8.855
 5898POPC   GL2 7610  10.530  21.298   8.855
 5898POPC   C1A 7611  10.483  21.434   8.555
 5898POPC   D2A 7612  10.570  21.388   8.255
 5898POPC   C3A 7613  10.487  21.363   7.955
 5898POPC   C4A 7614  10.511  21.425   7.655
 5898POPC   C1B 7615  10.637  21.161   8.555
 5898POPC   C2B 7616  10.639  21.115   8.255
 5898POPC   C3B 7617  10.645  21.113   7.955
 5898POPC   C4B 7618  10.618  21.123   7.655
 5899POPC   NC3 7619  22.984  41.554   9.455
 5899POPC   PO4 7620  22.937  41.537   9.155
 5899POPC   GL1 7621  22.956  41.574   8.855
 5899POPC   GL2 7622  22.919  41.712   8.855
 5899POPC   C1A 7623  22.951  41.558   8.555
 5899POPC   D2A 7624  22.907  41.584   8.255
 5899POPC   C3A 7625  22.971  41.512   7.955
 5899POPC   C4A 7626  22.963  41.530   7.655
 5899POPC   C1B 7627  22.811  41.737   8.555
 5899POPC   C2B 7628  22.858  41.741   8.255
 5899POPC   C3B 7629  22.848  41.751   7.955
 5899POPC   C4B 7630  22.823  41.775   7.655
 5900POPC   NC3 7631  43.149  11.326   9.455
 5900POPC   PO4 7632  43.117  11.256   9.155
 5900POPC   GL1 7633  43.156  11.262   8.855
 5900POPC   GL2 7634  43.023  11.378   8.855
 5900POPC   C1A 7635  43.072  11.295   8.555
 5900POPC   D2A 7636  43.081  11.311   8.255
 5900POPC   C3A 7637  43.113  11.322   7.955
 5900POPC   C4A 7638  43.090  11.344   7.655
 5900POPC   C1B 7639  42.921  11.479   8.555
 5900POPC   C2B 7640  42.932  11.470   8.255
 5900POPC   C3B 7641  42.939  11.449   7.955
 5900POPC   C4B 7642  42.928  11.486   7.655
 5901POPC   NC3 7643  34.607  16.757   9.455
 5901POPC   PO4 7644  34.601  16.730   9.155
 5901POPC   GL1 7645  34.546  16.709   8.855
 5901POPC   GL2 7646  34.600  16.801   8.855
 5901POPC   C1A 7647  34.594  16.683   8.555
 5901POPC   D2A 7648  34.610  16.728   8.255
 5901POPC   C3A 7649  34.542  16.747   7.955
 5901POPC   C4A 7650  34.532  16.769   7.655
 5901POPC   C1B 7651  34.707  16.904   8.555
 5901POPC   C2B 7652  34.766  16.980   8.255
 5901POPC   C3B 7653  34.699  16.920   7.955
 5901POPC   C4B 7654  34.679  16.927   7.655
 5902POPC   NC3 7655  11.329  25.238   9.455
 5902POPC   PO4 7656  11.259  25.269   9.155
 5902POPC   GL1 7657  11.345  25.228   8.855
 5902POPC   GL2 7658  11.126  25.284   8.855
 5902POPC   C1A 7659  11.272  25.304   8.555
 5902POPC   D2A 7660  11.278  25.228   8.255
 5902POPC   C3A 7661  11.256  25.254   7.955
 5902POPC   C4A 7662  11.264  25.295   7.655
 5902POPC   C1B 7663  11.080  25.303   8.555
 5902POPC   C2B 7664  11.023  25.321   8.255
 5902POPC   C3B 7665  11.080  25.282   7.955
 5902POPC   C4B 7666  11.060  25.225   7.655
 5903POPC   NC3 7667   1.243   5.075   9.455
 5903POPC   PO4 7668   1.175   5.076   9.155
 5903POPC   GL1 7669   1.209   5.110   8.855
 5903POPC   GL2 7670   1.343   5.206   8.855
 5903POPC   C1A 7671   1.202   5.057   8.555
 5903POPC   D2A 7672   1.217   5.086   8.255
 5903POPC   C3A 7673   1.182   5.051   7.955
 5903POPC   C4A 7674   1.212   5.140   7.655
 5903POPC   C1B 7675   1.363   5.266   8.555
 5903POPC   C2B 7676   1.391   5.309   8.255
 5903POPC   C3B 7677   1.393   5.308   7.955
 5903POPC   C4B 7678   1.374   5.281   7.655
 5904POPC   NC3 7679  18.296  36.176   9.455
 5904POPC   PO4 7680  18.328  36.085   9.155
 5904POPC   GL1 7681  18.255  36.128   8.855
 5904POPC   GL2 7682  18.244  36.084   8.855
 5904POPC   C1A 7683  18.271  36.109   8.555
 5904POPC   D2A 7684  18.265  36.086   8.255
 5904POPC   C3A 7685  18.322  36.151   7.955
 5904POPC   C4A 7686  18.310  36.143   7.655
 5904POPC   C1B 7687  18.153  35.986   8.555
 5904POPC   C2B 7688  18.094  35.952   8.255
 5904POPC   C3B 7689  18.106  35.953   7.955
 5904POPC   C4B 7690  18.126  35.900   7.655
 5905POPC   NC3 7691  15.964  16.766   9.455
 5905POPC   PO4 7692  15.997  16.777   9.155
 5905POPC   GL1 7693  15.962  16.735   8.855
 5905POPC   GL2 7694  16.111  16.786   8.855
 5905POPC   C1A 7695  15.969  16.721   8.555
 5905POPC   D2A 7696  15.948  16.691   8.255
 5905POPC   C3A 7697  16.000  16.765   7.955
 5905POPC   C4A 7698  15.921  16.764   7.655
 5905POPC   C1B 7699  16.174  16.862   8.555
 5905POPC   C2B 7700  16.173  16.800   8.255
 5905POPC   C3B 7701  16.151  16.823   7.955
 5905POPC   C4B 7702  16.149  16.801   7.655
 5906POPC   NC3 7703   5.116  26.815   9.455
 5906POPC   PO4 7704   5.071  26.844   9.155
 5906POPC   GL1 7705   5.066  26.791   8.855
 5906POPC   GL2 7706   4.958  26.935   8.855
 5906POPC   C1A 7707   5.117  26.835   8.555
 5906POPC   D2A 7708   5.118  26.804   8.255
 5906POPC   C3A 7709   5.074  26.844   7.955
 5906POPC   C4A 7710   5.141  26.777   7.655
 5906POPC   C1B 7711   4.922  26.992   8.555
 5906POPC   C2B 7712   4.906  26.978   8.255
 5906POPC   C3B 7713   4.869  26.976   7.955
 5906POPC   C4B 7714   4.888  26.982   7.655
 5907POPC   NC3 7715  20.570   2.719   9.455
 5907POPC   PO4 7716  20.651   2.720   9.155
 5907POPC   GL1 7717  20.570   2.798   8.855
 5907POPC   GL2 7718  20.744   2.716   8.855
 5907POPC   C1A 7719  20.627   2.719   8.555
 5907POPC   D2A 7720  20.630   2.754   8.255
 5907POPC   C3A 7721  20.576   2.809   7.955
 5907POPC   C4A 7722  20.623   2.717   7.655
 5907POPC   C1B 7723  20.808   2.649   8.555
 5907POPC   C2B 7724  20.811   2.582   8.255
 5907POPC   C3B 7725  20.809   2.577   7.955
 5907POPC   C4B 7726  20.792   2.573   7.655
 5908POPC   NC3 7727   5.838  43.907   9.455
 5908POPC   PO4 7728   5.912  43.908   9.155
 5908POPC   GL1 7729   5.876  43.907   8.855
 5908POPC   GL2 7730   5.762  43.931   8.855
 5908POPC   C1A 7731   5.850  43.839   8.555
 5908POPC   D2A 7732   5.870  43.845   8.255
 5908POPC   C3A 7733   5.875  43.859   7.955
 5908POPC   C4A 7734   5.906  43.843   7.655
 5908POPC   C1B 7735   5.661  44.002   8.555
 5908POPC   C2B 7736   5.637  44.021   8.255
 5908POPC   C3B 7737   5.611  43.947   7.955
 5908POPC   C4B 7738   5.687  43.938   7.655
 5909POPC   NC3 7739  21.354  32.211   9.455
 5909POPC   PO4 7740  21.376  32.287   9.155
 5909POPC   GL1 7741  21.411  32.269   8.855
 5909POPC   GL2 7742  21.480  32.347   8.855
 5909POPC   C1A 7743  21.408  32.261   8.555
 5909POPC   D2A 7744  21.342  32.199   8.255
 5909POPC   C3A 7745  21.407  32.244   7.955
 5909POPC   C4A 7746  21.367  32.272   7.655
 5909POPC   C1B 7747  21.464  32.515   8.555
 5909POPC   C2B 7748  21.506  32.491   8.255
 5909POPC   C3B 7749  21.488  32.474   7.955
 5909POPC   C4B 7750  21.514  32.452   7.655
 5910POPC   NC3 7751  30.689  26.785   9.455
 5910POPC   PO4 7752  30.699  26.847   9.155
 5910POPC   GL1 7753  30.653  26.816   8.855
 5910POPC   GL2 7754  30.565  26.819   8.855
 5910POPC   C1A 7755  30.740  26.824   8.555
 5910POPC   D2A 7756  30.734  26.854   8.255
 5910POPC   C3A 7757  30.687  26.808   7.955
 5910POPC   C4A 7758  30.708  26.808   7.655
 5910POPC   C1B 7759  30.452  26.768   8.555
 5910POPC   C2B 7760  30.481  26.711   8.255
 5910POPC   C3B 7761  30.437  26.692   7.955
 5910POPC   C4B 7762  30.500  26.705   7.655
 5911POPC   NC3 7763   3.500  28.355   9.455
 5911POPC   PO4 7764   3.539  28.339   9.155
 5911POPC   GL1 7765   3.545  28.372   8.855
 5911POPC   GL2 7766   3.639  28.332   8.855
 5911POPC   C1A 7767   3.570  28.329   8.555
 5911POPC   D2A 7768   3.585  28.381   8.255
 5911POPC   C3A 7769   3.550  28.364   7.955
 5911POPC   C4A 7770   3.574  28.395   7.655
 5911POPC   C1B 7771   3.731  28.208   8.555
 5911POPC   C2B 7772   3.709  28.165   8.255
 5911POPC   C3B 7773   3.712  28.188   7.955
 5911POPC   C4B 7774   3.713  28.180   7.655
 5912POPC   NC3 7775  10.507   1.190   9.455
 5912POPC   PO4 7776  10.507   1.196   9.155
 5912POPC   GL1 7777  10.537   1.208   8.855
 5912POPC   GL2 7778  10.397   1.103   8.855
 5912POPC   C1A 7779  10.541   1.223   8.555
 5912POPC   D2A 7780  10.564   1.247   8.255
 5912POPC   C3A 7781  10.527   1.228   7.955
 5912POPC   C4A 7782  10.550   1.174   7.655
 5912POPC   C1B 7783  10.282   1.008   8.555
 5912POPC   C2B 7784  10.303   1.058   8.255
 5912POPC   C3B 7785  10.338   1.039   7.955
 5912POPC   C4B 7786  10.291   1.091   7.655
 5913POPC   NC3 7787  12.110  36.892   9.455
 5913POPC   PO4 7788  12.091  36.866   9.155
 5913POPC   GL1 7789  12.123  36.888   8.855
 5913POPC   GL2 7790  11.964  36.788   8.855
 5913POPC   C1A 7791  12.119  36.873   8.555
 5913POPC   D2A 7792  12.058  36.948   8.255
 5913POPC   C3A 7793  12.057  36.880   7.955
 5913POPC   C4A 7794  12.029  36.916   7.655
 5913POPC   C1B 7795  11.844  36.795   8.555
 5913POPC   C2B 7796  11.875  36.777   8.255
 5913POPC   C3B 7797  11.818  36.809   7.955
 5913POPC   C4B 7798  11.912  36.793   7.655
 5914POPC   NC3 7799  18.273  15.201   9.455
 5914POPC   PO4 7800  18.279  15.134   9.155
 5914POPC   GL1 7801  18.330  15.205   8.855
 5914POPC   GL2 7802  18.365  15.101   8.855
 5914POPC   C1A 7803  18.270  15.218   8.555
 5914POPC   D2A 7804  18.302  15.134   8.255
 5914POPC   C3A 7805  18.265  15.187   7.955
 5914POPC   C4A 7806  18.318  15.182   7.655
 5914POPC   C1B 7807  18.513  15.062   8.555
 5914POPC   C2B 7808  18.504  15.077   8.255
 5914POPC   C3B 7809  18.548  15.065   7.955
 5914POPC   C4B 7810  18.560  15.091   7.655
 5915POPC   NC3 7811  29.949  35.379   9.455
 5915POPC   PO4 7812  29.913  35.347   9.155
 5915POPC   GL1 7813  29.907  35.327   8.855
 5915POPC   GL2 7814  30.083  35.362   8.855
 5915POPC   C1A 7815  29.968  35.333   8.555
 5915POPC   D2A 7816  29.883  35.393   8.255
 5915POPC   C3A 7817  29.903  35.346   7.955
 5915POPC   C4A 7818  29.931  35.308   7.655
 5915POPC   C1B 7819  30.110  35.262   8.555
 5915POPC   C2B 7820  30.205  35.278   8.255
 5915POPC   C3B 7821  30.152  35.237   7.955
 5915POPC   C4B 7822  30.199  35.261   7.655
 5916POPC   NC3 7823  35.344  30.733   9.455
 5916POPC   PO4 7824  35.398  30.669   9.155
 5916POPC   GL1 7825  35.354  30.702   8.855
 5916POPC   GL2 7826  35.427  30.716   8.855
 5916POPC   C1A 7827  35.401  30.675   8.555
 5916POPC   D2A 7828  35.324  30.688   8.255
 5916POPC   C3A 7829  35.395  30.683   7.955
 5916POPC   C4A 7830  35.316  30.742   7.655
 5916POPC   C1B 7831  35.541  30.791   8.555
 5916POPC   C2B 7832  35.528  30.780   8.255
 5916POPC   C3B 7833  35.585  30.782   7.955
 5916POPC   C4B 7834  35.567  30.761   7.655
 5917POPC   NC3 7835  34.603  36.135   9.455
 5917POPC   PO4 7836  34.579  36.136   9.155
 5917POPC   GL1 7837  34.555  36.138   8.855
 5917POPC   GL2 7838  34.455  36.124   8.855
 5917POPC   C1A 7839  34.535  36.126   8.555
 5917POPC   D2A 7840  34.535  36.144   8.255
 5917POPC   C3A 7841  34.621  36.099   7.955
 5917POPC   C4A 7842  34.533  36.082   7.655
 5917POPC   C1B 7843  34.316  36.186   8.555
 5917POPC   C2B 7844  34.373  36.123   8.255
 5917POPC   C3B 7845  34.292  36.108   7.955
 5917POPC   C4B 7846  34.337  36.176   7.655
 5918POPC   NC3 7847  36.952  15.995   9.455
 5918POPC   PO4 7848  36.908  15.983   9.155
 5918POPC   GL1 7849  36.873  15.912   8.855
 5918POPC   GL2 7850  36.912  15.796   8.855
 5918POPC   C1A 7851  36.904  15.953   8.555
 5918POPC   D2A 7852  36.919  15.970   8.255
 5918POPC   C3A 7853  36.861  15.931   7.955
 5918POPC   C4A 7854  36.890  15.945   7.655
 5918POPC   C1B 7855  36.873  15.700   8.555
 5918POPC   C2B 7856  36.859  15.677   8.255
 5918POPC   C3B 7857  36.842  15.763   7.955
 5918POPC   C4B 7858  36.816  15.761   7.655
 5919POPC   NC3 7859   5.823  16.731   9.455
 5919POPC   PO4 7860   5.821  16.700   9.155
 5919POPC   GL1 7861   5.883  16.778   8.855
 5919POPC   GL2 7862   5.707  16.800   8.855
 5919POPC   C1A 7863   5.874  16.710   8.555
 5919POPC   D2A 7864   5.895  16.733   8.255
 5919POPC   C3A 7865   5.860  16.695   7.955
 5919POPC   C4A 7866   5.828  16.720   7.655
 5919POPC   C1B 7867   5.579  16.794   8.555
 5919POPC   C2B 7868   5.649  16.775   8.255
 5919POPC   C3B 7869   5.607  16.732   7.955
 5919POPC   C4B 7870   5.590  16.736   7.655
 5920POPC   NC3 7871   9.772  29.903   9.455
 5920POPC   PO4 7872   9.699  29.895   9.155
 5920POPC   GL1 7873   9.772  29.959   8.855
 5920POPC   GL2 7874   9.860  30.003   8.855
 5920POPC   C1A 7875   9.758  29.940   8.555
 5920POPC   D2A 7876   9.760  29.908   8.255
 5920POPC   C3A 7877   9.750  29.926   7.955
 5920POPC   C4A 7878   9.761  29.888   7.655
 5920POPC   C1B 7879   9.926  30.085   8.555
 5920POPC   C2B 7880   9.935  30.055   8.255
 5920POPC   C3B 7881   9.946  30.082   7.955
 5920POPC   C4B 7882   9.978  30.089   7.655
 5921POPC   NC3 7883  13.640  11.281   9.455
 5921POPC   PO4 7884  13.602  11.319   9.155
 5921POPC   GL1 7885  13.590  11.342   8.855
 5921POPC   GL2 7886  13.747  11.183   8.855
 5921POPC   C1A 7887  13.602  11.310   8.555
 5921POPC   D2A 7888  13.600  11.262   8.255
 5921POPC   C3A 7889  13.677  11.256   7.955
 5921POPC   C4A 7890  13.635  11.251   7.655
 5921POPC   C1B 7891  13.796  11.204   8.555
 5921POPC   C2B 7892  13.803  11.172   8.255
 5921POPC   C3B 7893  13.858  11.143   7.955
 5921POPC   C4B 7894  13.841  11.153   7.655
 5922POPC   NC3 7895   2.743  33.756   9.455
 5922POPC   PO4 7896   2.811  33.847   9.155
 5922POPC   GL1 7897   2.781  33.831   8.855
 5922POPC   GL2 7898   2.829  33.642   8.855
 5922POPC   C1A 7899   2.738  33.797   8.555
 5922POPC   D2A 7900   2.746  33.777   8.255
 5922POPC   C3A 7901   2.797  33.840   7.955
 5922POPC   C4A 7902   2.749  33.774   7.655
 5922POPC   C1B 7903   2.858  33.597   8.555
 5922POPC   C2B 7904   2.848  33.535   8.255
 5922POPC   C3B 7905   2.769  33.548   7.955
 5922POPC   C4B 7906   2.828  33.570   7.655
 5923POPC   NC3 7907  23.722  26.829   9.455
 5923POPC   PO4 7908  23.729  26.830   9.155
 5923POPC   GL1 7909  23.728  26.797   8.855
 5923POPC   GL2 7910  23.813  26.733   8.855
 5923POPC   C1A 7911  23.758  26.844   8.555
 5923POPC   D2A 7912  23.674  26.784   8.255
 5923POPC   C3A 7913  23.755  26.834   7.955
 5923POPC   C4A 7914  23.685  26.808   7.655
 5923POPC   C1B 7915  23.831  26.625   8.555
 5923POPC   C2B 7916  23.806  26.585   8.255
 5923POPC   C3B 7917  23.872  26.650   7.955
 5923POPC   C4B 7918  23.892  26.555   7.655
 5924POPC   NC3 7919   2.788   5.058   9.455
 5924POPC   PO4 7920   2.726   5.103   9.155
 5924POPC   GL1 7921   2.769   5.094   8.855
 5924POPC   GL2 7922   2.899   5.101   8.855
 5924POPC   C1A 7923   2.737   5.129   8.555
 5924POPC   D2A 7924   2.805   5.056   8.255
 5924POPC   C3A 7925   2.716   5.133   7.955
 5924POPC   C4A 7926   2.788   5.091   7.655
 5924POPC   C1B 7927   2.980   5.174   8.555
 5924POPC   C2B 7928   2.965   5.192   8.255
 5924POPC   C3B 7929   3.021   5.194   7.955
 5924POPC   C4B 7930   2.991   5.212   7.655
 5925POPC   NC3 7931  15.138  38.486   9.455
 5925POPC   PO4 7932  15.219  38.435   9.155
 5925POPC   GL1 7933  15.168  38.429   8.855
 5925POPC   GL2 7934  15.303  38.349   8.855
 5925POPC   C1A 7935  15.131  38.431   8.555
 5925POPC   D2A 7936  15.138  38.440   8.255
 5925POPC   C3A 7937  15.147  38.448   7.955
 5925POPC   C4A 7938  15.184  38.473   7.655
 5925POPC   C1B 7939  15.346  38.342   8.555
 5925POPC   C2B 7940  15.359  38.327   8.255
 5925POPC   C3B 7941  15.384  38.302   7.955
 5925POPC   C4B 7942  15.350  38.354   7.655
 5926POPC   NC3 7943  10.482  39.199   9.455
 5926POPC   PO4 7944  10.569  39.223   9.155
 5926POPC   GL1 7945  10.530  39.255   8.855
 5926POPC   GL2 7946  10.513  39.137   8.855
 5926POPC   C1A 7947  10.478  39.264   8.555
 5926POPC   D2A 7948  10.530  39.222   8.255
 5926POPC   C3A 7949  10.569  39.280   7.955
 5926POPC   C4A 7950  10.536  39.204   7.655
 5926POPC   C1B 7951  10.435  39.014   8.555
 5926POPC   C2B 7952  10.414  38.974   8.255
 5926POPC   C3B 7953  10.438  39.007   7.955
 5926POPC   C4B 7954  10.442  39.030   7.655
 5927POPC   NC3 7955  29.100  22.954   9.455
 5927POPC   PO4 7956  29.120  22.935   9.155
 5927POPC   GL1 7957  29.190  22.940   8.855
 5927POPC   GL2 7958  29.227  22.939   8.855
 5927POPC   C1A 7959  29.187  22.902   8.555
 5927POPC   D2A 7960  29.147  22.961   8.255
 5927POPC   C3A 7961  29.148  22.893   7.955
 5927POPC   C4A 7962  29.153  22.921   7.655
 5927POPC   C1B 7963  29.373  22.910   8.555
 5927POPC   C2B 7964  29.385  22.884   8.255
 5927POPC   C3B 7965  29.394  22.960   7.955
 5927POPC   C4B 7966  29.416  22.937   7.655
 5928POPC   NC3 7967  20.601   5.850   9.455
 5928POPC   PO4 7968  20.630   5.860   9.155
 5928POPC   GL1 7969  20.600   5.832   8.855
 5928POPC   GL2 7970  20.650   6.027   8.855
 5928POPC   C1A 7971  20.645   5.850   8.555
 5928POPC   D2A 7972  20.567   5.855   8.255
 5928POPC   C3A 7973  20.586   5.843   7.955
 5928POPC   C4A 7974  20.613   5.871   7.655
 5928POPC   C1B 7975  20.617   6.088   8.555
 5928POPC   C2B 7976  20.619   6.104   8.255
 5928POPC   C3B 7977  20.651   6.106   7.955
 5928POPC   C4B 7978  20.623   6.078   7.655
 5929POPC   NC3 7979  36.111  14.397   9.455
 5929POPC   PO4 7980  36.117  14.374   9.155
 5929POPC   GL1 7981  36.159  14.416   8.855
 5929POPC   GL2 7982  36.197  14.560   8.855
 5929POPC   C1A 7983  36.120  14.401   8.555
 5929POPC   D2A 7984  36.099  14.385   8.255
 5929POPC   C3A 7985  36.147  14.423   7.955
 5929POPC   C4A 7986  36.166  14.440   7.655
 5929POPC   C1B 7987  36.269  14.667   8.555
 5929POPC   C2B 7988  36.213  14.592   8.255
 5929POPC   C3B 7989  36.257  14.592   7.955
 5929POPC   C4B 7990  36.193  14.613   7.655
 5930POPC   NC3 7991  21.380  44.664   9.455
 5930POPC   PO4 7992  21.365  44.659   9.155
 5930POPC   GL1 7993  21.403  44.706   8.855
 5930POPC   GL2 7994  21.421  44.823   8.855
 5930POPC   C1A 7995  21.426  44.670   8.555
 5930POPC   D2A 7996  21.344  44.712   8.255
 5930POPC   C3A 7997  21.344  44.656   7.955
 5930POPC   C4A 7998  21.368  44.619   7.655
 5930POPC   C1B 7999  21.431  44.929   8.555
 5930POPC   C2B 8000  21.375  44.881   8.255
 5930POPC   C3B 8001  21.387  44.958   7.955
 5930POPC   C4B 8002  21.423  44.882   7.655
 5931POPC   NC3 8003   1.170  17.477   9.455
 5931POPC   PO4 8004   1.186  17.458   9.155
 5931POPC   GL1 8005   1.169  17.482   8.855
 5931POPC   GL2 8006   1.158  17.404   8.855
 5931POPC   C1A 8007   1.165  17.467   8.555
 5931POPC   D2A 8008   1.176  17.492   8.255
 5931POPC   C3A 8009   1.237  17.465   7.955
 5931POPC   C4A 8010   1.194  17.525   7.655
 5931POPC   C1B 8011   1.081  17.241   8.555
 5931POPC   C2B 8012   1.114  17.274   8.255
 5931POPC   C3B 8013   1.128  17.235   7.955
 5931POPC   C4B 8014   1.095  17.288   7.655
 5932POPC   NC3 8015   3.577  29.129   9.455
 5932POPC   PO4 8016   3.569  29.159   9.155
 5932POPC   GL1 8017   3.540  29.111   8.855
 5932POPC   GL2 8018   3.439  29.232   8.855
 5932POPC   C1A 8019   3.530  29.095   8.555
 5932POPC   D2A 8020   3.567  29.189   8.255
 5932POPC   C3A 8021   3.515  29.170   7.955
 5932POPC   C4A 8022   3.513  29.188   7.655
 5932POPC   C1B 8023   3.430  29.319   8.555
 5932POPC   C2B 8024   3.450  29.413   8.255
 5932POPC   C3B 8025   3.452  29.415   7.955
 5932POPC   C4B 8026   3.449  29.400   7.655
 5933POPC   NC3 8027  11.268  22.987   9.455
 5933POPC   PO4 8028  11.316  22.927   9.155
 5933POPC   GL1 8029  11.332  22.920   8.855
 5933POPC   GL2 8030  11.431  22.889   8.855
 5933POPC   C1A 8031  11.280  22.944   8.555
 5933POPC   D2A 8032  11.298  22.940   8.255
 5933POPC   C3A 8033  11.284  22.912   7.955
 5933POPC   C4A 8034  11.277  22.892   7.655
 5933POPC   C1B 8035  11.503  22.860   8.555
 5933POPC   C2B 8036  11.560  22.940   8.255
 5933POPC   C3B 8037  11.533  22.890   7.955
 5933POPC   C4B 8038  11.501  22.863   7.655
 5934POPC   NC3 8039  27.612  22.199   9.455
 5934POPC   PO4 8040  27.637  22.120   9.155
 5934POPC   GL1 8041  27.551  22.179   8.855
 5934POPC   GL2 8042  27.490  22.045   8.855
 5934POPC   C1A 8043  27.575  22.131   8.555
 5934POPC   D2A 8044  27.569  22.144   8.255
 5934POPC   C3A 8045  27.611  22.115   7.955
 5934POPC   C4A 8046  27.590  22.206   7.655
 5934POPC   C1B 8047  27.507  21.920   8.555
 5934POPC   C2B 8048  27.436  21.945   8.255
 5934POPC   C3B 8049  27.442  21.987   7.955
 5934POPC   C4B 8050  27.499  21.975   7.655
 5935POPC   NC3 8051  24.522   7.460   9.455
 5935POPC   PO4 8052  24.477   7.378   9.155
 5935POPC   GL1 8053  24.451   7.382   8.855
 5935POPC   GL2 8054  24.595   7.372   8.855
 5935POPC   C1A 8055  24.471   7.408   8.555
 5935POPC   D2A 8056  24.523   7.424   8.255
 5935POPC   C3A 8057  24.533   7.410   7.955
 5935POPC   C4A 8058  24.494   7.452   7.655
 5935POPC   C1B 8059  24.701   7.289   8.555
 5935POPC   C2B 8060  24.681   7.231   8.255
 5935POPC   C3B 8061  24.707   7.241   7.955
 5935POPC   C4B 8062  24.629   7.256   7.655
 5936POPC   NC3 8063  17.508  41.581   9.455
 5936POPC   PO4 8064  17.484  41.512   9.155
 5936POPC   GL1 8065  17.505  41.586   8.855
 5936POPC   GL2 8066  17.599  41.662   8.855
 5936POPC   C1A 8067  17.527  41.516   8.555
 5936POPC   D2A 8068  17.527  41.602   8.255
 5936POPC   C3A 8069  17.474  41.569   7.955
 5936POPC   C4A 8070  17.461  41.525   7.655
 5936POPC   C1B 8071  17.651  41.711   8.555
 5936POPC   C2B 8072  17.720  41.772   8.255
 5936POPC   C3B 8073  17.731  41.773   7.955
 5936POPC   C4B 8074  17.674  41.765   7.655
 5937POPC   NC3 8075   7.387  12.811   9.455
 5937POPC   PO4 8076   7.466  12.882   9.155
 5937POPC   GL1 8077   7.432  12.878   8.855
 5937POPC   GL2 8078   7.436  12.954   8.855
 5937POPC   C1A 8079   7.403  12.850   8.555
 5937POPC   D2A 8080   7.446  12.815   8.255
 5937POPC   C3A 8081   7.428  12.831   7.955
 5937POPC   C4A 8082   7.398  12.859   7.655
 5937POPC   C1B 8083   7.581  13.122   8.555
 5937POPC   C2B 8084   7.574  13.023   8.255
 5937POPC   C3B 8085   7.494  13.059   7.955
 5937POPC   C4B 8086   7.550  13.100   7.655
 5938POPC   NC3 8087  13.628  43.860   9.455
 5938POPC   PO4 8088  13.646  43.867   9.155
 5938POPC   GL1 8089  13.626  43.903   8.855
 5938POPC   GL2 8090  13.726  43.786   8.855
 5938POPC   C1A 8091  13.610  43.879   8.555
 5938POPC   D2A 8092  13.674  43.920   8.255
 5938POPC   C3A 8093  13.621  43.848   7.955
 5938POPC   C4A 8094  13.609  43.927   7.655
 5938POPC   C1B 8095  13.866  43.707   8.555
 5938POPC   C2B 8096  13.857  43.692   8.255
 5938POPC   C3B 8097  13.865  43.742   7.955
 5938POPC   C4B 8098  13.830  43.772   7.655
 5939POPC   NC3 8099   9.723  18.317   9.455
 5939POPC   PO4 8100   9.721  18.292   9.155
 5939POPC   GL1 8101   9.714  18.309   8.855
 5939POPC   GL2 8102   9.679  18.219   8.855
 5939POPC   C1A 8103   9.717  18.311   8.555
 5939POPC   D2A 8104   9.783  18.330   8.255
 5939POPC   C3A 8105   9.786  18.239   7.955
 5939POPC   C4A 8106   9.763  18.235   7.655
 5939POPC   C1B 8107   9.558  18.138   8.555
 5939POPC   C2B 8108   9.550  18.147   8.255
 5939POPC   C3B 8109   9.557  18.185   7.955
 5939POPC   C4B 8110   9.518  18.191   7.655
 5940POPC   NC3 8111   1.974  38.460   9.455
 5940POPC   PO4 8112   2.005  38.482   9.155
 5940POPC   GL1 8113   1.945  38.438   8.855
 5940POPC   GL2 8114   1.862  38.367   8.855
 5940POPC   C1A 8115   2.005  38.417   8.555
 5940POPC   D2A 8116   1.993  38.437   8.255
 5940POPC   C3A 8117   2.029  38.423   7.955
 5940POPC   C4A 8118   2.016  38.411   7.655
 5940POPC   C1B 8119   1.819  38.331   8.555
 5940POPC   C2B 8120   1.802  38.267   8.255
 5940POPC   C3B 8121   1.752  38.295   7.955
 5940POPC   C4B 8122   1.810  38.280   7.655
 5941POPC   NC3 8123  34.545  22.955   9.455
 5941POPC   PO4 8124  34.530  22.933   9.155
 5941POPC   GL1 8125  34.528  22.916   8.855
 5941POPC   GL2 8126  34.558  23.070   8.855
 5941POPC   C1A 8127  34.595  22.900   8.555
 5941POPC   D2A 8128  34.547  22.936   8.255
 5941POPC   C3A 8129  34.589  22.977   7.955
 5941POPC   C4A 8130  34.574  22.941   7.655
 5941POPC   C1B 8131  34.565  23.202   8.555
 5941POPC   C2B 8132  34.564  23.165   8.255
 5941POPC   C3B 8133  34.617  23.175   7.955
 5941POPC   C4B 8134  34.585  23.192   7.655
 5942POPC   NC3 8135   2.018  23.671   9.455
 5942POPC   PO4 8136   1.942  23.693   9.155
 5942POPC   GL1 8137   2.038  23.731   8.855
 5942POPC   GL2 8138   2.076  23.677   8.855
 5942POPC   C1A 8139   2.016  23.707   8.555
 5942POPC   D2A 8140   1.947  23.748   8.255
 5942POPC   C3A 8141   2.019  23.679   7.955
 5942POPC   C4A 8142   1.964  23.677   7.655
 5942POPC   C1B 8143   2.166  23.580   8.555
 5942POPC   C2B 8144   2.217  23.598   8.255
 5942POPC   C3B 8145   2.141  23.579   7.955
 5942POPC   C4B 8146   2.215  23.523   7.655
 5943POPC   NC3 8147  22.176  43.146   9.455
 5943POPC   PO4 8148  22.143  43.143   9.155
 5943POPC   GL1 8149  22.196  43.125   8.855
 5943POPC   GL2 8150  22.078  43.066   8.855
 5943POPC   C1A 8151  22.186  43.076   8.555
 5943POPC   D2A 8152  22.195  43.119   8.255
 5943POPC   C3A 8153  22.176  43.148   7.955
 5943POPC   C4A 8154  22.152  43.073   7.655
 5943POPC   C1B 8155  21.899  43.012   8.555
 5943POPC   C2B 8156  21.960  43.078   8.255
 5943POPC   C3B 8157  21.876  43.037   7.955
 5943POPC   C4B 8158  21.946  43.057   7.655
 5944POPC   NC3 8159  14.416  43.144   9.455
 5944POPC   PO4 8160  14.397  43.097   9.155
 5944POPC   GL1 8161  14.431  43.080   8.855
 5944POPC   GL2 8162  14.452  43.217   8.855
 5944POPC   C1A 8163  14.450  43.139   8.555
 5944POPC   D2A 8164  14.407  43.128   8.255
 5944POPC   C3A 8165  14.368  43.157   7.955
 5944POPC   C4A 8166  14.442  43.076   7.655
 5944POPC   C1B 8167  14.537  43.362   8.555
 5944POPC   C2B 8168  14.509  43.316   8.255
 5944POPC   C3B 8169  14.510  43.363   7.955
 5944POPC   C4B 8170  14.545  43.328   7.655
 5945POPC   NC3 8171  21.343   6.656   9.455
 5945POPC   PO4 8172  21.424   6.639   9.155
 5945POPC   GL1 8173  21.366   6.683   8.855
 5945POPC   GL2 8174  21.549   6.680   8.855
 5945POPC   C1A 8175  21.341   6.671   8.555
 5945POPC   D2A 8176  21.405   6.608   8.255
 5945POPC   C3A 8177  21.337   6.650   7.955
 5945POPC   C4A 8178  21.373   6.693   7.655
 5945POPC   C1B 8179  21.658   6.738   8.555
 5945POPC   C2B 8180  21.586   6.744   8.255
 5945POPC   C3B 8181  21.639   6.681   7.955
 5945POPC   C4B 8182  21.621   6.759   7.655
 5946POPC   NC3 8183   4.283   2.036   9.455
 5946POPC   PO4 8184   4.298   1.966   9.155
 5946POPC   GL1 8185   4.365   2.022   8.855
 5946POPC   GL2 8186   4.389   2.101   8.855
 5946POPC   C1A 8187   4.349   1.943   8.555
 5946POPC   D2A 8188   4.296   1.972   8.255
 5946POPC   C3A 8189   4.297   2.019   7.955
 5946POPC   C4A 8190   4.354   2.023   7.655
 5946POPC   C1B 8191   4.450   2.246   8.555
 5946POPC   C2B 8192   4.458   2.211   8.255
 5946POPC   C3B 8193   4.404   2.182   7.955
 5946POPC   C4B 8194   4.457   2.193   7.655
 5947POPC   NC3 8195  44.639  44.633   9.455
 5947POPC   PO4 8196  44.693  44.690   9.155
 5947POPC   GL1 8197  44.637  44.699   8.855
 5947POPC   GL2 8198  44.693  44.508   8.855
 5947POPC   C1A 8199  44.701  44.654   8.555
 5947POPC   D2A 8200  44.690  44.700   8.255
 5947POPC   C3A 8201  44.682  44.650   7.955
 5947POPC   C4A 8202  44.619  44.638   7.655
 5947POPC   C1B 8203  44.652  44.365   8.555
 5947POPC   C2B 8204  44.669  44.418   8.255
 5947POPC   C3B 8205  44.646  44.421   7.955
 5947POPC   C4B 8206  44.670  44.374   7.655
 5948POPC   NC3 8207  15.156  22.973   9.455
 5948POPC   PO4 8208  15.196  22.909   9.155
 5948POPC   GL1 8209  15.133  22.933   8.855
 5948POPC   GL2 8210  15.063  22.977   8.855
 5948POPC   C1A 8211  15.204  22.937   8.555
 5948POPC   D2A 8212  15.201  22.987   8.255
 5948POPC   C3A 8213  15.215  22.919   7.955
 5948POPC   C4A 8214  15.203  22.929   7.655
 5948POPC   C1B 8215  14.967  23.038   8.555
 5948POPC   C2B 8216  14.936  23.107   8.255
 5948POPC   C3B 8217  14.942  23.086   7.955
 5948POPC   C4B 8218  15.012  23.115   7.655
 5949POPC   NC3 8219  26.799  26.052   9.455
 5949POPC   PO4 8220  26.768  26.063   9.155
 5949POPC   GL1 8221  26.822  26.000   8.855
 5949POPC   GL2 8222  26.742  26.170   8.855
 5949POPC   C1A 8223  26.788  26.079   8.555
 5949POPC   D2A 8224  26.850  26.032   8.255
 5949POPC   C3A 8225  26.789  26.026   7.955
 5949POPC   C4A 8226  26.771  26.081   7.655
 5949POPC   C1B 8227  26.664  26.181   8.555
 5949POPC   C2B 8228  26.672  26.189   8.255
 5949POPC   C3B 8229  26.635  26.173   7.955
 5949POPC   C4B 8230  26.680  26.206   7.655
 5950POPC   NC3 8231  43.841  44.661   9.455
 5950POPC   PO4 8232  43.920  44.689   9.155
 5950POPC   GL1 8233  43.871  44.625   8.855
 5950POPC   GL2 8234  43.792  44.575   8.855
 5950POPC   C1A 8235  43.916  44.666   8.555
 5950POPC   D2A 8236  43.856  44.684   8.255
 5950POPC   C3A 8237  43.901  44.692   7.955
 5950POPC   C4A 8238  43.910  44.704   7.655
 5950POPC   C1B 8239  43.630  44.590   8.555
 5950POPC   C2B 8240  43.696  44.522   8.255
 5950POPC   C3B 8241  43.648  44.550   7.955
 5950POPC   C4B 8242  43.709  44.548   7.655
 5951POPC   NC3 8243  36.866  42.353   9.455
 5951POPC   PO4 8244  36.875  42.354   9.155
 5951POPC   GL1 8245  36.904  42.325   8.855
 5951POPC   GL2 8246  36.831  42.238   8.855
 5951POPC   C1A 8247  36.953  42.292   8.555
 5951POPC   D2A 8248  36.939  42.357   8.255
 5951POPC   C3A 8249  36.859  42.322   7.955
 5951POPC   C4A 8250  36.886  42.300   7.655
 5951POPC   C1B 8251  36.791  42.098   8.555
 5951POPC   C2B 8252  36.829  42.081   8.255
 5951POPC   C3B 8253  36.791  42.086   7.955
 5951POPC   C4B 8254  36.821  42.142   7.655
 5952POPC   NC3 8255  25.993   5.120   9.455
 5952POPC   PO4 8256  26.056   5.094   9.155
 5952POPC   GL1 8257  26.046   5.053   8.855
 5952POPC   GL2 8258  26.038   5.198   8.855
 5952POPC   C1A 8259  26.068   5.056   8.555
 5952POPC   D2A 8260  26.007   5.093   8.255
 5952POPC   C3A 8261  26.082   5.131   7.955
 5952POPC   C4A 8262  26.058   5.072   7.655
 5952POPC   C1B 8263  26.074   5.336   8.555
 5952POPC   C2B 8264  26.036   5.299   8.255
 5952POPC   C3B 8265  26.042   5.326   7.955
 5952POPC   C4B 8266  26.102   5.342   7.655
 5953POPC   NC3 8267  24.505  38.497   9.455
 5953POPC   PO4 8268  24.484  38.498   9.155
 5953POPC   GL1 8269  24.506  38.448   8.855
 5953POPC   GL2 8270  24.601  38.466   8.855
 5953POPC   C1A 8271  24.455  38.499   8.555
 5953POPC   D2A 8272  24.520  38.476   8.255
 5953POPC   C3A 8273  24.453  38.415   7.955
 5953POPC   C4A 8274  24.506  38.439   7.655
 5953POPC   C1B 8275  24.706  38.447   8.555
 5953POPC   C2B 8276  24.766  38.493   8.255
 5953POPC   C3B 8277  24.769  38.437   7.955
 5953POPC   C4B 8278  24.756  38.524   7.655
 5954POPC   NC3 8279  25.260  39.967   9.455
 5954POPC   PO4 8280  25.247  39.996   9.155
 5954POPC   GL1 8281  25.314  40.034   8.855
 5954POPC   GL2 8282  25.153  40.069   8.855
 5954POPC   C1A 8283  25.307  40.017   8.555
 5954POPC   D2A 8284  25.226  40.013   8.255
 5954POPC   C3A 8285  25.243  40.024   7.955
 5954POPC   C4A 8286  25.220  40.021   7.655
 5954POPC   C1B 8287  25.018  40.109   8.555
 5954POPC   C2B 8288  25.099  40.101   8.255
 5954POPC   C3B 8289  25.021  40.104   7.955
 5954POPC   C4B 8290  25.023  40.166   7.655
 5955POPC   NC3 8291   5.826  27.591   9.455
 5955POPC   PO4 8292   5.899  27.634   9.155
 5955POPC   GL1 8293   5.862  27.595   8.855
 5955POPC   GL2 8294   5.975  27.570   8.855
 5955POPC   C1A 8295   5.874  27.628   8.555
 5955POPC   D2A 8296   5.851  27.624   8.255
 5955POPC   C3A 8297   5.851  27.584   7.955
 5955POPC   C4A 8298   5.891  27.604   7.655
 5955POPC   C1B 8299   6.085  27.450   8.555
 5955POPC   C2B 8300   6.036  27.486   8.255
 5955POPC   C3B 8301   6.053  27.457   7.955
 5955POPC   C4B 8302   6.071  27.464   7.655
 5956POPC   NC3 8303   8.239  42.286   9.455
 5956POPC   PO4 8304   8.158  42.360   9.155
 5956POPC   GL1 8305   8.187  42.302   8.855
 5956POPC   GL2 8306   8.041  42.364   8.855
 5956POPC   C1A 8307   8.190  42.289   8.555
 5956POPC   D2A 8308   8.175  42.327   8.255
 5956POPC   C3A 8309   8.151  42.380   7.955
 5956POPC   C4A 8310   8.152  42.342   7.655
 5956POPC   C1B 8311   7.958  42.310   8.555
 5956POPC   C2B 8312   7.924  42.339   8.255
 5956POPC   C3B 8313   7.966  42.271   7.955
 5956POPC   C4B 8314   7.900  42.285   7.655
 5957POPC   NC3 8315  43.921  30.664   9.455
 5957POPC   PO4 8316  43.889  30.711   9.155
 5957POPC   GL1 8317  43.901  30.725   8.855
 5957POPC   GL2 8318  43.905  30.787   8.855
 5957POPC   C1A 8319  43.935  30.659   8.555
 5957POPC   D2A 8320  43.920  30.711   8.255
 5957POPC   C3A 8321  43.912  30.696   7.955
 5957POPC   C4A 8322  43.931  30.688   7.655
 5957POPC   C1B 8323  43.885  30.960   8.555
 5957POPC   C2B 8324  43.867  30.968   8.255
 5957POPC   C3B 8325  43.908  30.963   7.955
 5957POPC   C4B 8326  43.942  30.939   7.655
 5958POPC   NC3 8327  37.704   5.122   9.455
 5958POPC   PO4 8328  37.701   5.135   9.155
 5958POPC   GL1 8329  37.694   5.133   8.855
 5958POPC   GL2 8330  37.702   5.254   8.855
 5958POPC   C1A 8331  37.707   5.139   8.555
 5958POPC   D2A 8332  37.698   5.116   8.255
 5958POPC   C3A 8333  37.720   5.128   7.955
 5958POPC   C4A 8334  37.675   5.103   7.655
 5958POPC   C1B 8335  37.830   5.270   8.555
 5958POPC   C2B 8336  37.792   5.358   8.255
 5958POPC   C3B 8337  37.753   5.319   7.955
 5958POPC   C4B 8338  37.764   5.342   7.655
 5959POPC   NC3 8339   3.519  12.892   9.455
 5959POPC   PO4 8340   3.560  12.861   9.155
 5959POPC   GL1 8341   3.573  12.891   8.855
 5959POPC   GL2 8342   3.566  12.980   8.855
 5959POPC   C1A 8343   3.503  12.815   8.555
 5959POPC   D2A 8344   3.528  12.874   8.255
 5959POPC   C3A 8345   3.580  12.873   7.955
 5959POPC   C4A 8346   3.530  12.880   7.655
 5959POPC   C1B 8347   3.670  13.104   8.555
 5959POPC   C2B 8348   3.681  13.024   8.255
 5959POPC   C3B 8349   3.674  13.077   7.955
 5959POPC   C4B 8350   3.686  13.041   7.655
 5960POPC   NC3 8351  33.834  16.708   9.455
 5960POPC   PO4 8352  33.798  16.705   9.155
 5960POPC   GL1 8353  33.813  16.689   8.855
 5960POPC   GL2 8354  33.716  16.678   8.855
 5960POPC   C1A 8355  33.823  16.701   8.555
 5960POPC   D2A 8356  33.844  16.699   8.255
 5960POPC   C3A 8357  33.781  16.690   7.955
 5960POPC   C4A 8358  33.773  16.731   7.655
 5960POPC   C1B 8359  33.613  16.545   8.555
 5960POPC   C2B 8360  33.570  16.545   8.255
 5960POPC   C3B 8361  33.569  16.512   7.955
 5960POPC   C4B 8362  33.599  16.579   7.655
 5961POPC   NC3 8363   1.197  36.142   9.455
 5961POPC   PO4 8364   1.257  36.108   9.155
 5961POPC   GL1 8365   1.264  36.139   8.855
 5961POPC   GL2 8366   1.244  36.041   8.855
 5961POPC   C1A 8367   1.173  36.145   8.555
 5961POPC   D2A 8368   1.221  36.078   8.255
 5961POPC   C3A 8369   1.183  36.079   7.955
 5961POPC   C4A 8370   1.174  36.159   7.655
 5961POPC   C1B 8371   1.366  35.882   8.555
 5961POPC   C2B 8372   1.373  35.950   8.255
 5961POPC   C3B 8373   1.371  35.879   7.955
 5961POPC   C4B 8374   1.372  35.903   7.655
 5962POPC   NC3 8375  36.953   0.450   9.455
 5962POPC   PO4 8376  36.866   0.440   9.155
 5962POPC   GL1 8377  36.899   0.412   8.855
 5962POPC   GL2 8378  36.867   0.544   8.855
 5962POPC   C1A 8379  36.946   0.482   8.555
 5962POPC   D2A 8380  36.903   0.448   8.255
 5962POPC   C3A 8381  36.906   0.458   7.955
 5962POPC   C4A 8382  36.864   0.429   7.655
 5962POPC   C1B 8383  36.836   0.723   8.555
 5962POPC   C2B 8384  36.844   0.666   8.255
 5962POPC   C3B 8385  36.865   0.709   7.955
 5962POPC   C4B 8386  36.861   0.684   7.655
 5963POPC   NC3 8387  25.253  41.531   9.455
 5963POPC   PO4 8388  25.257  41.602   9.155
 5963POPC   GL1 8389  25.314  41.514   8.855
 5963POPC   GL2 8390  25.427  41.527   8.855
 5963POPC   C1A 8391  25.256  41.571   8.555
 5963POPC   D2A 8392  25.291  41.516   8.255
 5963POPC   C3A 8393  25.276  41.551   7.955
 5963POPC   C4A 8394  25.305  41.515   7.655
 5963POPC   C1B 8395  25.491  41.495   8.555
 5963POPC   C2B 8396  25.459  41.542   8.255
 5963POPC   C3B 8397  25.495  41.487   7.955
 5963POPC   C4B 8398  25.505  41.503   7.655
 5964POPC   NC3 8399   5.839  19.073   9.455
 5964POPC   PO4 8400   5.879  19.045   9.155
 5964POPC   GL1 8401   5.864  19.096   8.855
 5964POPC   GL2 8402   5.997  19.175   8.855
 5964POPC   C1A 8403   5.883  19.063   8.555
 5964POPC   D2A 8404   5.893  19.015   8.255
 5964POPC   C3A 8405   5.852  19.103   7.955
 5964POPC   C4A 8406   5.908  19.077   7.655
 5964POPC   C1B 8407   6.039  19.149   8.555
 5964POPC   C2B 8408   6.072  19.162   8.255
 5964POPC   C3B 8409   6.052  19.151   7.955
 5964POPC   C4B 8410   6.057  19.152   7.655
 5965POPC   NC3 8411   8.226  31.502   9.455
 5965POPC   PO4 8412   8.165  31.503   9.155
 5965POPC   GL1 8413   8.194  31.442   8.855
 5965POPC   GL2 8414   8.226  31.611   8.855
 5965POPC   C1A 8415   8.214  31.465   8.555
 5965POPC   D2A 8416   8.152  31.497   8.255
 5965POPC   C3A 8417   8.218  31.504   7.955
 5965POPC   C4A 8418   8.204  31.519   7.655
 5965POPC   C1B 8419   8.116  31.675   8.555
 5965POPC   C2B 8420   8.143  31.734   8.255
 5965POPC   C3B 8421   8.164  31.749   7.955
 5965POPC   C4B 8422   8.160  31.738   7.655
 5966POPC   NC3 8423   4.280  38.490   9.455
 5966POPC   PO4 8424   4.278  38.412   9.155
 5966POPC   GL1 8425   4.330  38.405   8.855
 5966POPC   GL2 8426   4.274  38.348   8.855
 5966POPC   C1A 8427   4.365  38.504   8.555
 5966POPC   D2A 8428   4.297  38.431   8.255
 5966POPC   C3A 8429   4.272  38.470   7.955
 5966POPC   C4A 8430   4.345  38.448   7.655
 5966POPC   C1B 8431   4.227  38.209   8.555
 5966POPC   C2B 8432   4.191  38.286   8.255
 5966POPC   C3B 8433   4.181  38.199   7.955
 5966POPC   C4B 8434   4.177  38.194   7.655
 5967POPC   NC3 8435  43.066  12.816   9.455
 5967POPC   PO4 8436  43.145  12.831   9.155
 5967POPC   GL1 8437  43.065  12.825   8.855
 5967POPC   GL2 8438  42.993  12.734   8.855
 5967POPC   C1A 8439  43.083  12.896   8.555
 5967POPC   D2A 8440  43.072  12.899   8.255
 5967POPC   C3A 8441  43.118  12.835   7.955
 5967POPC   C4A 8442  43.141  12.829   7.655
 5967POPC   C1B 8443  42.900  12.698   8.555
 5967POPC   C2B 8444  42.968  12.626   8.255
 5967POPC   C3B 8445  42.900  12.669   7.955
 5967POPC   C4B 8446  42.966  12.649   7.655
 5968POPC   NC3 8447  15.993  21.344   9.455
 5968POPC   PO4 8448  15.914  21.416   9.155
 5968POPC   GL1 8449  15.906  21.417   8.855
 5968POPC   GL2 8450  15.827  21.278   8.855
 5968POPC   C1A 8451  15.957  21.372   8.555
 5968POPC   D2A 8452  15.960  21.394   8.255
 5968POPC   C3A 8453  15.976  21.404   7.955
 5968POPC   C4A 8454  15.950  21.427   7.655
 5968POPC   C1B 8455  15.775  21.198   8.555
 5968POPC   C2B 8456  15.812  21.176   8.255
 5968POPC   C3B 8457  15.749  21.211   7.955
 5968POPC   C4B 8458  15.810  21.242   7.655
 5969POPC   NC3 8459   5.090  22.974   9.455
 5969POPC   PO4 8460   5.080  22.981   9.155
 5969POPC   GL1 8461   5.090  22.982   8.855
 5969POPC   GL2 8462   4.963  23.056   8.855
 5969POPC   C1A 8463   5.054  22.934   8.555
 5969POPC   D2A 8464   5.048  22.966   8.255
 5969POPC   C3A 8465   5.106  22.895   7.955
 5969POPC   C4A 8466   5.070  22.983   7.655
 5969POPC   C1B 8467   4.884  23.170   8.555
 5969POPC   C2B 8468   4.956  23.129   8.255
 5969POPC   C3B 8469   4.950  23.100   7.955
 5969POPC   C4B 8470   4.903  23.125   7.655
 5970POPC   NC3 8471  15.187  20.614   9.455
 5970POPC   PO4 8472  15.198  20.563   9.155
 5970POPC   GL1 8473  15.227  20.657   8.855
 5970POPC   GL2 8474  15.189  20.467   8.855
 5970POPC   C1A 8475  15.217  20.606   8.555
 5970POPC   D2A 8476  15.183  20.583   8.255
 5970POPC   C3A 8477  15.218  20.625   7.955
 5970POPC   C4A 8478  15.189  20.646   7.655
 5970POPC   C1B 8479  15.171  20.322   8.555
 5970POPC   C2B 8480  15.153  20.327   8.255
 5970POPC   C3B 8481  15.189  20.405   7.955
 5970POPC   C4B 8482  15.215  20.338   7.655
 5971POPC   NC3 8483  22.142  15.189   9.455
 5971POPC   PO4 8484  22.192  15.209   9.155
 5971POPC   GL1 8485  22.182  15.143   8.855
 5971POPC   GL2 8486  22.071  15.305   8.855
 5971POPC   C1A 8487  22.155  15.141   8.555
 5971POPC   D2A 8488  22.208  15.215   8.255
 5971POPC   C3A 8489  22.179  15.203   7.955
 5971POPC   C4A 8490  22.208  15.139   7.655
 5971POPC   C1B 8491  21.959  15.414   8.555
 5971POPC   C2B 8492  21.973  15.396   8.255
 5971POPC   C3B 8493  21.953  15.398   7.955
 5971POPC   C4B 8494  22.025  15.391   7.655
 5972POPC   NC3 8495   1.165  18.249   9.455
 5972POPC   PO4 8496   1.253  18.263   9.155
 5972POPC   GL1 8497   1.166  18.314   8.855
 5972POPC   GL2 8498   1.146  18.203   8.855
 5972POPC   C1A 8499   1.177  18.291   8.555
 5972POPC   D2A 8500   1.168  18.246   8.255
 5972POPC   C3A 8501   1.211  18.276   7.955
 5972POPC   C4A 8502   1.250  18.238   7.655
 5972POPC   C1B 8503   1.100  18.068   8.555
 5972POPC   C2B 8504   1.075  18.101   8.255
 5972POPC   C3B 8505   1.116  18.039   7.955
 5972POPC   C4B 8506   1.153  18.097   7.655
 5973POPC   NC3 8507  43.932  13.621   9.455
 5973POPC   PO4 8508  43.838  13.615   9.155
 5973POPC   GL1 8509  43.877  13.663   8.855
 5973POPC   GL2 8510  44.008  13.717   8.855
 5973POPC   C1A 8511  43.889  13.620   8.555
 5973POPC   D2A 8512  43.848  13.593   8.255
 5973POPC   C3A 8513  43.889  13.654   7.955
 5973POPC   C4A 8514  43.875  13.644   7.655
 5973POPC   C1B 8515  44.105  13.827   8.555
 5973POPC   C2B 8516  44.052  13.791   8.255
 5973POPC   C3B 8517  44.068  13.816   7.955
 5973POPC   C4B 8518  44.076  13.784   7.655
 5974POPC   NC3 8519  39.982  31.426   9.455
 5974POPC   PO4 8520  40.013  31.451   9.155
 5974POPC   GL1 8521  39.975  31.496   8.855
 5974POPC   GL2 8522  40.013  31.394   8.855
 5974POPC   C1A 8523  39.976  31.470   8.555
 5974POPC   D2A 8524  39.964  31.464   8.255
 5974POPC   C3A 8525  39.991  31.425   7.955
 5974POPC   C4A 8526  40.010  31.516   7.655
 5974POPC   C1B 8527  40.041  31.237   8.555
 5974POPC   C2B 8528  39.973  31.210   8.255
 5974POPC   C3B 8529  39.984  31.258   7.955
 5974POPC   C4B 8530  39.948  31.187   7.655
 5975POPC   NC3 8531  26.840  19.824   9.455
 5975POPC   PO4 8532  26.787  19.810   9.155
 5975POPC   GL1 8533  26.806  19.818   8.855
 5975POPC   GL2 8534  26.769  19.916   8.855
 5975POPC   C1A 8535  26.856  19.845   8.555
 5975POPC   D2A 8536  26.851  19.850   8.255
 5975POPC   C3A 8537  26.856  19.814   7.955
 5975POPC   C4A 8538  26.784  19.793   7.655
 5975POPC   C1B 8539  26.793  20.100   8.555
 5975POPC   C2B 8540  26.765  20.065   8.255
 5975POPC   C3B 8541  26.708  20.046   7.955
 5975POPC   C4B 8542  26.733  20.053   7.655
 5976POPC   NC3 8543   4.323  23.711   9.455
 5976POPC   PO4 8544   4.349  23.671   9.155
 5976POPC   GL1 8545   4.290  23.678   8.855
 5976POPC   GL2 8546   4.414  23.789   8.855
 5976POPC   C1A 8547   4.303  23.754   8.555
 5976POPC   D2A 8548   4.329  23.677   8.255
 5976POPC   C3A 8549   4.279  23.689   7.955
 5976POPC   C4A 8550   4.291  23.684   7.655
 5976POPC   C1B 8551   4.470  23.910   8.555
 5976POPC   C2B 8552   4.482  23.963   8.255
 5976POPC   C3B 8553   4.453  23.888   7.955
 5976POPC   C4B 8554   4.421  23.907   7.655
 5977POPC   NC3 8555  33.070  19.813   9.455
 5977POPC   PO4 8556  33.019  19.867   9.155
 5977POPC   GL1 8557  33.002  19.792   8.855
 5977POPC   GL2 8558  32.986  19.733   8.855
 5977POPC   C1A 8559  33.012  19.877   8.555
 5977POPC   D2A 8560  33.008  19.860   8.255
 5977POPC   C3A 8561  33.004  19.811   7.955
 5977POPC   C4A 8562  33.069  19.854   7.655
 5977POPC   C1B 8563  33.032  19.608   8.555
 5977POPC   C2B 8564  32.959  19.635   8.255
 5977POPC   C3B 8565  32.954  19.550   7.955
 5977POPC   C4B 8566  32.990  19.630   7.655
 5978POPC   NC3 8567   2.028  35.336   9.455
 5978POPC   PO4 8568   1.982  35.328   9.155
 5978POPC   GL1 8569   2.034  35.362   8.855
 5978POPC   GL2 8570   1.879  35.293   8.855
 5978POPC   C1A 8571   1.951  35.309   8.555
 5978POPC   D2A 8572   1.963  35.313   8.255
 5978POPC   C3A 8573   1.974  35.359   7.955
 5978POPC   C4A 8574   1.974  35.333   7.655
 5978POPC   C1B 8575   1.797  35.200   8.555
 5978POPC   C2B 8576   1.813  35.187   8.255
 5978POPC   C3B 8577   1.744  35.229   7.955
 5978POPC   C4B 8578   1.837  35.156   7.655
 5979POPC   NC3 8579  14.416  16.685   9.455
 5979POPC   PO4 8580  14.378  16.752   9.155
 5979POPC   GL1 8581  14.434  16.710   8.855
 5979POPC   GL2 8582  14.455  16.630   8.855
 5979POPC   C1A 8583  14.428  16.723   8.555
 5979POPC   D2A 8584  14.404  16.705   8.255
 5979POPC   C3A 8585  14.401  16.769   7.955
 5979POPC   C4A 8586  14.381  16.726   7.655
 5979POPC   C1B 8587  14.440  16.476   8.555
 5979POPC   C2B 8588  14.378  16.473   8.255
 5979POPC   C3B 8589  14.385  16.487   7.955
 5979POPC   C4B 8590  14.373  16.512   7.655
 5980POPC   NC3 8591  36.093  17.457   9.455
 5980POPC   PO4 8592  36.141  17.511   9.155
 5980POPC   GL1 8593  36.152  17.522   8.855
 5980POPC   GL2 8594  36.250  17.520   8.855
 5980POPC   C1A 8595  36.137  17.519   8.555
 5980POPC   D2A 8596  36.155  17.547   8.255
 5980POPC   C3A 8597  36.167  17.483   7.955
 5980POPC   C4A 8598  36.144  17.519   7.655
 5980POPC   C1B 8599  36.334  17.567   8.555
 5980POPC   C2B 8600  36.402  17.568   8.255
 5980POPC   C3B 8601  36.334  17.624   7.955
 5980POPC   C4B 8602  36.340  17.628   7.655
 5981POPC   NC3 8603  22.892   5.884   9.455
 5981POPC   PO4 8604  22.972   5.909   9.155
 5981POPC   GL1 8605  22.893   5.896   8.855
 5981POPC   GL2 8606  22.774   5.852   8.855
 5981POPC   C1A 8607  22.969   5.904   8.555
 5981POPC   D2A 8608  22.898   5.827   8.255
 5981POPC   C3A 8609  22.914   5.873   7.955
 5981POPC   C4A 8610  22.960   5.827   7.655
 5981POPC   C1B 8611  22.692   5.771   8.555
 5981POPC   C2B 8612  22.685   5.832   8.255
 5981POPC   C3B 8613  22.733   5.853   7.955
 5981POPC   C4B 8614  22.708   5.802   7.655
 5982POPC   NC3 8615  34.623  24.513   9.455
 5982POPC   PO4 8616  34.532  24.521   9.155
 5982POPC   GL1 8617  34.552  24.458   8.855
 5982POPC   GL2 8618  34.662  24.404   8.855
 5982POPC   C1A 8619  34.528  24.463   8.555
 5982POPC   D2A 8620  34.529  24.468   8.255
 5982POPC   C3A 8621  34.622  24.440   7.955
 5982POPC   C4A 8622  34.546  24.515   7.655
 5982POPC   C1B 8623  34.768  24.343   8.555
 5982POPC   C2B 8624  34.784  24.359   8.255
 5982POPC   C3B 8625  34.730  24.317   7.955
 5982POPC   C4B 8626  34.704  24.282   7.655
 5983POPC   NC3 8627   0.479  13.581   9.455
 5983POPC   PO4 8628   0.424  13.667   9.155
 5983POPC   GL1 8629   0.460  13.641   8.855
 5983POPC   GL2 8630   0.282  13.618   8.855
 5983POPC   C1A 8631   0.391  13.599   8.555
 5983POPC   D2A 8632   0.395  13.674   8.255
 5983POPC   C3A 8633   0.481  13.582   7.955
 5983POPC   C4A 8634   0.397  13.614   7.655
 5983POPC   C1B 8635   0.212  13.633   8.555
 5983POPC   C2B 8636   0.145  13.630   8.255
 5983POPC   C3B 8637   0.160  13.672   7.955
 5983POPC   C4B 8638   0.208  13.668   7.655
 5984POPC   NC3 8639  40.029   3.509   9.455
 5984POPC   PO4 8640  40.037   3.561   9.155
 5984POPC   GL1 8641  39.996   3.589   8.855
 5984POPC   GL2 8642  39.871   3.491   8.855
 5984POPC   C1A 8643  40.025   3.549   8.555
 5984POPC   D2A 8644  40.008   3.547   8.255
 5984POPC   C3A 8645  39.972   3.502   7.955
 5984POPC   C4A 8646  39.979   3.508   7.655
 5984POPC   C1B 8647  39.828   3.454   8.555
 5984POPC   C2B 8648  39.793   3.472   8.255
 5984POPC   C3B 8649  39.790   3.459   7.955
 5984POPC   C4B 8650  39.805   3.443   7.655
 5985POPC   NC3 8651  36.854  13.659   9.455
 5985POPC   PO4 8652  36.939  13.627   9.155
 5985POPC   GL1 8653  36.909  13.615   8.855
 5985POPC   GL2 8654  36.871  13.522   8.855
 5985POPC   C1A 8655  36.891  13.645   8.555
 5985POPC   D2A 8656  36.878  13.606   8.255
 5985POPC   C3A 8657  36.908  13.595   7.955
 5985POPC   C4A 8658  36.909  13.660   7.655
 5985POPC   C1B 8659  36.909  13.371   8.555
 5985POPC   C2B 8660  36.868  13.404   8.255
 5985POPC   C3B 8661  36.920  13.340   7.955
 5985POPC   C4B 8662  36.923  13.334   7.655
 5986POPC   NC3 8663   8.926  21.431   9.455
 5986POPC   PO4 8664   8.924  21.358   9.155
 5986POPC   GL1 8665   8.983  21.357   8.855
 5986POPC   GL2 8666   9.113  21.353   8.855
 5986POPC   C1A 8667   8.953  21.396   8.555
 5986POPC   D2A 8668   8.988  21.410   8.255
 5986POPC   C3A 8669   8.989  21.393   7.955
 5986POPC   C4A 8670   8.981  21.395   7.655
 5986POPC   C1B 8671   9.237  21.339   8.555
 5986POPC   C2B 8672   9.267  21.340   8.255
 5986POPC   C3B 8673   9.184  21.373   7.955
 5986POPC   C4B 8674   9.249  21.350   7.655
 5987POPC   NC3 8675  25.287  25.263   9.455
 5987POPC   PO4 8676  25.310  25.293   9.155
 5987POPC   GL1 8677  25.256  25.269   8.855
 5987POPC   GL2 8678  25.097  25.236   8.855
 5987POPC   C1A 8679  25.247  25.235   8.555
 5987POPC   D2A 8680  25.308  25.237   8.255
 5987POPC   C3A 8681  25.311  25.233   7.955
 5987POPC   C4A 8682  25.245  25.257   7.655
 5987POPC   C1B 8683  25.020  25.290   8.555
 5987POPC   C2B 8684  25.064  25.238   8.255
 5987POPC   C3B 8685  25.030  25.230   7.955
 5987POPC   C4B 8686  25.064  25.245   7.655
 5988POPC   NC3 8687   8.964  17.462   9.455
 5988POPC   PO4 8688   8.936  17.525   9.155
 5988POPC   GL1 8689   8.941  17.555   8.855
 5988POPC   GL2 8690   8.932  17.406   8.855
 5988POPC   C1A 8691   8.930  17.468   8.555
 5988POPC   D2A 8692   9.007  17.511   8.255
 5988POPC   C3A 8693   8.971  17.553   7.955
 5988POPC   C4A 8694   8.970  17.540   7.655
 5988POPC   C1B 8695   8.831  17.332   8.555
 5988POPC   C2B 8696   8.849  17.269   8.255
 5988POPC   C3B 8697   8.793  17.260   7.955
 5988POPC   C4B 8698   8.788  17.336   7.655
 5989POPC   NC3 8699  24.528   9.699   9.455
 5989POPC   PO4 8700  24.461   9.783   9.155
 5989POPC   GL1 8701  24.527   9.711   8.855
 5989POPC   GL2 8702  24.344   9.710   8.855
 5989POPC   C1A 8703  24.537   9.798   8.555
 5989POPC   D2A 8704  24.513   9.731   8.255
 5989POPC   C3A 8705  24.512   9.796   7.955
 5989POPC   C4A 8706  24.535   9.727   7.655
 5989POPC   C1B 8707  24.277   9.721   8.555
 5989POPC   C2B 8708  24.260   9.685   8.255
 5989POPC   C3B 8709  24.209   9.632   7.955
 5989POPC   C4B 8710  24.254   9.663   7.655
 5990POPC   NC3 8711   7.426  12.095   9.455
 5990POPC   PO4 8712   7.408  12.072   9.155
 5990POPC   GL1 8713   7.378  12.048   8.855
 5990POPC   GL2 8714   7.554  12.059   8.855
 5990POPC   C1A 8715   7.458  12.035   8.555
 5990POPC   D2A 8716   7.465  12.054   8.255
 5990POPC   C3A 8717   7.454  12.124   7.955
 5990POPC   C4A 8718   7.414  12.062   7.655
 5990POPC   C1B 8719   7.594  11.941   8.555
 5990POPC   C2B 8720   7.600  11.914   8.255
 5990POPC   C3B 8721   7.659  11.942   7.955
 5990POPC   C4B 8722   7.689  11.930   7.655
 5991POPC   NC3 8723  34.593  32.249   9.455
 5991POPC   PO4 8724  34.560  32.266   9.155
 5991POPC   GL1 8725  34.624  32.277   8.855
 5991POPC   GL2 8726  34.529  32.366   8.855
 5991POPC   C1A 8727  34.565  32.280   8.555
 5991POPC   D2A 8728  34.588  32.228   8.255
 5991POPC   C3A 8729  34.607  32.223   7.955
 5991POPC   C4A 8730  34.573  32.248   7.655
 5991POPC   C1B 8731  34.485  32.481   8.555
 5991POPC   C2B 8732  34.475  32.537   8.255
 5991POPC   C3B 8733  34.513  32.470   7.955
 5991POPC   C4B 8734  34.542  32.504   7.655
 5992POPC   NC3 8735  21.357  35.303   9.455
 5992POPC   PO4 8736  21.436  35.314   9.155
 5992POPC   GL1 8737  21.391  35.384   8.855
 5992POPC   GL2 8738  21.403  35.214   8.855
 5992POPC   C1A 8739  21.379  35.402   8.555
 5992POPC   D2A 8740  21.368  35.305   8.255
 5992POPC   C3A 8741  21.380  35.398   7.955
 5992POPC   C4A 8742  21.352  35.342   7.655
 5992POPC   C1B 8743  21.430  35.156   8.555
 5992POPC   C2B 8744  21.471  35.153   8.255
 5992POPC   C3B 8745  21.468  35.121   7.955
 5992POPC   C4B 8746  21.439  35.128   7.655
 5993POPC   NC3 8747   2.728  20.655   9.455
 5993POPC   PO4 8748   2.803  20.660   9.155
 5993POPC   GL1 8749   2.775  20.586   8.855
 5993POPC   GL2 8750   2.671  20.592   8.855
 5993POPC   C1A 8751   2.746  20.595   8.555
 5993POPC   D2A 8752   2.732  20.635   8.255
 5993POPC   C3A 8753   2.786  20.608   7.955
 5993POPC   C4A 8754   2.732  20.603   7.655
 5993POPC   C1B 8755   2.486  20.525   8.555
 5993POPC   C2B 8756   2.535  20.505   8.255
 5993POPC   C3B 8757   2.525  20.570   7.955
 5993POPC   C4B 8758   2.571  20.521   7.655
 5994POPC   NC3 8759  12.109  27.616   9.455
 5994POPC   PO4 8760  12.053  27.611   9.155
 5994POPC   GL1 8761  12.064  27.562   8.855
 5994POPC   GL2 8762  12.042  27.430   8.855
 5994POPC   C1A 8763  12.044  27.549   8.555
 5994POPC   D2A 8764  12.067  27.565   8.255
 5994POPC   C3A 8765  12.099  27.623   7.955
 5994POPC   C4A 8766  12.055  27.606   7.655
 5994POPC   C1B 8767  12.018  27.300   8.555
 5994POPC   C2B 8768  12.060  27.308   8.255
 5994POPC   C3B 8769  12.058  27.332   7.955
 5994POPC   C4B 8770  11.985  27.392   7.655
 5995POPC   NC3 8771  35.319  43.078   9.455
 5995POPC   PO4 8772  35.394  43.149   9.155
 5995POPC   GL1 8773  35.398  43.083   8.855
 5995POPC   GL2 8774  35.474  43.017   8.855
 5995POPC   C1A 8775  35.388  43.128   8.555
 5995POPC   D2A 8776  35.312  43.117   8.255
 5995POPC   C3A 8777  35.399  43.137   7.955
 5995POPC   C4A 8778  35.354  43.089   7.655
 5995POPC   C1B 8779  35.479  42.944   8.555
 5995POPC   C2B 8780  35.514  42.897   8.255
 5995POPC   C3B 8781  35.539  42.967   7.955
 5995POPC   C4B 8782  35.562  42.904   7.655
 5996POPC   NC3 8783  26.803  37.699   9.455
 5996POPC   PO4 8784  26.829  37.677   9.155
 5996POPC   GL1 8785  26.842  37.728   8.855
 5996POPC   GL2 8786  26.836  37.600   8.855
 5996POPC   C1A 8787  26.804  37.675   8.555
 5996POPC   D2A 8788  26.813  37.692   8.255
 5996POPC   C3A 8789  26.835  37.634   7.955
 5996POPC   C4A 8790  26.849  37.665   7.655
 5996POPC   C1B 8791  26.877  37.454   8.555
 5996POPC   C2B 8792  26.825  37.410   8.255
 5996POPC   C3B 8793  26.867  37.439   7.955
 5996POPC   C4B 8794  26.837  37.407   7.655
 5997POPC   NC3 8795  27.556  39.190   9.455
 5997POPC   PO4 8796  27.639  39.185   9.155
 5997POPC   GL1 8797  27.544  39.185   8.855
 5997POPC   GL2 8798  27.736  39.326   8.855
 5997POPC   C1A 8799  27.586  39.261   8.555
 5997POPC   D2A 8800  27.624  39.223   8.255
 5997POPC   C3A 8801  27.580  39.212   7.955
 5997POPC   C4A 8802  27.602  39.273   7.655
 5997POPC   C1B 8803  27.743  39.352   8.555
 5997POPC   C2B 8804  27.811  39.427   8.255
 5997POPC   C3B 8805  27.773  39.406   7.955
 5997POPC   C4B 8806  27.779  39.419   7.655
 5998POPC   NC3 8807   5.113  41.551   9.455
 5998POPC   PO4 8808   5.123  41.591   9.155
 5998POPC   GL1 8809   5.130  41.520   8.855
 5998POPC   GL2 8810   5.229  41.560   8.855
 5998POPC   C1A 8811   5.054  41.605   8.555
 5998POPC   D2A 8812   5.048  41.564   8.255
 5998POPC   C3A 8813   5.067  41.554   7.955
 5998POPC   C4A 8814   5.113  41.519   7.655
 5998POPC   C1B 8815   5.324  41.645   8.555
 5998POPC   C2B 8816   5.320  41.606   8.255
 5998POPC   C3B 8817   5.302  41.605   7.955
 5998POPC   C4B 8818   5.359  41.560   7.655
 5999POPC   NC3 8819  44.658  10.495   9.455
 5999POPC   PO4 8820  44.681  10.485   9.155
 5999POPC   GL1 8821  44.660  10.569   8.855
 5999POPC   GL2 8822  44.650  10.441   8.855
 5999POPC   C1A 8823  44.668  10.536   8.555
 5999POPC   D2A 8824  44.634  10.551   8.255
 5999POPC   C3A 8825  44.634  10.517   7.955
 5999POPC   C4A 8826  44.648  10.499   7.655
 5999POPC   C1B 8827  44.515  10.298   8.555
 5999POPC   C2B 8828  44.561  10.335   8.255
 5999POPC   C3B 8829  44.550  10.291   7.955
 5999POPC   C4B 8830  44.577  10.296   7.655
 6000POPC   NC3 8831   4.309  43.878   9.455
 6000POPC   PO4 8832   4.308  43.897   9.155
 6000POPC   GL1 8833   4.363  43.887   8.855
 6000POPC   GL2 8834   4.452  43.871   8.855
 6000POPC   C1A 8835   4.348  43.888   8.555
 6000POPC   D2A 8836   4.360  43.912   8.255
 6000POPC   C3A 8837   4.344  43.908   7.955
 6000POPC   C4A 8838   4.290  43.907   7.655
 6000POPC   C1B 8839   4.548  43.831   8.555
 6000POPC   C2B 8840   4.550  43.821   8.255
 6000POPC   C3B 8841   4.577  43.799   7.955
 6000POPC   C4B 8842   4.572  43.830   7.655
 6001POPC   NC3 8843  36.176  44.696   9.455
 6001POPC   PO4 8844  36.097  44.658   9.155
 6001POPC   GL1 8845  36.114  44.644   8.855
 6001POPC   GL2 8846  36.143  44.785   8.855
 6001POPC   C1A 8847  36.107  44.690   8.555
 6001POPC   D2A 8848  36.146  44.662   8.255
 6001POPC   C3A 8849  36.141  44.622   7.955
 6001POPC   C4A 8850  36.125  44.688   7.655
 6001POPC   C1B 8851  36.251  44.896   8.555
 6001POPC   C2B 8852  36.168  44.868   8.255
 6001POPC   C3B 8853  36.192  44.883   7.955
 6001POPC   C4B 8854  36.179  44.935   7.655
 6002POPC   NC3 8855   3.556  13.626   9.455
 6002POPC   PO4 8856   3.564  13.597   9.155
 6002POPC   GL1 8857   3.545  13.585   8.855
 6002POPC   GL2 8858   3.617  13.713   8.855
 6002POPC   C1A 8859   3.523  13.615   8.555
 6002POPC   D2A 8860   3.574  13.579   8.255
 6002POPC   C3A 8861   3.512  13.663   7.955
 6002POPC   C4A 8862   3.524  13.654   7.655
 6002POPC   C1B 8863   3.608  13.883   8.555
 6002POPC   C2B 8864   3.571  13.873   8.255
 6002POPC   C3B 8865   3.635  13.890   7.955
 6002POPC   C4B 8866   3.635  13.912   7.655
 6003POPC   NC3 8867  12.847  22.946   9.455
 6003POPC   PO4 8868  12.830  22.920   9.155
 6003POPC   GL1 8869  12.873  22.969   8.855
 6003POPC   GL2 8870  12.793  22.999   8.855
 6003POPC   C1A 8871  12.822  22.908   8.555
 6003POPC   D2A 8872  12.834  22.974   8.255
 6003POPC   C3A 8873  12.869  22.916   7.955
 6003POPC   C4A 8874  12.858  22.918   7.655
 6003POPC   C1B 8875  12.636  23.060   8.555
 6003POPC   C2B 8876  12.601  23.112   8.255
 6003POPC   C3B 8877  12.677  23.066   7.955
 6003POPC   C4B 8878  12.676  23.126   7.655
 6004POPC   NC3 8879   6.671  26.837   9.455
 6004POPC   PO4 8880   6.617  26.836   9.155
 6004POPC   GL1 8881   6.677  26.804   8.855
 6004POPC   GL2 8882   6.621  26.935   8.855
 6004POPC   C1A 8883   6.617  26.771   8.555
 6004POPC   D2A 8884   6.686  26.782   8.255
 6004POPC   C3A 8885   6.614  26.779   7.955
 6004POPC   C4A 8886   6.669  26.796   7.655
 6004POPC   C1B 8887   6.631  27.099   8.555
 6004POPC   C2B 8888   6.661  27.048   8.255
 6004POPC   C3B 8889   6.653  27.037   7.955
 6004POPC   C4B 8890   6.582  27.104   7.655
 6005POPC   NC3 8891   6.671  22.175   9.455
 6005POPC   PO4 8892   6.680  22.186   9.155
 6005POPC   GL1 8893   6.609  22.185   8.855
 6005POPC   GL2 8894   6.480  22.095   8.855
 6005POPC   C1A 8895   6.627  22.151   8.555
 6005POPC   D2A 8896   6.615  22.119   8.255
 6005POPC   C3A 8897   6.620  22.174   7.955
 6005POPC   C4A 8898   6.686  22.133   7.655
 6005POPC   C1B 8899   6.354  22.092   8.555
 6005POPC   C2B 8900   6.378  22.160   8.255
 6005POPC   C3B 8901   6.374  22.099   7.955
 6005POPC   C4B 8902   6.370  22.154   7.655
 6006POPC   NC3 8903   3.495   0.413   9.455
 6006POPC   PO4 8904   3.545   0.478   9.155
 6006POPC   GL1 8905   3.533   0.427   8.855
 6006POPC   GL2 8906   3.669   0.395   8.855
 6006POPC   C1A 8907   3.500   0.460   8.555
 6006POPC   D2A 8908   3.589   0.409   8.255
 6006POPC   C3A 8909   3.518   0.413   7.955
 6006POPC   C4A 8910   3.519   0.458   7.655
 6006POPC   C1B 8911   3.795   0.420   8.555
 6006POPC   C2B 8912   3.748   0.360   8.255
 6006POPC   C3B 8913   3.780   0.392   7.955
 6006POPC   C4B 8914   3.747   0.437   7.655
 6007POPC   NC3 8915  15.161  18.317   9.455
 6007POPC   PO4 8916  15.216  18.329   9.155
 6007POPC   GL1 8917  15.225  18.275   8.855
 6007POPC   GL2 8918  15.086  18.291   8.855
 6007POPC   C1A 8919  15.148  18.256   8.555
 6007POPC   D2A 8920  15.148  18.275   8.255
 6007POPC   C3A 8921  15.135  18.245   7.955
 6007POPC   C4A 8922  15.191  18.255   7.655
 6007POPC   C1B 8923  14.880  18.238   8.555
 6007POPC   C2B 8924  14.894  18.243   8.255
 6007POPC   C3B 8925  14.901  18.249   7.955
 6007POPC   C4B 8926  14.929  18.309   7.655
 6008POPC   NC3 8927  21.383   7.429   9.455
 6008POPC   PO4 8928  21.413   7.377   9.155
 6008POPC   GL1 8929  21.429   7.412   8.855
 6008POPC   GL2 8930  21.250   7.420   8.855
 6008POPC   C1A 8931  21.369   7.442   8.555
 6008POPC   D2A 8932  21.402   7.433   8.255
 6008POPC   C3A 8933  21.409   7.441   7.955
 6008POPC   C4A 8934  21.388   7.425   7.655
 6008POPC   C1B 8935  21.156   7.395   8.555
 6008POPC   C2B 8936  21.141   7.388   8.255
 6008POPC   C3B 8937  21.102   7.363   7.955
 6008POPC   C4B 8938  21.130   7.437   7.655
 6009POPC   NC3 8939  10.546  43.141   9.455
 6009POPC   PO4 8940  10.502  43.137   9.155
 6009POPC   GL1 8941  10.531  43.111   8.855
 6009POPC   GL2 8942  10.447  43.080   8.855
 6009POPC   C1A 8943  10.539  43.067   8.555
 6009POPC   D2A 8944  10.478  43.072   8.255
 6009POPC   C3A 8945  10.553  43.106   7.955
 6009POPC   C4A 8946  10.525  43.130   7.655
 6009POPC   C1B 8947  10.354  42.931   8.555
 6009POPC   C2B 8948  10.297  42.958   8.255
 6009POPC   C3B 8949  10.353  43.000   7.955
 6009POPC   C4B 8950  10.323  42.968   7.655
 6010POPC   NC3 8951  10.535  40.736   9.455
 6010POPC   PO4 8952  10.476  40.773   9.155
 6010POPC   GL1 8953  10.480  40.738   8.855
 6010POPC   GL2 8954  10.672  40.680   8.855
 6010POPC   C1A 8955  10.564  40.793   8.555
 6010POPC   D2A 8956  10.552  40.810   8.255
 6010POPC   C3A 8957  10.499  40.760   7.955
 6010POPC   C4A 8958  10.551  40.737   7.655
 6010POPC   C1B 8959  10.710  40.627   8.555
 6010POPC   C2B 8960  10.721  40.718   8.255
 6010POPC   C3B 8961  10.756  40.645   7.955
 6010POPC   C4B 8962  10.742  40.708   7.655
 6011POPC   NC3 8963  18.295  10.513   9.455
 6011POPC   PO4 8964  18.268  10.539   9.155
 6011POPC   GL1 8965  18.328  10.542   8.855
 6011POPC   GL2 8966  18.323  10.445   8.855
 6011POPC   C1A 8967  18.328  10.572   8.555
 6011POPC   D2A 8968  18.259  10.529   8.255
 6011POPC   C3A 8969  18.242  10.529   7.955
 6011POPC   C4A 8970  18.288  10.558   7.655
 6011POPC   C1B 8971  18.419  10.324   8.555
 6011POPC   C2B 8972  18.400  10.320   8.255
 6011POPC   C3B 8973  18.361  10.270   7.955
 6011POPC   C4B 8974  18.416  10.277   7.655
 6012POPC   NC3 8975  33.015  26.075   9.455
 6012POPC   PO4 8976  33.032  26.000   9.155
 6012POPC   GL1 8977  32.987  26.080   8.855
 6012POPC   GL2 8978  32.945  26.111   8.855
 6012POPC   C1A 8979  33.069  26.052   8.555
 6012POPC   D2A 8980  33.010  26.010   8.255
 6012POPC   C3A 8981  33.003  26.047   7.955
 6012POPC   C4A 8982  33.055  25.992   7.655
 6012POPC   C1B 8983  32.943  26.293   8.555
 6012POPC   C2B 8984  32.959  26.309   8.255
 6012POPC   C3B 8985  32.966  26.255   7.955
 6012POPC   C4B 8986  32.959  26.323   7.655
 6013POPC   NC3 8987   5.902  39.239   9.455
 6013POPC   PO4 8988   5.831  39.234   9.155
 6013POPC   GL1 8989   5.824  39.220   8.855
 6013POPC   GL2 8990   5.749  39.112   8.855
 6013POPC   C1A 8991   5.898  39.197   8.555
 6013POPC   D2A 8992   5.851  39.219   8.255
 6013POPC   C3A 8993   5.843  39.253   7.955
 6013POPC   C4A 8994   5.835  39.202   7.655
 6013POPC   C1B 8995   5.688  39.073   8.555
 6013POPC   C2B 8996   5.763  38.996   8.255
 6013POPC   C3B 8997   5.701  38.985   7.955
 6013POPC   C4B 8998   5.721  39.015   7.655
 6014POPC   NC3 8999  38.441   6.644   9.455
 6014POPC   PO4 9000  38.476   6.602   9.155
 6014POPC   GL1 9001  38.464   6.606   8.855
 6014POPC   GL2 9002  38.432   6.743   8.855
 6014POPC   C1A 9003  38.410   6.624   8.555
 6014POPC   D2A 9004  38.472   6.611   8.255
 6014POPC   C3A 9005  38.499   6.609   7.955
 6014POPC   C4A 9006  38.438   6.680   7.655
 6014POPC   C1B 9007  38.469   6.884   8.555
 6014POPC   C2B 9008  38.471   6.879   8.255
 6014POPC   C3B 9009  38.542   6.928   7.955
 6014POPC   C4B 9010  38.532   6.925   7.655
 6015POPC   NC3 9011  37.727  16.729   9.455
 6015POPC   PO4 9012  37.707  16.697   9.155
 6015POPC   GL1 9013  37.698  16.754   8.855
 6015POPC   GL2 9014  37.569  16.845   8.855
 6015POPC   C1A 9015  37.640  16.721   8.555
 6015POPC   D2A 9016  37.720  16.727   8.255
 6015POPC   C3A 9017  37.712  16.721   7.955
 6015POPC   C4A 9018  37.684  16.718   7.655
 6015POPC   C1B 9019  37.471  16.900   8.555
 6015POPC   C2B 9020  37.523  16.854   8.255
 6015POPC   C3B 9021  37.460  16.876   7.955
 6015POPC   C4B 9022  37.467  16.913   7.655
 6016POPC   NC3 9023   7.431  19.020   9.455
 6016POPC   PO4 9024   7.403  19.092   9.155
 6016POPC   GL1 9025   7.461  19.070   8.855
 6016POPC   GL2 9026   7.563  19.042   8.855
 6016POPC   C1A 9027   7.383  19.084   8.555
 6016POPC   D2A 9028   7.401  19.082   8.255
 6016POPC   C3A 9029   7.402  19.023   7.955
 6016POPC   C4A 9030   7.453  19.105   7.655
 6016POPC   C1B 9031   7.634  18.970   8.555
 6016POPC   C2B 9032   7.650  18.995   8.255
 6016POPC   C3B 9033   7.691  19.008   7.955
 6016POPC   C4B 9034   7.613  18.960   7.655
 6017POPC   NC3 9035  35.390  39.971   9.455
 6017POPC   PO4 9036  35.312  39.967   9.155
 6017POPC   GL1 9037  35.368  40.019   8.855
 6017POPC   GL2 9038  35.332  39.938   8.855
 6017POPC   C1A 9039  35.399  40.048   8.555
 6017POPC   D2A 9040  35.396  40.002   8.255
 6017POPC   C3A 9041  35.362  39.961   7.955
 6017POPC   C4A 9042  35.374  39.969   7.655
 6017POPC   C1B 9043  35.208  39.751   8.555
 6017POPC   C2B 9044  35.174  39.749   8.255
 6017POPC   C3B 9045  35.226  39.791   7.955
 6017POPC   C4B 9046  35.254  39.811   7.655
 6018POPC   NC3 9047  36.124   5.046   9.455
 6018POPC   PO4 9048  36.127   5.059   9.155
 6018POPC   GL1 9049  36.150   5.051   8.855
 6018POPC   GL2 9050  36.074   5.225   8.855
 6018POPC   C1A 9051  36.100   5.050   8.555
 6018POPC   D2A 9052  36.107   5.079   8.255
 6018POPC   C3A 9053  36.137   5.141   7.955
 6018POPC   C4A 9054  36.084   5.096   7.655
 6018POPC   C1B 9055  36.057   5.347   8.555
 6018POPC   C2B 9056  36.001   5.294   8.255
 6018POPC   C3B 9057  36.086   5.373   7.955
 6018POPC   C4B 9058  36.019   5.303   7.655
 6019POPC   NC3 9059  27.576  41.516   9.455
 6019POPC   PO4 9060  27.589  41.598   9.155
 6019POPC   GL1 9061  27.562  41.535   8.855
 6019POPC   GL2 9062  27.470  41.491   8.855
 6019POPC   C1A 9063  27.639  41.537   8.555
 6019POPC   D2A 9064  27.638  41.525   8.255
 6019POPC   C3A 9065  27.613  41.566   7.955
 6019POPC   C4A 9066  27.595  41.569   7.655
 6019POPC   C1B 9067  27.419  41.373   8.555
 6019POPC   C2B 9068  27.337  41.433   8.255
 6019POPC   C3B 9069  27.373  41.379   7.955
 6019POPC   C4B 9070  27.404  41.430   7.655
 6020POPC   NC3 9071  19.038  25.253   9.455
 6020POPC   PO4 9072  19.077  25.243   9.155
 6020POPC   GL1 9073  19.089  25.230   8.855
 6020POPC   GL2 9074  19.006  25.129   8.855
 6020POPC   C1A 9075  19.104  25.242   8.555
 6020POPC   D2A 9076  19.036  25.313   8.255
 6020POPC   C3A 9077  19.022  25.260   7.955
 6020POPC   C4A 9078  19.090  25.225   7.655
 6020POPC   C1B 9079  19.019  25.013   8.555
 6020POPC   C2B 9080  19.000  25.031   8.255
 6020POPC   C3B 9081  19.059  25.045   7.955
 6020POPC   C4B 9082  19.024  25.063   7.655
 6021POPC   NC3 9083  19.068  12.888   9.455
 6021POPC   PO4 9084  19.103  12.839   9.155
 6021POPC   GL1 9085  19.064  12.859   8.855
 6021POPC   GL2 9086  19.005  12.938   8.855
 6021POPC   C1A 9087  19.107  12.834   8.555
 6021POPC   D2A 9088  19.026  12.873   8.255
 6021POPC   C3A 9089  19.076  12.859   7.955
 6021POPC   C4A 9090  19.084  12.827   7.655
 6021POPC   C1B 9091  18.937  13.068   8.555
 6021POPC   C2B 9092  18.955  13.063   8.255
 6021POPC   C3B 9093  18.954  13.027   7.955
 6021POPC   C4B 9094  18.945  13.048   7.655
 6022POPC   NC3 9095  33.062  15.993   9.455
 6022POPC   PO4 9096  33.013  15.969   9.155
 6022POPC   GL1 9097  33.022  15.998   8.855
 6022POPC   GL2 9098  32.932  15.964   8.855
 6022POPC   C1A 9099  33.043  15.949   8.555
 6022POPC   D2A 9100  32.980  15.911   8.255
 6022POPC   C3A 9101  33.061  15.998   7.955
 6022POPC   C4A 9102  33.006  15.928   7.655
 6022POPC   C1B 9103  32.784  15.998   8.555
 6022POPC   C2B 9104  32.813  15.949   8.255
 6022POPC   C3B 9105  32.751  16.005   7.955
 6022POPC   C4B 9106  32.753  15.978   7.655
 6023POPC   NC3 9107   7.393  13.635   9.455
 6023POPC   PO4 9108   7.468  13.613   9.155
 6023POPC   GL1 9109   7.402  13.598   8.855
 6023POPC   GL2 9110   7.498  13.642   8.855
 6023POPC   C1A 9111   7.400  13.649   8.555
 6023POPC   D2A 9112   7.396  13.667   8.255
 6023POPC   C3A 9113   7.378  13.656   7.955
 6023POPC   C4A 9114   7.447  13.587   7.655
 6023POPC   C1B 9115   7.669  13.601   8.555
 6023POPC   C2B 9116   7.635  13.564   8.255
 6023POPC   C3B 9117   7.643  13.615   7.955
 6023POPC   C4B 9118   7.695  13.581   7.655
 6024POPC   NC3 9119  12.844  18.282   9.455
 6024POPC   PO4 9120  12.802  18.252   9.155
 6024POPC   GL1 9121  12.877  18.316   8.855
 6024POPC   GL2 9122  12.785  18.220   8.855
 6024POPC   C1A 9123  12.811  18.277   8.555
 6024POPC   D2A 9124  12.864  18.270   8.255
 6024POPC   C3A 9125  12.900  18.285   7.955
 6024POPC   C4A 9126  12.805  18.274   7.655
 6024POPC   C1B 9127  12.739  18.130   8.555
 6024POPC   C2B 9128  12.752  18.041   8.255
 6024POPC   C3B 9129  12.732  18.079   7.955
 6024POPC   C4B 9130  12.664  18.046   7.655
 6025POPC   NC3 9131   4.315   5.834   9.455
 6025POPC   PO4 9132   4.298   5.834   9.155
 6025POPC   GL1 9133   4.310   5.880   8.855
 6025POPC   GL2 9134   4.209   5.818   8.855
 6025POPC   C1A 9135   4.294   5.890   8.555
 6025POPC   D2A 9136   4.356   5.892   8.255
 6025POPC   C3A 9137   4.275   5.909   7.955
 6025POPC   C4A 9138   4.310   5.854   7.655
 6025POPC   C1B 9139   4.097   5.744   8.555
 6025POPC   C2B 9140   4.097   5.731   8.255
 6025POPC   C3B 9141   4.092   5.720   7.955
 6025POPC   C4B 9142   4.064   5.735   7.655
 6026POPC   NC3 9143  28.331  41.599   9.455
 6026POPC   PO4 9144  28.366  41.520   9.155
 6026POPC   GL1 9145  28.398  41.589   8.855
 6026POPC   GL2 9146  28.370  41.427   8.855
 6026POPC   C1A 9147  28.339  41.530   8.555
 6026POPC   D2A 9148  28.334  41.582   8.255
 6026POPC   C3A 9149  28.320  41.520   7.955
 6026POPC   C4A 9150  28.333  41.583   7.655
 6026POPC   C1B 9151  28.417  41.357   8.555
 6026POPC   C2B 9152  28.412  41.284   8.255
 6026POPC   C3B 9153  28.468  41.285   7.955
 6026POPC   C4B 9154  28.505  41.354   7.655
 6027POPC   NC3 9155  40.767   9.006   9.455
 6027POPC   PO4 9156  40.817   8.925   9.155
 6027POPC   GL1 9157  40.824   8.935   8.855
 6027POPC   GL2 9158  40.906   9.017   8.855
 6027POPC   C1A 9159  40.816   9.017   8.555
 6027POPC   D2A 9160  40.765   8.928   8.255
 6027POPC   C3A 9161  40.812   8.967   7.955
 6027POPC   C4A 9162  40.747   9.018   7.655
 6027POPC   C1B 9163  41.002   9.063   8.555
 6027POPC   C2B 9164  41.003   8.985   8.255
 6027POPC   C3B 9165  41.077   9.001   7.955
 6027POPC   C4B 9166  41.048   9.019   7.655
 6028POPC   NC3 9167  35.303  35.338   9.455
 6028POPC   PO4 9168  35.401  35.399   9.155
 6028POPC   GL1 9169  35.338  35.303   8.855
 6028POPC   GL2 9170  35.434  35.430   8.855
 6028POPC   C1A 9171  35.322  35.371   8.555
 6028POPC   D2A 9172  35.353  35.307   8.255
 6028POPC   C3A 9173  35.387  35.377   7.955
 6028POPC   C4A 9174  35.348  35.389   7.655
 6028POPC   C1B 9175  35.483  35.531   8.555
 6028POPC   C2B 9176  35.489  35.589   8.255
 6028POPC   C3B 9177  35.499  35.584   7.955
 6028POPC   C4B 9178  35.472  35.498   7.655
 6029POPC   NC3 9179   5.091   1.243   9.455
 6029POPC   PO4 9180   5.116   1.229   9.155
 6029POPC   GL1 9181   5.143   1.224   8.855
 6029POPC   GL2 9182   5.250   1.194   8.855
 6029POPC   C1A 9183   5.085   1.209   8.555
 6029POPC   D2A 9184   5.081   1.241   8.255
 6029POPC   C3A 9185   5.138   1.204   7.955
 6029POPC   C4A 9186   5.074   1.208   7.655
 6029POPC   C1B 9187   5.379   1.216   8.555
 6029POPC   C2B 9188   5.323   1.242   8.255
 6029POPC   C3B 9189   5.335   1.223   7.955
 6029POPC   C4B 9190   5.350   1.214   7.655
 6030POPC   NC3 9191  23.693  19.819   9.455
 6030POPC   PO4 9192  23.759  19.862   9.155
 6030POPC   GL1 9193  23.756  19.834   8.855
 6030POPC   GL2 9194  23.849  19.820   8.855
 6030POPC   C1A 9195  23.705  19.832   8.555
 6030POPC   D2A 9196  23.723  19.835   8.255
 6030POPC   C3A 9197  23.732  19.826   7.955
 6030POPC   C4A 9198  23.749  19.863   7.655
 6030POPC   C1B 9199  23.953  19.819   8.555
 6030POPC   C2B 9200  23.974  19.791   8.255
 6030POPC   C3B 9201  23.983  19.873   7.955
 6030POPC   C4B 9202  23.935  19.821   7.655
 6031POPC   NC3 9203  10.557  34.595   9.455
 6031POPC   PO4 9204  10.518  34.568   9.155
 6031POPC   GL1 9205  10.524  34.578   8.855
 6031POPC   GL2 9206  10.627  34.568   8.855
 6031POPC   C1A 9207  10.532  34.570   8.555
 6031POPC   D2A 9208  10.525  34.571   8.255
 6031POPC   C3A 9209  10.488  34.534   7.955
 6031POPC   C4A 9210  10.562  34.575   7.655
 6031POPC   C1B 9211  10.752  34.667   8.555
 6031POPC   C2B 9212  10.744  34.611   8.255
 6031POPC   C3B 9213  10.772  34.646   7.955
 6031POPC   C4B 9214  10.735  34.620   7.655
 6032POPC   NC3 9215  30.709   1.956   9.455
 6032POPC   PO4 9216  30.680   2.013   9.155
 6032POPC   GL1 9217  30.680   1.953   8.855
 6032POPC   GL2 9218  30.813   1.999   8.855
 6032POPC   C1A 9219  30.666   1.999   8.555
 6032POPC   D2A 9220  30.671   1.997   8.255
 6032POPC   C3A 9221  30.683   2.013   7.955
 6032POPC   C4A 9222  30.716   2.029   7.655
 6032POPC   C1B 9223  30.960   2.026   8.555
 6032POPC   C2B 9224  30.932   2.017   8.255
 6032POPC   C3B 9225  30.943   1.976   7.955
 6032POPC   C4B 9226  30.993   1.988   7.655
 6033POPC   NC3 9227   3.542  22.129   9.455
 6033POPC   PO4 9228   3.546  22.156   9.155
 6033POPC   GL1 9229   3.519  22.180   8.855
 6033POPC   GL2 9230   3.399  22.160   8.855
 6033POPC   C1A 9231   3.497  22.154   8.555
 6033POPC   D2A 9232   3.510  22.173   8.255
 6033POPC   C3A 9233   3.568  22.204   7.955
 6033POPC   C4A 9234   3.542  22.182   7.655
 6033POPC   C1B 9235   3.281  22.302   8.555
 6033POPC   C2B 9236   3.311  22.221   8.255
 6033POPC   C3B 9237   3.301  22.296   7.955
 6033POPC   C4B 9238   3.335  22.269   7.655
 6034POPC   NC3 9239  32.996  44.698   9.455
 6034POPC   PO4 9240  33.034  44.648   9.155
 6034POPC   GL1 9241  32.988  44.640   8.855
 6034POPC   GL2 9242  33.186  44.654   8.855
 6034POPC   C1A 9243  32.981  44.710   8.555
 6034POPC   D2A 9244  33.025  44.706   8.255
 6034POPC   C3A 9245  33.005  44.632   7.955
 6034POPC   C4A 9246  33.055  44.688   7.655
 6034POPC   C1B 9247  33.248  44.582   8.555
 6034POPC   C2B 9248  33.263  44.565   8.255
 6034POPC   C3B 9249  33.235  44.603   7.955
 6034POPC   C4B 9250  33.296  44.636   7.655
 6035POPC   NC3 9251   1.226  12.054   9.455
 6035POPC   PO4 9252   1.249  12.049   9.155
 6035POPC   GL1 9253   1.245  12.110   8.855
 6035POPC   GL2 9254   1.153  11.923   8.855
 6035POPC   C1A 9255   1.171  12.120   8.555
 6035POPC   D2A 9256   1.197  12.052   8.255
 6035POPC   C3A 9257   1.254  12.072   7.955
 6035POPC   C4A 9258   1.208  12.058   7.655
 6035POPC   C1B 9259   1.098  11.848   8.555
 6035POPC   C2B 9260   1.100  11.884   8.255
 6035POPC   C3B 9261   1.095  11.794   7.955
 6035POPC   C4B 9262   1.139  11.828   7.655
 6036POPC   NC3 9263  19.799  40.747   9.455
 6036POPC   PO4 9264  19.840  40.823   9.155
 6036POPC   GL1 9265  19.829  40.755   8.855
 6036POPC   GL2 9266  19.887  40.830   8.855
 6036POPC   C1A 9267  19.820  40.806   8.555
 6036POPC   D2A 9268  19.847  40.751   8.255
 6036POPC   C3A 9269  19.812  40.793   7.955
 6036POPC   C4A 9270  19.805  40.779   7.655
 6036POPC   C1B 9271  19.990  40.973   8.555
 6036POPC   C2B 9272  20.036  40.976   8.255
 6036POPC   C3B 9273  19.972  41.004   7.955
 6036POPC   C4B 9274  19.993  40.946   7.655
 6037POPC   NC3 9275   7.436  41.586   9.455
 6037POPC   PO4 9276   7.390  41.605   9.155
 6037POPC   GL1 9277   7.449  41.572   8.855
 6037POPC   GL2 9278   7.428  41.727   8.855
 6037POPC   C1A 9279   7.414  41.596   8.555
 6037POPC   D2A 9280   7.430  41.547   8.255
 6037POPC   C3A 9281   7.422  41.579   7.955
 6037POPC   C4A 9282   7.420  41.564   7.655
 6037POPC   C1B 9283   7.452  41.810   8.555
 6037POPC   C2B 9284   7.367  41.811   8.255
 6037POPC   C3B 9285   7.433  41.854   7.955
 6037POPC   C4B 9286   7.403  41.782   7.655
 6038POPC   NC3 9287  13.641  16.771   9.455
 6038POPC   PO4 9288  13.613  16.714   9.155
 6038POPC   GL1 9289  13.656  16.699   8.855
 6038POPC   GL2 9290  13.761  16.778   8.855
 6038POPC   C1A 9291  13.594  16.754   8.555
 6038POPC   D2A 9292  13.663  16.716   8.255
 6038POPC   C3A 9293  13.665  16.711   7.955
 6038POPC   C4A 9294  13.635  16.776   7.655
 6038POPC   C1B 9295  13.751  16.943   8.555
 6038POPC   C2B 9296  13.816  16.935   8.255
 6038POPC   C3B 9297  13.760  16.943   7.955
 6038POPC   C4B 9298  13.805  16.882   7.655
 6039POPC   NC3 9299  23.698  13.586   9.455
 6039POPC   PO4 9300  23.723  13.653   9.155
 6039POPC   GL1 9301  23.715  13.584   8.855
 6039POPC   GL2 9302  23.698  13.532   8.855
 6039POPC   C1A 9303  23.699  13.656   8.555
 6039POPC   D2A 9304  23.721  13.668   8.255
 6039POPC   C3A 9305  23.667  13.676   7.955
 6039POPC   C4A 9306  23.667  13.676   7.655
 6039POPC   C1B 9307  23.700  13.411   8.555
 6039POPC   C2B 9308  23.760  13.343   8.255
 6039POPC   C3B 9309  23.688  13.398   7.955
 6039POPC   C4B 9310  23.777  13.414   7.655
 6040POPC   NC3 9311  14.361  20.568   9.455
 6040POPC   PO4 9312  14.372  20.588   9.155
 6040POPC   GL1 9313  14.381  20.609   8.855
 6040POPC   GL2 9314  14.252  20.646   8.855
 6040POPC   C1A 9315  14.450  20.646   8.555
 6040POPC   D2A 9316  14.380  20.612   8.255
 6040POPC   C3A 9317  14.444  20.593   7.955
 6040POPC   C4A 9318  14.429  20.630   7.655
 6040POPC   C1B 9319  14.160  20.734   8.555
 6040POPC   C2B 9320  14.191  20.740   8.255
 6040POPC   C3B 9321  14.186  20.725   7.955
 6040POPC   C4B 9322  14.201  20.711   7.655
 6041POPC   NC3 9323  28.389  36.889   9.455
 6041POPC   PO4 9324  28.372  36.868   9.155
 6041POPC   GL1 9325  28.339  36.944   8.855
 6041POPC   GL2 9326  28.299  36.834   8.855
 6041POPC   C1A 9327  28.371  36.952   8.555
 6041POPC   D2A 9328  28.416  36.938   8.255
 6041POPC   C3A 9329  28.390  36.883   7.955
 6041POPC   C4A 9330  28.414  36.917   7.655
 6041POPC   C1B 9331  28.205  36.736   8.555
 6041POPC   C2B 9332  28.158  36.774   8.255
 6041POPC   C3B 9333  28.140  36.705   7.955
 6041POPC   C4B 9334  28.192  36.734   7.655
 6042POPC   NC3 9335  39.255  32.235   9.455
 6042POPC   PO4 9336  39.278  32.273   9.155
 6042POPC   GL1 9337  39.275  32.263   8.855
 6042POPC   GL2 9338  39.189  32.119   8.855
 6042POPC   C1A 9339  39.251  32.247   8.555
 6042POPC   D2A 9340  39.222  32.221   8.255
 6042POPC   C3A 9341  39.224  32.269   7.955
 6042POPC   C4A 9342  39.183  32.259   7.655
 6042POPC   C1B 9343  39.210  32.048   8.555
 6042POPC   C2B 9344  39.248  32.048   8.255
 6042POPC   C3B 9345  39.205  31.961   7.955
 6042POPC   C4B 9346  39.263  32.003   7.655
 6043POPC   NC3 9347  11.330  32.990   9.455
 6043POPC   PO4 9348  11.263  33.031   9.155
 6043POPC   GL1 9349  11.309  33.065   8.855
 6043POPC   GL2 9350  11.411  32.911   8.855
 6043POPC   C1A 9351  11.306  33.052   8.555
 6043POPC   D2A 9352  11.311  33.058   8.255
 6043POPC   C3A 9353  11.296  32.999   7.955
 6043POPC   C4A 9354  11.273  33.000   7.655
 6043POPC   C1B 9355  11.432  32.833   8.555
 6043POPC   C2B 9356  11.434  32.790   8.255
 6043POPC   C3B 9357  11.403  32.766   7.955
 6043POPC   C4B 9358  11.457  32.813   7.655
 6044POPC   NC3 9359  34.598  27.598   9.455
 6044POPC   PO4 9360  34.540  27.552   9.155
 6044POPC   GL1 9361  34.585  27.573   8.855
 6044POPC   GL2 9362  34.462  27.515   8.855
 6044POPC   C1A 9363  34.623  27.573   8.555
 6044POPC   D2A 9364  34.552  27.587   8.255
 6044POPC   C3A 9365  34.569  27.581   7.955
 6044POPC   C4A 9366  34.599  27.622   7.655
 6044POPC   C1B 9367  34.372  27.415   8.555
 6044POPC   C2B 9368  34.430  27.426   8.255
 6044POPC   C3B 9369  34.373  27.370   7.955
 6044POPC   C4B 9370  34.452  27.432   7.655
 6045POPC   NC3 9371   9.778  43.905   9.455
 6045POPC   PO4 9372   9.717  43.850   9.155
 6045POPC   GL1 9373   9.778  43.886   8.855
 6045POPC   GL2 9374   9.831  43.913   8.855
 6045POPC   C1A 9375   9.789  43.885   8.555
 6045POPC   D2A 9376   9.757  43.863   8.255
 6045POPC   C3A 9377   9.703  43.879   7.955
 6045POPC   C4A 9378   9.712  43.919   7.655
 6045POPC   C1B 9379   9.939  43.912   8.555
 6045POPC   C2B 9380   9.973  43.962   8.255
 6045POPC   C3B 9381  10.013  43.910   7.955
 6045POPC   C4B 9382  10.033  43.985   7.655
 6046POPC   NC3 9383  42.343  15.140   9.455
 6046POPC   PO4 9384  42.373  15.204   9.155
 6046POPC   GL1 9385  42.380  15.203   8.855
 6046POPC   GL2 9386  42.251  15.265   8.855
 6046POPC   C1A 9387  42.294  15.180   8.555
 6046POPC   D2A 9388  42.312  15.229   8.255
 6046POPC   C3A 9389  42.296  15.171   7.955
 6046POPC   C4A 9390  42.381  15.219   7.655
 6046POPC   C1B 9391  42.167  15.294   8.555
 6046POPC   C2B 9392  42.182  15.376   8.255
 6046POPC   C3B 9393  42.120  15.344   7.955
 6046POPC   C4B 9394  42.149  15.312   7.655
 6047POPC   NC3 9395  38.455  17.459   9.455
 6047POPC   PO4 9396  38.498  17.459   9.155
 6047POPC   GL1 9397  38.466  17.478   8.855
 6047POPC   GL2 9398  38.443  17.356   8.855
 6047POPC   C1A 9399  38.473  17.471   8.555
 6047POPC   D2A 9400  38.429  17.542   8.255
 6047POPC   C3A 9401  38.486  17.521   7.955
 6047POPC   C4A 9402  38.433  17.511   7.655
 6047POPC   C1B 9403  38.330  17.268   8.555
 6047POPC   C2B 9404  38.392  17.320   8.255
 6047POPC   C3B 9405  38.403  17.262   7.955
 6047POPC   C4B 9406  38.390  17.245   7.655
 6048POPC   NC3 9407  12.035  17.517   9.455
 6048POPC   PO4 9408  12.070  17.552   9.155
 6048POPC   GL1 9409  12.034  17.489   8.855
 6048POPC   GL2 9410  12.131  17.410   8.855
 6048POPC   C1A 9411  12.067  17.539   8.555
 6048POPC   D2A 9412  12.114  17.481   8.255
 6048POPC   C3A 9413  12.046  17.494   7.955
 6048POPC   C4A 9414  12.032  17.530   7.655
 6048POPC   C1B 9415  12.112  17.312   8.555
 6048POPC   C2B 9416  12.186  17.241   8.255
 6048POPC   C3B 9417  12.177  17.290   7.955
 6048POPC   C4B 9418  12.172  17.293   7.655
 6049POPC   NC3 9419  32.287  19.824   9.455
 6049POPC   PO4 9420  32.223  19.795   9.155
 6049POPC   GL1 9421  32.222  19.797   8.855
 6049POPC   GL2 9422  32.348  19.880   8.855
 6049POPC   C1A 9423  32.284  19.818   8.555
 6049POPC   D2A 9424  32.275  19.831   8.255
 6049POPC   C3A 9425  32.285  19.860   7.955
 6049POPC   C4A 9426  32.236  19.787   7.655
 6049POPC   C1B 9427  32.455  20.052   8.555
 6049POPC   C2B 9428  32.378  19.990   8.255
 6049POPC   C3B 9429  32.437  20.042   7.955
 6049POPC   C4B 9430  32.386  20.033   7.655
 6050POPC   NC3 9431   3.520  29.956   9.455
 6050POPC   PO4 9432   3.564  29.888   9.155
 6050POPC   GL1 9433   3.499  29.879   8.855
 6050POPC   GL2 9434   3.577  29.846   8.855
 6050POPC   C1A 9435   3.536  29.902   8.555
 6050POPC   D2A 9436   3.532  29.930   8.255
 6050POPC   C3A 9437   3.497  29.885   7.955
 6050POPC   C4A 9438   3.548  29.908   7.655
 6050POPC   C1B 9439   3.558  29.641   8.555
 6050POPC   C2B 9440   3.522  29.677   8.255
 6050POPC   C3B 9441   3.478  29.661   7.955
 6050POPC   C4B 9442   3.480  29.715   7.655
 6051POPC   NC3 9443  21.338  30.724   9.455
 6051POPC   PO4 9444  21.351  30.702   9.155
 6051POPC   GL1 9445  21.343  30.717   8.855
 6051POPC   GL2 9446  21.420  30.550   8.855
 6051POPC   C1A 9447  21.399  30.740   8.555
 6051POPC   D2A 9448  21.350  30.720   8.255
 6051POPC   C3A 9449  21.412  30.689   7.955
 6051POPC   C4A 9450  21.401  30.728   7.655
 6051POPC   C1B 9451  21.441  30.431   8.555
 6051POPC   C2B 9452  21.403  30.409   8.255
 6051POPC   C3B 9453  21.380  30.482   7.955
 6051POPC   C4B 9454  21.402  30.436   7.655
 6052POPC   NC3 9455  30.676  33.775   9.455
 6052POPC   PO4 9456  30.733  33.778   9.155
 6052POPC   GL1 9457  30.695  33.760   8.855
 6052POPC   GL2 9458  30.768  33.711   8.855
 6052POPC   C1A 9459  30.668  33.805   8.555
 6052POPC   D2A 9460  30.743  33.843   8.255
 6052POPC   C3A 9461  30.738  33.751   7.955
 6052POPC   C4A 9462  30.721  33.769   7.655
 6052POPC   C1B 9463  30.926  33.621   8.555
 6052POPC   C2B 9464  30.885  33.676   8.255
 6052POPC   C3B 9465  30.945  33.625   7.955
 6052POPC   C4B 9466  30.907  33.654   7.655
 6053POPC   NC3 9467  20.590  15.217   9.455
 6053POPC   PO4 9468  20.562  15.136   9.155
 6053POPC   GL1 9469  20.562  15.204   8.855
 6053POPC   GL2 9470  20.493  15.209   8.855
 6053POPC   C1A 9471  20.593  15.222   8.555
 6053POPC   D2A 9472  20.611  15.206   8.255
 6053POPC   C3A 9473  20.640  15.194   7.955
 6053POPC   C4A 9474  20.579  15.151   7.655
 6053POPC   C1B 9475  20.355  15.167   8.555
 6053POPC   C2B 9476  20.367  15.138   8.255
 6053POPC   C3B 9477  20.325  15.215   7.955
 6053POPC   C4B 9478  20.405  15.215   7.655
 6054POPC   NC3 9479  28.410  21.352   9.455
 6054POPC   PO4 9480  28.367  21.382   9.155
 6054POPC   GL1 9481  28.367  21.359   8.855
 6054POPC   GL2 9482  28.313  21.530   8.855
 6054POPC   C1A 9483  28.341  21.428   8.555
 6054POPC   D2A 9484  28.363  21.366   8.255
 6054POPC   C3A 9485  28.353  21.349   7.955
 6054POPC   C4A 9486  28.404  21.429   7.655
 6054POPC   C1B 9487  28.361  21.677   8.555
 6054POPC   C2B 9488  28.307  21.627   8.255
 6054POPC   C3B 9489  28.281  21.680   7.955
 6054POPC   C4B 9490  28.344  21.623   7.655
 6055POPC   NC3 9491  41.581   4.287   9.455
 6055POPC   PO4 9492  41.558   4.300   9.155
 6055POPC   GL1 9493  41.597   4.318   8.855
 6055POPC   GL2 9494  41.452   4.232   8.855
 6055POPC   C1A 9495  41.601   4.294   8.555
 6055POPC   D2A 9496  41.550   4.288   8.255
 6055POPC   C3A 9497  41.563   4.349   7.955
 6055POPC   C4A 9498  41.572   4.319   7.655
 6055POPC   C1B 9499  41.387   4.156   8.555
 6055POPC   C2B 9500  41.354   4.135   8.255
 6055POPC   C3B 9501  41.351   4.087   7.955
 6055POPC   C4B 9502  41.372   4.132   7.655
 6056POPC   NC3 9503   0.423  39.228   9.455
 6056POPC   PO4 9504   0.402  39.203   9.155
 6056POPC   GL1 9505   0.444  39.235   8.855
 6056POPC   GL2 9506   0.570  39.316   8.855
 6056POPC   C1A 9507   0.458  39.183   8.555
 6056POPC   D2A 9508   0.480  39.185   8.255
 6056POPC   C3A 9509   0.432  39.268   7.955
 6056POPC   C4A 9510   0.474  39.201   7.655
 6056POPC   C1B 9511   0.646  39.388   8.555
 6056POPC   C2B 9512   0.614  39.397   8.255
 6056POPC   C3B 9513   0.665  39.388   7.955
 6056POPC   C4B 9514   0.630  39.369   7.655
 6057POPC   NC3 9515   9.788  15.181   9.455
 6057POPC   PO4 9516   9.755  15.209   9.155
 6057POPC   GL1 9517   9.721  15.150   8.855
 6057POPC   GL2 9518   9.723  15.029   8.855
 6057POPC   C1A 9519   9.740  15.152   8.555
 6057POPC   D2A 9520   9.746  15.227   8.255
 6057POPC   C3A 9521   9.788  15.215   7.955
 6057POPC   C4A 9522   9.779  15.149   7.655
 6057POPC   C1B 9523   9.777  14.909   8.555
 6057POPC   C2B 9524   9.721  14.902   8.255
 6057POPC   C3B 9525   9.699  14.968   7.955
 6057POPC   C4B 9526   9.701  14.976   7.655
 6058POPC   NC3 9527  13.669  36.874   9.455
 6058POPC   PO4 9528  13.601  36.864   9.155
 6058POPC   GL1 9529  13.667  36.928   8.855
 6058POPC   GL2 9530  13.566  36.740   8.855
 6058POPC   C1A 9531  13.661  36.886   8.555
 6058POPC   D2A 9532  13.660  36.871   8.255
 6058POPC   C3A 9533  13.623  36.878   7.955
 6058POPC   C4A 9534  13.639  36.912   7.655
 6058POPC   C1B 9535  13.520  36.669   8.555
 6058POPC   C2B 9536  13.559  36.654   8.255
 6058POPC   C3B 9537  13.603  36.624   7.955
 6058POPC   C4B 9538  13.529  36.707   7.655
 6059POPC   NC3 9539   8.176  29.126   9.455
 6059POPC   PO4 9540   8.161  29.127   9.155
 6059POPC   GL1 9541   8.229  29.185   8.855
 6059POPC   GL2 9542   8.121  29.305   8.855
 6059POPC   C1A 9543   8.198  29.173   8.555
 6059POPC   D2A 9544   8.246  29.181   8.255
 6059POPC   C3A 9545   8.170  29.164   7.955
 6059POPC   C4A 9546   8.197  29.140   7.655
 6059POPC   C1B 9547   8.083  29.429   8.555
 6059POPC   C2B 9548   8.160  29.364   8.255
 6059POPC   C3B 9549   8.150  29.352   7.955
 6059POPC   C4B 9550   8.109  29.401   7.655
 6060POPC   NC3 9551   6.651  21.410   9.455
 6060POPC   PO4 9552   6.604  21.337   9.155
 6060POPC   GL1 9553   6.655  21.405   8.855
 6060POPC   GL2 9554   6.712  21.436   8.855
 6060POPC   C1A 9555   6.638  21.420   8.555
 6060POPC   D2A 9556   6.658  21.372   8.255
 6060POPC   C3A 9557   6.602  21.362   7.955
 6060POPC   C4A 9558   6.682  21.411   7.655
 6060POPC   C1B 9559   6.850  21.519   8.555
 6060POPC   C2B 9560   6.831  21.477   8.255
 6060POPC   C3B 9561   6.841  21.442   7.955
 6060POPC   C4B 9562   6.913  21.449   7.655
 6061POPC   NC3 9563  14.397  10.502   9.455
 6061POPC   PO4 9564  14.386  10.483   9.155
 6061POPC   GL1 9565  14.372  10.532   8.855
 6061POPC   GL2 9566  14.498  10.503   8.855
 6061POPC   C1A 9567  14.417  10.494   8.555
 6061POPC   D2A 9568  14.375  10.499   8.255
 6061POPC   C3A 9569  14.415  10.490   7.955
 6061POPC   C4A 9570  14.373  10.571   7.655
 6061POPC   C1B 9571  14.643  10.420   8.555
 6061POPC   C2B 9572  14.601  10.400   8.255
 6061POPC   C3B 9573  14.567  10.416   7.955
 6061POPC   C4B 9574  14.623  10.357   7.655
 6062POPC   NC3 9575  19.792   5.887   9.455
 6062POPC   PO4 9576  19.879   5.892   9.155
 6062POPC   GL1 9577  19.872   5.909   8.855
 6062POPC   GL2 9578  19.835   5.998   8.855
 6062POPC   C1A 9579  19.854   5.851   8.555
 6062POPC   D2A 9580  19.845   5.882   8.255
 6062POPC   C3A 9581  19.875   5.890   7.955
 6062POPC   C4A 9582  19.808   5.918   7.655
 6062POPC   C1B 9583  19.786   6.100   8.555
 6062POPC   C2B 9584  19.837   6.162   8.255
 6062POPC   C3B 9585  19.860   6.118   7.955
 6062POPC   C4B 9586  19.846   6.154   7.655
 6063POPC   NC3 9587  12.117  41.596   9.455
 6063POPC   PO4 9588  12.044  41.551   9.155
 6063POPC   GL1 9589  12.107  41.592   8.855
 6063POPC   GL2 9590  11.980  41.721   8.855
 6063POPC   C1A 9591  12.117  41.608   8.555
 6063POPC   D2A 9592  12.074  41.582   8.255
 6063POPC   C3A 9593  12.053  41.548   7.955
 6063POPC   C4A 9594  12.035  41.529   7.655
 6063POPC   C1B 9595  11.994  41.816   8.555
 6063POPC   C2B 9596  11.958  41.793   8.255
 6063POPC   C3B 9597  12.016  41.740   7.955
 6063POPC   C4B 9598  11.952  41.735   7.655
 6064POPC   NC3 9599  19.074   1.967   9.455
 6064POPC   PO4 9600  19.076   1.969   9.155
 6064POPC   GL1 9601  19.057   1.996   8.855
 6064POPC   GL2 9602  19.023   2.119   8.855
 6064POPC   C1A 9603  19.074   1.954   8.555
 6064POPC   D2A 9604  19.018   1.968   8.255
 6064POPC   C3A 9605  19.058   1.955   7.955
 6064POPC   C4A 9606  19.076   2.011   7.655
 6064POPC   C1B 9607  18.891   2.145   8.555
 6064POPC   C2B 9608  18.863   2.161   8.255
 6064POPC   C3B 9609  18.905   2.220   7.955
 6064POPC   C4B 9610  18.921   2.231   7.655
 6065POPC   NC3 9611   1.210   2.783   9.455
 6065POPC   PO4 9612   1.259   2.806   9.155
 6065POPC   GL1 9613   1.231   2.769   8.855
 6065POPC   GL2 9614   1.186   2.828   8.855
 6065POPC   C1A 9615   1.203   2.786   8.555
 6065POPC   D2A 9616   1.204   2.771   8.255
 6065POPC   C3A 9617   1.200   2.756   7.955
 6065POPC   C4A 9618   1.171   2.762   7.655
 6065POPC   C1B 9619   1.082   2.956   8.555
 6065POPC   C2B 9620   1.076   2.992   8.255
 6065POPC   C3B 9621   1.064   2.945   7.955
 6065POPC   C4B 9622   1.135   2.969   7.655
 6066POPC   NC3 9623  36.877  30.739   9.455
 6066POPC   PO4 9624  36.861  30.698   9.155
 6066POPC   GL1 9625  36.909  30.702   8.855
 6066POPC   GL2 9626  36.794  30.646   8.855
 6066POPC   C1A 9627  36.893  30.726   8.555
 6066POPC   D2A 9628  36.883  30.706   8.255
 6066POPC   C3A 9629  36.885  30.743   7.955
 6066POPC   C4A 9630  36.934  30.680   7.655
 6066POPC   C1B 9631  36.634  30.623   8.555
 6066POPC   C2B 9632  36.699  30.620   8.255
 6066POPC   C3B 9633  36.671  30.682   7.955
 6066POPC   C4B 9634  36.623  30.627   7.655
 6067POPC   NC3 9635   1.185  30.659   9.455
 6067POPC   PO4 9636   1.181  30.704   9.155
 6067POPC   GL1 9637   1.194  30.710   8.855
 6067POPC   GL2 9638   1.082  30.630   8.855
 6067POPC   C1A 9639   1.173  30.679   8.555
 6067POPC   D2A 9640   1.191  30.677   8.255
 6067POPC   C3A 9641   1.198  30.719   7.955
 6067POPC   C4A 9642   1.217  30.707   7.655
 6067POPC   C1B 9643   1.001  30.572   8.555
 6067POPC   C2B 9644   0.937  30.658   8.255
 6067POPC   C3B 9645   0.980  30.639   7.955
 6067POPC   C4B 9646   0.976  30.621   7.655
 6068POPC   NC3 9647  19.047  31.490   9.455
 6068POPC   PO4 9648  19.011  31.478   9.155
 6068POPC   GL1 9649  19.077  31.466   8.855
 6068POPC   GL2 9650  19.181  31.537   8.855
 6068POPC   C1A 9651  19.035  31.507   8.555
 6068POPC   D2A 9652  19.051  31.485   8.255
 6068POPC   C3A 9653  19.087  31.520   7.955
 6068POPC   C4A 9654  19.094  31.434   7.655
 6068POPC   C1B 9655  19.312  31.603   8.555
 6068POPC   C2B 9656  19.272  31.519   8.255
 6068POPC   C3B 9657  19.286  31.578   7.955
 6068POPC   C4B 9658  19.265  31.574   7.655
 6069POPC   NC3 9659  38.433  22.982   9.455
 6069POPC   PO4 9660  38.433  22.913   9.155
 6069POPC   GL1 9661  38.417  22.907   8.855
 6069POPC   GL2 9662  38.438  22.796   8.855
 6069POPC   C1A 9663  38.477  22.918   8.555
 6069POPC   D2A 9664  38.432  22.963   8.255
 6069POPC   C3A 9665  38.416  22.902   7.955
 6069POPC   C4A 9666  38.441  22.984   7.655
 6069POPC   C1B 9667  38.532  22.716   8.555
 6069POPC   C2B 9668  38.450  22.735   8.255
 6069POPC   C3B 9669  38.487  22.656   7.955
 6069POPC   C4B 9670  38.514  22.673   7.655
 6070POPC   NC3 9671  36.926  28.408   9.455
 6070POPC   PO4 9672  36.944  28.334   9.155
 6070POPC   GL1 9673  36.952  28.347   8.855
 6070POPC   GL2 9674  36.976  28.331   8.855
 6070POPC   C1A 9675  36.897  28.350   8.555
 6070POPC   D2A 9676  36.861  28.412   8.255
 6070POPC   C3A 9677  36.907  28.341   7.955
 6070POPC   C4A 9678  36.897  28.345   7.655
 6070POPC   C1B 9679  37.099  28.249   8.555
 6070POPC   C2B 9680  37.155  28.264   8.255
 6070POPC   C3B 9681  37.110  28.267   7.955
 6070POPC   C4B 9682  37.179  28.243   7.655
 6071POPC   NC3 9683  38.453  19.017   9.455
 6071POPC   PO4 9684  38.494  19.012   9.155
 6071POPC   GL1 9685  38.457  19.074   8.855
 6071POPC   GL2 9686  38.527  19.001   8.855
 6071POPC   C1A 9687  38.419  19.018   8.555
 6071POPC   D2A 9688  38.450  19.013   8.255
 6071POPC   C3A 9689  38.480  19.022   7.955
 6071POPC   C4A 9690  38.502  19.092   7.655
 6071POPC   C1B 9691  38.679  19.011   8.555
 6071POPC   C2B 9692  38.676  18.955   8.255
 6071POPC   C3B 9693  38.740  18.981   7.955
 6071POPC   C4B 9694  38.708  18.974   7.655
 6072POPC   NC3 9695  30.688  43.155   9.455
 6072POPC   PO4 9696  30.667  43.111   9.155
 6072POPC   GL1 9697  30.649  43.149   8.855
 6072POPC   GL2 9698  30.779  43.056   8.855
 6072POPC   C1A 9699  30.745  43.109   8.555
 6072POPC   D2A 9700  30.652  43.106   8.255
 6072POPC   C3A 9701  30.656  43.149   7.955
 6072POPC   C4A 9702  30.661  43.065   7.655
 6072POPC   C1B 9703  30.880  42.985   8.555
 6072POPC   C2B 9704  30.929  42.907   8.255
 6072POPC   C3B 9705  30.898  42.921   7.955
 6072POPC   C4B 9706  30.937  42.995   7.655
 6073POPC   NC3 9707  17.516  42.357   9.455
 6073POPC   PO4 9708  17.521  42.353   9.155
 6073POPC   GL1 9709  17.535  42.381   8.855
 6073POPC   GL2 9710  17.558  42.422   8.855
 6073POPC   C1A 9711  17.493  42.327   8.555
 6073POPC   D2A 9712  17.515  42.300   8.255
 6073POPC   C3A 9713  17.466  42.329   7.955
 6073POPC   C4A 9714  17.524  42.367   7.655
 6073POPC   C1B 9715  17.623  42.576   8.555
 6073POPC   C2B 9716  17.630  42.544   8.255
 6073POPC   C3B 9717  17.602  42.510   7.955
 6073POPC   C4B 9718  17.671  42.544   7.655
 6074POPC   NC3 9719  19.846  14.440   9.455
 6074POPC   PO4 9720  19.867  14.374   9.155
 6074POPC   GL1 9721  19.822  14.359   8.855
 6074POPC   GL2 9722  19.777  14.572   8.855
 6074POPC   C1A 9723  19.859  14.390   8.555
 6074POPC   D2A 9724  19.857  14.414   8.255
 6074POPC   C3A 9725  19.845  14.430   7.955
 6074POPC   C4A 9726  19.805  14.354   7.655
 6074POPC   C1B 9727  19.791  14.613   8.555
 6074POPC   C2B 9728  19.831  14.661   8.255
 6074POPC   C3B 9729  19.791  14.656   7.955
 6074POPC   C4B 9730  19.778  14.653   7.655
 6075POPC   NC3 9731  15.153  39.254   9.455
 6075POPC   PO4 9732  15.147  39.215   9.155
 6075POPC   GL1 9733  15.220  39.273   8.855
 6075POPC   GL2 9734  15.047  39.230   8.855
 6075POPC   C1A 9735  15.183  39.194   8.555
 6075POPC   D2A 9736  15.184  39.211   8.255
 6075POPC   C3A 9737  15.224  39.195   7.955
 6075POPC   C4A 9738  15.161  39.204   7.655
 6075POPC   C1B 9739  14.967  39.210   8.555
 6075POPC   C2B 9740  14.928  39.161   8.255
 6075POPC   C3B 9741  14.933  39.154   7.955
 6075POPC   C4B 9742  14.940  39.222   7.655
 6076POPC   NC3 9743  19.010  27.582   9.455
 6076POPC   PO4 9744  19.015  27.585   9.155
 6076POPC   GL1 9745  19.086  27.630   8.855
 6076POPC   GL2 9746  19.151  27.625   8.855
 6076POPC   C1A 9747  19.014  27.596   8.555
 6076POPC   D2A 9748  19.098  27.560   8.255
 6076POPC   C3A 9749  19.096  27.568   7.955
 6076POPC   C4A 9750  19.037  27.560   7.655
 6076POPC   C1B 9751  19.290  27.679   8.555
 6076POPC   C2B 9752  19.284  27.628   8.255
 6076POPC   C3B 9753  19.296  27.651   7.955
 6076POPC   C4B 9754  19.269  27.601   7.655
 6077POPC   NC3 9755   8.148  40.796   9.455
 6077POPC   PO4 9756   8.230  40.773   9.155
 6077POPC   GL1 9757   8.147  40.823   8.855
 6077POPC   GL2 9758   8.325  40.865   8.855
 6077POPC   C1A 9759   8.237  40.777   8.555
 6077POPC   D2A 9760   8.189  40.809   8.255
 6077POPC   C3A 9761   8.191  40.763   7.955
 6077POPC   C4A 9762   8.152  40.817   7.655
 6077POPC   C1B 9763   8.390  40.884   8.555
 6077POPC   C2B 9764   8.397  40.873   8.255
 6077POPC   C3B 9765   8.426  40.835   7.955
 6077POPC   C4B 9766   8.400  40.912   7.655
 6078POPC   NC3 9767  28.341   5.114   9.455
 6078POPC   PO4 9768  28.394   5.050   9.155
 6078POPC   GL1 9769  28.338   5.119   8.855
 6078POPC   GL2 9770  28.234   5.121   8.855
 6078POPC   C1A 9771  28.350   5.074   8.555
 6078POPC   D2A 9772  28.397   5.050   8.255
 6078POPC   C3A 9773  28.369   5.095   7.955
 6078POPC   C4A 9774  28.411   5.099   7.655
 6078POPC   C1B 9775  28.120   5.113   8.555
 6078POPC   C2B 9776  28.135   5.045   8.255
 6078POPC   C3B 9777  28.152   5.073   7.955
 6078POPC   C4B 9778  28.155   5.039   7.655
 6079POPC   NC3 9779  12.098   2.735   9.455
 6079POPC   PO4 9780  12.105   2.802   9.155
 6079POPC   GL1 9781  12.088   2.760   8.855
 6079POPC   GL2 9782  12.069   2.900   8.855
 6079POPC   C1A 9783  12.120   2.716   8.555
 6079POPC   D2A 9784  12.060   2.717   8.255
 6079POPC   C3A 9785  12.033   2.772   7.955
 6079POPC   C4A 9786  12.042   2.760   7.655
 6079POPC   C1B 9787  12.128   3.003   8.555
 6079POPC   C2B 9788  12.131   3.027   8.255
 6079POPC   C3B 9789  12.141   2.979   7.955
 6079POPC   C4B 9790  12.067   2.978   7.655
 6080POPC   NC3 9791  29.108  43.930   9.455
 6080POPC   PO4 9792  29.095  43.847   9.155
 6080POPC   GL1 9793  29.100  43.910   8.855
 6080POPC   GL2 9794  29.252  43.769   8.855
 6080POPC   C1A 9795  29.107  43.904   8.555
 6080POPC   D2A 9796  29.176  43.918   8.255
 6080POPC   C3A 9797  29.111  43.913   7.955
 6080POPC   C4A 9798  29.171  43.903   7.655
 6080POPC   C1B 9799  29.360  43.681   8.555
 6080POPC   C2B 9800  29.341  43.707   8.255
 6080POPC   C3B 9801  29.372  43.685   7.955
 6080POPC   C4B 9802  29.359  43.682   7.655
 6081POPC   NC3 9803   5.128  15.984   9.455
 6081POPC   PO4 9804   5.085  15.990   9.155
 6081POPC   GL1 9805   5.096  15.950   8.855
 6081POPC   GL2 9806   5.033  16.039   8.855
 6081POPC   C1A 9807   5.089  15.908   8.555
 6081POPC   D2A 9808   5.088  15.914   8.255
 6081POPC   C3A 9809   5.103  15.951   7.955
 6081POPC   C4A 9810   5.059  15.920   7.655
 6081POPC   C1B 9811   5.041  16.156   8.555
 6081POPC   C2B 9812   5.093  16.215   8.255
 6081POPC   C3B 9813   5.043  16.217   7.955
 6081POPC   C4B 9814   5.040  16.244   7.655
 6082POPC   NC3 9815  43.869  25.247   9.455
 6082POPC   PO4 9816  43.896  25.226   9.155
 6082POPC   GL1 9817  43.881  25.270   8.855
 6082POPC   GL2 9818  43.926  25.417   8.855
 6082POPC   C1A 9819  43.928  25.275   8.555
 6082POPC   D2A 9820  43.861  25.297   8.255
 6082POPC   C3A 9821  43.935  25.239   7.955
 6082POPC   C4A 9822  43.859  25.290   7.655
 6082POPC   C1B 9823  43.912  25.535   8.555
 6082POPC   C2B 9824  43.919  25.545   8.255
 6082POPC   C3B 9825  43.867  25.476   7.955
 6082POPC   C4B 9826  43.843  25.534   7.655
 6083POPC   NC3 9827   5.882  29.944   9.455
 6083POPC   PO4 9828   5.828  29.923   9.155
 6083POPC   GL1 9829   5.831  29.962   8.855
 6083POPC   GL2 9830   5.821  29.806   8.855
 6083POPC   C1A 9831   5.840  29.892   8.555
 6083POPC   D2A 9832   5.886  29.886   8.255
 6083POPC   C3A 9833   5.876  29.952   7.955
 6083POPC   C4A 9834   5.873  29.963   7.655
 6083POPC   C1B 9835   5.774  29.737   8.555
 6083POPC   C2B 9836   5.798  29.667   8.255
 6083POPC   C3B 9837   5.786  29.670   7.955
 6083POPC   C4B 9838   5.813  29.659   7.655
 6084POPC   NC3 9839   0.411  32.248   9.455
 6084POPC   PO4 9840   0.461  32.200   9.155
 6084POPC   GL1 9841   0.418  32.206   8.855
 6084POPC   GL2 9842   0.387  32.146   8.855
 6084POPC   C1A 9843   0.480  32.274   8.555
 6084POPC   D2A 9844   0.430  32.239   8.255
 6084POPC   C3A 9845   0.462  32.288   7.955
 6084POPC   C4A 9846   0.410  32.217   7.655
 6084POPC   C1B 9847   0.306  32.059   8.555
 6084POPC   C2B 9848   0.258  32.107   8.255
 6084POPC   C3B 9849   0.236  32.100   7.955
 6084POPC   C4B 9850   0.297  32.050   7.655
 6085POPC   NC3 9851  16.004  32.979   9.455
 6085POPC   PO4 9852  15.956  33.014   9.155
 6085POPC   GL1 9853  15.964  33.067   8.855
 6085POPC   GL2 9854  16.012  32.941   8.855
 6085POPC   C1A 9855  15.913  33.002   8.555
 6085POPC   D2A 9856  15.968  33.019   8.255
 6085POPC   C3A 9857  15.998  33.007   7.955
 6085POPC   C4A 9858  15.957  33.014   7.655
 6085POPC   C1B 9859  16.050  32.736   8.555
 6085POPC   C2B 9860  16.037  32.817   8.255
 6085POPC   C3B 9861  15.986  32.782   7.955
 6085POPC   C4B 9862  16.051  32.742   7.655
 6086POPC   NC3 9863  19.825  41.581   9.455
 6086POPC   PO4 9864  19.814  41.515   9.155
 6086POPC   GL1 9865  19.849  41.604   8.855
 6086POPC   GL2 9866  19.668  41.574   8.855
 6086POPC   C1A 9867  19.802  41.530   8.555
 6086POPC   D2A 9868  19.794  41.576   8.255
 6086POPC   C3A 9869  19.858  41.548   7.955
 6086POPC   C4A 9870  19.813  41.605   7.655
 6086POPC   C1B 9871  19.557  41.612   8.555
 6086POPC   C2B 9872  19.555  41.645   8.255
 6086POPC   C3B 9873  19.613  41.639   7.955
 6086POPC   C4B 9874  19.614  41.600   7.655
 6087POPC   NC3 9875   5.890   8.995   9.455
 6087POPC   PO4 9876   5.875   9.000   9.155
 6087POPC   GL1 9877   5.829   8.929   8.855
 6087POPC   GL2 9878   5.758   9.033   8.855
 6087POPC   C1A 9879   5.862   8.927   8.555
 6087POPC   D2A 9880   5.908   8.999   8.255
 6087POPC   C3A 9881   5.887   8.928   7.955
 6087POPC   C4A 9882   5.831   8.970   7.655
 6087POPC   C1B 9883   5.701   9.137   8.555
 6087POPC   C2B 9884   5.683   9.154   8.255
 6087POPC   C3B 9885   5.690   9.115   7.955
 6087POPC   C4B 9886   5.684   9.177   7.655
 6088POPC   NC3 9887   9.725  32.996   9.455
 6088POPC   PO4 9888   9.713  33.034   9.155
 6088POPC   GL1 9889   9.752  32.978   8.855
 6088POPC   GL2 9890   9.850  32.998   8.855
 6088POPC   C1A 9891   9.767  33.004   8.555
 6088POPC   D2A 9892   9.758  33.021   8.255
 6088POPC   C3A 9893   9.763  33.067   7.955
 6088POPC   C4A 9894   9.703  32.977   7.655
 6088POPC   C1B 9895   9.991  32.924   8.555
 6088POPC   C2B 9896   9.953  32.942   8.255
 6088POPC   C3B 9897   9.924  32.898   7.955
 6088POPC   C4B 9898   9.980  32.950   7.655
 6089POPC   NC3 9899  37.699  15.970   9.455
 6089POPC   PO4 9900  37.691  15.935   9.155
 6089POPC   GL1 9901  37.691  15.935   8.855
 6089POPC   GL2 9902  37.513  15.952   8.855
 6089POPC   C1A 9903  37.722  15.972   8.555
 6089POPC   D2A 9904  37.645  15.975   8.255
 6089POPC   C3A 9905  37.667  15.940   7.955
 6089POPC   C4A 9906  37.672  15.916   7.655
 6089POPC   C1B 9907  37.460  16.030   8.555
 6089POPC   C2B 9908  37.420  16.010   8.255
 6089POPC   C3B 9909  37.430  16.079   7.955
 6089POPC   C4B 9910  37.433  16.028   7.655
 6090POPC   NC3 9911  16.773  36.140   9.455
 6090POPC   PO4 9912  16.763  36.126   9.155
 6090POPC   GL1 9913  16.748  36.141   8.855
 6090POPC   GL2 9914  16.895  36.161   8.855
 6090POPC   C1A 9915  16.780  36.138   8.555
 6090POPC   D2A 9916  16.767  36.171   8.255
 6090POPC   C3A 9917  16.765  36.133   7.955
 6090POPC   C4A 9918  16.731  36.138   7.655
 6090POPC   C1B 9919  17.023  36.088   8.555
 6090POPC   C2B 9920  16.973  36.074   8.255
 6090POPC   C3B 9921  17.019  36.078   7.955
 6090POPC   C4B 9922  16.942  36.072   7.655
 6091POPC   NC3 9923  22.200  44.699   9.455
 6091POPC   PO4 9924  22.139  44.698   9.155
 6091POPC   GL1 9925  22.141  44.659   8.855
 6091POPC   GL2 9926  22.288  44.696   8.855
 6091POPC   C1A 9927  22.166  44.694   8.555
 6091POPC   D2A 9928  22.187  44.633   8.255
 6091POPC   C3A 9929  22.140  44.686   7.955
 6091POPC   C4A 9930  22.141  44.690   7.655
 6091POPC   C1B 9931  22.315  44.827   8.555
 6091POPC   C2B 9932  22.332  44.846   8.255
 6091POPC   C3B 9933  22.367  44.821   7.955
 6091POPC   C4B 9934  22.338  44.834   7.655
 6092POPC   NC3 9935  36.117  43.854   9.455
 6092POPC   PO4 9936  36.153  43.907   9.155
 6092POPC   GL1 9937  36.175  43.890   8.855
 6092POPC   GL2 9938  36.036  43.777   8.855
 6092POPC   C1A 9939  36.143  43.911   8.555
 6092POPC   D2A 9940  36.083  43.850   8.255
 6092POPC   C3A 9941  36.080  43.871   7.955
 6092POPC   C4A 9942  36.082  43.895   7.655
 6092POPC   C1B 9943  35.941  43.636   8.555
 6092POPC   C2B 9944  35.964  43.645   8.255
 6092POPC   C3B 9945  35.932  43.646   7.955
 6092POPC   C4B 9946  35.971  43.673   7.655
 6093POPC   NC3 9947   6.600  39.275   9.455
 6093POPC   PO4 9948   6.681  39.271   9.155
 6093POPC   GL1 9949   6.612  39.200   8.855
 6093POPC   GL2 9950   6.513  39.201   8.855
 6093POPC   C1A 9951   6.660  39.270   8.555
 6093POPC   D2A 9952   6.655  39.202   8.255
 6093POPC   C3A 9953   6.649  39.229   7.955
 6093POPC   C4A 9954   6.603  39.264   7.655
 6093POPC   C1B 9955   6.353  39.225   8.555
 6093POPC   C2B 9956   6.370  39.281   8.255
 6093POPC   C3B 9957   6.361  39.254   7.955
 6093POPC   C4B 9958   6.358  39.246   7.655
 6094POPC   NC3 9959  12.829  33.829   9.455
 6094POPC   PO4 9960  12.862  33.763   9.155
 6094POPC   GL1 9961  12.831  33.847   8.855
 6094POPC   GL2 9962  12.817  33.657   8.855
 6094POPC   C1A 9963  12.812  33.777   8.555
 6094POPC   D2A 9964  12.883  33.805   8.255
 6094POPC   C3A 9965  12.842  33.753   7.955
 6094POPC   C4A 9966  12.883  33.843   7.655
 6094POPC   C1B 9967  12.764  33.619   8.555
 6094POPC   C2B 9968  12.687  33.632   8.255
 6094POPC   C3B 9969  12.750  33.597   7.955
 6094POPC   C4B 9970  12.666  33.596   7.655
 6095POPC   NC3 9971  37.642  41.548   9.455
 6095POPC   PO4 9972  37.654  41.595   9.155
 6095POPC   GL1 9973  37.690  41.584   8.855
 6095POPC   GL2 9974  37.852  41.557   8.855
 6095POPC   C1A 9975  37.709  41.576   8.555
 6095POPC   D2A 9976  37.685  41.522   8.255
 6095POPC   C3A 9977  37.723  41.582   7.955
 6095POPC   C4A 9978  37.717  41.571   7.655
 6095POPC   C1B 9979  37.971  41.581   8.555
 6095POPC   C2B 9980  37.908  41.595   8.255
 6095POPC   C3B 9981  37.930  41.568   7.955
 6095POPC   C4B 9982  37.909  41.619   7.655
 6096POPC   NC3 9983  18.302  36.953   9.455
 6096POPC   PO4 9984  18.237  36.916   9.155
 6096POPC   GL1 9985  18.244  36.902   8.855
 6096POPC   GL2 9986  18.316  37.024   8.855
 6096POPC   C1A 9987  18.300  36.942   8.555
 6096POPC   D2A 9988  18.288  36.943   8.255
 6096POPC   C3A 9989  18.301  36.900   7.955
 6096POPC   C4A 9990  18.277  36.888   7.655
 6096POPC   C1B 9991  18.308  37.136   8.555
 6096POPC   C2B 9992  18.318  37.105   8.255
 6096POPC   C3B 9993  18.265  37.169   7.955
 6096POPC   C4B 9994  18.286  37.127   7.655
 6097POPC   NC3 9995  43.923  11.261   9.455
 6097POPC   PO4 9996  43.897  11.288   9.155
 6097POPC   GL1 9997  43.897  11.311   8.855
 6097POPC   GL2 9998  43.782  11.436   8.855
 6097POPC   C1A 9999  43.867  11.251   8.555
 6097POPC   D2A10000  43.873  11.276   8.255
 6097POPC   C3A10001  43.923  11.303   7.955
 6097POPC   C4A10002  43.880  11.306   7.655
 6097POPC   C1B10003  43.700  11.461   8.555
 6097POPC   C2B10004  43.708  11.529   8.255
 6097POPC   C3B10005  43.731  11.519   7.955
 6097POPC   C4B10006  43.733  11.525   7.655
 6098POPC   NC310007   7.428  40.799   9.455
 6098POPC   PO410008   7.436  40.814   9.155
 6098POPC   GL110009   7.453  40.791   8.855
 6098POPC   GL210010   7.420  40.669   8.855
 6098POPC   C1A10011   7.427  40.757   8.555
 6098POPC   D2A10012   7.462  40.784   8.255
 6098POPC   C3A10013   7.431  40.799   7.955
 6098POPC   C4A10014   7.439  40.787   7.655
 6098POPC   C1B10015   7.490  40.515   8.555
 6098POPC   C2B10016   7.473  40.513   8.255
 6098POPC   C3B10017   7.535  40.552   7.955
 6098POPC   C4B10018   7.502  40.565   7.655
 6099POPC   NC310019  11.252  13.649   9.455
 6099POPC   PO410020  11.284  13.646   9.155
 6099POPC   GL110021  11.322  13.603   8.855
 6099POPC   GL210022  11.133  13.626   8.855
 6099POPC   C1A10023  11.280  13.647   8.555
 6099POPC   D2A10024  11.349  13.661   8.255
 6099POPC   C3A10025  11.275  13.675   7.955
 6099POPC   C4A10026  11.304  13.590   7.655
 6099POPC   C1B10027  11.024  13.701   8.555
 6099POPC   C2B10028  11.008  13.630   8.255
 6099POPC   C3B10029  11.063  13.641   7.955
 6099POPC   C4B10030  11.081  13.617   7.655
 6100POPC   NC310031  11.282  38.442   9.455
 6100POPC   PO410032  11.317  38.453   9.155
 6100POPC   GL110033  11.334  38.424   8.855
 6100POPC   GL210034  11.439  38.442   8.855
 6100POPC   C1A10035  11.323  38.501   8.555
 6100POPC   D2A10036  11.341  38.455   8.255
 6100POPC   C3A10037  11.340  38.489   7.955
 6100POPC   C4A10038  11.333  38.406   7.655
 6100POPC   C1B10039  11.531  38.398   8.555
 6100POPC   C2B10040  11.557  38.352   8.255
 6100POPC   C3B10041  11.488  38.403   7.955
 6100POPC   C4B10042  11.530  38.340   7.655
 6101POPC   NC310043  29.109  15.161   9.455
 6101POPC   PO410044  29.139  15.209   9.155
 6101POPC   GL110045  29.159  15.204   8.855
 6101POPC   GL210046  29.280  15.119   8.855
 6101POPC   C1A10047  29.143  15.149   8.555
 6101POPC   D2A10048  29.171  15.153   8.255
 6101POPC   C3A10049  29.165  15.197   7.955
 6101POPC   C4A10050  29.109  15.174   7.655
 6101POPC   C1B10051  29.378  15.120   8.555
 6101POPC   C2B10052  29.438  15.099   8.255
 6101POPC   C3B10053  29.378  15.115   7.955
 6101POPC   C4B10054  29.393  15.082   7.655
 6102POPC   NC310055  38.437  43.888   9.455
 6102POPC   PO410056  38.414  43.913   9.155
 6102POPC   GL110057  38.494  43.882   8.855
 6102POPC   GL210058  38.403  44.003   8.855
 6102POPC   C1A10059  38.437  43.875   8.555
 6102POPC   D2A10060  38.427  43.925   8.255
 6102POPC   C3A10061  38.479  43.899   7.955
 6102POPC   C4A10062  38.428  43.847   7.655
 6102POPC   C1B10063  38.342  44.115   8.555
 6102POPC   C2B10064  38.375  44.077   8.255
 6102POPC   C3B10065  38.341  44.146   7.955
 6102POPC   C4B10066  38.388  44.130   7.655
 6103POPC   NC310067  21.436   0.479   9.455
 6103POPC   PO410068  21.428   0.391   9.155
 6103POPC   GL110069  21.368   0.398   8.855
 6103POPC   GL210070  21.334   0.544   8.855
 6103POPC   C1A10071  21.396   0.468   8.555
 6103POPC   D2A10072  21.395   0.418   8.255
 6103POPC   C3A10073  21.434   0.477   7.955
 6103POPC   C4A10074  21.359   0.421   7.655
 6103POPC   C1B10075  21.359   0.675   8.555
 6103POPC   C2B10076  21.319   0.673   8.255
 6103POPC   C3B10077  21.360   0.712   7.955
 6103POPC   C4B10078  21.303   0.639   7.655
 6104POPC   NC310079  43.881  43.072   9.455
 6104POPC   PO410080  43.862  43.089   9.155
 6104POPC   GL110081  43.885  43.077   8.855
 6104POPC   GL210082  43.879  43.273   8.855
 6104POPC   C1A10083  43.879  43.127   8.555
 6104POPC   D2A10084  43.843  43.119   8.255
 6104POPC   C3A10085  43.903  43.094   7.955
 6104POPC   C4A10086  43.878  43.132   7.655
 6104POPC   C1B10087  43.919  43.341   8.555
 6104POPC   C2B10088  43.945  43.323   8.255
 6104POPC   C3B10089  43.904  43.337   7.955
 6104POPC   C4B10090  43.911  43.313   7.655
 6105POPC   NC310091  33.764  36.101   9.455
 6105POPC   PO410092  33.774  36.134   9.155
 6105POPC   GL110093  33.826  36.088   8.855
 6105POPC   GL210094  33.783  36.200   8.855
 6105POPC   C1A10095  33.782  36.086   8.555
 6105POPC   D2A10096  33.801  36.154   8.255
 6105POPC   C3A10097  33.815  36.106   7.955
 6105POPC   C4A10098  33.759  36.158   7.655
 6105POPC   C1B10099  33.774  36.348   8.555
 6105POPC   C2B10100  33.720  36.407   8.255
 6105POPC   C3B10101  33.691  36.362   7.955
 6105POPC   C4B10102  33.690  36.358   7.655
 6106POPC   NC310103  20.650  33.848   9.455
 6106POPC   PO410104  20.625  33.819   9.155
 6106POPC   GL110105  20.579  33.845   8.855
 6106POPC   GL210106  20.703  33.871   8.855
 6106POPC   C1A10107  20.613  33.821   8.555
 6106POPC   D2A10108  20.613  33.834   8.255
 6106POPC   C3A10109  20.628  33.827   7.955
 6106POPC   C4A10110  20.591  33.800   7.655
 6106POPC   C1B10111  20.842  33.889   8.555
 6106POPC   C2B10112  20.807  33.853   8.255
 6106POPC   C3B10113  20.853  33.861   7.955
 6106POPC   C4B10114  20.811  33.946   7.655
 6107POPC   NC310115  19.858  15.174   9.455
 6107POPC   PO410116  19.870  15.200   9.155
 6107POPC   GL110117  19.870  15.132   8.855
 6107POPC   GL210118  19.734  15.115   8.855
 6107POPC   C1A10119  19.884  15.204   8.555
 6107POPC   D2A10120  19.854  15.139   8.255
 6107POPC   C3A10121  19.787  15.209   7.955
 6107POPC   C4A10122  19.832  15.154   7.655
 6107POPC   C1B10123  19.550  15.083   8.555
 6107POPC   C2B10124  19.642  15.072   8.255
 6107POPC   C3B10125  19.629  15.153   7.955
 6107POPC   C4B10126  19.619  15.137   7.655
 6108POPC   NC310127   6.659  23.677   9.455
 6108POPC   PO410128   6.670  23.683   9.155
 6108POPC   GL110129   6.632  23.749   8.855
 6108POPC   GL210130   6.702  23.781   8.855
 6108POPC   C1A10131   6.609  23.732   8.555
 6108POPC   D2A10132   6.643  23.723   8.255
 6108POPC   C3A10133   6.660  23.744   7.955
 6108POPC   C4A10134   6.608  23.672   7.655
 6108POPC   C1B10135   6.715  23.962   8.555
 6108POPC   C2B10136   6.720  23.911   8.255
 6108POPC   C3B10137   6.801  23.919   7.955
 6108POPC   C4B10138   6.803  23.971   7.655
 6109POPC   NC310139  30.668  22.988   9.455
 6109POPC   PO410140  30.734  22.901   9.155
 6109POPC   GL110141  30.658  22.971   8.855
 6109POPC   GL210142  30.606  22.915   8.855
 6109POPC   C1A10143  30.713  22.938   8.555
 6109POPC   D2A10144  30.655  22.955   8.255
 6109POPC   C3A10145  30.670  22.914   7.955
 6109POPC   C4A10146  30.672  22.898   7.655
 6109POPC   C1B10147  30.483  22.887   8.555
 6109POPC   C2B10148  30.488  22.871   8.255
 6109POPC   C3B10149  30.435  22.943   7.955
 6109POPC   C4B10150  30.407  22.909   7.655
 6110POPC   NC310151  37.646  24.487   9.455
 6110POPC   PO410152  37.642  24.510   9.155
 6110POPC   GL110153  37.700  24.470   8.855
 6110POPC   GL210154  37.821  24.409   8.855
 6110POPC   C1A10155  37.665  24.478   8.555
 6110POPC   D2A10156  37.643  24.454   8.255
 6110POPC   C3A10157  37.634  24.512   7.955
 6110POPC   C4A10158  37.723  24.459   7.655
 6110POPC   C1B10159  37.912  24.314   8.555
 6110POPC   C2B10160  37.896  24.339   8.255
 6110POPC   C3B10161  37.879  24.315   7.955
 6110POPC   C4B10162  37.858  24.338   7.655
 6111POPC   NC310163  29.912  15.969   9.455
 6111POPC   PO410164  29.895  15.946   9.155
 6111POPC   GL110165  29.914  15.996   8.855
 6111POPC   GL210166  29.999  15.885   8.855
 6111POPC   C1A10167  29.912  15.997   8.555
 6111POPC   D2A10168  29.934  15.954   8.255
 6111POPC   C3A10169  29.954  15.919   7.955
 6111POPC   C4A10170  29.886  15.925   7.655
 6111POPC   C1B10171  30.083  15.717   8.555
 6111POPC   C2B10172  30.059  15.700   8.255
 6111POPC   C3B10173  30.097  15.765   7.955
 6111POPC   C4B10174  30.074  15.777   7.655
 6112POPC   NC310175  42.351   9.746   9.455
 6112POPC   PO410176  42.324   9.732   9.155
 6112POPC   GL110177  42.305   9.792   8.855
 6112POPC   GL210178  42.341   9.847   8.855
 6112POPC   C1A10179  42.368   9.768   8.555
 6112POPC   D2A10180  42.286   9.729   8.255
 6112POPC   C3A10181  42.358   9.758   7.955
 6112POPC   C4A10182  42.320   9.790   7.655
 6112POPC   C1B10183  42.396   9.948   8.555
 6112POPC   C2B10184  42.334   9.949   8.255
 6112POPC   C3B10185  42.386  10.014   7.955
 6112POPC   C4B10186  42.402  10.004   7.655
 6113POPC   NC310187  40.822   7.425   9.455
 6113POPC   PO410188  40.735   7.438   9.155
 6113POPC   GL110189  40.741   7.405   8.855
 6113POPC   GL210190  40.775   7.558   8.855
 6113POPC   C1A10191  40.807   7.464   8.555
 6113POPC   D2A10192  40.796   7.395   8.255
 6113POPC   C3A10193  40.828   7.407   7.955
 6113POPC   C4A10194  40.793   7.392   7.655
 6113POPC   C1B10195  40.742   7.715   8.555
 6113POPC   C2B10196  40.692   7.707   8.255
 6113POPC   C3B10197  40.758   7.641   7.955
 6113POPC   C4B10198  40.691   7.713   7.655
 6114POPC   NC310199  36.925  31.514   9.455
 6114POPC   PO410200  36.856  31.468   9.155
 6114POPC   GL110201  36.854  31.522   8.855
 6114POPC   GL210202  36.780  31.596   8.855
 6114POPC   C1A10203  36.922  31.512   8.555
 6114POPC   D2A10204  36.866  31.520   8.255
 6114POPC   C3A10205  36.872  31.463   7.955
 6114POPC   C4A10206  36.928  31.486   7.655
 6114POPC   C1B10207  36.744  31.683   8.555
 6114POPC   C2B10208  36.774  31.644   8.255
 6114POPC   C3B10209  36.795  31.712   7.955
 6114POPC   C4B10210  36.773  31.687   7.655
 6115POPC   NC310211   5.889  22.929   9.455
 6115POPC   PO410212   5.851  22.974   9.155
 6115POPC   GL110213   5.866  22.960   8.855
 6115POPC   GL210214   5.923  22.983   8.855
 6115POPC   C1A10215   5.870  22.897   8.555
 6115POPC   D2A10216   5.896  22.945   8.255
 6115POPC   C3A10217   5.844  22.889   7.955
 6115POPC   C4A10218   5.865  22.984   7.655
 6115POPC   C1B10219   6.077  23.121   8.555
 6115POPC   C2B10220   6.030  23.078   8.255
 6115POPC   C3B10221   6.025  23.135   7.955
 6115POPC   C4B10222   6.036  23.083   7.655
 6116POPC   NC310223  30.653  39.280   9.455
 6116POPC   PO410224  30.651  39.230   9.155
 6116POPC   GL110225  30.711  39.240   8.855
 6116POPC   GL210226  30.617  39.174   8.855
 6116POPC   C1A10227  30.686  39.183   8.555
 6116POPC   D2A10228  30.741  39.241   8.255
 6116POPC   C3A10229  30.740  39.249   7.955
 6116POPC   C4A10230  30.728  39.216   7.655
 6116POPC   C1B10231  30.479  39.134   8.555
 6116POPC   C2B10232  30.431  39.157   8.255
 6116POPC   C3B10233  30.449  39.100   7.955
 6116POPC   C4B10234  30.477  39.086   7.655
 6117POPC   NC310235   5.819  32.217   9.455
 6117POPC   PO410236   5.903  32.279   9.155
 6117POPC   GL110237   5.834  32.247   8.855
 6117POPC   GL210238   5.953  32.174   8.855
 6117POPC   C1A10239   5.834  32.238   8.555
 6117POPC   D2A10240   5.849  32.213   8.255
 6117POPC   C3A10241   5.915  32.274   7.955
 6117POPC   C4A10242   5.894  32.238   7.655
 6117POPC   C1B10243   6.072  32.135   8.555
 6117POPC   C2B10244   6.128  32.149   8.255
 6117POPC   C3B10245   6.123  32.129   7.955
 6117POPC   C4B10246   6.119  32.134   7.655
 6118POPC   NC310247  12.092  14.448   9.455
 6118POPC   PO410248  12.038  14.367   9.155
 6118POPC   GL110249  12.090  14.395   8.855
 6118POPC   GL210250  12.223  14.510   8.855
 6118POPC   C1A10251  12.088  14.387   8.555
 6118POPC   D2A10252  12.071  14.380   8.255
 6118POPC   C3A10253  12.031  14.368   7.955
 6118POPC   C4A10254  12.064  14.426   7.655
 6118POPC   C1B10255  12.275  14.546   8.555
 6118POPC   C2B10256  12.268  14.524   8.255
 6118POPC   C3B10257  12.290  14.575   7.955
 6118POPC   C4B10258  12.301  14.548   7.655
 6119POPC   NC310259  33.006  39.182   9.455
 6119POPC   PO410260  32.983  39.182   9.155
 6119POPC   GL110261  33.068  39.242   8.855
 6119POPC   GL210262  33.079  39.163   8.855
 6119POPC   C1A10263  32.986  39.274   8.555
 6119POPC   D2A10264  33.033  39.271   8.255
 6119POPC   C3A10265  33.035  39.205   7.955
 6119POPC   C4A10266  33.029  39.233   7.655
 6119POPC   C1B10267  33.236  39.122   8.555
 6119POPC   C2B10268  33.212  39.124   8.255
 6119POPC   C3B10269  33.253  39.051   7.955
 6119POPC   C4B10270  33.230  39.038   7.655
 6120POPC   NC310271  11.347  32.284   9.455
 6120POPC   PO410272  11.342  32.296   9.155
 6120POPC   GL110273  11.337  32.253   8.855
 6120POPC   GL210274  11.368  32.139   8.855
 6120POPC   C1A10275  11.279  32.280   8.555
 6120POPC   D2A10276  11.315  32.262   8.255
 6120POPC   C3A10277  11.268  32.203   7.955
 6120POPC   C4A10278  11.346  32.216   7.655
 6120POPC   C1B10279  11.483  32.056   8.555
 6120POPC   C2B10280  11.489  32.099   8.255
 6120POPC   C3B10281  11.506  32.071   7.955
 6120POPC   C4B10282  11.504  32.116   7.655
 6121POPC   NC310283  43.873   1.983   9.455
 6121POPC   PO410284  43.913   2.036   9.155
 6121POPC   GL110285  43.931   1.976   8.855
 6121POPC   GL210286  43.991   1.914   8.855
 6121POPC   C1A10287  43.914   1.997   8.555
 6121POPC   D2A10288  43.889   2.032   8.255
 6121POPC   C3A10289  43.903   2.025   7.955
 6121POPC   C4A10290  43.893   1.991   7.655
 6121POPC   C1B10291  44.133   1.844   8.555
 6121POPC   C2B10292  44.120   1.859   8.255
 6121POPC   C3B10293  44.126   1.882   7.955
 6121POPC   C4B10294  44.057   1.866   7.655
 6122POPC   NC310295  38.478  38.406   9.455
 6122POPC   PO410296  38.454  38.477   9.155
 6122POPC   GL110297  38.494  38.502   8.855
 6122POPC   GL210298  38.370  38.353   8.855
 6122POPC   C1A10299  38.438  38.473   8.555
 6122POPC   D2A10300  38.496  38.435   8.255
 6122POPC   C3A10301  38.455  38.407   7.955
 6122POPC   C4A10302  38.466  38.469   7.655
 6122POPC   C1B10303  38.337  38.261   8.555
 6122POPC   C2B10304  38.313  38.263   8.255
 6122POPC   C3B10305  38.362  38.201   7.955
 6122POPC   C4B10306  38.369  38.236   7.655
 6123POPC   NC310307  44.700  35.312   9.455
 6123POPC   PO410308  44.694  35.360   9.155
 6123POPC   GL110309  44.617  35.385   8.855
 6123POPC   GL210310  44.547  35.275   8.855
 6123POPC   C1A10311  44.636  35.333   8.555
 6123POPC   D2A10312  44.617  35.355   8.255
 6123POPC   C3A10313  44.627  35.303   7.955
 6123POPC   C4A10314  44.642  35.349   7.655
 6123POPC   C1B10315  44.467  35.151   8.555
 6123POPC   C2B10316  44.499  35.182   8.255
 6123POPC   C3B10317  44.511  35.214   7.955
 6123POPC   C4B10318  44.525  35.168   7.655
 6124POPC   NC310319   7.467  43.072   9.455
 6124POPC   PO410320   7.427  43.134   9.155
 6124POPC   GL110321   7.466  43.063   8.855
 6124POPC   GL210322   7.367  43.030   8.855
 6124POPC   C1A10323   7.439  43.088   8.555
 6124POPC   D2A10324   7.415  43.138   8.255
 6124POPC   C3A10325   7.372  43.132   7.955
 6124POPC   C4A10326   7.396  43.081   7.655
 6124POPC   C1B10327   7.212  42.923   8.555
 6124POPC   C2B10328   7.285  42.906   8.255
 6124POPC   C3B10329   7.295  42.957   7.955
 6124POPC   C4B10330   7.213  42.972   7.655
 6125POPC   NC310331   1.971   2.800   9.455
 6125POPC   PO410332   2.012   2.778   9.155
 6125POPC   GL110333   1.962   2.749   8.855
 6125POPC   GL210334   2.085   2.655   8.855
 6125POPC   C1A10335   1.994   2.813   8.555
 6125POPC   D2A10336   1.969   2.803   8.255
 6125POPC   C3A10337   2.007   2.754   7.955
 6125POPC   C4A10338   2.001   2.796   7.655
 6125POPC   C1B10339   2.189   2.547   8.555
 6125POPC   C2B10340   2.155   2.566   8.255
 6125POPC   C3B10341   2.102   2.541   7.955
 6125POPC   C4B10342   2.129   2.522   7.655
 6126POPC   NC310343  31.494  29.154   9.455
 6126POPC   PO410344  31.446  29.104   9.155
 6126POPC   GL110345  31.440  29.125   8.855
 6126POPC   GL210346  31.385  29.193   8.855
 6126POPC   C1A10347  31.438  29.124   8.555
 6126POPC   D2A10348  31.487  29.096   8.255
 6126POPC   C3A10349  31.472  29.113   7.955
 6126POPC   C4A10350  31.439  29.182   7.655
 6126POPC   C1B10351  31.204  29.214   8.555
 6126POPC   C2B10352  31.213  29.176   8.255
 6126POPC   C3B10353  31.243  29.144   7.955
 6126POPC   C4B10354  31.219  29.219   7.655
 6127POPC   NC310355  24.466  36.160   9.455
 6127POPC   PO410356  24.529  36.111   9.155
 6127POPC   GL110357  24.502  36.145   8.855
 6127POPC   GL210358  24.517  36.047   8.855
 6127POPC   C1A10359  24.478  36.142   8.555
 6127POPC   D2A10360  24.535  36.144   8.255
 6127POPC   C3A10361  24.453  36.142   7.955
 6127POPC   C4A10362  24.517  36.142   7.655
 6127POPC   C1B10363  24.473  35.856   8.555
 6127POPC   C2B10364  24.511  35.898   8.255
 6127POPC   C3B10365  24.429  35.855   7.955
 6127POPC   C4B10366  24.449  35.846   7.655
 6128POPC   NC310367  37.651  40.046   9.455
 6128POPC   PO410368  37.660  39.976   9.155
 6128POPC   GL110369  37.639  40.044   8.855
 6128POPC   GL210370  37.673  40.088   8.855
 6128POPC   C1A10371  37.649  40.011   8.555
 6128POPC   D2A10372  37.634  39.973   8.255
 6128POPC   C3A10373  37.693  39.970   7.955
 6128POPC   C4A10374  37.639  40.006   7.655
 6128POPC   C1B10375  37.696  40.228   8.555
 6128POPC   C2B10376  37.695  40.243   8.255
 6128POPC   C3B10377  37.758  40.270   7.955
 6128POPC   C4B10378  37.744  40.239   7.655
 6129POPC   NC310379  39.985   7.404   9.455
 6129POPC   PO410380  40.033   7.447   9.155
 6129POPC   GL110381  39.957   7.391   8.855
 6129POPC   GL210382  39.886   7.456   8.855
 6129POPC   C1A10383  40.043   7.384   8.555
 6129POPC   D2A10384  39.997   7.437   8.255
 6129POPC   C3A10385  40.011   7.458   7.955
 6129POPC   C4A10386  40.000   7.422   7.655
 6129POPC   C1B10387  39.759   7.442   8.555
 6129POPC   C2B10388  39.713   7.426   8.255
 6129POPC   C3B10389  39.727   7.459   7.955
 6129POPC   C4B10390  39.773   7.448   7.655
 6130POPC   NC310391   9.735  42.355   9.455
 6130POPC   PO410392   9.753  42.354   9.155
 6130POPC   GL110393   9.714  42.325   8.855
 6130POPC   GL210394   9.857  42.320   8.855
 6130POPC   C1A10395   9.728  42.312   8.555
 6130POPC   D2A10396   9.789  42.348   8.255
 6130POPC   C3A10397   9.760  42.363   7.955
 6130POPC   C4A10398   9.739  42.348   7.655
 6130POPC   C1B10399  10.044  42.332   8.555
 6130POPC   C2B10400   9.980  42.389   8.255
 6130POPC   C3B10401   9.956  42.404   7.955
 6130POPC   C4B10402   9.976  42.417   7.655
 6131POPC   NC310403  26.835   7.466   9.455
 6131POPC   PO410404  26.843   7.459   9.155
 6131POPC   GL110405  26.800   7.380   8.855
 6131POPC   GL210406  26.850   7.499   8.855
 6131POPC   C1A10407  26.849   7.410   8.555
 6131POPC   D2A10408  26.857   7.372   8.255
 6131POPC   C3A10409  26.826   7.379   7.955
 6131POPC   C4A10410  26.801   7.451   7.655
 6131POPC   C1B10411  26.837   7.703   8.555
 6131POPC   C2B10412  26.783   7.630   8.255
 6131POPC   C3B10413  26.782   7.697   7.955
 6131POPC   C4B10414  26.745   7.651   7.655
 6132POPC   NC310415  27.642  34.558   9.455
 6132POPC   PO410416  27.592  34.546   9.155
 6132POPC   GL110417  27.618  34.576   8.855
 6132POPC   GL210418  27.644  34.698   8.855
 6132POPC   C1A10419  27.592  34.544   8.555
 6132POPC   D2A10420  27.584  34.556   8.255
 6132POPC   C3A10421  27.585  34.624   7.955
 6132POPC   C4A10422  27.551  34.569   7.655
 6132POPC   C1B10423  27.615  34.812   8.555
 6132POPC   C2B10424  27.581  34.853   8.255
 6132POPC   C3B10425  27.587  34.856   7.955
 6132POPC   C4B10426  27.670  34.833   7.655
 6133POPC   NC310427  33.066  12.096   9.455
 6133POPC   PO410428  33.009  12.077   9.155
 6133POPC   GL110429  33.017  12.090   8.855
 6133POPC   GL210430  32.930  12.139   8.855
 6133POPC   C1A10431  33.071  12.060   8.555
 6133POPC   D2A10432  33.073  12.073   8.255
 6133POPC   C3A10433  32.993  12.103   7.955
 6133POPC   C4A10434  33.031  12.047   7.655
 6133POPC   C1B10435  32.830  12.171   8.555
 6133POPC   C2B10436  32.780  12.156   8.255
 6133POPC   C3B10437  32.802  12.119   7.955
 6133POPC   C4B10438  32.789  12.123   7.655
 6134POPC   NC310439   3.547  37.657   9.455
 6134POPC   PO410440   3.499  37.697   9.155
 6134POPC   GL110441   3.526  37.696   8.855
 6134POPC   GL210442   3.544  37.762   8.855
 6134POPC   C1A10443   3.530  37.723   8.555
 6134POPC   D2A10444   3.506  37.675   8.255
 6134POPC   C3A10445   3.582  37.639   7.955
 6134POPC   C4A10446   3.591  37.647   7.655
 6134POPC   C1B10447   3.506  37.885   8.555
 6134POPC   C2B10448   3.444  37.936   8.255
 6134POPC   C3B10449   3.489  37.971   7.955
 6134POPC   C4B10450   3.445  37.971   7.655
 6135POPC   NC310451  33.035  35.375   9.455
 6135POPC   PO410452  33.018  35.373   9.155
 6135POPC   GL110453  33.067  35.318   8.855
 6135POPC   GL210454  33.053  35.232   8.855
 6135POPC   C1A10455  33.065  35.305   8.555
 6135POPC   D2A10456  33.058  35.307   8.255
 6135POPC   C3A10457  33.028  35.307   7.955
 6135POPC   C4A10458  33.030  35.382   7.655
 6135POPC   C1B10459  33.085  35.087   8.555
 6135POPC   C2B10460  33.021  35.103   8.255
 6135POPC   C3B10461  33.073  35.142   7.955
 6135POPC   C4B10462  33.070  35.128   7.655
 6136POPC   NC310463   6.612  20.596   9.455
 6136POPC   PO410464   6.693  20.623   9.155
 6136POPC   GL110465   6.690  20.602   8.855
 6136POPC   GL210466   6.586  20.556   8.855
 6136POPC   C1A10467   6.682  20.651   8.555
 6136POPC   D2A10468   6.603  20.571   8.255
 6136POPC   C3A10469   6.618  20.579   7.955
 6136POPC   C4A10470   6.619  20.645   7.655
 6136POPC   C1B10471   6.427  20.411   8.555
 6136POPC   C2B10472   6.491  20.493   8.255
 6136POPC   C3B10473   6.469  20.478   7.955
 6136POPC   C4B10474   6.413  20.436   7.655
 6137POPC   NC310475  12.096  40.738   9.455
 6137POPC   PO410476  12.091  40.811   9.155
 6137POPC   GL110477  12.090  40.791   8.855
 6137POPC   GL210478  11.973  40.733   8.855
 6137POPC   C1A10479  12.028  40.796   8.555
 6137POPC   D2A10480  12.042  40.785   8.255
 6137POPC   C3A10481  12.072  40.767   7.955
 6137POPC   C4A10482  12.089  40.794   7.655
 6137POPC   C1B10483  11.838  40.715   8.555
 6137POPC   C2B10484  11.810  40.784   8.255
 6137POPC   C3B10485  11.819  40.697   7.955
 6137POPC   C4B10486  11.845  40.712   7.655
 6138POPC   NC310487  30.695  22.134   9.455
 6138POPC   PO410488  30.663  22.212   9.155
 6138POPC   GL110489  30.650  22.130   8.855
 6138POPC   GL210490  30.769  22.085   8.855
 6138POPC   C1A10491  30.737  22.173   8.555
 6138POPC   D2A10492  30.731  22.178   8.255
 6138POPC   C3A10493  30.742  22.197   7.955
 6138POPC   C4A10494  30.664  22.192   7.655
 6138POPC   C1B10495  30.916  21.961   8.555
 6138POPC   C2B10496  30.860  21.997   8.255
 6138POPC   C3B10497  30.838  21.986   7.955
 6138POPC   C4B10498  30.891  22.011   7.655
 6139POPC   NC310499   8.924  15.939   9.455
 6139POPC   PO410500   8.930  15.959   9.155
 6139POPC   GL110501   8.925  15.989   8.855
 6139POPC   GL210502   8.811  15.963   8.855
 6139POPC   C1A10503   8.985  15.962   8.555
 6139POPC   D2A10504   8.941  15.910   8.255
 6139POPC   C3A10505   9.004  15.935   7.955
 6139POPC   C4A10506   8.982  15.939   7.655
 6139POPC   C1B10507   8.710  16.008   8.555
 6139POPC   C2B10508   8.739  15.949   8.255
 6139POPC   C3B10509   8.768  15.956   7.955
 6139POPC   C4B10510   8.684  15.983   7.655
 6140POPC   NC310511  23.756  43.896   9.455
 6140POPC   PO410512  23.752  43.908   9.155
 6140POPC   GL110513  23.760  43.845   8.855
 6140POPC   GL210514  23.634  43.906   8.855
 6140POPC   C1A10515  23.719  43.903   8.555
 6140POPC   D2A10516  23.691  43.882   8.255
 6140POPC   C3A10517  23.740  43.889   7.955
 6140POPC   C4A10518  23.723  43.852   7.655
 6140POPC   C1B10519  23.477  43.963   8.555
 6140POPC   C2B10520  23.487  43.912   8.255
 6140POPC   C3B10521  23.466  43.909   7.955
 6140POPC   C4B10522  23.455  43.991   7.655
 6141POPC   NC310523  27.562   8.970   9.455
 6141POPC   PO410524  27.560   8.933   9.155
 6141POPC   GL110525  27.632   9.017   8.855
 6141POPC   GL210526  27.483   8.998   8.855
 6141POPC   C1A10527  27.580   9.004   8.555
 6141POPC   D2A10528  27.584   9.000   8.255
 6141POPC   C3A10529  27.582   8.992   7.955
 6141POPC   C4A10530  27.584   9.019   7.655
 6141POPC   C1B10531  27.302   8.974   8.555
 6141POPC   C2B10532  27.388   8.932   8.255
 6141POPC   C3B10533  27.397   8.946   7.955
 6141POPC   C4B10534  27.386   8.942   7.655
 6142POPC   NC310535  40.016  12.852   9.455
 6142POPC   PO410536  40.020  12.855   9.155
 6142POPC   GL110537  40.053  12.856   8.855
 6142POPC   GL210538  40.032  13.024   8.855
 6142POPC   C1A10539  40.017  12.887   8.555
 6142POPC   D2A10540  40.031  12.851   8.255
 6142POPC   C3A10541  39.970  12.815   7.955
 6142POPC   C4A10542  40.045  12.900   7.655
 6142POPC   C1B10543  40.016  13.150   8.555
 6142POPC   C2B10544  39.991  13.082   8.255
 6142POPC   C3B10545  39.958  13.080   7.955
 6142POPC   C4B10546  39.978  13.116   7.655
 6143POPC   NC310547   5.830  26.795   9.455
 6143POPC   PO410548   5.908  26.848   9.155
 6143POPC   GL110549   5.916  26.817   8.855
 6143POPC   GL210550   5.954  26.931   8.855
 6143POPC   C1A10551   5.896  26.829   8.555
 6143POPC   D2A10552   5.910  26.819   8.255
 6143POPC   C3A10553   5.827  26.860   7.955
 6143POPC   C4A10554   5.843  26.846   7.655
 6143POPC   C1B10555   6.027  27.008   8.555
 6143POPC   C2B10556   6.025  27.041   8.255
 6143POPC   C3B10557   5.971  27.065   7.955
 6143POPC   C4B10558   5.980  27.082   7.655
 6144POPC   NC310559  42.372  40.750   9.455
 6144POPC   PO410560  42.322  40.808   9.155
 6144POPC   GL110561  42.334  40.785   8.855
 6144POPC   GL210562  42.286  40.908   8.855
 6144POPC   C1A10563  42.302  40.739   8.555
 6144POPC   D2A10564  42.339  40.778   8.255
 6144POPC   C3A10565  42.356  40.734   7.955
 6144POPC   C4A10566  42.290  40.760   7.655
 6144POPC   C1B10567  42.313  41.052   8.555
 6144POPC   C2B10568  42.303  41.042   8.255
 6144POPC   C3B10569  42.336  40.994   7.955
 6144POPC   C4B10570  42.273  41.057   7.655
 6145POPC   NC310571   5.087  25.258   9.455
 6145POPC   PO410572   5.126  25.233   9.155
 6145POPC   GL110573   5.117  25.283   8.855
 6145POPC   GL210574   5.127  25.144   8.855
 6145POPC   C1A10575   5.072  25.258   8.555
 6145POPC   D2A10576   5.092  25.281   8.255
 6145POPC   C3A10577   5.060  25.252   7.955
 6145POPC   C4A10578   5.118  25.270   7.655
 6145POPC   C1B10579   5.061  24.984   8.555
 6145POPC   C2B10580   5.094  24.999   8.255
 6145POPC   C3B10581   5.089  25.032   7.955
 6145POPC   C4B10582   5.140  24.992   7.655
 6146POPC   NC310583   5.853  38.463   9.455
 6146POPC   PO410584   5.827  38.428   9.155
 6146POPC   GL110585   5.883  38.481   8.855
 6146POPC   GL210586   5.864  38.616   8.855
 6146POPC   C1A10587   5.908  38.468   8.555
 6146POPC   D2A10588   5.823  38.505   8.255
 6146POPC   C3A10589   5.883  38.497   7.955
 6146POPC   C4A10590   5.884  38.411   7.655
 6146POPC   C1B10591   5.803  38.720   8.555
 6146POPC   C2B10592   5.732  38.729   8.255
 6146POPC   C3B10593   5.731  38.682   7.955
 6146POPC   C4B10594   5.791  38.683   7.655
 6147POPC   NC310595  22.895  10.520   9.455
 6147POPC   PO410596  22.922  10.561   9.155
 6147POPC   GL110597  22.898  10.532   8.855
 6147POPC   GL210598  22.929  10.618   8.855
 6147POPC   C1A10599  22.955  10.520   8.555
 6147POPC   D2A10600  22.918  10.535   8.255
 6147POPC   C3A10601  22.926  10.503   7.955
 6147POPC   C4A10602  22.938  10.565   7.655
 6147POPC   C1B10603  22.928  10.792   8.555
 6147POPC   C2B10604  22.980  10.759   8.255
 6147POPC   C3B10605  22.932  10.751   7.955
 6147POPC   C4B10606  22.914  10.806   7.655
 6148POPC   NC310607  33.791  36.899   9.455
 6148POPC   PO410608  33.842  36.860   9.155
 6148POPC   GL110609  33.818  36.896   8.855
 6148POPC   GL210610  33.786  36.755   8.855
 6148POPC   C1A10611  33.800  36.919   8.555
 6148POPC   D2A10612  33.839  36.909   8.255
 6148POPC   C3A10613  33.768  36.927   7.955
 6148POPC   C4A10614  33.816  36.899   7.655
 6148POPC   C1B10615  33.796  36.609   8.555
 6148POPC   C2B10616  33.799  36.660   8.255
 6148POPC   C3B10617  33.729  36.622   7.955
 6148POPC   C4B10618  33.783  36.613   7.655
 6149POPC   NC310619  22.919  28.392   9.455
 6149POPC   PO410620  22.971  28.376   9.155
 6149POPC   GL110621  22.894  28.392   8.855
 6149POPC   GL210622  22.806  28.327   8.855
 6149POPC   C1A10623  22.978  28.326   8.555
 6149POPC   D2A10624  22.933  28.343   8.255
 6149POPC   C3A10625  22.981  28.417   7.955
 6149POPC   C4A10626  22.946  28.368   7.655
 6149POPC   C1B10627  22.706  28.253   8.555
 6149POPC   C2B10628  22.688  28.207   8.255
 6149POPC   C3B10629  22.766  28.239   7.955
 6149POPC   C4B10630  22.679  28.256   7.655
 6150POPC   NC310631  39.231  14.372   9.455
 6150POPC   PO410632  39.276  14.431   9.155
 6150POPC   GL110633  39.183  14.364   8.855
 6150POPC   GL210634  39.079  14.347   8.855
 6150POPC   C1A10635  39.185  14.441   8.555
 6150POPC   D2A10636  39.203  14.361   8.255
 6150POPC   C3A10637  39.248  14.403   7.955
 6150POPC   C4A10638  39.204  14.370   7.655
 6150POPC   C1B10639  38.944  14.376   8.555
 6150POPC   C2B10640  38.964  14.394   8.255
 6150POPC   C3B10641  39.030  14.404   7.955
 6150POPC   C4B10642  38.992  14.435   7.655
 6151POPC   NC310643  20.573  25.270   9.455
 6151POPC   PO410644  20.647  25.236   9.155
 6151POPC   GL110645  20.653  25.272   8.855
 6151POPC   GL210646  20.559  25.104   8.855
 6151POPC   C1A10647  20.593  25.261   8.555
 6151POPC   D2A10648  20.630  25.278   8.255
 6151POPC   C3A10649  20.645  25.279   7.955
 6151POPC   C4A10650  20.564  25.288   7.655
 6151POPC   C1B10651  20.551  25.018   8.555
 6151POPC   C2B10652  20.484  25.012   8.255
 6151POPC   C3B10653  20.547  24.992   7.955
 6151POPC   C4B10654  20.572  25.055   7.655
 6152POPC   NC310655  12.049   3.535   9.455
 6152POPC   PO410656  12.042   3.505   9.155
 6152POPC   GL110657  12.067   3.518   8.855
 6152POPC   GL210658  12.157   3.524   8.855
 6152POPC   C1A10659  12.096   3.578   8.555
 6152POPC   D2A10660  12.064   3.530   8.255
 6152POPC   C3A10661  12.028   3.531   7.955
 6152POPC   C4A10662  12.104   3.521   7.655
 6152POPC   C1B10663  12.291   3.453   8.555
 6152POPC   C2B10664  12.347   3.523   8.255
 6152POPC   C3B10665  12.292   3.510   7.955
 6152POPC   C4B10666  12.354   3.502   7.655
 6153POPC   NC310667  11.262  37.683   9.455
 6153POPC   PO410668  11.297  37.655   9.155
 6153POPC   GL110669  11.280  37.675   8.855
 6153POPC   GL210670  11.338  37.803   8.855
 6153POPC   C1A10671  11.299  37.722   8.555
 6153POPC   D2A10672  11.258  37.657   8.255
 6153POPC   C3A10673  11.332  37.710   7.955
 6153POPC   C4A10674  11.254  37.634   7.655
 6153POPC   C1B10675  11.253  37.902   8.555
 6153POPC   C2B10676  11.304  37.948   8.255
 6153POPC   C3B10677  11.321  37.972   7.955
 6153POPC   C4B10678  11.326  37.909   7.655
 6154POPC   NC310679  24.447  16.691   9.455
 6154POPC   PO410680  24.483  16.716   9.155
 6154POPC   GL110681  24.508  16.753   8.855
 6154POPC   GL210682  24.363  16.643   8.855
 6154POPC   C1A10683  24.491  16.737   8.555
 6154POPC   D2A10684  24.478  16.733   8.255
 6154POPC   C3A10685  24.489  16.734   7.955
 6154POPC   C4A10686  24.503  16.698   7.655
 6154POPC   C1B10687  24.290  16.667   8.555
 6154POPC   C2B10688  24.237  16.611   8.255
 6154POPC   C3B10689  24.287  16.620   7.955
 6154POPC   C4B10690  24.215  16.586   7.655
 6155POPC   NC310691  12.844  12.104   9.455
 6155POPC   PO410692  12.806  12.111   9.155
 6155POPC   GL110693  12.814  12.083   8.855
 6155POPC   GL210694  12.938  12.043   8.855
 6155POPC   C1A10695  12.900  12.055   8.555
 6155POPC   D2A10696  12.834  12.114   8.255
 6155POPC   C3A10697  12.870  12.032   7.955
 6155POPC   C4A10698  12.822  12.054   7.655
 6155POPC   C1B10699  13.038  11.916   8.555
 6155POPC   C2B10700  13.025  11.990   8.255
 6155POPC   C3B10701  13.085  11.954   7.955
 6155POPC   C4B10702  13.102  11.943   7.655
 6156POPC   NC310703   8.989   0.414   9.455
 6156POPC   PO410704   8.959   0.432   9.155
 6156POPC   GL110705   8.943   0.389   8.855
 6156POPC   GL210706   9.046   0.430   8.855
 6156POPC   C1A10707   8.926   0.427   8.555
 6156POPC   D2A10708   8.928   0.407   8.255
 6156POPC   C3A10709   8.936   0.484   7.955
 6156POPC   C4A10710   8.984   0.417   7.655
 6156POPC   C1B10711   9.247   0.380   8.555
 6156POPC   C2B10712   9.208   0.355   8.255
 6156POPC   C3B10713   9.196   0.388   7.955
 6156POPC   C4B10714   9.254   0.326   7.655
 6157POPC   NC310715  12.851  43.851   9.455
 6157POPC   PO410716  12.868  43.923   9.155
 6157POPC   GL110717  12.862  43.840   8.855
 6157POPC   GL210718  12.702  43.798   8.855
 6157POPC   C1A10719  12.867  43.890   8.555
 6157POPC   D2A10720  12.839  43.880   8.255
 6157POPC   C3A10721  12.892  43.869   7.955
 6157POPC   C4A10722  12.804  43.932   7.655
 6157POPC   C1B10723  12.609  43.784   8.555
 6157POPC   C2B10724  12.648  43.784   8.255
 6157POPC   C3B10725  12.604  43.791   7.955
 6157POPC   C4B10726  12.653  43.767   7.655
 6158POPC   NC310727  36.907  37.688   9.455
 6158POPC   PO410728  36.948  37.692   9.155
 6158POPC   GL110729  36.885  37.716   8.855
 6158POPC   GL210730  36.830  37.689   8.855
 6158POPC   C1A10731  36.892  37.636   8.555
 6158POPC   D2A10732  36.910  37.678   8.255
 6158POPC   C3A10733  36.895  37.647   7.955
 6158POPC   C4A10734  36.891  37.707   7.655
 6158POPC   C1B10735  36.676  37.779   8.555
 6158POPC   C2B10736  36.624  37.791   8.255
 6158POPC   C3B10737  36.641  37.759   7.955
 6158POPC   C4B10738  36.668  37.744   7.655
 6159POPC   NC310739   5.830  25.276   9.455
 6159POPC   PO410740   5.902  25.258   9.155
 6159POPC   GL110741   5.820  25.301   8.855
 6159POPC   GL210742   5.777  25.357   8.855
 6159POPC   C1A10743   5.866  25.270   8.555
 6159POPC   D2A10744   5.845  25.297   8.255
 6159POPC   C3A10745   5.850  25.309   7.955
 6159POPC   C4A10746   5.865  25.270   7.655
 6159POPC   C1B10747   5.638  25.370   8.555
 6159POPC   C2B10748   5.629  25.432   8.255
 6159POPC   C3B10749   5.620  25.384   7.955
 6159POPC   C4B10750   5.686  25.373   7.655
 6160POPC   NC310751   1.166   1.974   9.455
 6160POPC   PO410752   1.169   1.985   9.155
 6160POPC   GL110753   1.252   2.016   8.855
 6160POPC   GL210754   1.130   2.000   8.855
 6160POPC   C1A10755   1.177   2.012   8.555
 6160POPC   D2A10756   1.222   1.978   8.255
 6160POPC   C3A10757   1.245   1.988   7.955
 6160POPC   C4A10758   1.175   2.021   7.655
 6160POPC   C1B10759   0.964   1.985   8.555
 6160POPC   C2B10760   0.956   1.987   8.255
 6160POPC   C3B10761   1.002   1.957   7.955
 6160POPC   C4B10762   0.993   1.986   7.655
 6161POPC   NC310763  31.479  31.432   9.455
 6161POPC   PO410764  31.511  31.509   9.155
 6161POPC   GL110765  31.478  31.462   8.855
 6161POPC   GL210766  31.406  31.303   8.855
 6161POPC   C1A10767  31.435  31.497   8.555
 6161POPC   D2A10768  31.506  31.459   8.255
 6161POPC   C3A10769  31.518  31.434   7.955
 6161POPC   C4A10770  31.471  31.494   7.655
 6161POPC   C1B10771  31.444  31.255   8.555
 6161POPC   C2B10772  31.430  31.195   8.255
 6161POPC   C3B10773  31.406  31.195   7.955
 6161POPC   C4B10774  31.402  31.258   7.655
 6162POPC   NC310775   4.315  12.066   9.455
 6162POPC   PO410776   4.289  12.058   9.155
 6162POPC   GL110777   4.343  12.070   8.855
 6162POPC   GL210778   4.271  11.966   8.855
 6162POPC   C1A10779   4.341  12.026   8.555
 6162POPC   D2A10780   4.286  12.033   8.255
 6162POPC   C3A10781   4.361  12.090   7.955
 6162POPC   C4A10782   4.278  12.083   7.655
 6162POPC   C1B10783   4.334  11.816   8.555
 6162POPC   C2B10784   4.275  11.826   8.255
 6162POPC   C3B10785   4.341  11.835   7.955
 6162POPC   C4B10786   4.256  11.841   7.655
 6163POPC   NC310787  32.202  37.665   9.455
 6163POPC   PO410788  32.208  37.691   9.155
 6163POPC   GL110789  32.226  37.633   8.855
 6163POPC   GL210790  32.362  37.734   8.855
 6163POPC   C1A10791  32.233  37.661   8.555
 6163POPC   D2A10792  32.239  37.653   8.255
 6163POPC   C3A10793  32.276  37.724   7.955
 6163POPC   C4A10794  32.228  37.629   7.655
 6163POPC   C1B10795  32.420  37.763   8.555
 6163POPC   C2B10796  32.467  37.786   8.255
 6163POPC   C3B10797  32.483  37.827   7.955
 6163POPC   C4B10798  32.437  37.831   7.655
 6164POPC   NC310799  42.377  43.837   9.455
 6164POPC   PO410800  42.341  43.885   9.155
 6164POPC   GL110801  42.379  43.875   8.855
 6164POPC   GL210802  42.189  43.848   8.855
 6164POPC   C1A10803  42.383  43.844   8.555
 6164POPC   D2A10804  42.375  43.846   8.255
 6164POPC   C3A10805  42.378  43.878   7.955
 6164POPC   C4A10806  42.374  43.871   7.655
 6164POPC   C1B10807  42.048  43.903   8.555
 6164POPC   C2B10808  42.115  43.935   8.255
 6164POPC   C3B10809  42.072  43.919   7.955
 6164POPC   C4B10810  42.073  43.862   7.655
 6165POPC   NC310811  38.503  42.371   9.455
 6165POPC   PO410812  38.485  42.330   9.155
 6165POPC   GL110813  38.467  42.347   8.855
 6165POPC   GL210814  38.577  42.277   8.855
 6165POPC   C1A10815  38.407  42.334   8.555
 6165POPC   D2A10816  38.419  42.355   8.255
 6165POPC   C3A10817  38.441  42.363   7.955
 6165POPC   C4A10818  38.425  42.311   7.655
 6165POPC   C1B10819  38.702  42.300   8.555
 6165POPC   C2B10820  38.667  42.276   8.255
 6165POPC   C3B10821  38.723  42.251   7.955
 6165POPC   C4B10822  38.714  42.294   7.655
 6166POPC   NC310823  28.357  14.412   9.455
 6166POPC   PO410824  28.323  14.398   9.155
 6166POPC   GL110825  28.349  14.376   8.855
 6166POPC   GL210826  28.228  14.439   8.855
 6166POPC   C1A10827  28.351  14.413   8.555
 6166POPC   D2A10828  28.383  14.426   8.255
 6166POPC   C3A10829  28.332  14.428   7.955
 6166POPC   C4A10830  28.355  14.436   7.655
 6166POPC   C1B10831  28.168  14.576   8.555
 6166POPC   C2B10832  28.136  14.554   8.255
 6166POPC   C3B10833  28.172  14.519   7.955
 6166POPC   C4B10834  28.197  14.535   7.655
 6167POPC   NC310835  43.860   6.626   9.455
 6167POPC   PO410836  43.891   6.637   9.155
 6167POPC   GL110837  43.883   6.618   8.855
 6167POPC   GL210838  43.754   6.706   8.855
 6167POPC   C1A10839  43.903   6.606   8.555
 6167POPC   D2A10840  43.854   6.604   8.255
 6167POPC   C3A10841  43.848   6.658   7.955
 6167POPC   C4A10842  43.894   6.596   7.655
 6167POPC   C1B10843  43.695   6.805   8.555
 6167POPC   C2B10844  43.714   6.848   8.255
 6167POPC   C3B10845  43.695   6.756   7.955
 6167POPC   C4B10846  43.650   6.811   7.655
 6168POPC   NC310847   6.645  30.680   9.455
 6168POPC   PO410848   6.602  30.680   9.155
 6168POPC   GL110849   6.651  30.701   8.855
 6168POPC   GL210850   6.813  30.741   8.855
 6168POPC   C1A10851   6.634  30.680   8.555
 6168POPC   D2A10852   6.605  30.711   8.255
 6168POPC   C3A10853   6.680  30.721   7.955
 6168POPC   C4A10854   6.655  30.746   7.655
 6168POPC   C1B10855   6.851  30.708   8.555
 6168POPC   C2B10856   6.880  30.694   8.255
 6168POPC   C3B10857   6.860  30.731   7.955
 6168POPC   C4B10858   6.930  30.682   7.655
 6169POPC   NC310859  29.120  36.091   9.455
 6169POPC   PO410860  29.173  36.151   9.155
 6169POPC   GL110861  29.119  36.126   8.855
 6169POPC   GL210862  28.975  36.149   8.855
 6169POPC   C1A10863  29.152  36.124   8.555
 6169POPC   D2A10864  29.178  36.103   8.255
 6169POPC   C3A10865  29.151  36.157   7.955
 6169POPC   C4A10866  29.148  36.173   7.655
 6169POPC   C1B10867  28.858  36.091   8.555
 6169POPC   C2B10868  28.942  36.083   8.255
 6169POPC   C3B10869  28.940  36.112   7.955
 6169POPC   C4B10870  28.886  36.092   7.655
 6170POPC   NC310871  26.827  20.575   9.455
 6170POPC   PO410872  26.810  20.600   9.155
 6170POPC   GL110873  26.855  20.573   8.855
 6170POPC   GL210874  26.813  20.782   8.855
 6170POPC   C1A10875  26.840  20.580   8.555
 6170POPC   D2A10876  26.866  20.633   8.255
 6170POPC   C3A10877  26.834  20.584   7.955
 6170POPC   C4A10878  26.776  20.582   7.655
 6170POPC   C1B10879  26.852  20.825   8.555
 6170POPC   C2B10880  26.838  20.864   8.255
 6170POPC   C3B10881  26.812  20.860   7.955
 6170POPC   C4B10882  26.851  20.873   7.655
 6171POPC   NC310883  36.144   4.367   9.455
 6171POPC   PO410884  36.109   4.331   9.155
 6171POPC   GL110885  36.159   4.276   8.855
 6171POPC   GL210886  36.248   4.246   8.855
 6171POPC   C1A10887  36.157   4.292   8.555
 6171POPC   D2A10888  36.143   4.340   8.255
 6171POPC   C3A10889  36.170   4.344   7.955
 6171POPC   C4A10890  36.119   4.288   7.655
 6171POPC   C1B10891  36.363   4.314   8.555
 6171POPC   C2B10892  36.408   4.263   8.255
 6171POPC   C3B10893  36.372   4.311   7.955
 6171POPC   C4B10894  36.335   4.303   7.655
 6172POPC   NC310895  41.601   1.977   9.455
 6172POPC   PO410896  41.518   1.963   9.155
 6172POPC   GL110897  41.583   1.947   8.855
 6172POPC   GL210898  41.404   1.955   8.855
 6172POPC   C1A10899  41.517   1.960   8.555
 6172POPC   D2A10900  41.510   2.010   8.255
 6172POPC   C3A10901  41.549   1.951   7.955
 6172POPC   C4A10902  41.604   1.987   7.655
 6172POPC   C1B10903  41.289   1.984   8.555
 6172POPC   C2B10904  41.356   1.902   8.255
 6172POPC   C3B10905  41.360   1.989   7.955
 6172POPC   C4B10906  41.271   1.978   7.655
 6173POPC   NC310907  10.549  15.211   9.455
 6173POPC   PO410908  10.538  15.165   9.155
 6173POPC   GL110909  10.531  15.149   8.855
 6173POPC   GL210910  10.416  15.226   8.855
 6173POPC   C1A10911  10.539  15.188   8.555
 6173POPC   D2A10912  10.553  15.137   8.255
 6173POPC   C3A10913  10.488  15.176   7.955
 6173POPC   C4A10914  10.557  15.151   7.655
 6173POPC   C1B10915  10.359  15.311   8.555
 6173POPC   C2B10916  10.326  15.336   8.255
 6173POPC   C3B10917  10.323  15.371   7.955
 6173POPC   C4B10918  10.348  15.345   7.655
 6174POPC   NC310919  13.624  32.229   9.455
 6174POPC   PO410920  13.666  32.257   9.155
 6174POPC   GL110921  13.578  32.235   8.855
 6174POPC   GL210922  13.559  32.344   8.855
 6174POPC   C1A10923  13.599  32.281   8.555
 6174POPC   D2A10924  13.607  32.291   8.255
 6174POPC   C3A10925  13.600  32.290   7.955
 6174POPC   C4A10926  13.627  32.222   7.655
 6174POPC   C1B10927  13.487  32.440   8.555
 6174POPC   C2B10928  13.441  32.415   8.255
 6174POPC   C3B10929  13.433  32.442   7.955
 6174POPC   C4B10930  13.442  32.377   7.655
 6175POPC   NC310931  36.134  32.203   9.455
 6175POPC   PO410932  36.098  32.222   9.155
 6175POPC   GL110933  36.098  32.209   8.855
 6175POPC   GL210934  35.993  32.276   8.855
 6175POPC   C1A10935  36.170  32.249   8.555
 6175POPC   D2A10936  36.175  32.244   8.255
 6175POPC   C3A10937  36.097  32.210   7.955
 6175POPC   C4A10938  36.116  32.264   7.655
 6175POPC   C1B10939  35.836  32.310   8.555
 6175POPC   C2B10940  35.907  32.274   8.255
 6175POPC   C3B10941  35.868  32.317   7.955
 6175POPC   C4B10942  35.855  32.309   7.655
 6176POPC   NC310943  23.717  37.676   9.455
 6176POPC   PO410944  23.725  37.661   9.155
 6176POPC   GL110945  23.756  37.701   8.855
 6176POPC   GL210946  23.589  37.593   8.855
 6176POPC   C1A10947  23.666  37.682   8.555
 6176POPC   D2A10948  23.728  37.722   8.255
 6176POPC   C3A10949  23.718  37.707   7.955
 6176POPC   C4A10950  23.692  37.718   7.655
 6176POPC   C1B10951  23.572  37.467   8.555
 6176POPC   C2B10952  23.595  37.490   8.255
 6176POPC   C3B10953  23.562  37.522   7.955
 6176POPC   C4B10954  23.509  37.501   7.655
 6177POPC   NC310955  40.777  20.567   9.455
 6177POPC   PO410956  40.790  20.651   9.155
 6177POPC   GL110957  40.799  20.652   8.855
 6177POPC   GL210958  40.680  20.679   8.855
 6177POPC   C1A10959  40.778  20.562   8.555
 6177POPC   D2A10960  40.805  20.604   8.255
 6177POPC   C3A10961  40.780  20.653   7.955
 6177POPC   C4A10962  40.827  20.567   7.655
 6177POPC   C1B10963  40.512  20.736   8.555
 6177POPC   C2B10964  40.583  20.720   8.255
 6177POPC   C3B10965  40.537  20.690   7.955
 6177POPC   C4B10966  40.542  20.698   7.655
 6178POPC   NC310967  33.002   0.403   9.455
 6178POPC   PO410968  33.027   0.481   9.155
 6178POPC   GL110969  33.043   0.476   8.855
 6178POPC   GL210970  32.954   0.411   8.855
 6178POPC   C1A10971  33.066   0.459   8.555
 6178POPC   D2A10972  33.033   0.431   8.255
 6178POPC   C3A10973  33.034   0.405   7.955
 6178POPC   C4A10974  33.048   0.469   7.655
 6178POPC   C1B10975  32.786   0.288   8.555
 6178POPC   C2B10976  32.801   0.320   8.255
 6178POPC   C3B10977  32.853   0.331   7.955
 6178POPC   C4B10978  32.800   0.303   7.655
 6179POPC   NC310979  24.468  43.935   9.455
 6179POPC   PO410980  24.480  43.866   9.155
 6179POPC   GL110981  24.520  43.913   8.855
 6179POPC   GL210982  24.563  43.923   8.855
 6179POPC   C1A10983  24.445  43.931   8.555
 6179POPC   D2A10984  24.463  43.838   8.255
 6179POPC   C3A10985  24.492  43.882   7.955
 6179POPC   C4A10986  24.469  43.919   7.655
 6179POPC   C1B10987  24.674  44.027   8.555
 6179POPC   C2B10988  24.671  44.029   8.255
 6179POPC   C3B10989  24.643  44.034   7.955
 6179POPC   C4B10990  24.682  44.069   7.655
 6180POPC   NC310991  32.998  33.014   9.455
 6180POPC   PO410992  33.021  32.977   9.155
 6180POPC   GL110993  33.056  33.046   8.855
 6180POPC   GL210994  33.064  32.897   8.855
 6180POPC   C1A10995  33.065  33.021   8.555
 6180POPC   D2A10996  32.993  33.003   8.255
 6180POPC   C3A10997  32.985  33.007   7.955
 6180POPC   C4A10998  33.003  33.065   7.655
 6180POPC   C1B10999  33.127  32.863   8.555
 6180POPC   C2B11000  33.197  32.779   8.255
 6180POPC   C3B11001  33.170  32.809   7.955
 6180POPC   C4B11002  33.116  32.832   7.655
 6181POPC   NC311003  42.364   5.915   9.455
 6181POPC   PO411004  42.343   5.820   9.155
 6181POPC   GL111005  42.317   5.886   8.855
 6181POPC   GL211006  42.254   5.867   8.855
 6181POPC   C1A11007  42.338   5.831   8.555
 6181POPC   D2A11008  42.330   5.822   8.255
 6181POPC   C3A11009  42.305   5.871   7.955
 6181POPC   C4A11010  42.288   5.849   7.655
 6181POPC   C1B11011  42.066   5.800   8.555
 6181POPC   C2B11012  42.144   5.768   8.255
 6181POPC   C3B11013  42.108   5.745   7.955
 6181POPC   C4B11014  42.089   5.813   7.655
 6182POPC   NC311015  24.472  11.302   9.455
 6182POPC   PO411016  24.533  11.312   9.155
 6182POPC   GL111017  24.452  11.278   8.855
 6182POPC   GL211018  24.447  11.441   8.855
 6182POPC   C1A11019  24.509  11.331   8.555
 6182POPC   D2A11020  24.535  11.269   8.255
 6182POPC   C3A11021  24.518  11.278   7.955
 6182POPC   C4A11022  24.506  11.294   7.655
 6182POPC   C1B11023  24.364  11.535   8.555
 6182POPC   C2B11024  24.362  11.538   8.255
 6182POPC   C3B11025  24.305  11.509   7.955
 6182POPC   C4B11026  24.347  11.486   7.655
 6183POPC   NC311027  40.005   4.278   9.455
 6183POPC   PO411028  39.959   4.318   9.155
 6183POPC   GL111029  39.968   4.276   8.855
 6183POPC   GL211030  40.038   4.207   8.855
 6183POPC   C1A11031  40.010   4.282   8.555
 6183POPC   D2A11032  40.052   4.271   8.255
 6183POPC   C3A11033  40.051   4.288   7.955
 6183POPC   C4A11034  39.974   4.294   7.655
 6183POPC   C1B11035  40.104   4.055   8.555
 6183POPC   C2B11036  40.045   4.087   8.255
 6183POPC   C3B11037  40.119   4.057   7.955
 6183POPC   C4B11038  40.106   4.074   7.655
 6184POPC   NC311039   4.302  30.664   9.455
 6184POPC   PO411040   4.337  30.675   9.155
 6184POPC   GL111041   4.344  30.719   8.855
 6184POPC   GL211042   4.451  30.698   8.855
 6184POPC   C1A11043   4.358  30.735   8.555
 6184POPC   D2A11044   4.340  30.716   8.255
 6184POPC   C3A11045   4.282  30.689   7.955
 6184POPC   C4A11046   4.279  30.731   7.655
 6184POPC   C1B11047   4.611  30.754   8.555
 6184POPC   C2B11048   4.585  30.770   8.255
 6184POPC   C3B11049   4.605  30.751   7.955
 6184POPC   C4B11050   4.526  30.756   7.655
 6185POPC   NC311051  30.670  33.053   9.455
 6185POPC   PO411052  30.728  32.985   9.155
 6185POPC   GL111053  30.739  32.997   8.855
 6185POPC   GL211054  30.553  32.956   8.855
 6185POPC   C1A11055  30.655  32.983   8.555
 6185POPC   D2A11056  30.653  33.069   8.255
 6185POPC   C3A11057  30.712  33.018   7.955
 6185POPC   C4A11058  30.745  32.994   7.655
 6185POPC   C1B11059  30.504  32.892   8.555
 6185POPC   C2B11060  30.479  32.934   8.255
 6185POPC   C3B11061  30.438  32.905   7.955
 6185POPC   C4B11062  30.456  32.944   7.655
 6186POPC   NC311063  31.437  15.144   9.455
 6186POPC   PO411064  31.462  15.212   9.155
 6186POPC   GL111065  31.453  15.154   8.855
 6186POPC   GL211066  31.342  15.195   8.855
 6186POPC   C1A11067  31.440  15.137   8.555
 6186POPC   D2A11068  31.485  15.181   8.255
 6186POPC   C3A11069  31.509  15.184   7.955
 6186POPC   C4A11070  31.445  15.169   7.655
 6186POPC   C1B11071  31.268  15.208   8.555
 6186POPC   C2B11072  31.179  15.201   8.255
 6186POPC   C3B11073  31.211  15.173   7.955
 6186POPC   C4B11074  31.260  15.197   7.655
 6187POPC   NC311075  31.442  34.528   9.455
 6187POPC   PO411076  31.426  34.618   9.155
 6187POPC   GL111077  31.466  34.550   8.855
 6187POPC   GL211078  31.387  34.499   8.855
 6187POPC   C1A11079  31.475  34.528   8.555
 6187POPC   D2A11080  31.498  34.611   8.255
 6187POPC   C3A11081  31.471  34.574   7.955
 6187POPC   C4A11082  31.433  34.591   7.655
 6187POPC   C1B11083  31.209  34.510   8.555
 6187POPC   C2B11084  31.226  34.531   8.255
 6187POPC   C3B11085  31.207  34.514   7.955
 6187POPC   C4B11086  31.186  34.491   7.655
 6188POPC   NC311087  32.278  26.796   9.455
 6188POPC   PO411088  32.228  26.866   9.155
 6188POPC   GL111089  32.233  26.796   8.855
 6188POPC   GL211090  32.319  26.705   8.855
 6188POPC   C1A11091  32.264  26.825   8.555
 6188POPC   D2A11092  32.260  26.846   8.255
 6188POPC   C3A11093  32.217  26.864   7.955
 6188POPC   C4A11094  32.271  26.792   7.655
 6188POPC   C1B11095  32.329  26.564   8.555
 6188POPC   C2B11096  32.408  26.559   8.255
 6188POPC   C3B11097  32.337  26.586   7.955
 6188POPC   C4B11098  32.347  26.632   7.655
 6189POPC   NC311099  10.493  33.038   9.455
 6189POPC   PO411100  10.518  33.035   9.155
 6189POPC   GL111101  10.484  33.028   8.855
 6189POPC   GL211102  10.634  33.113   8.855
 6189POPC   C1A11103  10.494  32.998   8.555
 6189POPC   D2A11104  10.481  33.016   8.255
 6189POPC   C3A11105  10.520  33.053   7.955
 6189POPC   C4A11106  10.523  33.030   7.655
 6189POPC   C1B11107  10.695  33.148   8.555
 6189POPC   C2B11108  10.698  33.174   8.255
 6189POPC   C3B11109  10.751  33.203   7.955
 6189POPC   C4B11110  10.687  33.226   7.655
 6190POPC   NC311111  36.139  31.479   9.455
 6190POPC   PO411112  36.171  31.443   9.155
 6190POPC   GL111113  36.081  31.463   8.855
 6190POPC   GL211114  36.020  31.434   8.855
 6190POPC   C1A11115  36.091  31.500   8.555
 6190POPC   D2A11116  36.086  31.500   8.255
 6190POPC   C3A11117  36.118  31.471   7.955
 6190POPC   C4A11118  36.111  31.476   7.655
 6190POPC   C1B11119  35.868  31.501   8.555
 6190POPC   C2B11120  35.831  31.489   8.255
 6190POPC   C3B11121  35.851  31.450   7.955
 6190POPC   C4B11122  35.841  31.446   7.655
 6191POPC   NC311123  12.037  35.343   9.455
 6191POPC   PO411124  12.103  35.345   9.155
 6191POPC   GL111125  12.034  35.309   8.855
 6191POPC   GL211126  11.922  35.420   8.855
 6191POPC   C1A11127  12.064  35.302   8.555
 6191POPC   D2A11128  12.038  35.330   8.255
 6191POPC   C3A11129  12.103  35.305   7.955
 6191POPC   C4A11130  12.082  35.352   7.655
 6191POPC   C1B11131  11.880  35.396   8.555
 6191POPC   C2B11132  11.840  35.474   8.255
 6191POPC   C3B11133  11.886  35.491   7.955
 6191POPC   C4B11134  11.822  35.396   7.655
 6192POPC   NC311135   8.206  17.466   9.455
 6192POPC   PO411136   8.171  17.507   9.155
 6192POPC   GL111137   8.148  17.505   8.855
 6192POPC   GL211138   8.078  17.475   8.855
 6192POPC   C1A11139   8.181  17.458   8.555
 6192POPC   D2A11140   8.205  17.533   8.255
 6192POPC   C3A11141   8.147  17.534   7.955
 6192POPC   C4A11142   8.196  17.492   7.655
 6192POPC   C1B11143   8.006  17.347   8.555
 6192POPC   C2B11144   7.985  17.393   8.255
 6192POPC   C3B11145   7.945  17.350   7.955
 6192POPC   C4B11146   7.999  17.344   7.655
 6193POPC   NC311147   9.017  25.224   9.455
 6193POPC   PO411148   8.976  25.235   9.155
 6193POPC   GL111149   9.011  25.257   8.855
 6193POPC   GL211150   8.914  25.181   8.855
 6193POPC   C1A11151   8.940  25.261   8.555
 6193POPC   D2A11152   8.950  25.269   8.255
 6193POPC   C3A11153   9.009  25.296   7.955
 6193POPC   C4A11154   8.948  25.265   7.655
 6193POPC   C1B11155   8.871  24.989   8.555
 6193POPC   C2B11156   8.837  24.992   8.255
 6193POPC   C3B11157   8.903  25.012   7.955
 6193POPC   C4B11158   8.894  25.024   7.655
 6194POPC   NC311159   5.065  18.243   9.455
 6194POPC   PO411160   5.087  18.237   9.155
 6194POPC   GL111161   5.140  18.270   8.855
 6194POPC   GL211162   5.096  18.134   8.855
 6194POPC   C1A11163   5.119  18.282   8.555
 6194POPC   D2A11164   5.135  18.269   8.255
 6194POPC   C3A11165   5.068  18.268   7.955
 6194POPC   C4A11166   5.131  18.309   7.655
 6194POPC   C1B11167   5.123  18.018   8.555
 6194POPC   C2B11168   5.109  18.012   8.255
 6194POPC   C3B11169   5.094  18.010   7.955
 6194POPC   C4B11170   5.094  18.039   7.655
 6195POPC   NC311171  38.463   5.125   9.455
 6195POPC   PO411172  38.429   5.117   9.155
 6195POPC   GL111173  38.477   5.047   8.855
 6195POPC   GL211174  38.397   5.167   8.855
 6195POPC   C1A11175  38.434   5.082   8.555
 6195POPC   D2A11176  38.435   5.095   8.255
 6195POPC   C3A11177  38.435   5.060   7.955
 6195POPC   C4A11178  38.417   5.114   7.655
 6195POPC   C1B11179  38.361   5.292   8.555
 6195POPC   C2B11180  38.408   5.291   8.255
 6195POPC   C3B11181  38.378   5.301   7.955
 6195POPC   C4B11182  38.414   5.294   7.655
 6196POPC   NC311183  29.108  24.488   9.455
 6196POPC   PO411184  29.164  24.483   9.155
 6196POPC   GL111185  29.172  24.462   8.855
 6196POPC   GL211186  29.000  24.446   8.855
 6196POPC   C1A11187  29.185  24.489   8.555
 6196POPC   D2A11188  29.135  24.536   8.255
 6196POPC   C3A11189  29.169  24.495   7.955
 6196POPC   C4A11190  29.144  24.467   7.655
 6196POPC   C1B11191  28.899  24.372   8.555
 6196POPC   C2B11192  28.883  24.421   8.255
 6196POPC   C3B11193  28.965  24.346   7.955
 6196POPC   C4B11194  28.920  24.325   7.655
 6197POPC   NC311195  38.434   7.419   9.455
 6197POPC   PO411196  38.415   7.409   9.155
 6197POPC   GL111197  38.463   7.441   8.855
 6197POPC   GL211198  38.596   7.396   8.855
 6197POPC   C1A11199  38.435   7.435   8.555
 6197POPC   D2A11200  38.484   7.421   8.255
 6197POPC   C3A11201  38.474   7.406   7.955
 6197POPC   C4A11202  38.426   7.397   7.655
 6197POPC   C1B11203  38.714   7.372   8.555
 6197POPC   C2B11204  38.684   7.366   8.255
 6197POPC   C3B11205  38.677   7.386   7.955
 6197POPC   C4B11206  38.665   7.307   7.655
 6198POPC   NC311207  25.223   6.634   9.455
 6198POPC   PO411208  25.230   6.621   9.155
 6198POPC   GL111209  25.222   6.682   8.855
 6198POPC   GL211210  25.185   6.720   8.855
 6198POPC   C1A11211  25.249   6.675   8.555
 6198POPC   D2A11212  25.255   6.637   8.255
 6198POPC   C3A11213  25.273   6.661   7.955
 6198POPC   C4A11214  25.265   6.637   7.655
 6198POPC   C1B11215  25.177   6.853   8.555
 6198POPC   C2B11216  25.176   6.886   8.255
 6198POPC   C3B11217  25.198   6.896   7.955
 6198POPC   C4B11218  25.158   6.828   7.655
 6199POPC   NC311219   9.002  29.938   9.455
 6199POPC   PO411220   8.969  29.900   9.155
 6199POPC   GL111221   8.971  29.914   8.855
 6199POPC   GL211222   8.924  30.023   8.855
 6199POPC   C1A11223   9.014  29.907   8.555
 6199POPC   D2A11224   9.016  29.906   8.255
 6199POPC   C3A11225   9.001  29.876   7.955
 6199POPC   C4A11226   8.944  29.924   7.655
 6199POPC   C1B11227   8.913  30.200   8.555
 6199POPC   C2B11228   8.964  30.143   8.255
 6199POPC   C3B11229   8.877  30.137   7.955
 6199POPC   C4B11230   8.927  30.135   7.655
 6200POPC   NC311231  43.080  12.115   9.455
 6200POPC   PO411232  43.075  12.120   9.155
 6200POPC   GL111233  43.123  12.107   8.855
 6200POPC   GL211234  43.227  12.084   8.855
 6200POPC   C1A11235  43.064  12.104   8.555
 6200POPC   D2A11236  43.128  12.105   8.255
 6200POPC   C3A11237  43.091  12.035   7.955
 6200POPC   C4A11238  43.077  12.035   7.655
 6200POPC   C1B11239  43.326  12.106   8.555
 6200POPC   C2B11240  43.352  12.102   8.255
 6200POPC   C3B11241  43.383  12.100   7.955
 6200POPC   C4B11242  43.354  12.077   7.655
 6201POPC   NC311243  26.811   6.685   9.455
 6201POPC   PO411244  26.833   6.645   9.155
 6201POPC   GL111245  26.780   6.644   8.855
 6201POPC   GL211246  26.910   6.712   8.855
 6201POPC   C1A11247  26.778   6.633   8.555
 6201POPC   D2A11248  26.775   6.605   8.255
 6201POPC   C3A11249  26.776   6.660   7.955
 6201POPC   C4A11250  26.849   6.598   7.655
 6201POPC   C1B11251  27.061   6.759   8.555
 6201POPC   C2B11252  27.021   6.686   8.255
 6201POPC   C3B11253  27.088   6.761   7.955
 6201POPC   C4B11254  27.085   6.726   7.655
 6202POPC   NC311255  44.709  40.000   9.455
 6202POPC   PO411256  44.704  39.961   9.155
 6202POPC   GL111257  44.636  40.042   8.855
 6202POPC   GL211258  44.732  39.937   8.855
 6202POPC   C1A11259  44.638  39.982   8.555
 6202POPC   D2A11260  44.697  40.018   8.255
 6202POPC   C3A11261  44.638  40.054   7.955
 6202POPC   C4A11262  44.695  39.988   7.655
 6202POPC   C1B11263  44.888  39.837   8.555
 6202POPC   C2B11264  44.851  39.864   8.255
 6202POPC   C3B11265  44.861  39.877   7.955
 6202POPC   C4B11266  44.814  39.876   7.655
 6203POPC   NC311267  21.358   8.159   9.455
 6203POPC   PO411268  21.360   8.180   9.155
 6203POPC   GL111269  21.429   8.196   8.855
 6203POPC   GL211270  21.338   8.347   8.855
 6203POPC   C1A11271  21.407   8.171   8.555
 6203POPC   D2A11272  21.387   8.156   8.255
 6203POPC   C3A11273  21.432   8.241   7.955
 6203POPC   C4A11274  21.411   8.204   7.655
 6203POPC   C1B11275  21.331   8.424   8.555
 6203POPC   C2B11276  21.297   8.458   8.255
 6203POPC   C3B11277  21.309   8.387   7.955
 6203POPC   C4B11278  21.261   8.389   7.655
 6204POPC   NC311279   2.017  39.262   9.455
 6204POPC   PO411280   1.991  39.264   9.155
 6204POPC   GL111281   1.982  39.247   8.855
 6204POPC   GL211282   1.941  39.275   8.855
 6204POPC   C1A11283   1.980  39.243   8.555
 6204POPC   D2A11284   1.941  39.204   8.255
 6204POPC   C3A11285   1.999  39.272   7.955
 6204POPC   C4A11286   2.009  39.261   7.655
 6204POPC   C1B11287   1.773  39.369   8.555
 6204POPC   C2B11288   1.763  39.413   8.255
 6204POPC   C3B11289   1.752  39.345   7.955
 6204POPC   C4B11290   1.807  39.423   7.655
 6205POPC   NC311291  26.817  15.132   9.455
 6205POPC   PO411292  26.804  15.133   9.155
 6205POPC   GL111293  26.825  15.213   8.855
 6205POPC   GL211294  26.662  15.198   8.855
 6205POPC   C1A11295  26.854  15.194   8.555
 6205POPC   D2A11296  26.831  15.210   8.255
 6205POPC   C3A11297  26.866  15.157   7.955
 6205POPC   C4A11298  26.832  15.136   7.655
 6205POPC   C1B11299  26.571  15.182   8.555
 6205POPC   C2B11300  26.566  15.157   8.255
 6205POPC   C3B11301  26.551  15.123   7.955
 6205POPC   C4B11302  26.611  15.130   7.655
 6206POPC   NC311303  22.973  19.066   9.455
 6206POPC   PO411304  22.932  19.077   9.155
 6206POPC   GL111305  22.898  19.047   8.855
 6206POPC   GL211306  22.789  19.010   8.855
 6206POPC   C1A11307  22.987  19.055   8.555
 6206POPC   D2A11308  22.932  19.090   8.255
 6206POPC   C3A11309  22.943  19.052   7.955
 6206POPC   C4A11310  22.970  19.057   7.655
 6206POPC   C1B11311  22.674  18.962   8.555
 6206POPC   C2B11312  22.692  18.972   8.255
 6206POPC   C3B11313  22.681  19.019   7.955
 6206POPC   C4B11314  22.724  18.984   7.655
 6207POPC   NC311315  20.651  31.430   9.455
 6207POPC   PO411316  20.638  31.457   9.155
 6207POPC   GL111317  20.620  31.470   8.855
 6207POPC   GL211318  20.583  31.301   8.855
 6207POPC   C1A11319  20.602  31.466   8.555
 6207POPC   D2A11320  20.628  31.445   8.255
 6207POPC   C3A11321  20.580  31.518   7.955
 6207POPC   C4A11322  20.574  31.443   7.655
 6207POPC   C1B11323  20.569  31.245   8.555
 6207POPC   C2B11324  20.624  31.200   8.255
 6207POPC   C3B11325  20.558  31.198   7.955
 6207POPC   C4B11326  20.630  31.227   7.655
 6208POPC   NC311327   5.823  44.653   9.455
 6208POPC   PO411328   5.892  44.624   9.155
 6208POPC   GL111329   5.822  44.710   8.855
 6208POPC   GL211330   5.975  44.743   8.855
 6208POPC   C1A11331   5.900  44.617   8.555
 6208POPC   D2A11332   5.885  44.634   8.255
 6208POPC   C3A11333   5.823  44.702   7.955
 6208POPC   C4A11334   5.875  44.705   7.655
 6208POPC   C1B11335   6.058  44.815   8.555
 6208POPC   C2B11336   6.084  44.822   8.255
 6208POPC   C3B11337   6.060  44.819   7.955
 6208POPC   C4B11338   6.091  44.793   7.655
 6209POPC   NC311339  19.870  33.810   9.455
 6209POPC   PO411340  19.815  33.776   9.155
 6209POPC   GL111341  19.793  33.814   8.855
 6209POPC   GL211342  19.867  33.956   8.855
 6209POPC   C1A11343  19.871  33.834   8.555
 6209POPC   D2A11344  19.857  33.777   8.255
 6209POPC   C3A11345  19.826  33.779   7.955
 6209POPC   C4A11346  19.822  33.805   7.655
 6209POPC   C1B11347  19.955  34.049   8.555
 6209POPC   C2B11348  19.910  33.990   8.255
 6209POPC   C3B11349  19.994  33.986   7.955
 6209POPC   C4B11350  19.940  34.061   7.655
 6210POPC   NC311351  25.994  18.248   9.455
 6210POPC   PO411352  26.070  18.327   9.155
 6210POPC   GL111353  26.056  18.328   8.855
 6210POPC   GL211354  25.925  18.161   8.855
 6210POPC   C1A11355  26.031  18.307   8.555
 6210POPC   D2A11356  26.071  18.330   8.255
 6210POPC   C3A11357  26.028  18.276   7.955
 6210POPC   C4A11358  26.008  18.329   7.655
 6210POPC   C1B11359  25.873  18.098   8.555
 6210POPC   C2B11360  25.832  18.093   8.255
 6210POPC   C3B11361  25.792  18.084   7.955
 6210POPC   C4B11362  25.880  18.122   7.655
 6211POPC   NC311363   1.963  10.493   9.455
 6211POPC   PO411364   1.941  10.521   9.155
 6211POPC   GL111365   1.961  10.515   8.855
 6211POPC   GL211366   2.126  10.569   8.855
 6211POPC   C1A11367   1.986  10.490   8.555
 6211POPC   D2A11368   2.022  10.521   8.255
 6211POPC   C3A11369   1.959  10.555   7.955
 6211POPC   C4A11370   2.002  10.547   7.655
 6211POPC   C1B11371   2.145  10.670   8.555
 6211POPC   C2B11372   2.181  10.620   8.255
 6211POPC   C3B11373   2.202  10.708   7.955
 6211POPC   C4B11374   2.156  10.670   7.655
 6212POPC   NC311375  29.124  37.720   9.455
 6212POPC   PO411376  29.181  37.654   9.155
 6212POPC   GL111377  29.127  37.721   8.855
 6212POPC   GL211378  29.097  37.609   8.855
 6212POPC   C1A11379  29.118  37.706   8.555
 6212POPC   D2A11380  29.186  37.680   8.255
 6212POPC   C3A11381  29.098  37.638   7.955
 6212POPC   C4A11382  29.101  37.640   7.655
 6212POPC   C1B11383  28.978  37.452   8.555
 6212POPC   C2B11384  29.008  37.460   8.255
 6212POPC   C3B11385  29.032  37.452   7.955
 6212POPC   C4B11386  28.969  37.495   7.655
 6213POPC   NC311387   2.786   4.319   9.455
 6213POPC   PO411388   2.791   4.337   9.155
 6213POPC   GL111389   2.762   4.301   8.855
 6213POPC   GL211390   2.717   4.257   8.855
 6213POPC   C1A11391   2.782   4.326   8.555
 6213POPC   D2A11392   2.791   4.343   8.255
 6213POPC   C3A11393   2.755   4.328   7.955
 6213POPC   C4A11394   2.738   4.304   7.655
 6213POPC   C1B11395   2.598   4.124   8.555
 6213POPC   C2B11396   2.672   4.121   8.255
 6213POPC   C3B11397   2.590   4.102   7.955
 6213POPC   C4B11398   2.624   4.144   7.655
 6214POPC   NC311399  16.730  35.335   9.455
 6214POPC   PO411400  16.714  35.323   9.155
 6214POPC   GL111401  16.768  35.384   8.855
 6214POPC   GL211402  16.621  35.385   8.855
 6214POPC   C1A11403  16.724  35.391   8.555
 6214POPC   D2A11404  16.694  35.313   8.255
 6214POPC   C3A11405  16.753  35.393   7.955
 6214POPC   C4A11406  16.712  35.346   7.655
 6214POPC   C1B11407  16.525  35.538   8.555
 6214POPC   C2B11408  16.509  35.486   8.255
 6214POPC   C3B11409  16.544  35.472   7.955
 6214POPC   C4B11410  16.529  35.488   7.655
 6215POPC   NC311411  39.957  42.291   9.455
 6215POPC   PO411412  39.981  42.301   9.155
 6215POPC   GL111413  40.051  42.326   8.855
 6215POPC   GL211414  39.862  42.403   8.855
 6215POPC   C1A11415  40.038  42.338   8.555
 6215POPC   D2A11416  40.049  42.314   8.255
 6215POPC   C3A11417  39.984  42.349   7.955
 6215POPC   C4A11418  40.042  42.361   7.655
 6215POPC   C1B11419  39.738  42.430   8.555
 6215POPC   C2B11420  39.789  42.350   8.255
 6215POPC   C3B11421  39.784  42.374   7.955
 6215POPC   C4B11422  39.738  42.372   7.655
 6216POPC   NC311423  14.413  18.293   9.455
 6216POPC   PO411424  14.412  18.255   9.155
 6216POPC   GL111425  14.421  18.314   8.855
 6216POPC   GL211426  14.483  18.173   8.855
 6216POPC   C1A11427  14.428  18.253   8.555
 6216POPC   D2A11428  14.360  18.322   8.255
 6216POPC   C3A11429  14.411  18.310   7.955
 6216POPC   C4A11430  14.421  18.289   7.655
 6216POPC   C1B11431  14.463  18.090   8.555
 6216POPC   C2B11432  14.447  18.030   8.255
 6216POPC   C3B11433  14.464  18.045   7.955
 6216POPC   C4B11434  14.472  18.078   7.655
 6217POPC   NC311435  21.419  23.715   9.455
 6217POPC   PO411436  21.393  23.757   9.155
 6217POPC   GL111437  21.349  23.714   8.855
 6217POPC   GL211438  21.293  23.736   8.855
 6217POPC   C1A11439  21.370  23.671   8.555
 6217POPC   D2A11440  21.395  23.763   8.255
 6217POPC   C3A11441  21.376  23.682   7.955
 6217POPC   C4A11442  21.339  23.726   7.655
 6217POPC   C1B11443  21.166  23.662   8.555
 6217POPC   C2B11444  21.157  23.706   8.255
 6217POPC   C3B11445  21.152  23.672   7.955
 6217POPC   C4B11446  21.192  23.658   7.655
 6218POPC   NC311447  36.915   8.244   9.455
 6218POPC   PO411448  36.903   8.237   9.155
 6218POPC   GL111449  36.952   8.168   8.855
 6218POPC   GL211450  36.864   8.346   8.855
 6218POPC   C1A11451  36.899   8.231   8.555
 6218POPC   D2A11452  36.907   8.192   8.255
 6218POPC   C3A11453  36.907   8.181   7.955
 6218POPC   C4A11454  36.917   8.224   7.655
 6218POPC   C1B11455  36.880   8.414   8.555
 6218POPC   C2B11456  36.857   8.472   8.255
 6218POPC   C3B11457  36.849   8.406   7.955
 6218POPC   C4B11458  36.872   8.443   7.655
 6219POPC   NC311459  31.509   3.586   9.455
 6219POPC   PO411460  31.518   3.568   9.155
 6219POPC   GL111461  31.427   3.515   8.855
 6219POPC   GL211462  31.360   3.459   8.855
 6219POPC   C1A11463  31.452   3.508   8.555
 6219POPC   D2A11464  31.513   3.526   8.255
 6219POPC   C3A11465  31.469   3.501   7.955
 6219POPC   C4A11466  31.466   3.539   7.655
 6219POPC   C1B11467  31.298   3.392   8.555
 6219POPC   C2B11468  31.243   3.353   8.255
 6219POPC   C3B11469  31.320   3.362   7.955
 6219POPC   C4B11470  31.325   3.353   7.655
 6220POPC   NC311471  10.505   8.929   9.455
 6220POPC   PO411472  10.536   8.925   9.155
 6220POPC   GL111473  10.529   8.926   8.855
 6220POPC   GL211474  10.661   8.916   8.855
 6220POPC   C1A11475  10.569   8.992   8.555
 6220POPC   D2A11476  10.572   8.932   8.255
 6220POPC   C3A11477  10.478   9.010   7.955
 6220POPC   C4A11478  10.535   8.982   7.655
 6220POPC   C1B11479  10.752   8.947   8.555
 6220POPC   C2B11480  10.779   8.876   8.255
 6220POPC   C3B11481  10.742   8.928   7.955
 6220POPC   C4B11482  10.772   8.899   7.655
 6221POPC   NC311483  35.352  15.170   9.455
 6221POPC   PO411484  35.314  15.222   9.155
 6221POPC   GL111485  35.380  15.205   8.855
 6221POPC   GL211486  35.426  15.208   8.855
 6221POPC   C1A11487  35.339  15.197   8.555
 6221POPC   D2A11488  35.341  15.154   8.255
 6221POPC   C3A11489  35.373  15.174   7.955
 6221POPC   C4A11490  35.399  15.145   7.655
 6221POPC   C1B11491  35.603  15.309   8.555
 6221POPC   C2B11492  35.545  15.308   8.255
 6221POPC   C3B11493  35.535  15.269   7.955
 6221POPC   C4B11494  35.564  15.314   7.655
 6222POPC   NC311495   5.842  15.990   9.455
 6222POPC   PO411496   5.834  15.940   9.155
 6222POPC   GL111497   5.849  15.943   8.855
 6222POPC   GL211498   5.892  16.088   8.855
 6222POPC   C1A11499   5.900  15.967   8.555
 6222POPC   D2A11500   5.871  15.935   8.255
 6222POPC   C3A11501   5.834  16.003   7.955
 6222POPC   C4A11502   5.881  15.988   7.655
 6222POPC   C1B11503   5.999  16.197   8.555
 6222POPC   C2B11504   6.000  16.175   8.255
 6222POPC   C3B11505   6.043  16.146   7.955
 6222POPC   C4B11506   6.001  16.145   7.655
 6223POPC   NC311507   5.907  22.117   9.455
 6223POPC   PO411508   5.894  22.165   9.155
 6223POPC   GL111509   5.912  22.197   8.855
 6223POPC   GL211510   5.839  22.038   8.855
 6223POPC   C1A11511   5.878  22.195   8.555
 6223POPC   D2A11512   5.905  22.137   8.255
 6223POPC   C3A11513   5.910  22.181   7.955
 6223POPC   C4A11514   5.857  22.123   7.655
 6223POPC   C1B11515   5.859  21.904   8.555
 6223POPC   C2B11516   5.875  21.874   8.255
 6223POPC   C3B11517   5.831  21.931   7.955
 6223POPC   C4B11518   5.834  21.880   7.655
 6224POPC   NC311519   5.908  40.014   9.455
 6224POPC   PO411520   5.897  39.978   9.155
 6224POPC   GL111521   5.875  39.991   8.855
 6224POPC   GL211522   5.752  39.980   8.855
 6224POPC   C1A11523   5.918  39.963   8.555
 6224POPC   D2A11524   5.845  40.030   8.255
 6224POPC   C3A11525   5.889  39.992   7.955
 6224POPC   C4A11526   5.851  39.974   7.655
 6224POPC   C1B11527   5.639  39.854   8.555
 6224POPC   C2B11528   5.650  39.857   8.255
 6224POPC   C3B11529   5.661  39.870   7.955
 6224POPC   C4B11530   5.646  39.850   7.655
 6225POPC   NC311531   3.517  44.645   9.455
 6225POPC   PO411532   3.524  44.661   9.155
 6225POPC   GL111533   3.565  44.690   8.855
 6225POPC   GL211534   3.560  44.751   8.855
 6225POPC   C1A11535   3.548  44.661   8.555
 6225POPC   D2A11536   3.574  44.638   8.255
 6225POPC   C3A11537   3.535  44.632   7.955
 6225POPC   C4A11538   3.536  44.690   7.655
 6225POPC   C1B11539   3.690  44.881   8.555
 6225POPC   C2B11540   3.642  44.836   8.255
 6225POPC   C3B11541   3.629  44.884   7.955
 6225POPC   C4B11542   3.699  44.828   7.655
 6226POPC   NC311543  19.863  35.382   9.455
 6226POPC   PO411544  19.872  35.376   9.155
 6226POPC   GL111545  19.811  35.389   8.855
 6226POPC   GL211546  19.901  35.435   8.855
 6226POPC   C1A11547  19.825  35.383   8.555
 6226POPC   D2A11548  19.824  35.351   8.255
 6226POPC   C3A11549  19.840  35.348   7.955
 6226POPC   C4A11550  19.785  35.395   7.655
 6226POPC   C1B11551  19.981  35.556   8.555
 6226POPC   C2B11552  20.033  35.529   8.255
 6226POPC   C3B11553  20.042  35.484   7.955
 6226POPC   C4B11554  20.051  35.509   7.655
 6227POPC   NC311555   3.544  43.845   9.455
 6227POPC   PO411556   3.517  43.839   9.155
 6227POPC   GL111557   3.559  43.875   8.855
 6227POPC   GL211558   3.418  43.835   8.855
 6227POPC   C1A11559   3.526  43.846   8.555
 6227POPC   D2A11560   3.569  43.926   8.255
 6227POPC   C3A11561   3.583  43.908   7.955
 6227POPC   C4A11562   3.513  43.923   7.655
 6227POPC   C1B11563   3.385  43.712   8.555
 6227POPC   C2B11564   3.328  43.741   8.255
 6227POPC   C3B11565   3.312  43.690   7.955
 6227POPC   C4B11566   3.361  43.731   7.655
 6228POPC   NC311567  30.679  26.015   9.455
 6228POPC   PO411568  30.660  25.994   9.155
 6228POPC   GL111569  30.703  26.065   8.855
 6228POPC   GL211570  30.801  25.935   8.855
 6228POPC   C1A11571  30.712  26.011   8.555
 6228POPC   D2A11572  30.697  26.027   8.255
 6228POPC   C3A11573  30.693  26.015   7.955
 6228POPC   C4A11574  30.705  26.088   7.655
 6228POPC   C1B11575  30.851  25.871   8.555
 6228POPC   C2B11576  30.832  25.856   8.255
 6228POPC   C3B11577  30.884  25.853   7.955
 6228POPC   C4B11578  30.870  25.864   7.655
 6229POPC   NC311579  11.292   3.528   9.455
 6229POPC   PO411580  11.281   3.575   9.155
 6229POPC   GL111581  11.285   3.497   8.855
 6229POPC   GL211582  11.191   3.482   8.855
 6229POPC   C1A11583  11.270   3.554   8.555
 6229POPC   D2A11584  11.296   3.536   8.255
 6229POPC   C3A11585  11.292   3.589   7.955
 6229POPC   C4A11586  11.279   3.540   7.655
 6229POPC   C1B11587  11.113   3.426   8.555
 6229POPC   C2B11588  11.093   3.349   8.255
 6229POPC   C3B11589  11.121   3.365   7.955
 6229POPC   C4B11590  11.093   3.401   7.655
 6230POPC   NC311591  22.187  12.090   9.455
 6230POPC   PO411592  22.179  12.035   9.155
 6230POPC   GL111593  22.162  12.090   8.855
 6230POPC   GL211594  22.285  12.146   8.855
 6230POPC   C1A11595  22.189  12.092   8.555
 6230POPC   D2A11596  22.181  12.092   8.255
 6230POPC   C3A11597  22.155  12.039   7.955
 6230POPC   C4A11598  22.177  12.041   7.655
 6230POPC   C1B11599  22.320  12.223   8.555
 6230POPC   C2B11600  22.362  12.212   8.255
 6230POPC   C3B11601  22.297  12.273   7.955
 6230POPC   C4B11602  22.390  12.233   7.655
 6231POPC   NC311603  36.935  41.517   9.455
 6231POPC   PO411604  36.905  41.548   9.155
 6231POPC   GL111605  36.899  41.591   8.855
 6231POPC   GL211606  36.808  41.509   8.855
 6231POPC   C1A11607  36.874  41.555   8.555
 6231POPC   D2A11608  36.882  41.587   8.255
 6231POPC   C3A11609  36.891  41.557   7.955
 6231POPC   C4A11610  36.950  41.541   7.655
 6231POPC   C1B11611  36.762  41.386   8.555
 6231POPC   C2B11612  36.680  41.409   8.255
 6231POPC   C3B11613  36.746  41.384   7.955
 6231POPC   C4B11614  36.727  41.360   7.655
 6232POPC   NC311615  40.007  43.068   9.455
 6232POPC   PO411616  40.032  43.101   9.155
 6232POPC   GL111617  40.016  43.135   8.855
 6232POPC   GL211618  39.876  43.030   8.855
 6232POPC   C1A11619  40.037  43.101   8.555
 6232POPC   D2A11620  39.987  43.142   8.255
 6232POPC   C3A11621  40.010  43.159   7.955
 6232POPC   C4A11622  40.001  43.063   7.655
 6232POPC   C1B11623  39.762  43.019   8.555
 6232POPC   C2B11624  39.799  43.064   8.255
 6232POPC   C3B11625  39.754  43.025   7.955
 6232POPC   C4B11626  39.731  43.023   7.655
 6233POPC   NC311627  22.144   7.457   9.455
 6233POPC   PO411628  22.208   7.397   9.155
 6233POPC   GL111629  22.161   7.391   8.855
 6233POPC   GL211630  22.090   7.273   8.855
 6233POPC   C1A11631  22.188   7.468   8.555
 6233POPC   D2A11632  22.205   7.427   8.255
 6233POPC   C3A11633  22.119   7.413   7.955
 6233POPC   C4A11634  22.123   7.422   7.655
 6233POPC   C1B11635  22.032   7.177   8.555
 6233POPC   C2B11636  22.018   7.176   8.255
 6233POPC   C3B11637  22.110   7.211   7.955
 6233POPC   C4B11638  22.089   7.164   7.655
 6234POPC   NC311639  19.796   0.467   9.455
 6234POPC   PO411640  19.851   0.427   9.155
 6234POPC   GL111641  19.837   0.447   8.855
 6234POPC   GL211642  19.768   0.410   8.855
 6234POPC   C1A11643  19.849   0.472   8.555
 6234POPC   D2A11644  19.840   0.388   8.255
 6234POPC   C3A11645  19.839   0.405   7.955
 6234POPC   C4A11646  19.837   0.402   7.655
 6234POPC   C1B11647  19.597   0.300   8.555
 6234POPC   C2B11648  19.654   0.344   8.255
 6234POPC   C3B11649  19.580   0.284   7.955
 6234POPC   C4B11650  19.580   0.351   7.655
 6235POPC   NC311651  30.662  13.598   9.455
 6235POPC   PO411652  30.684  13.646   9.155
 6235POPC   GL111653  30.708  13.580   8.855
 6235POPC   GL211654  30.540  13.677   8.855
 6235POPC   C1A11655  30.706  13.602   8.555
 6235POPC   D2A11656  30.668  13.603   8.255
 6235POPC   C3A11657  30.665  13.600   7.955
 6235POPC   C4A11658  30.681  13.600   7.655
 6235POPC   C1B11659  30.502  13.792   8.555
 6235POPC   C2B11660  30.456  13.769   8.255
 6235POPC   C3B11661  30.440  13.736   7.955
 6235POPC   C4B11662  30.530  13.724   7.655
 6236POPC   NC311663  18.315  15.976   9.455
 6236POPC   PO411664  18.330  15.980   9.155
 6236POPC   GL111665  18.316  15.946   8.855
 6236POPC   GL211666  18.393  16.039   8.855
 6236POPC   C1A11667  18.307  15.938   8.555
 6236POPC   D2A11668  18.284  15.984   8.255
 6236POPC   C3A11669  18.300  15.985   7.955
 6236POPC   C4A11670  18.307  15.978   7.655
 6236POPC   C1B11671  18.368  16.155   8.555
 6236POPC   C2B11672  18.400  16.186   8.255
 6236POPC   C3B11673  18.454  16.211   7.955
 6236POPC   C4B11674  18.383  16.139   7.655
 6237POPC   NC311675   7.392  22.971   9.455
 6237POPC   PO411676   7.461  22.963   9.155
 6237POPC   GL111677   7.374  22.977   8.855
 6237POPC   GL211678   7.534  22.983   8.855
 6237POPC   C1A11679   7.445  22.967   8.555
 6237POPC   D2A11680   7.448  22.889   8.255
 6237POPC   C3A11681   7.377  22.919   7.955
 6237POPC   C4A11682   7.433  22.969   7.655
 6237POPC   C1B11683   7.602  23.151   8.555
 6237POPC   C2B11684   7.544  23.125   8.255
 6237POPC   C3B11685   7.548  23.128   7.955
 6237POPC   C4B11686   7.578  23.118   7.655
 6238POPC   NC311687  21.388  43.864   9.455
 6238POPC   PO411688  21.408  43.924   9.155
 6238POPC   GL111689  21.409  43.935   8.855
 6238POPC   GL211690  21.502  43.942   8.855
 6238POPC   C1A11691  21.367  43.889   8.555
 6238POPC   D2A11692  21.423  43.849   8.255
 6238POPC   C3A11693  21.406  43.844   7.955
 6238POPC   C4A11694  21.353  43.900   7.655
 6238POPC   C1B11695  21.521  44.104   8.555
 6238POPC   C2B11696  21.487  44.134   8.255
 6238POPC   C3B11697  21.532  44.052   7.955
 6238POPC   C4B11698  21.505  44.127   7.655
 6239POPC   NC311699  20.642   0.406   9.455
 6239POPC   PO411700  20.591   0.485   9.155
 6239POPC   GL111701  20.603   0.485   8.855
 6239POPC   GL211702  20.609   0.566   8.855
 6239POPC   C1A11703  20.657   0.467   8.555
 6239POPC   D2A11704  20.632   0.437   8.255
 6239POPC   C3A11705  20.580   0.482   7.955
 6239POPC   C4A11706  20.626   0.394   7.655
 6239POPC   C1B11707  20.681   0.652   8.555
 6239POPC   C2B11708  20.675   0.690   8.255
 6239POPC   C3B11709  20.687   0.685   7.955
 6239POPC   C4B11710  20.669   0.725   7.655
 6240POPC   NC311711  17.551  14.399   9.455
 6240POPC   PO411712  17.481  14.402   9.155
 6240POPC   GL111713  17.533  14.403   8.855
 6240POPC   GL211714  17.564  14.504   8.855
 6240POPC   C1A11715  17.490  14.436   8.555
 6240POPC   D2A11716  17.462  14.424   8.255
 6240POPC   C3A11717  17.481  14.380   7.955
 6240POPC   C4A11718  17.473  14.401   7.655
 6240POPC   C1B11719  17.618  14.669   8.555
 6240POPC   C2B11720  17.621  14.603   8.255
 6240POPC   C3B11721  17.582  14.656   7.955
 6240POPC   C4B11722  17.636  14.627   7.655
 6241POPC   NC311723  20.568  15.941   9.455
 6241POPC   PO411724  20.570  15.974   9.155
 6241POPC   GL111725  20.588  15.927   8.855
 6241POPC   GL211726  20.485  15.867   8.855
 6241POPC   C1A11727  20.592  15.938   8.555
 6241POPC   D2A11728  20.584  15.915   8.255
 6241POPC   C3A11729  20.562  15.981   7.955
 6241POPC   C4A11730  20.600  15.935   7.655
 6241POPC   C1B11731  20.465  15.841   8.555
 6241POPC   C2B11732  20.437  15.847   8.255
 6241POPC   C3B11733  20.391  15.817   7.955
 6241POPC   C4B11734  20.416  15.840   7.655
 6242POPC   NC311735   6.666  41.591   9.455
 6242POPC   PO411736   6.618  41.542   9.155
 6242POPC   GL111737   6.622  41.590   8.855
 6242POPC   GL211738   6.814  41.617   8.855
 6242POPC   C1A11739   6.618  41.509   8.555
 6242POPC   D2A11740   6.644  41.575   8.255
 6242POPC   C3A11741   6.628  41.572   7.955
 6242POPC   C4A11742   6.639  41.538   7.655
 6242POPC   C1B11743   6.892  41.553   8.555
 6242POPC   C2B11744   6.937  41.628   8.255
 6242POPC   C3B11745   6.881  41.546   7.955
 6242POPC   C4B11746   6.909  41.596   7.655
 6243POPC   NC311747   1.187  11.264   9.455
 6243POPC   PO411748   1.192  11.315   9.155
 6243POPC   GL111749   1.207  11.282   8.855
 6243POPC   GL211750   1.139  11.398   8.855
 6243POPC   C1A11751   1.253  11.312   8.555
 6243POPC   D2A11752   1.169  11.342   8.255
 6243POPC   C3A11753   1.191  11.318   7.955
 6243POPC   C4A11754   1.246  11.313   7.655
 6243POPC   C1B11755   1.079  11.439   8.555
 6243POPC   C2B11756   1.048  11.430   8.255
 6243POPC   C3B11757   1.068  11.524   7.955
 6243POPC   C4B11758   1.006  11.467   7.655
 6244POPC   NC311759   3.549   8.977   9.455
 6244POPC   PO411760   3.496   8.947   9.155
 6244POPC   GL111761   3.564   8.941   8.855
 6244POPC   GL211762   3.693   8.941   8.855
 6244POPC   C1A11763   3.543   8.990   8.555
 6244POPC   D2A11764   3.516   8.969   8.255
 6244POPC   C3A11765   3.539   8.998   7.955
 6244POPC   C4A11766   3.578   8.973   7.655
 6244POPC   C1B11767   3.809   8.918   8.555
 6244POPC   C2B11768   3.760   8.941   8.255
 6244POPC   C3B11769   3.816   8.875   7.955
 6244POPC   C4B11770   3.819   8.906   7.655
 6245POPC   NC311771   8.990  42.349   9.455
 6245POPC   PO411772   8.942  42.308   9.155
 6245POPC   GL111773   9.006  42.292   8.855
 6245POPC   GL211774   9.016  42.181   8.855
 6245POPC   C1A11775   8.955  42.357   8.555
 6245POPC   D2A11776   8.952  42.371   8.255
 6245POPC   C3A11777   8.985  42.384   7.955
 6245POPC   C4A11778   8.980  42.310   7.655
 6245POPC   C1B11779   9.119  42.090   8.555
 6245POPC   C2B11780   9.107  42.098   8.255
 6245POPC   C3B11781   9.126  42.085   7.955
 6245POPC   C4B11782   9.040  42.147   7.655
 6246POPC   NC311783  33.848  22.964   9.455
 6246POPC   PO411784  33.818  22.899   9.155
 6246POPC   GL111785  33.842  22.955   8.855
 6246POPC   GL211786  33.911  22.943   8.855
 6246POPC   C1A11787  33.776  22.987   8.555
 6246POPC   D2A11788  33.760  22.921   8.255
 6246POPC   C3A11789  33.779  22.971   7.955
 6246POPC   C4A11790  33.810  22.952   7.655
 6246POPC   C1B11791  34.062  22.806   8.555
 6246POPC   C2B11792  34.024  22.897   8.255
 6246POPC   C3B11793  34.083  22.853   7.955
 6246POPC   C4B11794  34.038  22.818   7.655
 6247POPC   NC311795   8.997   1.965   9.455
 6247POPC   PO411796   8.979   1.995   9.155
 6247POPC   GL111797   8.970   2.031   8.855
 6247POPC   GL211798   8.899   1.921   8.855
 6247POPC   C1A11799   8.966   2.008   8.555
 6247POPC   D2A11800   8.966   2.016   8.255
 6247POPC   C3A11801   9.005   2.004   7.955
 6247POPC   C4A11802   8.997   2.035   7.655
 6247POPC   C1B11803   8.756   1.825   8.555
 6247POPC   C2B11804   8.792   1.791   8.255
 6247POPC   C3B11805   8.835   1.830   7.955
 6247POPC   C4B11806   8.837   1.859   7.655
 6248POPC   NC311807   1.944   8.195   9.455
 6248POPC   PO411808   1.972   8.223   9.155
 6248POPC   GL111809   2.011   8.234   8.855
 6248POPC   GL211810   2.016   8.024   8.855
 6248POPC   C1A11811   1.989   8.213   8.555
 6248POPC   D2A11812   2.014   8.232   8.255
 6248POPC   C3A11813   2.007   8.240   7.955
 6248POPC   C4A11814   2.004   8.218   7.655
 6248POPC   C1B11815   2.015   7.915   8.555
 6248POPC   C2B11816   2.016   7.952   8.255
 6248POPC   C3B11817   2.041   7.979   7.955
 6248POPC   C4B11818   2.013   7.971   7.655
 6249POPC   NC311819  39.239  12.806   9.455
 6249POPC   PO411820  39.265  12.826   9.155
 6249POPC   GL111821  39.267  12.851   8.855
 6249POPC   GL211822  39.282  12.711   8.855
 6249POPC   C1A11823  39.237  12.853   8.555
 6249POPC   D2A11824  39.259  12.827   8.255
 6249POPC   C3A11825  39.249  12.820   7.955
 6249POPC   C4A11826  39.237  12.855   7.655
 6249POPC   C1B11827  39.288  12.563   8.555
 6249POPC   C2B11828  39.269  12.643   8.255
 6249POPC   C3B11829  39.287  12.587   7.955
 6249POPC   C4B11830  39.252  12.606   7.655
 6250POPC   NC311831  29.097   7.371   9.455
 6250POPC   PO411832  29.130   7.429   9.155
 6250POPC   GL111833  29.112   7.375   8.855
 6250POPC   GL211834  29.139   7.323   8.855
 6250POPC   C1A11835  29.144   7.385   8.555
 6250POPC   D2A11836  29.121   7.392   8.255
 6250POPC   C3A11837  29.131   7.402   7.955
 6250POPC   C4A11838  29.152   7.378   7.655
 6250POPC   C1B11839  29.192   7.173   8.555
 6250POPC   C2B11840  29.232   7.187   8.255
 6250POPC   C3B11841  29.244   7.135   7.955
 6250POPC   C4B11842  29.272   7.159   7.655
 6251POPC   NC311843  12.812  35.303   9.455
 6251POPC   PO411844  12.846  35.378   9.155
 6251POPC   GL111845  12.863  35.363   8.855
 6251POPC   GL211846  12.923  35.428   8.855
 6251POPC   C1A11847  12.834  35.312   8.555
 6251POPC   D2A11848  12.848  35.349   8.255
 6251POPC   C3A11849  12.837  35.394   7.955
 6251POPC   C4A11850  12.831  35.385   7.655
 6251POPC   C1B11851  12.946  35.625   8.555
 6251POPC   C2B11852  12.885  35.554   8.255
 6251POPC   C3B11853  12.945  35.623   7.955
 6251POPC   C4B11854  12.925  35.637   7.655
 6252POPC   NC311855  26.009  17.458   9.455
 6252POPC   PO411856  25.997  17.535   9.155
 6252POPC   GL111857  26.068  17.503   8.855
 6252POPC   GL211858  25.886  17.526   8.855
 6252POPC   C1A11859  26.077  17.503   8.555
 6252POPC   D2A11860  26.028  17.496   8.255
 6252POPC   C3A11861  25.993  17.530   7.955
 6252POPC   C4A11862  26.079  17.526   7.655
 6252POPC   C1B11863  25.816  17.464   8.555
 6252POPC   C2B11864  25.830  17.526   8.255
 6252POPC   C3B11865  25.831  17.478   7.955
 6252POPC   C4B11866  25.772  17.457   7.655
 6253POPC   NC311867  39.209  10.502   9.455
 6253POPC   PO411868  39.212  10.527   9.155
 6253POPC   GL111869  39.182  10.489   8.855
 6253POPC   GL211870  39.117  10.572   8.855
 6253POPC   C1A11871  39.278  10.562   8.555
 6253POPC   D2A11872  39.268  10.517   8.255
 6253POPC   C3A11873  39.232  10.492   7.955
 6253POPC   C4A11874  39.218  10.568   7.655
 6253POPC   C1B11875  39.054  10.659   8.555
 6253POPC   C2B11876  38.969  10.615   8.255
 6253POPC   C3B11877  39.043  10.680   7.955
 6253POPC   C4B11878  38.988  10.595   7.655
 6254POPC   NC311879  44.661   5.131   9.455
 6254POPC   PO411880  44.652   5.090   9.155
 6254POPC   GL111881  44.669   5.086   8.855
 6254POPC   GL211882  44.730   5.210   8.855
 6254POPC   C1A11883  44.692   5.089   8.555
 6254POPC   D2A11884  44.687   5.084   8.255
 6254POPC   C3A11885  44.638   5.087   7.955
 6254POPC   C4A11886  44.705   5.087   7.655
 6254POPC   C1B11887  44.899   5.258   8.555
 6254POPC   C2B11888  44.901   5.199   8.255
 6254POPC   C3B11889  44.906   5.265   7.955
 6254POPC   C4B11890  44.837   5.217   7.655
 6255POPC   NC311891  43.899  32.227   9.455
 6255POPC   PO411892  43.884  32.208   9.155
 6255POPC   GL111893  43.858  32.249   8.855
 6255POPC   GL211894  43.856  32.130   8.855
 6255POPC   C1A11895  43.877  32.251   8.555
 6255POPC   D2A11896  43.857  32.244   8.255
 6255POPC   C3A11897  43.926  32.245   7.955
 6255POPC   C4A11898  43.924  32.220   7.655
 6255POPC   C1B11899  43.727  32.038   8.555
 6255POPC   C2B11900  43.775  32.050   8.255
 6255POPC   C3B11901  43.683  32.079   7.955
 6255POPC   C4B11902  43.734  32.057   7.655
 6256POPC   NC311903  17.458  39.239   9.455
 6256POPC   PO411904  17.543  39.273   9.155
 6256POPC   GL111905  17.550  39.250   8.855
 6256POPC   GL211906  17.523  39.108   8.855
 6256POPC   C1A11907  17.485  39.210   8.555
 6256POPC   D2A11908  17.488  39.222   8.255
 6256POPC   C3A11909  17.544  39.221   7.955
 6256POPC   C4A11910  17.504  39.190   7.655
 6256POPC   C1B11911  17.635  39.006   8.555
 6256POPC   C2B11912  17.572  39.039   8.255
 6256POPC   C3B11913  17.595  38.953   7.955
 6256POPC   C4B11914  17.586  38.968   7.655
 6257POPC   NC311915  43.935  42.303   9.455
 6257POPC   PO411916  43.935  42.323   9.155
 6257POPC   GL111917  43.884  42.303   8.855
 6257POPC   GL211918  43.955  42.245   8.855
 6257POPC   C1A11919  43.858  42.305   8.555
 6257POPC   D2A11920  43.872  42.324   8.255
 6257POPC   C3A11921  43.839  42.370   7.955
 6257POPC   C4A11922  43.913  42.338   7.655
 6257POPC   C1B11923  43.994  42.099   8.555
 6257POPC   C2B11924  43.991  42.100   8.255
 6257POPC   C3B11925  44.047  42.159   7.955
 6257POPC   C4B11926  44.065  42.159   7.655
 6258POPC   NC311927  14.357  33.795   9.455
 6258POPC   PO411928  14.451  33.804   9.155
 6258POPC   GL111929  14.362  33.791   8.855
 6258POPC   GL211930  14.292  33.733   8.855
 6258POPC   C1A11931  14.431  33.769   8.555
 6258POPC   D2A11932  14.356  33.825   8.255
 6258POPC   C3A11933  14.417  33.844   7.955
 6258POPC   C4A11934  14.436  33.823   7.655
 6258POPC   C1B11935  14.144  33.706   8.555
 6258POPC   C2B11936  14.129  33.775   8.255
 6258POPC   C3B11937  14.139  33.769   7.955
 6258POPC   C4B11938  14.162  33.695   7.655
 6259POPC   NC311939  14.418  22.898   9.455
 6259POPC   PO411940  14.443  22.938   9.155
 6259POPC   GL111941  14.407  22.947   8.855
 6259POPC   GL211942  14.361  23.049   8.855
 6259POPC   C1A11943  14.392  22.895   8.555
 6259POPC   D2A11944  14.436  22.924   8.255
 6259POPC   C3A11945  14.451  22.913   7.955
 6259POPC   C4A11946  14.392  22.901   7.655
 6259POPC   C1B11947  14.251  23.080   8.555
 6259POPC   C2B11948  14.239  23.102   8.255
 6259POPC   C3B11949  14.218  23.175   7.955
 6259POPC   C4B11950  14.203  23.118   7.655
 6260POPC   NC311951   1.178  41.598   9.455
 6260POPC   PO411952   1.171  41.536   9.155
 6260POPC   GL111953   1.215  41.580   8.855
 6260POPC   GL211954   1.235  41.669   8.855
 6260POPC   C1A11955   1.234  41.587   8.555
 6260POPC   D2A11956   1.262  41.566   8.255
 6260POPC   C3A11957   1.208  41.555   7.955
 6260POPC   C4A11958   1.202  41.548   7.655
 6260POPC   C1B11959   1.271  41.792   8.555
 6260POPC   C2B11960   1.298  41.737   8.255
 6260POPC   C3B11961   1.348  41.813   7.955
 6260POPC   C4B11962   1.348  41.737   7.655
 6261POPC   NC311963  32.978  43.909   9.455
 6261POPC   PO411964  33.060  43.883   9.155
 6261POPC   GL111965  32.991  43.923   8.855
 6261POPC   GL211966  32.982  44.026   8.855
 6261POPC   C1A11967  33.069  43.929   8.555
 6261POPC   D2A11968  33.012  43.859   8.255
 6261POPC   C3A11969  32.984  43.913   7.955
 6261POPC   C4A11970  32.999  43.892   7.655
 6261POPC   C1B11971  32.984  44.155   8.555
 6261POPC   C2B11972  32.940  44.107   8.255
 6261POPC   C3B11973  33.004  44.156   7.955
 6261POPC   C4B11974  32.974  44.125   7.655
 6262POPC   NC311975  39.238   9.705   9.455
 6262POPC   PO411976  39.268   9.702   9.155
 6262POPC   GL111977  39.222   9.724   8.855
 6262POPC   GL211978  39.111   9.666   8.855
 6262POPC   C1A11979  39.198   9.715   8.555
 6262POPC   D2A11980  39.198   9.791   8.255
 6262POPC   C3A11981  39.227   9.773   7.955
 6262POPC   C4A11982  39.270   9.701   7.655
 6262POPC   C1B11983  39.135   9.563   8.555
 6262POPC   C2B11984  39.138   9.498   8.255
 6262POPC   C3B11985  39.062   9.536   7.955
 6262POPC   C4B11986  39.048   9.525   7.655
 6263POPC   NC311987  16.769  33.058   9.455
 6263POPC   PO411988  16.750  32.992   9.155
 6263POPC   GL111989  16.772  33.053   8.855
 6263POPC   GL211990  16.670  32.915   8.855
 6263POPC   C1A11991  16.687  32.990   8.555
 6263POPC   D2A11992  16.688  33.066   8.255
 6263POPC   C3A11993  16.749  33.042   7.955
 6263POPC   C4A11994  16.704  33.054   7.655
 6263POPC   C1B11995  16.692  32.824   8.555
 6263POPC   C2B11996  16.617  32.799   8.255
 6263POPC   C3B11997  16.680  32.790   7.955
 6263POPC   C4B11998  16.607  32.809   7.655
 6264POPC   NC311999  10.482  12.809   9.455
 6264POPC   PO412000  10.550  12.817   9.155
 6264POPC   GL112001  10.478  12.828   8.855
 6264POPC   GL212002  10.535  12.705   8.855
 6264POPC   C1A12003  10.546  12.861   8.555
 6264POPC   D2A12004  10.492  12.860   8.255
 6264POPC   C3A12005  10.509  12.832   7.955
 6264POPC   C4A12006  10.521  12.824   7.655
 6264POPC   C1B12007  10.571  12.611   8.555
 6264POPC   C2B12008  10.539  12.623   8.255
 6264POPC   C3B12009  10.575  12.600   7.955
 6264POPC   C4B12010  10.556  12.620   7.655
 6265POPC   NC312011   7.414  22.145   9.455
 6265POPC   PO412012   7.421  22.194   9.155
 6265POPC   GL112013   7.440  22.205   8.855
 6265POPC   GL212014   7.539  22.076   8.855
 6265POPC   C1A12015   7.389  22.189   8.555
 6265POPC   D2A12016   7.394  22.178   8.255
 6265POPC   C3A12017   7.443  22.117   7.955
 6265POPC   C4A12018   7.459  22.167   7.655
 6265POPC   C1B12019   7.580  21.982   8.555
 6265POPC   C2B12020   7.605  21.955   8.255
 6265POPC   C3B12021   7.548  21.926   7.955
 6265POPC   C4B12022   7.546  21.982   7.655
 6266POPC   NC312023  39.241   2.801   9.455
 6266POPC   PO412024  39.259   2.731   9.155
 6266POPC   GL112025  39.205   2.719   8.855
 6266POPC   GL212026  39.129   2.723   8.855
 6266POPC   C1A12027  39.226   2.755   8.555
 6266POPC   D2A12028  39.214   2.757   8.255
 6266POPC   C3A12029  39.208   2.731   7.955
 6266POPC   C4A12030  39.276   2.771   7.655
 6266POPC   C1B12031  39.047   2.624   8.555
 6266POPC   C2B12032  39.040   2.642   8.255
 6266POPC   C3B12033  38.983   2.709   7.955
 6266POPC   C4B12034  38.987   2.717   7.655
 6267POPC   NC312035  19.810   9.788   9.455
 6267POPC   PO412036  19.813   9.732   9.155
 6267POPC   GL112037  19.882   9.784   8.855
 6267POPC   GL212038  19.823   9.624   8.855
 6267POPC   C1A12039  19.799   9.789   8.555
 6267POPC   D2A12040  19.824   9.752   8.255
 6267POPC   C3A12041  19.810   9.745   7.955
 6267POPC   C4A12042  19.817   9.740   7.655
 6267POPC   C1B12043  19.757   9.506   8.555
 6267POPC   C2B12044  19.778   9.498   8.255
 6267POPC   C3B12045  19.798   9.471   7.955
 6267POPC   C4B12046  19.815   9.534   7.655
 6268POPC   NC312047  12.812  41.563   9.455
 6268POPC   PO412048  12.810  41.510   9.155
 6268POPC   GL112049  12.838  41.583   8.855
 6268POPC   GL212050  12.853  41.443   8.855
 6268POPC   C1A12051  12.811  41.510   8.555
 6268POPC   D2A12052  12.892  41.561   8.255
 6268POPC   C3A12053  12.886  41.579   7.955
 6268POPC   C4A12054  12.837  41.564   7.655
 6268POPC   C1B12055  12.814  41.277   8.555
 6268POPC   C2B12056  12.806  41.307   8.255
 6268POPC   C3B12057  12.781  41.335   7.955
 6268POPC   C4B12058  12.814  41.359   7.655
 6269POPC   NC312059  42.362   1.967   9.455
 6269POPC   PO412060  42.358   1.956   9.155
 6269POPC   GL112061  42.363   1.960   8.855
 6269POPC   GL212062  42.270   1.884   8.855
 6269POPC   C1A12063  42.304   1.992   8.555
 6269POPC   D2A12064  42.355   2.006   8.255
 6269POPC   C3A12065  42.294   1.944   7.955
 6269POPC   C4A12066  42.287   1.942   7.655
 6269POPC   C1B12067  42.301   1.724   8.555
 6269POPC   C2B12068  42.294   1.752   8.255
 6269POPC   C3B12069  42.319   1.776   7.955
 6269POPC   C4B12070  42.294   1.760   7.655
 6270POPC   NC312071  17.467   1.172   9.455
 6270POPC   PO412072  17.512   1.188   9.155
 6270POPC   GL112073  17.466   1.202   8.855
 6270POPC   GL212074  17.583   1.118   8.855
 6270POPC   C1A12075  17.556   1.260   8.555
 6270POPC   D2A12076  17.473   1.166   8.255
 6270POPC   C3A12077  17.546   1.249   7.955
 6270POPC   C4A12078  17.536   1.184   7.655
 6270POPC   C1B12079  17.670   1.033   8.555
 6270POPC   C2B12080  17.660   1.002   8.255
 6270POPC   C3B12081  17.738   1.030   7.955
 6270POPC   C4B12082  17.655   1.024   7.655
 6271POPC   NC312083  17.483   2.815   9.455
 6271POPC   PO412084  17.498   2.723   9.155
 6271POPC   GL112085  17.463   2.775   8.855
 6271POPC   GL212086  17.657   2.665   8.855
 6271POPC   C1A12087  17.555   2.784   8.555
 6271POPC   D2A12088  17.509   2.812   8.255
 6271POPC   C3A12089  17.472   2.719   7.955
 6271POPC   C4A12090  17.485   2.811   7.655
 6271POPC   C1B12091  17.711   2.652   8.555
 6271POPC   C2B12092  17.701   2.672   8.255
 6271POPC   C3B12093  17.756   2.609   7.955
 6271POPC   C4B12094  17.684   2.605   7.655
 6272POPC   NC312095  26.074   6.675   9.455
 6272POPC   PO412096  26.087   6.640   9.155
 6272POPC   GL112097  26.002   6.642   8.855
 6272POPC   GL212098  26.121   6.541   8.855
 6272POPC   C1A12099  26.035   6.620   8.555
 6272POPC   D2A12100  26.044   6.666   8.255
 6272POPC   C3A12101  26.039   6.679   7.955
 6272POPC   C4A12102  26.014   6.643   7.655
 6272POPC   C1B12103  26.219   6.485   8.555
 6272POPC   C2B12104  26.232   6.535   8.255
 6272POPC   C3B12105  26.271   6.521   7.955
 6272POPC   C4B12106  26.239   6.545   7.655
 6273POPC   NC312107  27.560  10.526   9.455
 6273POPC   PO412108  27.628  10.561   9.155
 6273POPC   GL112109  27.581  10.482   8.855
 6273POPC   GL212110  27.431  10.561   8.855
 6273POPC   C1A12111  27.576  10.538   8.555
 6273POPC   D2A12112  27.598  10.479   8.255
 6273POPC   C3A12113  27.596  10.522   7.955
 6273POPC   C4A12114  27.601  10.536   7.655
 6273POPC   C1B12115  27.345  10.604   8.555
 6273POPC   C2B12116  27.299  10.599   8.255
 6273POPC   C3B12117  27.361  10.537   7.955
 6273POPC   C4B12118  27.318  10.560   7.655
 6274POPC   NC312119   9.779  12.808   9.455
 6274POPC   PO412120   9.784  12.893   9.155
 6274POPC   GL112121   9.723  12.813   8.855
 6274POPC   GL212122   9.738  12.985   8.855
 6274POPC   C1A12123   9.704  12.901   8.555
 6274POPC   D2A12124   9.740  12.880   8.255
 6274POPC   C3A12125   9.725  12.884   7.955
 6274POPC   C4A12126   9.715  12.826   7.655
 6274POPC   C1B12127   9.673  13.064   8.555
 6274POPC   C2B12128   9.641  13.106   8.255
 6274POPC   C3B12129   9.703  13.123   7.955
 6274POPC   C4B12130   9.665  13.042   7.655
 6275POPC   NC312131  34.565  13.635   9.455
 6275POPC   PO412132  34.620  13.649   9.155
 6275POPC   GL112133  34.570  13.639   8.855
 6275POPC   GL212134  34.555  13.539   8.855
 6275POPC   C1A12135  34.625  13.635   8.555
 6275POPC   D2A12136  34.577  13.595   8.255
 6275POPC   C3A12137  34.539  13.671   7.955
 6275POPC   C4A12138  34.540  13.661   7.655
 6275POPC   C1B12139  34.411  13.392   8.555
 6275POPC   C2B12140  34.415  13.385   8.255
 6275POPC   C3B12141  34.471  13.412   7.955
 6275POPC   C4B12142  34.485  13.378   7.655
 6276POPC   NC312143   8.159  12.863   9.455
 6276POPC   PO412144   8.193  12.872   9.155
 6276POPC   GL112145   8.182  12.851   8.855
 6276POPC   GL212146   8.272  12.936   8.855
 6276POPC   C1A12147   8.172  12.891   8.555
 6276POPC   D2A12148   8.231  12.868   8.255
 6276POPC   C3A12149   8.160  12.883   7.955
 6276POPC   C4A12150   8.213  12.895   7.655
 6276POPC   C1B12151   8.376  13.069   8.555
 6276POPC   C2B12152   8.371  13.047   8.255
 6276POPC   C3B12153   8.354  13.017   7.955
 6276POPC   C4B12154   8.395  13.086   7.655
 6277POPC   NC312155  29.186  23.743   9.455
 6277POPC   PO412156  29.153  23.696   9.155
 6277POPC   GL112157  29.121  23.703   8.855
 6277POPC   GL212158  29.071  23.872   8.855
 6277POPC   C1A12159  29.144  23.763   8.555
 6277POPC   D2A12160  29.112  23.687   8.255
 6277POPC   C3A12161  29.117  23.732   7.955
 6277POPC   C4A12162  29.099  23.698   7.655
 6277POPC   C1B12163  29.053  23.980   8.555
 6277POPC   C2B12164  29.079  23.899   8.255
 6277POPC   C3B12165  28.995  23.938   7.955
 6277POPC   C4B12166  29.056  23.958   7.655
 6278POPC   NC312167  12.100  20.641   9.455
 6278POPC   PO412168  12.047  20.565   9.155
 6278POPC   GL112169  12.090  20.562   8.855
 6278POPC   GL212170  12.028  20.752   8.855
 6278POPC   C1A12171  12.116  20.633   8.555
 6278POPC   D2A12172  12.109  20.659   8.255
 6278POPC   C3A12173  12.084  20.610   7.955
 6278POPC   C4A12174  12.123  20.589   7.655
 6278POPC   C1B12175  11.983  20.820   8.555
 6278POPC   C2B12176  11.999  20.815   8.255
 6278POPC   C3B12177  12.003  20.839   7.955
 6278POPC   C4B12178  11.912  20.819   7.655
 6279POPC   NC312179  16.771  12.062   9.455
 6279POPC   PO412180  16.682  12.056   9.155
 6279POPC   GL112181  16.775  12.118   8.855
 6279POPC   GL212182  16.784  11.939   8.855
 6279POPC   C1A12183  16.692  12.093   8.555
 6279POPC   D2A12184  16.705  12.067   8.255
 6279POPC   C3A12185  16.765  12.043   7.955
 6279POPC   C4A12186  16.781  12.065   7.655
 6279POPC   C1B12187  16.800  11.790   8.555
 6279POPC   C2B12188  16.746  11.796   8.255
 6279POPC   C3B12189  16.820  11.790   7.955
 6279POPC   C4B12190  16.828  11.878   7.655
 6280POPC   NC312191  10.561  13.607   9.455
 6280POPC   PO412192  10.518  13.670   9.155
 6280POPC   GL112193  10.484  13.624   8.855
 6280POPC   GL212194  10.635  13.476   8.855
 6280POPC   C1A12195  10.533  13.627   8.555
 6280POPC   D2A12196  10.503  13.603   8.255
 6280POPC   C3A12197  10.536  13.673   7.955
 6280POPC   C4A12198  10.490  13.668   7.655
 6280POPC   C1B12199  10.675  13.405   8.555
 6280POPC   C2B12200  10.642  13.400   8.255
 6280POPC   C3B12201  10.689  13.377   7.955
 6280POPC   C4B12202  10.668  13.445   7.655
 6281POPC   NC312203  38.465  29.895   9.455
 6281POPC   PO412204  38.495  29.933   9.155
 6281POPC   GL112205  38.463  29.881   8.855
 6281POPC   GL212206  38.350  30.037   8.855
 6281POPC   C1A12207  38.437  29.920   8.555
 6281POPC   D2A12208  38.498  29.953   8.255
 6281POPC   C3A12209  38.450  29.892   7.955
 6281POPC   C4A12210  38.424  29.872   7.655
 6281POPC   C1B12211  38.234  30.100   8.555
 6281POPC   C2B12212  38.302  30.122   8.255
 6281POPC   C3B12213  38.300  30.058   7.955
 6281POPC   C4B12214  38.283  30.102   7.655
 6282POPC   NC312215  10.485  18.312   9.455
 6282POPC   PO412216  10.542  18.260   9.155
 6282POPC   GL112217  10.531  18.316   8.855
 6282POPC   GL212218  10.666  18.319   8.855
 6282POPC   C1A12219  10.516  18.252   8.555
 6282POPC   D2A12220  10.491  18.295   8.255
 6282POPC   C3A12221  10.518  18.264   7.955
 6282POPC   C4A12222  10.533  18.308   7.655
 6282POPC   C1B12223  10.728  18.272   8.555
 6282POPC   C2B12224  10.801  18.275   8.255
 6282POPC   C3B12225  10.743  18.273   7.955
 6282POPC   C4B12226  10.724  18.279   7.655
 6283POPC   NC312227  20.569  26.771   9.455
 6283POPC   PO412228  20.608  26.790   9.155
 6283POPC   GL112229  20.593  26.799   8.855
 6283POPC   GL212230  20.695  26.773   8.855
 6283POPC   C1A12231  20.608  26.836   8.555
 6283POPC   D2A12232  20.591  26.837   8.255
 6283POPC   C3A12233  20.621  26.829   7.955
 6283POPC   C4A12234  20.579  26.824   7.655
 6283POPC   C1B12235  20.876  26.811   8.555
 6283POPC   C2B12236  20.893  26.810   8.255
 6283POPC   C3B12237  20.851  26.805   7.955
 6283POPC   C4B12238  20.811  26.787   7.655
 6284POPC   NC312239  12.864  32.201   9.455
 6284POPC   PO412240  12.892  32.262   9.155
 6284POPC   GL112241  12.839  32.214   8.855
 6284POPC   GL212242  12.774  32.080   8.855
 6284POPC   C1A12243  12.828  32.231   8.555
 6284POPC   D2A12244  12.811  32.241   8.255
 6284POPC   C3A12245  12.828  32.275   7.955
 6284POPC   C4A12246  12.890  32.256   7.655
 6284POPC   C1B12247  12.781  32.019   8.555
 6284POPC   C2B12248  12.753  32.009   8.255
 6284POPC   C3B12249  12.740  32.040   7.955
 6284POPC   C4B12250  12.809  32.048   7.655
 6285POPC   NC312251   3.589  25.256   9.455
 6285POPC   PO412252   3.568  25.281   9.155
 6285POPC   GL112253   3.580  25.217   8.855
 6285POPC   GL212254   3.417  25.348   8.855
 6285POPC   C1A12255   3.533  25.299   8.555
 6285POPC   D2A12256   3.556  25.252   8.255
 6285POPC   C3A12257   3.578  25.290   7.955
 6285POPC   C4A12258   3.524  25.217   7.655
 6285POPC   C1B12259   3.350  25.436   8.555
 6285POPC   C2B12260   3.422  25.449   8.255
 6285POPC   C3B12261   3.336  25.457   7.955
 6285POPC   C4B12262   3.388  25.477   7.655
 6286POPC   NC312263  12.030   7.414   9.455
 6286POPC   PO412264  12.081   7.399   9.155
 6286POPC   GL112265  12.050   7.400   8.855
 6286POPC   GL212266  12.182   7.388   8.855
 6286POPC   C1A12267  12.092   7.429   8.555
 6286POPC   D2A12268  12.074   7.425   8.255
 6286POPC   C3A12269  12.054   7.445   7.955
 6286POPC   C4A12270  12.056   7.467   7.655
 6286POPC   C1B12271  12.329   7.335   8.555
 6286POPC   C2B12272  12.311   7.342   8.255
 6286POPC   C3B12273  12.316   7.339   7.955
 6286POPC   C4B12274  12.318   7.343   7.655
 6287POPC   NC312275   8.941  33.819   9.455
 6287POPC   PO412276   8.946  33.787   9.155
 6287POPC   GL112277   8.972  33.797   8.855
 6287POPC   GL212278   8.904  33.663   8.855
 6287POPC   C1A12279   8.973  33.785   8.555
 6287POPC   D2A12280   8.999  33.787   8.255
 6287POPC   C3A12281   8.952  33.830   7.955
 6287POPC   C4A12282   9.004  33.796   7.655
 6287POPC   C1B12283   8.924  33.558   8.555
 6287POPC   C2B12284   8.834  33.618   8.255
 6287POPC   C3B12285   8.892  33.604   7.955
 6287POPC   C4B12286   8.889  33.549   7.655
 6288POPC   NC312287  11.336  34.536   9.455
 6288POPC   PO412288  11.289  34.624   9.155
 6288POPC   GL112289  11.322  34.548   8.855
 6288POPC   GL212290  11.429  34.598   8.855
 6288POPC   C1A12291  11.262  34.566   8.555
 6288POPC   D2A12292  11.282  34.530   8.255
 6288POPC   C3A12293  11.310  34.573   7.955
 6288POPC   C4A12294  11.324  34.545   7.655
 6288POPC   C1B12295  11.513  34.733   8.555
 6288POPC   C2B12296  11.519  34.636   8.255
 6288POPC   C3B12297  11.480  34.652   7.955
 6288POPC   C4B12298  11.479  34.673   7.655
 6289POPC   NC312299  26.039   4.270   9.455
 6289POPC   PO412300  26.057   4.343   9.155
 6289POPC   GL112301  26.061   4.350   8.855
 6289POPC   GL212302  25.993   4.473   8.855
 6289POPC   C1A12303  26.085   4.301   8.555
 6289POPC   D2A12304  26.089   4.346   8.255
 6289POPC   C3A12305  26.023   4.343   7.955
 6289POPC   C4A12306  26.028   4.279   7.655
 6289POPC   C1B12307  25.962   4.520   8.555
 6289POPC   C2B12308  25.928   4.556   8.255
 6289POPC   C3B12309  25.938   4.517   7.955
 6289POPC   C4B12310  25.993   4.540   7.655
 6290POPC   NC312311  17.495  30.649   9.455
 6290POPC   PO412312  17.493  30.668   9.155
 6290POPC   GL112313  17.502  30.734   8.855
 6290POPC   GL212314  17.547  30.533   8.855
 6290POPC   C1A12315  17.485  30.743   8.555
 6290POPC   D2A12316  17.495  30.676   8.255
 6290POPC   C3A12317  17.466  30.677   7.955
 6290POPC   C4A12318  17.534  30.745   7.655
 6290POPC   C1B12319  17.459  30.495   8.555
 6290POPC   C2B12320  17.475  30.458   8.255
 6290POPC   C3B12321  17.515  30.441   7.955
 6290POPC   C4B12322  17.535  30.488   7.655
 6291POPC   NC312323  19.033  12.112   9.455
 6291POPC   PO412324  19.063  12.090   9.155
 6291POPC   GL112325  19.085  12.091   8.855
 6291POPC   GL212326  19.192  12.074   8.855
 6291POPC   C1A12327  19.075  12.110   8.555
 6291POPC   D2A12328  19.063  12.060   8.255
 6291POPC   C3A12329  19.084  12.046   7.955
 6291POPC   C4A12330  19.034  12.103   7.655
 6291POPC   C1B12331  19.280  11.978   8.555
 6291POPC   C2B12332  19.342  11.987   8.255
 6291POPC   C3B12333  19.333  12.056   7.955
 6291POPC   C4B12334  19.330  12.013   7.655
 6292POPC   NC312335  38.411  12.816   9.455
 6292POPC   PO412336  38.406  12.810   9.155
 6292POPC   GL112337  38.500  12.848   8.855
 6292POPC   GL212338  38.387  12.783   8.855
 6292POPC   C1A12339  38.446  12.870   8.555
 6292POPC   D2A12340  38.436  12.818   8.255
 6292POPC   C3A12341  38.464  12.822   7.955
 6292POPC   C4A12342  38.462  12.879   7.655
 6292POPC   C1B12343  38.262  12.793   8.555
 6292POPC   C2B12344  38.227  12.779   8.255
 6292POPC   C3B12345  38.263  12.761   7.955
 6292POPC   C4B12346  38.192  12.732   7.655
 6293POPC   NC312347  30.744   4.299   9.455
 6293POPC   PO412348  30.699   4.285   9.155
 6293POPC   GL112349  30.647   4.345   8.855
 6293POPC   GL212350  30.563   4.385   8.855
 6293POPC   C1A12351  30.688   4.282   8.555
 6293POPC   D2A12352  30.652   4.320   8.255
 6293POPC   C3A12353  30.689   4.350   7.955
 6293POPC   C4A12354  30.732   4.337   7.655
 6293POPC   C1B12355  30.442   4.358   8.555
 6293POPC   C2B12356  30.498   4.379   8.255
 6293POPC   C3B12357  30.446   4.368   7.955
 6293POPC   C4B12358  30.500   4.396   7.655
 6294POPC   NC312359  29.961  41.550   9.455
 6294POPC   PO412360  29.880  41.527   9.155
 6294POPC   GL112361  29.871  41.606   8.855
 6294POPC   GL212362  29.894  41.455   8.855
 6294POPC   C1A12363  29.920  41.562   8.555
 6294POPC   D2A12364  29.882  41.604   8.255
 6294POPC   C3A12365  29.875  41.545   7.955
 6294POPC   C4A12366  29.888  41.551   7.655
 6294POPC   C1B12367  29.870  41.351   8.555
 6294POPC   C2B12368  29.802  41.321   8.255
 6294POPC   C3B12369  29.791  41.354   7.955
 6294POPC   C4B12370  29.789  41.365   7.655
 6295POPC   NC312371  14.450  15.163   9.455
 6295POPC   PO412372  14.386  15.228   9.155
 6295POPC   GL112373  14.440  15.192   8.855
 6295POPC   GL212374  14.419  15.051   8.855
 6295POPC   C1A12375  14.405  15.163   8.555
 6295POPC   D2A12376  14.387  15.213   8.255
 6295POPC   C3A12377  14.442  15.218   7.955
 6295POPC   C4A12378  14.368  15.186   7.655
 6295POPC   C1B12379  14.438  14.954   8.555
 6295POPC   C2B12380  14.402  14.927   8.255
 6295POPC   C3B12381  14.445  14.880   7.955
 6295POPC   C4B12382  14.429  14.911   7.655
 6296POPC   NC312383  33.829  43.841   9.455
 6296POPC   PO412384  33.794  43.918   9.155
 6296POPC   GL112385  33.807  43.925   8.855
 6296POPC   GL212386  33.709  43.959   8.855
 6296POPC   C1A12387  33.767  43.882   8.555
 6296POPC   D2A12388  33.825  43.922   8.255
 6296POPC   C3A12389  33.840  43.888   7.955
 6296POPC   C4A12390  33.776  43.890   7.655
 6296POPC   C1B12391  33.674  44.132   8.555
 6296POPC   C2B12392  33.646  44.056   8.255
 6296POPC   C3B12393  33.684  44.064   7.955
 6296POPC   C4B12394  33.687  44.065   7.655
 6297POPC   NC312395   1.213   0.389   9.455
 6297POPC   PO412396   1.197   0.434   9.155
 6297POPC   GL112397   1.177   0.401   8.855
 6297POPC   GL212398   1.156   0.553   8.855
 6297POPC   C1A12399   1.206   0.464   8.555
 6297POPC   D2A12400   1.211   0.408   8.255
 6297POPC   C3A12401   1.254   0.485   7.955
 6297POPC   C4A12402   1.256   0.423   7.655
 6297POPC   C1B12403   1.080   0.670   8.555
 6297POPC   C2B12404   1.017   0.669   8.255
 6297POPC   C3B12405   1.090   0.613   7.955
 6297POPC   C4B12406   1.008   0.677   7.655
 6298POPC   NC312407  10.502  20.612   9.455
 6298POPC   PO412408  10.483  20.627   9.155
 6298POPC   GL112409  10.541  20.572   8.855
 6298POPC   GL212410  10.442  20.499   8.855
 6298POPC   C1A12411  10.560  20.584   8.555
 6298POPC   D2A12412  10.547  20.633   8.255
 6298POPC   C3A12413  10.540  20.660   7.955
 6298POPC   C4A12414  10.509  20.639   7.655
 6298POPC   C1B12415  10.380  20.397   8.555
 6298POPC   C2B12416  10.367  20.433   8.255
 6298POPC   C3B12417  10.329  20.397   7.955
 6298POPC   C4B12418  10.346  20.474   7.655
 6299POPC   NC312419   1.956   1.200   9.455
 6299POPC   PO412420   2.014   1.244   9.155
 6299POPC   GL112421   2.033   1.177   8.855
 6299POPC   GL212422   2.015   1.092   8.855
 6299POPC   C1A12423   1.988   1.200   8.555
 6299POPC   D2A12424   1.946   1.215   8.255
 6299POPC   C3A12425   1.944   1.192   7.955
 6299POPC   C4A12426   2.019   1.198   7.655
 6299POPC   C1B12427   2.054   0.927   8.555
 6299POPC   C2B12428   2.089   0.945   8.255
 6299POPC   C3B12429   2.072   1.007   7.955
 6299POPC   C4B12430   2.080   1.017   7.655
 6300POPC   NC312431  36.166  36.913   9.455
 6300POPC   PO412432  36.082  36.933   9.155
 6300POPC   GL112433  36.108  36.901   8.855
 6300POPC   GL212434  36.272  36.953   8.855
 6300POPC   C1A12435  36.084  36.930   8.555
 6300POPC   D2A12436  36.088  36.886   8.255
 6300POPC   C3A12437  36.092  36.936   7.955
 6300POPC   C4A12438  36.116  36.859   7.655
 6300POPC   C1B12439  36.393  37.077   8.555
 6300POPC   C2B12440  36.301  36.993   8.255
 6300POPC   C3B12441  36.341  37.002   7.955
 6300POPC   C4B12442  36.348  37.015   7.655
 6301POPC   NC312443   2.726  21.341   9.455
 6301POPC   PO412444   2.773  21.411   9.155
 6301POPC   GL112445   2.733  21.419   8.855
 6301POPC   GL212446   2.768  21.259   8.855
 6301POPC   C1A12447   2.742  21.344   8.555
 6301POPC   D2A12448   2.763  21.390   8.255
 6301POPC   C3A12449   2.791  21.394   7.955
 6301POPC   C4A12450   2.732  21.348   7.655
 6301POPC   C1B12451   2.671  21.115   8.555
 6301POPC   C2B12452   2.710  21.159   8.255
 6301POPC   C3B12453   2.657  21.169   7.955
 6301POPC   C4B12454   2.684  21.145   7.655
 6302POPC   NC312455   8.170  19.026   9.455
 6302POPC   PO412456   8.236  19.091   9.155
 6302POPC   GL112457   8.183  19.087   8.855
 6302POPC   GL212458   8.205  19.151   8.855
 6302POPC   C1A12459   8.167  19.039   8.555
 6302POPC   D2A12460   8.216  19.012   8.255
 6302POPC   C3A12461   8.226  19.107   7.955
 6302POPC   C4A12462   8.173  19.019   7.655
 6302POPC   C1B12463   8.294  19.295   8.555
 6302POPC   C2B12464   8.268  19.335   8.255
 6302POPC   C3B12465   8.244  19.331   7.955
 6302POPC   C4B12466   8.245  19.277   7.655
 6303POPC   NC312467  26.780  26.819   9.455
 6303POPC   PO412468  26.841  26.807   9.155
 6303POPC   GL112469  26.777  26.837   8.855
 6303POPC   GL212470  26.754  26.714   8.855
 6303POPC   C1A12471  26.815  26.864   8.555
 6303POPC   D2A12472  26.865  26.866   8.255
 6303POPC   C3A12473  26.834  26.852   7.955
 6303POPC   C4A12474  26.794  26.807   7.655
 6303POPC   C1B12475  26.675  26.607   8.555
 6303POPC   C2B12476  26.692  26.650   8.255
 6303POPC   C3B12477  26.638  26.583   7.955
 6303POPC   C4B12478  26.671  26.618   7.655
 6304POPC   NC312479  11.298   1.245   9.455
 6304POPC   PO412480  11.266   1.208   9.155
 6304POPC   GL112481  11.304   1.172   8.855
 6304POPC   GL212482  11.391   1.261   8.855
 6304POPC   C1A12483  11.318   1.238   8.555
 6304POPC   D2A12484  11.349   1.167   8.255
 6304POPC   C3A12485  11.294   1.232   7.955
 6304POPC   C4A12486  11.317   1.252   7.655
 6304POPC   C1B12487  11.537   1.270   8.555
 6304POPC   C2B12488  11.527   1.241   8.255
 6304POPC   C3B12489  11.587   1.256   7.955
 6304POPC   C4B12490  11.567   1.230   7.655
 6305POPC   NC312491   1.254  39.188   9.455
 6305POPC   PO412492   1.180  39.200   9.155
 6305POPC   GL112493   1.248  39.238   8.855
 6305POPC   GL212494   1.170  39.321   8.855
 6305POPC   C1A12495   1.215  39.235   8.555
 6305POPC   D2A12496   1.204  39.238   8.255
 6305POPC   C3A12497   1.186  39.270   7.955
 6305POPC   C4A12498   1.195  39.243   7.655
 6305POPC   C1B12499   1.121  39.484   8.555
 6305POPC   C2B12500   1.190  39.438   8.255
 6305POPC   C3B12501   1.160  39.484   7.955
 6305POPC   C4B12502   1.192  39.522   7.655
 6306POPC   NC312503  19.042   3.536   9.455
 6306POPC   PO412504  19.044   3.496   9.155
 6306POPC   GL112505  19.062   3.536   8.855
 6306POPC   GL212506  18.970   3.485   8.855
 6306POPC   C1A12507  19.093   3.557   8.555
 6306POPC   D2A12508  19.038   3.579   8.255
 6306POPC   C3A12509  19.054   3.531   7.955
 6306POPC   C4A12510  19.014   3.534   7.655
 6306POPC   C1B12511  18.825   3.363   8.555
 6306POPC   C2B12512  18.865   3.442   8.255
 6306POPC   C3B12513  18.827   3.385   7.955
 6306POPC   C4B12514  18.858   3.383   7.655
 6307POPC   NC312515  10.519  25.270   9.455
 6307POPC   PO412516  10.530  25.302   9.155
 6307POPC   GL112517  10.511  25.294   8.855
 6307POPC   GL212518  10.653  25.250   8.855
 6307POPC   C1A12519  10.541  25.287   8.555
 6307POPC   D2A12520  10.566  25.244   8.255
 6307POPC   C3A12521  10.530  25.259   7.955
 6307POPC   C4A12522  10.525  25.268   7.655
 6307POPC   C1B12523  10.729  25.226   8.555
 6307POPC   C2B12524  10.790  25.260   8.255
 6307POPC   C3B12525  10.726  25.276   7.955
 6307POPC   C4B12526  10.734  25.225   7.655
 6308POPC   NC312527   5.822  26.038   9.455
 6308POPC   PO412528   5.892  26.055   9.155
 6308POPC   GL112529   5.918  26.066   8.855
 6308POPC   GL212530   5.947  26.191   8.855
 6308POPC   C1A12531   5.829  26.043   8.555
 6308POPC   D2A12532   5.840  26.006   8.255
 6308POPC   C3A12533   5.856  26.050   7.955
 6308POPC   C4A12534   5.860  26.064   7.655
 6308POPC   C1B12535   5.998  26.202   8.555
 6308POPC   C2B12536   5.972  26.232   8.255
 6308POPC   C3B12537   6.055  26.286   7.955
 6308POPC   C4B12538   6.019  26.264   7.655
 6309POPC   NC312539  29.103  17.482   9.455
 6309POPC   PO412540  29.135  17.523   9.155
 6309POPC   GL112541  29.104  17.491   8.855
 6309POPC   GL212542  29.234  17.511   8.855
 6309POPC   C1A12543  29.187  17.535   8.555
 6309POPC   D2A12544  29.167  17.528   8.255
 6309POPC   C3A12545  29.147  17.518   7.955
 6309POPC   C4A12546  29.165  17.516   7.655
 6309POPC   C1B12547  29.405  17.534   8.555
 6309POPC   C2B12548  29.377  17.604   8.255
 6309POPC   C3B12549  29.382  17.597   7.955
 6309POPC   C4B12550  29.370  17.586   7.655
 6310POPC   NC312551  40.023   8.243   9.455
 6310POPC   PO412552  40.055   8.226   9.155
 6310POPC   GL112553  40.019   8.170   8.855
 6310POPC   GL212554  39.937   8.221   8.855
 6310POPC   C1A12555  40.050   8.226   8.555
 6310POPC   D2A12556  39.979   8.200   8.255
 6310POPC   C3A12557  40.028   8.232   7.955
 6310POPC   C4A12558  40.047   8.214   7.655
 6310POPC   C1B12559  39.812   8.307   8.555
 6310POPC   C2B12560  39.777   8.343   8.255
 6310POPC   C3B12561  39.822   8.321   7.955
 6310POPC   C4B12562  39.845   8.323   7.655
 6311POPC   NC312563  10.491   9.754   9.455
 6311POPC   PO412564  10.499   9.749   9.155
 6311POPC   GL112565  10.531   9.784   8.855
 6311POPC   GL212566  10.509   9.894   8.855
 6311POPC   C1A12567  10.476   9.779   8.555
 6311POPC   D2A12568  10.540   9.770   8.255
 6311POPC   C3A12569  10.496   9.723   7.955
 6311POPC   C4A12570  10.490   9.710   7.655
 6311POPC   C1B12571  10.516  10.021   8.555
 6311POPC   C2B12572  10.473   9.954   8.255
 6311POPC   C3B12573  10.489  10.043   7.955
 6311POPC   C4B12574  10.505   9.969   7.655
 6312POPC   NC312575  38.467  44.676   9.455
 6312POPC   PO412576  38.408  44.688   9.155
 6312POPC   GL112577  38.466  44.701   8.855
 6312POPC   GL212578  38.331  44.688   8.855
 6312POPC   C1A12579  38.455  44.643   8.555
 6312POPC   D2A12580  38.431  44.652   8.255
 6312POPC   C3A12581  38.475  44.629   7.955
 6312POPC   C4A12582  38.460  44.706   7.655
 6312POPC   C1B12583  38.279  44.840   8.555
 6312POPC   C2B12584  38.217  44.776   8.255
 6312POPC   C3B12585  38.248  44.858   7.955
 6312POPC   C4B12586  38.228  44.800   7.655
 6313POPC   NC312587  36.174  30.668   9.455
 6313POPC   PO412588  36.137  30.663   9.155
 6313POPC   GL112589  36.129  30.657   8.855
 6313POPC   GL212590  36.186  30.622   8.855
 6313POPC   C1A12591  36.129  30.710   8.555
 6313POPC   D2A12592  36.116  30.684   8.255
 6313POPC   C3A12593  36.155  30.733   7.955
 6313POPC   C4A12594  36.145  30.682   7.655
 6313POPC   C1B12595  36.383  30.565   8.555
 6313POPC   C2B12596  36.329  30.542   8.255
 6313POPC   C3B12597  36.380  30.610   7.955
 6313POPC   C4B12598  36.337  30.523   7.655
 6314POPC   NC312599  33.048  31.451   9.455
 6314POPC   PO412600  33.062  31.486   9.155
 6314POPC   GL112601  33.061  31.425   8.855
 6314POPC   GL212602  32.903  31.407   8.855
 6314POPC   C1A12603  33.005  31.451   8.555
 6314POPC   D2A12604  33.025  31.495   8.255
 6314POPC   C3A12605  33.021  31.464   7.955
 6314POPC   C4A12606  33.064  31.494   7.655
 6314POPC   C1B12607  32.858  31.365   8.555
 6314POPC   C2B12608  32.848  31.373   8.255
 6314POPC   C3B12609  32.770  31.326   7.955
 6314POPC   C4B12610  32.790  31.343   7.655
 6315POPC   NC312611  19.836  11.271   9.455
 6315POPC   PO412612  19.842  11.290   9.155
 6315POPC   GL112613  19.805  11.273   8.855
 6315POPC   GL212614  19.851  11.377   8.855
 6315POPC   C1A12615  19.785  11.317   8.555
 6315POPC   D2A12616  19.873  11.320   8.255
 6315POPC   C3A12617  19.791  11.321   7.955
 6315POPC   C4A12618  19.805  11.273   7.655
 6315POPC   C1B12619  19.819  11.561   8.555
 6315POPC   C2B12620  19.826  11.514   8.255
 6315POPC   C3B12621  19.816  11.556   7.955
 6315POPC   C4B12622  19.794  11.517   7.655
 6316POPC   NC312623  22.184  15.977   9.455
 6316POPC   PO412624  22.208  15.991   9.155
 6316POPC   GL112625  22.200  15.980   8.855
 6316POPC   GL212626  22.269  16.006   8.855
 6316POPC   C1A12627  22.185  15.951   8.555
 6316POPC   D2A12628  22.181  15.912   8.255
 6316POPC   C3A12629  22.152  15.917   7.955
 6316POPC   C4A12630  22.125  15.926   7.655
 6316POPC   C1B12631  22.310  16.163   8.555
 6316POPC   C2B12632  22.348  16.184   8.255
 6316POPC   C3B12633  22.338  16.145   7.955
 6316POPC   C4B12634  22.305  16.168   7.655
 6317POPC   NC312635  12.828  20.624   9.455
 6317POPC   PO412636  12.837  20.599   9.155
 6317POPC   GL112637  12.864  20.576   8.855
 6317POPC   GL212638  12.945  20.594   8.855
 6317POPC   C1A12639  12.849  20.645   8.555
 6317POPC   D2A12640  12.846  20.632   8.255
 6317POPC   C3A12641  12.824  20.587   7.955
 6317POPC   C4A12642  12.819  20.609   7.655
 6317POPC   C1B12643  13.100  20.557   8.555
 6317POPC   C2B12644  13.075  20.600   8.255
 6317POPC   C3B12645  13.087  20.545   7.955
 6317POPC   C4B12646  13.141  20.558   7.655
 6318POPC   NC312647  15.917   0.440   9.455
 6318POPC   PO412648  15.906   0.472   9.155
 6318POPC   GL112649  15.974   0.450   8.855
 6318POPC   GL212650  15.946   0.577   8.855
 6318POPC   C1A12651  15.924   0.403   8.555
 6318POPC   D2A12652  15.906   0.417   8.255
 6318POPC   C3A12653  15.947   0.423   7.955
 6318POPC   C4A12654  15.939   0.404   7.655
 6318POPC   C1B12655  15.854   0.680   8.555
 6318POPC   C2B12656  15.835   0.710   8.255
 6318POPC   C3B12657  15.903   0.678   7.955
 6318POPC   C4B12658  15.877   0.713   7.655
 6319POPC   NC312659  12.077  26.041   9.455
 6319POPC   PO412660  12.068  26.080   9.155
 6319POPC   GL112661  12.071  26.026   8.855
 6319POPC   GL212662  11.957  26.067   8.855
 6319POPC   C1A12663  12.114  26.043   8.555
 6319POPC   D2A12664  12.033  25.994   8.255
 6319POPC   C3A12665  12.117  26.022   7.955
 6319POPC   C4A12666  12.100  26.069   7.655
 6319POPC   C1B12667  11.857  26.179   8.555
 6319POPC   C2B12668  11.835  26.181   8.255
 6319POPC   C3B12669  11.915  26.133   7.955
 6319POPC   C4B12670  11.896  26.142   7.655
 6320POPC   NC312671  35.376  18.294   9.455
 6320POPC   PO412672  35.351  18.324   9.155
 6320POPC   GL112673  35.371  18.275   8.855
 6320POPC   GL212674  35.450  18.331   8.855
 6320POPC   C1A12675  35.356  18.309   8.555
 6320POPC   D2A12676  35.325  18.319   8.255
 6320POPC   C3A12677  35.400  18.251   7.955
 6320POPC   C4A12678  35.334  18.331   7.655
 6320POPC   C1B12679  35.605  18.357   8.555
 6320POPC   C2B12680  35.576  18.344   8.255
 6320POPC   C3B12681  35.614  18.345   7.955
 6320POPC   C4B12682  35.595  18.371   7.655
 6321POPC   NC312683  26.855  22.205   9.455
 6321POPC   PO412684  26.770  22.167   9.155
 6321POPC   GL112685  26.852  22.133   8.855
 6321POPC   GL212686  26.977  22.159   8.855
 6321POPC   C1A12687  26.846  22.155   8.555
 6321POPC   D2A12688  26.806  22.174   8.255
 6321POPC   C3A12689  26.860  22.144   7.955
 6321POPC   C4A12690  26.802  22.124   7.655
 6321POPC   C1B12691  27.092  22.196   8.555
 6321POPC   C2B12692  27.029  22.225   8.255
 6321POPC   C3B12693  27.044  22.208   7.955
 6321POPC   C4B12694  27.071  22.175   7.655
 6322POPC   NC312695  15.190  19.883   9.455
 6322POPC   PO412696  15.205  19.871   9.155
 6322POPC   GL112697  15.161  19.845   8.855
 6322POPC   GL212698  15.220  19.687   8.855
 6322POPC   C1A12699  15.214  19.806   8.555
 6322POPC   D2A12700  15.191  19.791   8.255
 6322POPC   C3A12701  15.144  19.852   7.955
 6322POPC   C4A12702  15.197  19.877   7.655
 6322POPC   C1B12703  15.151  19.632   8.555
 6322POPC   C2B12704  15.162  19.608   8.255
 6322POPC   C3B12705  15.200  19.588   7.955
 6322POPC   C4B12706  15.171  19.540   7.655
 6323POPC   NC312707   8.155  40.031   9.455
 6323POPC   PO412708   8.159  39.967   9.155
 6323POPC   GL112709   8.211  39.958   8.855
 6323POPC   GL212710   8.116  39.919   8.855
 6323POPC   C1A12711   8.163  40.002   8.555
 6323POPC   D2A12712   8.195  39.996   8.255
 6323POPC   C3A12713   8.162  40.001   7.955
 6323POPC   C4A12714   8.246  40.010   7.655
 6323POPC   C1B12715   7.984  39.954   8.555
 6323POPC   C2B12716   7.918  39.876   8.255
 6323POPC   C3B12717   7.978  39.866   7.955
 6323POPC   C4B12718   7.959  39.929   7.655
 6324POPC   NC312719   6.613   1.203   9.455
 6324POPC   PO412720   6.684   1.230   9.155
 6324POPC   GL112721   6.684   1.212   8.855
 6324POPC   GL212722   6.631   1.075   8.855
 6324POPC   C1A12723   6.617   1.168   8.555
 6324POPC   D2A12724   6.614   1.174   8.255
 6324POPC   C3A12725   6.681   1.178   7.955
 6324POPC   C4A12726   6.687   1.201   7.655
 6324POPC   C1B12727   6.648   0.995   8.555
 6324POPC   C2B12728   6.566   0.969   8.255
 6324POPC   C3B12729   6.603   0.989   7.955
 6324POPC   C4B12730   6.617   1.009   7.655
 6325POPC   NC312731  28.400  35.370   9.455
 6325POPC   PO412732  28.365  35.348   9.155
 6325POPC   GL112733  28.413  35.389   8.855
 6325POPC   GL212734  28.334  35.212   8.855
 6325POPC   C1A12735  28.326  35.314   8.555
 6325POPC   D2A12736  28.385  35.352   8.255
 6325POPC   C3A12737  28.368  35.395   7.955
 6325POPC   C4A12738  28.393  35.340   7.655
 6325POPC   C1B12739  28.245  35.139   8.555
 6325POPC   C2B12740  28.301  35.093   8.255
 6325POPC   C3B12741  28.314  35.096   7.955
 6325POPC   C4B12742  28.289  35.093   7.655
 6326POPC   NC312743  21.406  12.044   9.455
 6326POPC   PO412744  21.389  12.083   9.155
 6326POPC   GL112745  21.369  12.089   8.855
 6326POPC   GL212746  21.533  12.012   8.855
 6326POPC   C1A12747  21.400  12.056   8.555
 6326POPC   D2A12748  21.353  12.056   8.255
 6326POPC   C3A12749  21.428  12.060   7.955
 6326POPC   C4A12750  21.411  12.108   7.655
 6326POPC   C1B12751  21.582  11.967   8.555
 6326POPC   C2B12752  21.611  12.049   8.255
 6326POPC   C3B12753  21.653  11.984   7.955
 6326POPC   C4B12754  21.588  12.019   7.655
 6327POPC   NC312755   1.203  14.367   9.455
 6327POPC   PO412756   1.182  14.435   9.155
 6327POPC   GL112757   1.185  14.452   8.855
 6327POPC   GL212758   1.296  14.536   8.855
 6327POPC   C1A12759   1.253  14.395   8.555
 6327POPC   D2A12760   1.166  14.447   8.255
 6327POPC   C3A12761   1.240  14.420   7.955
 6327POPC   C4A12762   1.196  14.360   7.655
 6327POPC   C1B12763   1.318  14.585   8.555
 6327POPC   C2B12764   1.351  14.650   8.255
 6327POPC   C3B12765   1.365  14.665   7.955
 6327POPC   C4B12766   1.297  14.634   7.655
 6328POPC   NC312767  12.813  24.519   9.455
 6328POPC   PO412768  12.850  24.454   9.155
 6328POPC   GL112769  12.843  24.539   8.855
 6328POPC   GL212770  12.766  24.373   8.855
 6328POPC   C1A12771  12.810  24.478   8.555
 6328POPC   D2A12772  12.867  24.501   8.255
 6328POPC   C3A12773  12.827  24.524   7.955
 6328POPC   C4A12774  12.861  24.507   7.655
 6328POPC   C1B12775  12.766  24.299   8.555
 6328POPC   C2B12776  12.779  24.257   8.255
 6328POPC   C3B12777  12.740  24.249   7.955
 6328POPC   C4B12778  12.809  24.302   7.655
 6329POPC   NC312779  22.179   5.877   9.455
 6329POPC   PO412780  22.145   5.913   9.155
 6329POPC   GL112781  22.170   5.840   8.855
 6329POPC   GL212782  22.260   5.819   8.855
 6329POPC   C1A12783  22.173   5.870   8.555
 6329POPC   D2A12784  22.119   5.849   8.255
 6329POPC   C3A12785  22.210   5.821   7.955
 6329POPC   C4A12786  22.122   5.881   7.655
 6329POPC   C1B12787  22.332   5.718   8.555
 6329POPC   C2B12788  22.371   5.770   8.255
 6329POPC   C3B12789  22.331   5.753   7.955
 6329POPC   C4B12790  22.331   5.710   7.655
 6330POPC   NC312791  29.122  18.263   9.455
 6330POPC   PO412792  29.194  18.269   9.155
 6330POPC   GL112793  29.105  18.260   8.855
 6330POPC   GL212794  29.022  18.262   8.855
 6330POPC   C1A12795  29.182  18.327   8.555
 6330POPC   D2A12796  29.172  18.319   8.255
 6330POPC   C3A12797  29.173  18.281   7.955
 6330POPC   C4A12798  29.147  18.270   7.655
 6330POPC   C1B12799  28.870  18.333   8.555
 6330POPC   C2B12800  28.885  18.358   8.255
 6330POPC   C3B12801  28.937  18.377   7.955
 6330POPC   C4B12802  28.912  18.350   7.655
 6331POPC   NC312803  19.789  34.539   9.455
 6331POPC   PO412804  19.798  34.537   9.155
 6331POPC   GL112805  19.853  34.532   8.855
 6331POPC   GL212806  19.956  34.647   8.855
 6331POPC   C1A12807  19.858  34.545   8.555
 6331POPC   D2A12808  19.854  34.579   8.255
 6331POPC   C3A12809  19.786  34.575   7.955
 6331POPC   C4A12810  19.808  34.574   7.655
 6331POPC   C1B12811  20.073  34.713   8.555
 6331POPC   C2B12812  20.039  34.726   8.255
 6331POPC   C3B12813  20.017  34.778   7.955
 6331POPC   C4B12814  20.066  34.711   7.655
 6332POPC   NC312815  36.901  15.227   9.455
 6332POPC   PO412816  36.925  15.141   9.155
 6332POPC   GL112817  36.868  15.197   8.855
 6332POPC   GL212818  36.769  15.163   8.855
 6332POPC   C1A12819  36.897  15.138   8.555
 6332POPC   D2A12820  36.894  15.173   8.255
 6332POPC   C3A12821  36.868  15.223   7.955
 6332POPC   C4A12822  36.878  15.149   7.655
 6332POPC   C1B12823  36.677  15.141   8.555
 6332POPC   C2B12824  36.630  15.088   8.255
 6332POPC   C3B12825  36.707  15.145   7.955
 6332POPC   C4B12826  36.651  15.055   7.655
 6333POPC   NC312827   8.230   0.417   9.455
 6333POPC   PO412828   8.178   0.414   9.155
 6333POPC   GL112829   8.204   0.403   8.855
 6333POPC   GL212830   8.194   0.584   8.855
 6333POPC   C1A12831   8.167   0.410   8.555
 6333POPC   D2A12832   8.243   0.394   8.255
 6333POPC   C3A12833   8.168   0.426   7.955
 6333POPC   C4A12834   8.224   0.394   7.655
 6333POPC   C1B12835   8.271   0.717   8.555
 6333POPC   C2B12836   8.232   0.712   8.255
 6333POPC   C3B12837   8.241   0.688   7.955
 6333POPC   C4B12838   8.272   0.642   7.655
 6334POPC   NC312839  34.558  25.242   9.455
 6334POPC   PO412840  34.542  25.285   9.155
 6334POPC   GL112841  34.598  25.284   8.855
 6334POPC   GL212842  34.464  25.275   8.855
 6334POPC   C1A12843  34.575  25.294   8.555
 6334POPC   D2A12844  34.609  25.274   8.255
 6334POPC   C3A12845  34.539  25.237   7.955
 6334POPC   C4A12846  34.534  25.285   7.655
 6334POPC   C1B12847  34.345  25.219   8.555
 6334POPC   C2B12848  34.344  25.209   8.255
 6334POPC   C3B12849  34.335  25.156   7.955
 6334POPC   C4B12850  34.306  25.151   7.655
 6335POPC   NC312851  31.481  22.206   9.455
 6335POPC   PO412852  31.510  22.124   9.155
 6335POPC   GL112853  31.520  22.179   8.855
 6335POPC   GL212854  31.419  22.085   8.855
 6335POPC   C1A12855  31.440  22.153   8.555
 6335POPC   D2A12856  31.502  22.182   8.255
 6335POPC   C3A12857  31.512  22.160   7.955
 6335POPC   C4A12858  31.448  22.176   7.655
 6335POPC   C1B12859  31.384  21.918   8.555
 6335POPC   C2B12860  31.460  21.955   8.255
 6335POPC   C3B12861  31.364  21.926   7.955
 6335POPC   C4B12862  31.402  21.872   7.655
 6336POPC   NC312863  29.115  41.533   9.455
 6336POPC   PO412864  29.160  41.593   9.155
 6336POPC   GL112865  29.173  41.538   8.855
 6336POPC   GL212866  29.252  41.612   8.855
 6336POPC   C1A12867  29.189  41.526   8.555
 6336POPC   D2A12868  29.129  41.585   8.255
 6336POPC   C3A12869  29.124  41.589   7.955
 6336POPC   C4A12870  29.141  41.556   7.655
 6336POPC   C1B12871  29.392  41.682   8.555
 6336POPC   C2B12872  29.384  41.664   8.255
 6336POPC   C3B12873  29.402  41.687   7.955
 6336POPC   C4B12874  29.382  41.698   7.655
 6337POPC   NC312875  30.653  15.989   9.455
 6337POPC   PO412876  30.689  15.954   9.155
 6337POPC   GL112877  30.713  15.949   8.855
 6337POPC   GL212878  30.560  15.869   8.855
 6337POPC   C1A12879  30.649  15.950   8.555
 6337POPC   D2A12880  30.741  15.948   8.255
 6337POPC   C3A12881  30.700  15.931   7.955
 6337POPC   C4A12882  30.743  15.927   7.655
 6337POPC   C1B12883  30.460  15.764   8.555
 6337POPC   C2B12884  30.505  15.836   8.255
 6337POPC   C3B12885  30.522  15.841   7.955
 6337POPC   C4B12886  30.512  15.783   7.655
 6338POPC   NC312887  14.434  17.505   9.455
 6338POPC   PO412888  14.407  17.522   9.155
 6338POPC   GL112889  14.393  17.533   8.855
 6338POPC   GL212890  14.345  17.605   8.855
 6338POPC   C1A12891  14.408  17.526   8.555
 6338POPC   D2A12892  14.370  17.494   8.255
 6338POPC   C3A12893  14.432  17.460   7.955
 6338POPC   C4A12894  14.449  17.497   7.655
 6338POPC   C1B12895  14.299  17.732   8.555
 6338POPC   C2B12896  14.304  17.750   8.255
 6338POPC   C3B12897  14.336  17.706   7.955
 6338POPC   C4B12898  14.353  17.747   7.655
 6339POPC   NC312899  15.958  13.579   9.455
 6339POPC   PO412900  15.970  13.630   9.155
 6339POPC   GL112901  15.943  13.664   8.855
 6339POPC   GL212902  15.860  13.642   8.855
 6339POPC   C1A12903  15.951  13.642   8.555
 6339POPC   D2A12904  15.977  13.622   8.255
 6339POPC   C3A12905  15.993  13.628   7.955
 6339POPC   C4A12906  15.954  13.640   7.655
 6339POPC   C1B12907  15.696  13.720   8.555
 6339POPC   C2B12908  15.751  13.741   8.255
 6339POPC   C3B12909  15.712  13.700   7.955
 6339POPC   C4B12910  15.718  13.701   7.655
 6340POPC   NC312911  11.288  21.434   9.455
 6340POPC   PO412912  11.282  21.390   9.155
 6340POPC   GL112913  11.278  21.427   8.855
 6340POPC   GL212914  11.364  21.255   8.855
 6340POPC   C1A12915  11.285  21.384   8.555
 6340POPC   D2A12916  11.280  21.367   8.255
 6340POPC   C3A12917  11.295  21.386   7.955
 6340POPC   C4A12918  11.284  21.376   7.655
 6340POPC   C1B12919  11.407  21.142   8.555
 6340POPC   C2B12920  11.413  21.159   8.255
 6340POPC   C3B12921  11.411  21.158   7.955
 6340POPC   C4B12922  11.379  21.200   7.655
 6341POPC   NC312923   1.249  28.373   9.455
 6341POPC   PO412924   1.192  28.376   9.155
 6341POPC   GL112925   1.177  28.385   8.855
 6341POPC   GL212926   1.238  28.206   8.855
 6341POPC   C1A12927   1.253  28.337   8.555
 6341POPC   D2A12928   1.206  28.348   8.255
 6341POPC   C3A12929   1.197  28.393   7.955
 6341POPC   C4A12930   1.224  28.321   7.655
 6341POPC   C1B12931   1.294  28.115   8.555
 6341POPC   C2B12932   1.254  28.169   8.255
 6341POPC   C3B12933   1.310  28.139   7.955
 6341POPC   C4B12934   1.262  28.130   7.655
 6342POPC   NC312935  25.306  10.551   9.455
 6342POPC   PO412936  25.306  10.514   9.155
 6342POPC   GL112937  25.227  10.497   8.855
 6342POPC   GL212938  25.186  10.529   8.855
 6342POPC   C1A12939  25.263  10.504   8.555
 6342POPC   D2A12940  25.237  10.538   8.255
 6342POPC   C3A12941  25.248  10.498   7.955
 6342POPC   C4A12942  25.287  10.477   7.655
 6342POPC   C1B12943  25.026  10.509   8.555
 6342POPC   C2B12944  25.050  10.511   8.255
 6342POPC   C3B12945  24.992  10.514   7.955
 6342POPC   C4B12946  25.068  10.561   7.655
 6343POPC   NC312947  28.339  24.497   9.455
 6343POPC   PO412948  28.365  24.511   9.155
 6343POPC   GL112949  28.389  24.466   8.855
 6343POPC   GL212950  28.232  24.512   8.855
 6343POPC   C1A12951  28.386  24.539   8.555
 6343POPC   D2A12952  28.380  24.519   8.255
 6343POPC   C3A12953  28.358  24.443   7.955
 6343POPC   C4A12954  28.378  24.460   7.655
 6343POPC   C1B12955  28.173  24.549   8.555
 6343POPC   C2B12956  28.116  24.604   8.255
 6343POPC   C3B12957  28.181  24.620   7.955
 6343POPC   C4B12958  28.105  24.592   7.655
 6344POPC   NC312959  30.710  36.158   9.455
 6344POPC   PO412960  30.675  36.175   9.155
 6344POPC   GL112961  30.687  36.133   8.855
 6344POPC   GL212962  30.656  36.060   8.855
 6344POPC   C1A12963  30.684  36.082   8.555
 6344POPC   D2A12964  30.659  36.089   8.255
 6344POPC   C3A12965  30.691  36.116   7.955
 6344POPC   C4A12966  30.719  36.098   7.655
 6344POPC   C1B12967  30.621  35.911   8.555
 6344POPC   C2B12968  30.611  35.941   8.255
 6344POPC   C3B12969  30.605  35.948   7.955
 6344POPC   C4B12970  30.605  35.878   7.655
 6345POPC   NC312971   7.400  43.860   9.455
 6345POPC   PO412972   7.431  43.898   9.155
 6345POPC   GL112973   7.387  43.920   8.855
 6345POPC   GL212974   7.273  43.858   8.855
 6345POPC   C1A12975   7.427  43.894   8.555
 6345POPC   D2A12976   7.376  43.914   8.255
 6345POPC   C3A12977   7.388  43.859   7.955
 6345POPC   C4A12978   7.441  43.842   7.655
 6345POPC   C1B12979   7.227  43.786   8.555
 6345POPC   C2B12980   7.245  43.701   8.255
 6345POPC   C3B12981   7.170  43.777   7.955
 6345POPC   C4B12982   7.243  43.756   7.655
 6346POPC   NC312983   2.741  14.393   9.455
 6346POPC   PO412984   2.805  14.420   9.155
 6346POPC   GL112985   2.748  14.391   8.855
 6346POPC   GL212986   2.737  14.249   8.855
 6346POPC   C1A12987   2.784  14.390   8.555
 6346POPC   D2A12988   2.771  14.368   8.255
 6346POPC   C3A12989   2.730  14.413   7.955
 6346POPC   C4A12990   2.733  14.407   7.655
 6346POPC   C1B12991   2.766  14.117   8.555
 6346POPC   C2B12992   2.755  14.191   8.255
 6346POPC   C3B12993   2.723  14.182   7.955
 6346POPC   C4B12994   2.745  14.131   7.655
 6347POPC   NC312995  23.763  42.312   9.455
 6347POPC   PO412996  23.727  42.378   9.155
 6347POPC   GL112997  23.717  42.332   8.855
 6347POPC   GL212998  23.824  42.399   8.855
 6347POPC   C1A12999  23.747  42.300   8.555
 6347POPC   D2A13000  23.671  42.373   8.255
 6347POPC   C3A13001  23.669  42.358   7.955
 6347POPC   C4A13002  23.671  42.305   7.655
 6347POPC   C1B13003  24.007  42.400   8.555
 6347POPC   C2B13004  23.985  42.355   8.255
 6347POPC   C3B13005  24.010  42.340   7.955
 6347POPC   C4B13006  23.954  42.350   7.655
 6348POPC   NC313007  12.849  34.560   9.455
 6348POPC   PO413008  12.891  34.546   9.155
 6348POPC   GL113009  12.830  34.592   8.855
 6348POPC   GL213010  12.835  34.411   8.855
 6348POPC   C1A13011  12.810  34.566   8.555
 6348POPC   D2A13012  12.884  34.616   8.255
 6348POPC   C3A13013  12.871  34.540   7.955
 6348POPC   C4A13014  12.877  34.543   7.655
 6348POPC   C1B13015  12.821  34.354   8.555
 6348POPC   C2B13016  12.772  34.329   8.255
 6348POPC   C3B13017  12.765  34.329   7.955
 6348POPC   C4B13018  12.777  34.293   7.655
 6349POPC   NC313019  18.277  37.709   9.455
 6349POPC   PO413020  18.276  37.716   9.155
 6349POPC   GL113021  18.233  37.663   8.855
 6349POPC   GL213022  18.335  37.603   8.855
 6349POPC   C1A13023  18.261  37.678   8.555
 6349POPC   D2A13024  18.260  37.658   8.255
 6349POPC   C3A13025  18.325  37.718   7.955
 6349POPC   C4A13026  18.236  37.677   7.655
 6349POPC   C1B13027  18.488  37.528   8.555
 6349POPC   C2B13028  18.486  37.543   8.255
 6349POPC   C3B13029  18.536  37.569   7.955
 6349POPC   C4B13030  18.480  37.529   7.655
 6350POPC   NC313031  29.187  11.264   9.455
 6350POPC   PO413032  29.105  11.253   9.155
 6350POPC   GL113033  29.153  11.349   8.855
 6350POPC   GL213034  29.175  11.468   8.855
 6350POPC   C1A13035  29.122  11.330   8.555
 6350POPC   D2A13036  29.187  11.340   8.255
 6350POPC   C3A13037  29.121  11.305   7.955
 6350POPC   C4A13038  29.179  11.255   7.655
 6350POPC   C1B13039  29.145  11.531   8.555
 6350POPC   C2B13040  29.115  11.550   8.255
 6350POPC   C3B13041  29.103  11.555   7.955
 6350POPC   C4B13042  29.152  11.577   7.655
 6351POPC   NC313043   0.465  44.710   9.455
 6351POPC   PO413044   0.470  44.697   9.155
 6351POPC   GL113045   0.392  44.678   8.855
 6351POPC   GL213046   0.466  44.525   8.855
 6351POPC   C1A13047   0.389  44.651   8.555
 6351POPC   D2A13048   0.473  44.661   8.255
 6351POPC   C3A13049   0.426  44.614   7.955
 6351POPC   C4A13050   0.459  44.703   7.655
 6351POPC   C1B13051   0.577  44.500   8.555
 6351POPC   C2B13052   0.549  44.466   8.255
 6351POPC   C3B13053   0.582  44.425   7.955
 6351POPC   C4B13054   0.568  44.464   7.655
 6352POPC   NC313055  31.426  16.004   9.455
 6352POPC   PO413056  31.431  16.004   9.155
 6352POPC   GL113057  31.492  15.981   8.855
 6352POPC   GL213058  31.453  16.074   8.855
 6352POPC   C1A13059  31.486  15.968   8.555
 6352POPC   D2A13060  31.522  15.957   8.255
 6352POPC   C3A13061  31.518  15.949   7.955
 6352POPC   C4A13062  31.511  15.979   7.655
 6352POPC   C1B13063  31.347  16.152   8.555
 6352POPC   C2B13064  31.383  16.135   8.255
 6352POPC   C3B13065  31.363  16.216   7.955
 6352POPC   C4B13066  31.323  16.188   7.655
 6353POPC   NC313067  32.262  36.101   9.455
 6353POPC   PO413068  32.227  36.108   9.155
 6353POPC   GL113069  32.237  36.169   8.855
 6353POPC   GL213070  32.145  36.236   8.855
 6353POPC   C1A13071  32.267  36.112   8.555
 6353POPC   D2A13072  32.255  36.160   8.255
 6353POPC   C3A13073  32.201  36.108   7.955
 6353POPC   C4A13074  32.278  36.126   7.655
 6353POPC   C1B13075  32.035  36.306   8.555
 6353POPC   C2B13076  32.053  36.238   8.255
 6353POPC   C3B13077  32.066  36.248   7.955
 6353POPC   C4B13078  32.004  36.303   7.655
 6354POPC   NC313079  32.984  29.140   9.455
 6354POPC   PO413080  33.047  29.129   9.155
 6354POPC   GL113081  33.003  29.112   8.855
 6354POPC   GL213082  32.897  29.166   8.855
 6354POPC   C1A13083  33.034  29.149   8.555
 6354POPC   D2A13084  33.044  29.100   8.255
 6354POPC   C3A13085  33.016  29.110   7.955
 6354POPC   C4A13086  33.053  29.097   7.655
 6354POPC   C1B13087  32.779  29.190   8.555
 6354POPC   C2B13088  32.745  29.179   8.255
 6354POPC   C3B13089  32.801  29.147   7.955
 6354POPC   C4B13090  32.795  29.189   7.655
 6355POPC   NC313091  24.519  12.030   9.455
 6355POPC   PO413092  24.512  12.067   9.155
 6355POPC   GL113093  24.519  12.033   8.855
 6355POPC   GL213094  24.483  11.966   8.855
 6355POPC   C1A13095  24.481  12.050   8.555
 6355POPC   D2A13096  24.516  12.065   8.255
 6355POPC   C3A13097  24.535  12.066   7.955
 6355POPC   C4A13098  24.472  12.098   7.655
 6355POPC   C1B13099  24.428  11.824   8.555
 6355POPC   C2B13100  24.423  11.820   8.255
 6355POPC   C3B13101  24.434  11.806   7.955
 6355POPC   C4B13102  24.367  11.845   7.655
 6356POPC   NC313103  42.370   6.669   9.455
 6356POPC   PO413104  42.313   6.640   9.155
 6356POPC   GL113105  42.358   6.664   8.855
 6356POPC   GL213106  42.189   6.592   8.855
 6356POPC   C1A13107  42.295   6.658   8.555
 6356POPC   D2A13108  42.334   6.633   8.255
 6356POPC   C3A13109  42.299   6.645   7.955
 6356POPC   C4A13110  42.336   6.646   7.655
 6356POPC   C1B13111  42.092   6.608   8.555
 6356POPC   C2B13112  42.062   6.548   8.255
 6356POPC   C3B13113  42.080   6.610   7.955
 6356POPC   C4B13114  42.129   6.558   7.655
 6357POPC   NC313115  22.132  29.165   9.455
 6357POPC   PO413116  22.128  29.119   9.155
 6357POPC   GL113117  22.207  29.169   8.855
 6357POPC   GL213118  22.290  29.134   8.855
 6357POPC   C1A13119  22.206  29.116   8.555
 6357POPC   D2A13120  22.168  29.165   8.255
 6357POPC   C3A13121  22.154  29.123   7.955
 6357POPC   C4A13122  22.204  29.194   7.655
 6357POPC   C1B13123  22.358  29.038   8.555
 6357POPC   C2B13124  22.364  29.070   8.255
 6357POPC   C3B13125  22.404  29.015   7.955
 6357POPC   C4B13126  22.402  29.060   7.655
 6358POPC   NC313127   8.151  41.540   9.455
 6358POPC   PO413128   8.211  41.591   9.155
 6358POPC   GL113129   8.214  41.580   8.855
 6358POPC   GL213130   8.080  41.513   8.855
 6358POPC   C1A13131   8.230  41.538   8.555
 6358POPC   D2A13132   8.156  41.512   8.255
 6358POPC   C3A13133   8.197  41.551   7.955
 6358POPC   C4A13134   8.164  41.581   7.655
 6358POPC   C1B13135   7.933  41.569   8.555
 6358POPC   C2B13136   7.957  41.492   8.255
 6358POPC   C3B13137   7.950  41.579   7.955
 6358POPC   C4B13138   7.903  41.504   7.655
 6359POPC   NC313139  25.221   9.763   9.455
 6359POPC   PO413140  25.222   9.788   9.155
 6359POPC   GL113141  25.311   9.734   8.855
 6359POPC   GL213142  25.150   9.711   8.855
 6359POPC   C1A13143  25.248   9.741   8.555
 6359POPC   D2A13144  25.262   9.791   8.255
 6359POPC   C3A13145  25.220   9.798   7.955
 6359POPC   C4A13146  25.291   9.728   7.655
 6359POPC   C1B13147  25.032   9.692   8.555
 6359POPC   C2B13148  25.041   9.677   8.255
 6359POPC   C3B13149  25.039   9.689   7.955
 6359POPC   C4B13150  25.086   9.665   7.655
 6360POPC   NC313151  35.335   4.354   9.455
 6360POPC   PO413152  35.380   4.358   9.155
 6360POPC   GL113153  35.328   4.274   8.855
 6360POPC   GL213154  35.247   4.461   8.855
 6360POPC   C1A13155  35.348   4.361   8.555
 6360POPC   D2A13156  35.387   4.367   8.255
 6360POPC   C3A13157  35.367   4.337   7.955
 6360POPC   C4A13158  35.337   4.328   7.655
 6360POPC   C1B13159  35.166   4.493   8.555
 6360POPC   C2B13160  35.246   4.519   8.255
 6360POPC   C3B13161  35.213   4.495   7.955
 6360POPC   C4B13162  35.223   4.512   7.655
 6361POPC   NC313163  15.158  43.907   9.455
 6361POPC   PO413164  15.154  43.929   9.155
 6361POPC   GL113165  15.222  43.868   8.855
 6361POPC   GL213166  15.260  43.964   8.855
 6361POPC   C1A13167  15.145  43.920   8.555
 6361POPC   D2A13168  15.194  43.899   8.255
 6361POPC   C3A13169  15.131  43.897   7.955
 6361POPC   C4A13170  15.166  43.855   7.655
 6361POPC   C1B13171  15.385  44.092   8.555
 6361POPC   C2B13172  15.326  44.088   8.255
 6361POPC   C3B13173  15.363  44.087   7.955
 6361POPC   C4B13174  15.304  44.031   7.655
 6362POPC   NC313175   4.281  17.536   9.455
 6362POPC   PO413176   4.340  17.551   9.155
 6362POPC   GL113177   4.269  17.460   8.855
 6362POPC   GL213178   4.248  17.579   8.855
 6362POPC   C1A13179   4.334  17.495   8.555
 6362POPC   D2A13180   4.366  17.552   8.255
 6362POPC   C3A13181   4.286  17.529   7.955
 6362POPC   C4A13182   4.303  17.519   7.655
 6362POPC   C1B13183   4.167  17.729   8.555
 6362POPC   C2B13184   4.205  17.750   8.255
 6362POPC   C3B13185   4.184  17.675   7.955
 6362POPC   C4B13186   4.202  17.742   7.655
 6363POPC   NC313187  23.738  25.295   9.455
 6363POPC   PO413188  23.753  25.244   9.155
 6363POPC   GL113189  23.706  25.253   8.855
 6363POPC   GL213190  23.704  25.336   8.855
 6363POPC   C1A13191  23.695  25.229   8.555
 6363POPC   D2A13192  23.727  25.309   8.255
 6363POPC   C3A13193  23.682  25.216   7.955
 6363POPC   C4A13194  23.728  25.301   7.655
 6363POPC   C1B13195  23.627  25.495   8.555
 6363POPC   C2B13196  23.616  25.524   8.255
 6363POPC   C3B13197  23.671  25.548   7.955
 6363POPC   C4B13198  23.630  25.547   7.655
 6364POPC   NC313199  22.130  36.876   9.455
 6364POPC   PO413200  22.163  36.912   9.155
 6364POPC   GL113201  22.175  36.868   8.855
 6364POPC   GL213202  22.051  36.824   8.855
 6364POPC   C1A13203  22.131  36.945   8.555
 6364POPC   D2A13204  22.117  36.934   8.255
 6364POPC   C3A13205  22.189  36.953   7.955
 6364POPC   C4A13206  22.187  36.916   7.655
 6364POPC   C1B13207  21.986  36.738   8.555
 6364POPC   C2B13208  21.976  36.742   8.255
 6364POPC   C3B13209  21.990  36.715   7.955
 6364POPC   C4B13210  21.949  36.738   7.655
 6365POPC   NC313211   2.791  15.933   9.455
 6365POPC   PO413212   2.808  15.935   9.155
 6365POPC   GL113213   2.729  15.941   8.855
 6365POPC   GL213214   2.722  16.095   8.855
 6365POPC   C1A13215   2.777  15.995   8.555
 6365POPC   D2A13216   2.803  15.978   8.255
 6365POPC   C3A13217   2.756  16.002   7.955
 6365POPC   C4A13218   2.740  15.957   7.655
 6365POPC   C1B13219   2.700  16.207   8.555
 6365POPC   C2B13220   2.720  16.189   8.255
 6365POPC   C3B13221   2.682  16.234   7.955
 6365POPC   C4B13222   2.728  16.221   7.655
 6366POPC   NC313223   5.895  36.114   9.455
 6366POPC   PO413224   5.821  36.158   9.155
 6366POPC   GL113225   5.907  36.164   8.855
 6366POPC   GL213226   5.771  36.107   8.855
 6366POPC   C1A13227   5.869  36.171   8.555
 6366POPC   D2A13228   5.853  36.138   8.255
 6366POPC   C3A13229   5.844  36.121   7.955
 6366POPC   C4A13230   5.842  36.081   7.655
 6366POPC   C1B13231   5.593  36.115   8.555
 6366POPC   C2B13232   5.580  36.120   8.255
 6366POPC   C3B13233   5.620  36.135   7.955
 6366POPC   C4B13234   5.586  36.149   7.655
 6367POPC   NC313235  29.964  26.771   9.455
 6367POPC   PO413236  29.898  26.807   9.155
 6367POPC   GL113237  29.924  26.847   8.855
 6367POPC   GL213238  29.966  26.731   8.855
 6367POPC   C1A13239  29.888  26.828   8.555
 6367POPC   D2A13240  29.903  26.834   8.255
 6367POPC   C3A13241  29.957  26.772   7.955
 6367POPC   C4A13242  29.967  26.837   7.655
 6367POPC   C1B13243  30.131  26.671   8.555
 6367POPC   C2B13244  30.137  26.620   8.255
 6367POPC   C3B13245  30.066  26.614   7.955
 6367POPC   C4B13246  30.109  26.648   7.655
 6368POPC   NC313247  35.384  38.439   9.455
 6368POPC   PO413248  35.379  38.434   9.155
 6368POPC   GL113249  35.343  38.501   8.855
 6368POPC   GL213250  35.428  38.522   8.855
 6368POPC   C1A13251  35.328  38.482   8.555
 6368POPC   D2A13252  35.322  38.440   8.255
 6368POPC   C3A13253  35.337  38.467   7.955
 6368POPC   C4A13254  35.323  38.501   7.655
 6368POPC   C1B13255  35.460  38.666   8.555
 6368POPC   C2B13256  35.488  38.693   8.255
 6368POPC   C3B13257  35.495  38.708   7.955
 6368POPC   C4B13258  35.443  38.658   7.655
 6369POPC   NC313259  10.560  42.297   9.455
 6369POPC   PO413260  10.557  42.357   9.155
 6369POPC   GL113261  10.520  42.319   8.855
 6369POPC   GL213262  10.394  42.287   8.855
 6369POPC   C1A13263  10.550  42.381   8.555
 6369POPC   D2A13264  10.489  42.357   8.255
 6369POPC   C3A13265  10.539  42.369   7.955
 6369POPC   C4A13266  10.524  42.314   7.655
 6369POPC   C1B13267  10.298  42.313   8.555
 6369POPC   C2B13268  10.321  42.368   8.255
 6369POPC   C3B13269  10.287  42.343   7.955
 6369POPC   C4B13270  10.284  42.322   7.655
 6370POPC   NC313271  24.522  12.895   9.455
 6370POPC   PO413272  24.445  12.838   9.155
 6370POPC   GL113273  24.468  12.839   8.855
 6370POPC   GL213274  24.591  12.890   8.855
 6370POPC   C1A13275  24.501  12.882   8.555
 6370POPC   D2A13276  24.496  12.863   8.255
 6370POPC   C3A13277  24.455  12.890   7.955
 6370POPC   C4A13278  24.494  12.899   7.655
 6370POPC   C1B13279  24.736  12.935   8.555
 6370POPC   C2B13280  24.718  12.933   8.255
 6370POPC   C3B13281  24.691  12.850   7.955
 6370POPC   C4B13282  24.696  12.932   7.655
 6371POPC   NC313283  40.020   5.073   9.455
 6371POPC   PO413284  40.034   5.051   9.155
 6371POPC   GL113285  40.006   5.093   8.855
 6371POPC   GL213286  39.854   5.089   8.855
 6371POPC   C1A13287  39.993   5.112   8.555
 6371POPC   D2A13288  39.985   5.114   8.255
 6371POPC   C3A13289  40.000   5.070   7.955
 6371POPC   C4A13290  40.024   5.086   7.655
 6371POPC   C1B13291  39.750   5.197   8.555
 6371POPC   C2B13292  39.769   5.178   8.255
 6371POPC   C3B13293  39.812   5.182   7.955
 6371POPC   C4B13294  39.740   5.203   7.655
 6372POPC   NC313295  17.479  36.876   9.455
 6372POPC   PO413296  17.471  36.917   9.155
 6372POPC   GL113297  17.547  36.938   8.855
 6372POPC   GL213298  17.626  36.833   8.855
 6372POPC   C1A13299  17.500  36.860   8.555
 6372POPC   D2A13300  17.511  36.888   8.255
 6372POPC   C3A13301  17.552  36.945   7.955
 6372POPC   C4A13302  17.515  36.898   7.655
 6372POPC   C1B13303  17.721  36.733   8.555
 6372POPC   C2B13304  17.718  36.752   8.255
 6372POPC   C3B13305  17.654  36.724   7.955
 6372POPC   C4B13306  17.675  36.743   7.655
 6373POPC   NC313307  43.126  29.922   9.455
 6373POPC   PO413308  43.117  29.955   9.155
 6373POPC   GL113309  43.146  29.930   8.855
 6373POPC   GL213310  43.024  30.000   8.855
 6373POPC   C1A13311  43.141  29.903   8.555
 6373POPC   D2A13312  43.097  29.967   8.255
 6373POPC   C3A13313  43.123  29.871   7.955
 6373POPC   C4A13314  43.118  29.888   7.655
 6373POPC   C1B13315  42.980  30.051   8.555
 6373POPC   C2B13316  42.959  30.065   8.255
 6373POPC   C3B13317  42.895  30.140   7.955
 6373POPC   C4B13318  42.902  30.126   7.655
 6374POPC   NC313319  26.840  39.214   9.455
 6374POPC   PO413320  26.845  39.216   9.155
 6374POPC   GL113321  26.849  39.245   8.855
 6374POPC   GL213322  26.747  39.387   8.855
 6374POPC   C1A13323  26.845  39.274   8.555
 6374POPC   D2A13324  26.770  39.256   8.255
 6374POPC   C3A13325  26.818  39.241   7.955
 6374POPC   C4A13326  26.770  39.206   7.655
 6374POPC   C1B13327  26.741  39.482   8.555
 6374POPC   C2B13328  26.746  39.495   8.255
 6374POPC   C3B13329  26.791  39.454   7.955
 6374POPC   C4B13330  26.720  39.499   7.655
 6375POPC   NC313331  44.706   8.197   9.455
 6375POPC   PO413332  44.685   8.177   9.155
 6375POPC   GL113333  44.643   8.215   8.855
 6375POPC   GL213334  44.767   8.087   8.855
 6375POPC   C1A13335  44.705   8.209   8.555
 6375POPC   D2A13336  44.699   8.230   8.255
 6375POPC   C3A13337  44.685   8.157   7.955
 6375POPC   C4A13338  44.644   8.233   7.655
 6375POPC   C1B13339  44.844   8.002   8.555
 6375POPC   C2B13340  44.778   7.975   8.255
 6375POPC   C3B13341  44.852   8.033   7.955
 6375POPC   C4B13342  44.763   8.020   7.655
 6376POPC   NC313343  38.459  22.190   9.455
 6376POPC   PO413344  38.476  22.195   9.155
 6376POPC   GL113345  38.454  22.138   8.855
 6376POPC   GL213346  38.548  22.102   8.855
 6376POPC   C1A13347  38.470  22.130   8.555
 6376POPC   D2A13348  38.480  22.118   8.255
 6376POPC   C3A13349  38.468  22.188   7.955
 6376POPC   C4A13350  38.490  22.132   7.655
 6376POPC   C1B13351  38.733  22.142   8.555
 6376POPC   C2B13352  38.739  22.103   8.255
 6376POPC   C3B13353  38.724  22.126   7.955
 6376POPC   C4B13354  38.671  22.068   7.655
 6377POPC   NC313355  12.072  13.598   9.455
 6377POPC   PO413356  12.075  13.641   9.155
 6377POPC   GL113357  12.080  13.633   8.855
 6377POPC   GL213358  11.967  13.624   8.855
 6377POPC   C1A13359  12.101  13.595   8.555
 6377POPC   D2A13360  12.118  13.650   8.255
 6377POPC   C3A13361  12.051  13.624   7.955
 6377POPC   C4A13362  12.089  13.676   7.655
 6377POPC   C1B13363  11.862  13.595   8.555
 6377POPC   C2B13364  11.853  13.638   8.255
 6377POPC   C3B13365  11.861  13.550   7.955
 6377POPC   C4B13366  11.786  13.609   7.655
 6378POPC   NC313367   6.687  35.338   9.455
 6378POPC   PO413368   6.658  35.316   9.155
 6378POPC   GL113369   6.599  35.340   8.855
 6378POPC   GL213370   6.530  35.409   8.855
 6378POPC   C1A13371   6.642  35.315   8.555
 6378POPC   D2A13372   6.634  35.325   8.255
 6378POPC   C3A13373   6.664  35.386   7.955
 6378POPC   C4A13374   6.644  35.326   7.655
 6378POPC   C1B13375   6.351  35.361   8.555
 6378POPC   C2B13376   6.371  35.362   8.255
 6378POPC   C3B13377   6.444  35.376   7.955
 6378POPC   C4B13378   6.434  35.423   7.655
 6379POPC   NC313379  30.725  40.013   9.455
 6379POPC   PO413380  30.716  39.967   9.155
 6379POPC   GL113381  30.735  39.984   8.855
 6379POPC   GL213382  30.785  40.005   8.855
 6379POPC   C1A13383  30.692  39.975   8.555
 6379POPC   D2A13384  30.666  39.959   8.255
 6379POPC   C3A13385  30.733  39.990   7.955
 6379POPC   C4A13386  30.665  40.046   7.655
 6379POPC   C1B13387  30.982  40.065   8.555
 6379POPC   C2B13388  30.898  40.057   8.255
 6379POPC   C3B13389  30.960  40.018   7.955
 6379POPC   C4B13390  30.967  40.037   7.655
 6380POPC   NC313391  37.643  33.053   9.455
 6380POPC   PO413392  37.672  32.994   9.155
 6380POPC   GL113393  37.631  32.982   8.855
 6380POPC   GL213394  37.565  33.061   8.855
 6380POPC   C1A13395  37.726  33.030   8.555
 6380POPC   D2A13396  37.699  33.009   8.255
 6380POPC   C3A13397  37.720  32.992   7.955
 6380POPC   C4A13398  37.649  33.009   7.655
 6380POPC   C1B13399  37.479  33.198   8.555
 6380POPC   C2B13400  37.430  33.116   8.255
 6380POPC   C3B13401  37.495  33.126   7.955
 6380POPC   C4B13402  37.452  33.214   7.655
 6381POPC   NC313403  29.157  42.295   9.455
 6381POPC   PO413404  29.186  42.346   9.155
 6381POPC   GL113405  29.182  42.311   8.855
 6381POPC   GL213406  29.100  42.474   8.855
 6381POPC   C1A13407  29.137  42.295   8.555
 6381POPC   D2A13408  29.161  42.359   8.255
 6381POPC   C3A13409  29.118  42.301   7.955
 6381POPC   C4A13410  29.171  42.287   7.655
 6381POPC   C1B13411  29.158  42.611   8.555
 6381POPC   C2B13412  29.152  42.607   8.255
 6381POPC   C3B13413  29.178  42.553   7.955
 6381POPC   C4B13414  29.157  42.539   7.655
 6382POPC   NC313415  11.305  29.144   9.455
 6382POPC   PO413416  11.256  29.192   9.155
 6382POPC   GL113417  11.350  29.095   8.855
 6382POPC   GL213418  11.311  29.042   8.855
 6382POPC   C1A13419  11.343  29.137   8.555
 6382POPC   D2A13420  11.255  29.116   8.255
 6382POPC   C3A13421  11.272  29.134   7.955
 6382POPC   C4A13422  11.322  29.195   7.655
 6382POPC   C1B13423  11.283  28.948   8.555
 6382POPC   C2B13424  11.255  28.868   8.255
 6382POPC   C3B13425  11.201  28.854   7.955
 6382POPC   C4B13426  11.273  28.921   7.655
 6383POPC   NC313427  23.742  22.191   9.455
 6383POPC   PO413428  23.720  22.170   9.155
 6383POPC   GL113429  23.745  22.193   8.855
 6383POPC   GL213430  23.856  22.226   8.855
 6383POPC   C1A13431  23.694  22.183   8.555
 6383POPC   D2A13432  23.739  22.156   8.255
 6383POPC   C3A13433  23.667  22.114   7.955
 6383POPC   C4A13434  23.737  22.168   7.655
 6383POPC   C1B13435  23.933  22.268   8.555
 6383POPC   C2B13436  23.968  22.247   8.255
 6383POPC   C3B13437  23.891  22.235   7.955
 6383POPC   C4B13438  23.984  22.247   7.655
 6384POPC   NC313439   1.180  19.069   9.455
 6384POPC   PO413440   1.204  19.068   9.155
 6384POPC   GL113441   1.181  19.030   8.855
 6384POPC   GL213442   1.157  18.970   8.855
 6384POPC   C1A13443   1.246  19.100   8.555
 6384POPC   D2A13444   1.225  19.039   8.255
 6384POPC   C3A13445   1.251  19.018   7.955
 6384POPC   C4A13446   1.220  19.096   7.655
 6384POPC   C1B13447   1.159  18.771   8.555
 6384POPC   C2B13448   1.152  18.827   8.255
 6384POPC   C3B13449   1.132  18.825   7.955
 6384POPC   C4B13450   1.156  18.870   7.655
 6385POPC   NC313451  21.400   2.725   9.455
 6385POPC   PO413452  21.386   2.783   9.155
 6385POPC   GL113453  21.395   2.815   8.855
 6385POPC   GL213454  21.257   2.794   8.855
 6385POPC   C1A13455  21.353   2.717   8.555
 6385POPC   D2A13456  21.360   2.720   8.255
 6385POPC   C3A13457  21.371   2.803   7.955
 6385POPC   C4A13458  21.357   2.777   7.655
 6385POPC   C1B13459  21.148   2.815   8.555
 6385POPC   C2B13460  21.128   2.773   8.255
 6385POPC   C3B13461  21.152   2.776   7.955
 6385POPC   C4B13462  21.175   2.831   7.655
 6386POPC   NC313463  19.804  44.616   9.455
 6386POPC   PO413464  19.857  44.634   9.155
 6386POPC   GL113465  19.866  44.648   8.855
 6386POPC   GL213466  19.693  44.564   8.855
 6386POPC   C1A13467  19.829  44.651   8.555
 6386POPC   D2A13468  19.811  44.649   8.255
 6386POPC   C3A13469  19.821  44.679   7.955
 6386POPC   C4A13470  19.867  44.676   7.655
 6386POPC   C1B13471  19.603  44.573   8.555
 6386POPC   C2B13472  19.607  44.531   8.255
 6386POPC   C3B13473  19.657  44.573   7.955
 6386POPC   C4B13474  19.649  44.512   7.655
 6387POPC   NC313475  27.614  24.480   9.455
 6387POPC   PO413476  27.610  24.520   9.155
 6387POPC   GL113477  27.588  24.500   8.855
 6387POPC   GL213478  27.431  24.538   8.855
 6387POPC   C1A13479  27.606  24.540   8.555
 6387POPC   D2A13480  27.588  24.532   8.255
 6387POPC   C3A13481  27.632  24.478   7.955
 6387POPC   C4A13482  27.586  24.463   7.655
 6387POPC   C1B13483  27.376  24.542   8.555
 6387POPC   C2B13484  27.351  24.569   8.255
 6387POPC   C3B13485  27.348  24.566   7.955
 6387POPC   C4B13486  27.333  24.630   7.655
 6388POPC   NC313487  23.669   6.628   9.455
 6388POPC   PO413488  23.693   6.630   9.155
 6388POPC   GL113489  23.697   6.686   8.855
 6388POPC   GL213490  23.717   6.750   8.855
 6388POPC   C1A13491  23.677   6.675   8.555
 6388POPC   D2A13492  23.682   6.675   8.255
 6388POPC   C3A13493  23.666   6.694   7.955
 6388POPC   C4A13494  23.735   6.636   7.655
 6388POPC   C1B13495  23.741   6.920   8.555
 6388POPC   C2B13496  23.754   6.921   8.255
 6388POPC   C3B13497  23.761   6.886   7.955
 6388POPC   C4B13498  23.820   6.901   7.655
 6389POPC   NC313499   1.963  22.919   9.455
 6389POPC   PO413500   1.972  22.978   9.155
 6389POPC   GL113501   2.026  22.897   8.855
 6389POPC   GL213502   1.939  23.012   8.855
 6389POPC   C1A13503   1.957  22.975   8.555
 6389POPC   D2A13504   1.964  22.938   8.255
 6389POPC   C3A13505   2.039  22.894   7.955
 6389POPC   C4A13506   1.968  22.949   7.655
 6389POPC   C1B13507   1.914  23.208   8.555
 6389POPC   C2B13508   1.931  23.169   8.255
 6389POPC   C3B13509   1.913  23.148   7.955
 6389POPC   C4B13510   1.862  23.196   7.655
 6390POPC   NC313511   5.897  11.316   9.455
 6390POPC   PO413512   5.907  11.294   9.155
 6390POPC   GL113513   5.836  11.332   8.855
 6390POPC   GL213514   5.990  11.350   8.855
 6390POPC   C1A13515   5.846  11.266   8.555
 6390POPC   D2A13516   5.881  11.250   8.255
 6390POPC   C3A13517   5.905  11.329   7.955
 6390POPC   C4A13518   5.867  11.326   7.655
 6390POPC   C1B13519   6.071  11.344   8.555
 6390POPC   C2B13520   6.110  11.389   8.255
 6390POPC   C3B13521   6.072  11.346   7.955
 6390POPC   C4B13522   6.133  11.423   7.655
 6391POPC   NC313523   9.022  30.674   9.455
 6391POPC   PO413524   8.964  30.704   9.155
 6391POPC   GL113525   8.950  30.697   8.855
 6391POPC   GL213526   9.003  30.614   8.855
 6391POPC   C1A13527   8.929  30.735   8.555
 6391POPC   D2A13528   8.947  30.744   8.255
 6391POPC   C3A13529   9.013  30.723   7.955
 6391POPC   C4A13530   8.960  30.656   7.655
 6391POPC   C1B13531   9.068  30.458   8.555
 6391POPC   C2B13532   9.111  30.417   8.255
 6391POPC   C3B13533   9.025  30.439   7.955
 6391POPC   C4B13534   9.029  30.473   7.655
 6392POPC   NC313535  39.250   1.947   9.455
 6392POPC   PO413536  39.255   1.944   9.155
 6392POPC   GL113537  39.223   1.966   8.855
 6392POPC   GL213538  39.366   2.032   8.855
 6392POPC   C1A13539  39.277   2.010   8.555
 6392POPC   D2A13540  39.210   1.974   8.255
 6392POPC   C3A13541  39.251   1.969   7.955
 6392POPC   C4A13542  39.250   1.959   7.655
 6392POPC   C1B13543  39.512   1.994   8.555
 6392POPC   C2B13544  39.513   1.939   8.255
 6392POPC   C3B13545  39.467   1.996   7.955
 6392POPC   C4B13546  39.459   1.965   7.655
 6393POPC   NC313547   5.113  37.726   9.455
 6393POPC   PO413548   5.073  37.645   9.155
 6393POPC   GL113549   5.079  37.705   8.855
 6393POPC   GL213550   4.963  37.730   8.855
 6393POPC   C1A13551   5.108  37.694   8.555
 6393POPC   D2A13552   5.107  37.721   8.255
 6393POPC   C3A13553   5.074  37.725   7.955
 6393POPC   C4A13554   5.052  37.662   7.655
 6393POPC   C1B13555   4.803  37.781   8.555
 6393POPC   C2B13556   4.884  37.718   8.255
 6393POPC   C3B13557   4.898  37.730   7.955
 6393POPC   C4B13558   4.828  37.795   7.655
 6394POPC   NC313559   8.154  22.164   9.455
 6394POPC   PO413560   8.205  22.126   9.155
 6394POPC   GL113561   8.197  22.176   8.855
 6394POPC   GL213562   8.067  22.201   8.855
 6394POPC   C1A13563   8.245  22.140   8.555
 6394POPC   D2A13564   8.185  22.199   8.255
 6394POPC   C3A13565   8.215  22.205   7.955
 6394POPC   C4A13566   8.245  22.169   7.655
 6394POPC   C1B13567   8.014  22.343   8.555
 6394POPC   C2B13568   7.970  22.329   8.255
 6394POPC   C3B13569   8.013  22.287   7.955
 6394POPC   C4B13570   7.974  22.348   7.655
 6395POPC   NC313571  16.761  21.351   9.455
 6395POPC   PO413572  16.734  21.377   9.155
 6395POPC   GL113573  16.732  21.341   8.855
 6395POPC   GL213574  16.799  21.305   8.855
 6395POPC   C1A13575  16.716  21.411   8.555
 6395POPC   D2A13576  16.774  21.381   8.255
 6395POPC   C3A13577  16.756  21.355   7.955
 6395POPC   C4A13578  16.774  21.393   7.655
 6395POPC   C1B13579  16.822  21.139   8.555
 6395POPC   C2B13580  16.833  21.122   8.255
 6395POPC   C3B13581  16.896  21.199   7.955
 6395POPC   C4B13582  16.846  21.182   7.655
 6396POPC   NC313583  28.380  15.918   9.455
 6396POPC   PO413584  28.334  15.991   9.155
 6396POPC   GL113585  28.346  16.001   8.855
 6396POPC   GL213586  28.425  15.868   8.855
 6396POPC   C1A13587  28.404  15.928   8.555
 6396POPC   D2A13588  28.407  15.910   8.255
 6396POPC   C3A13589  28.350  15.974   7.955
 6396POPC   C4A13590  28.323  15.921   7.655
 6396POPC   C1B13591  28.394  15.684   8.555
 6396POPC   C2B13592  28.400  15.727   8.255
 6396POPC   C3B13593  28.380  15.671   7.955
 6396POPC   C4B13594  28.375  15.684   7.655
 6397POPC   NC313595  34.528  21.402   9.455
 6397POPC   PO413596  34.611  21.361   9.155
 6397POPC   GL113597  34.531  21.418   8.855
 6397POPC   GL213598  34.677  21.394   8.855
 6397POPC   C1A13599  34.598  21.400   8.555
 6397POPC   D2A13600  34.534  21.431   8.255
 6397POPC   C3A13601  34.536  21.427   7.955
 6397POPC   C4A13602  34.604  21.391   7.655
 6397POPC   C1B13603  34.808  21.287   8.555
 6397POPC   C2B13604  34.810  21.316   8.255
 6397POPC   C3B13605  34.784  21.286   7.955
 6397POPC   C4B13606  34.861  21.333   7.655
 6398POPC   NC313607  35.399   1.994   9.455
 6398POPC   PO413608  35.375   1.956   9.155
 6398POPC   GL113609  35.376   1.977   8.855
 6398POPC   GL213610  35.256   2.129   8.855
 6398POPC   C1A13611  35.333   1.976   8.555
 6398POPC   D2A13612  35.388   2.026   8.255
 6398POPC   C3A13613  35.371   1.982   7.955
 6398POPC   C4A13614  35.319   1.947   7.655
 6398POPC   C1B13615  35.158   2.137   8.555
 6398POPC   C2B13616  35.173   2.197   8.255
 6398POPC   C3B13617  35.181   2.229   7.955
 6398POPC   C4B13618  35.169   2.142   7.655
 6399POPC   NC313619  19.052  39.185   9.455
 6399POPC   PO413620  19.089  39.251   9.155
 6399POPC   GL113621  19.037  39.257   8.855
 6399POPC   GL213622  19.083  39.073   8.855
 6399POPC   C1A13623  19.079  39.270   8.555
 6399POPC   D2A13624  19.072  39.242   8.255
 6399POPC   C3A13625  19.063  39.276   7.955
 6399POPC   C4A13626  19.091  39.199   7.655
 6399POPC   C1B13627  19.171  39.014   8.555
 6399POPC   C2B13628  19.161  38.978   8.255
 6399POPC   C3B13629  19.184  39.043   7.955
 6399POPC   C4B13630  19.146  39.052   7.655
 6400POPC   NC313631   8.158  36.148   9.455
 6400POPC   PO413632   8.217  36.175   9.155
 6400POPC   GL113633   8.244  36.080   8.855
 6400POPC   GL213634   8.289  36.139   8.855
 6400POPC   C1A13635   8.219  36.087   8.555
 6400POPC   D2A13636   8.220  36.117   8.255
 6400POPC   C3A13637   8.197  36.132   7.955
 6400POPC   C4A13638   8.227  36.131   7.655
 6400POPC   C1B13639   8.475  36.205   8.555
 6400POPC   C2B13640   8.450  36.196   8.255
 6400POPC   C3B13641   8.442  36.182   7.955
 6400POPC   C4B13642   8.485  36.158   7.655
 6401POPC   NC313643  26.054  21.403   9.455
 6401POPC   PO413644  26.013  21.375   9.155
 6401POPC   GL113645  26.076  21.381   8.855
 6401POPC   GL213646  25.988  21.295   8.855
 6401POPC   C1A13647  26.032  21.372   8.555
 6401POPC   D2A13648  25.994  21.364   8.255
 6401POPC   C3A13649  26.043  21.419   7.955
 6401POPC   C4A13650  26.039  21.436   7.655
 6401POPC   C1B13651  25.961  21.130   8.555
 6401POPC   C2B13652  26.001  21.097   8.255
 6401POPC   C3B13653  25.980  21.152   7.955
 6401POPC   C4B13654  25.980  21.166   7.655
 6402POPC   NC313655  12.068   1.942   9.455
 6402POPC   PO413656  12.070   2.016   9.155
 6402POPC   GL113657  12.030   1.978   8.855
 6402POPC   GL213658  11.907   1.953   8.855
 6402POPC   C1A13659  12.108   1.986   8.555
 6402POPC   D2A13660  12.101   1.956   8.255
 6402POPC   C3A13661  12.116   1.984   7.955
 6402POPC   C4A13662  12.100   2.011   7.655
 6402POPC   C1B13663  11.870   1.898   8.555
 6402POPC   C2B13664  11.842   1.929   8.255
 6402POPC   C3B13665  11.845   1.934   7.955
 6402POPC   C4B13666  11.826   1.910   7.655
 6403POPC   NC313667  20.611   1.980   9.455
 6403POPC   PO413668  20.625   1.975   9.155
 6403POPC   GL113669  20.658   1.998   8.855
 6403POPC   GL213670  20.498   2.046   8.855
 6403POPC   C1A13671  20.581   2.014   8.555
 6403POPC   D2A13672  20.592   1.947   8.255
 6403POPC   C3A13673  20.569   2.034   7.955
 6403POPC   C4A13674  20.595   1.941   7.655
 6403POPC   C1B13675  20.446   2.191   8.555
 6403POPC   C2B13676  20.448   2.162   8.255
 6403POPC   C3B13677  20.467   2.212   7.955
 6403POPC   C4B13678  20.417   2.152   7.655
 6404POPC   NC313679   8.152  15.201   9.455
 6404POPC   PO413680   8.192  15.228   9.155
 6404POPC   GL113681   8.173  15.151   8.855
 6404POPC   GL213682   8.088  15.142   8.855
 6404POPC   C1A13683   8.156  15.158   8.555
 6404POPC   D2A13684   8.213  15.131   8.255
 6404POPC   C3A13685   8.174  15.166   7.955
 6404POPC   C4A13686   8.204  15.181   7.655
 6404POPC   C1B13687   7.955  15.133   8.555
 6404POPC   C2B13688   7.983  15.160   8.255
 6404POPC   C3B13689   7.964  15.114   7.955
 6404POPC   C4B13690   7.918  15.121   7.655
 6405POPC   NC313691  33.763  17.549   9.455
 6405POPC   PO413692  33.845  17.458   9.155
 6405POPC   GL113693  33.797  17.545   8.855
 6405POPC   GL213694  33.807  17.589   8.855
 6405POPC   C1A13695  33.824  17.531   8.555
 6405POPC   D2A13696  33.846  17.505   8.255
 6405POPC   C3A13697  33.758  17.468   7.955
 6405POPC   C4A13698  33.808  17.555   7.655
 6405POPC   C1B13699  33.819  17.794   8.555
 6405POPC   C2B13700  33.888  17.710   8.255
 6405POPC   C3B13701  33.817  17.711   7.955
 6405POPC   C4B13702  33.879  17.742   7.655
 6406POPC   NC313703  14.411  21.361   9.455
 6406POPC   PO413704  14.361  21.385   9.155
 6406POPC   GL113705  14.372  21.364   8.855
 6406POPC   GL213706  14.276  21.480   8.855
 6406POPC   C1A13707  14.384  21.395   8.555
 6406POPC   D2A13708  14.364  21.362   8.255
 6406POPC   C3A13709  14.409  21.375   7.955
 6406POPC   C4A13710  14.408  21.358   7.655
 6406POPC   C1B13711  14.197  21.529   8.555
 6406POPC   C2B13712  14.156  21.513   8.255
 6406POPC   C3B13713  14.185  21.538   7.955
 6406POPC   C4B13714  14.157  21.498   7.655
 6407POPC   NC313715  43.122  10.509   9.455
 6407POPC   PO413716  43.142  10.560   9.155
 6407POPC   GL113717  43.085  10.564   8.855
 6407POPC   GL213718  43.239  10.444   8.855
 6407POPC   C1A13719  43.067  10.550   8.555
 6407POPC   D2A13720  43.109  10.534   8.255
 6407POPC   C3A13721  43.130  10.555   7.955
 6407POPC   C4A13722  43.100  10.493   7.655
 6407POPC   C1B13723  43.313  10.301   8.555
 6407POPC   C2B13724  43.265  10.375   8.255
 6407POPC   C3B13725  43.306  10.322   7.955
 6407POPC   C4B13726  43.324  10.322   7.655
 6408POPC   NC313727  19.011  40.047   9.455
 6408POPC   PO413728  19.061  40.048   9.155
 6408POPC   GL113729  19.072  39.988   8.855
 6408POPC   GL213730  19.085  40.087   8.855
 6408POPC   C1A13731  19.074  39.960   8.555
 6408POPC   D2A13732  19.033  40.017   8.255
 6408POPC   C3A13733  19.044  40.040   7.955
 6408POPC   C4A13734  19.072  40.035   7.655
 6408POPC   C1B13735  19.115  40.250   8.555
 6408POPC   C2B13736  19.097  40.263   8.255
 6408POPC   C3B13737  19.082  40.288   7.955
 6408POPC   C4B13738  19.099  40.237   7.655
 6409POPC   NC313739  29.100  36.894   9.455
 6409POPC   PO413740  29.190  36.867   9.155
 6409POPC   GL113741  29.129  36.911   8.855
 6409POPC   GL213742  29.017  36.906   8.855
 6409POPC   C1A13743  29.095  36.931   8.555
 6409POPC   D2A13744  29.158  36.942   8.255
 6409POPC   C3A13745  29.143  36.877   7.955
 6409POPC   C4A13746  29.120  36.920   7.655
 6409POPC   C1B13747  28.903  36.913   8.555
 6409POPC   C2B13748  28.951  36.939   8.255
 6409POPC   C3B13749  28.945  36.938   7.955
 6409POPC   C4B13750  28.927  36.925   7.655
 6410POPC   NC313751  16.752  43.890   9.455
 6410POPC   PO413752  16.698  43.913   9.155
 6410POPC   GL113753  16.737  43.888   8.855
 6410POPC   GL213754  16.734  43.961   8.855
 6410POPC   C1A13755  16.695  43.879   8.555
 6410POPC   D2A13756  16.716  43.913   8.255
 6410POPC   C3A13757  16.684  43.877   7.955
 6410POPC   C4A13758  16.744  43.854   7.655
 6410POPC   C1B13759  16.589  44.086   8.555
 6410POPC   C2B13760  16.638  44.106   8.255
 6410POPC   C3B13761  16.657  44.094   7.955
 6410POPC   C4B13762  16.625  44.116   7.655
 6411POPC   NC313763  16.780  44.698   9.455
 6411POPC   PO413764  16.771  44.657   9.155
 6411POPC   GL113765  16.749  44.646   8.855
 6411POPC   GL213766  16.679  44.758   8.855
 6411POPC   C1A13767  16.718  44.689   8.555
 6411POPC   D2A13768  16.691  44.653   8.255
 6411POPC   C3A13769  16.716  44.641   7.955
 6411POPC   C4A13770  16.712  44.710   7.655
 6411POPC   C1B13771  16.544  44.801   8.555
 6411POPC   C2B13772  16.535  44.805   8.255
 6411POPC   C3B13773  16.571  44.801   7.955
 6411POPC   C4B13774  16.520  44.800   7.655
 6412POPC   NC313775  31.498  10.544   9.455
 6412POPC   PO413776  31.509  10.475   9.155
 6412POPC   GL113777  31.427  10.571   8.855
 6412POPC   GL213778  31.556  10.525   8.855
 6412POPC   C1A13779  31.437  10.559   8.555
 6412POPC   D2A13780  31.496  10.495   8.255
 6412POPC   C3A13781  31.430  10.567   7.955
 6412POPC   C4A13782  31.439  10.513   7.655
 6412POPC   C1B13783  31.674  10.476   8.555
 6412POPC   C2B13784  31.743  10.487   8.255
 6412POPC   C3B13785  31.715  10.420   7.955
 6412POPC   C4B13786  31.706  10.488   7.655
 6413POPC   NC313787  36.938  19.102   9.455
 6413POPC   PO413788  36.876  19.097   9.155
 6413POPC   GL113789  36.857  19.088   8.855
 6413POPC   GL213790  36.838  19.148   8.855
 6413POPC   C1A13791  36.879  19.014   8.555
 6413POPC   D2A13792  36.941  19.082   8.255
 6413POPC   C3A13793  36.904  19.061   7.955
 6413POPC   C4A13794  36.857  19.103   7.655
 6413POPC   C1B13795  36.867  19.273   8.555
 6413POPC   C2B13796  36.792  19.254   8.255
 6413POPC   C3B13797  36.796  19.303   7.955
 6413POPC   C4B13798  36.799  19.318   7.655
 6414POPC   NC313799  26.070  20.588   9.455
 6414POPC   PO413800  26.057  20.615   9.155
 6414POPC   GL113801  26.074  20.606   8.855
 6414POPC   GL213802  25.896  20.560   8.855
 6414POPC   C1A13803  26.091  20.564   8.555
 6414POPC   D2A13804  26.002  20.607   8.255
 6414POPC   C3A13805  26.060  20.595   7.955
 6414POPC   C4A13806  26.081  20.602   7.655
 6414POPC   C1B13807  25.842  20.578   8.555
 6414POPC   C2B13808  25.826  20.509   8.255
 6414POPC   C3B13809  25.827  20.558   7.955
 6414POPC   C4B13810  25.827  20.525   7.655
 6415POPC   NC313811  15.199  21.369   9.455
 6415POPC   PO413812  15.130  21.355   9.155
 6415POPC   GL113813  15.141  21.354   8.855
 6415POPC   GL213814  15.246  21.491   8.855
 6415POPC   C1A13815  15.220  21.341   8.555
 6415POPC   D2A13816  15.221  21.409   8.255
 6415POPC   C3A13817  15.228  21.369   7.955
 6415POPC   C4A13818  15.169  21.349   7.655
 6415POPC   C1B13819  15.225  21.661   8.555
 6415POPC   C2B13820  15.229  21.618   8.255
 6415POPC   C3B13821  15.204  21.598   7.955
 6415POPC   C4B13822  15.213  21.641   7.655
 6416POPC   NC313823  31.481   5.138   9.455
 6416POPC   PO413824  31.476   5.140   9.155
 6416POPC   GL113825  31.429   5.065   8.855
 6416POPC   GL213826  31.320   5.120   8.855
 6416POPC   C1A13827  31.433   5.091   8.555
 6416POPC   D2A13828  31.461   5.085   8.255
 6416POPC   C3A13829  31.493   5.132   7.955
 6416POPC   C4A13830  31.425   5.108   7.655
 6416POPC   C1B13831  31.251   5.129   8.555
 6416POPC   C2B13832  31.266   5.106   8.255
 6416POPC   C3B13833  31.207   5.097   7.955
 6416POPC   C4B13834  31.213   5.162   7.655
 6417POPC   NC313835   9.700  10.520   9.455
 6417POPC   PO413836   9.786  10.544   9.155
 6417POPC   GL113837   9.736  10.517   8.855
 6417POPC   GL213838   9.842  10.587   8.855
 6417POPC   C1A13839   9.770  10.506   8.555
 6417POPC   D2A13840   9.745  10.497   8.255
 6417POPC   C3A13841   9.739  10.558   7.955
 6417POPC   C4A13842   9.722  10.544   7.655
 6417POPC   C1B13843   9.927  10.758   8.555
 6417POPC   C2B13844   9.880  10.719   8.255
 6417POPC   C3B13845   9.925  10.670   7.955
 6417POPC   C4B13846   9.864  10.764   7.655
 6418POPC   NC313847   1.966  12.083   9.455
 6418POPC   PO413848   1.979  12.092   9.155
 6418POPC   GL113849   1.957  12.037   8.855
 6418POPC   GL213850   1.872  12.144   8.855
 6418POPC   C1A13851   1.994  12.078   8.555
 6418POPC   D2A13852   2.015  12.100   8.255
 6418POPC   C3A13853   1.951  12.095   7.955
 6418POPC   C4A13854   2.024  12.080   7.655
 6418POPC   C1B13855   1.784  12.216   8.555
 6418POPC   C2B13856   1.769  12.195   8.255
 6418POPC   C3B13857   1.786  12.199   7.955
 6418POPC   C4B13858   1.787  12.200   7.655
 6419POPC   NC313859   7.408  20.591   9.455
 6419POPC   PO413860   7.412  20.607   9.155
 6419POPC   GL113861   7.446  20.617   8.855
 6419POPC   GL213862   7.481  20.775   8.855
 6419POPC   C1A13863   7.412  20.633   8.555
 6419POPC   D2A13864   7.407  20.635   8.255
 6419POPC   C3A13865   7.432  20.638   7.955
 6419POPC   C4A13866   7.405  20.606   7.655
 6419POPC   C1B13867   7.477  20.834   8.555
 6419POPC   C2B13868   7.466  20.896   8.255
 6419POPC   C3B13869   7.512  20.831   7.955
 6419POPC   C4B13870   7.508  20.812   7.655
 6420POPC   NC313871   5.089  32.250   9.455
 6420POPC   PO413872   5.071  32.247   9.155
 6420POPC   GL113873   5.094  32.272   8.855
 6420POPC   GL213874   5.101  32.161   8.855
 6420POPC   C1A13875   5.095  32.228   8.555
 6420POPC   D2A13876   5.057  32.204   8.255
 6420POPC   C3A13877   5.090  32.235   7.955
 6420POPC   C4A13878   5.054  32.261   7.655
 6420POPC   C1B13879   5.071  31.991   8.555
 6420POPC   C2B13880   5.104  32.020   8.255
 6420POPC   C3B13881   5.123  32.020   7.955
 6420POPC   C4B13882   5.144  32.031   7.655
 6421POPC   NC313883  36.104  43.097   9.455
 6421POPC   PO413884  36.109  43.096   9.155
 6421POPC   GL113885  36.096  43.114   8.855
 6421POPC   GL213886  36.246  43.190   8.855
 6421POPC   C1A13887  36.086  43.120   8.555
 6421POPC   D2A13888  36.082  43.110   8.255
 6421POPC   C3A13889  36.087  43.148   7.955
 6421POPC   C4A13890  36.133  43.120   7.655
 6421POPC   C1B13891  36.298  43.305   8.555
 6421POPC   C2B13892  36.316  43.273   8.255
 6421POPC   C3B13893  36.319  43.290   7.955
 6421POPC   C4B13894  36.263  43.275   7.655
 6422POPC   NC313895  25.231  13.599   9.455
 6422POPC   PO413896  25.221  13.649   9.155
 6422POPC   GL113897  25.263  13.584   8.855
 6422POPC   GL213898  25.201  13.518   8.855
 6422POPC   C1A13899  25.314  13.588   8.555
 6422POPC   D2A13900  25.279  13.608   8.255
 6422POPC   C3A13901  25.218  13.606   7.955
 6422POPC   C4A13902  25.251  13.587   7.655
 6422POPC   C1B13903  25.147  13.358   8.555
 6422POPC   C2B13904  25.164  13.351   8.255
 6422POPC   C3B13905  25.143  13.399   7.955
 6422POPC   C4B13906  25.115  13.425   7.655
 6423POPC   NC313907   5.048  20.585   9.455
 6423POPC   PO413908   5.102  20.625   9.155
 6423POPC   GL113909   5.045  20.587   8.855
 6423POPC   GL213910   5.000  20.748   8.855
 6423POPC   C1A13911   5.052  20.574   8.555
 6423POPC   D2A13912   5.075  20.616   8.255
 6423POPC   C3A13913   5.055  20.646   7.955
 6423POPC   C4A13914   5.121  20.632   7.655
 6423POPC   C1B13915   4.959  20.782   8.555
 6423POPC   C2B13916   4.973  20.834   8.255
 6423POPC   C3B13917   4.950  20.831   7.955
 6423POPC   C4B13918   4.908  20.750   7.655
 6424POPC   NC313919  39.263   0.392   9.455
 6424POPC   PO413920  39.184   0.449   9.155
 6424POPC   GL113921  39.181   0.393   8.855
 6424POPC   GL213922  39.138   0.385   8.855
 6424POPC   C1A13923  39.273   0.449   8.555
 6424POPC   D2A13924  39.258   0.418   8.255
 6424POPC   C3A13925  39.225   0.418   7.955
 6424POPC   C4A13926  39.279   0.459   7.655
 6424POPC   C1B13927  39.065   0.246   8.555
 6424POPC   C2B13928  39.022   0.290   8.255
 6424POPC   C3B13929  39.060   0.228   7.955
 6424POPC   C4B13930  38.999   0.322   7.655
 6425POPC   NC313931  39.990  22.179   9.455
 6425POPC   PO413932  39.985  22.167   9.155
 6425POPC   GL113933  40.016  22.197   8.855
 6425POPC   GL213934  40.126  22.158   8.855
 6425POPC   C1A13935  40.017  22.195   8.555
 6425POPC   D2A13936  40.020  22.203   8.255
 6425POPC   C3A13937  40.007  22.119   7.955
 6425POPC   C4A13938  39.987  22.201   7.655
 6425POPC   C1B13939  40.269  22.107   8.555
 6425POPC   C2B13940  40.228  22.116   8.255
 6425POPC   C3B13941  40.255  22.058   7.955
 6425POPC   C4B13942  40.220  22.052   7.655
 6426POPC   NC313943  33.780  32.291   9.455
 6426POPC   PO413944  33.793  32.247   9.155
 6426POPC   GL113945  33.809  32.224   8.855
 6426POPC   GL213946  33.661  32.164   8.855
 6426POPC   C1A13947  33.827  32.246   8.555
 6426POPC   D2A13948  33.826  32.209   8.255
 6426POPC   C3A13949  33.777  32.218   7.955
 6426POPC   C4A13950  33.805  32.257   7.655
 6426POPC   C1B13951  33.594  32.147   8.555
 6426POPC   C2B13952  33.591  32.213   8.255
 6426POPC   C3B13953  33.572  32.174   7.955
 6426POPC   C4B13954  33.518  32.125   7.655
 6427POPC   NC313955  36.928  29.905   9.455
 6427POPC   PO413956  36.901  29.913   9.155
 6427POPC   GL113957  36.881  29.946   8.855
 6427POPC   GL213958  36.825  29.914   8.855
 6427POPC   C1A13959  36.858  29.872   8.555
 6427POPC   D2A13960  36.858  29.927   8.255
 6427POPC   C3A13961  36.938  29.876   7.955
 6427POPC   C4A13962  36.928  29.897   7.655
 6427POPC   C1B13963  36.632  29.867   8.555
 6427POPC   C2B13964  36.652  29.932   8.255
 6427POPC   C3B13965  36.640  29.872   7.955
 6427POPC   C4B13966  36.656  29.900   7.655
 6428POPC   NC313967  22.914  36.137   9.455
 6428POPC   PO413968  22.909  36.111   9.155
 6428POPC   GL113969  22.962  36.120   8.855
 6428POPC   GL213970  22.863  36.147   8.855
 6428POPC   C1A13971  22.899  36.169   8.555
 6428POPC   D2A13972  22.981  36.115   8.255
 6428POPC   C3A13973  22.910  36.174   7.955
 6428POPC   C4A13974  22.975  36.170   7.655
 6428POPC   C1B13975  22.709  36.240   8.555
 6428POPC   C2B13976  22.759  36.280   8.255
 6428POPC   C3B13977  22.684  36.241   7.955
 6428POPC   C4B13978  22.683  36.295   7.655
 6429POPC   NC313979   2.738  26.792   9.455
 6429POPC   PO413980   2.752  26.845   9.155
 6429POPC   GL113981   2.767  26.793   8.855
 6429POPC   GL213982   2.908  26.861   8.855
 6429POPC   C1A13983   2.731  26.789   8.555
 6429POPC   D2A13984   2.777  26.825   8.255
 6429POPC   C3A13985   2.788  26.841   7.955
 6429POPC   C4A13986   2.807  26.850   7.655
 6429POPC   C1B13987   2.985  26.950   8.555
 6429POPC   C2B13988   2.972  26.982   8.255
 6429POPC   C3B13989   2.946  26.933   7.955
 6429POPC   C4B13990   2.909  26.974   7.655
 6430POPC   NC313991  33.066  23.735   9.455
 6430POPC   PO413992  33.054  23.758   9.155
 6430POPC   GL113993  32.983  23.721   8.855
 6430POPC   GL213994  33.085  23.563   8.855
 6430POPC   C1A13995  33.063  23.672   8.555
 6430POPC   D2A13996  32.983  23.699   8.255
 6430POPC   C3A13997  33.071  23.737   7.955
 6430POPC   C4A13998  33.009  23.683   7.655
 6430POPC   C1B13999  33.117  23.484   8.555
 6430POPC   C2B14000  33.087  23.462   8.255
 6430POPC   C3B14001  33.084  23.510   7.955
 6430POPC   C4B14002  33.070  23.459   7.655
 6431POPC   NC314003   3.585   1.203   9.455
 6431POPC   PO414004   3.556   1.207   9.155
 6431POPC   GL114005   3.525   1.173   8.855
 6431POPC   GL214006   3.465   1.284   8.855
 6431POPC   C1A14007   3.546   1.188   8.555
 6431POPC   D2A14008   3.544   1.220   8.255
 6431POPC   C3A14009   3.542   1.239   7.955
 6431POPC   C4A14010   3.563   1.181   7.655
 6431POPC   C1B14011   3.294   1.277   8.555
 6431POPC   C2B14012   3.344   1.272   8.255
 6431POPC   C3B14013   3.311   1.240   7.955
 6431POPC   C4B14014   3.258   1.230   7.655
 6432POPC   NC314015  26.028  10.508   9.455
 6432POPC   PO414016  26.001  10.507   9.155
 6432POPC   GL114017  26.010  10.532   8.855
 6432POPC   GL214018  26.175  10.548   8.855
 6432POPC   C1A14019  26.058  10.548   8.555
 6432POPC   D2A14020  25.996  10.487   8.255
 6432POPC   C3A14021  26.089  10.536   7.955
 6432POPC   C4A14022  26.089  10.499   7.655
 6432POPC   C1B14023  26.254  10.566   8.555
 6432POPC   C2B14024  26.237  10.590   8.255
 6432POPC   C3B14025  26.303  10.611   7.955
 6432POPC   C4B14026  26.304  10.615   7.655
 6433POPC   NC314027  36.096  42.363   9.455
 6433POPC   PO414028  36.101  42.370   9.155
 6433POPC   GL114029  36.083  42.353   8.855
 6433POPC   GL214030  36.074  42.438   8.855
 6433POPC   C1A14031  36.175  42.339   8.555
 6433POPC   D2A14032  36.159  42.322   8.255
 6433POPC   C3A14033  36.106  42.333   7.955
 6433POPC   C4A14034  36.136  42.333   7.655
 6433POPC   C1B14035  35.998  42.564   8.555
 6433POPC   C2B14036  35.926  42.516   8.255
 6433POPC   C3B14037  35.959  42.491   7.955
 6433POPC   C4B14038  35.929  42.516   7.655
 6434POPC   NC314039  12.873  28.410   9.455
 6434POPC   PO414040  12.894  28.329   9.155
 6434POPC   GL114041  12.814  28.408   8.855
 6434POPC   GL214042  12.932  28.321   8.855
 6434POPC   C1A14043  12.885  28.371   8.555
 6434POPC   D2A14044  12.881  28.411   8.255
 6434POPC   C3A14045  12.857  28.338   7.955
 6434POPC   C4A14046  12.864  28.416   7.655
 6434POPC   C1B14047  13.125  28.246   8.555
 6434POPC   C2B14048  13.119  28.225   8.255
 6434POPC   C3B14049  13.105  28.278   7.955
 6434POPC   C4B14050  13.078  28.222   7.655
 6435POPC   NC314051  14.356  32.296   9.455
 6435POPC   PO414052  14.391  32.251   9.155
 6435POPC   GL114053  14.444  32.248   8.855
 6435POPC   GL214054  14.252  32.214   8.855
 6435POPC   C1A14055  14.370  32.256   8.555
 6435POPC   D2A14056  14.418  32.205   8.255
 6435POPC   C3A14057  14.434  32.278   7.955
 6435POPC   C4A14058  14.385  32.276   7.655
 6435POPC   C1B14059  14.189  32.180   8.555
 6435POPC   C2B14060  14.140  32.179   8.255
 6435POPC   C3B14061  14.170  32.182   7.955
 6435POPC   C4B14062  14.137  32.167   7.655
 6436POPC   NC314063  36.943  26.781   9.455
 6436POPC   PO414064  36.858  26.840   9.155
 6436POPC   GL114065  36.919  26.810   8.855
 6436POPC   GL214066  36.866  26.698   8.855
 6436POPC   C1A14067  36.865  26.861   8.555
 6436POPC   D2A14068  36.871  26.853   8.255
 6436POPC   C3A14069  36.906  26.857   7.955
 6436POPC   C4A14070  36.881  26.800   7.655
 6436POPC   C1B14071  36.796  26.613   8.555
 6436POPC   C2B14072  36.823  26.557   8.255
 6436POPC   C3B14073  36.813  26.567   7.955
 6436POPC   C4B14074  36.862  26.573   7.655
 6437POPC   NC314075   0.391   9.011   9.455
 6437POPC   PO414076   0.474   9.005   9.155
 6437POPC   GL114077   0.468   9.010   8.855
 6437POPC   GL214078   0.525   8.917   8.855
 6437POPC   C1A14079   0.457   8.997   8.555
 6437POPC   D2A14080   0.391   8.934   8.255
 6437POPC   C3A14081   0.464   9.015   7.955
 6437POPC   C4A14082   0.416   8.974   7.655
 6437POPC   C1B14083   0.706   8.823   8.555
 6437POPC   C2B14084   0.614   8.832   8.255
 6437POPC   C3B14085   0.612   8.844   7.955
 6437POPC   C4B14086   0.656   8.887   7.655
 6438POPC   NC314087  39.252  21.361   9.455
 6438POPC   PO414088  39.243  21.411   9.155
 6438POPC   GL114089  39.251  21.402   8.855
 6438POPC   GL214090  39.103  21.423   8.855
 6438POPC   C1A14091  39.199  21.346   8.555
 6438POPC   D2A14092  39.214  21.395   8.255
 6438POPC   C3A14093  39.239  21.378   7.955
 6438POPC   C4A14094  39.235  21.434   7.655
 6438POPC   C1B14095  38.973  21.431   8.555
 6438POPC   C2B14096  38.989  21.403   8.255
 6438POPC   C3B14097  38.967  21.404   7.955
 6438POPC   C4B14098  39.028  21.438   7.655
 6439POPC   NC314099  37.693  14.434   9.455
 6439POPC   PO414100  37.683  14.409   9.155
 6439POPC   GL114101  37.670  14.417   8.855
 6439POPC   GL214102  37.750  14.460   8.855
 6439POPC   C1A14103  37.728  14.419   8.555
 6439POPC   D2A14104  37.673  14.358   8.255
 6439POPC   C3A14105  37.631  14.354   7.955
 6439POPC   C4A14106  37.692  14.367   7.655
 6439POPC   C1B14107  37.890  14.585   8.555
 6439POPC   C2B14108  37.836  14.600   8.255
 6439POPC   C3B14109  37.886  14.553   7.955
 6439POPC   C4B14110  37.887  14.590   7.655
 6440POPC   NC314111  30.679  30.663   9.455
 6440POPC   PO414112  30.720  30.725   9.155
 6440POPC   GL114113  30.688  30.662   8.855
 6440POPC   GL214114  30.564  30.657   8.855
 6440POPC   C1A14115  30.732  30.740   8.555
 6440POPC   D2A14116  30.651  30.730   8.255
 6440POPC   C3A14117  30.691  30.733   7.955
 6440POPC   C4A14118  30.723  30.740   7.655
 6440POPC   C1B14119  30.487  30.697   8.555
 6440POPC   C2B14120  30.477  30.651   8.255
 6440POPC   C3B14121  30.420  30.652   7.955
 6440POPC   C4B14122  30.460  30.709   7.655
 6441POPC   NC314123   5.056  33.777   9.455
 6441POPC   PO414124   5.062  33.772   9.155
 6441POPC   GL114125   5.071  33.824   8.855
 6441POPC   GL214126   5.242  33.799   8.855
 6441POPC   C1A14127   5.142  33.825   8.555
 6441POPC   D2A14128   5.078  33.791   8.255
 6441POPC   C3A14129   5.092  33.784   7.955
 6441POPC   C4A14130   5.080  33.808   7.655
 6441POPC   C1B14131   5.306  33.901   8.555
 6441POPC   C2B14132   5.289  33.898   8.255
 6441POPC   C3B14133   5.366  33.860   7.955
 6441POPC   C4B14134   5.301  33.859   7.655
 6442POPC   NC314135  29.131   8.957   9.455
 6442POPC   PO414136  29.097   8.968   9.155
 6442POPC   GL114137  29.182   8.956   8.855
 6442POPC   GL214138  29.024   8.910   8.855
 6442POPC   C1A14139  29.139   8.991   8.555
 6442POPC   D2A14140  29.104   9.000   8.255
 6442POPC   C3A14141  29.164   8.942   7.955
 6442POPC   C4A14142  29.120   8.994   7.655
 6442POPC   C1B14143  28.924   8.853   8.555
 6442POPC   C2B14144  28.920   8.859   8.255
 6442POPC   C3B14145  28.969   8.826   7.955
 6442POPC   C4B14146  28.969   8.876   7.655
 6443POPC   NC314147   3.505  32.209   9.455
 6443POPC   PO414148   3.510  32.291   9.155
 6443POPC   GL114149   3.518  32.276   8.855
 6443POPC   GL214150   3.379  32.174   8.855
 6443POPC   C1A14151   3.503  32.239   8.555
 6443POPC   D2A14152   3.548  32.262   8.255
 6443POPC   C3A14153   3.566  32.223   7.955
 6443POPC   C4A14154   3.534  32.208   7.655
 6443POPC   C1B14155   3.265  32.139   8.555
 6443POPC   C2B14156   3.305  32.189   8.255
 6443POPC   C3B14157   3.285  32.198   7.955
 6443POPC   C4B14158   3.281  32.195   7.655
 6444POPC   NC314159  23.671  41.584   9.455
 6444POPC   PO414160  23.735  41.556   9.155
 6444POPC   GL114161  23.675  41.594   8.855
 6444POPC   GL214162  23.687  41.465   8.855
 6444POPC   C1A14163  23.666  41.575   8.555
 6444POPC   D2A14164  23.707  41.582   8.255
 6444POPC   C3A14165  23.682  41.583   7.955
 6444POPC   C4A14166  23.677  41.545   7.655
 6444POPC   C1B14167  23.571  41.360   8.555
 6444POPC   C2B14168  23.621  41.330   8.255
 6444POPC   C3B14169  23.652  41.328   7.955
 6444POPC   C4B14170  23.641  41.379   7.655
 6445POPC   NC314171  29.107  15.970   9.455
 6445POPC   PO414172  29.135  15.925   9.155
 6445POPC   GL114173  29.189  15.910   8.855
 6445POPC   GL214174  29.039  16.021   8.855
 6445POPC   C1A14175  29.110  15.926   8.555
 6445POPC   D2A14176  29.169  15.935   8.255
 6445POPC   C3A14177  29.109  15.923   7.955
 6445POPC   C4A14178  29.184  15.952   7.655
 6445POPC   C1B14179  28.880  15.998   8.555
 6445POPC   C2B14180  28.919  15.990   8.255
 6445POPC   C3B14181  28.952  15.986   7.955
 6445POPC   C4B14182  28.944  16.055   7.655
 6446POPC   NC314183   1.962  16.770   9.455
 6446POPC   PO414184   1.968  16.758   9.155
 6446POPC   GL114185   1.991  16.711   8.855
 6446POPC   GL214186   1.845  16.806   8.855
 6446POPC   C1A14187   1.954  16.773   8.555
 6446POPC   D2A14188   1.963  16.702   8.255
 6446POPC   C3A14189   2.016  16.703   7.955
 6446POPC   C4A14190   2.012  16.745   7.655
 6446POPC   C1B14191   1.767  16.860   8.555
 6446POPC   C2B14192   1.771  16.845   8.255
 6446POPC   C3B14193   1.712  16.810   7.955
 6446POPC   C4B14194   1.768  16.785   7.655
 6447POPC   NC314195  24.476  19.818   9.455
 6447POPC   PO414196  24.497  19.879   9.155
 6447POPC   GL114197  24.476  19.827   8.855
 6447POPC   GL214198  24.343  19.759   8.855
 6447POPC   C1A14199  24.442  19.819   8.555
 6447POPC   D2A14200  24.516  19.827   8.255
 6447POPC   C3A14201  24.496  19.851   7.955
 6447POPC   C4A14202  24.440  19.869   7.655
 6447POPC   C1B14203  24.230  19.763   8.555
 6447POPC   C2B14204  24.261  19.686   8.255
 6447POPC   C3B14205  24.235  19.770   7.955
 6447POPC   C4B14206  24.273  19.753   7.655
 6448POPC   NC314207   0.434  12.888   9.455
 6448POPC   PO414208   0.443  12.863   9.155
 6448POPC   GL114209   0.443  12.827   8.855
 6448POPC   GL214210   0.322  12.768   8.855
 6448POPC   C1A14211   0.439  12.863   8.555
 6448POPC   D2A14212   0.415  12.816   8.255
 6448POPC   C3A14213   0.426  12.882   7.955
 6448POPC   C4A14214   0.402  12.842   7.655
 6448POPC   C1B14215   0.227  12.678   8.555
 6448POPC   C2B14216   0.217  12.740   8.255
 6448POPC   C3B14217   0.225  12.692   7.955
 6448POPC   C4B14218   0.182  12.686   7.655
 6449POPC   NC314219  30.658   8.931   9.455
 6449POPC   PO414220  30.705   8.968   9.155
 6449POPC   GL114221  30.695   8.955   8.855
 6449POPC   GL214222  30.608   8.947   8.855
 6449POPC   C1A14223  30.708   8.981   8.555
 6449POPC   D2A14224  30.740   9.011   8.255
 6449POPC   C3A14225  30.680   8.948   7.955
 6449POPC   C4A14226  30.719   8.958   7.655
 6449POPC   C1B14227  30.525   8.799   8.555
 6449POPC   C2B14228  30.459   8.818   8.255
 6449POPC   C3B14229  30.455   8.825   7.955
 6449POPC   C4B14230  30.482   8.842   7.655
 6450POPC   NC314231  44.662  41.532   9.455
 6450POPC   PO414232  44.616  41.534   9.155
 6450POPC   GL114233  44.664  41.582   8.855
 6450POPC   GL214234  44.810  41.636   8.855
 6450POPC   C1A14235  44.691  41.579   8.555
 6450POPC   D2A14236  44.705  41.509   8.255
 6450POPC   C3A14237  44.677  41.521   7.955
 6450POPC   C4A14238  44.711  41.549   7.655
 6450POPC   C1B14239  44.847  41.697   8.555
 6450POPC   C2B14240  44.877  41.648   8.255
 6450POPC   C3B14241  44.922  41.709   7.955
 6450POPC   C4B14242  44.881  41.690   7.655
 6451POPC   NC314243   5.052  27.617   9.455
 6451POPC   PO414244   5.135  27.637   9.155
 6451POPC   GL114245   5.127  27.642   8.855
 6451POPC   GL214246   5.013  27.605   8.855
 6451POPC   C1A14247   5.089  27.639   8.555
 6451POPC   D2A14248   5.139  27.632   8.255
 6451POPC   C3A14249   5.141  27.577   7.955
 6451POPC   C4A14250   5.075  27.603   7.655
 6451POPC   C1B14251   4.840  27.559   8.555
 6451POPC   C2B14252   4.829  27.545   8.255
 6451POPC   C3B14253   4.848  27.529   7.955
 6451POPC   C4B14254   4.865  27.494   7.655
 6452POPC   NC314255  28.365  15.223   9.455
 6452POPC   PO414256  28.347  15.137   9.155
 6452POPC   GL114257  28.389  15.195   8.855
 6452POPC   GL214258  28.244  15.165   8.855
 6452POPC   C1A14259  28.369  15.181   8.555
 6452POPC   D2A14260  28.372  15.167   8.255
 6452POPC   C3A14261  28.320  15.174   7.955
 6452POPC   C4A14262  28.361  15.135   7.655
 6452POPC   C1B14263  28.147  15.230   8.555
 6452POPC   C2B14264  28.150  15.255   8.255
 6452POPC   C3B14265  28.096  15.262   7.955
 6452POPC   C4B14266  28.109  15.203   7.655
 6453POPC   NC314267  12.094   8.165   9.455
 6453POPC   PO414268  12.105   8.200   9.155
 6453POPC   GL114269  12.116   8.167   8.855
 6453POPC   GL214270  12.150   8.269   8.855
 6453POPC   C1A14271  12.028   8.201   8.555
 6453POPC   D2A14272  12.054   8.206   8.255
 6453POPC   C3A14273  12.069   8.176   7.955
 6453POPC   C4A14274  12.100   8.233   7.655
 6453POPC   C1B14275  12.277   8.354   8.555
 6453POPC   C2B14276  12.222   8.323   8.255
 6453POPC   C3B14277  12.265   8.354   7.955
 6453POPC   C4B14278  12.243   8.346   7.655
 6454POPC   NC314279  16.004  10.522   9.455
 6454POPC   PO414280  15.997  10.530   9.155
 6454POPC   GL114281  15.952  10.570   8.855
 6454POPC   GL214282  16.093  10.456   8.855
 6454POPC   C1A14283  15.935  10.492   8.555
 6454POPC   D2A14284  15.987  10.493   8.255
 6454POPC   C3A14285  15.987  10.485   7.955
 6454POPC   C4A14286  15.984  10.502   7.655
 6454POPC   C1B14287  16.139  10.360   8.555
 6454POPC   C2B14288  16.103  10.353   8.255
 6454POPC   C3B14289  16.154  10.391   7.955
 6454POPC   C4B14290  16.182  10.387   7.655
 6455POPC   NC314291  36.886  35.371   9.455
 6455POPC   PO414292  36.938  35.338   9.155
 6455POPC   GL114293  36.925  35.400   8.855
 6455POPC   GL214294  36.814  35.257   8.855
 6455POPC   C1A14295  36.944  35.360   8.555
 6455POPC   D2A14296  36.914  35.343   8.255
 6455POPC   C3A14297  36.906  35.374   7.955
 6455POPC   C4A14298  36.901  35.362   7.655
 6455POPC   C1B14299  36.788  35.183   8.555
 6455POPC   C2B14300  36.757  35.151   8.255
 6455POPC   C3B14301  36.818  35.105   7.955
 6455POPC   C4B14302  36.784  35.146   7.655
 6456POPC   NC314303  33.833  40.783   9.455
 6456POPC   PO414304  33.832  40.801   9.155
 6456POPC   GL114305  33.759  40.809   8.855
 6456POPC   GL214306  33.898  40.789   8.855
 6456POPC   C1A14307  33.773  40.741   8.555
 6456POPC   D2A14308  33.779  40.774   8.255
 6456POPC   C3A14309  33.775  40.774   7.955
 6456POPC   C4A14310  33.800  40.812   7.655
 6456POPC   C1B14311  34.028  40.799   8.555
 6456POPC   C2B14312  34.033  40.832   8.255
 6456POPC   C3B14313  34.044  40.794   7.955
 6456POPC   C4B14314  34.069  40.777   7.655
 6457POPC   NC314315  41.605   9.719   9.455
 6457POPC   PO414316  41.550   9.777   9.155
 6457POPC   GL114317  41.564   9.721   8.855
 6457POPC   GL214318  41.592   9.919   8.855
 6457POPC   C1A14319  41.543   9.722   8.555
 6457POPC   D2A14320  41.521   9.711   8.255
 6457POPC   C3A14321  41.544   9.739   7.955
 6457POPC   C4A14322  41.532   9.744   7.655
 6457POPC   C1B14323  41.603  10.034   8.555
 6457POPC   C2B14324  41.523   9.976   8.255
 6457POPC   C3B14325  41.598  10.019   7.955
 6457POPC   C4B14326  41.593  10.047   7.655
 6458POPC   NC314327  17.521  33.833   9.455
 6458POPC   PO414328  17.470  33.794   9.155
 6458POPC   GL114329  17.537  33.800   8.855
 6458POPC   GL214330  17.550  33.954   8.855
 6458POPC   C1A14331  17.462  33.795   8.555
 6458POPC   D2A14332  17.507  33.818   8.255
 6458POPC   C3A14333  17.515  33.768   7.955
 6458POPC   C4A14334  17.459  33.805   7.655
 6458POPC   C1B14335  17.489  34.028   8.555
 6458POPC   C2B14336  17.536  34.051   8.255
 6458POPC   C3B14337  17.507  34.028   7.955
 6458POPC   C4B14338  17.537  34.042   7.655
 6459POPC   NC314339  41.565   8.925   9.455
 6459POPC   PO414340  41.519   8.954   9.155
 6459POPC   GL114341  41.547   8.969   8.855
 6459POPC   GL214342  41.694   8.983   8.855
 6459POPC   C1A14343  41.581   8.965   8.555
 6459POPC   D2A14344  41.515   8.963   8.255
 6459POPC   C3A14345  41.519   8.965   7.955
 6459POPC   C4A14346  41.582   8.962   7.655
 6459POPC   C1B14347  41.807   9.004   8.555
 6459POPC   C2B14348  41.750   9.052   8.255
 6459POPC   C3B14349  41.827   8.999   7.955
 6459POPC   C4B14350  41.837   9.043   7.655
 6460POPC   NC314351   9.780  32.297   9.455
 6460POPC   PO414352   9.763  32.248   9.155
 6460POPC   GL114353   9.702  32.294   8.855
 6460POPC   GL214354   9.584  32.222   8.855
 6460POPC   C1A14355   9.784  32.274   8.555
 6460POPC   D2A14356   9.794  32.286   8.255
 6460POPC   C3A14357   9.728  32.230   7.955
 6460POPC   C4A14358   9.790  32.256   7.655
 6460POPC   C1B14359   9.475  32.173   8.555
 6460POPC   C2B14360   9.533  32.239   8.255
 6460POPC   C3B14361   9.491  32.162   7.955
 6460POPC   C4B14362   9.475  32.216   7.655
 6461POPC   NC314363  30.651  12.097   9.455
 6461POPC   PO414364  30.676  12.053   9.155
 6461POPC   GL114365  30.715  12.082   8.855
 6461POPC   GL214366  30.550  12.092   8.855
 6461POPC   C1A14367  30.725  12.037   8.555
 6461POPC   D2A14368  30.681  12.079   8.255
 6461POPC   C3A14369  30.651  12.103   7.955
 6461POPC   C4A14370  30.655  12.092   7.655
 6461POPC   C1B14371  30.483  12.239   8.555
 6461POPC   C2B14372  30.442  12.210   8.255
 6461POPC   C3B14373  30.457  12.154   7.955
 6461POPC   C4B14374  30.465  12.151   7.655
 6462POPC   NC314375  43.894  43.840   9.455
 6462POPC   PO414376  43.917  43.924   9.155
 6462POPC   GL114377  43.926  43.925   8.855
 6462POPC   GL214378  43.967  43.904   8.855
 6462POPC   C1A14379  43.921  43.917   8.555
 6462POPC   D2A14380  43.935  43.915   8.255
 6462POPC   C3A14381  43.916  43.902   7.955
 6462POPC   C4A14382  43.855  43.904   7.655
 6462POPC   C1B14383  44.087  43.943   8.555
 6462POPC   C2B14384  44.160  43.954   8.255
 6462POPC   C3B14385  44.140  43.908   7.955
 6462POPC   C4B14386  44.174  43.937   7.655
 6463POPC   NC314387  28.390  22.959   9.455
 6463POPC   PO414388  28.384  22.988   9.155
 6463POPC   GL114389  28.340  22.908   8.855
 6463POPC   GL214390  28.338  22.811   8.855
 6463POPC   C1A14391  28.346  22.907   8.555
 6463POPC   D2A14392  28.330  22.942   8.255
 6463POPC   C3A14393  28.386  22.897   7.955
 6463POPC   C4A14394  28.379  22.914   7.655
 6463POPC   C1B14395  28.359  22.652   8.555
 6463POPC   C2B14396  28.332  22.675   8.255
 6463POPC   C3B14397  28.362  22.706   7.955
 6463POPC   C4B14398  28.322  22.680   7.655
 6464POPC   NC314399   9.733  36.081   9.455
 6464POPC   PO414400   9.766  36.129   9.155
 6464POPC   GL114401   9.791  36.160   8.855
 6464POPC   GL214402   9.696  35.982   8.855
 6464POPC   C1A14403   9.796  36.169   8.555
 6464POPC   D2A14404   9.716  36.091   8.255
 6464POPC   C3A14405   9.723  36.137   7.955
 6464POPC   C4A14406   9.766  36.161   7.655
 6464POPC   C1B14407   9.649  35.911   8.555
 6464POPC   C2B14408   9.637  35.863   8.255
 6464POPC   C3B14409   9.647  35.932   7.955
 6464POPC   C4B14410   9.589  35.911   7.655
 6465POPC   NC314411  38.499   1.981   9.455
 6465POPC   PO414412  38.462   2.001   9.155
 6465POPC   GL114413  38.432   1.943   8.855
 6465POPC   GL214414  38.316   1.997   8.855
 6465POPC   C1A14415  38.433   2.012   8.555
 6465POPC   D2A14416  38.440   1.953   8.255
 6465POPC   C3A14417  38.458   1.951   7.955
 6465POPC   C4A14418  38.489   1.985   7.655
 6465POPC   C1B14419  38.202   1.959   8.555
 6465POPC   C2B14420  38.209   1.942   8.255
 6465POPC   C3B14421  38.158   1.946   7.955
 6465POPC   C4B14422  38.211   1.985   7.655
 6466POPC   NC314423   1.189   4.316   9.455
 6466POPC   PO414424   1.202   4.272   9.155
 6466POPC   GL114425   1.213   4.364   8.855
 6466POPC   GL214426   1.279   4.356   8.855
 6466POPC   C1A14427   1.258   4.337   8.555
 6466POPC   D2A14428   1.213   4.311   8.255
 6466POPC   C3A14429   1.241   4.338   7.955
 6466POPC   C4A14430   1.187   4.319   7.655
 6466POPC   C1B14431   1.427   4.491   8.555
 6466POPC   C2B14432   1.414   4.464   8.255
 6466POPC   C3B14433   1.449   4.456   7.955
 6466POPC   C4B14434   1.410   4.510   7.655
 6467POPC   NC314435  33.839   2.758   9.455
 6467POPC   PO414436  33.751   2.805   9.155
 6467POPC   GL114437  33.847   2.748   8.855
 6467POPC   GL214438  33.908   2.663   8.855
 6467POPC   C1A14439  33.777   2.747   8.555
 6467POPC   D2A14440  33.845   2.747   8.255
 6467POPC   C3A14441  33.812   2.809   7.955
 6467POPC   C4A14442  33.788   2.742   7.655
 6467POPC   C1B14443  33.979   2.632   8.555
 6467POPC   C2B14444  34.006   2.630   8.255
 6467POPC   C3B14445  33.991   2.633   7.955
 6467POPC   C4B14446  34.006   2.618   7.655
 6468POPC   NC314447   6.666   8.147   9.455
 6468POPC   PO414448   6.633   8.239   9.155
 6468POPC   GL114449   6.691   8.161   8.855
 6468POPC   GL214450   6.557   8.242   8.855
 6468POPC   C1A14451   6.599   8.186   8.555
 6468POPC   D2A14452   6.680   8.246   8.255
 6468POPC   C3A14453   6.690   8.188   7.955
 6468POPC   C4A14454   6.616   8.174   7.655
 6468POPC   C1B14455   6.477   8.306   8.555
 6468POPC   C2B14456   6.442   8.371   8.255
 6468POPC   C3B14457   6.460   8.290   7.955
 6468POPC   C4B14458   6.462   8.377   7.655
 6469POPC   NC314459  32.213  40.801   9.455
 6469POPC   PO414460  32.283  40.829   9.155
 6469POPC   GL114461  32.245  40.735   8.855
 6469POPC   GL214462  32.301  40.919   8.855
 6469POPC   C1A14463  32.205  40.759   8.555
 6469POPC   D2A14464  32.218  40.828   8.255
 6469POPC   C3A14465  32.283  40.773   7.955
 6469POPC   C4A14466  32.274  40.801   7.655
 6469POPC   C1B14467  32.340  41.002   8.555
 6469POPC   C2B14468  32.421  41.023   8.255
 6469POPC   C3B14469  32.364  40.982   7.955
 6469POPC   C4B14470  32.412  41.014   7.655
 6470POPC   NC314471  33.815  19.032   9.455
 6470POPC   PO414472  33.831  19.037   9.155
 6470POPC   GL114473  33.836  19.045   8.855
 6470POPC   GL214474  33.855  19.173   8.855
 6470POPC   C1A14475  33.794  19.021   8.555
 6470POPC   D2A14476  33.784  19.064   8.255
 6470POPC   C3A14477  33.764  19.096   7.955
 6470POPC   C4A14478  33.840  19.018   7.655
 6470POPC   C1B14479  33.869  19.317   8.555
 6470POPC   C2B14480  33.893  19.336   8.255
 6470POPC   C3B14481  33.859  19.259   7.955
 6470POPC   C4B14482  33.858  19.316   7.655
 6471POPC   NC314483  15.135  36.855   9.455
 6471POPC   PO414484  15.214  36.897   9.155
 6471POPC   GL114485  15.208  36.921   8.855
 6471POPC   GL214486  15.016  36.894   8.855
 6471POPC   C1A14487  15.210  36.952   8.555
 6471POPC   D2A14488  15.156  36.860   8.255
 6471POPC   C3A14489  15.149  36.900   7.955
 6471POPC   C4A14490  15.147  36.922   7.655
 6471POPC   C1B14491  14.949  36.913   8.555
 6471POPC   C2B14492  14.972  36.846   8.255
 6471POPC   C3B14493  14.969  36.892   7.955
 6471POPC   C4B14494  14.915  36.908   7.655
 6472POPC   NC314495  35.343  32.978   9.455
 6472POPC   PO414496  35.371  32.977   9.155
 6472POPC   GL114497  35.369  33.008   8.855
 6472POPC   GL214498  35.354  32.918   8.855
 6472POPC   C1A14499  35.305  33.011   8.555
 6472POPC   D2A14500  35.337  33.039   8.255
 6472POPC   C3A14501  35.351  33.039   7.955
 6472POPC   C4A14502  35.342  33.070   7.655
 6472POPC   C1B14503  35.316  32.769   8.555
 6472POPC   C2B14504  35.259  32.827   8.255
 6472POPC   C3B14505  35.227  32.786   7.955
 6472POPC   C4B14506  35.266  32.783   7.655
 6473POPC   NC314507   6.629  13.619   9.455
 6473POPC   PO414508   6.669  13.655   9.155
 6473POPC   GL114509   6.628  13.606   8.855
 6473POPC   GL214510   6.704  13.521   8.855
 6473POPC   C1A14511   6.685  13.630   8.555
 6473POPC   D2A14512   6.666  13.580   8.255
 6473POPC   C3A14513   6.637  13.663   7.955
 6473POPC   C4A14514   6.692  13.656   7.655
 6473POPC   C1B14515   6.830  13.458   8.555
 6473POPC   C2B14516   6.803  13.473   8.255
 6473POPC   C3B14517   6.821  13.489   7.955
 6473POPC   C4B14518   6.850  13.513   7.655
 6474POPC   NC314519  20.617   8.994   9.455
 6474POPC   PO414520  20.645   8.939   9.155
 6474POPC   GL114521  20.610   8.928   8.855
 6474POPC   GL214522  20.548   9.085   8.855
 6474POPC   C1A14523  20.571   8.954   8.555
 6474POPC   D2A14524  20.640   8.936   8.255
 6474POPC   C3A14525  20.613   8.978   7.955
 6474POPC   C4A14526  20.642   8.943   7.655
 6474POPC   C1B14527  20.536   9.207   8.555
 6474POPC   C2B14528  20.579   9.184   8.255
 6474POPC   C3B14529  20.501   9.215   7.955
 6474POPC   C4B14530  20.496   9.225   7.655
 6475POPC   NC314531   2.762  39.226   9.455
 6475POPC   PO414532   2.718  39.225   9.155
 6475POPC   GL114533   2.793  39.231   8.855
 6475POPC   GL214534   2.655  39.292   8.855
 6475POPC   C1A14535   2.808  39.223   8.555
 6475POPC   D2A14536   2.798  39.194   8.255
 6475POPC   C3A14537   2.729  39.222   7.955
 6475POPC   C4A14538   2.750  39.257   7.655
 6475POPC   C1B14539   2.565  39.264   8.555
 6475POPC   C2B14540   2.516  39.315   8.255
 6475POPC   C3B14541   2.541  39.249   7.955
 6475POPC   C4B14542   2.513  39.279   7.655
 6476POPC   NC314543  36.157   2.796   9.455
 6476POPC   PO414544  36.115   2.735   9.155
 6476POPC   GL114545  36.100   2.782   8.855
 6476POPC   GL214546  36.017   2.874   8.855
 6476POPC   C1A14547  36.114   2.801   8.555
 6476POPC   D2A14548  36.164   2.733   8.255
 6476POPC   C3A14549  36.166   2.751   7.955
 6476POPC   C4A14550  36.086   2.780   7.655
 6476POPC   C1B14551  35.897   2.925   8.555
 6476POPC   C2B14552  35.940   2.891   8.255
 6476POPC   C3B14553  35.913   2.840   7.955
 6476POPC   C4B14554  35.933   2.870   7.655
 6477POPC   NC314555  14.428  14.392   9.455
 6477POPC   PO414556  14.424  14.411   9.155
 6477POPC   GL114557  14.398  14.421   8.855
 6477POPC   GL214558  14.413  14.508   8.855
 6477POPC   C1A14559  14.368  14.402   8.555
 6477POPC   D2A14560  14.396  14.453   8.255
 6477POPC   C3A14561  14.426  14.413   7.955
 6477POPC   C4A14562  14.427  14.358   7.655
 6477POPC   C1B14563  14.425  14.644   8.555
 6477POPC   C2B14564  14.432  14.692   8.255
 6477POPC   C3B14565  14.424  14.684   7.955
 6477POPC   C4B14566  14.490  14.599   7.655
 6478POPC   NC314567  42.291   4.280   9.455
 6478POPC   PO414568  42.340   4.340   9.155
 6478POPC   GL114569  42.325   4.293   8.855
 6478POPC   GL214570  42.283   4.453   8.855
 6478POPC   C1A14571  42.377   4.364   8.555
 6478POPC   D2A14572  42.320   4.324   8.255
 6478POPC   C3A14573  42.384   4.351   7.955
 6478POPC   C4A14574  42.318   4.331   7.655
 6478POPC   C1B14575  42.346   4.583   8.555
 6478POPC   C2B14576  42.292   4.583   8.255
 6478POPC   C3B14577  42.328   4.545   7.955
 6478POPC   C4B14578  42.304   4.591   7.655
 6479POPC   NC314579   0.451   7.404   9.455
 6479POPC   PO414580   0.447   7.388   9.155
 6479POPC   GL114581   0.401   7.430   8.855
 6479POPC   GL214582   0.528   7.412   8.855
 6479POPC   C1A14583   0.486   7.456   8.555
 6479POPC   D2A14584   0.447   7.463   8.255
 6479POPC   C3A14585   0.403   7.404   7.955
 6479POPC   C4A14586   0.484   7.465   7.655
 6479POPC   C1B14587   0.682   7.312   8.555
 6479POPC   C2B14588   0.645   7.381   8.255
 6479POPC   C3B14589   0.638   7.373   7.955
 6479POPC   C4B14590   0.712   7.327   7.655
 6480POPC   NC314591  26.072  36.921   9.455
 6480POPC   PO414592  26.066  36.869   9.155
 6480POPC   GL114593  26.068  36.907   8.855
 6480POPC   GL214594  26.099  37.071   8.855
 6480POPC   C1A14595  26.004  36.880   8.555
 6480POPC   D2A14596  26.023  36.930   8.255
 6480POPC   C3A14597  26.022  36.950   7.955
 6480POPC   C4A14598  25.995  36.892   7.655
 6480POPC   C1B14599  26.081  37.103   8.555
 6480POPC   C2B14600  26.027  37.131   8.255
 6480POPC   C3B14601  26.090  37.156   7.955
 6480POPC   C4B14602  26.087  37.157   7.655
 6481POPC   NC314603  27.571  21.369   9.455
 6481POPC   PO414604  27.630  21.399   9.155
 6481POPC   GL114605  27.608  21.429   8.855
 6481POPC   GL214606  27.436  21.320   8.855
 6481POPC   C1A14607  27.614  21.430   8.555
 6481POPC   D2A14608  27.588  21.378   8.255
 6481POPC   C3A14609  27.567  21.396   7.955
 6481POPC   C4A14610  27.642  21.404   7.655
 6481POPC   C1B14611  27.375  21.302   8.555
 6481POPC   C2B14612  27.385  21.325   8.255
 6481POPC   C3B14613  27.352  21.325   7.955
 6481POPC   C4B14614  27.319  21.320   7.655
 6482POPC   NC314615  21.365  33.795   9.455
 6482POPC   PO414616  21.360  33.807   9.155
 6482POPC   GL114617  21.373  33.787   8.855
 6482POPC   GL214618  21.275  33.749   8.855
 6482POPC   C1A14619  21.376  33.783   8.555
 6482POPC   D2A14620  21.360  33.808   8.255
 6482POPC   C3A14621  21.386  33.834   7.955
 6482POPC   C4A14622  21.355  33.780   7.655
 6482POPC   C1B14623  21.118  33.722   8.555
 6482POPC   C2B14624  21.126  33.703   8.255
 6482POPC   C3B14625  21.120  33.657   7.955
 6482POPC   C4B14626  21.204  33.664   7.655
 6483POPC   NC314627   4.275  41.581   9.455
 6483POPC   PO414628   4.323  41.556   9.155
 6483POPC   GL114629   4.307  41.553   8.855
 6483POPC   GL214630   4.196  41.496   8.855
 6483POPC   C1A14631   4.327  41.524   8.555
 6483POPC   D2A14632   4.337  41.551   8.255
 6483POPC   C3A14633   4.356  41.512   7.955
 6483POPC   C4A14634   4.329  41.541   7.655
 6483POPC   C1B14635   4.074  41.443   8.555
 6483POPC   C2B14636   4.065  41.395   8.255
 6483POPC   C3B14637   4.104  41.463   7.955
 6483POPC   C4B14638   4.130  41.459   7.655
 6484POPC   NC314639  12.071  32.231   9.455
 6484POPC   PO414640  12.038  32.265   9.155
 6484POPC   GL114641  12.067  32.219   8.855
 6484POPC   GL214642  12.179  32.193   8.855
 6484POPC   C1A14643  12.060  32.282   8.555
 6484POPC   D2A14644  12.078  32.259   8.255
 6484POPC   C3A14645  12.032  32.263   7.955
 6484POPC   C4A14646  12.040  32.283   7.655
 6484POPC   C1B14647  12.176  32.041   8.555
 6484POPC   C2B14648  12.252  32.076   8.255
 6484POPC   C3B14649  12.171  32.072   7.955
 6484POPC   C4B14650  12.238  32.060   7.655
 6485POPC   NC314651   7.446  15.183   9.455
 6485POPC   PO414652   7.427  15.163   9.155
 6485POPC   GL114653   7.429  15.158   8.855
 6485POPC   GL214654   7.501  15.102   8.855
 6485POPC   C1A14655   7.375  15.178   8.555
 6485POPC   D2A14656   7.383  15.169   8.255
 6485POPC   C3A14657   7.426  15.221   7.955
 6485POPC   C4A14658   7.437  15.209   7.655
 6485POPC   C1B14659   7.515  14.970   8.555
 6485POPC   C2B14660   7.461  14.967   8.255
 6485POPC   C3B14661   7.478  14.958   7.955
 6485POPC   C4B14662   7.520  14.929   7.655
 6486POPC   NC314663   3.539  38.443   9.455
 6486POPC   PO414664   3.590  38.486   9.155
 6486POPC   GL114665   3.585  38.433   8.855
 6486POPC   GL214666   3.533  38.353   8.855
 6486POPC   C1A14667   3.514  38.439   8.555
 6486POPC   D2A14668   3.541  38.452   8.255
 6486POPC   C3A14669   3.568  38.498   7.955
 6486POPC   C4A14670   3.578  38.408   7.655
 6486POPC   C1B14671   3.430  38.182   8.555
 6486POPC   C2B14672   3.459  38.242   8.255
 6486POPC   C3B14673   3.442  38.170   7.955
 6486POPC   C4B14674   3.493  38.211   7.655
 6487POPC   NC314675  20.609  32.249   9.455
 6487POPC   PO414676  20.570  32.200   9.155
 6487POPC   GL114677  20.642  32.277   8.855
 6487POPC   GL214678  20.467  32.187   8.855
 6487POPC   C1A14679  20.592  32.250   8.555
 6487POPC   D2A14680  20.618  32.290   8.255
 6487POPC   C3A14681  20.570  32.285   7.955
 6487POPC   C4A14682  20.562  32.295   7.655
 6487POPC   C1B14683  20.404  32.161   8.555
 6487POPC   C2B14684  20.346  32.234   8.255
 6487POPC   C3B14685  20.376  32.183   7.955
 6487POPC   C4B14686  20.319  32.258   7.655
 6488POPC   NC314687   1.197  43.912   9.455
 6488POPC   PO414688   1.199  43.855   9.155
 6488POPC   GL114689   1.240  43.924   8.855
 6488POPC   GL214690   1.336  43.871   8.855
 6488POPC   C1A14691   1.225  43.868   8.555
 6488POPC   D2A14692   1.238  43.861   8.255
 6488POPC   C3A14693   1.254  43.848   7.955
 6488POPC   C4A14694   1.224  43.879   7.655
 6488POPC   C1B14695   1.419  43.813   8.555
 6488POPC   C2B14696   1.456  43.795   8.255
 6488POPC   C3B14697   1.439  43.838   7.955
 6488POPC   C4B14698   1.410  43.820   7.655
 6489POPC   NC314699  25.275  39.198   9.455
 6489POPC   PO414700  25.227  39.262   9.155
 6489POPC   GL114701  25.246  39.201   8.855
 6489POPC   GL214702  25.390  39.182   8.855
 6489POPC   C1A14703  25.237  39.220   8.555
 6489POPC   D2A14704  25.269  39.242   8.255
 6489POPC   C3A14705  25.218  39.205   7.955
 6489POPC   C4A14706  25.284  39.246   7.655
 6489POPC   C1B14707  25.492  39.130   8.555
 6489POPC   C2B14708  25.486  39.136   8.255
 6489POPC   C3B14709  25.546  39.156   7.955
 6489POPC   C4B14710  25.466  39.197   7.655
 6490POPC   NC314711   2.007  33.778   9.455
 6490POPC   PO414712   2.007  33.842   9.155
 6490POPC   GL114713   2.015  33.813   8.855
 6490POPC   GL214714   2.135  33.747   8.855
 6490POPC   C1A14715   2.007  33.784   8.555
 6490POPC   D2A14716   1.947  33.830   8.255
 6490POPC   C3A14717   1.989  33.836   7.955
 6490POPC   C4A14718   2.013  33.760   7.655
 6490POPC   C1B14719   2.182  33.699   8.555
 6490POPC   C2B14720   2.207  33.655   8.255
 6490POPC   C3B14721   2.242  33.650   7.955
 6490POPC   C4B14722   2.220  33.712   7.655
 6491POPC   NC314723   5.124  36.142   9.455
 6491POPC   PO414724   5.119  36.168   9.155
 6491POPC   GL114725   5.098  36.165   8.855
 6491POPC   GL214726   5.046  35.999   8.855
 6491POPC   C1A14727   5.133  36.100   8.555
 6491POPC   D2A14728   5.123  36.099   8.255
 6491POPC   C3A14729   5.138  36.129   7.955
 6491POPC   C4A14730   5.126  36.170   7.655
 6491POPC   C1B14731   5.050  35.920   8.555
 6491POPC   C2B14732   4.954  35.881   8.255
 6491POPC   C3B14733   4.986  35.881   7.955
 6491POPC   C4B14734   4.979  35.863   7.655
 6492POPC   NC314735  12.031  19.089   9.455
 6492POPC   PO414736  12.040  19.023   9.155
 6492POPC   GL114737  12.115  19.034   8.855
 6492POPC   GL214738  11.995  19.049   8.855
 6492POPC   C1A14739  12.028  19.049   8.555
 6492POPC   D2A14740  12.086  19.020   8.255
 6492POPC   C3A14741  12.039  19.062   7.955
 6492POPC   C4A14742  12.070  19.032   7.655
 6492POPC   C1B14743  11.808  18.978   8.555
 6492POPC   C2B14744  11.807  19.009   8.255
 6492POPC   C3B14745  11.873  18.980   7.955
 6492POPC   C4B14746  11.804  19.022   7.655
 6493POPC   NC314747   7.441  32.260   9.455
 6493POPC   PO414748   7.427  32.237   9.155
 6493POPC   GL114749   7.451  32.232   8.855
 6493POPC   GL214750   7.295  32.149   8.855
 6493POPC   C1A14751   7.465  32.254   8.555
 6493POPC   D2A14752   7.446  32.233   8.255
 6493POPC   C3A14753   7.405  32.288   7.955
 6493POPC   C4A14754   7.376  32.231   7.655
 6493POPC   C1B14755   7.276  32.108   8.555
 6493POPC   C2B14756   7.227  32.083   8.255
 6493POPC   C3B14757   7.256  32.090   7.955
 6493POPC   C4B14758   7.282  32.092   7.655
 6494POPC   NC314759  31.522  26.082   9.455
 6494POPC   PO414760  31.486  26.076   9.155
 6494POPC   GL114761  31.454  26.023   8.855
 6494POPC   GL214762  31.388  26.113   8.855
 6494POPC   C1A14763  31.425  26.063   8.555
 6494POPC   D2A14764  31.490  26.051   8.255
 6494POPC   C3A14765  31.474  26.054   7.955
 6494POPC   C4A14766  31.464  26.025   7.655
 6494POPC   C1B14767  31.238  26.213   8.555
 6494POPC   C2B14768  31.230  26.209   8.255
 6494POPC   C3B14769  31.205  26.198   7.955
 6494POPC   C4B14770  31.239  26.126   7.655
 6495POPC   NC314771   3.516   2.788   9.455
 6495POPC   PO414772   3.500   2.777   9.155
 6495POPC   GL114773   3.557   2.726   8.855
 6495POPC   GL214774   3.681   2.726   8.855
 6495POPC   C1A14775   3.540   2.750   8.555
 6495POPC   D2A14776   3.545   2.805   8.255
 6495POPC   C3A14777   3.576   2.803   7.955
 6495POPC   C4A14778   3.573   2.758   7.655
 6495POPC   C1B14779   3.723   2.684   8.555
 6495POPC   C2B14780   3.747   2.617   8.255
 6495POPC   C3B14781   3.815   2.626   7.955
 6495POPC   C4B14782   3.767   2.679   7.655
 6496POPC   NC314783  31.494  24.447   9.455
 6496POPC   PO414784  31.466  24.476   9.155
 6496POPC   GL114785  31.423  24.515   8.855
 6496POPC   GL214786  31.418  24.632   8.855
 6496POPC   C1A14787  31.475  24.518   8.555
 6496POPC   D2A14788  31.424  24.485   8.255
 6496POPC   C3A14789  31.427  24.505   7.955
 6496POPC   C4A14790  31.436  24.530   7.655
 6496POPC   C1B14791  31.358  24.670   8.555
 6496POPC   C2B14792  31.356  24.716   8.255
 6496POPC   C3B14793  31.347  24.686   7.955
 6496POPC   C4B14794  31.294  24.711   7.655
 6497POPC   NC314795  39.253  42.349   9.455
 6497POPC   PO414796  39.210  42.353   9.155
 6497POPC   GL114797  39.251  42.332   8.855
 6497POPC   GL214798  39.090  42.398   8.855
 6497POPC   C1A14799  39.193  42.351   8.555
 6497POPC   D2A14800  39.256  42.340   8.255
 6497POPC   C3A14801  39.181  42.316   7.955
 6497POPC   C4A14802  39.224  42.348   7.655
 6497POPC   C1B14803  39.051  42.494   8.555
 6497POPC   C2B14804  39.080  42.459   8.255
 6497POPC   C3B14805  39.028  42.542   7.955
 6497POPC   C4B14806  39.067  42.535   7.655
 6498POPC   NC314807   5.917   0.485   9.455
 6498POPC   PO414808   5.872   0.455   9.155
 6498POPC   GL114809   5.871   0.396   8.855
 6498POPC   GL214810   5.794   0.459   8.855
 6498POPC   C1A14811   5.871   0.454   8.555
 6498POPC   D2A14812   5.856   0.429   8.255
 6498POPC   C3A14813   5.856   0.401   7.955
 6498POPC   C4A14814   5.889   0.411   7.655
 6498POPC   C1B14815   5.584   0.493   8.555
 6498POPC   C2B14816   5.647   0.418   8.255
 6498POPC   C3B14817   5.633   0.512   7.955
 6498POPC   C4B14818   5.644   0.496   7.655
 6499POPC   NC314819  21.430  29.908   9.455
 6499POPC   PO414820  21.353  29.884   9.155
 6499POPC   GL114821  21.378  29.922   8.855
 6499POPC   GL214822  21.340  30.018   8.855
 6499POPC   C1A14823  21.382  29.884   8.555
 6499POPC   D2A14824  21.376  29.946   8.255
 6499POPC   C3A14825  21.422  29.948   7.955
 6499POPC   C4A14826  21.350  29.915   7.655
 6499POPC   C1B14827  21.352  30.120   8.555
 6499POPC   C2B14828  21.390  30.193   8.255
 6499POPC   C3B14829  21.351  30.154   7.955
 6499POPC   C4B14830  21.375  30.194   7.655
 6500POPC   NC314831  39.239  20.597   9.455
 6500POPC   PO414832  39.213  20.641   9.155
 6500POPC   GL114833  39.200  20.580   8.855
 6500POPC   GL214834  39.309  20.616   8.855
 6500POPC   C1A14835  39.211  20.645   8.555
 6500POPC   D2A14836  39.281  20.594   8.255
 6500POPC   C3A14837  39.195  20.606   7.955
 6500POPC   C4A14838  39.237  20.633   7.655
 6500POPC   C1B14839  39.521  20.591   8.555
 6500POPC   C2B14840  39.453  20.603   8.255
 6500POPC   C3B14841  39.487  20.595   7.955
 6500POPC   C4B14842  39.527  20.603   7.655
 6501POPC   NC314843  18.280  16.767   9.455
 6501POPC   PO414844  18.251  16.738   9.155
 6501POPC   GL114845  18.329  16.701   8.855
 6501POPC   GL214846  18.158  16.787   8.855
 6501POPC   C1A14847  18.322  16.736   8.555
 6501POPC   D2A14848  18.245  16.745   8.255
 6501POPC   C3A14849  18.307  16.760   7.955
 6501POPC   C4A14850  18.248  16.731   7.655
 6501POPC   C1B14851  18.046  16.835   8.555
 6501POPC   C2B14852  18.059  16.923   8.255
 6501POPC   C3B14853  18.037  16.877   7.955
 6501POPC   C4B14854  18.043  16.856   7.655
 6502POPC   NC314855  36.944  21.365   9.455
 6502POPC   PO414856  36.922  21.408   9.155
 6502POPC   GL114857  36.869  21.393   8.855
 6502POPC   GL214858  37.054  21.289   8.855
 6502POPC   C1A14859  36.915  21.390   8.555
 6502POPC   D2A14860  36.898  21.353   8.255
 6502POPC   C3A14861  36.867  21.403   7.955
 6502POPC   C4A14862  36.874  21.354   7.655
 6502POPC   C1B14863  37.162  21.314   8.555
 6502POPC   C2B14864  37.079  21.269   8.255
 6502POPC   C3B14865  37.159  21.308   7.955
 6502POPC   C4B14866  37.097  21.307   7.655
 6503POPC   NC314867  18.311   1.234   9.455
 6503POPC   PO414868  18.250   1.191   9.155
 6503POPC   GL114869  18.328   1.249   8.855
 6503POPC   GL214870  18.418   1.257   8.855
 6503POPC   C1A14871  18.328   1.238   8.555
 6503POPC   D2A14872  18.247   1.223   8.255
 6503POPC   C3A14873  18.311   1.175   7.955
 6503POPC   C4A14874  18.276   1.197   7.655
 6503POPC   C1B14875  18.502   1.387   8.555
 6503POPC   C2B14876  18.471   1.418   8.255
 6503POPC   C3B14877  18.445   1.403   7.955
 6503POPC   C4B14878  18.505   1.365   7.655
 6504POPC   NC314879   2.764  38.443   9.455
 6504POPC   PO414880   2.765  38.481   9.155
 6504POPC   GL114881   2.736  38.472   8.855
 6504POPC   GL214882   2.611  38.500   8.855
 6504POPC   C1A14883   2.723  38.477   8.555
 6504POPC   D2A14884   2.771  38.503   8.255
 6504POPC   C3A14885   2.765  38.461   7.955
 6504POPC   C4A14886   2.763  38.442   7.655
 6504POPC   C1B14887   2.489  38.444   8.555
 6504POPC   C2B14888   2.499  38.499   8.255
 6504POPC   C3B14889   2.539  38.442   7.955
 6504POPC   C4B14890   2.496  38.425   7.655
 6505POPC   NC314891   1.968  22.134   9.455
 6505POPC   PO414892   1.940  22.136   9.155
 6505POPC   GL114893   2.031  22.121   8.855
 6505POPC   GL214894   2.017  22.273   8.855
 6505POPC   C1A14895   2.021  22.125   8.555
 6505POPC   D2A14896   1.997  22.125   8.255
 6505POPC   C3A14897   2.039  22.154   7.955
 6505POPC   C4A14898   1.969  22.185   7.655
 6505POPC   C1B14899   2.008  22.448   8.555
 6505POPC   C2B14900   2.014  22.394   8.255
 6505POPC   C3B14901   2.050  22.382   7.955
 6505POPC   C4B14902   2.001  22.389   7.655
 6506POPC   NC314903  34.598   2.030   9.455
 6506POPC   PO414904  34.597   2.028   9.155
 6506POPC   GL114905  34.546   1.972   8.855
 6506POPC   GL214906  34.695   1.915   8.855
 6506POPC   C1A14907  34.581   2.011   8.555
 6506POPC   D2A14908  34.599   1.959   8.255
 6506POPC   C3A14909  34.582   2.019   7.955
 6506POPC   C4A14910  34.544   2.014   7.655
 6506POPC   C1B14911  34.828   1.853   8.555
 6506POPC   C2B14912  34.775   1.887   8.255
 6506POPC   C3B14913  34.765   1.883   7.955
 6506POPC   C4B14914  34.822   1.929   7.655
 6507POPC   NC314915  35.317   2.795   9.455
 6507POPC   PO414916  35.376   2.771   9.155
 6507POPC   GL114917  35.324   2.756   8.855
 6507POPC   GL214918  35.259   2.862   8.855
 6507POPC   C1A14919  35.364   2.775   8.555
 6507POPC   D2A14920  35.387   2.779   8.255
 6507POPC   C3A14921  35.336   2.811   7.955
 6507POPC   C4A14922  35.396   2.789   7.655
 6507POPC   C1B14923  35.145   2.918   8.555
 6507POPC   C2B14924  35.200   2.928   8.255
 6507POPC   C3B14925  35.165   2.948   7.955
 6507POPC   C4B14926  35.217   2.905   7.655
 6508POPC   NC314927   7.414  18.302   9.455
 6508POPC   PO414928   7.439  18.254   9.155
 6508POPC   GL114929   7.386  18.300   8.855
 6508POPC   GL214930   7.473  18.402   8.855
 6508POPC   C1A14931   7.400  18.315   8.555
 6508POPC   D2A14932   7.399  18.247   8.255
 6508POPC   C3A14933   7.408  18.281   7.955
 6508POPC   C4A14934   7.403  18.273   7.655
 6508POPC   C1B14935   7.390  18.502   8.555
 6508POPC   C2B14936   7.411  18.549   8.255
 6508POPC   C3B14937   7.420  18.562   7.955
 6508POPC   C4B14938   7.389  18.567   7.655
 6509POPC   NC314939   4.314   8.956   9.455
 6509POPC   PO414940   4.268   8.992   9.155
 6509POPC   GL114941   4.311   8.987   8.855
 6509POPC   GL214942   4.373   8.910   8.855
 6509POPC   C1A14943   4.339   8.936   8.555
 6509POPC   D2A14944   4.320   8.986   8.255
 6509POPC   C3A14945   4.349   8.975   7.955
 6509POPC   C4A14946   4.336   8.931   7.655
 6509POPC   C1B14947   4.472   8.781   8.555
 6509POPC   C2B14948   4.468   8.865   8.255
 6509POPC   C3B14949   4.550   8.790   7.955
 6509POPC   C4B14950   4.501   8.868   7.655
 6510POPC   NC314951   8.238  15.933   9.455
 6510POPC   PO414952   8.180  15.929   9.155
 6510POPC   GL114953   8.188  15.928   8.855
 6510POPC   GL214954   8.087  16.009   8.855
 6510POPC   C1A14955   8.195  15.992   8.555
 6510POPC   D2A14956   8.173  15.957   8.255
 6510POPC   C3A14957   8.192  15.912   7.955
 6510POPC   C4A14958   8.173  15.981   7.655
 6510POPC   C1B14959   7.956  16.040   8.555
 6510POPC   C2B14960   7.967  16.097   8.255
 6510POPC   C3B14961   8.006  16.044   7.955
 6510POPC   C4B14962   8.014  16.047   7.655
 6511POPC   NC314963   4.278  27.603   9.455
 6511POPC   PO414964   4.349  27.598   9.155
 6511POPC   GL114965   4.267  27.550   8.855
 6511POPC   GL214966   4.217  27.503   8.855
 6511POPC   C1A14967   4.362  27.571   8.555
 6511POPC   D2A14968   4.331  27.598   8.255
 6511POPC   C3A14969   4.330  27.630   7.955
 6511POPC   C4A14970   4.325  27.548   7.655
 6511POPC   C1B14971   4.129  27.493   8.555
 6511POPC   C2B14972   4.059  27.446   8.255
 6511POPC   C3B14973   4.116  27.424   7.955
 6511POPC   C4B14974   4.105  27.458   7.655
 6512POPC   NC314975   8.987  27.639   9.455
 6512POPC   PO414976   8.998  27.553   9.155
 6512POPC   GL114977   8.979  27.561   8.855
 6512POPC   GL214978   9.093  27.627   8.855
 6512POPC   C1A14979   8.956  27.573   8.555
 6512POPC   D2A14980   8.936  27.569   8.255
 6512POPC   C3A14981   8.991  27.605   7.955
 6512POPC   C4A14982   8.958  27.572   7.655
 6512POPC   C1B14983   9.207  27.635   8.555
 6512POPC   C2B14984   9.189  27.682   8.255
 6512POPC   C3B14985   9.214  27.619   7.955
 6512POPC   C4B14986   9.262  27.668   7.655
 6513POPC   NC314987  27.634  11.253   9.455
 6513POPC   PO414988  27.609  11.316   9.155
 6513POPC   GL114989  27.624  11.273   8.855
 6513POPC   GL214990  27.635  11.361   8.855
 6513POPC   C1A14991  27.593  11.271   8.555
 6513POPC   D2A14992  27.561  11.340   8.255
 6513POPC   C3A14993  27.581  11.253   7.955
 6513POPC   C4A14994  27.580  11.263   7.655
 6513POPC   C1B14995  27.734  11.493   8.555
 6513POPC   C2B14996  27.749  11.446   8.255
 6513POPC   C3B14997  27.740  11.505   7.955
 6513POPC   C4B14998  27.731  11.441   7.655
 6514POPC   NC314999  33.069  33.814   9.455
 6514POPC   PO415000  33.034  33.785   9.155
 6514POPC   GL115001  32.985  33.778   8.855
 6514POPC   GL215002  33.121  33.720   8.855
 6514POPC   C1A15003  32.977  33.804   8.555
 6514POPC   D2A15004  32.992  33.844   8.255
 6514POPC   C3A15005  33.028  33.770   7.955
 6514POPC   C4A15006  32.981  33.848   7.655
 6514POPC   C1B15007  33.238  33.648   8.555
 6514POPC   C2B15008  33.184  33.627   8.255
 6514POPC   C3B15009  33.187  33.590   7.955
 6514POPC   C4B15010  33.226  33.612   7.655
 6515POPC   NC315011  26.857  16.701   9.455
 6515POPC   PO415012  26.828  16.757   9.155
 6515POPC   GL115013  26.798  16.711   8.855
 6515POPC   GL215014  26.945  16.832   8.855
 6515POPC   C1A15015  26.835  16.723   8.555
 6515POPC   D2A15016  26.835  16.718   8.255
 6515POPC   C3A15017  26.834  16.726   7.955
 6515POPC   C4A15018  26.770  16.724   7.655
 6515POPC   C1B15019  26.955  16.925   8.555
 6515POPC   C2B15020  27.030  16.902   8.255
 6515POPC   C3B15021  27.018  16.912   7.955
 6515POPC   C4B15022  26.983  16.943   7.655
 6516POPC   NC315023  37.675   5.830   9.455
 6516POPC   PO415024  37.710   5.844   9.155
 6516POPC   GL115025  37.703   5.854   8.855
 6516POPC   GL215026  37.544   5.856   8.855
 6516POPC   C1A15027  37.686   5.836   8.555
 6516POPC   D2A15028  37.681   5.851   8.255
 6516POPC   C3A15029  37.719   5.885   7.955
 6516POPC   C4A15030  37.719   5.897   7.655
 6516POPC   C1B15031  37.389   5.947   8.555
 6516POPC   C2B15032  37.463   5.987   8.255
 6516POPC   C3B15033  37.418   5.965   7.955
 6516POPC   C4B15034  37.478   5.970   7.655
 6517POPC   NC315035  33.764  41.530   9.455
 6517POPC   PO415036  33.774  41.531   9.155
 6517POPC   GL115037  33.831  41.533   8.855
 6517POPC   GL215038  33.923  41.628   8.855
 6517POPC   C1A15039  33.750  41.600   8.555
 6517POPC   D2A15040  33.813  41.583   8.255
 6517POPC   C3A15041  33.773  41.602   7.955
 6517POPC   C4A15042  33.751  41.557   7.655
 6517POPC   C1B15043  34.044  41.618   8.555
 6517POPC   C2B15044  34.036  41.599   8.255
 6517POPC   C3B15045  34.015  41.618   7.955
 6517POPC   C4B15046  34.003  41.596   7.655
 6518POPC   NC315047  34.580  42.325   9.455
 6518POPC   PO415048  34.604  42.366   9.155
 6518POPC   GL115049  34.598  42.332   8.855
 6518POPC   GL215050  34.695  42.292   8.855
 6518POPC   C1A15051  34.598  42.305   8.555
 6518POPC   D2A15052  34.529  42.357   8.255
 6518POPC   C3A15053  34.566  42.369   7.955
 6518POPC   C4A15054  34.574  42.338   7.655
 6518POPC   C1B15055  34.821  42.312   8.555
 6518POPC   C2B15056  34.822  42.300   8.255
 6518POPC   C3B15057  34.791  42.350   7.955
 6518POPC   C4B15058  34.832  42.265   7.655
 6519POPC   NC315059   3.575  19.884   9.455
 6519POPC   PO415060   3.524  19.825   9.155
 6519POPC   GL115061   3.542  19.794   8.855
 6519POPC   GL215062   3.493  19.914   8.855
 6519POPC   C1A15063   3.495  19.829   8.555
 6519POPC   D2A15064   3.578  19.857   8.255
 6519POPC   C3A15065   3.558  19.844   7.955
 6519POPC   C4A15066   3.576  19.872   7.655
 6519POPC   C1B15067   3.506  20.064   8.555
 6519POPC   C2B15068   3.457  20.046   8.255
 6519POPC   C3B15069   3.471  20.128   7.955
 6519POPC   C4B15070   3.513  20.036   7.655
 6520POPC   NC315071  37.718  43.074   9.455
 6520POPC   PO415072  37.660  43.149   9.155
 6520POPC   GL115073  37.692  43.131   8.855
 6520POPC   GL215074  37.841  43.208   8.855
 6520POPC   C1A15075  37.727  43.081   8.555
 6520POPC   D2A15076  37.698  43.137   8.255
 6520POPC   C3A15077  37.679  43.072   7.955
 6520POPC   C4A15078  37.675  43.104   7.655
 6520POPC   C1B15079  37.900  43.164   8.555
 6520POPC   C2B15080  37.934  43.232   8.255
 6520POPC   C3B15081  37.874  43.235   7.955
 6520POPC   C4B15082  37.891  43.248   7.655
 6521POPC   NC315083   5.141  16.685   9.455
 6521POPC   PO415084   5.103  16.773   9.155
 6521POPC   GL115085   5.048  16.702   8.855
 6521POPC   GL215086   5.148  16.826   8.855
 6521POPC   C1A15087   5.094  16.776   8.555
 6521POPC   D2A15088   5.087  16.721   8.255
 6521POPC   C3A15089   5.073  16.769   7.955
 6521POPC   C4A15090   5.102  16.702   7.655
 6521POPC   C1B15091   5.199  16.992   8.555
 6521POPC   C2B15092   5.143  16.926   8.255
 6521POPC   C3B15093   5.181  16.987   7.955
 6521POPC   C4B15094   5.207  16.959   7.655
 6522POPC   NC315095   8.213  26.034   9.455
 6522POPC   PO415096   8.214  26.032   9.155
 6522POPC   GL115097   8.170  26.022   8.855
 6522POPC   GL215098   8.350  26.055   8.855
 6522POPC   C1A15099   8.189  26.018   8.555
 6522POPC   D2A15100   8.223  26.051   8.255
 6522POPC   C3A15101   8.162  26.065   7.955
 6522POPC   C4A15102   8.156  26.078   7.655
 6522POPC   C1B15103   8.455  26.032   8.555
 6522POPC   C2B15104   8.459  25.996   8.255
 6522POPC   C3B15105   8.458  25.977   7.955
 6522POPC   C4B15106   8.391  26.001   7.655
 6523POPC   NC315107  36.121  22.137   9.455
 6523POPC   PO415108  36.158  22.196   9.155
 6523POPC   GL115109  36.156  22.166   8.855
 6523POPC   GL215110  36.266  22.176   8.855
 6523POPC   C1A15111  36.150  22.167   8.555
 6523POPC   D2A15112  36.170  22.112   8.255
 6523POPC   C3A15113  36.158  22.143   7.955
 6523POPC   C4A15114  36.138  22.146   7.655
 6523POPC   C1B15115  36.358  22.331   8.555
 6523POPC   C2B15116  36.366  22.245   8.255
 6523POPC   C3B15117  36.367  22.282   7.955
 6523POPC   C4B15118  36.326  22.317   7.655
 6524POPC   NC315119   5.823  42.286   9.455
 6524POPC   PO415120   5.853  42.375   9.155
 6524POPC   GL115121   5.826  42.376   8.855
 6524POPC   GL215122   5.786  42.449   8.855
 6524POPC   C1A15123   5.835  42.323   8.555
 6524POPC   D2A15124   5.852  42.307   8.255
 6524POPC   C3A15125   5.884  42.346   7.955
 6524POPC   C4A15126   5.822  42.362   7.655
 6524POPC   C1B15127   5.675  42.447   8.555
 6524POPC   C2B15128   5.668  42.529   8.255
 6524POPC   C3B15129   5.709  42.500   7.955
 6524POPC   C4B15130   5.653  42.522   7.655
 6525POPC   NC315131  21.417  42.340   9.455
 6525POPC   PO415132  21.401  42.296   9.155
 6525POPC   GL115133  21.388  42.334   8.855
 6525POPC   GL215134  21.508  42.358   8.855
 6525POPC   C1A15135  21.374  42.362   8.555
 6525POPC   D2A15136  21.368  42.339   8.255
 6525POPC   C3A15137  21.336  42.350   7.955
 6525POPC   C4A15138  21.377  42.339   7.655
 6525POPC   C1B15139  21.629  42.360   8.555
 6525POPC   C2B15140  21.636  42.353   8.255
 6525POPC   C3B15141  21.604  42.391   7.955
 6525POPC   C4B15142  21.624  42.382   7.655
 6526POPC   NC315143  30.719  14.444   9.455
 6526POPC   PO415144  30.740  14.448   9.155
 6526POPC   GL115145  30.730  14.445   8.855
 6526POPC   GL215146  30.735  14.302   8.855
 6526POPC   C1A15147  30.656  14.372   8.555
 6526POPC   D2A15148  30.666  14.410   8.255
 6526POPC   C3A15149  30.696  14.364   7.955
 6526POPC   C4A15150  30.652  14.421   7.655
 6526POPC   C1B15151  30.842  14.137   8.555
 6526POPC   C2B15152  30.817  14.158   8.255
 6526POPC   C3B15153  30.817  14.160   7.955
 6526POPC   C4B15154  30.792  14.144   7.655
 6527POPC   NC315155  15.962  12.885   9.455
 6527POPC   PO415156  15.956  12.827   9.155
 6527POPC   GL115157  15.995  12.842   8.855
 6527POPC   GL215158  16.039  12.946   8.855
 6527POPC   C1A15159  15.983  12.879   8.555
 6527POPC   D2A15160  15.986  12.891   8.255
 6527POPC   C3A15161  15.994  12.826   7.955
 6527POPC   C4A15162  15.983  12.850   7.655
 6527POPC   C1B15163  16.110  13.011   8.555
 6527POPC   C2B15164  16.154  13.093   8.255
 6527POPC   C3B15165  16.098  13.029   7.955
 6527POPC   C4B15166  16.087  13.087   7.655
 6528POPC   NC315167  44.622  22.179   9.455
 6528POPC   PO415168  44.667  22.161   9.155
 6528POPC   GL115169  44.676  22.187   8.855
 6528POPC   GL215170  44.593  22.268   8.855
 6528POPC   C1A15171  44.689  22.135   8.555
 6528POPC   D2A15172  44.679  22.203   8.255
 6528POPC   C3A15173  44.645  22.132   7.955
 6528POPC   C4A15174  44.629  22.178   7.655
 6528POPC   C1B15175  44.447  22.322   8.555
 6528POPC   C2B15176  44.474  22.348   8.255
 6528POPC   C3B15177  44.458  22.346   7.955
 6528POPC   C4B15178  44.425  22.288   7.655
 6529POPC   NC315179  17.523   0.418   9.455
 6529POPC   PO415180  17.505   0.389   9.155
 6529POPC   GL115181  17.540   0.481   8.855
 6529POPC   GL215182  17.393   0.356   8.855
 6529POPC   C1A15183  17.504   0.454   8.555
 6529POPC   D2A15184  17.458   0.479   8.255
 6529POPC   C3A15185  17.527   0.483   7.955
 6529POPC   C4A15186  17.522   0.458   7.655
 6529POPC   C1B15187  17.308   0.305   8.555
 6529POPC   C2B15188  17.255   0.329   8.255
 6529POPC   C3B15189  17.297   0.327   7.955
 6529POPC   C4B15190  17.293   0.255   7.655
 6530POPC   NC315191   0.479  29.122   9.455
 6530POPC   PO415192   0.427  29.153   9.155
 6530POPC   GL115193   0.397  29.182   8.855
 6530POPC   GL215194   0.473  29.266   8.855
 6530POPC   C1A15195   0.458  29.165   8.555
 6530POPC   D2A15196   0.482  29.179   8.255
 6530POPC   C3A15197   0.454  29.176   7.955
 6530POPC   C4A15198   0.485  29.097   7.655
 6530POPC   C1B15199   0.589  29.385   8.555
 6530POPC   C2B15200   0.548  29.365   8.255
 6530POPC   C3B15201   0.515  29.376   7.955
 6530POPC   C4B15202   0.581  29.407   7.655
 6531POPC   NC315203  20.621  10.564   9.455
 6531POPC   PO415204  20.603  10.477   9.155
 6531POPC   GL115205  20.621  10.494   8.855
 6531POPC   GL215206  20.553  10.363   8.855
 6531POPC   C1A15207  20.589  10.551   8.555
 6531POPC   D2A15208  20.589  10.497   8.255
 6531POPC   C3A15209  20.593  10.522   7.955
 6531POPC   C4A15210  20.653  10.545   7.655
 6531POPC   C1B15211  20.573  10.305   8.555
 6531POPC   C2B15212  20.513  10.251   8.255
 6531POPC   C3B15213  20.571  10.281   7.955
 6531POPC   C4B15214  20.562  10.320   7.655
 6532POPC   NC315215  39.188   4.351   9.455
 6532POPC   PO415216  39.280   4.350   9.155
 6532POPC   GL115217  39.243   4.357   8.855
 6532POPC   GL215218  39.206   4.196   8.855
 6532POPC   C1A15219  39.186   4.326   8.555
 6532POPC   D2A15220  39.257   4.314   8.255
 6532POPC   C3A15221  39.263   4.300   7.955
 6532POPC   C4A15222  39.246   4.288   7.655
 6532POPC   C1B15223  39.296   4.093   8.555
 6532POPC   C2B15224  39.308   4.106   8.255
 6532POPC   C3B15225  39.282   4.037   7.955
 6532POPC   C4B15226  39.251   4.031   7.655
 6533POPC   NC315227  26.769  12.841   9.455
 6533POPC   PO415228  26.783  12.878   9.155
 6533POPC   GL115229  26.793  12.844   8.855
 6533POPC   GL215230  26.687  12.829   8.855
 6533POPC   C1A15231  26.861  12.883   8.555
 6533POPC   D2A15232  26.859  12.894   8.255
 6533POPC   C3A15233  26.811  12.870   7.955
 6533POPC   C4A15234  26.815  12.897   7.655
 6533POPC   C1B15235  26.612  12.824   8.555
 6533POPC   C2B15236  26.548  12.839   8.255
 6533POPC   C3B15237  26.599  12.839   7.955
 6533POPC   C4B15238  26.556  12.748   7.655
 6534POPC   NC315239  16.733   4.294   9.455
 6534POPC   PO415240  16.770   4.350   9.155
 6534POPC   GL115241  16.768   4.314   8.855
 6534POPC   GL215242  16.835   4.272   8.855
 6534POPC   C1A15243  16.763   4.279   8.555
 6534POPC   D2A15244  16.776   4.348   8.255
 6534POPC   C3A15245  16.696   4.291   7.955
 6534POPC   C4A15246  16.694   4.321   7.655
 6534POPC   C1B15247  16.921   4.224   8.555
 6534POPC   C2B15248  16.943   4.232   8.255
 6534POPC   C3B15249  16.980   4.217   7.955
 6534POPC   C4B15250  16.929   4.175   7.655
 6535POPC   NC315251  39.999  29.177   9.455
 6535POPC   PO415252  40.051  29.190   9.155
 6535POPC   GL115253  39.975  29.098   8.855
 6535POPC   GL215254  40.002  29.044   8.855
 6535POPC   C1A15255  40.003  29.112   8.555
 6535POPC   D2A15256  40.012  29.191   8.255
 6535POPC   C3A15257  39.975  29.168   7.955
 6535POPC   C4A15258  40.015  29.184   7.655
 6535POPC   C1B15259  40.002  28.923   8.555
 6535POPC   C2B15260  39.992  28.847   8.255
 6535POPC   C3B15261  39.981  28.852   7.955
 6535POPC   C4B15262  40.043  28.920   7.655
 6536POPC   NC315263   8.239  43.855   9.455
 6536POPC   PO415264   8.173  43.847   9.155
 6536POPC   GL115265   8.235  43.854   8.855
 6536POPC   GL215266   8.335  43.945   8.855
 6536POPC   C1A15267   8.201  43.851   8.555
 6536POPC   D2A15268   8.232  43.848   8.255
 6536POPC   C3A15269   8.215  43.885   7.955
 6536POPC   C4A15270   8.164  43.899   7.655
 6536POPC   C1B15271   8.371  44.095   8.555
 6536POPC   C2B15272   8.419  44.065   8.255
 6536POPC   C3B15273   8.367  44.063   7.955
 6536POPC   C4B15274   8.411  44.033   7.655
 6537POPC   NC315275  12.834   2.717   9.455
 6537POPC   PO415276  12.846   2.716   9.155
 6537POPC   GL115277  12.842   2.762   8.855
 6537POPC   GL215278  12.860   2.675   8.855
 6537POPC   C1A15279  12.844   2.739   8.555
 6537POPC   D2A15280  12.862   2.811   8.255
 6537POPC   C3A15281  12.852   2.750   7.955
 6537POPC   C4A15282  12.817   2.769   7.655
 6537POPC   C1B15283  12.863   2.536   8.555
 6537POPC   C2B15284  12.833   2.524   8.255
 6537POPC   C3B15285  12.835   2.538   7.955
 6537POPC   C4B15286  12.813   2.536   7.655
 6538POPC   NC315287  31.507  33.809   9.455
 6538POPC   PO415288  31.464  33.822   9.155
 6538POPC   GL115289  31.467  33.762   8.855
 6538POPC   GL215290  31.380  33.734   8.855
 6538POPC   C1A15291  31.428  33.820   8.555
 6538POPC   D2A15292  31.456  33.831   8.255
 6538POPC   C3A15293  31.454  33.797   7.955
 6538POPC   C4A15294  31.500  33.835   7.655
 6538POPC   C1B15295  31.292  33.658   8.555
 6538POPC   C2B15296  31.235  33.636   8.255
 6538POPC   C3B15297  31.288  33.631   7.955
 6538POPC   C4B15298  31.261  33.637   7.655
 6539POPC   NC315299   5.051  21.404   9.455
 6539POPC   PO415300   5.099  21.339   9.155
 6539POPC   GL115301   5.117  21.410   8.855
 6539POPC   GL215302   4.974  21.329   8.855
 6539POPC   C1A15303   5.094  21.426   8.555
 6539POPC   D2A15304   5.081  21.427   8.255
 6539POPC   C3A15305   5.078  21.400   7.955
 6539POPC   C4A15306   5.139  21.399   7.655
 6539POPC   C1B15307   4.926  21.218   8.555
 6539POPC   C2B15308   4.877  21.251   8.255
 6539POPC   C3B15309   4.900  21.194   7.955
 6539POPC   C4B15310   4.909  21.222   7.655
 6540POPC   NC315311  22.976  44.694   9.455
 6540POPC   PO415312  22.899  44.634   9.155
 6540POPC   GL115313  22.945  44.624   8.855
 6540POPC   GL215314  22.921  44.575   8.855
 6540POPC   C1A15315  22.959  44.628   8.555
 6540POPC   D2A15316  22.978  44.634   8.255
 6540POPC   C3A15317  22.927  44.653   7.955
 6540POPC   C4A15318  22.983  44.615   7.655
 6540POPC   C1B15319  22.856  44.455   8.555
 6540POPC   C2B15320  22.865  44.435   8.255
 6540POPC   C3B15321  22.845  44.434   7.955
 6540POPC   C4B15322  22.863  44.426   7.655
 6541POPC   NC315323  13.589   1.262   9.455
 6541POPC   PO415324  13.625   1.208   9.155
 6541POPC   GL115325  13.666   1.195   8.855
 6541POPC   GL215326  13.749   1.100   8.855
 6541POPC   C1A15327  13.585   1.262   8.555
 6541POPC   D2A15328  13.628   1.197   8.255
 6541POPC   C3A15329  13.592   1.252   7.955
 6541POPC   C4A15330  13.640   1.186   7.655
 6541POPC   C1B15331  13.818   0.982   8.555
 6541POPC   C2B15332  13.776   1.066   8.255
 6541POPC   C3B15333  13.746   0.970   7.955
 6541POPC   C4B15334  13.770   1.002   7.655
 6542POPC   NC315335  15.151  11.338   9.455
 6542POPC   PO415336  15.148  11.321   9.155
 6542POPC   GL115337  15.214  11.314   8.855
 6542POPC   GL215338  15.260  11.391   8.855
 6542POPC   C1A15339  15.215  11.349   8.555
 6542POPC   D2A15340  15.187  11.343   8.255
 6542POPC   C3A15341  15.203  11.292   7.955
 6542POPC   C4A15342  15.137  11.288   7.655
 6542POPC   C1B15343  15.312  11.474   8.555
 6542POPC   C2B15344  15.327  11.445   8.255
 6542POPC   C3B15345  15.360  11.530   7.955
 6542POPC   C4B15346  15.386  11.497   7.655
 6543POPC   NC315347   9.731  26.039   9.455
 6543POPC   PO415348   9.705  26.037   9.155
 6543POPC   GL115349   9.709  26.082   8.855
 6543POPC   GL215350   9.609  26.077   8.855
 6543POPC   C1A15351   9.706  26.006   8.555
 6543POPC   D2A15352   9.776  26.048   8.255
 6543POPC   C3A15353   9.769  26.057   7.955
 6543POPC   C4A15354   9.724  26.077   7.655
 6543POPC   C1B15355   9.462  26.081   8.555
 6543POPC   C2B15356   9.530  25.999   8.255
 6543POPC   C3B15357   9.490  26.075   7.955
 6543POPC   C4B15358   9.500  25.997   7.655
 6544POPC   NC315359  44.657  20.645   9.455
 6544POPC   PO415360  44.684  20.582   9.155
 6544POPC   GL115361  44.623  20.643   8.855
 6544POPC   GL215362  44.624  20.720   8.855
 6544POPC   C1A15363  44.639  20.607   8.555
 6544POPC   D2A15364  44.613  20.570   8.255
 6544POPC   C3A15365  44.682  20.585   7.955
 6544POPC   C4A15366  44.702  20.643   7.655
 6544POPC   C1B15367  44.638  20.829   8.555
 6544POPC   C2B15368  44.620  20.847   8.255
 6544POPC   C3B15369  44.643  20.843   7.955
 6544POPC   C4B15370  44.605  20.831   7.655
 6545POPC   NC315371  10.492   0.441   9.455
 6545POPC   PO415372  10.556   0.411   9.155
 6545POPC   GL115373  10.522   0.465   8.855
 6545POPC   GL215374  10.464   0.534   8.855
 6545POPC   C1A15375  10.488   0.466   8.555
 6545POPC   D2A15376  10.511   0.467   8.255
 6545POPC   C3A15377  10.499   0.461   7.955
 6545POPC   C4A15378  10.536   0.465   7.655
 6545POPC   C1B15379  10.341   0.686   8.555
 6545POPC   C2B15380  10.412   0.649   8.255
 6545POPC   C3B15381  10.405   0.641   7.955
 6545POPC   C4B15382  10.379   0.657   7.655
 6546POPC   NC315383   1.190   6.652   9.455
 6546POPC   PO415384   1.191   6.637   9.155
 6546POPC   GL115385   1.230   6.666   8.855
 6546POPC   GL215386   1.331   6.770   8.855
 6546POPC   C1A15387   1.186   6.662   8.555
 6546POPC   D2A15388   1.243   6.604   8.255
 6546POPC   C3A15389   1.224   6.662   7.955
 6546POPC   C4A15390   1.222   6.669   7.655
 6546POPC   C1B15391   1.387   6.809   8.555
 6546POPC   C2B15392   1.402   6.785   8.255
 6546POPC   C3B15393   1.367   6.867   7.955
 6546POPC   C4B15394   1.354   6.808   7.655
 6547POPC   NC315395  21.375  39.981   9.455
 6547POPC   PO415396  21.361  40.032   9.155
 6547POPC   GL115397  21.363  40.057   8.855
 6547POPC   GL215398  21.543  40.007   8.855
 6547POPC   C1A15399  21.340  40.034   8.555
 6547POPC   D2A15400  21.376  39.986   8.255
 6547POPC   C3A15401  21.376  39.969   7.955
 6547POPC   C4A15402  21.419  40.040   7.655
 6547POPC   C1B15403  21.656  39.981   8.555
 6547POPC   C2B15404  21.587  39.986   8.255
 6547POPC   C3B15405  21.626  39.986   7.955
 6547POPC   C4B15406  21.598  39.922   7.655
 6548POPC   NC315407  23.715  27.591   9.455
 6548POPC   PO415408  23.670  27.590   9.155
 6548POPC   GL115409  23.685  27.603   8.855
 6548POPC   GL215410  23.710  27.734   8.855
 6548POPC   C1A15411  23.736  27.603   8.555
 6548POPC   D2A15412  23.675  27.580   8.255
 6548POPC   C3A15413  23.673  27.580   7.955
 6548POPC   C4A15414  23.680  27.632   7.655
 6548POPC   C1B15415  23.834  27.794   8.555
 6548POPC   C2B15416  23.762  27.815   8.255
 6548POPC   C3B15417  23.759  27.806   7.955
 6548POPC   C4B15418  23.770  27.833   7.655
 6549POPC   NC315419   8.221  30.720   9.455
 6549POPC   PO415420   8.240  30.713   9.155
 6549POPC   GL115421   8.233  30.724   8.855
 6549POPC   GL215422   8.289  30.669   8.855
 6549POPC   C1A15423   8.192  30.661   8.555
 6549POPC   D2A15424   8.150  30.711   8.255
 6549POPC   C3A15425   8.190  30.677   7.955
 6549POPC   C4A15426   8.237  30.709   7.655
 6549POPC   C1B15427   8.484  30.740   8.555
 6549POPC   C2B15428   8.420  30.731   8.255
 6549POPC   C3B15429   8.412  30.759   7.955
 6549POPC   C4B15430   8.431  30.694   7.655
 6550POPC   NC315431  25.300  34.563   9.455
 6550POPC   PO415432  25.294  34.544   9.155
 6550POPC   GL115433  25.274  34.569   8.855
 6550POPC   GL215434  25.371  34.550   8.855
 6550POPC   C1A15435  25.270  34.565   8.555
 6550POPC   D2A15436  25.270  34.550   8.255
 6550POPC   C3A15437  25.262  34.538   7.955
 6550POPC   C4A15438  25.218  34.532   7.655
 6550POPC   C1B15439  25.460  34.407   8.555
 6550POPC   C2B15440  25.430  34.467   8.255
 6550POPC   C3B15441  25.480  34.451   7.955
 6550POPC   C4B15442  25.514  34.456   7.655
 6551POPC   NC315443  34.620  19.013   9.455
 6551POPC   PO415444  34.559  19.063   9.155
 6551POPC   GL115445  34.558  19.018   8.855
 6551POPC   GL215446  34.455  19.124   8.855
 6551POPC   C1A15447  34.538  19.094   8.555
 6551POPC   D2A15448  34.625  19.079   8.255
 6551POPC   C3A15449  34.544  19.080   7.955
 6551POPC   C4A15450  34.583  19.104   7.655
 6551POPC   C1B15451  34.417  19.258   8.555
 6551POPC   C2B15452  34.462  19.257   8.255
 6551POPC   C3B15453  34.454  19.303   7.955
 6551POPC   C4B15454  34.453  19.310   7.655
 6552POPC   NC315455   1.972   7.419   9.455
 6552POPC   PO415456   1.970   7.437   9.155
 6552POPC   GL115457   1.975   7.377   8.855
 6552POPC   GL215458   1.943   7.272   8.855
 6552POPC   C1A15459   1.956   7.393   8.555
 6552POPC   D2A15460   1.969   7.468   8.255
 6552POPC   C3A15461   1.998   7.440   7.955
 6552POPC   C4A15462   1.967   7.405   7.655
 6552POPC   C1B15463   1.839   7.191   8.555
 6552POPC   C2B15464   1.797   7.205   8.255
 6552POPC   C3B15465   1.876   7.186   7.955
 6552POPC   C4B15466   1.816   7.193   7.655
 6553POPC   NC315467   8.938  13.589   9.455
 6553POPC   PO415468   8.977  13.611   9.155
 6553POPC   GL115469   8.995  13.597   8.855
 6553POPC   GL215470   9.021  13.797   8.855
 6553POPC   C1A15471   9.006  13.640   8.555
 6553POPC   D2A15472   9.002  13.621   8.255
 6553POPC   C3A15473   8.986  13.593   7.955
 6553POPC   C4A15474   8.941  13.596   7.655
 6553POPC   C1B15475   8.954  13.854   8.555
 6553POPC   C2B15476   8.999  13.830   8.255
 6553POPC   C3B15477   8.970  13.911   7.955
 6553POPC   C4B15478   8.941  13.924   7.655
 6554POPC   NC315479  43.893  40.773   9.455
 6554POPC   PO415480  43.864  40.748   9.155
 6554POPC   GL115481  43.853  40.749   8.855
 6554POPC   GL215482  43.769  40.758   8.855
 6554POPC   C1A15483  43.900  40.757   8.555
 6554POPC   D2A15484  43.909  40.786   8.255
 6554POPC   C3A15485  43.921  40.774   7.955
 6554POPC   C4A15486  43.934  40.800   7.655
 6554POPC   C1B15487  43.637  40.736   8.555
 6554POPC   C2B15488  43.694  40.698   8.255
 6554POPC   C3B15489  43.696  40.685   7.955
 6554POPC   C4B15490  43.642  40.649   7.655
 6555POPC   NC315491  18.272  11.306   9.455
 6555POPC   PO415492  18.320  11.328   9.155
 6555POPC   GL115493  18.296  11.276   8.855
 6555POPC   GL215494  18.376  11.213   8.855
 6555POPC   C1A15495  18.295  11.332   8.555
 6555POPC   D2A15496  18.235  11.259   8.255
 6555POPC   C3A15497  18.283  11.274   7.955
 6555POPC   C4A15498  18.248  11.283   7.655
 6555POPC   C1B15499  18.458  11.117   8.555
 6555POPC   C2B15500  18.385  11.146   8.255
 6555POPC   C3B15501  18.394  11.141   7.955
 6555POPC   C4B15502  18.441  11.111   7.655
 6556POPC   NC315503  12.879  14.365   9.455
 6556POPC   PO415504  12.837  14.447   9.155
 6556POPC   GL115505  12.830  14.363   8.855
 6556POPC   GL215506  12.796  14.487   8.855
 6556POPC   C1A15507  12.816  14.414   8.555
 6556POPC   D2A15508  12.826  14.375   8.255
 6556POPC   C3A15509  12.804  14.416   7.955
 6556POPC   C4A15510  12.827  14.391   7.655
 6556POPC   C1B15511  12.710  14.628   8.555
 6556POPC   C2B15512  12.787  14.641   8.255
 6556POPC   C3B15513  12.760  14.646   7.955
 6556POPC   C4B15514  12.698  14.621   7.655
 6557POPC   NC315515   4.334  13.608   9.455
 6557POPC   PO415516   4.279  13.631   9.155
 6557POPC   GL115517   4.270  13.592   8.855
 6557POPC   GL215518   4.245  13.483   8.855
 6557POPC   C1A15519   4.318  13.637   8.555
 6557POPC   D2A15520   4.338  13.667   8.255
 6557POPC   C3A15521   4.332  13.653   7.955
 6557POPC   C4A15522   4.279  13.665   7.655
 6557POPC   C1B15523   4.133  13.389   8.555
 6557POPC   C2B15524   4.193  13.428   8.255
 6557POPC   C3B15525   4.141  13.431   7.955
 6557POPC   C4B15526   4.172  13.421   7.655
 6558POPC   NC315527  20.631  30.683   9.455
 6558POPC   PO415528  20.606  30.671   9.155
 6558POPC   GL115529  20.656  30.665   8.855
 6558POPC   GL215530  20.582  30.572   8.855
 6558POPC   C1A15531  20.639  30.647   8.555
 6558POPC   D2A15532  20.618  30.740   8.255
 6558POPC   C3A15533  20.582  30.715   7.955
 6558POPC   C4A15534  20.625  30.654   7.655
 6558POPC   C1B15535  20.686  30.468   8.555
 6558POPC   C2B15536  20.640  30.485   8.255
 6558POPC   C3B15537  20.679  30.447   7.955
 6558POPC   C4B15538  20.650  30.407   7.655
 6559POPC   NC315539  36.155  40.026   9.455
 6559POPC   PO415540  36.169  40.038   9.155
 6559POPC   GL115541  36.144  39.964   8.855
 6559POPC   GL215542  36.179  39.833   8.855
 6559POPC   C1A15543  36.120  39.993   8.555
 6559POPC   D2A15544  36.164  40.032   8.255
 6559POPC   C3A15545  36.137  40.030   7.955
 6559POPC   C4A15546  36.162  39.991   7.655
 6559POPC   C1B15547  36.160  39.723   8.555
 6559POPC   C2B15548  36.135  39.809   8.255
 6559POPC   C3B15549  36.144  39.725   7.955
 6559POPC   C4B15550  36.114  39.782   7.655
 6560POPC   NC315551  28.378  40.774   9.455
 6560POPC   PO415552  28.331  40.815   9.155
 6560POPC   GL115553  28.381  40.760   8.855
 6560POPC   GL215554  28.226  40.710   8.855
 6560POPC   C1A15555  28.381  40.801   8.555
 6560POPC   D2A15556  28.378  40.737   8.255
 6560POPC   C3A15557  28.344  40.805   7.955
 6560POPC   C4A15558  28.339  40.801   7.655
 6560POPC   C1B15559  28.163  40.624   8.555
 6560POPC   C2B15560  28.178  40.590   8.255
 6560POPC   C3B15561  28.159  40.676   7.955
 6560POPC   C4B15562  28.143  40.669   7.655
 6561POPC   NC315563  16.765  23.683   9.455
 6561POPC   PO415564  16.760  23.718   9.155
 6561POPC   GL115565  16.779  23.681   8.855
 6561POPC   GL215566  16.579  23.782   8.855
 6561POPC   C1A15567  16.693  23.761   8.555
 6561POPC   D2A15568  16.712  23.702   8.255
 6561POPC   C3A15569  16.768  23.685   7.955
 6561POPC   C4A15570  16.722  23.689   7.655
 6561POPC   C1B15571  16.496  23.790   8.555
 6561POPC   C2B15572  16.495  23.886   8.255
 6561POPC   C3B15573  16.494  23.786   7.955
 6561POPC   C4B15574  16.534  23.863   7.655
 6562POPC   NC315575  41.547   7.434   9.455
 6562POPC   PO415576  41.580   7.382   9.155
 6562POPC   GL115577  41.515   7.409   8.855
 6562POPC   GL215578  41.586   7.566   8.855
 6562POPC   C1A15579  41.536   7.448   8.555
 6562POPC   D2A15580  41.542   7.444   8.255
 6562POPC   C3A15581  41.554   7.439   7.955
 6562POPC   C4A15582  41.584   7.393   7.655
 6562POPC   C1B15583  41.643   7.701   8.555
 6562POPC   C2B15584  41.589   7.648   8.255
 6562POPC   C3B15585  41.590   7.623   7.955
 6562POPC   C4B15586  41.671   7.696   7.655
 6563POPC   NC315587   1.244  40.758   9.455
 6563POPC   PO415588   1.182  40.805   9.155
 6563POPC   GL115589   1.245  40.742   8.855
 6563POPC   GL215590   1.351  40.698   8.855
 6563POPC   C1A15591   1.229  40.735   8.555
 6563POPC   D2A15592   1.188  40.741   8.255
 6563POPC   C3A15593   1.204  40.830   7.955
 6563POPC   C4A15594   1.225  40.778   7.655
 6563POPC   C1B15595   1.345  40.566   8.555
 6563POPC   C2B15596   1.413  40.624   8.255
 6563POPC   C3B15597   1.358  40.621   7.955
 6563POPC   C4B15598   1.426  40.578   7.655
 6564POPC   NC315599   8.246  18.250   9.455
 6564POPC   PO415600   8.147  18.291   9.155
 6564POPC   GL115601   8.208  18.269   8.855
 6564POPC   GL215602   8.028  18.247   8.855
 6564POPC   C1A15603   8.209  18.320   8.555
 6564POPC   D2A15604   8.163  18.267   8.255
 6564POPC   C3A15605   8.186  18.329   7.955
 6564POPC   C4A15606   8.215  18.297   7.655
 6564POPC   C1B15607   7.988  18.323   8.555
 6564POPC   C2B15608   7.951  18.352   8.255
 6564POPC   C3B15609   7.997  18.289   7.955
 6564POPC   C4B15610   7.996  18.351   7.655
 6565POPC   NC315611  32.233  14.396   9.455
 6565POPC   PO415612  32.201  14.438   9.155
 6565POPC   GL115613  32.210  14.427   8.855
 6565POPC   GL215614  32.316  14.483   8.855
 6565POPC   C1A15615  32.210  14.447   8.555
 6565POPC   D2A15616  32.230  14.389   8.255
 6565POPC   C3A15617  32.281  14.399   7.955
 6565POPC   C4A15618  32.231  14.370   7.655
 6565POPC   C1B15619  32.433  14.609   8.555
 6565POPC   C2B15620  32.421  14.590   8.255
 6565POPC   C3B15621  32.370  14.620   7.955
 6565POPC   C4B15622  32.439  14.629   7.655
 6566POPC   NC315623  44.629   3.535   9.455
 6566POPC   PO415624  44.612   3.572   9.155
 6566POPC   GL115625  44.709   3.574   8.855
 6566POPC   GL215626  44.685   3.451   8.855
 6566POPC   C1A15627  44.709   3.547   8.555
 6566POPC   D2A15628  44.651   3.500   8.255
 6566POPC   C3A15629  44.691   3.558   7.955
 6566POPC   C4A15630  44.676   3.591   7.655
 6566POPC   C1B15631  44.696   3.289   8.555
 6566POPC   C2B15632  44.680   3.326   8.255
 6566POPC   C3B15633  44.697   3.300   7.955
 6566POPC   C4B15634  44.687   3.326   7.655
 6567POPC   NC315635  39.973   6.648   9.455
 6567POPC   PO415636  39.989   6.669   9.155
 6567POPC   GL115637  40.002   6.667   8.855
 6567POPC   GL215638  39.894   6.725   8.855
 6567POPC   C1A15639  40.024   6.687   8.555
 6567POPC   D2A15640  39.986   6.652   8.255
 6567POPC   C3A15641  39.958   6.678   7.955
 6567POPC   C4A15642  40.033   6.636   7.655
 6567POPC   C1B15643  39.863   6.863   8.555
 6567POPC   C2B15644  39.806   6.827   8.255
 6567POPC   C3B15645  39.849   6.840   7.955
 6567POPC   C4B15646  39.875   6.822   7.655
 6568POPC   NC315647  36.114  40.792   9.455
 6568POPC   PO415648  36.131  40.747   9.155
 6568POPC   GL115649  36.145  40.757   8.855
 6568POPC   GL215650  36.290  40.879   8.855
 6568POPC   C1A15651  36.159  40.768   8.555
 6568POPC   D2A15652  36.108  40.781   8.255
 6568POPC   C3A15653  36.162  40.777   7.955
 6568POPC   C4A15654  36.124  40.821   7.655
 6568POPC   C1B15655  36.359  40.846   8.555
 6568POPC   C2B15656  36.326  40.869   8.255
 6568POPC   C3B15657  36.328  40.899   7.955
 6568POPC   C4B15658  36.341  40.847   7.655
 6569POPC   NC315659  14.433  41.523   9.455
 6569POPC   PO415660  14.414  41.551   9.155
 6569POPC   GL115661  14.376  41.531   8.855
 6569POPC   GL215662  14.461  41.666   8.855
 6569POPC   C1A15663  14.374  41.509   8.555
 6569POPC   D2A15664  14.395  41.542   8.255
 6569POPC   C3A15665  14.433  41.595   7.955
 6569POPC   C4A15666  14.441  41.548   7.655
 6569POPC   C1B15667  14.513  41.808   8.555
 6569POPC   C2B15668  14.487  41.767   8.255
 6569POPC   C3B15669  14.507  41.751   7.955
 6569POPC   C4B15670  14.490  41.754   7.655
 6570POPC   NC315671   2.012  18.241   9.455
 6570POPC   PO415672   1.980  18.274   9.155
 6570POPC   GL115673   2.002  18.299   8.855
 6570POPC   GL215674   1.926  18.129   8.855
 6570POPC   C1A15675   1.992  18.309   8.555
 6570POPC   D2A15676   2.000  18.317   8.255
 6570POPC   C3A15677   2.003  18.321   7.955
 6570POPC   C4A15678   2.027  18.247   7.655
 6570POPC   C1B15679   1.923  18.066   8.555
 6570POPC   C2B15680   1.972  17.989   8.255
 6570POPC   C3B15681   1.901  18.072   7.955
 6570POPC   C4B15682   1.963  18.023   7.655
 6571POPC   NC315683  10.476  27.565   9.455
 6571POPC   PO415684  10.489  27.545   9.155
 6571POPC   GL115685  10.542  27.546   8.855
 6571POPC   GL215686  10.476  27.487   8.855
 6571POPC   C1A15687  10.562  27.580   8.555
 6571POPC   D2A15688  10.490  27.601   8.255
 6571POPC   C3A15689  10.535  27.635   7.955
 6571POPC   C4A15690  10.519  27.590   7.655
 6571POPC   C1B15691  10.514  27.392   8.555
 6571POPC   C2B15692  10.493  27.326   8.255
 6571POPC   C3B15693  10.469  27.335   7.955
 6571POPC   C4B15694  10.502  27.315   7.655
 6572POPC   NC315695  36.875  36.164   9.455
 6572POPC   PO415696  36.859  36.078   9.155
 6572POPC   GL115697  36.902  36.078   8.855
 6572POPC   GL215698  36.987  36.163   8.855
 6572POPC   C1A15699  36.931  36.143   8.555
 6572POPC   D2A15700  36.939  36.155   8.255
 6572POPC   C3A15701  36.869  36.078   7.955
 6572POPC   C4A15702  36.910  36.132   7.655
 6572POPC   C1B15703  37.140  36.228   8.555
 6572POPC   C2B15704  37.158  36.165   8.255
 6572POPC   C3B15705  37.163  36.179   7.955
 6572POPC   C4B15706  37.120  36.229   7.655
 6573POPC   NC315707   5.840  29.139   9.455
 6573POPC   PO415708   5.873  29.136   9.155
 6573POPC   GL115709   5.889  29.106   8.855
 6573POPC   GL215710   5.840  29.269   8.855
 6573POPC   C1A15711   5.911  29.123   8.555
 6573POPC   D2A15712   5.884  29.158   8.255
 6573POPC   C3A15713   5.852  29.125   7.955
 6573POPC   C4A15714   5.840  29.160   7.655
 6573POPC   C1B15715   5.754  29.369   8.555
 6573POPC   C2B15716   5.740  29.327   8.255
 6573POPC   C3B15717   5.726  29.392   7.955
 6573POPC   C4B15718   5.740  29.319   7.655
 6574POPC   NC315719  30.665  20.625   9.455
 6574POPC   PO415720  30.700  20.596   9.155
 6574POPC   GL115721  30.709  20.582   8.855
 6574POPC   GL215722  30.835  20.603   8.855
 6574POPC   C1A15723  30.738  20.660   8.555
 6574POPC   D2A15724  30.704  20.635   8.255
 6574POPC   C3A15725  30.649  20.611   7.955
 6574POPC   C4A15726  30.734  20.626   7.655
 6574POPC   C1B15727  30.905  20.605   8.555
 6574POPC   C2B15728  30.955  20.587   8.255
 6574POPC   C3B15729  30.916  20.577   7.955
 6574POPC   C4B15730  30.917  20.566   7.655
 6575POPC   NC315731  19.090   9.711   9.455
 6575POPC   PO415732  19.082   9.779   9.155
 6575POPC   GL115733  19.104   9.719   8.855
 6575POPC   GL215734  18.939   9.805   8.855
 6575POPC   C1A15735  19.101   9.749   8.555
 6575POPC   D2A15736  19.052   9.790   8.255
 6575POPC   C3A15737  19.019   9.776   7.955
 6575POPC   C4A15738  19.024   9.706   7.655
 6575POPC   C1B15739  18.851   9.827   8.555
 6575POPC   C2B15740  18.828   9.806   8.255
 6575POPC   C3B15741  18.817   9.766   7.955
 6575POPC   C4B15742  18.798   9.823   7.655
 6576POPC   NC315743  23.675  21.379   9.455
 6576POPC   PO415744  23.754  21.343   9.155
 6576POPC   GL115745  23.751  21.428   8.855
 6576POPC   GL215746  23.617  21.338   8.855
 6576POPC   C1A15747  23.697  21.371   8.555
 6576POPC   D2A15748  23.675  21.418   8.255
 6576POPC   C3A15749  23.762  21.414   7.955
 6576POPC   C4A15750  23.725  21.402   7.655
 6576POPC   C1B15751  23.448  21.358   8.555
 6576POPC   C2B15752  23.455  21.325   8.255
 6576POPC   C3B15753  23.442  21.349   7.955
 6576POPC   C4B15754  23.473  21.323   7.655
 6577POPC   NC315755  44.703  39.214   9.455
 6577POPC   PO415756  44.675  39.259   9.155
 6577POPC   GL115757  44.638  39.193   8.855
 6577POPC   GL215758  44.814  39.275   8.855
 6577POPC   C1A15759  44.660  39.261   8.555
 6577POPC   D2A15760  44.614  39.232   8.255
 6577POPC   C3A15761  44.682  39.236   7.955
 6577POPC   C4A15762  44.627  39.218   7.655
 6577POPC   C1B15763  44.849  39.326   8.555
 6577POPC   C2B15764  44.919  39.390   8.255
 6577POPC   C3B15765  44.867  39.371   7.955
 6577POPC   C4B15766  44.898  39.385   7.655
 6578POPC   NC315767  32.992   3.579   9.455
 6578POPC   PO415768  33.057   3.545   9.155
 6578POPC   GL115769  33.027   3.571   8.855
 6578POPC   GL215770  33.131   3.609   8.855
 6578POPC   C1A15771  33.040   3.591   8.555
 6578POPC   D2A15772  32.979   3.565   8.255
 6578POPC   C3A15773  33.014   3.498   7.955
 6578POPC   C4A15774  33.007   3.518   7.655
 6578POPC   C1B15775  33.230   3.681   8.555
 6578POPC   C2B15776  33.228   3.681   8.255
 6578POPC   C3B15777  33.212   3.648   7.955
 6578POPC   C4B15778  33.232   3.696   7.655
 6579POPC   NC315779   5.116  19.785   9.455
 6579POPC   PO415780   5.132  19.831   9.155
 6579POPC   GL115781   5.091  19.816   8.855
 6579POPC   GL215782   5.029  19.740   8.855
 6579POPC   C1A15783   5.121  19.806   8.555
 6579POPC   D2A15784   5.076  19.816   8.255
 6579POPC   C3A15785   5.052  19.843   7.955
 6579POPC   C4A15786   5.070  19.823   7.655
 6579POPC   C1B15787   4.909  19.678   8.555
 6579POPC   C2B15788   4.836  19.737   8.255
 6579POPC   C3B15789   4.822  19.756   7.955
 6579POPC   C4B15790   4.831  19.686   7.655
 6580POPC   NC315791  32.202  32.214   9.455
 6580POPC   PO415792  32.235  32.273   9.155
 6580POPC   GL115793  32.258  32.248   8.855
 6580POPC   GL215794  32.125  32.257   8.855
 6580POPC   C1A15795  32.252  32.217   8.555
 6580POPC   D2A15796  32.219  32.251   8.255
 6580POPC   C3A15797  32.274  32.206   7.955
 6580POPC   C4A15798  32.253  32.246   7.655
 6580POPC   C1B15799  32.034  32.193   8.555
 6580POPC   C2B15800  31.968  32.196   8.255
 6580POPC   C3B15801  32.014  32.206   7.955
 6580POPC   C4B15802  32.017  32.221   7.655
 6581POPC   NC315803   3.526   5.836   9.455
 6581POPC   PO415804   3.496   5.848   9.155
 6581POPC   GL115805   3.571   5.846   8.855
 6581POPC   GL215806   3.710   5.837   8.855
 6581POPC   C1A15807   3.510   5.822   8.555
 6581POPC   D2A15808   3.512   5.827   8.255
 6581POPC   C3A15809   3.519   5.842   7.955
 6581POPC   C4A15810   3.494   5.883   7.655
 6581POPC   C1B15811   3.787   5.912   8.555
 6581POPC   C2B15812   3.744   5.836   8.255
 6581POPC   C3B15813   3.826   5.832   7.955
 6581POPC   C4B15814   3.747   5.845   7.655
 6582POPC   NC315815  29.177  40.035   9.455
 6582POPC   PO415816  29.099  40.002   9.155
 6582POPC   GL115817  29.119  40.045   8.855
 6582POPC   GL215818  29.090  39.903   8.855
 6582POPC   C1A15819  29.132  40.020   8.555
 6582POPC   D2A15820  29.180  39.974   8.255
 6582POPC   C3A15821  29.171  40.035   7.955
 6582POPC   C4A15822  29.129  39.974   7.655
 6582POPC   C1B15823  29.004  39.783   8.555
 6582POPC   C2B15824  29.020  39.836   8.255
 6582POPC   C3B15825  28.970  39.800   7.955
 6582POPC   C4B15826  29.029  39.846   7.655
 6583POPC   NC315827  40.005  38.503   9.455
 6583POPC   PO415828  39.970  38.481   9.155
 6583POPC   GL115829  40.012  38.431   8.855
 6583POPC   GL215830  40.118  38.492   8.855
 6583POPC   C1A15831  40.036  38.473   8.555
 6583POPC   D2A15832  40.052  38.450   8.255
 6583POPC   C3A15833  40.000  38.493   7.955
 6583POPC   C4A15834  40.013  38.455   7.655
 6583POPC   C1B15835  40.183  38.622   8.555
 6583POPC   C2B15836  40.243  38.656   8.255
 6583POPC   C3B15837  40.162  38.622   7.955
 6583POPC   C4B15838  40.242  38.652   7.655
 6584POPC   NC315839   5.139  13.640   9.455
 6584POPC   PO415840   5.126  13.676   9.155
 6584POPC   GL115841   5.089  13.631   8.855
 6584POPC   GL215842   5.167  13.492   8.855
 6584POPC   C1A15843   5.052  13.578   8.555
 6584POPC   D2A15844   5.051  13.627   8.255
 6584POPC   C3A15845   5.075  13.656   7.955
 6584POPC   C4A15846   5.102  13.624   7.655
 6584POPC   C1B15847   5.245  13.446   8.555
 6584POPC   C2B15848   5.243  13.411   8.255
 6584POPC   C3B15849   5.240  13.419   7.955
 6584POPC   C4B15850   5.190  13.432   7.655
 6585POPC   NC315851  41.570  30.737   9.455
 6585POPC   PO415852  41.556  30.694   9.155
 6585POPC   GL115853  41.533  30.661   8.855
 6585POPC   GL215854  41.488  30.637   8.855
 6585POPC   C1A15855  41.594  30.688   8.555
 6585POPC   D2A15856  41.592  30.683   8.255
 6585POPC   C3A15857  41.534  30.687   7.955
 6585POPC   C4A15858  41.523  30.746   7.655
 6585POPC   C1B15859  41.408  30.549   8.555
 6585POPC   C2B15860  41.355  30.521   8.255
 6585POPC   C3B15861  41.397  30.483   7.955
 6585POPC   C4B15862  41.402  30.568   7.655
 6586POPC   NC315863   1.983  24.450   9.455
 6586POPC   PO415864   2.016  24.512   9.155
 6586POPC   GL115865   2.001  24.534   8.855
 6586POPC   GL215866   2.124  24.382   8.855
 6586POPC   C1A15867   1.958  24.443   8.555
 6586POPC   D2A15868   1.996  24.480   8.255
 6586POPC   C3A15869   1.956  24.465   7.955
 6586POPC   C4A15870   1.977  24.482   7.655
 6586POPC   C1B15871   2.235  24.347   8.555
 6586POPC   C2B15872   2.214  24.373   8.255
 6586POPC   C3B15873   2.242  24.371   7.955
 6586POPC   C4B15874   2.190  24.311   7.655
 6587POPC   NC315875   3.583   3.509   9.455
 6587POPC   PO415876   3.572   3.509   9.155
 6587POPC   GL115877   3.495   3.495   8.855
 6587POPC   GL215878   3.636   3.643   8.855
 6587POPC   C1A15879   3.543   3.547   8.555
 6587POPC   D2A15880   3.553   3.588   8.255
 6587POPC   C3A15881   3.541   3.550   7.955
 6587POPC   C4A15882   3.525   3.573   7.655
 6587POPC   C1B15883   3.734   3.683   8.555
 6587POPC   C2B15884   3.727   3.655   8.255
 6587POPC   C3B15885   3.749   3.657   7.955
 6587POPC   C4B15886   3.761   3.702   7.655
 6588POPC   NC315887  37.718   8.183   9.455
 6588POPC   PO415888  37.663   8.198   9.155
 6588POPC   GL115889  37.640   8.169   8.855
 6588POPC   GL215890  37.746   8.099   8.855
 6588POPC   C1A15891  37.659   8.161   8.555
 6588POPC   D2A15892  37.656   8.156   8.255
 6588POPC   C3A15893  37.711   8.178   7.955
 6588POPC   C4A15894  37.650   8.217   7.655
 6588POPC   C1B15895  37.924   8.097   8.555
 6588POPC   C2B15896  37.887   8.132   8.255
 6588POPC   C3B15897  37.956   8.137   7.955
 6588POPC   C4B15898  37.911   8.069   7.655
 6589POPC   NC315899   2.790  35.317   9.455
 6589POPC   PO415900   2.722  35.312   9.155
 6589POPC   GL115901   2.815  35.321   8.855
 6589POPC   GL215902   2.674  35.427   8.855
 6589POPC   C1A15903   2.803  35.375   8.555
 6589POPC   D2A15904   2.716  35.308   8.255
 6589POPC   C3A15905   2.760  35.339   7.955
 6589POPC   C4A15906   2.792  35.376   7.655
 6589POPC   C1B15907   2.548  35.515   8.555
 6589POPC   C2B15908   2.581  35.478   8.255
 6589POPC   C3B15909   2.554  35.486   7.955
 6589POPC   C4B15910   2.585  35.487   7.655
 6590POPC   NC315911  16.697  22.902   9.455
 6590POPC   PO415912  16.755  22.955   9.155
 6590POPC   GL115913  16.722  22.906   8.855
 6590POPC   GL215914  16.658  23.015   8.855
 6590POPC   C1A15915  16.762  22.933   8.555
 6590POPC   D2A15916  16.779  22.890   8.255
 6590POPC   C3A15917  16.728  22.943   7.955
 6590POPC   C4A15918  16.749  22.981   7.655
 6590POPC   C1B15919  16.461  23.038   8.555
 6590POPC   C2B15920  16.472  22.972   8.255
 6590POPC   C3B15921  16.532  23.021   7.955
 6590POPC   C4B15922  16.489  23.011   7.655
 6591POPC   NC315923  28.351  19.838   9.455
 6591POPC   PO415924  28.323  19.862   9.155
 6591POPC   GL115925  28.335  19.864   8.855
 6591POPC   GL215926  28.263  19.923   8.855
 6591POPC   C1A15927  28.320  19.822   8.555
 6591POPC   D2A15928  28.322  19.842   8.255
 6591POPC   C3A15929  28.390  19.833   7.955
 6591POPC   C4A15930  28.397  19.796   7.655
 6591POPC   C1B15931  28.203  20.056   8.555
 6591POPC   C2B15932  28.234  20.067   8.255
 6591POPC   C3B15933  28.262  20.004   7.955
 6591POPC   C4B15934  28.244  20.065   7.655
 6592POPC   NC315935  26.807  13.594   9.455
 6592POPC   PO415936  26.848  13.596   9.155
 6592POPC   GL115937  26.845  13.640   8.855
 6592POPC   GL215938  26.945  13.675   8.855
 6592POPC   C1A15939  26.862  13.589   8.555
 6592POPC   D2A15940  26.785  13.624   8.255
 6592POPC   C3A15941  26.854  13.626   7.955
 6592POPC   C4A15942  26.825  13.595   7.655
 6592POPC   C1B15943  27.015  13.747   8.555
 6592POPC   C2B15944  27.078  13.733   8.255
 6592POPC   C3B15945  27.066  13.702   7.955
 6592POPC   C4B15946  27.028  13.706   7.655
 6593POPC   NC315947  43.147   2.719   9.455
 6593POPC   PO415948  43.078   2.726   9.155
 6593POPC   GL115949  43.146   2.730   8.855
 6593POPC   GL215950  42.991   2.753   8.855
 6593POPC   C1A15951  43.065   2.776   8.555
 6593POPC   D2A15952  43.097   2.793   8.255
 6593POPC   C3A15953  43.143   2.739   7.955
 6593POPC   C4A15954  43.066   2.771   7.655
 6593POPC   C1B15955  42.897   2.709   8.555
 6593POPC   C2B15956  42.856   2.636   8.255
 6593POPC   C3B15957  42.903   2.654   7.955
 6593POPC   C4B15958  42.849   2.689   7.655
 6594POPC   NC315959  25.284  15.222   9.455
 6594POPC   PO415960  25.314  15.154   9.155
 6594POPC   GL115961  25.230  15.172   8.855
 6594POPC   GL215962  25.256  15.338   8.855
 6594POPC   C1A15963  25.218  15.196   8.555
 6594POPC   D2A15964  25.218  15.227   8.255
 6594POPC   C3A15965  25.279  15.229   7.955
 6594POPC   C4A15966  25.293  15.204   7.655
 6594POPC   C1B15967  25.373  15.402   8.555
 6594POPC   C2B15968  25.312  15.450   8.255
 6594POPC   C3B15969  25.361  15.411   7.955
 6594POPC   C4B15970  25.329  15.442   7.655
 6595POPC   NC315971  29.905  22.129   9.455
 6595POPC   PO415972  29.954  22.209   9.155
 6595POPC   GL115973  29.970  22.180   8.855
 6595POPC   GL215974  29.860  22.287   8.855
 6595POPC   C1A15975  29.923  22.134   8.555
 6595POPC   D2A15976  29.903  22.116   8.255
 6595POPC   C3A15977  29.895  22.149   7.955
 6595POPC   C4A15978  29.951  22.167   7.655
 6595POPC   C1B15979  29.858  22.381   8.555
 6595POPC   C2B15980  29.860  22.404   8.255
 6595POPC   C3B15981  29.887  22.416   7.955
 6595POPC   C4B15982  29.850  22.423   7.655
 6596POPC   NC315983  14.411  19.788   9.455
 6596POPC   PO415984  14.359  19.865   9.155
 6596POPC   GL115985  14.383  19.787   8.855
 6596POPC   GL215986  14.474  19.802   8.855
 6596POPC   C1A15987  14.379  19.797   8.555
 6596POPC   D2A15988  14.434  19.800   8.255
 6596POPC   C3A15989  14.415  19.826   7.955
 6596POPC   C4A15990  14.377  19.838   7.655
 6596POPC   C1B15991  14.607  19.740   8.555
 6596POPC   C2B15992  14.671  19.783   8.255
 6596POPC   C3B15993  14.623  19.800   7.955
 6596POPC   C4B15994  14.691  19.755   7.655
 6597POPC   NC315995  20.652  28.355   9.455
 6597POPC   PO415996  20.576  28.378   9.155
 6597POPC   GL115997  20.583  28.381   8.855
 6597POPC   GL215998  20.678  28.467   8.855
 6597POPC   C1A15999  20.633  28.391   8.555
 6597POPC   D2A16000  20.581  28.349   8.255
 6597POPC   C3A16001  20.660  28.323   7.955
 6597POPC   C4A16002  20.626  28.415   7.655
 6597POPC   C1B16003  20.798  28.577   8.555
 6597POPC   C2B16004  20.707  28.585   8.255
 6597POPC   C3B16005  20.725  28.526   7.955
 6597POPC   C4B16006  20.708  28.605   7.655
 6598POPC   NC316007  43.121   8.231   9.455
 6598POPC   PO416008  43.076   8.207   9.155
 6598POPC   GL116009  43.099   8.246   8.855
 6598POPC   GL216010  42.978   8.300   8.855
 6598POPC   C1A16011  43.133   8.232   8.555
 6598POPC   D2A16012  43.130   8.206   8.255
 6598POPC   C3A16013  43.098   8.222   7.955
 6598POPC   C4A16014  43.064   8.162   7.655
 6598POPC   C1B16015  42.908   8.322   8.555
 6598POPC   C2B16016  42.925   8.269   8.255
 6598POPC   C3B16017  42.914   8.350   7.955
 6598POPC   C4B16018  42.918   8.323   7.655
 6599POPC   NC316019  31.484  27.606   9.455
 6599POPC   PO416020  31.480  27.583   9.155
 6599POPC   GL116021  31.474  27.634   8.855
 6599POPC   GL216022  31.597  27.599   8.855
 6599POPC   C1A16023  31.444  27.606   8.555
 6599POPC   D2A16024  31.429  27.551   8.255
 6599POPC   C3A16025  31.491  27.602   7.955
 6599POPC   C4A16026  31.451  27.626   7.655
 6599POPC   C1B16027  31.715  27.675   8.555
 6599POPC   C2B16028  31.729  27.633   8.255
 6599POPC   C3B16029  31.754  27.621   7.955
 6599POPC   C4B16030  31.696  27.637   7.655
 6600POPC   NC316031  40.759  10.542   9.455
 6600POPC   PO416032  40.828  10.500   9.155
 6600POPC   GL116033  40.820  10.542   8.855
 6600POPC   GL216034  40.711  10.421   8.855
 6600POPC   C1A16035  40.784  10.537   8.555
 6600POPC   D2A16036  40.818  10.516   8.255
 6600POPC   C3A16037  40.789  10.484   7.955
 6600POPC   C4A16038  40.825  10.504   7.655
 6600POPC   C1B16039  40.606  10.282   8.555
 6600POPC   C2B16040  40.670  10.272   8.255
 6600POPC   C3B16041  40.610  10.306   7.955
 6600POPC   C4B16042  40.645  10.268   7.655
 6601POPC   NC316043   4.329  26.829   9.455
 6601POPC   PO416044   4.295  26.828   9.155
 6601POPC   GL116045   4.359  26.853   8.855
 6601POPC   GL216046   4.313  26.946   8.855
 6601POPC   C1A16047   4.354  26.852   8.555
 6601POPC   D2A16048   4.305  26.833   8.255
 6601POPC   C3A16049   4.338  26.824   7.955
 6601POPC   C4A16050   4.351  26.784   7.655
 6601POPC   C1B16051   4.390  27.046   8.555
 6601POPC   C2B16052   4.367  27.102   8.255
 6601POPC   C3B16053   4.359  27.034   7.955
 6601POPC   C4B16054   4.340  27.036   7.655
 6602POPC   NC316055   5.842  43.080   9.455
 6602POPC   PO416056   5.890  43.111   9.155
 6602POPC   GL116057   5.901  43.140   8.855
 6602POPC   GL216058   5.711  43.191   8.855
 6602POPC   C1A16059   5.904  43.065   8.555
 6602POPC   D2A16060   5.872  43.114   8.255
 6602POPC   C3A16061   5.832  43.117   7.955
 6602POPC   C4A16062   5.857  43.093   7.655
 6602POPC   C1B16063   5.604  43.179   8.555
 6602POPC   C2B16064   5.668  43.163   8.255
 6602POPC   C3B16065   5.587  43.241   7.955
 6602POPC   C4B16066   5.658  43.180   7.655
 6603POPC   NC316067  32.271  33.039   9.455
 6603POPC   PO416068  32.226  33.032   9.155
 6603POPC   GL116069  32.274  33.062   8.855
 6603POPC   GL216070  32.347  32.946   8.855
 6603POPC   C1A16071  32.205  33.026   8.555
 6603POPC   D2A16072  32.226  32.980   8.255
 6603POPC   C3A16073  32.208  33.070   7.955
 6603POPC   C4A16074  32.279  33.037   7.655
 6603POPC   C1B16075  32.328  32.814   8.555
 6603POPC   C2B16076  32.373  32.787   8.255
 6603POPC   C3B16077  32.310  32.831   7.955
 6603POPC   C4B16078  32.321  32.791   7.655
 6604POPC   NC316079  38.430  26.016   9.455
 6604POPC   PO416080  38.438  26.048   9.155
 6604POPC   GL116081  38.463  25.998   8.855
 6604POPC   GL216082  38.585  25.940   8.855
 6604POPC   C1A16083  38.442  26.079   8.555
 6604POPC   D2A16084  38.456  26.061   8.255
 6604POPC   C3A16085  38.454  26.014   7.955
 6604POPC   C4A16086  38.490  26.010   7.655
 6604POPC   C1B16087  38.679  25.884   8.555
 6604POPC   C2B16088  38.618  25.877   8.255
 6604POPC   C3B16089  38.656  25.886   7.955
 6604POPC   C4B16090  38.635  25.908   7.655
 6605POPC   NC316091  15.947  43.914   9.455
 6605POPC   PO416092  15.988  43.912   9.155
 6605POPC   GL116093  15.916  43.923   8.855
 6605POPC   GL216094  16.030  43.968   8.855
 6605POPC   C1A16095  15.924  43.882   8.555
 6605POPC   D2A16096  15.933  43.915   8.255
 6605POPC   C3A16097  15.994  43.857   7.955
 6605POPC   C4A16098  15.946  43.908   7.655
 6605POPC   C1B16099  16.030  44.121   8.555
 6605POPC   C2B16100  16.074  44.160   8.255
 6605POPC   C3B16101  16.043  44.127   7.955
 6605POPC   C4B16102  16.049  44.135   7.655
 6606POPC   NC316103  27.548  12.891   9.455
 6606POPC   PO416104  27.559  12.885   9.155
 6606POPC   GL116105  27.594  12.887   8.855
 6606POPC   GL216106  27.498  12.857   8.855
 6606POPC   C1A16107  27.551  12.878   8.555
 6606POPC   D2A16108  27.589  12.863   8.255
 6606POPC   C3A16109  27.614  12.850   7.955
 6606POPC   C4A16110  27.561  12.894   7.655
 6606POPC   C1B16111  27.399  12.787   8.555
 6606POPC   C2B16112  27.356  12.773   8.255
 6606POPC   C3B16113  27.320  12.743   7.955
 6606POPC   C4B16114  27.306  12.762   7.655
 6607POPC   NC316115  41.605   1.164   9.455
 6607POPC   PO416116  41.517   1.192   9.155
 6607POPC   GL116117  41.607   1.208   8.855
 6607POPC   GL216118  41.693   1.229   8.855
 6607POPC   C1A16119  41.560   1.215   8.555
 6607POPC   D2A16120  41.531   1.210   8.255
 6607POPC   C3A16121  41.574   1.166   7.955
 6607POPC   C4A16122  41.605   1.207   7.655
 6607POPC   C1B16123  41.786   1.281   8.555
 6607POPC   C2B16124  41.822   1.289   8.255
 6607POPC   C3B16125  41.765   1.270   7.955
 6607POPC   C4B16126  41.833   1.279   7.655
 6608POPC   NC316127  22.920   8.220   9.455
 6608POPC   PO416128  22.916   8.226   9.155
 6608POPC   GL116129  22.954   8.243   8.855
 6608POPC   GL216130  23.012   8.108   8.855
 6608POPC   C1A16131  22.918   8.148   8.555
 6608POPC   D2A16132  22.920   8.223   8.255
 6608POPC   C3A16133  22.964   8.165   7.955
 6608POPC   C4A16134  22.967   8.171   7.655
 6608POPC   C1B16135  23.012   7.997   8.555
 6608POPC   C2B16136  22.984   7.946   8.255
 6608POPC   C3B16137  23.003   7.922   7.955
 6608POPC   C4B16138  23.000   7.958   7.655
 6609POPC   NC316139   3.584  27.548   9.455
 6609POPC   PO416140   3.497  27.563   9.155
 6609POPC   GL116141   3.586  27.610   8.855
 6609POPC   GL216142   3.540  27.487   8.855
 6609POPC   C1A16143   3.581  27.616   8.555
 6609POPC   D2A16144   3.515  27.585   8.255
 6609POPC   C3A16145   3.563  27.548   7.955
 6609POPC   C4A16146   3.559  27.623   7.655
 6609POPC   C1B16147   3.619  27.388   8.555
 6609POPC   C2B16148   3.589  27.410   8.255
 6609POPC   C3B16149   3.680  27.392   7.955
 6609POPC   C4B16150   3.680  27.412   7.655
 6610POPC   NC316151   2.768  43.892   9.455
 6610POPC   PO416152   2.755  43.862   9.155
 6610POPC   GL116153   2.758  43.900   8.855
 6610POPC   GL216154   2.715  43.950   8.855
 6610POPC   C1A16155   2.770  43.910   8.555
 6610POPC   D2A16156   2.729  43.863   8.255
 6610POPC   C3A16157   2.765  43.887   7.955
 6610POPC   C4A16158   2.789  43.837   7.655
 6610POPC   C1B16159   2.550  44.058   8.555
 6610POPC   C2B16160   2.593  43.993   8.255
 6610POPC   C3B16161   2.606  43.996   7.955
 6610POPC   C4B16162   2.541  44.084   7.655
 6611POPC   NC316163   1.174  39.996   9.455
 6611POPC   PO416164   1.241  39.975   9.155
 6611POPC   GL116165   1.236  39.989   8.855
 6611POPC   GL216166   1.314  39.945   8.855
 6611POPC   C1A16167   1.174  40.056   8.555
 6611POPC   D2A16168   1.177  39.988   8.255
 6611POPC   C3A16169   1.170  40.048   7.955
 6611POPC   C4A16170   1.201  40.045   7.655
 6611POPC   C1B16171   1.460  39.893   8.555
 6611POPC   C2B16172   1.449  39.889   8.255
 6611POPC   C3B16173   1.480  39.957   7.955
 6611POPC   C4B16174   1.468  39.980   7.655
 6612POPC   NC316175  24.524   8.207   9.455
 6612POPC   PO416176  24.537   8.201   9.155
 6612POPC   GL116177  24.492   8.150   8.855
 6612POPC   GL216178  24.417   8.163   8.855
 6612POPC   C1A16179  24.476   8.218   8.555
 6612POPC   D2A16180  24.496   8.240   8.255
 6612POPC   C3A16181  24.484   8.242   7.955
 6612POPC   C4A16182  24.489   8.177   7.655
 6612POPC   C1B16183  24.301   8.104   8.555
 6612POPC   C2B16184  24.251   8.126   8.255
 6612POPC   C3B16185  24.301   8.117   7.955
 6612POPC   C4B16186  24.278   8.158   7.655
 6613POPC   NC316187   8.951  19.108   9.455
 6613POPC   PO416188   8.944  19.025   9.155
 6613POPC   GL116189   9.017  19.108   8.855
 6613POPC   GL216190   8.926  19.124   8.855
 6613POPC   C1A16191   9.020  19.091   8.555
 6613POPC   D2A16192   8.960  19.024   8.255
 6613POPC   C3A16193   8.927  19.014   7.955
 6613POPC   C4A16194   8.925  19.096   7.655
 6613POPC   C1B16195   8.766  19.222   8.555
 6613POPC   C2B16196   8.775  19.293   8.255
 6613POPC   C3B16197   8.842  19.258   7.955
 6613POPC   C4B16198   8.812  19.254   7.655
 6614POPC   NC316199  36.892   3.566   9.455
 6614POPC   PO416200  36.886   3.551   9.155
 6614POPC   GL116201  36.878   3.579   8.855
 6614POPC   GL216202  36.983   3.512   8.855
 6614POPC   C1A16203  36.933   3.531   8.555
 6614POPC   D2A16204  36.880   3.509   8.255
 6614POPC   C3A16205  36.931   3.511   7.955
 6614POPC   C4A16206  36.950   3.560   7.655
 6614POPC   C1B16207  37.123   3.470   8.555
 6614POPC   C2B16208  37.193   3.471   8.255
 6614POPC   C3B16209  37.173   3.488   7.955
 6614POPC   C4B16210  37.124   3.465   7.655
 6615POPC   NC316211   5.141  42.362   9.455
 6615POPC   PO416212   5.088  42.308   9.155
 6615POPC   GL116213   5.075  42.380   8.855
 6615POPC   GL216214   5.223  42.397   8.855
 6615POPC   C1A16215   5.048  42.322   8.555
 6615POPC   D2A16216   5.063  42.328   8.255
 6615POPC   C3A16217   5.102  42.310   7.955
 6615POPC   C4A16218   5.108  42.325   7.655
 6615POPC   C1B16219   5.299  42.452   8.555
 6615POPC   C2B16220   5.320  42.467   8.255
 6615POPC   C3B16221   5.326  42.458   7.955
 6615POPC   C4B16222   5.327  42.455   7.655
 6616POPC   NC316223  22.941   9.707   9.455
 6616POPC   PO416224  22.916   9.760   9.155
 6616POPC   GL116225  22.943   9.748   8.855
 6616POPC   GL216226  23.002   9.901   8.855
 6616POPC   C1A16227  22.949   9.739   8.555
 6616POPC   D2A16228  22.912   9.736   8.255
 6616POPC   C3A16229  22.909   9.745   7.955
 6616POPC   C4A16230  22.916   9.768   7.655
 6616POPC   C1B16231  23.018   9.958   8.555
 6616POPC   C2B16232  23.039   9.988   8.255
 6616POPC   C3B16233  23.022   9.981   7.955
 6616POPC   C4B16234  23.044   9.975   7.655
 6617POPC   NC316235   6.675  19.096   9.455
 6617POPC   PO416236   6.631  19.108   9.155
 6617POPC   GL116237   6.646  19.039   8.855
 6617POPC   GL216238   6.670  19.216   8.855
 6617POPC   C1A16239   6.620  19.037   8.555
 6617POPC   D2A16240   6.634  19.065   8.255
 6617POPC   C3A16241   6.629  19.099   7.955
 6617POPC   C4A16242   6.681  19.089   7.655
 6617POPC   C1B16243   6.684  19.331   8.555
 6617POPC   C2B16244   6.676  19.279   8.255
 6617POPC   C3B16245   6.659  19.282   7.955
 6617POPC   C4B16246   6.633  19.298   7.655
 6618POPC   NC316247  16.703  42.360   9.455
 6618POPC   PO416248  16.734  42.305   9.155
 6618POPC   GL116249  16.761  42.370   8.855
 6618POPC   GL216250  16.700  42.471   8.855
 6618POPC   C1A16251  16.736  42.312   8.555
 6618POPC   D2A16252  16.758  42.287   8.255
 6618POPC   C3A16253  16.763  42.338   7.955
 6618POPC   C4A16254  16.747  42.285   7.655
 6618POPC   C1B16255  16.643  42.579   8.555
 6618POPC   C2B16256  16.601  42.524   8.255
 6618POPC   C3B16257  16.587  42.609   7.955
 6618POPC   C4B16258  16.584  42.532   7.655
 6619POPC   NC316259  41.596  12.810   9.455
 6619POPC   PO416260  41.583  12.845   9.155
 6619POPC   GL116261  41.512  12.846   8.855
 6619POPC   GL216262  41.551  12.724   8.855
 6619POPC   C1A16263  41.570  12.823   8.555
 6619POPC   D2A16264  41.551  12.846   8.255
 6619POPC   C3A16265  41.571  12.804   7.955
 6619POPC   C4A16266  41.538  12.827   7.655
 6619POPC   C1B16267  41.519  12.585   8.555
 6619POPC   C2B16268  41.574  12.640   8.255
 6619POPC   C3B16269  41.524  12.564   7.955
 6619POPC   C4B16270  41.498  12.579   7.655
 6620POPC   NC316271   0.412  29.958   9.455
 6620POPC   PO416272   0.470  29.889   9.155
 6620POPC   GL116273   0.477  29.891   8.855
 6620POPC   GL216274   0.604  29.968   8.855
 6620POPC   C1A16275   0.442  29.968   8.555
 6620POPC   D2A16276   0.433  29.888   8.255
 6620POPC   C3A16277   0.449  29.962   7.955
 6620POPC   C4A16278   0.429  29.949   7.655
 6620POPC   C1B16279   0.684  30.025   8.555
 6620POPC   C2B16280   0.701  30.026   8.255
 6620POPC   C3B16281   0.710  30.006   7.955
 6620POPC   C4B16282   0.716  29.968   7.655
 6621POPC   NC316283  34.608  33.830   9.455
 6621POPC   PO416284  34.618  33.790   9.155
 6621POPC   GL116285  34.569  33.759   8.855
 6621POPC   GL216286  34.470  33.928   8.855
 6621POPC   C1A16287  34.560  33.783   8.555
 6621POPC   D2A16288  34.543  33.777   8.255
 6621POPC   C3A16289  34.617  33.802   7.955
 6621POPC   C4A16290  34.535  33.797   7.655
 6621POPC   C1B16291  34.449  33.984   8.555
 6621POPC   C2B16292  34.469  34.037   8.255
 6621POPC   C3B16293  34.457  34.011   7.955
 6621POPC   C4B16294  34.393  33.994   7.655
 6622POPC   NC316295  33.053  15.203   9.455
 6622POPC   PO416296  32.995  15.137   9.155
 6622POPC   GL116297  33.006  15.152   8.855
 6622POPC   GL216298  33.081  15.010   8.855
 6622POPC   C1A16299  33.029  15.160   8.555
 6622POPC   D2A16300  33.025  15.175   8.255
 6622POPC   C3A16301  32.988  15.172   7.955
 6622POPC   C4A16302  33.027  15.198   7.655
 6622POPC   C1B16303  33.123  14.948   8.555
 6622POPC   C2B16304  33.131  14.888   8.255
 6622POPC   C3B16305  33.119  14.975   7.955
 6622POPC   C4B16306  33.059  14.972   7.655
 6623POPC   NC316307   7.444  31.497   9.455
 6623POPC   PO416308   7.401  31.505   9.155
 6623POPC   GL116309   7.389  31.497   8.855
 6623POPC   GL216310   7.555  31.434   8.855
 6623POPC   C1A16311   7.442  31.480   8.555
 6623POPC   D2A16312   7.414  31.470   8.255
 6623POPC   C3A16313   7.374  31.507   7.955
 6623POPC   C4A16314   7.386  31.513   7.655
 6623POPC   C1B16315   7.693  31.467   8.555
 6623POPC   C2B16316   7.654  31.487   8.255
 6623POPC   C3B16317   7.713  31.518   7.955
 6623POPC   C4B16318   7.709  31.516   7.655
 6624POPC   NC316319   9.780  16.693   9.455
 6624POPC   PO416320   9.721  16.703   9.155
 6624POPC   GL116321   9.794  16.693   8.855
 6624POPC   GL216322   9.648  16.698   8.855
 6624POPC   C1A16323   9.742  16.746   8.555
 6624POPC   D2A16324   9.752  16.704   8.255
 6624POPC   C3A16325   9.784  16.758   7.955
 6624POPC   C4A16326   9.747  16.751   7.655
 6624POPC   C1B16327   9.520  16.581   8.555
 6624POPC   C2B16328   9.509  16.586   8.255
 6624POPC   C3B16329   9.512  16.608   7.955
 6624POPC   C4B16330   9.518  16.565   7.655
 6625POPC   NC316331  34.605  17.479   9.455
 6625POPC   PO416332  34.553  17.467   9.155
 6625POPC   GL116333  34.579  17.467   8.855
 6625POPC   GL216334  34.598  17.584   8.855
 6625POPC   C1A16335  34.620  17.498   8.555
 6625POPC   D2A16336  34.566  17.492   8.255
 6625POPC   C3A16337  34.605  17.533   7.955
 6625POPC   C4A16338  34.555  17.542   7.655
 6625POPC   C1B16339  34.606  17.766   8.555
 6625POPC   C2B16340  34.557  17.797   8.255
 6625POPC   C3B16341  34.557  17.723   7.955
 6625POPC   C4B16342  34.624  17.783   7.655
 6626POPC   NC316343  12.866  21.413   9.455
 6626POPC   PO416344  12.891  21.388   9.155
 6626POPC   GL116345  12.865  21.356   8.855
 6626POPC   GL216346  12.743  21.240   8.855
 6626POPC   C1A16347  12.833  21.347   8.555
 6626POPC   D2A16348  12.888  21.361   8.255
 6626POPC   C3A16349  12.874  21.433   7.955
 6626POPC   C4A16350  12.861  21.436   7.655
 6626POPC   C1B16351  12.738  21.177   8.555
 6626POPC   C2B16352  12.738  21.131   8.255
 6626POPC   C3B16353  12.726  21.137   7.955
 6626POPC   C4B16354  12.704  21.198   7.655
 6627POPC   NC316355  42.330  31.427   9.455
 6627POPC   PO416356  42.289  31.431   9.155
 6627POPC   GL116357  42.367  31.513   8.855
 6627POPC   GL216358  42.209  31.469   8.855
 6627POPC   C1A16359  42.380  31.479   8.555
 6627POPC   D2A16360  42.366  31.439   8.255
 6627POPC   C3A16361  42.349  31.468   7.955
 6627POPC   C4A16362  42.354  31.433   7.655
 6627POPC   C1B16363  42.036  31.469   8.555
 6627POPC   C2B16364  42.094  31.489   8.255
 6627POPC   C3B16365  42.067  31.471   7.955
 6627POPC   C4B16366  42.126  31.433   7.655
 6628POPC   NC316367  34.574  23.725   9.455
 6628POPC   PO416368  34.568  23.720   9.155
 6628POPC   GL116369  34.558  23.678   8.855
 6628POPC   GL216370  34.529  23.876   8.855
 6628POPC   C1A16371  34.557  23.710   8.555
 6628POPC   D2A16372  34.610  23.707   8.255
 6628POPC   C3A16373  34.588  23.678   7.955
 6628POPC   C4A16374  34.599  23.759   7.655
 6628POPC   C1B16375  34.597  23.919   8.555
 6628POPC   C2B16376  34.539  23.921   8.255
 6628POPC   C3B16377  34.578  23.975   7.955
 6628POPC   C4B16378  34.514  23.987   7.655
 6629POPC   NC316379  21.413  29.188   9.455
 6629POPC   PO416380  21.406  29.170   9.155
 6629POPC   GL116381  21.378  29.187   8.855
 6629POPC   GL216382  21.316  29.034   8.855
 6629POPC   C1A16383  21.400  29.160   8.555
 6629POPC   D2A16384  21.379  29.116   8.255
 6629POPC   C3A16385  21.414  29.135   7.955
 6629POPC   C4A16386  21.383  29.097   7.655
 6629POPC   C1B16387  21.283  28.860   8.555
 6629POPC   C2B16388  21.286  28.851   8.255
 6629POPC   C3B16389  21.306  28.908   7.955
 6629POPC   C4B16390  21.350  28.881   7.655
 6630POPC   NC316391  14.402  36.866   9.455
 6630POPC   PO416392  14.415  36.925   9.155
 6630POPC   GL116393  14.451  36.934   8.855
 6630POPC   GL216394  14.452  36.850   8.855
 6630POPC   C1A16395  14.372  36.907   8.555
 6630POPC   D2A16396  14.384  36.929   8.255
 6630POPC   C3A16397  14.401  36.865   7.955
 6630POPC   C4A16398  14.415  36.921   7.655
 6630POPC   C1B16399  14.562  36.729   8.555
 6630POPC   C2B16400  14.563  36.741   8.255
 6630POPC   C3B16401  14.528  36.697   7.955
 6630POPC   C4B16402  14.511  36.695   7.655
 6631POPC   NC316403  37.702  20.600   9.455
 6631POPC   PO416404  37.632  20.593   9.155
 6631POPC   GL116405  37.672  20.607   8.855
 6631POPC   GL216406  37.825  20.684   8.855
 6631POPC   C1A16407  37.648  20.623   8.555
 6631POPC   D2A16408  37.697  20.652   8.255
 6631POPC   C3A16409  37.667  20.606   7.955
 6631POPC   C4A16410  37.655  20.659   7.655
 6631POPC   C1B16411  37.957  20.713   8.555
 6631POPC   C2B16412  37.943  20.696   8.255
 6631POPC   C3B16413  37.965  20.712   7.955
 6631POPC   C4B16414  37.879  20.668   7.655
 6632POPC   NC316415   2.797  23.747   9.455
 6632POPC   PO416416   2.763  23.742   9.155
 6632POPC   GL116417   2.726  23.700   8.855
 6632POPC   GL216418   2.917  23.624   8.855
 6632POPC   C1A16419   2.807  23.676   8.555
 6632POPC   D2A16420   2.747  23.665   8.255
 6632POPC   C3A16421   2.773  23.692   7.955
 6632POPC   C4A16422   2.752  23.723   7.655
 6632POPC   C1B16423   3.047  23.673   8.555
 6632POPC   C2B16424   2.999  23.633   8.255
 6632POPC   C3B16425   3.013  23.616   7.955
 6632POPC   C4B16426   2.954  23.612   7.655
 6633POPC   NC316427  35.308  44.670   9.455
 6633POPC   PO416428  35.306  44.642   9.155
 6633POPC   GL116429  35.368  44.686   8.855
 6633POPC   GL216430  35.228  44.677   8.855
 6633POPC   C1A16431  35.326  44.630   8.555
 6633POPC   D2A16432  35.362  44.627   8.255
 6633POPC   C3A16433  35.393  44.639   7.955
 6633POPC   C4A16434  35.384  44.702   7.655
 6633POPC   C1B16435  35.094  44.695   8.555
 6633POPC   C2B16436  35.110  44.722   8.255
 6633POPC   C3B16437  35.106  44.691   7.955
 6633POPC   C4B16438  35.098  44.685   7.655
 6634POPC   NC316439  36.119  26.829   9.455
 6634POPC   PO416440  36.110  26.796   9.155
 6634POPC   GL116441  36.166  26.778   8.855
 6634POPC   GL216442  36.212  26.903   8.855
 6634POPC   C1A16443  36.123  26.815   8.555
 6634POPC   D2A16444  36.172  26.823   8.255
 6634POPC   C3A16445  36.146  26.797   7.955
 6634POPC   C4A16446  36.168  26.810   7.655
 6634POPC   C1B16447  36.358  26.877   8.555
 6634POPC   C2B16448  36.378  26.970   8.255
 6634POPC   C3B16449  36.336  26.929   7.955
 6634POPC   C4B16450  36.334  26.930   7.655
 6635POPC   NC316451  22.206  23.716   9.455
 6635POPC   PO416452  22.137  23.672   9.155
 6635POPC   GL116453  22.134  23.689   8.855
 6635POPC   GL216454  22.140  23.577   8.855
 6635POPC   C1A16455  22.117  23.740   8.555
 6635POPC   D2A16456  22.128  23.750   8.255
 6635POPC   C3A16457  22.122  23.667   7.955
 6635POPC   C4A16458  22.208  23.704   7.655
 6635POPC   C1B16459  22.063  23.456   8.555
 6635POPC   C2B16460  21.990  23.510   8.255
 6635POPC   C3B16461  22.072  23.505   7.955
 6635POPC   C4B16462  22.004  23.549   7.655
 6636POPC   NC316463  31.493  40.780   9.455
 6636POPC   PO416464  31.432  40.767   9.155
 6636POPC   GL116465  31.463  40.798   8.855
 6636POPC   GL216466  31.391  40.857   8.855
 6636POPC   C1A16467  31.437  40.828   8.555
 6636POPC   D2A16468  31.454  40.827   8.255
 6636POPC   C3A16469  31.490  40.829   7.955
 6636POPC   C4A16470  31.469  40.812   7.655
 6636POPC   C1B16471  31.372  41.041   8.555
 6636POPC   C2B16472  31.337  40.968   8.255
 6636POPC   C3B16473  31.335  40.979   7.955
 6636POPC   C4B16474  31.361  41.013   7.655
 6637POPC   NC316475  32.998  43.095   9.455
 6637POPC   PO416476  33.055  43.094   9.155
 6637POPC   GL116477  33.031  43.065   8.855
 6637POPC   GL216478  33.137  43.034   8.855
 6637POPC   C1A16479  33.022  43.115   8.555
 6637POPC   D2A16480  33.029  43.093   8.255
 6637POPC   C3A16481  33.051  43.124   7.955
 6637POPC   C4A16482  33.017  43.073   7.655
 6637POPC   C1B16483  33.222  42.962   8.555
 6637POPC   C2B16484  33.269  42.960   8.255
 6637POPC   C3B16485  33.227  43.013   7.955
 6637POPC   C4B16486  33.257  43.039   7.655
 6638POPC   NC316487  43.092  40.030   9.455
 6638POPC   PO416488  43.064  40.015   9.155
 6638POPC   GL116489  43.083  40.031   8.855
 6638POPC   GL216490  42.982  40.013   8.855
 6638POPC   C1A16491  43.140  39.969   8.555
 6638POPC   D2A16492  43.134  40.039   8.255
 6638POPC   C3A16493  43.135  40.034   7.955
 6638POPC   C4A16494  43.153  40.025   7.655
 6638POPC   C1B16495  42.826  39.906   8.555
 6638POPC   C2B16496  42.877  39.890   8.255
 6638POPC   C3B16497  42.843  39.887   7.955
 6638POPC   C4B16498  42.909  39.883   7.655
 6639POPC   NC316499  22.982   5.138   9.455
 6639POPC   PO416500  22.980   5.086   9.155
 6639POPC   GL116501  22.938   5.093   8.855
 6639POPC   GL216502  22.934   5.235   8.855
 6639POPC   C1A16503  22.912   5.055   8.555
 6639POPC   D2A16504  22.983   5.073   8.255
 6639POPC   C3A16505  22.942   5.060   7.955
 6639POPC   C4A16506  22.987   5.069   7.655
 6639POPC   C1B16507  22.960   5.377   8.555
 6639POPC   C2B16508  23.048   5.316   8.255
 6639POPC   C3B16509  23.037   5.331   7.955
 6639POPC   C4B16510  23.028   5.301   7.655
 6640POPC   NC316511   1.996   5.851   9.455
 6640POPC   PO416512   1.947   5.867   9.155
 6640POPC   GL116513   1.992   5.865   8.855
 6640POPC   GL216514   1.845   5.870   8.855
 6640POPC   C1A16515   1.970   5.850   8.555
 6640POPC   D2A16516   1.955   5.892   8.255
 6640POPC   C3A16517   1.958   5.873   7.955
 6640POPC   C4A16518   1.959   5.844   7.655
 6640POPC   C1B16519   1.732   5.837   8.555
 6640POPC   C2B16520   1.797   5.762   8.255
 6640POPC   C3B16521   1.797   5.785   7.955
 6640POPC   C4B16522   1.727   5.808   7.655
 6641POPC   NC316523   8.929  16.689   9.455
 6641POPC   PO416524   8.949  16.695   9.155
 6641POPC   GL116525   8.987  16.750   8.855
 6641POPC   GL216526   9.043  16.704   8.855
 6641POPC   C1A16527   9.005  16.723   8.555
 6641POPC   D2A16528   8.944  16.762   8.255
 6641POPC   C3A16529   8.966  16.764   7.955
 6641POPC   C4A16530   8.968  16.736   7.655
 6641POPC   C1B16531   9.211  16.591   8.555
 6641POPC   C2B16532   9.230  16.656   8.255
 6641POPC   C3B16533   9.226  16.597   7.955
 6641POPC   C4B16534   9.245  16.668   7.655
 6642POPC   NC316535  40.811  37.701   9.455
 6642POPC   PO416536  40.831  37.675   9.155
 6642POPC   GL116537  40.827  37.656   8.855
 6642POPC   GL216538  40.734  37.810   8.855
 6642POPC   C1A16539  40.783  37.716   8.555
 6642POPC   D2A16540  40.801  37.728   8.255
 6642POPC   C3A16541  40.802  37.714   7.955
 6642POPC   C4A16542  40.753  37.709   7.655
 6642POPC   C1B16543  40.661  37.941   8.555
 6642POPC   C2B16544  40.615  37.890   8.255
 6642POPC   C3B16545  40.626  37.905   7.955
 6642POPC   C4B16546  40.637  37.887   7.655
 6643POPC   NC316547  13.578   2.751   9.455
 6643POPC   PO416548  13.594   2.736   9.155
 6643POPC   GL116549  13.593   2.716   8.855
 6643POPC   GL216550  13.469   2.740   8.855
 6643POPC   C1A16551  13.613   2.798   8.555
 6643POPC   D2A16552  13.597   2.807   8.255
 6643POPC   C3A16553  13.641   2.799   7.955
 6643POPC   C4A16554  13.606   2.789   7.655
 6643POPC   C1B16555  13.345   2.707   8.555
 6643POPC   C2B16556  13.398   2.769   8.255
 6643POPC   C3B16557  13.353   2.778   7.955
 6643POPC   C4B16558  13.367   2.701   7.655
 6644POPC   NC316559  26.822   9.779   9.455
 6644POPC   PO416560  26.841   9.732   9.155
 6644POPC   GL116561  26.851   9.738   8.855
 6644POPC   GL216562  26.980   9.759   8.855
 6644POPC   C1A16563  26.850   9.751   8.555
 6644POPC   D2A16564  26.841   9.758   8.255
 6644POPC   C3A16565  26.781   9.746   7.955
 6644POPC   C4A16566  26.825   9.793   7.655
 6644POPC   C1B16567  27.087   9.800   8.555
 6644POPC   C2B16568  27.052   9.852   8.255
 6644POPC   C3B16569  27.082   9.771   7.955
 6644POPC   C4B16570  27.042   9.785   7.655
 6645POPC   NC316571  33.073   2.757   9.455
 6645POPC   PO416572  33.045   2.745   9.155
 6645POPC   GL116573  33.023   2.754   8.855
 6645POPC   GL216574  33.060   2.850   8.855
 6645POPC   C1A16575  32.980   2.730   8.555
 6645POPC   D2A16576  32.987   2.791   8.255
 6645POPC   C3A16577  32.980   2.736   7.955
 6645POPC   C4A16578  33.063   2.758   7.655
 6645POPC   C1B16579  32.996   2.987   8.555
 6645POPC   C2B16580  33.020   3.059   8.255
 6645POPC   C3B16581  33.028   2.979   7.955
 6645POPC   C4B16582  32.969   3.064   7.655
 6646POPC   NC316583  35.362  39.241   9.455
 6646POPC   PO416584  35.317  39.258   9.155
 6646POPC   GL116585  35.330  39.211   8.855
 6646POPC   GL216586  35.394  39.151   8.855
 6646POPC   C1A16587  35.315  39.200   8.555
 6646POPC   D2A16588  35.306  39.275   8.255
 6646POPC   C3A16589  35.352  39.254   7.955
 6646POPC   C4A16590  35.334  39.237   7.655
 6646POPC   C1B16591  35.458  38.973   8.555
 6646POPC   C2B16592  35.465  39.064   8.255
 6646POPC   C3B16593  35.435  39.013   7.955
 6646POPC   C4B16594  35.516  39.012   7.655
 6647POPC   NC316595  21.370  13.660   9.455
 6647POPC   PO416596  21.425  13.600   9.155
 6647POPC   GL116597  21.338  13.647   8.855
 6647POPC   GL216598  21.453  13.771   8.855
 6647POPC   C1A16599  21.351  13.622   8.555
 6647POPC   D2A16600  21.347  13.659   8.255
 6647POPC   C3A16601  21.402  13.595   7.955
 6647POPC   C4A16602  21.422  13.594   7.655
 6647POPC   C1B16603  21.540  13.817   8.555
 6647POPC   C2B16604  21.550  13.883   8.255
 6647POPC   C3B16605  21.501  13.809   7.955
 6647POPC   C4B16606  21.485  13.877   7.655
 6648POPC   NC316607   4.321  15.226   9.455
 6648POPC   PO416608   4.353  15.165   9.155
 6648POPC   GL116609   4.361  15.226   8.855
 6648POPC   GL216610   4.403  15.155   8.855
 6648POPC   C1A16611   4.327  15.221   8.555
 6648POPC   D2A16612   4.330  15.190   8.255
 6648POPC   C3A16613   4.279  15.133   7.955
 6648POPC   C4A16614   4.281  15.166   7.655
 6648POPC   C1B16615   4.497  15.044   8.555
 6648POPC   C2B16616   4.496  14.994   8.255
 6648POPC   C3B16617   4.574  15.052   7.955
 6648POPC   C4B16618   4.535  15.071   7.655
 6649POPC   NC316619  18.328  35.358   9.455
 6649POPC   PO416620  18.323  35.346   9.155
 6649POPC   GL116621  18.305  35.384   8.855
 6649POPC   GL216622  18.133  35.452   8.855
 6649POPC   C1A16623  18.324  35.365   8.555
 6649POPC   D2A16624  18.286  35.374   8.255
 6649POPC   C3A16625  18.268  35.309   7.955
 6649POPC   C4A16626  18.270  35.344   7.655
 6649POPC   C1B16627  18.110  35.494   8.555
 6649POPC   C2B16628  18.034  35.475   8.255
 6649POPC   C3B16629  18.117  35.458   7.955
 6649POPC   C4B16630  18.065  35.479   7.655
 6650POPC   NC316631  32.976  25.303   9.455
 6650POPC   PO416632  33.034  25.239   9.155
 6650POPC   GL116633  32.975  25.261   8.855
 6650POPC   GL216634  33.043  25.104   8.855
 6650POPC   C1A16635  33.051  25.298   8.555
 6650POPC   D2A16636  32.990  25.271   8.255
 6650POPC   C3A16637  33.055  25.293   7.955
 6650POPC   C4A16638  33.044  25.289   7.655
 6650POPC   C1B16639  32.979  24.966   8.555
 6650POPC   C2B16640  33.012  25.046   8.255
 6650POPC   C3B16641  33.051  24.975   7.955
 6650POPC   C4B16642  33.049  25.044   7.655
 6651POPC   NC316643   6.676  12.101   9.455
 6651POPC   PO416644   6.663  12.065   9.155
 6651POPC   GL116645   6.687  12.116   8.855
 6651POPC   GL216646   6.705  12.225   8.855
 6651POPC   C1A16647   6.598  12.103   8.555
 6651POPC   D2A16648   6.610  12.029   8.255
 6651POPC   C3A16649   6.602  12.038   7.955
 6651POPC   C4A16650   6.666  12.063   7.655
 6651POPC   C1B16651   6.679  12.277   8.555
 6651POPC   C2B16652   6.759  12.364   8.255
 6651POPC   C3B16653   6.687  12.294   7.955
 6651POPC   C4B16654   6.721  12.340   7.655
 6652POPC   NC316655  34.531  15.910   9.455
 6652POPC   PO416656  34.552  15.989   9.155
 6652POPC   GL116657  34.545  15.923   8.855
 6652POPC   GL216658  34.522  15.786   8.855
 6652POPC   C1A16659  34.600  15.934   8.555
 6652POPC   D2A16660  34.538  16.001   8.255
 6652POPC   C3A16661  34.592  15.966   7.955
 6652POPC   C4A16662  34.597  15.942   7.655
 6652POPC   C1B16663  34.519  15.702   8.555
 6652POPC   C2B16664  34.552  15.683   8.255
 6652POPC   C3B16665  34.583  15.739   7.955
 6652POPC   C4B16666  34.593  15.688   7.655
 6653POPC   NC316667  41.523   8.206   9.455
 6653POPC   PO416668  41.555   8.166   9.155
 6653POPC   GL116669  41.528   8.220   8.855
 6653POPC   GL216670  41.628   8.365   8.855
 6653POPC   C1A16671  41.511   8.237   8.555
 6653POPC   D2A16672  41.519   8.242   8.255
 6653POPC   C3A16673  41.521   8.219   7.955
 6653POPC   C4A16674  41.605   8.165   7.655
 6653POPC   C1B16675  41.663   8.484   8.555
 6653POPC   C2B16676  41.622   8.431   8.255
 6653POPC   C3B16677  41.650   8.439   7.955
 6653POPC   C4B16678  41.671   8.404   7.655
 6654POPC   NC316679  19.096   0.412   9.455
 6654POPC   PO416680  19.076   0.418   9.155
 6654POPC   GL116681  19.086   0.451   8.855
 6654POPC   GL216682  18.968   0.537   8.855
 6654POPC   C1A16683  19.106   0.458   8.555
 6654POPC   D2A16684  19.064   0.398   8.255
 6654POPC   C3A16685  19.035   0.466   7.955
 6654POPC   C4A16686  19.099   0.439   7.655
 6654POPC   C1B16687  18.908   0.702   8.555
 6654POPC   C2B16688  18.906   0.677   8.255
 6654POPC   C3B16689  18.981   0.654   7.955
 6654POPC   C4B16690  18.931   0.629   7.655
 6655POPC   NC316691  36.906  40.038   9.455
 6655POPC   PO416692  36.884  40.008   9.155
 6655POPC   GL116693  36.943  40.046   8.855
 6655POPC   GL216694  36.977  39.920   8.855
 6655POPC   C1A16695  36.917  39.979   8.555
 6655POPC   D2A16696  36.862  40.041   8.255
 6655POPC   C3A16697  36.885  40.030   7.955
 6655POPC   C4A16698  36.902  39.963   7.655
 6655POPC   C1B16699  37.092  39.773   8.555
 6655POPC   C2B16700  37.085  39.783   8.255
 6655POPC   C3B16701  37.070  39.794   7.955
 6655POPC   C4B16702  37.085  39.854   7.655
 6656POPC   NC316703   0.481  30.660   9.455
 6656POPC   PO416704   0.481  30.699   9.155
 6656POPC   GL116705   0.461  30.714   8.855
 6656POPC   GL216706   0.297  30.784   8.855
 6656POPC   C1A16707   0.481  30.685   8.555
 6656POPC   D2A16708   0.436  30.709   8.255
 6656POPC   C3A16709   0.400  30.737   7.955
 6656POPC   C4A16710   0.411  30.676   7.655
 6656POPC   C1B16711   0.153  30.764   8.555
 6656POPC   C2B16712   0.242  30.757   8.255
 6656POPC   C3B16713   0.218  30.805   7.955
 6656POPC   C4B16714   0.234  30.778   7.655
 6657POPC   NC316715  36.171  32.983   9.455
 6657POPC   PO416716  36.128  33.067   9.155
 6657POPC   GL116717  36.146  33.064   8.855
 6657POPC   GL216718  36.005  33.075   8.855
 6657POPC   C1A16719  36.089  33.048   8.555
 6657POPC   D2A16720  36.163  33.000   8.255
 6657POPC   C3A16721  36.155  33.056   7.955
 6657POPC   C4A16722  36.142  32.994   7.655
 6657POPC   C1B16723  35.893  33.098   8.555
 6657POPC   C2B16724  35.874  33.042   8.255
 6657POPC   C3B16725  35.868  33.091   7.955
 6657POPC   C4B16726  35.866  33.104   7.655
 6658POPC   NC316727   6.677  15.154   9.455
 6658POPC   PO416728   6.675  15.171   9.155
 6658POPC   GL116729   6.687  15.155   8.855
 6658POPC   GL216730   6.556  15.234   8.855
 6658POPC   C1A16731   6.596  15.151   8.555
 6658POPC   D2A16732   6.632  15.171   8.255
 6658POPC   C3A16733   6.632  15.169   7.955
 6658POPC   C4A16734   6.599  15.185   7.655
 6658POPC   C1B16735   6.393  15.166   8.555
 6658POPC   C2B16736   6.416  15.176   8.255
 6658POPC   C3B16737   6.438  15.208   7.955
 6658POPC   C4B16738   6.351  15.221   7.655
 6659POPC   NC316739   4.284  11.328   9.455
 6659POPC   PO416740   4.304  11.271   9.155
 6659POPC   GL116741   4.277  11.273   8.855
 6659POPC   GL216742   4.460  11.310   8.855
 6659POPC   C1A16743   4.318  11.292   8.555
 6659POPC   D2A16744   4.329  11.346   8.255
 6659POPC   C3A16745   4.326  11.282   7.955
 6659POPC   C4A16746   4.279  11.278   7.655
 6659POPC   C1B16747   4.586  11.409   8.555
 6659POPC   C2B16748   4.567  11.412   8.255
 6659POPC   C3B16749   4.489  11.396   7.955
 6659POPC   C4B16750   4.543  11.384   7.655
 6660POPC   NC316751  34.617  29.127   9.455
 6660POPC   PO416752  34.615  29.142   9.155
 6660POPC   GL116753  34.604  29.182   8.855
 6660POPC   GL216754  34.549  29.083   8.855
 6660POPC   C1A16755  34.621  29.158   8.555
 6660POPC   D2A16756  34.608  29.180   8.255
 6660POPC   C3A16757  34.557  29.178   7.955
 6660POPC   C4A16758  34.536  29.098   7.655
 6660POPC   C1B16759  34.438  28.919   8.555
 6660POPC   C2B16760  34.412  28.952   8.255
 6660POPC   C3B16761  34.465  28.930   7.955
 6660POPC   C4B16762  34.490  28.937   7.655
 6661POPC   NC316763  35.352  24.457   9.455
 6661POPC   PO416764  35.330  24.442   9.155
 6661POPC   GL116765  35.377  24.497   8.855
 6661POPC   GL216766  35.401  24.592   8.855
 6661POPC   C1A16767  35.312  24.458   8.555
 6661POPC   D2A16768  35.351  24.524   8.255
 6661POPC   C3A16769  35.334  24.473   7.955
 6661POPC   C4A16770  35.374  24.446   7.655
 6661POPC   C1B16771  35.487  24.652   8.555
 6661POPC   C2B16772  35.534  24.718   8.255
 6661POPC   C3B16773  35.462  24.690   7.955
 6661POPC   C4B16774  35.533  24.727   7.655
 6662POPC   NC316775  33.835   3.587   9.455
 6662POPC   PO416776  33.829   3.500   9.155
 6662POPC   GL116777  33.805   3.538   8.855
 6662POPC   GL216778  33.716   3.382   8.855
 6662POPC   C1A16779  33.835   3.576   8.555
 6662POPC   D2A16780  33.771   3.526   8.255
 6662POPC   C3A16781  33.809   3.541   7.955
 6662POPC   C4A16782  33.815   3.511   7.655
 6662POPC   C1B16783  33.744   3.316   8.555
 6662POPC   C2B16784  33.706   3.281   8.255
 6662POPC   C3B16785  33.718   3.331   7.955
 6662POPC   C4B16786  33.717   3.326   7.655
 6663POPC   NC316787  26.086   8.947   9.455
 6663POPC   PO416788  26.027   8.956   9.155
 6663POPC   GL116789  26.005   8.932   8.855
 6663POPC   GL216790  25.910   9.081   8.855
 6663POPC   C1A16791  26.075   8.962   8.555
 6663POPC   D2A16792  26.019   8.954   8.255
 6663POPC   C3A16793  26.016   8.924   7.955
 6663POPC   C4A16794  26.001   8.993   7.655
 6663POPC   C1B16795  25.837   9.070   8.555
 6663POPC   C2B16796  25.796   9.142   8.255
 6663POPC   C3B16797  25.799   9.142   7.955
 6663POPC   C4B16798  25.794   9.141   7.655
 6664POPC   NC316799  22.941   1.985   9.455
 6664POPC   PO416800  22.964   1.962   9.155
 6664POPC   GL116801  22.959   2.035   8.855
 6664POPC   GL216802  23.019   2.082   8.855
 6664POPC   C1A16803  22.978   2.021   8.555
 6664POPC   D2A16804  22.909   1.969   8.255
 6664POPC   C3A16805  22.976   2.006   7.955
 6664POPC   C4A16806  22.940   1.995   7.655
 6664POPC   C1B16807  23.045   2.173   8.555
 6664POPC   C2B16808  23.114   2.203   8.255
 6664POPC   C3B16809  23.024   2.201   7.955
 6664POPC   C4B16810  23.020   2.215   7.655
 6665POPC   NC316811  31.493  12.123   9.455
 6665POPC   PO416812  31.453  12.038   9.155
 6665POPC   GL116813  31.490  12.038   8.855
 6665POPC   GL216814  31.516  12.229   8.855
 6665POPC   C1A16815  31.462  12.036   8.555
 6665POPC   D2A16816  31.455  12.098   8.255
 6665POPC   C3A16817  31.449  12.046   7.955
 6665POPC   C4A16818  31.474  12.047   7.655
 6665POPC   C1B16819  31.533  12.285   8.555
 6665POPC   C2B16820  31.569  12.337   8.255
 6665POPC   C3B16821  31.598  12.356   7.955
 6665POPC   C4B16822  31.509  12.310   7.655
 6666POPC   NC316823  43.872  21.373   9.455
 6666POPC   PO416824  43.863  21.409   9.155
 6666POPC   GL116825  43.901  21.377   8.855
 6666POPC   GL216826  43.904  21.281   8.855
 6666POPC   C1A16827  43.923  21.427   8.555
 6666POPC   D2A16828  43.850  21.415   8.255
 6666POPC   C3A16829  43.903  21.411   7.955
 6666POPC   C4A16830  43.874  21.344   7.655
 6666POPC   C1B16831  43.938  21.180   8.555
 6666POPC   C2B16832  43.948  21.151   8.255
 6666POPC   C3B16833  43.945  21.117   7.955
 6666POPC   C4B16834  43.946  21.139   7.655
 6667POPC   NC316835  12.809   2.014   9.455
 6667POPC   PO416836  12.842   2.031   9.155
 6667POPC   GL116837  12.872   1.977   8.855
 6667POPC   GL216838  12.954   1.933   8.855
 6667POPC   C1A16839  12.849   2.013   8.555
 6667POPC   D2A16840  12.805   2.028   8.255
 6667POPC   C3A16841  12.807   1.976   7.955
 6667POPC   C4A16842  12.808   1.963   7.655
 6667POPC   C1B16843  13.026   1.765   8.555
 6667POPC   C2B16844  13.008   1.806   8.255
 6667POPC   C3B16845  12.985   1.788   7.955
 6667POPC   C4B16846  13.055   1.837   7.655
 6668POPC   NC316847   5.129  19.014   9.455
 6668POPC   PO416848   5.070  19.089   9.155
 6668POPC   GL116849   5.077  19.032   8.855
 6668POPC   GL216850   4.969  19.099   8.855
 6668POPC   C1A16851   5.070  19.088   8.555
 6668POPC   D2A16852   5.096  19.048   8.255
 6668POPC   C3A16853   5.129  19.048   7.955
 6668POPC   C4A16854   5.053  19.069   7.655
 6668POPC   C1B16855   4.912  19.203   8.555
 6668POPC   C2B16856   4.902  19.189   8.255
 6668POPC   C3B16857   4.820  19.122   7.955
 6668POPC   C4B16858   4.834  19.173   7.655
 6669POPC   NC316859  43.860  31.512   9.455
 6669POPC   PO416860  43.905  31.522   9.155
 6669POPC   GL116861  43.900  31.479   8.855
 6669POPC   GL216862  43.775  31.569   8.855
 6669POPC   C1A16863  43.900  31.484   8.555
 6669POPC   D2A16864  43.891  31.431   8.255
 6669POPC   C3A16865  43.912  31.478   7.955
 6669POPC   C4A16866  43.870  31.433   7.655
 6669POPC   C1B16867  43.735  31.652   8.555
 6669POPC   C2B16868  43.672  31.693   8.255
 6669POPC   C3B16869  43.731  31.621   7.955
 6669POPC   C4B16870  43.675  31.670   7.655
 6670POPC   NC316871  13.671  23.666   9.455
 6670POPC   PO416872  13.599  23.667   9.155
 6670POPC   GL116873  13.663  23.711   8.855
 6670POPC   GL216874  13.650  23.612   8.855
 6670POPC   C1A16875  13.661  23.720   8.555
 6670POPC   D2A16876  13.588  23.674   8.255
 6670POPC   C3A16877  13.659  23.669   7.955
 6670POPC   C4A16878  13.637  23.685   7.655
 6670POPC   C1B16879  13.594  23.502   8.555
 6670POPC   C2B16880  13.622  23.458   8.255
 6670POPC   C3B16881  13.651  23.442   7.955
 6670POPC   C4B16882  13.611  23.512   7.655
 6671POPC   NC316883  25.261  35.337   9.455
 6671POPC   PO416884  25.221  35.311   9.155
 6671POPC   GL116885  25.218  35.381   8.855
 6671POPC   GL216886  25.129  35.316   8.855
 6671POPC   C1A16887  25.243  35.383   8.555
 6671POPC   D2A16888  25.248  35.311   8.255
 6671POPC   C3A16889  25.221  35.367   7.955
 6671POPC   C4A16890  25.302  35.395   7.655
 6671POPC   C1B16891  25.118  35.147   8.555
 6671POPC   C2B16892  25.120  35.214   8.255
 6671POPC   C3B16893  25.064  35.215   7.955
 6671POPC   C4B16894  25.077  35.201   7.655
 6672POPC   NC316895   5.113  36.911   9.455
 6672POPC   PO416896   5.057  36.917   9.155
 6672POPC   GL116897   5.058  36.915   8.855
 6672POPC   GL216898   5.201  36.811   8.855
 6672POPC   C1A16899   5.130  36.930   8.555
 6672POPC   D2A16900   5.092  36.913   8.255
 6672POPC   C3A16901   5.070  36.903   7.955
 6672POPC   C4A16902   5.064  36.903   7.655
 6672POPC   C1B16903   5.288  36.793   8.555
 6672POPC   C2B16904   5.305  36.758   8.255
 6672POPC   C3B16905   5.295  36.825   7.955
 6672POPC   C4B16906   5.273  36.840   7.655
 6673POPC   NC316907  35.388   5.140   9.455
 6673POPC   PO416908  35.362   5.077   9.155
 6673POPC   GL116909  35.374   5.052   8.855
 6673POPC   GL216910  35.326   5.180   8.855
 6673POPC   C1A16911  35.327   5.140   8.555
 6673POPC   D2A16912  35.365   5.113   8.255
 6673POPC   C3A16913  35.314   5.072   7.955
 6673POPC   C4A16914  35.360   5.120   7.655
 6673POPC   C1B16915  35.286   5.322   8.555
 6673POPC   C2B16916  35.327   5.386   8.255
 6673POPC   C3B16917  35.358   5.305   7.955
 6673POPC   C4B16918  35.291   5.377   7.655
 6674POPC   NC316919   6.616  12.850   9.455
 6674POPC   PO416920   6.633  12.830   9.155
 6674POPC   GL116921   6.637  12.813   8.855
 6674POPC   GL216922   6.763  12.903   8.855
 6674POPC   C1A16923   6.597  12.876   8.555
 6674POPC   D2A16924   6.627  12.817   8.255
 6674POPC   C3A16925   6.676  12.822   7.955
 6674POPC   C4A16926   6.616  12.846   7.655
 6674POPC   C1B16927   6.858  12.937   8.555
 6674POPC   C2B16928   6.901  12.991   8.255
 6674POPC   C3B16929   6.892  12.968   7.955
 6674POPC   C4B16930   6.838  12.924   7.655
 6675POPC   NC316931  30.658  44.667   9.455
 6675POPC   PO416932  30.726  44.644   9.155
 6675POPC   GL116933  30.680  44.644   8.855
 6675POPC   GL216934  30.665  44.566   8.855
 6675POPC   C1A16935  30.653  44.659   8.555
 6675POPC   D2A16936  30.671  44.639   8.255
 6675POPC   C3A16937  30.716  44.665   7.955
 6675POPC   C4A16938  30.719  44.635   7.655
 6675POPC   C1B16939  30.688  44.465   8.555
 6675POPC   C2B16940  30.693  44.423   8.255
 6675POPC   C3B16941  30.665  44.465   7.955
 6675POPC   C4B16942  30.702  44.401   7.655
 6676POPC   NC316943  17.525  10.517   9.455
 6676POPC   PO416944  17.534  10.507   9.155
 6676POPC   GL116945  17.541  10.486   8.855
 6676POPC   GL216946  17.589  10.516   8.855
 6676POPC   C1A16947  17.514  10.543   8.555
 6676POPC   D2A16948  17.466  10.539   8.255
 6676POPC   C3A16949  17.466  10.495   7.955
 6676POPC   C4A16950  17.474  10.543   7.655
 6676POPC   C1B16951  17.738  10.445   8.555
 6676POPC   C2B16952  17.736  10.412   8.255
 6676POPC   C3B16953  17.787  10.485   7.955
 6676POPC   C4B16954  17.719  10.426   7.655
 6677POPC   NC316955  24.474  39.255   9.455
 6677POPC   PO416956  24.512  39.203   9.155
 6677POPC   GL116957  24.517  39.271   8.855
 6677POPC   GL216958  24.342  39.295   8.855
 6677POPC   C1A16959  24.474  39.230   8.555
 6677POPC   D2A16960  24.459  39.263   8.255
 6677POPC   C3A16961  24.458  39.242   7.955
 6677POPC   C4A16962  24.490  39.243   7.655
 6677POPC   C1B16963  24.276  39.305   8.555
 6677POPC   C2B16964  24.285  39.310   8.255
 6677POPC   C3B16965  24.243  39.270   7.955
 6677POPC   C4B16966  24.289  39.317   7.655
 6678POPC   NC316967  11.316  29.908   9.455
 6678POPC   PO416968  11.282  29.922   9.155
 6678POPC   GL116969  11.260  29.943   8.855
 6678POPC   GL216970  11.200  29.944   8.855
 6678POPC   C1A16971  11.265  29.960   8.555
 6678POPC   D2A16972  11.337  29.910   8.255
 6678POPC   C3A16973  11.290  29.883   7.955
 6678POPC   C4A16974  11.263  29.923   7.655
 6678POPC   C1B16975  11.115  30.038   8.555
 6678POPC   C2B16976  11.046  30.095   8.255
 6678POPC   C3B16977  11.048  30.025   7.955
 6678POPC   C4B16978  11.126  30.070   7.655
 6679POPC   NC316979  17.489  13.592   9.455
 6679POPC   PO416980  17.492  13.593   9.155
 6679POPC   GL116981  17.498  13.620   8.855
 6679POPC   GL216982  17.646  13.601   8.855
 6679POPC   C1A16983  17.532  13.667   8.555
 6679POPC   D2A16984  17.498  13.668   8.255
 6679POPC   C3A16985  17.543  13.660   7.955
 6679POPC   C4A16986  17.551  13.677   7.655
 6679POPC   C1B16987  17.773  13.571   8.555
 6679POPC   C2B16988  17.767  13.540   8.255
 6679POPC   C3B16989  17.775  13.549   7.955
 6679POPC   C4B16990  17.723  13.566   7.655
 6680POPC   NC316991   5.912  15.155   9.455
 6680POPC   PO416992   5.847  15.173   9.155
 6680POPC   GL116993   5.819  15.131   8.855
 6680POPC   GL216994   5.905  15.317   8.855
 6680POPC   C1A16995   5.851  15.196   8.555
 6680POPC   D2A16996   5.835  15.133   8.255
 6680POPC   C3A16997   5.850  15.182   7.955
 6680POPC   C4A16998   5.846  15.149   7.655
 6680POPC   C1B16999   5.883  15.407   8.555
 6680POPC   C2B17000   5.837  15.380   8.255
 6680POPC   C3B17001   5.824  15.471   7.955
 6680POPC   C4B17002   5.899  15.406   7.655
 6681POPC   NC317003  28.358  37.681   9.455
 6681POPC   PO417004  28.395  37.654   9.155
 6681POPC   GL117005  28.371  37.724   8.855
 6681POPC   GL217006  28.306  37.618   8.855
 6681POPC   C1A17007  28.356  37.715   8.555
 6681POPC   D2A17008  28.355  37.675   8.255
 6681POPC   C3A17009  28.397  37.657   7.955
 6681POPC   C4A17010  28.406  37.711   7.655
 6681POPC   C1B17011  28.135  37.579   8.555
 6681POPC   C2B17012  28.186  37.494   8.255
 6681POPC   C3B17013  28.184  37.534   7.955
 6681POPC   C4B17014  28.137  37.495   7.655
 6682POPC   NC317015  29.915   6.610   9.455
 6682POPC   PO417016  29.915   6.598   9.155
 6682POPC   GL117017  29.878   6.614   8.855
 6682POPC   GL217018  29.949   6.512   8.855
 6682POPC   C1A17019  29.961   6.653   8.555
 6682POPC   D2A17020  29.961   6.686   8.255
 6682POPC   C3A17021  29.892   6.635   7.955
 6682POPC   C4A17022  29.877   6.596   7.655
 6682POPC   C1B17023  29.890   6.422   8.555
 6682POPC   C2B17024  29.924   6.370   8.255
 6682POPC   C3B17025  29.859   6.406   7.955
 6682POPC   C4B17026  29.860   6.394   7.655
 6683POPC   NC317027  35.382  41.513   9.455
 6683POPC   PO417028  35.388  41.591   9.155
 6683POPC   GL117029  35.320  41.589   8.855
 6683POPC   GL217030  35.348  41.437   8.855
 6683POPC   C1A17031  35.400  41.554   8.555
 6683POPC   D2A17032  35.356  41.571   8.255
 6683POPC   C3A17033  35.336  41.536   7.955
 6683POPC   C4A17034  35.302  41.524   7.655
 6683POPC   C1B17035  35.278  41.352   8.555
 6683POPC   C2B17036  35.321  41.318   8.255
 6683POPC   C3B17037  35.277  41.330   7.955
 6683POPC   C4B17038  35.287  41.319   7.655
 6684POPC   NC317039  11.332  39.253   9.455
 6684POPC   PO417040  11.324  39.242   9.155
 6684POPC   GL117041  11.274  39.220   8.855
 6684POPC   GL217042  11.349  39.355   8.855
 6684POPC   C1A17043  11.278  39.233   8.555
 6684POPC   D2A17044  11.304  39.276   8.255
 6684POPC   C3A17045  11.264  39.264   7.955
 6684POPC   C4A17046  11.261  39.246   7.655
 6684POPC   C1B17047  11.423  39.457   8.555
 6684POPC   C2B17048  11.478  39.452   8.255
 6684POPC   C3B17049  11.399  39.413   7.955
 6684POPC   C4B17050  11.428  39.435   7.655
 6685POPC   NC317051  24.472  35.391   9.455
 6685POPC   PO417052  24.441  35.317   9.155
 6685POPC   GL117053  24.505  35.303   8.855
 6685POPC   GL217054  24.355  35.401   8.855
 6685POPC   C1A17055  24.510  35.400   8.555
 6685POPC   D2A17056  24.505  35.383   8.255
 6685POPC   C3A17057  24.449  35.341   7.955
 6685POPC   C4A17058  24.452  35.360   7.655
 6685POPC   C1B17059  24.276  35.482   8.555
 6685POPC   C2B17060  24.269  35.476   8.255
 6685POPC   C3B17061  24.278  35.449   7.955
 6685POPC   C4B17062  24.289  35.472   7.655
 6686POPC   NC317063   8.154  26.795   9.455
 6686POPC   PO417064   8.191  26.769   9.155
 6686POPC   GL117065   8.227  26.859   8.855
 6686POPC   GL217066   8.087  26.763   8.855
 6686POPC   C1A17067   8.225  26.782   8.555
 6686POPC   D2A17068   8.153  26.858   8.255
 6686POPC   C3A17069   8.175  26.827   7.955
 6686POPC   C4A17070   8.239  26.833   7.655
 6686POPC   C1B17071   7.947  26.742   8.555
 6686POPC   C2B17072   8.017  26.731   8.255
 6686POPC   C3B17073   7.994  26.682   7.955
 6686POPC   C4B17074   8.017  26.717   7.655
 6687POPC   NC317075  11.319  12.852   9.455
 6687POPC   PO417076  11.326  12.886   9.155
 6687POPC   GL117077  11.328  12.861   8.855
 6687POPC   GL217078  11.348  12.987   8.855
 6687POPC   C1A17079  11.260  12.805   8.555
 6687POPC   D2A17080  11.335  12.836   8.255
 6687POPC   C3A17081  11.251  12.890   7.955
 6687POPC   C4A17082  11.349  12.870   7.655
 6687POPC   C1B17083  11.357  13.109   8.555
 6687POPC   C2B17084  11.437  13.107   8.255
 6687POPC   C3B17085  11.437  13.034   7.955
 6687POPC   C4B17086  11.385  13.096   7.655
 6688POPC   NC317087  36.877  34.538   9.455
 6688POPC   PO417088  36.855  34.542   9.155
 6688POPC   GL117089  36.886  34.613   8.855
 6688POPC   GL217090  36.792  34.532   8.855
 6688POPC   C1A17091  36.916  34.589   8.555
 6688POPC   D2A17092  36.879  34.532   8.255
 6688POPC   C3A17093  36.860  34.623   7.955
 6688POPC   C4A17094  36.946  34.560   7.655
 6688POPC   C1B17095  36.647  34.404   8.555
 6688POPC   C2B17096  36.675  34.429   8.255
 6688POPC   C3B17097  36.743  34.416   7.955
 6688POPC   C4B17098  36.681  34.487   7.655
 6689POPC   NC317099  20.639  27.588   9.455
 6689POPC   PO417100  20.637  27.597   9.155
 6689POPC   GL117101  20.636  27.549   8.855
 6689POPC   GL217102  20.469  27.617   8.855
 6689POPC   C1A17103  20.568  27.621   8.555
 6689POPC   D2A17104  20.608  27.582   8.255
 6689POPC   C3A17105  20.587  27.546   7.955
 6689POPC   C4A17106  20.652  27.618   7.655
 6689POPC   C1B17107  20.401  27.646   8.555
 6689POPC   C2B17108  20.386  27.670   8.255
 6689POPC   C3B17109  20.339  27.619   7.955
 6689POPC   C4B17110  20.408  27.668   7.655
 6690POPC   NC317111  10.524  26.796   9.455
 6690POPC   PO417112  10.494  26.854   9.155
 6690POPC   GL117113  10.493  26.821   8.855
 6690POPC   GL217114  10.638  26.787   8.855
 6690POPC   C1A17115  10.487  26.819   8.555
 6690POPC   D2A17116  10.546  26.865   8.255
 6690POPC   C3A17117  10.549  26.807   7.955
 6690POPC   C4A17118  10.534  26.841   7.655
 6690POPC   C1B17119  10.741  26.863   8.555
 6690POPC   C2B17120  10.818  26.870   8.255
 6690POPC   C3B17121  10.736  26.869   7.955
 6690POPC   C4B17122  10.736  26.827   7.655
 6691POPC   NC317123   2.760  36.890   9.455
 6691POPC   PO417124   2.753  36.920   9.155
 6691POPC   GL117125   2.778  36.873   8.855
 6691POPC   GL217126   2.677  36.836   8.855
 6691POPC   C1A17127   2.755  36.931   8.555
 6691POPC   D2A17128   2.729  36.907   8.255
 6691POPC   C3A17129   2.804  36.913   7.955
 6691POPC   C4A17130   2.741  36.899   7.655
 6691POPC   C1B17131   2.516  36.870   8.555
 6691POPC   C2B17132   2.481  36.874   8.255
 6691POPC   C3B17133   2.529  36.798   7.955
 6691POPC   C4B17134   2.482  36.823   7.655
 6692POPC   NC317135  25.232  12.897   9.455
 6692POPC   PO417136  25.218  12.809   9.155
 6692POPC   GL117137  25.231  12.861   8.855
 6692POPC   GL217138  25.277  13.006   8.855
 6692POPC   C1A17139  25.274  12.805   8.555
 6692POPC   D2A17140  25.315  12.823   8.255
 6692POPC   C3A17141  25.311  12.894   7.955
 6692POPC   C4A17142  25.253  12.807   7.655
 6692POPC   C1B17143  25.265  13.063   8.555
 6692POPC   C2B17144  25.258  13.076   8.255
 6692POPC   C3B17145  25.290  13.078   7.955
 6692POPC   C4B17146  25.236  13.091   7.655
 6693POPC   NC317147   8.950  39.186   9.455
 6693POPC   PO417148   9.004  39.219   9.155
 6693POPC   GL117149   8.975  39.182   8.855
 6693POPC   GL217150   8.864  39.136   8.855
 6693POPC   C1A17151   8.992  39.241   8.555
 6693POPC   D2A17152   9.008  39.237   8.255
 6693POPC   C3A17153   8.984  39.231   7.955
 6693POPC   C4A17154   8.976  39.218   7.655
 6693POPC   C1B17155   8.821  39.011   8.555
 6693POPC   C2B17156   8.756  39.035   8.255
 6693POPC   C3B17157   8.753  39.063   7.955
 6693POPC   C4B17158   8.798  39.088   7.655
 6694POPC   NC317159  22.898  25.234   9.455
 6694POPC   PO417160  22.935  25.310   9.155
 6694POPC   GL117161  22.896  25.279   8.855
 6694POPC   GL217162  23.009  25.354   8.855
 6694POPC   C1A17163  22.923  25.237   8.555
 6694POPC   D2A17164  22.922  25.227   8.255
 6694POPC   C3A17165  22.974  25.261   7.955
 6694POPC   C4A17166  22.966  25.257   7.655
 6694POPC   C1B17167  23.013  25.499   8.555
 6694POPC   C2B17168  23.012  25.474   8.255
 6694POPC   C3B17169  23.055  25.489   7.955
 6694POPC   C4B17170  23.064  25.442   7.655
 6695POPC   NC317171  37.645   9.000   9.455
 6695POPC   PO417172  37.648   8.983   9.155
 6695POPC   GL117173  37.654   8.984   8.855
 6695POPC   GL217174  37.584   8.951   8.855
 6695POPC   C1A17175  37.722   8.934   8.555
 6695POPC   D2A17176  37.663   8.970   8.255
 6695POPC   C3A17177  37.699   8.954   7.955
 6695POPC   C4A17178  37.658   9.003   7.655
 6695POPC   C1B17179  37.416   8.840   8.555
 6695POPC   C2B17180  37.464   8.845   8.255
 6695POPC   C3B17181  37.447   8.890   7.955
 6695POPC   C4B17182  37.464   8.885   7.655
 6696POPC   NC317183   5.048  11.331   9.455
 6696POPC   PO417184   5.092  11.298   9.155
 6696POPC   GL117185   5.140  11.270   8.855
 6696POPC   GL217186   5.133  11.384   8.855
 6696POPC   C1A17187   5.050  11.344   8.555
 6696POPC   D2A17188   5.057  11.320   8.255
 6696POPC   C3A17189   5.083  11.307   7.955
 6696POPC   C4A17190   5.080  11.330   7.655
 6696POPC   C1B17191   5.134  11.562   8.555
 6696POPC   C2B17192   5.163  11.522   8.255
 6696POPC   C3B17193   5.194  11.583   7.955
 6696POPC   C4B17194   5.213  11.513   7.655
 6697POPC   NC317195  10.534  29.890   9.455
 6697POPC   PO417196  10.552  29.938   9.155
 6697POPC   GL117197  10.550  29.935   8.855
 6697POPC   GL217198  10.473  30.050   8.855
 6697POPC   C1A17199  10.549  29.901   8.555
 6697POPC   D2A17200  10.480  29.918   8.255
 6697POPC   C3A17201  10.504  29.932   7.955
 6697POPC   C4A17202  10.546  29.885   7.655
 6697POPC   C1B17203  10.495  30.174   8.555
 6697POPC   C2B17204  10.465  30.122   8.255
 6697POPC   C3B17205  10.466  30.155   7.955
 6697POPC   C4B17206  10.415  30.156   7.655
 6698POPC   NC317207   5.094  38.423   9.455
 6698POPC   PO417208   5.063  38.459   9.155
 6698POPC   GL117209   5.126  38.448   8.855
 6698POPC   GL217210   5.218  38.411   8.855
 6698POPC   C1A17211   5.134  38.483   8.555
 6698POPC   D2A17212   5.083  38.446   8.255
 6698POPC   C3A17213   5.069  38.445   7.955
 6698POPC   C4A17214   5.134  38.451   7.655
 6698POPC   C1B17215   5.307  38.342   8.555
 6698POPC   C2B17216   5.257  38.295   8.255
 6698POPC   C3B17217   5.285  38.315   7.955
 6698POPC   C4B17218   5.287  38.357   7.655
 6699POPC   NC317219  29.955   0.467   9.455
 6699POPC   PO417220  29.902   0.400   9.155
 6699POPC   GL117221  29.898   0.450   8.855
 6699POPC   GL217222  29.897   0.579   8.855
 6699POPC   C1A17223  29.941   0.405   8.555
 6699POPC   D2A17224  29.886   0.457   8.255
 6699POPC   C3A17225  29.960   0.391   7.955
 6699POPC   C4A17226  29.876   0.439   7.655
 6699POPC   C1B17227  29.933   0.704   8.555
 6699POPC   C2B17228  29.918   0.636   8.255
 6699POPC   C3B17229  29.968   0.677   7.955
 6699POPC   C4B17230  29.994   0.660   7.655
 6700POPC   NC317231   8.228  28.371   9.455
 6700POPC   PO417232   8.181  28.328   9.155
 6700POPC   GL117233   8.210  28.413   8.855
 6700POPC   GL217234   8.275  28.386   8.855
 6700POPC   C1A17235   8.224  28.397   8.555
 6700POPC   D2A17236   8.233  28.357   8.255
 6700POPC   C3A17237   8.172  28.355   7.955
 6700POPC   C4A17238   8.157  28.351   7.655
 6700POPC   C1B17239   8.481  28.380   8.555
 6700POPC   C2B17240   8.481  28.405   8.255
 6700POPC   C3B17241   8.444  28.371   7.955
 6700POPC   C4B17242   8.442  28.330   7.655
 6701POPC   NC317243   2.795  13.603   9.455
 6701POPC   PO417244   2.744  13.581   9.155
 6701POPC   GL117245   2.801  13.627   8.855
 6701POPC   GL217246   2.696  13.712   8.855
 6701POPC   C1A17247   2.776  13.628   8.555
 6701POPC   D2A17248   2.774  13.633   8.255
 6701POPC   C3A17249   2.775  13.621   7.955
 6701POPC   C4A17250   2.748  13.586   7.655
 6701POPC   C1B17251   2.612  13.806   8.555
 6701POPC   C2B17252   2.631  13.849   8.255
 6701POPC   C3B17253   2.626  13.881   7.955
 6701POPC   C4B17254   2.592  13.849   7.655
 6702POPC   NC317255   5.824  28.322   9.455
 6702POPC   PO417256   5.860  28.354   9.155
 6702POPC   GL117257   5.826  28.392   8.855
 6702POPC   GL217258   5.787  28.425   8.855
 6702POPC   C1A17259   5.828  28.388   8.555
 6702POPC   D2A17260   5.915  28.324   8.255
 6702POPC   C3A17261   5.864  28.413   7.955
 6702POPC   C4A17262   5.892  28.397   7.655
 6702POPC   C1B17263   5.650  28.441   8.555
 6702POPC   C2B17264   5.597  28.376   8.255
 6702POPC   C3B17265   5.620  28.396   7.955
 6702POPC   C4B17266   5.618  28.391   7.655
 6703POPC   NC317267  42.289  42.290   9.455
 6703POPC   PO417268  42.302  42.330   9.155
 6703POPC   GL117269  42.298  42.291   8.855
 6703POPC   GL217270  42.506  42.344   8.855
 6703POPC   C1A17271  42.315  42.303   8.555
 6703POPC   D2A17272  42.322  42.384   8.255
 6703POPC   C3A17273  42.310  42.310   7.955
 6703POPC   C4A17274  42.295  42.301   7.655
 6703POPC   C1B17275  42.599  42.370   8.555
 6703POPC   C2B17276  42.600  42.339   8.255
 6703POPC   C3B17277  42.605  42.336   7.955
 6703POPC   C4B17278  42.594  42.377   7.655
 6704POPC   NC317279  29.924   7.462   9.455
 6704POPC   PO417280  29.876   7.420   9.155
 6704POPC   GL117281  29.922   7.411   8.855
 6704POPC   GL217282  30.080   7.427   8.855
 6704POPC   C1A17283  29.922   7.440   8.555
 6704POPC   D2A17284  29.892   7.401   8.255
 6704POPC   C3A17285  29.930   7.467   7.955
 6704POPC   C4A17286  29.941   7.458   7.655
 6704POPC   C1B17287  30.129   7.328   8.555
 6704POPC   C2B17288  30.207   7.384   8.255
 6704POPC   C3B17289  30.159   7.389   7.955
 6704POPC   C4B17290  30.199   7.384   7.655
 6705POPC   NC317291   2.787  36.157   9.455
 6705POPC   PO417292   2.735  36.128   9.155
 6705POPC   GL117293   2.743  36.090   8.855
 6705POPC   GL217294   2.858  36.079   8.855
 6705POPC   C1A17295   2.728  36.164   8.555
 6705POPC   D2A17296   2.725  36.169   8.255
 6705POPC   C3A17297   2.783  36.087   7.955
 6705POPC   C4A17298   2.740  36.110   7.655
 6705POPC   C1B17299   3.031  36.023   8.555
 6705POPC   C2B17300   2.987  36.068   8.255
 6705POPC   C3B17301   2.959  35.972   7.955
 6705POPC   C4B17302   2.946  35.984   7.655
 6706POPC   NC317303  42.372   8.938   9.455
 6706POPC   PO417304  42.370   8.941   9.155
 6706POPC   GL117305  42.300   8.980   8.855
 6706POPC   GL217306  42.380   9.114   8.855
 6706POPC   C1A17307  42.332   8.981   8.555
 6706POPC   D2A17308  42.294   9.007   8.255
 6706POPC   C3A17309  42.330   9.009   7.955
 6706POPC   C4A17310  42.323   9.005   7.655
 6706POPC   C1B17311  42.472   9.212   8.555
 6706POPC   C2B17312  42.472   9.205   8.255
 6706POPC   C3B17313  42.538   9.162   7.955
 6706POPC   C4B17314  42.462   9.192   7.655
 6707POPC   NC317315  36.154   1.227   9.455
 6707POPC   PO417316  36.134   1.240   9.155
 6707POPC   GL117317  36.144   1.250   8.855
 6707POPC   GL217318  35.964   1.288   8.855
 6707POPC   C1A17319  36.145   1.211   8.555
 6707POPC   D2A17320  36.140   1.207   8.255
 6707POPC   C3A17321  36.097   1.208   7.955
 6707POPC   C4A17322  36.156   1.191   7.655
 6707POPC   C1B17323  35.877   1.280   8.555
 6707POPC   C2B17324  35.870   1.253   8.255
 6707POPC   C3B17325  35.881   1.245   7.955
 6707POPC   C4B17326  35.897   1.323   7.655
 6708POPC   NC317327   6.625  29.142   9.455
 6708POPC   PO417328   6.600  29.177   9.155
 6708POPC   GL117329   6.621  29.181   8.855
 6708POPC   GL217330   6.557  29.125   8.855
 6708POPC   C1A17331   6.628  29.107   8.555
 6708POPC   D2A17332   6.596  29.143   8.255
 6708POPC   C3A17333   6.672  29.136   7.955
 6708POPC   C4A17334   6.603  29.141   7.655
 6708POPC   C1B17335   6.378  29.128   8.555
 6708POPC   C2B17336   6.435  29.131   8.255
 6708POPC   C3B17337   6.430  29.143   7.955
 6708POPC   C4B17338   6.424  29.064   7.655
 6709POPC   NC317339   5.884  34.585   9.455
 6709POPC   PO417340   5.819  34.548   9.155
 6709POPC   GL117341   5.851  34.589   8.855
 6709POPC   GL217342   5.860  34.413   8.855
 6709POPC   C1A17343   5.858  34.569   8.555
 6709POPC   D2A17344   5.868  34.560   8.255
 6709POPC   C3A17345   5.888  34.626   7.955
 6709POPC   C4A17346   5.853  34.544   7.655
 6709POPC   C1B17347   5.794  34.331   8.555
 6709POPC   C2B17348   5.771  34.315   8.255
 6709POPC   C3B17349   5.804  34.292   7.955
 6709POPC   C4B17350   5.815  34.334   7.655
 6710POPC   NC317351   4.278   1.187   9.455
 6710POPC   PO417352   4.355   1.231   9.155
 6710POPC   GL117353   4.311   1.228   8.855
 6710POPC   GL217354   4.348   1.087   8.855
 6710POPC   C1A17355   4.284   1.196   8.555
 6710POPC   D2A17356   4.276   1.253   8.255
 6710POPC   C3A17357   4.275   1.231   7.955
 6710POPC   C4A17358   4.364   1.214   7.655
 6710POPC   C1B17359   4.393   0.942   8.555
 6710POPC   C2B17360   4.391   0.988   8.255
 6710POPC   C3B17361   4.347   1.013   7.955
 6710POPC   C4B17362   4.396   0.952   7.655
 6711POPC   NC317363   3.572  35.344   9.455
 6711POPC   PO417364   3.550  35.304   9.155
 6711POPC   GL117365   3.536  35.306   8.855
 6711POPC   GL217366   3.444  35.208   8.855
 6711POPC   C1A17367   3.548  35.304   8.555
 6711POPC   D2A17368   3.563  35.366   8.255
 6711POPC   C3A17369   3.553  35.400   7.955
 6711POPC   C4A17370   3.591  35.302   7.655
 6711POPC   C1B17371   3.352  35.191   8.555
 6711POPC   C2B17372   3.405  35.107   8.255
 6711POPC   C3B17373   3.353  35.196   7.955
 6711POPC   C4B17374   3.357  35.178   7.655
 6712POPC   NC317375   5.874  33.043   9.455
 6712POPC   PO417376   5.882  33.054   9.155
 6712POPC   GL117377   5.865  33.070   8.855
 6712POPC   GL217378   5.999  33.058   8.855
 6712POPC   C1A17379   5.878  32.999   8.555
 6712POPC   D2A17380   5.885  33.026   8.255
 6712POPC   C3A17381   5.830  33.021   7.955
 6712POPC   C4A17382   5.874  33.007   7.655
 6712POPC   C1B17383   6.093  33.128   8.555
 6712POPC   C2B17384   6.133  33.106   8.255
 6712POPC   C3B17385   6.116  33.151   7.955
 6712POPC   C4B17386   6.082  33.141   7.655
 6713POPC   NC317387  31.467   0.394   9.455
 6713POPC   PO417388  31.474   0.460   9.155
 6713POPC   GL117389  31.470   0.457   8.855
 6713POPC   GL217390  31.531   0.601   8.855
 6713POPC   C1A17391  31.491   0.466   8.555
 6713POPC   D2A17392  31.518   0.428   8.255
 6713POPC   C3A17393  31.433   0.411   7.955
 6713POPC   C4A17394  31.450   0.409   7.655
 6713POPC   C1B17395  31.591   0.678   8.555
 6713POPC   C2B17396  31.595   0.648   8.255
 6713POPC   C3B17397  31.575   0.637   7.955
 6713POPC   C4B17398  31.578   0.717   7.655
 6714POPC   NC317399  39.223  43.090   9.455
 6714POPC   PO417400  39.221  43.061   9.155
 6714POPC   GL117401  39.258  43.120   8.855
 6714POPC   GL217402  39.228  43.244   8.855
 6714POPC   C1A17403  39.188  43.073   8.555
 6714POPC   D2A17404  39.196  43.159   8.255
 6714POPC   C3A17405  39.265  43.073   7.955
 6714POPC   C4A17406  39.279  43.072   7.655
 6714POPC   C1B17407  39.090  43.331   8.555
 6714POPC   C2B17408  39.110  43.384   8.255
 6714POPC   C3B17409  39.103  43.323   7.955
 6714POPC   C4B17410  39.099  43.314   7.655
 6715POPC   NC317411  36.116  25.288   9.455
 6715POPC   PO417412  36.097  25.270   9.155
 6715POPC   GL117413  36.118  25.226   8.855
 6715POPC   GL217414  36.159  25.177   8.855
 6715POPC   C1A17415  36.099  25.302   8.555
 6715POPC   D2A17416  36.167  25.312   8.255
 6715POPC   C3A17417  36.111  25.219   7.955
 6715POPC   C4A17418  36.121  25.224   7.655
 6715POPC   C1B17419  36.259  25.025   8.555
 6715POPC   C2B17420  36.197  25.047   8.255
 6715POPC   C3B17421  36.193  25.076   7.955
 6715POPC   C4B17422  36.248  25.052   7.655
 6716POPC   NC317423  12.824  19.801   9.455
 6716POPC   PO417424  12.878  19.786   9.155
 6716POPC   GL117425  12.864  19.811   8.855
 6716POPC   GL217426  12.770  19.889   8.855
 6716POPC   C1A17427  12.821  19.789   8.555
 6716POPC   D2A17428  12.853  19.834   8.255
 6716POPC   C3A17429  12.859  19.878   7.955
 6716POPC   C4A17430  12.899  19.799   7.655
 6716POPC   C1B17431  12.635  19.996   8.555
 6716POPC   C2B17432  12.690  19.936   8.255
 6716POPC   C3B17433  12.633  20.000   7.955
 6716POPC   C4B17434  12.606  20.004   7.655
 6717POPC   NC317435  34.529  36.921   9.455
 6717POPC   PO417436  34.605  36.887   9.155
 6717POPC   GL117437  34.547  36.883   8.855
 6717POPC   GL217438  34.732  36.843   8.855
 6717POPC   C1A17439  34.603  36.938   8.555
 6717POPC   D2A17440  34.563  36.858   8.255
 6717POPC   C3A17441  34.580  36.879   7.955
 6717POPC   C4A17442  34.589  36.896   7.655
 6717POPC   C1B17443  34.797  36.862   8.555
 6717POPC   C2B17444  34.841  36.797   8.255
 6717POPC   C3B17445  34.793  36.822   7.955
 6717POPC   C4B17446  34.863  36.845   7.655
 6718POPC   NC317447  27.550  14.376   9.455
 6718POPC   PO417448  27.636  14.359   9.155
 6718POPC   GL117449  27.596  14.430   8.855
 6718POPC   GL217450  27.499  14.377   8.855
 6718POPC   C1A17451  27.642  14.359   8.555
 6718POPC   D2A17452  27.555  14.410   8.255
 6718POPC   C3A17453  27.546  14.413   7.955
 6718POPC   C4A17454  27.579  14.399   7.655
 6718POPC   C1B17455  27.356  14.329   8.555
 6718POPC   C2B17456  27.375  14.315   8.255
 6718POPC   C3B17457  27.375  14.356   7.955
 6718POPC   C4B17458  27.311  14.358   7.655
 6719POPC   NC317459   3.492  14.378   9.455
 6719POPC   PO417460   3.504  14.405   9.155
 6719POPC   GL117461   3.558  14.437   8.855
 6719POPC   GL217462   3.640  14.329   8.855
 6719POPC   C1A17463   3.589  14.391   8.555
 6719POPC   D2A17464   3.567  14.365   8.255
 6719POPC   C3A17465   3.568  14.364   7.955
 6719POPC   C4A17466   3.533  14.430   7.655
 6719POPC   C1B17467   3.646  14.182   8.555
 6719POPC   C2B17468   3.647  14.192   8.255
 6719POPC   C3B17469   3.642  14.181   7.955
 6719POPC   C4B17470   3.636  14.190   7.655
 6720POPC   NC317471  19.815  43.889   9.455
 6720POPC   PO417472  19.871  43.894   9.155
 6720POPC   GL117473  19.798  43.899   8.855
 6720POPC   GL217474  19.737  43.828   8.855
 6720POPC   C1A17475  19.850  43.857   8.555
 6720POPC   D2A17476  19.823  43.931   8.255
 6720POPC   C3A17477  19.795  43.847   7.955
 6720POPC   C4A17478  19.829  43.920   7.655
 6720POPC   C1B17479  19.604  43.703   8.555
 6720POPC   C2B17480  19.616  43.739   8.255
 6720POPC   C3B17481  19.598  43.768   7.955
 6720POPC   C4B17482  19.599  43.783   7.655
 6721POPC   NC317483  29.110  26.823   9.455
 6721POPC   PO417484  29.114  26.833   9.155
 6721POPC   GL117485  29.123  26.839   8.855
 6721POPC   GL217486  29.017  26.743   8.855
 6721POPC   C1A17487  29.096  26.840   8.555
 6721POPC   D2A17488  29.113  26.787   8.255
 6721POPC   C3A17489  29.110  26.864   7.955
 6721POPC   C4A17490  29.156  26.823   7.655
 6721POPC   C1B17491  29.024  26.594   8.555
 6721POPC   C2B17492  29.024  26.597   8.255
 6721POPC   C3B17493  28.935  26.641   7.955
 6721POPC   C4B17494  28.999  26.597   7.655
 6722POPC   NC317495  17.556  12.057   9.455
 6722POPC   PO417496  17.547  12.063   9.155
 6722POPC   GL117497  17.484  12.066   8.855
 6722POPC   GL217498  17.647  12.184   8.855
 6722POPC   C1A17499  17.464  12.096   8.555
 6722POPC   D2A17500  17.483  12.112   8.255
 6722POPC   C3A17501  17.547  12.082   7.955
 6722POPC   C4A17502  17.503  12.125   7.655
 6722POPC   C1B17503  17.732  12.174   8.555
 6722POPC   C2B17504  17.681  12.205   8.255
 6722POPC   C3B17505  17.745  12.257   7.955
 6722POPC   C4B17506  17.663  12.235   7.655
 6723POPC   NC317507  12.040   5.903   9.455
 6723POPC   PO417508  12.100   5.853   9.155
 6723POPC   GL117509  12.087   5.903   8.855
 6723POPC   GL217510  12.178   5.909   8.855
 6723POPC   C1A17511  12.041   5.830   8.555
 6723POPC   D2A17512  12.093   5.901   8.255
 6723POPC   C3A17513  12.117   5.901   7.955
 6723POPC   C4A17514  12.059   5.850   7.655
 6723POPC   C1B17515  12.326   5.916   8.555
 6723POPC   C2B17516  12.292   5.978   8.255
 6723POPC   C3B17517  12.285   5.919   7.955
 6723POPC   C4B17518  12.303   5.986   7.655
 6724POPC   NC317519  16.777  17.488   9.455
 6724POPC   PO417520  16.709  17.532   9.155
 6724POPC   GL117521  16.718  17.518   8.855
 6724POPC   GL217522  16.858  17.528   8.855
 6724POPC   C1A17523  16.742  17.464   8.555
 6724POPC   D2A17524  16.724  17.484   8.255
 6724POPC   C3A17525  16.778  17.498   7.955
 6724POPC   C4A17526  16.705  17.461   7.655
 6724POPC   C1B17527  16.989  17.430   8.555
 6724POPC   C2B17528  16.962  17.505   8.255
 6724POPC   C3B17529  16.952  17.455   7.955
 6724POPC   C4B17530  16.932  17.453   7.655
 6725POPC   NC317531  13.616  12.815   9.455
 6725POPC   PO417532  13.651  12.871   9.155
 6725POPC   GL117533  13.621  12.828   8.855
 6725POPC   GL217534  13.683  12.953   8.855
 6725POPC   C1A17535  13.615  12.815   8.555
 6725POPC   D2A17536  13.615  12.865   8.255
 6725POPC   C3A17537  13.624  12.863   7.955
 6725POPC   C4A17538  13.597  12.837   7.655
 6725POPC   C1B17539  13.742  13.015   8.555
 6725POPC   C2B17540  13.744  13.050   8.255
 6725POPC   C3B17541  13.785  13.038   7.955
 6725POPC   C4B17542  13.754  13.031   7.655
 6726POPC   NC317543  12.840   9.765   9.455
 6726POPC   PO417544  12.867   9.788   9.155
 6726POPC   GL117545  12.881   9.727   8.855
 6726POPC   GL217546  12.779   9.675   8.855
 6726POPC   C1A17547  12.806   9.724   8.555
 6726POPC   D2A17548  12.841   9.786   8.255
 6726POPC   C3A17549  12.879   9.783   7.955
 6726POPC   C4A17550  12.847   9.792   7.655
 6726POPC   C1B17551  12.615   9.641   8.555
 6726POPC   C2B17552  12.657   9.630   8.255
 6726POPC   C3B17553  12.596   9.663   7.955
 6726POPC   C4B17554  12.570   9.680   7.655
 6727POPC   NC317555  36.101  24.506   9.455
 6727POPC   PO417556  36.084  24.535   9.155
 6727POPC   GL117557  36.110  24.536   8.855
 6727POPC   GL217558  36.091  24.604   8.855
 6727POPC   C1A17559  36.122  24.526   8.555
 6727POPC   D2A17560  36.166  24.449   8.255
 6727POPC   C3A17561  36.122  24.507   7.955
 6727POPC   C4A17562  36.083  24.491   7.655
 6727POPC   C1B17563  36.023  24.767   8.555
 6727POPC   C2B17564  35.977  24.738   8.255
 6727POPC   C3B17565  36.027  24.692   7.955
 6727POPC   C4B17566  36.022  24.704   7.655
 6728POPC   NC317567   2.759   1.983   9.455
 6728POPC   PO417568   2.801   1.966   9.155
 6728POPC   GL117569   2.717   1.974   8.855
 6728POPC   GL217570   2.739   1.834   8.855
 6728POPC   C1A17571   2.736   1.968   8.555
 6728POPC   D2A17572   2.731   2.001   8.255
 6728POPC   C3A17573   2.760   2.030   7.955
 6728POPC   C4A17574   2.812   2.008   7.655
 6728POPC   C1B17575   2.616   1.729   8.555
 6728POPC   C2B17576   2.644   1.731   8.255
 6728POPC   C3B17577   2.667   1.768   7.955
 6728POPC   C4B17578   2.614   1.810   7.655
 6729POPC   NC317579  25.283  33.760   9.455
 6729POPC   PO417580  25.268  33.796   9.155
 6729POPC   GL117581  25.257  33.848   8.855
 6729POPC   GL217582  25.342  33.850   8.855
 6729POPC   C1A17583  25.290  33.788   8.555
 6729POPC   D2A17584  25.296  33.816   8.255
 6729POPC   C3A17585  25.249  33.777   7.955
 6729POPC   C4A17586  25.224  33.750   7.655
 6729POPC   C1B17587  25.382  33.988   8.555
 6729POPC   C2B17588  25.422  33.992   8.255
 6729POPC   C3B17589  25.415  34.025   7.955
 6729POPC   C4B17590  25.443  33.953   7.655
 6730POPC   NC317591  22.921  43.118   9.455
 6730POPC   PO417592  22.909  43.089   9.155
 6730POPC   GL117593  22.899  43.077   8.855
 6730POPC   GL217594  22.804  43.098   8.855
 6730POPC   C1A17595  22.932  43.143   8.555
 6730POPC   D2A17596  22.951  43.078   8.255
 6730POPC   C3A17597  22.959  43.148   7.955
 6730POPC   C4A17598  22.968  43.087   7.655
 6730POPC   C1B17599  22.756  43.020   8.555
 6730POPC   C2B17600  22.713  43.029   8.255
 6730POPC   C3B17601  22.759  43.034   7.955
 6730POPC   C4B17602  22.713  43.009   7.655
 6731POPC   NC317603   7.438  14.369   9.455
 6731POPC   PO417604   7.402  14.447   9.155
 6731POPC   GL117605   7.409  14.438   8.855
 6731POPC   GL217606   7.346  14.512   8.855
 6731POPC   C1A17607   7.436  14.371   8.555
 6731POPC   D2A17608   7.451  14.397   8.255
 6731POPC   C3A17609   7.418  14.401   7.955
 6731POPC   C4A17610   7.376  14.398   7.655
 6731POPC   C1B17611   7.229  14.511   8.555
 6731POPC   C2B17612   7.231  14.590   8.255
 6731POPC   C3B17613   7.213  14.503   7.955
 6731POPC   C4B17614   7.178  14.539   7.655
 6732POPC   NC317615   3.500  26.035   9.455
 6732POPC   PO417616   3.520  26.032   9.155
 6732POPC   GL117617   3.585  26.080   8.855
 6732POPC   GL217618   3.446  25.907   8.855
 6732POPC   C1A17619   3.586  26.078   8.555
 6732POPC   D2A17620   3.501  26.090   8.255
 6732POPC   C3A17621   3.493  26.043   7.955
 6732POPC   C4A17622   3.562  26.057   7.655
 6732POPC   C1B17623   3.392  25.848   8.555
 6732POPC   C2B17624   3.348  25.848   8.255
 6732POPC   C3B17625   3.342  25.821   7.955
 6732POPC   C4B17626   3.393  25.820   7.655
 6733POPC   NC317627   0.478  22.198   9.455
 6733POPC   PO417628   0.467  22.172   9.155
 6733POPC   GL117629   0.394  22.201   8.855
 6733POPC   GL217630   0.355  22.074   8.855
 6733POPC   C1A17631   0.412  22.129   8.555
 6733POPC   D2A17632   0.414  22.135   8.255
 6733POPC   C3A17633   0.485  22.171   7.955
 6733POPC   C4A17634   0.405  22.135   7.655
 6733POPC   C1B17635   0.354  21.884   8.555
 6733POPC   C2B17636   0.355  21.882   8.255
 6733POPC   C3B17637   0.378  21.975   7.955
 6733POPC   C4B17638   0.388  21.970   7.655
 6734POPC   NC317639   8.942  33.063   9.455
 6734POPC   PO417640   8.986  33.006   9.155
 6734POPC   GL117641   8.976  33.021   8.855
 6734POPC   GL217642   9.000  33.152   8.855
 6734POPC   C1A17643   8.996  33.000   8.555
 6734POPC   D2A17644   8.970  32.996   8.255
 6734POPC   C3A17645   8.965  33.004   7.955
 6734POPC   C4A17646   8.973  32.992   7.655
 6734POPC   C1B17647   9.054  33.237   8.555
 6734POPC   C2B17648   9.039  33.240   8.255
 6734POPC   C3B17649   9.101  33.296   7.955
 6734POPC   C4B17650   9.100  33.278   7.655
 6735POPC   NC317651   1.978  15.975   9.455
 6735POPC   PO417652   2.005  15.918   9.155
 6735POPC   GL117653   2.036  15.920   8.855
 6735POPC   GL217654   2.074  15.855   8.855
 6735POPC   C1A17655   1.976  15.911   8.555
 6735POPC   D2A17656   1.982  15.952   8.255
 6735POPC   C3A17657   2.031  15.928   7.955
 6735POPC   C4A17658   1.965  15.940   7.655
 6735POPC   C1B17659   2.259  15.823   8.555
 6735POPC   C2B17660   2.225  15.823   8.255
 6735POPC   C3B17661   2.186  15.861   7.955
 6735POPC   C4B17662   2.185  15.825   7.655
 6736POPC   NC317663  20.643   3.589   9.455
 6736POPC   PO417664  20.591   3.493   9.155
 6736POPC   GL117665  20.650   3.501   8.855
 6736POPC   GL217666  20.594   3.423   8.855
 6736POPC   C1A17667  20.641   3.547   8.555
 6736POPC   D2A17668  20.571   3.586   8.255
 6736POPC   C3A17669  20.599   3.528   7.955
 6736POPC   C4A17670  20.619   3.547   7.655
 6736POPC   C1B17671  20.538   3.306   8.555
 6736POPC   C2B17672  20.568   3.267   8.255
 6736POPC   C3B17673  20.569   3.285   7.955
 6736POPC   C4B17674  20.617   3.286   7.655
 6737POPC   NC317675  32.265  20.563   9.455
 6737POPC   PO417676  32.287  20.649   9.155
 6737POPC   GL117677  32.273  20.622   8.855
 6737POPC   GL217678  32.274  20.702   8.855
 6737POPC   C1A17679  32.264  20.644   8.555
 6737POPC   D2A17680  32.218  20.605   8.255
 6737POPC   C3A17681  32.232  20.571   7.955
 6737POPC   C4A17682  32.270  20.659   7.655
 6737POPC   C1B17683  32.222  20.905   8.555
 6737POPC   C2B17684  32.224  20.823   8.255
 6737POPC   C3B17685  32.181  20.872   7.955
 6737POPC   C4B17686  32.193  20.821   7.655
 6738POPC   NC317687  32.228  23.708   9.455
 6738POPC   PO417688  32.216  23.739   9.155
 6738POPC   GL117689  32.218  23.665   8.855
 6738POPC   GL217690  32.213  23.637   8.855
 6738POPC   C1A17691  32.222  23.760   8.555
 6738POPC   D2A17692  32.274  23.674   8.255
 6738POPC   C3A17693  32.202  23.710   7.955
 6738POPC   C4A17694  32.285  23.703   7.655
 6738POPC   C1B17695  32.047  23.504   8.555
 6738POPC   C2B17696  32.096  23.538   8.255
 6738POPC   C3B17697  32.087  23.521   7.955
 6738POPC   C4B17698  32.063  23.556   7.655
 6739POPC   NC317699  15.935  34.557   9.455
 6739POPC   PO417700  15.974  34.591   9.155
 6739POPC   GL117701  15.977  34.539   8.855
 6739POPC   GL217702  15.882  34.508   8.855
 6739POPC   C1A17703  15.981  34.531   8.555
 6739POPC   D2A17704  15.953  34.599   8.255
 6739POPC   C3A17705  15.919  34.618   7.955
 6739POPC   C4A17706  15.999  34.549   7.655
 6739POPC   C1B17707  15.753  34.489   8.555
 6739POPC   C2B17708  15.745  34.565   8.255
 6739POPC   C3B17709  15.717  34.504   7.955
 6739POPC   C4B17710  15.715  34.505   7.655
 6740POPC   NC317711  29.953   2.015   9.455
 6740POPC   PO417712  29.893   1.982   9.155
 6740POPC   GL117713  29.939   1.981   8.855
 6740POPC   GL217714  29.757   1.927   8.855
 6740POPC   C1A17715  29.887   2.015   8.555
 6740POPC   D2A17716  29.963   1.960   8.255
 6740POPC   C3A17717  29.958   1.959   7.955
 6740POPC   C4A17718  29.888   2.038   7.655
 6740POPC   C1B17719  29.670   1.918   8.555
 6740POPC   C2B17720  29.684   1.892   8.255
 6740POPC   C3B17721  29.673   1.888   7.955
 6740POPC   C4B17722  29.725   1.909   7.655
 6741POPC   NC317723  42.305  33.001   9.455
 6741POPC   PO417724  42.355  33.002   9.155
 6741POPC   GL117725  42.371  33.028   8.855
 6741POPC   GL217726  42.474  33.053   8.855
 6741POPC   C1A17727  42.301  33.051   8.555
 6741POPC   D2A17728  42.343  32.991   8.255
 6741POPC   C3A17729  42.294  32.999   7.955
 6741POPC   C4A17730  42.378  33.066   7.655
 6741POPC   C1B17731  42.524  33.059   8.555
 6741POPC   C2B17732  42.532  33.082   8.255
 6741POPC   C3B17733  42.545  33.131   7.955
 6741POPC   C4B17734  42.605  33.077   7.655
 6742POPC   NC317735  25.244  11.317   9.455
 6742POPC   PO417736  25.314  11.279   9.155
 6742POPC   GL117737  25.242  11.323   8.855
 6742POPC   GL217738  25.431  11.304   8.855
 6742POPC   C1A17739  25.224  11.325   8.555
 6742POPC   D2A17740  25.251  11.303   8.255
 6742POPC   C3A17741  25.298  11.309   7.955
 6742POPC   C4A17742  25.302  11.307   7.655
 6742POPC   C1B17743  25.498  11.251   8.555
 6742POPC   C2B17744  25.545  11.284   8.255
 6742POPC   C3B17745  25.467  11.294   7.955
 6742POPC   C4B17746  25.515  11.267   7.655
 6743POPC   NC317747   8.964  18.297   9.455
 6743POPC   PO417748   8.948  18.248   9.155
 6743POPC   GL117749   9.011  18.255   8.855
 6743POPC   GL217750   8.938  18.184   8.855
 6743POPC   C1A17751   8.938  18.295   8.555
 6743POPC   D2A17752   8.962  18.260   8.255
 6743POPC   C3A17753   8.991  18.287   7.955
 6743POPC   C4A17754   8.957  18.267   7.655
 6743POPC   C1B17755   8.909  18.065   8.555
 6743POPC   C2B17756   8.955  18.089   8.255
 6743POPC   C3B17757   8.902  18.055   7.955
 6743POPC   C4B17758   8.929  18.080   7.655
 6744POPC   NC317759  37.682  27.637   9.455
 6744POPC   PO417760  37.677  27.549   9.155
 6744POPC   GL117761  37.675  27.639   8.855
 6744POPC   GL217762  37.599  27.687   8.855
 6744POPC   C1A17763  37.711  27.610   8.555
 6744POPC   D2A17764  37.644  27.588   8.255
 6744POPC   C3A17765  37.699  27.604   7.955
 6744POPC   C4A17766  37.660  27.569   7.655
 6744POPC   C1B17767  37.437  27.669   8.555
 6744POPC   C2B17768  37.493  27.706   8.255
 6744POPC   C3B17769  37.420  27.692   7.955
 6744POPC   C4B17770  37.432  27.708   7.655
 6745POPC   NC317771  35.399  34.569   9.455
 6745POPC   PO417772  35.306  34.536   9.155
 6745POPC   GL117773  35.339  34.615   8.855
 6745POPC   GL217774  35.472  34.562   8.855
 6745POPC   C1A17775  35.388  34.563   8.555
 6745POPC   D2A17776  35.356  34.614   8.255
 6745POPC   C3A17777  35.308  34.570   7.955
 6745POPC   C4A17778  35.329  34.601   7.655
 6745POPC   C1B17779  35.612  34.471   8.555
 6745POPC   C2B17780  35.533  34.435   8.255
 6745POPC   C3B17781  35.548  34.425   7.955
 6745POPC   C4B17782  35.569  34.412   7.655
 6746POPC   NC317783  30.650   5.886   9.455
 6746POPC   PO417784  30.714   5.853   9.155
 6746POPC   GL117785  30.743   5.899   8.855
 6746POPC   GL217786  30.630   5.819   8.855
 6746POPC   C1A17787  30.718   5.842   8.555
 6746POPC   D2A17788  30.734   5.887   8.255
 6746POPC   C3A17789  30.710   5.918   7.955
 6746POPC   C4A17790  30.709   5.911   7.655
 6746POPC   C1B17791  30.436   5.719   8.555
 6746POPC   C2B17792  30.492   5.741   8.255
 6746POPC   C3B17793  30.456   5.814   7.955
 6746POPC   C4B17794  30.449   5.720   7.655
 6747POPC   NC317795  29.949  20.613   9.455
 6747POPC   PO417796  29.936  20.627   9.155
 6747POPC   GL117797  29.879  20.576   8.855
 6747POPC   GL217798  29.914  20.502   8.855
 6747POPC   C1A17799  29.938  20.611   8.555
 6747POPC   D2A17800  29.885  20.634   8.255
 6747POPC   C3A17801  29.969  20.579   7.955
 6747POPC   C4A17802  29.947  20.650   7.655
 6747POPC   C1B17803  29.966  20.353   8.555
 6747POPC   C2B17804  29.982  20.370   8.255
 6747POPC   C3B17805  29.969  20.351   7.955
 6747POPC   C4B17806  29.914  20.345   7.655
 6748POPC   NC317807  33.765  33.074   9.455
 6748POPC   PO417808  33.829  32.979   9.155
 6748POPC   GL117809  33.811  33.062   8.855
 6748POPC   GL217810  33.818  32.930   8.855
 6748POPC   C1A17811  33.783  33.044   8.555
 6748POPC   D2A17812  33.846  33.061   8.255
 6748POPC   C3A17813  33.841  33.017   7.955
 6748POPC   C4A17814  33.847  33.029   7.655
 6748POPC   C1B17815  33.888  32.737   8.555
 6748POPC   C2B17816  33.880  32.797   8.255
 6748POPC   C3B17817  33.828  32.781   7.955
 6748POPC   C4B17818  33.853  32.817   7.655
 6749POPC   NC317819  10.500  38.455   9.455
 6749POPC   PO417820  10.543  38.429   9.155
 6749POPC   GL117821  10.480  38.496   8.855
 6749POPC   GL217822  10.498  38.569   8.855
 6749POPC   C1A17823  10.478  38.486   8.555
 6749POPC   D2A17824  10.507  38.430   8.255
 6749POPC   C3A17825  10.499  38.430   7.955
 6749POPC   C4A17826  10.533  38.424   7.655
 6749POPC   C1B17827  10.470  38.685   8.555
 6749POPC   C2B17828  10.471  38.730   8.255
 6749POPC   C3B17829  10.523  38.662   7.955
 6749POPC   C4B17830  10.453  38.733   7.655
 6750POPC   NC317831  32.234  31.438   9.455
 6750POPC   PO417832  32.244  31.494   9.155
 6750POPC   GL117833  32.271  31.463   8.855
 6750POPC   GL217834  32.354  31.414   8.855
 6750POPC   C1A17835  32.235  31.447   8.555
 6750POPC   D2A17836  32.205  31.448   8.255
 6750POPC   C3A17837  32.198  31.423   7.955
 6750POPC   C4A17838  32.287  31.482   7.655
 6750POPC   C1B17839  32.359  31.232   8.555
 6750POPC   C2B17840  32.446  31.309   8.255
 6750POPC   C3B17841  32.424  31.254   7.955
 6750POPC   C4B17842  32.415  31.247   7.655
 6751POPC   NC317843  40.775  40.815   9.455
 6751POPC   PO417844  40.811  40.748   9.155
 6751POPC   GL117845  40.756  40.793   8.855
 6751POPC   GL217846  40.702  40.726   8.855
 6751POPC   C1A17847  40.788  40.749   8.555
 6751POPC   D2A17848  40.797  40.777   8.255
 6751POPC   C3A17849  40.762  40.739   7.955
 6751POPC   C4A17850  40.782  40.821   7.655
 6751POPC   C1B17851  40.515  40.664   8.555
 6751POPC   C2B17852  40.500  40.719   8.255
 6751POPC   C3B17853  40.535  40.695   7.955
 6751POPC   C4B17854  40.545  40.723   7.655
 6752POPC   NC317855  19.839  28.411   9.455
 6752POPC   PO417856  19.829  28.405   9.155
 6752POPC   GL117857  19.829  28.343   8.855
 6752POPC   GL217858  19.929  28.274   8.855
 6752POPC   C1A17859  19.865  28.374   8.555
 6752POPC   D2A17860  19.844  28.337   8.255
 6752POPC   C3A17861  19.814  28.367   7.955
 6752POPC   C4A17862  19.864  28.388   7.655
 6752POPC   C1B17863  19.969  28.172   8.555
 6752POPC   C2B17864  20.016  28.139   8.255
 6752POPC   C3B17865  20.015  28.179   7.955
 6752POPC   C4B17866  19.981  28.141   7.655
 6753POPC   NC317867   9.777   1.972   9.455
 6753POPC   PO417868   9.714   2.006   9.155
 6753POPC   GL117869   9.764   1.994   8.855
 6753POPC   GL217870   9.884   2.051   8.855
 6753POPC   C1A17871   9.721   1.955   8.555
 6753POPC   D2A17872   9.785   1.940   8.255
 6753POPC   C3A17873   9.715   1.996   7.955
 6753POPC   C4A17874   9.712   1.971   7.655
 6753POPC   C1B17875   9.932   2.061   8.555
 6753POPC   C2B17876   9.954   2.077   8.255
 6753POPC   C3B17877  10.013   2.145   7.955
 6753POPC   C4B17878  10.007   2.133   7.655
 6754POPC   NC317879  26.812  35.391   9.455
 6754POPC   PO417880  26.833  35.302   9.155
 6754POPC   GL117881  26.808  35.322   8.855
 6754POPC   GL217882  26.923  35.409   8.855
 6754POPC   C1A17883  26.771  35.360   8.555
 6754POPC   D2A17884  26.793  35.326   8.255
 6754POPC   C3A17885  26.824  35.312   7.955
 6754POPC   C4A17886  26.862  35.393   7.655
 6754POPC   C1B17887  27.039  35.546   8.555
 6754POPC   C2B17888  27.030  35.467   8.255
 6754POPC   C3B17889  27.036  35.550   7.955
 6754POPC   C4B17890  27.045  35.527   7.655
 6755POPC   NC317891  16.778  10.533   9.455
 6755POPC   PO417892  16.709  10.482   9.155
 6755POPC   GL117893  16.745  10.481   8.855
 6755POPC   GL217894  16.770  10.582   8.855
 6755POPC   C1A17895  16.682  10.510   8.555
 6755POPC   D2A17896  16.730  10.569   8.255
 6755POPC   C3A17897  16.770  10.558   7.955
 6755POPC   C4A17898  16.743  10.540   7.655
 6755POPC   C1B17899  16.895  10.698   8.555
 6755POPC   C2B17900  16.888  10.758   8.255
 6755POPC   C3B17901  16.839  10.751   7.955
 6755POPC   C4B17902  16.860  10.704   7.655
 6756POPC   NC317903  24.468  22.179   9.455
 6756POPC   PO417904  24.485  22.210   9.155
 6756POPC   GL117905  24.473  22.206   8.855
 6756POPC   GL217906  24.368  22.144   8.855
 6756POPC   C1A17907  24.496  22.140   8.555
 6756POPC   D2A17908  24.452  22.148   8.255
 6756POPC   C3A17909  24.481  22.116   7.955
 6756POPC   C4A17910  24.514  22.126   7.655
 6756POPC   C1B17911  24.271  22.031   8.555
 6756POPC   C2B17912  24.276  22.081   8.255
 6756POPC   C3B17913  24.289  22.005   7.955
 6756POPC   C4B17914  24.308  22.097   7.655
 6757POPC   NC317915   9.759  43.063   9.455
 6757POPC   PO417916   9.746  43.156   9.155
 6757POPC   GL117917   9.717  43.100   8.855
 6757POPC   GL217918   9.668  43.141   8.855
 6757POPC   C1A17919   9.749  43.134   8.555
 6757POPC   D2A17920   9.722  43.129   8.255
 6757POPC   C3A17921   9.704  43.152   7.955
 6757POPC   C4A17922   9.716  43.070   7.655
 6757POPC   C1B17923   9.473  43.127   8.555
 6757POPC   C2B17924   9.520  43.136   8.255
 6757POPC   C3B17925   9.459  43.152   7.955
 6757POPC   C4B17926   9.463  43.109   7.655
 6758POPC   NC317927   1.250  43.122   9.455
 6758POPC   PO417928   1.188  43.152   9.155
 6758POPC   GL117929   1.233  43.076   8.855
 6758POPC   GL217930   1.103  42.985   8.855
 6758POPC   C1A17931   1.222  43.106   8.555
 6758POPC   D2A17932   1.256  43.097   8.255
 6758POPC   C3A17933   1.207  43.090   7.955
 6758POPC   C4A17934   1.185  43.070   7.655
 6758POPC   C1B17935   1.086  42.925   8.555
 6758POPC   C2B17936   1.046  42.909   8.255
 6758POPC   C3B17937   1.036  42.910   7.955
 6758POPC   C4B17938   1.019  42.899   7.655
 6759POPC   NC317939  28.347  38.471   9.455
 6759POPC   PO417940  28.378  38.412   9.155
 6759POPC   GL117941  28.386  38.456   8.855
 6759POPC   GL217942  28.467  38.483   8.855
 6759POPC   C1A17943  28.321  38.477   8.555
 6759POPC   D2A17944  28.408  38.407   8.255
 6759POPC   C3A17945  28.395  38.449   7.955
 6759POPC   C4A17946  28.322  38.418   7.655
 6759POPC   C1B17947  28.655  38.392   8.555
 6759POPC   C2B17948  28.574  38.430   8.255
 6759POPC   C3B17949  28.623  38.442   7.955
 6759POPC   C4B17950  28.645  38.463   7.655
 6760POPC   NC317951  21.340   9.703   9.455
 6760POPC   PO417952  21.337   9.725   9.155
 6760POPC   GL117953  21.387   9.787   8.855
 6760POPC   GL217954  21.309   9.851   8.855
 6760POPC   C1A17955  21.429   9.723   8.555
 6760POPC   D2A17956  21.365   9.738   8.255
 6760POPC   C3A17957  21.413   9.714   7.955
 6760POPC   C4A17958  21.375   9.748   7.655
 6760POPC   C1B17959  21.203   9.921   8.555
 6760POPC   C2B17960  21.224   9.959   8.255
 6760POPC   C3B17961  21.255   9.949   7.955
 6760POPC   C4B17962  21.238   9.963   7.655
 6761POPC   NC317963  17.498  31.509   9.455
 6761POPC   PO417964  17.483  31.448   9.155
 6761POPC   GL117965  17.543  31.521   8.855
 6761POPC   GL217966  17.601  31.369   8.855
 6761POPC   C1A17967  17.552  31.515   8.555
 6761POPC   D2A17968  17.485  31.515   8.255
 6761POPC   C3A17969  17.513  31.480   7.955
 6761POPC   C4A17970  17.474  31.486   7.655
 6761POPC   C1B17971  17.699  31.313   8.555
 6761POPC   C2B17972  17.624  31.304   8.255
 6761POPC   C3B17973  17.691  31.250   7.955
 6761POPC   C4B17974  17.695  31.289   7.655
 6762POPC   NC317975  40.734   4.318   9.455
 6762POPC   PO417976  40.745   4.310   9.155
 6762POPC   GL117977  40.816   4.365   8.855
 6762POPC   GL217978  40.674   4.180   8.855
 6762POPC   C1A17979  40.781   4.348   8.555
 6762POPC   D2A17980  40.750   4.334   8.255
 6762POPC   C3A17981  40.751   4.333   7.955
 6762POPC   C4A17982  40.752   4.327   7.655
 6762POPC   C1B17983  40.682   4.102   8.555
 6762POPC   C2B17984  40.662   4.094   8.255
 6762POPC   C3B17985  40.683   4.118   7.955
 6762POPC   C4B17986  40.654   4.064   7.655
 6763POPC   NC317987  37.699  19.064   9.455
 6763POPC   PO417988  37.697  19.063   9.155
 6763POPC   GL117989  37.671  19.022   8.855
 6763POPC   GL217990  37.782  19.132   8.855
 6763POPC   C1A17991  37.705  19.027   8.555
 6763POPC   D2A17992  37.722  19.046   8.255
 6763POPC   C3A17993  37.658  19.039   7.955
 6763POPC   C4A17994  37.649  19.053   7.655
 6763POPC   C1B17995  37.919  19.127   8.555
 6763POPC   C2B17996  37.951  19.074   8.255
 6763POPC   C3B17997  37.934  19.123   7.955
 6763POPC   C4B17998  37.893  19.105   7.655
 6764POPC   NC317999  39.243   8.979   9.455
 6764POPC   PO418000  39.247   9.009   9.155
 6764POPC   GL118001  39.260   8.940   8.855
 6764POPC   GL218002  39.286   8.910   8.855
 6764POPC   C1A18003  39.220   8.992   8.555
 6764POPC   D2A18004  39.185   8.927   8.255
 6764POPC   C3A18005  39.210   8.933   7.955
 6764POPC   C4A18006  39.244   8.995   7.655
 6764POPC   C1B18007  39.352   8.726   8.555
 6764POPC   C2B18008  39.367   8.810   8.255
 6764POPC   C3B18009  39.385   8.726   7.955
 6764POPC   C4B18010  39.384   8.770   7.655
 6765POPC   NC318011  31.502   4.287   9.455
 6765POPC   PO418012  31.483   4.342   9.155
 6765POPC   GL118013  31.457   4.360   8.855
 6765POPC   GL218014  31.410   4.198   8.855
 6765POPC   C1A18015  31.477   4.308   8.555
 6765POPC   D2A18016  31.446   4.305   8.255
 6765POPC   C3A18017  31.508   4.339   7.955
 6765POPC   C4A18018  31.486   4.305   7.655
 6765POPC   C1B18019  31.392   4.040   8.555
 6765POPC   C2B18020  31.427   4.040   8.255
 6765POPC   C3B18021  31.395   4.113   7.955
 6765POPC   C4B18022  31.461   4.072   7.655
 6766POPC   NC318023  39.997  29.945   9.455
 6766POPC   PO418024  40.020  29.922   9.155
 6766POPC   GL118025  40.019  29.947   8.855
 6766POPC   GL218026  40.100  29.908   8.855
 6766POPC   C1A18027  40.046  29.955   8.555
 6766POPC   D2A18028  40.009  29.970   8.255
 6766POPC   C3A18029  40.018  29.924   7.955
 6766POPC   C4A18030  39.998  29.927   7.655
 6766POPC   C1B18031  40.224  29.935   8.555
 6766POPC   C2B18032  40.252  29.944   8.255
 6766POPC   C3B18033  40.263  29.889   7.955
 6766POPC   C4B18034  40.276  29.931   7.655
 6767POPC   NC318035   7.383  26.836   9.455
 6767POPC   PO418036   7.405  26.866   9.155
 6767POPC   GL118037   7.469  26.851   8.855
 6767POPC   GL218038   7.357  26.704   8.855
 6767POPC   C1A18039   7.453  26.803   8.555
 6767POPC   D2A18040   7.462  26.825   8.255
 6767POPC   C3A18041   7.466  26.811   7.955
 6767POPC   C4A18042   7.456  26.818   7.655
 6767POPC   C1B18043   7.297  26.595   8.555
 6767POPC   C2B18044   7.349  26.603   8.255
 6767POPC   C3B18045   7.341  26.537   7.955
 6767POPC   C4B18046   7.382  26.544   7.655
 6768POPC   NC318047  16.708  14.435   9.455
 6768POPC   PO418048  16.708  14.441   9.155
 6768POPC   GL118049  16.696  14.358   8.855
 6768POPC   GL218050  16.855  14.440   8.855
 6768POPC   C1A18051  16.760  14.370   8.555
 6768POPC   D2A18052  16.703  14.410   8.255
 6768POPC   C3A18053  16.685  14.407   7.955
 6768POPC   C4A18054  16.719  14.434   7.655
 6768POPC   C1B18055  16.949  14.458   8.555
 6768POPC   C2B18056  16.963  14.468   8.255
 6768POPC   C3B18057  17.022  14.490   7.955
 6768POPC   C4B18058  16.944  14.408   7.655
 6769POPC   NC318059   0.453   8.216   9.455
 6769POPC   PO418060   0.486   8.196   9.155
 6769POPC   GL118061   0.479   8.216   8.855
 6769POPC   GL218062   0.429   8.077   8.855
 6769POPC   C1A18063   0.450   8.236   8.555
 6769POPC   D2A18064   0.449   8.244   8.255
 6769POPC   C3A18065   0.399   8.213   7.955
 6769POPC   C4A18066   0.403   8.232   7.655
 6769POPC   C1B18067   0.491   7.907   8.555
 6769POPC   C2B18068   0.503   7.904   8.255
 6769POPC   C3B18069   0.513   7.986   7.955
 6769POPC   C4B18070   0.435   7.988   7.655
 6770POPC   NC318071   6.632  28.328   9.455
 6770POPC   PO418072   6.596  28.338   9.155
 6770POPC   GL118073   6.682  28.396   8.855
 6770POPC   GL218074   6.678  28.272   8.855
 6770POPC   C1A18075   6.678  28.366   8.555
 6770POPC   D2A18076   6.615  28.377   8.255
 6770POPC   C3A18077   6.613  28.381   7.955
 6770POPC   C4A18078   6.692  28.333   7.655
 6770POPC   C1B18079   6.692  28.082   8.555
 6770POPC   C2B18080   6.706  28.141   8.255
 6770POPC   C3B18081   6.664  28.121   7.955
 6770POPC   C4B18082   6.667  28.072   7.655
 6771POPC   NC318083  20.575  40.003   9.455
 6771POPC   PO418084  20.620  40.009   9.155
 6771POPC   GL118085  20.625  40.032   8.855
 6771POPC   GL218086  20.692  40.089   8.855
 6771POPC   C1A18087  20.629  39.998   8.555
 6771POPC   D2A18088  20.621  40.025   8.255
 6771POPC   C3A18089  20.564  39.979   7.955
 6771POPC   C4A18090  20.645  40.053   7.655
 6771POPC   C1B18091  20.722  40.222   8.555
 6771POPC   C2B18092  20.656  40.204   8.255
 6771POPC   C3B18093  20.672  40.252   7.955
 6771POPC   C4B18094  20.656  40.217   7.655
 6772POPC   NC318095   2.003  17.549   9.455
 6772POPC   PO418096   1.949  17.524   9.155
 6772POPC   GL118097   1.950  17.472   8.855
 6772POPC   GL218098   1.956  17.646   8.855
 6772POPC   C1A18099   1.960  17.531   8.555
 6772POPC   D2A18100   1.992  17.473   8.255
 6772POPC   C3A18101   1.944  17.555   7.955
 6772POPC   C4A18102   1.997  17.490   7.655
 6772POPC   C1B18103   1.821  17.748   8.555
 6772POPC   C2B18104   1.831  17.665   8.255
 6772POPC   C3B18105   1.864  17.755   7.955
 6772POPC   C4B18106   1.802  17.667   7.655
 6773POPC   NC318107  15.224  40.763   9.455
 6773POPC   PO418108  15.206  40.796   9.155
 6773POPC   GL118109  15.192  40.821   8.855
 6773POPC   GL218110  15.262  40.747   8.855
 6773POPC   C1A18111  15.202  40.809   8.555
 6773POPC   D2A18112  15.216  40.785   8.255
 6773POPC   C3A18113  15.165  40.827   7.955
 6773POPC   C4A18114  15.214  40.765   7.655
 6773POPC   C1B18115  15.393  40.714   8.555
 6773POPC   C2B18116  15.391  40.797   8.255
 6773POPC   C3B18117  15.389  40.794   7.955
 6773POPC   C4B18118  15.420  40.779   7.655
 6774POPC   NC318119  12.072  18.268   9.455
 6774POPC   PO418120  12.062  18.313   9.155
 6774POPC   GL118121  12.062  18.304   8.855
 6774POPC   GL218122  12.111  18.190   8.855
 6774POPC   C1A18123  12.058  18.327   8.555
 6774POPC   D2A18124  12.082  18.297   8.255
 6774POPC   C3A18125  12.109  18.286   7.955
 6774POPC   C4A18126  12.048  18.322   7.655
 6774POPC   C1B18127  12.041  18.074   8.555
 6774POPC   C2B18128  12.016  18.069   8.255
 6774POPC   C3B18129  12.079  18.033   7.955
 6774POPC   C4B18130  12.011  17.993   7.655
 6775POPC   NC318131  22.160   3.533   9.455
 6775POPC   PO418132  22.196   3.514   9.155
 6775POPC   GL118133  22.158   3.568   8.855
 6775POPC   GL218134  22.003   3.496   8.855
 6775POPC   C1A18135  22.197   3.562   8.555
 6775POPC   D2A18136  22.145   3.536   8.255
 6775POPC   C3A18137  22.179   3.499   7.955
 6775POPC   C4A18138  22.142   3.549   7.655
 6775POPC   C1B18139  21.927   3.507   8.555
 6775POPC   C2B18140  21.958   3.524   8.255
 6775POPC   C3B18141  21.926   3.511   7.955
 6775POPC   C4B18142  21.903   3.503   7.655
 6776POPC   NC318143  26.823   8.242   9.455
 6776POPC   PO418144  26.795   8.204   9.155
 6776POPC   GL118145  26.843   8.237   8.855
 6776POPC   GL218146  26.893   8.178   8.855
 6776POPC   C1A18147  26.793   8.187   8.555
 6776POPC   D2A18148  26.772   8.204   8.255
 6776POPC   C3A18149  26.820   8.156   7.955
 6776POPC   C4A18150  26.815   8.211   7.655
 6776POPC   C1B18151  27.104   8.262   8.555
 6776POPC   C2B18152  27.090   8.233   8.255
 6776POPC   C3B18153  27.044   8.304   7.955
 6776POPC   C4B18154  27.064   8.232   7.655
 6777POPC   NC318155   1.206  20.596   9.455
 6777POPC   PO418156   1.261  20.577   9.155
 6777POPC   GL118157   1.199  20.593   8.855
 6777POPC   GL218158   1.262  20.724   8.855
 6777POPC   C1A18159   1.247  20.602   8.555
 6777POPC   D2A18160   1.221  20.574   8.255
 6777POPC   C3A18161   1.174  20.576   7.955
 6777POPC   C4A18162   1.257  20.646   7.655
 6777POPC   C1B18163   1.378  20.825   8.555
 6777POPC   C2B18164   1.307  20.863   8.255
 6777POPC   C3B18165   1.317  20.846   7.955
 6777POPC   C4B18166   1.354  20.834   7.655
 6778POPC   NC318167  43.060  30.662   9.455
 6778POPC   PO418168  43.072  30.679   9.155
 6778POPC   GL118169  43.101  30.700   8.855
 6778POPC   GL218170  43.040  30.661   8.855
 6778POPC   C1A18171  43.077  30.659   8.555
 6778POPC   D2A18172  43.130  30.683   8.255
 6778POPC   C3A18173  43.158  30.649   7.955
 6778POPC   C4A18174  43.093  30.713   7.655
 6778POPC   C1B18175  42.943  30.524   8.555
 6778POPC   C2B18176  42.931  30.560   8.255
 6778POPC   C3B18177  42.851  30.573   7.955
 6778POPC   C4B18178  42.890  30.547   7.655
 6779POPC   NC318179   0.488  25.278   9.455
 6779POPC   PO418180   0.473  25.238   9.155
 6779POPC   GL118181   0.409  25.286   8.855
 6779POPC   GL218182   0.286  25.288   8.855
 6779POPC   C1A18183   0.436  25.315   8.555
 6779POPC   D2A18184   0.405  25.301   8.255
 6779POPC   C3A18185   0.477  25.245   7.955
 6779POPC   C4A18186   0.475  25.241   7.655
 6779POPC   C1B18187   0.174  25.242   8.555
 6779POPC   C2B18188   0.222  25.271   8.255
 6779POPC   C3B18189   0.234  25.227   7.955
 6779POPC   C4B18190   0.205  25.246   7.655
 6780POPC   NC318191  40.822  44.613   9.455
 6780POPC   PO418192  40.754  44.634   9.155
 6780POPC   GL118193  40.812  44.650   8.855
 6780POPC   GL218194  40.698  44.707   8.855
 6780POPC   C1A18195  40.803  44.643   8.555
 6780POPC   D2A18196  40.817  44.704   8.255
 6780POPC   C3A18197  40.775  44.630   7.955
 6780POPC   C4A18198  40.734  44.667   7.655
 6780POPC   C1B18199  40.577  44.720   8.555
 6780POPC   C2B18200  40.549  44.786   8.255
 6780POPC   C3B18201  40.562  44.690   7.955
 6780POPC   C4B18202  40.551  44.756   7.655
 6781POPC   NC318203  13.650  22.924   9.455
 6781POPC   PO418204  13.664  22.965   9.155
 6781POPC   GL118205  13.614  22.912   8.855
 6781POPC   GL218206  13.771  22.870   8.855
 6781POPC   C1A18207  13.629  22.961   8.555
 6781POPC   D2A18208  13.581  22.897   8.255
 6781POPC   C3A18209  13.602  22.961   7.955
 6781POPC   C4A18210  13.607  22.980   7.655
 6781POPC   C1B18211  13.811  22.848   8.555
 6781POPC   C2B18212  13.880  22.855   8.255
 6781POPC   C3B18213  13.907  22.849   7.955
 6781POPC   C4B18214  13.818  22.829   7.655
 6782POPC   NC318215   5.060  23.726   9.455
 6782POPC   PO418216   5.045  23.697   9.155
 6782POPC   GL118217   5.132  23.763   8.855
 6782POPC   GL218218   5.107  23.857   8.855
 6782POPC   C1A18219   5.122  23.665   8.555
 6782POPC   D2A18220   5.096  23.740   8.255
 6782POPC   C3A18221   5.047  23.724   7.955
 6782POPC   C4A18222   5.048  23.723   7.655
 6782POPC   C1B18223   5.106  23.976   8.555
 6782POPC   C2B18224   5.062  23.922   8.255
 6782POPC   C3B18225   5.120  23.955   7.955
 6782POPC   C4B18226   5.058  24.013   7.655
 6783POPC   NC318227   4.306  34.606   9.455
 6783POPC   PO418228   4.313  34.573   9.155
 6783POPC   GL118229   4.291  34.624   8.855
 6783POPC   GL218230   4.178  34.624   8.855
 6783POPC   C1A18231   4.353  34.622   8.555
 6783POPC   D2A18232   4.290  34.615   8.255
 6783POPC   C3A18233   4.304  34.598   7.955
 6783POPC   C4A18234   4.273  34.596   7.655
 6783POPC   C1B18235   4.154  34.763   8.555
 6783POPC   C2B18236   4.094  34.736   8.255
 6783POPC   C3B18237   4.124  34.777   7.955
 6783POPC   C4B18238   4.181  34.716   7.655
 6784POPC   NC318239  28.412   9.007   9.455
 6784POPC   PO418240  28.408   8.955   9.155
 6784POPC   GL118241  28.411   8.940   8.855
 6784POPC   GL218242  28.511   8.919   8.855
 6784POPC   C1A18243  28.416   8.936   8.555
 6784POPC   D2A18244  28.377   8.964   8.255
 6784POPC   C3A18245  28.415   8.977   7.955
 6784POPC   C4A18246  28.365   8.984   7.655
 6784POPC   C1B18247  28.610   8.884   8.555
 6784POPC   C2B18248  28.625   8.853   8.255
 6784POPC   C3B18249  28.632   8.861   7.955
 6784POPC   C4B18250  28.636   8.902   7.655
 6785POPC   NC318251  22.950  37.655   9.455
 6785POPC   PO418252  22.909  37.667   9.155
 6785POPC   GL118253  22.937  37.682   8.855
 6785POPC   GL218254  23.022  37.784   8.855
 6785POPC   C1A18255  22.969  37.703   8.555
 6785POPC   D2A18256  22.893  37.637   8.255
 6785POPC   C3A18257  22.954  37.698   7.955
 6785POPC   C4A18258  22.947  37.698   7.655
 6785POPC   C1B18259  23.142  37.812   8.555
 6785POPC   C2B18260  23.170  37.861   8.255
 6785POPC   C3B18261  23.153  37.793   7.955
 6785POPC   C4B18262  23.177  37.822   7.655
 6786POPC   NC318263  32.277  43.935   9.455
 6786POPC   PO418264  32.245  43.859   9.155
 6786POPC   GL118265  32.203  43.928   8.855
 6786POPC   GL218266  32.169  43.964   8.855
 6786POPC   C1A18267  32.246  43.912   8.555
 6786POPC   D2A18268  32.212  43.925   8.255
 6786POPC   C3A18269  32.297  43.862   7.955
 6786POPC   C4A18270  32.249  43.867   7.655
 6786POPC   C1B18271  32.008  43.905   8.555
 6786POPC   C2B18272  32.049  43.942   8.255
 6786POPC   C3B18273  32.047  43.899   7.955
 6786POPC   C4B18274  32.025  43.926   7.655
 6787POPC   NC318275   1.173  16.769   9.455
 6787POPC   PO418276   1.193  16.762   9.155
 6787POPC   GL118277   1.246  16.779   8.855
 6787POPC   GL218278   1.118  16.668   8.855
 6787POPC   C1A18279   1.208  16.689   8.555
 6787POPC   D2A18280   1.238  16.770   8.255
 6787POPC   C3A18281   1.220  16.753   7.955
 6787POPC   C4A18282   1.230  16.703   7.655
 6787POPC   C1B18283   0.987  16.598   8.555
 6787POPC   C2B18284   1.045  16.556   8.255
 6787POPC   C3B18285   1.042  16.538   7.955
 6787POPC   C4B18286   1.029  16.571   7.655
 6788POPC   NC318287  32.978  37.708   9.455
 6788POPC   PO418288  33.017  37.689   9.155
 6788POPC   GL118289  32.976  37.683   8.855
 6788POPC   GL218290  32.918  37.541   8.855
 6788POPC   C1A18291  33.054  37.709   8.555
 6788POPC   D2A18292  32.993  37.685   8.255
 6788POPC   C3A18293  32.981  37.696   7.955
 6788POPC   C4A18294  33.071  37.696   7.655
 6788POPC   C1B18295  32.852  37.508   8.555
 6788POPC   C2B18296  32.880  37.517   8.255
 6788POPC   C3B18297  32.897  37.479   7.955
 6788POPC   C4B18298  32.904  37.497   7.655
 6789POPC   NC318299   3.554  40.765   9.455
 6789POPC   PO418300   3.511  40.758   9.155
 6789POPC   GL118301   3.514  40.810   8.855
 6789POPC   GL218302   3.504  40.923   8.855
 6789POPC   C1A18303   3.556  40.737   8.555
 6789POPC   D2A18304   3.558  40.782   8.255
 6789POPC   C3A18305   3.517  40.787   7.955
 6789POPC   C4A18306   3.554  40.754   7.655
 6789POPC   C1B18307   3.399  40.948   8.555
 6789POPC   C2B18308   3.450  41.030   8.255
 6789POPC   C3B18309   3.400  40.965   7.955
 6789POPC   C4B18310   3.369  40.963   7.655
 6790POPC   NC318311  22.924  22.909   9.455
 6790POPC   PO418312  22.968  22.954   9.155
 6790POPC   GL118313  22.957  22.923   8.855
 6790POPC   GL218314  23.067  22.945   8.855
 6790POPC   C1A18315  22.902  22.934   8.555
 6790POPC   D2A18316  22.911  22.945   8.255
 6790POPC   C3A18317  22.963  22.946   7.955
 6790POPC   C4A18318  22.938  22.967   7.655
 6790POPC   C1B18319  23.203  23.005   8.555
 6790POPC   C2B18320  23.148  23.025   8.255
 6790POPC   C3B18321  23.159  23.041   7.955
 6790POPC   C4B18322  23.161  22.990   7.655
 6791POPC   NC318323  31.474   5.879   9.455
 6791POPC   PO418324  31.445   5.850   9.155
 6791POPC   GL118325  31.504   5.819   8.855
 6791POPC   GL218326  31.559   5.721   8.855
 6791POPC   C1A18327  31.500   5.914   8.555
 6791POPC   D2A18328  31.432   5.869   8.255
 6791POPC   C3A18329  31.467   5.889   7.955
 6791POPC   C4A18330  31.487   5.862   7.655
 6791POPC   C1B18331  31.603   5.702   8.555
 6791POPC   C2B18332  31.634   5.623   8.255
 6791POPC   C3B18333  31.635   5.633   7.955
 6791POPC   C4B18334  31.584   5.642   7.655
 6792POPC   NC318335  28.398  27.572   9.455
 6792POPC   PO418336  28.332  27.565   9.155
 6792POPC   GL118337  28.385  27.628   8.855
 6792POPC   GL218338  28.314  27.449   8.855
 6792POPC   C1A18339  28.403  27.552   8.555
 6792POPC   D2A18340  28.332  27.572   8.255
 6792POPC   C3A18341  28.319  27.637   7.955
 6792POPC   C4A18342  28.382  27.592   7.655
 6792POPC   C1B18343  28.264  27.378   8.555
 6792POPC   C2B18344  28.304  27.393   8.255
 6792POPC   C3B18345  28.277  27.407   7.955
 6792POPC   C4B18346  28.269  27.357   7.655
 6793POPC   NC318347  26.820  42.286   9.455
 6793POPC   PO418348  26.807  42.290   9.155
 6793POPC   GL118349  26.781  42.318   8.855
 6793POPC   GL218350  26.781  42.206   8.855
 6793POPC   C1A18351  26.778  42.324   8.555
 6793POPC   D2A18352  26.798  42.349   8.255
 6793POPC   C3A18353  26.848  42.319   7.955
 6793POPC   C4A18354  26.860  42.290   7.655
 6793POPC   C1B18355  26.791  42.130   8.555
 6793POPC   C2B18356  26.748  42.108   8.255
 6793POPC   C3B18357  26.772  42.120   7.955
 6793POPC   C4B18358  26.730  42.064   7.655
 6794POPC   NC318359  20.593  11.330   9.455
 6794POPC   PO418360  20.618  11.274   9.155
 6794POPC   GL118361  20.577  11.261   8.855
 6794POPC   GL218362  20.594  11.374   8.855
 6794POPC   C1A18363  20.576  11.281   8.555
 6794POPC   D2A18364  20.621  11.267   8.255
 6794POPC   C3A18365  20.634  11.293   7.955
 6794POPC   C4A18366  20.630  11.293   7.655
 6794POPC   C1B18367  20.535  11.487   8.555
 6794POPC   C2B18368  20.515  11.529   8.255
 6794POPC   C3B18369  20.500  11.541   7.955
 6794POPC   C4B18370  20.500  11.493   7.655
 6795POPC   NC318371   6.597  36.906   9.455
 6795POPC   PO418372   6.618  36.952   9.155
 6795POPC   GL118373   6.672  36.916   8.855
 6795POPC   GL218374   6.699  36.782   8.855
 6795POPC   C1A18375   6.676  36.914   8.555
 6795POPC   D2A18376   6.609  36.887   8.255
 6795POPC   C3A18377   6.625  36.952   7.955
 6795POPC   C4A18378   6.610  36.879   7.655
 6795POPC   C1B18379   6.749  36.668   8.555
 6795POPC   C2B18380   6.782  36.682   8.255
 6795POPC   C3B18381   6.752  36.678   7.955
 6795POPC   C4B18382   6.804  36.658   7.655
 6796POPC   NC318383  40.819  43.874   9.455
 6796POPC   PO418384  40.763  43.891   9.155
 6796POPC   GL118385  40.803  43.879   8.855
 6796POPC   GL218386  40.690  43.957   8.855
 6796POPC   C1A18387  40.734  43.842   8.555
 6796POPC   D2A18388  40.760  43.934   8.255
 6796POPC   C3A18389  40.757  43.851   7.955
 6796POPC   C4A18390  40.743  43.932   7.655
 6796POPC   C1B18391  40.536  43.940   8.555
 6796POPC   C2B18392  40.575  43.939   8.255
 6796POPC   C3B18393  40.560  43.943   7.955
 6796POPC   C4B18394  40.538  43.951   7.655
 6797POPC   NC318395  11.294  42.307   9.455
 6797POPC   PO418396  11.321  42.353   9.155
 6797POPC   GL118397  11.258  42.382   8.855
 6797POPC   GL218398  11.153  42.283   8.855
 6797POPC   C1A18399  11.299  42.365   8.555
 6797POPC   D2A18400  11.288  42.363   8.255
 6797POPC   C3A18401  11.310  42.377   7.955
 6797POPC   C4A18402  11.330  42.302   7.655
 6797POPC   C1B18403  11.030  42.273   8.555
 6797POPC   C2B18404  11.056  42.196   8.255
 6797POPC   C3B18405  11.019  42.289   7.955
 6797POPC   C4B18406  11.075  42.237   7.655
 6798POPC   NC318407  26.044  24.455   9.455
 6798POPC   PO418408  26.089  24.482   9.155
 6798POPC   GL118409  26.010  24.481   8.855
 6798POPC   GL218410  25.874  24.489   8.855
 6798POPC   C1A18411  26.052  24.503   8.555
 6798POPC   D2A18412  26.023  24.444   8.255
 6798POPC   C3A18413  26.013  24.461   7.955
 6798POPC   C4A18414  26.040  24.506   7.655
 6798POPC   C1B18415  25.786  24.572   8.555
 6798POPC   C2B18416  25.798  24.520   8.255
 6798POPC   C3B18417  25.771  24.562   7.955
 6798POPC   C4B18418  25.848  24.578   7.655
 6799POPC   NC318419  36.930  22.908   9.455
 6799POPC   PO418420  36.920  22.915   9.155
 6799POPC   GL118421  36.937  22.930   8.855
 6799POPC   GL218422  36.958  23.037   8.855
 6799POPC   C1A18423  36.917  22.948   8.555
 6799POPC   D2A18424  36.936  22.898   8.255
 6799POPC   C3A18425  36.944  22.966   7.955
 6799POPC   C4A18426  36.869  22.889   7.655
 6799POPC   C1B18427  37.108  23.103   8.555
 6799POPC   C2B18428  37.117  23.084   8.255
 6799POPC   C3B18429  37.098  23.109   7.955
 6799POPC   C4B18430  37.106  23.087   7.655
 6800POPC   NC318431  16.699  40.799   9.455
 6800POPC   PO418432  16.734  40.765   9.155
 6800POPC   GL118433  16.688  40.831   8.855
 6800POPC   GL218434  16.703  40.923   8.855
 6800POPC   C1A18435  16.714  40.775   8.555
 6800POPC   D2A18436  16.759  40.768   8.255
 6800POPC   C3A18437  16.729  40.814   7.955
 6800POPC   C4A18438  16.777  40.749   7.655
 6800POPC   C1B18439  16.664  41.005   8.555
 6800POPC   C2B18440  16.680  41.038   8.255
 6800POPC   C3B18441  16.616  41.062   7.955
 6800POPC   C4B18442  16.658  41.000   7.655
 6801POPC   NC318443   9.009  26.042   9.455
 6801POPC   PO418444   8.980  26.029   9.155
 6801POPC   GL118445   8.954  26.035   8.855
 6801POPC   GL218446   9.058  26.082   8.855
 6801POPC   C1A18447   8.923  25.997   8.555
 6801POPC   D2A18448   8.966  26.064   8.255
 6801POPC   C3A18449   9.004  26.061   7.955
 6801POPC   C4A18450   8.942  26.063   7.655
 6801POPC   C1B18451   9.189  26.235   8.555
 6801POPC   C2B18452   9.125  26.249   8.255
 6801POPC   C3B18453   9.108  26.240   7.955
 6801POPC   C4B18454   9.180  26.173   7.655
 6802POPC   NC318455  23.756  38.436   9.455
 6802POPC   PO418456  23.695  38.497   9.155
 6802POPC   GL118457  23.723  38.458   8.855
 6802POPC   GL218458  23.547  38.387   8.855
 6802POPC   C1A18459  23.705  38.489   8.555
 6802POPC   D2A18460  23.714  38.452   8.255
 6802POPC   C3A18461  23.746  38.448   7.955
 6802POPC   C4A18462  23.680  38.473   7.655
 6802POPC   C1B18463  23.495  38.385   8.555
 6802POPC   C2B18464  23.448  38.346   8.255
 6802POPC   C3B18465  23.461  38.348   7.955
 6802POPC   C4B18466  23.455  38.347   7.655
 6803POPC   NC318467  33.786   5.080   9.455
 6803POPC   PO418468  33.842   5.104   9.155
 6803POPC   GL118469  33.763   5.125   8.855
 6803POPC   GL218470  33.893   5.034   8.855
 6803POPC   C1A18471  33.763   5.122   8.555
 6803POPC   D2A18472  33.821   5.077   8.255
 6803POPC   C3A18473  33.780   5.078   7.955
 6803POPC   C4A18474  33.836   5.136   7.655
 6803POPC   C1B18475  34.075   5.072   8.555
 6803POPC   C2B18476  34.072   5.041   8.255
 6803POPC   C3B18477  34.098   5.085   7.955
 6803POPC   C4B18478  34.002   5.074   7.655
 6804POPC   NC318479   4.338   3.533   9.455
 6804POPC   PO418480   4.364   3.517   9.155
 6804POPC   GL118481   4.319   3.535   8.855
 6804POPC   GL218482   4.355   3.653   8.855
 6804POPC   C1A18483   4.366   3.578   8.555
 6804POPC   D2A18484   4.356   3.570   8.255
 6804POPC   C3A18485   4.351   3.568   7.955
 6804POPC   C4A18486   4.334   3.573   7.655
 6804POPC   C1B18487   4.304   3.764   8.555
 6804POPC   C2B18488   4.312   3.834   8.255
 6804POPC   C3B18489   4.313   3.836   7.955
 6804POPC   C4B18490   4.291   3.744   7.655
 6805POPC   NC318491  43.877   7.438   9.455
 6805POPC   PO418492  43.891   7.450   9.155
 6805POPC   GL118493  43.858   7.462   8.855
 6805POPC   GL218494  43.839   7.554   8.855
 6805POPC   C1A18495  43.862   7.469   8.555
 6805POPC   D2A18496  43.877   7.465   8.255
 6805POPC   C3A18497  43.859   7.396   7.955
 6805POPC   C4A18498  43.884   7.396   7.655
 6805POPC   C1B18499  43.812   7.684   8.555
 6805POPC   C2B18500  43.754   7.640   8.255
 6805POPC   C3B18501  43.819   7.681   7.955
 6805POPC   C4B18502  43.832   7.657   7.655
 6806POPC   NC318503  36.123  34.610   9.455
 6806POPC   PO418504  36.138  34.607   9.155
 6806POPC   GL118505  36.138  34.576   8.855
 6806POPC   GL218506  36.209  34.484   8.855
 6806POPC   C1A18507  36.086  34.587   8.555
 6806POPC   D2A18508  36.121  34.551   8.255
 6806POPC   C3A18509  36.101  34.579   7.955
 6806POPC   C4A18510  36.142  34.549   7.655
 6806POPC   C1B18511  36.334  34.407   8.555
 6806POPC   C2B18512  36.273  34.417   8.255
 6806POPC   C3B18513  36.278  34.348   7.955
 6806POPC   C4B18514  36.316  34.385   7.655
 6807POPC   NC318515  27.570  37.692   9.455
 6807POPC   PO418516  27.550  37.656   9.155
 6807POPC   GL118517  27.563  37.663   8.855
 6807POPC   GL218518  27.636  37.776   8.855
 6807POPC   C1A18519  27.609  37.723   8.555
 6807POPC   D2A18520  27.591  37.727   8.255
 6807POPC   C3A18521  27.588  37.650   7.955
 6807POPC   C4A18522  27.569  37.700   7.655
 6807POPC   C1B18523  27.688  37.870   8.555
 6807POPC   C2B18524  27.647  37.895   8.255
 6807POPC   C3B18525  27.689  37.928   7.955
 6807POPC   C4B18526  27.675  37.868   7.655
 6808POPC   NC318527  22.143  10.549   9.455
 6808POPC   PO418528  22.141  10.560   9.155
 6808POPC   GL118529  22.163  10.543   8.855
 6808POPC   GL218530  22.077  10.540   8.855
 6808POPC   C1A18531  22.152  10.572   8.555
 6808POPC   D2A18532  22.127  10.560   8.255
 6808POPC   C3A18533  22.122  10.554   7.955
 6808POPC   C4A18534  22.158  10.494   7.655
 6808POPC   C1B18535  21.927  10.608   8.555
 6808POPC   C2B18536  21.895  10.585   8.255
 6808POPC   C3B18537  21.903  10.557   7.955
 6808POPC   C4B18538  21.966  10.594   7.655
 6809POPC   NC318539  35.333  37.690   9.455
 6809POPC   PO418540  35.336  37.653   9.155
 6809POPC   GL118541  35.308  37.656   8.855
 6809POPC   GL218542  35.280  37.737   8.855
 6809POPC   C1A18543  35.349  37.635   8.555
 6809POPC   D2A18544  35.371  37.631   8.255
 6809POPC   C3A18545  35.309  37.687   7.955
 6809POPC   C4A18546  35.335  37.729   7.655
 6809POPC   C1B18547  35.144  37.801   8.555
 6809POPC   C2B18548  35.140  37.813   8.255
 6809POPC   C3B18549  35.109  37.853   7.955
 6809POPC   C4B18550  35.098  37.860   7.655
 6810POPC   NC318551   8.221  12.039   9.455
 6810POPC   PO418552   8.156  12.110   9.155
 6810POPC   GL118553   8.186  12.122   8.855
 6810POPC   GL218554   8.072  12.035   8.855
 6810POPC   C1A18555   8.240  12.038   8.555
 6810POPC   D2A18556   8.148  12.115   8.255
 6810POPC   C3A18557   8.194  12.107   7.955
 6810POPC   C4A18558   8.223  12.045   7.655
 6810POPC   C1B18559   7.990  11.974   8.555
 6810POPC   C2B18560   7.981  12.050   8.255
 6810POPC   C3B18561   7.973  12.031   7.955
 6810POPC   C4B18562   7.949  12.028   7.655
 6811POPC   NC318563  35.357  29.126   9.455
 6811POPC   PO418564  35.326  29.152   9.155
 6811POPC   GL118565  35.366  29.149   8.855
 6811POPC   GL218566  35.220  29.175   8.855
 6811POPC   C1A18567  35.314  29.132   8.555
 6811POPC   D2A18568  35.305  29.125   8.255
 6811POPC   C3A18569  35.322  29.153   7.955
 6811POPC   C4A18570  35.352  29.173   7.655
 6811POPC   C1B18571  35.094  29.131   8.555
 6811POPC   C2B18572  35.138  29.124   8.255
 6811POPC   C3B18573  35.080  29.160   7.955
 6811POPC   C4B18574  35.151  29.093   7.655
 6812POPC   NC318575   9.703  20.656   9.455
 6812POPC   PO418576   9.763  20.592   9.155
 6812POPC   GL118577   9.703  20.576   8.855
 6812POPC   GL218578   9.862  20.568   8.855
 6812POPC   C1A18579   9.734  20.604   8.555
 6812POPC   D2A18580   9.770  20.635   8.255
 6812POPC   C3A18581   9.771  20.627   7.955
 6812POPC   C4A18582   9.764  20.612   7.655
 6812POPC   C1B18583   9.970  20.573   8.555
 6812POPC   C2B18584   9.979  20.588   8.255
 6812POPC   C3B18585   9.961  20.644   7.955
 6812POPC   C4B18586   9.978  20.612   7.655
 6813POPC   NC318587   9.789   9.736   9.455
 6813POPC   PO418588   9.763   9.729   9.155
 6813POPC   GL118589   9.730   9.708   8.855
 6813POPC   GL218590   9.738   9.887   8.855
 6813POPC   C1A18591   9.751   9.739   8.555
 6813POPC   D2A18592   9.707   9.735   8.255
 6813POPC   C3A18593   9.774   9.707   7.955
 6813POPC   C4A18594   9.741   9.716   7.655
 6813POPC   C1B18595   9.802   9.988   8.555
 6813POPC   C2B18596   9.797   9.966   8.255
 6813POPC   C3B18597   9.751   9.980   7.955
 6813POPC   C4B18598   9.726   9.993   7.655
 6814POPC   NC318599  29.105   5.863   9.455
 6814POPC   PO418600  29.172   5.823   9.155
 6814POPC   GL118601  29.112   5.860   8.855
 6814POPC   GL218602  29.068   5.930   8.855
 6814POPC   C1A18603  29.193   5.884   8.555
 6814POPC   D2A18604  29.143   5.820   8.255
 6814POPC   C3A18605  29.125   5.838   7.955
 6814POPC   C4A18606  29.176   5.861   7.655
 6814POPC   C1B18607  29.027   6.074   8.555
 6814POPC   C2B18608  29.046   6.049   8.255
 6814POPC   C3B18609  29.003   6.127   7.955
 6814POPC   C4B18610  29.011   6.125   7.655
 6815POPC   NC318611   5.130  29.164   9.455
 6815POPC   PO418612   5.109  29.139   9.155
 6815POPC   GL118613   5.051  29.119   8.855
 6815POPC   GL218614   5.198  29.209   8.855
 6815POPC   C1A18615   5.074  29.141   8.555
 6815POPC   D2A18616   5.140  29.184   8.255
 6815POPC   C3A18617   5.078  29.114   7.955
 6815POPC   C4A18618   5.090  29.117   7.655
 6815POPC   C1B18619   5.341  29.191   8.555
 6815POPC   C2B18620   5.324  29.217   8.255
 6815POPC   C3B18621   5.361  29.247   7.955
 6815POPC   C4B18622   5.358  29.196   7.655
 6816POPC   NC318623  23.732   2.753   9.455
 6816POPC   PO418624  23.721   2.812   9.155
 6816POPC   GL118625  23.694   2.721   8.855
 6816POPC   GL218626  23.563   2.688   8.855
 6816POPC   C1A18627  23.707   2.775   8.555
 6816POPC   D2A18628  23.728   2.719   8.255
 6816POPC   C3A18629  23.722   2.736   7.955
 6816POPC   C4A18630  23.720   2.762   7.655
 6816POPC   C1B18631  23.469   2.706   8.555
 6816POPC   C2B18632  23.510   2.649   8.255
 6816POPC   C3B18633  23.484   2.669   7.955
 6816POPC   C4B18634  23.430   2.658   7.655
 6817POPC   NC318635   8.932  19.797   9.455
 6817POPC   PO418636   8.933  19.845   9.155
 6817POPC   GL118637   8.972  19.818   8.855
 6817POPC   GL218638   9.078  19.867   8.855
 6817POPC   C1A18639   8.981  19.832   8.555
 6817POPC   D2A18640   8.984  19.814   8.255
 6817POPC   C3A18641   9.021  19.854   7.955
 6817POPC   C4A18642   8.937  19.866   7.655
 6817POPC   C1B18643   9.207  19.833   8.555
 6817POPC   C2B18644   9.231  19.811   8.255
 6817POPC   C3B18645   9.203  19.861   7.955
 6817POPC   C4B18646   9.217  19.819   7.655
 6818POPC   NC318647  23.712   5.827   9.455
 6818POPC   PO418648  23.753   5.859   9.155
 6818POPC   GL118649  23.735   5.847   8.855
 6818POPC   GL218650  23.581   5.797   8.855
 6818POPC   C1A18651  23.757   5.831   8.555
 6818POPC   D2A18652  23.703   5.880   8.255
 6818POPC   C3A18653  23.755   5.852   7.955
 6818POPC   C4A18654  23.758   5.832   7.655
 6818POPC   C1B18655  23.462   5.763   8.555
 6818POPC   C2B18656  23.465   5.735   8.255
 6818POPC   C3B18657  23.440   5.774   7.955
 6818POPC   C4B18658  23.509   5.803   7.655
 6819POPC   NC318659   1.207   1.231   9.455
 6819POPC   PO418660   1.184   1.236   9.155
 6819POPC   GL118661   1.263   1.166   8.855
 6819POPC   GL218662   1.065   1.237   8.855
 6819POPC   C1A18663   1.263   1.247   8.555
 6819POPC   D2A18664   1.196   1.195   8.255
 6819POPC   C3A18665   1.238   1.170   7.955
 6819POPC   C4A18666   1.257   1.220   7.655
 6819POPC   C1B18667   0.980   1.195   8.555
 6819POPC   C2B18668   0.923   1.199   8.255
 6819POPC   C3B18669   0.983   1.203   7.955
 6819POPC   C4B18670   0.974   1.214   7.655
 6820POPC   NC318671  18.236   5.916   9.455
 6820POPC   PO418672  18.318   5.894   9.155
 6820POPC   GL118673  18.302   5.876   8.855
 6820POPC   GL218674  18.162   5.790   8.855
 6820POPC   C1A18675  18.275   5.889   8.555
 6820POPC   D2A18676  18.286   5.882   8.255
 6820POPC   C3A18677  18.322   5.882   7.955
 6820POPC   C4A18678  18.303   5.835   7.655
 6820POPC   C1B18679  18.087   5.760   8.555
 6820POPC   C2B18680  18.078   5.787   8.255
 6820POPC   C3B18681  18.082   5.772   7.955
 6820POPC   C4B18682  18.045   5.741   7.655
 6821POPC   NC318683  37.632  11.334   9.455
 6821POPC   PO418684  37.642  11.333   9.155
 6821POPC   GL118685  37.689  11.270   8.855
 6821POPC   GL218686  37.567  11.215   8.855
 6821POPC   C1A18687  37.704  11.331   8.555
 6821POPC   D2A18688  37.659  11.297   8.255
 6821POPC   C3A18689  37.694  11.322   7.955
 6821POPC   C4A18690  37.711  11.271   7.655
 6821POPC   C1B18691  37.449  11.118   8.555
 6821POPC   C2B18692  37.521  11.104   8.255
 6821POPC   C3B18693  37.482  11.130   7.955
 6821POPC   C4B18694  37.475  11.150   7.655
 6822POPC   NC318695  36.869   4.352   9.455
 6822POPC   PO418696  36.860   4.283   9.155
 6822POPC   GL118697  36.874   4.274   8.855
 6822POPC   GL218698  36.981   4.211   8.855
 6822POPC   C1A18699  36.949   4.295   8.555
 6822POPC   D2A18700  36.883   4.310   8.255
 6822POPC   C3A18701  36.891   4.292   7.955
 6822POPC   C4A18702  36.942   4.355   7.655
 6822POPC   C1B18703  37.117   4.107   8.555
 6822POPC   C2B18704  37.114   4.132   8.255
 6822POPC   C3B18705  37.056   4.161   7.955
 6822POPC   C4B18706  37.061   4.126   7.655
 6823POPC   NC318707  35.327  26.021   9.455
 6823POPC   PO418708  35.397  26.085   9.155
 6823POPC   GL118709  35.327  26.037   8.855
 6823POPC   GL218710  35.320  26.140   8.855
 6823POPC   C1A18711  35.315  26.054   8.555
 6823POPC   D2A18712  35.320  26.044   8.255
 6823POPC   C3A18713  35.395  26.085   7.955
 6823POPC   C4A18714  35.320  26.001   7.655
 6823POPC   C1B18715  35.351  26.263   8.555
 6823POPC   C2B18716  35.324  26.317   8.255
 6823POPC   C3B18717  35.282  26.304   7.955
 6823POPC   C4B18718  35.301  26.251   7.655
 6824POPC   NC318719  38.423  21.432   9.455
 6824POPC   PO418720  38.502  21.357   9.155
 6824POPC   GL118721  38.476  21.370   8.855
 6824POPC   GL218722  38.405  21.246   8.855
 6824POPC   C1A18723  38.405  21.403   8.555
 6824POPC   D2A18724  38.420  21.371   8.255
 6824POPC   C3A18725  38.425  21.395   7.955
 6824POPC   C4A18726  38.491  21.400   7.655
 6824POPC   C1B18727  38.364  21.168   8.555
 6824POPC   C2B18728  38.352  21.137   8.255
 6824POPC   C3B18729  38.390  21.115   7.955
 6824POPC   C4B18730  38.381  21.144   7.655
 6825POPC   NC318731  36.078  21.399   9.455
 6825POPC   PO418732  36.083  21.372   9.155
 6825POPC   GL118733  36.155  21.364   8.855
 6825POPC   GL218734  36.261  21.326   8.855
 6825POPC   C1A18735  36.088  21.420   8.555
 6825POPC   D2A18736  36.124  21.429   8.255
 6825POPC   C3A18737  36.135  21.356   7.955
 6825POPC   C4A18738  36.165  21.435   7.655
 6825POPC   C1B18739  36.400  21.254   8.555
 6825POPC   C2B18740  36.339  21.283   8.255
 6825POPC   C3B18741  36.385  21.239   7.955
 6825POPC   C4B18742  36.368  21.300   7.655
 6826POPC   NC318743  44.660   0.462   9.455
 6826POPC   PO418744  44.669   0.436   9.155
 6826POPC   GL118745  44.639   0.405   8.855
 6826POPC   GL218746  44.779   0.495   8.855
 6826POPC   C1A18747  44.711   0.481   8.555
 6826POPC   D2A18748  44.678   0.403   8.255
 6826POPC   C3A18749  44.668   0.392   7.955
 6826POPC   C4A18750  44.628   0.407   7.655
 6826POPC   C1B18751  44.845   0.536   8.555
 6826POPC   C2B18752  44.824   0.574   8.255
 6826POPC   C3B18753  44.838   0.569   7.955
 6826POPC   C4B18754  44.902   0.555   7.655
 6827POPC   NC318755  16.746  40.056   9.455
 6827POPC   PO418756  16.711  40.023   9.155
 6827POPC   GL118757  16.712  39.987   8.855
 6827POPC   GL218758  16.868  40.069   8.855
 6827POPC   C1A18759  16.779  39.976   8.555
 6827POPC   D2A18760  16.769  39.960   8.255
 6827POPC   C3A18761  16.775  40.044   7.955
 6827POPC   C4A18762  16.753  40.055   7.655
 6827POPC   C1B18763  16.927  40.143   8.555
 6827POPC   C2B18764  16.945  40.131   8.255
 6827POPC   C3B18765  16.890  40.213   7.955
 6827POPC   C4B18766  16.935  40.130   7.655
 6828POPC   NC318767  29.905  37.674   9.455
 6828POPC   PO418768  29.941  37.699   9.155
 6828POPC   GL118769  29.911  37.729   8.855
 6828POPC   GL218770  29.822  37.790   8.855
 6828POPC   C1A18771  29.956  37.716   8.555
 6828POPC   D2A18772  29.935  37.712   8.255
 6828POPC   C3A18773  29.898  37.678   7.955
 6828POPC   C4A18774  29.884  37.635   7.655
 6828POPC   C1B18775  29.815  37.907   8.555
 6828POPC   C2B18776  29.772  37.948   8.255
 6828POPC   C3B18777  29.839  37.935   7.955
 6828POPC   C4B18778  29.845  37.933   7.655
 6829POPC   NC318779   7.467  26.007   9.455
 6829POPC   PO418780   7.433  26.035   9.155
 6829POPC   GL118781   7.433  26.021   8.855
 6829POPC   GL218782   7.568  25.993   8.855
 6829POPC   C1A18783   7.399  25.993   8.555
 6829POPC   D2A18784   7.433  26.075   8.255
 6829POPC   C3A18785   7.393  26.070   7.955
 6829POPC   C4A18786   7.391  26.028   7.655
 6829POPC   C1B18787   7.637  25.983   8.555
 6829POPC   C2B18788   7.685  26.066   8.255
 6829POPC   C3B18789   7.698  26.012   7.955
 6829POPC   C4B18790   7.687  26.000   7.655
 6830POPC   NC318791  19.795  40.020   9.455
 6830POPC   PO418792  19.808  40.056   9.155
 6830POPC   GL118793  19.814  39.985   8.855
 6830POPC   GL218794  19.909  40.110   8.855
 6830POPC   C1A18795  19.809  39.995   8.555
 6830POPC   D2A18796  19.785  40.040   8.255
 6830POPC   C3A18797  19.814  40.001   7.955
 6830POPC   C4A18798  19.841  40.050   7.655
 6830POPC   C1B18799  20.086  40.156   8.555
 6830POPC   C2B18800  20.006  40.130   8.255
 6830POPC   C3B18801  20.007  40.110   7.955
 6830POPC   C4B18802  20.071  40.186   7.655
 6831POPC   NC318803  27.612   6.646   9.455
 6831POPC   PO418804  27.626   6.627   9.155
 6831POPC   GL118805  27.626   6.623   8.855
 6831POPC   GL218806  27.521   6.593   8.855
 6831POPC   C1A18807  27.595   6.659   8.555
 6831POPC   D2A18808  27.623   6.662   8.255
 6831POPC   C3A18809  27.583   6.606   7.955
 6831POPC   C4A18810  27.633   6.600   7.655
 6831POPC   C1B18811  27.424   6.444   8.555
 6831POPC   C2B18812  27.385   6.469   8.255
 6831POPC   C3B18813  27.360   6.488   7.955
 6831POPC   C4B18814  27.422   6.438   7.655
 6832POPC   NC318815   6.597  26.048   9.455
 6832POPC   PO418816   6.686  26.037   9.155
 6832POPC   GL118817   6.596  26.021   8.855
 6832POPC   GL218818   6.664  25.951   8.855
 6832POPC   C1A18819   6.662  26.075   8.555
 6832POPC   D2A18820   6.665  26.036   8.255
 6832POPC   C3A18821   6.603  26.057   7.955
 6832POPC   C4A18822   6.637  26.058   7.655
 6832POPC   C1B18823   6.723  25.783   8.555
 6832POPC   C2B18824   6.704  25.793   8.255
 6832POPC   C3B18825   6.728  25.828   7.955
 6832POPC   C4B18826   6.749  25.820   7.655
 6833POPC   NC318827  36.122  35.377   9.455
 6833POPC   PO418828  36.140  35.370   9.155
 6833POPC   GL118829  36.098  35.365   8.855
 6833POPC   GL218830  36.008  35.312   8.855
 6833POPC   C1A18831  36.130  35.392   8.555
 6833POPC   D2A18832  36.142  35.334   8.255
 6833POPC   C3A18833  36.162  35.309   7.955
 6833POPC   C4A18834  36.088  35.327   7.655
 6833POPC   C1B18835  35.925  35.376   8.555
 6833POPC   C2B18836  35.869  35.325   8.255
 6833POPC   C3B18837  35.898  35.361   7.955
 6833POPC   C4B18838  35.829  35.385   7.655
 6834POPC   NC318839  12.814  40.738   9.455
 6834POPC   PO418840  12.817  40.738   9.155
 6834POPC   GL118841  12.891  40.816   8.855
 6834POPC   GL218842  12.810  40.875   8.855
 6834POPC   C1A18843  12.868  40.817   8.555
 6834POPC   D2A18844  12.834  40.815   8.255
 6834POPC   C3A18845  12.821  40.796   7.955
 6834POPC   C4A18846  12.824  40.773   7.655
 6834POPC   C1B18847  12.728  41.031   8.555
 6834POPC   C2B18848  12.693  40.967   8.255
 6834POPC   C3B18849  12.724  41.001   7.955
 6834POPC   C4B18850  12.722  41.047   7.655
 6835POPC   NC318851  33.820  21.385   9.455
 6835POPC   PO418852  33.797  21.363   9.155
 6835POPC   GL118853  33.769  21.413   8.855
 6835POPC   GL218854  33.637  21.405   8.855
 6835POPC   C1A18855  33.784  21.346   8.555
 6835POPC   D2A18856  33.773  21.434   8.255
 6835POPC   C3A18857  33.774  21.417   7.955
 6835POPC   C4A18858  33.840  21.406   7.655
 6835POPC   C1B18859  33.564  21.478   8.555
 6835POPC   C2B18860  33.553  21.458   8.255
 6835POPC   C3B18861  33.555  21.488   7.955
 6835POPC   C4B18862  33.605  21.435   7.655
 6836POPC   NC318863  15.982  12.123   9.455
 6836POPC   PO418864  15.981  12.088   9.155
 6836POPC   GL118865  15.942  12.058   8.855
 6836POPC   GL218866  15.966  12.166   8.855
 6836POPC   C1A18867  15.909  12.030   8.555
 6836POPC   D2A18868  15.928  12.119   8.255
 6836POPC   C3A18869  16.001  12.054   7.955
 6836POPC   C4A18870  15.951  12.102   7.655
 6836POPC   C1B18871  15.871  12.312   8.555
 6836POPC   C2B18872  15.913  12.329   8.255
 6836POPC   C3B18873  15.875  12.348   7.955
 6836POPC   C4B18874  15.904  12.284   7.655
 6837POPC   NC318875   5.886  37.699   9.455
 6837POPC   PO418876   5.901  37.672   9.155
 6837POPC   GL118877   5.903  37.667   8.855
 6837POPC   GL218878   5.700  37.631   8.855
 6837POPC   C1A18879   5.837  37.636   8.555
 6837POPC   D2A18880   5.849  37.671   8.255
 6837POPC   C3A18881   5.830  37.640   7.955
 6837POPC   C4A18882   5.834  37.711   7.655
 6837POPC   C1B18883   5.630  37.718   8.555
 6837POPC   C2B18884   5.610  37.623   8.255
 6837POPC   C3B18885   5.589  37.631   7.955
 6837POPC   C4B18886   5.595  37.673   7.655
 6838POPC   NC318887  38.465  20.567   9.455
 6838POPC   PO418888  38.490  20.610   9.155
 6838POPC   GL118889  38.439  20.582   8.855
 6838POPC   GL218890  38.499  20.726   8.855
 6838POPC   C1A18891  38.449  20.592   8.555
 6838POPC   D2A18892  38.438  20.617   8.255
 6838POPC   C3A18893  38.476  20.607   7.955
 6838POPC   C4A18894  38.424  20.636   7.655
 6838POPC   C1B18895  38.536  20.826   8.555
 6838POPC   C2B18896  38.578  20.862   8.255
 6838POPC   C3B18897  38.550  20.841   7.955
 6838POPC   C4B18898  38.594  20.837   7.655
 6839POPC   NC318899  43.081  22.151   9.455
 6839POPC   PO418900  43.079  22.155   9.155
 6839POPC   GL118901  43.127  22.191   8.855
 6839POPC   GL218902  43.197  22.092   8.855
 6839POPC   C1A18903  43.098  22.149   8.555
 6839POPC   D2A18904  43.092  22.123   8.255
 6839POPC   C3A18905  43.110  22.133   7.955
 6839POPC   C4A18906  43.081  22.180   7.655
 6839POPC   C1B18907  43.289  22.019   8.555
 6839POPC   C2B18908  43.360  22.069   8.255
 6839POPC   C3B18909  43.339  22.053   7.955
 6839POPC   C4B18910  43.313  22.013   7.655
 6840POPC   NC318911  36.911  19.881   9.455
 6840POPC   PO418912  36.904  19.837   9.155
 6840POPC   GL118913  36.934  19.827   8.855
 6840POPC   GL218914  36.747  19.832   8.855
 6840POPC   C1A18915  36.899  19.823   8.555
 6840POPC   D2A18916  36.870  19.880   8.255
 6840POPC   C3A18917  36.930  19.798   7.955
 6840POPC   C4A18918  36.925  19.882   7.655
 6840POPC   C1B18919  36.666  19.833   8.555
 6840POPC   C2B18920  36.635  19.855   8.255
 6840POPC   C3B18921  36.666  19.845   7.955
 6840POPC   C4B18922  36.661  19.895   7.655
 6841POPC   NC318923  34.581  33.071   9.455
 6841POPC   PO418924  34.604  33.068   9.155
 6841POPC   GL118925  34.590  32.980   8.855
 6841POPC   GL218926  34.623  33.132   8.855
 6841POPC   C1A18927  34.610  33.038   8.555
 6841POPC   D2A18928  34.585  33.057   8.255
 6841POPC   C3A18929  34.579  33.041   7.955
 6841POPC   C4A18930  34.526  33.058   7.655
 6841POPC   C1B18931  34.709  33.233   8.555
 6841POPC   C2B18932  34.722  33.222   8.255
 6841POPC   C3B18933  34.712  33.245   7.955
 6841POPC   C4B18934  34.755  33.192   7.655
 6842POPC   NC318935  15.194  14.421   9.455
 6842POPC   PO418936  15.171  14.408   9.155
 6842POPC   GL118937  15.226  14.428   8.855
 6842POPC   GL218938  15.160  14.494   8.855
 6842POPC   C1A18939  15.173  14.354   8.555
 6842POPC   D2A18940  15.171  14.424   8.255
 6842POPC   C3A18941  15.194  14.355   7.955
 6842POPC   C4A18942  15.169  14.395   7.655
 6842POPC   C1B18943  15.223  14.643   8.555
 6842POPC   C2B18944  15.270  14.691   8.255
 6842POPC   C3B18945  15.254  14.625   7.955
 6842POPC   C4B18946  15.238  14.691   7.655
 6843POPC   NC318947  17.469  19.856   9.455
 6843POPC   PO418948  17.470  19.813   9.155
 6843POPC   GL118949  17.494  19.865   8.855
 6843POPC   GL218950  17.618  19.917   8.855
 6843POPC   C1A18951  17.553  19.801   8.555
 6843POPC   D2A18952  17.549  19.844   8.255
 6843POPC   C3A18953  17.487  19.871   7.955
 6843POPC   C4A18954  17.485  19.874   7.655
 6843POPC   C1B18955  17.663  20.010   8.555
 6843POPC   C2B18956  17.664  20.053   8.255
 6843POPC   C3B18957  17.667  20.065   7.955
 6843POPC   C4B18958  17.649  20.076   7.655
 6844POPC   NC318959  18.255  42.292   9.455
 6844POPC   PO418960  18.294  42.299   9.155
 6844POPC   GL118961  18.286  42.360   8.855
 6844POPC   GL218962  18.178  42.364   8.855
 6844POPC   C1A18963  18.250  42.300   8.555
 6844POPC   D2A18964  18.249  42.305   8.255
 6844POPC   C3A18965  18.237  42.366   7.955
 6844POPC   C4A18966  18.276  42.340   7.655
 6844POPC   C1B18967  17.991  42.387   8.555
 6844POPC   C2B18968  18.010  42.356   8.255
 6844POPC   C3B18969  18.058  42.323   7.955
 6844POPC   C4B18970  18.074  42.334   7.655
 6845POPC   NC318971  26.071  41.554   9.455
 6845POPC   PO418972  26.030  41.591   9.155
 6845POPC   GL118973  26.049  41.598   8.855
 6845POPC   GL218974  26.049  41.456   8.855
 6845POPC   C1A18975  26.062  41.534   8.555
 6845POPC   D2A18976  26.042  41.553   8.255
 6845POPC   C3A18977  26.072  41.595   7.955
 6845POPC   C4A18978  26.044  41.536   7.655
 6845POPC   C1B18979  26.082  41.288   8.555
 6845POPC   C2B18980  26.048  41.328   8.255
 6845POPC   C3B18981  26.064  41.290   7.955
 6845POPC   C4B18982  26.027  41.299   7.655
 6846POPC   NC318983   2.799  19.831   9.455
 6846POPC   PO418984   2.762  19.853   9.155
 6846POPC   GL118985   2.751  19.841   8.855
 6846POPC   GL218986   2.686  19.878   8.855
 6846POPC   C1A18987   2.747  19.833   8.555
 6846POPC   D2A18988   2.719  19.871   8.255
 6846POPC   C3A18989   2.771  19.826   7.955
 6846POPC   C4A18990   2.757  19.834   7.655
 6846POPC   C1B18991   2.524  19.886   8.555
 6846POPC   C2B18992   2.494  19.912   8.255
 6846POPC   C3B18993   2.522  19.912   7.955
 6846POPC   C4B18994   2.536  19.949   7.655
 6847POPC   NC318995  11.288  14.399   9.455
 6847POPC   PO418996  11.269  14.362   9.155
 6847POPC   GL118997  11.264  14.452   8.855
 6847POPC   GL218998  11.205  14.360   8.855
 6847POPC   C1A18999  11.335  14.409   8.555
 6847POPC   D2A19000  11.293  14.358   8.255
 6847POPC   C3A19001  11.309  14.354   7.955
 6847POPC   C4A19002  11.270  14.432   7.655
 6847POPC   C1B19003  11.073  14.215   8.555
 6847POPC   C2B19004  11.098  14.257   8.255
 6847POPC   C3B19005  11.063  14.292   7.955
 6847POPC   C4B19006  11.141  14.297   7.655
 6848POPC   NC319007  26.024  11.272   9.455
 6848POPC   PO419008  26.046  11.324   9.155
 6848POPC   GL119009  25.995  11.322   8.855
 6848POPC   GL219010  26.028  11.156   8.855
 6848POPC   C1A19011  26.024  11.327   8.555
 6848POPC   D2A19012  26.064  11.296   8.255
 6848POPC   C3A19013  26.084  11.280   7.955
 6848POPC   C4A19014  26.067  11.304   7.655
 6848POPC   C1B19015  25.971  11.032   8.555
 6848POPC   C2B19016  25.944  11.036   8.255
 6848POPC   C3B19017  26.004  11.051   7.955
 6848POPC   C4B19018  25.977  11.009   7.655
 6849POPC   NC319019  23.717  34.622   9.455
 6849POPC   PO419020  23.720  34.595   9.155
 6849POPC   GL119021  23.720  34.569   8.855
 6849POPC   GL219022  23.608  34.633   8.855
 6849POPC   C1A19023  23.680  34.582   8.555
 6849POPC   D2A19024  23.726  34.544   8.255
 6849POPC   C3A19025  23.719  34.622   7.955
 6849POPC   C4A19026  23.696  34.537   7.655
 6849POPC   C1B19027  23.627  34.769   8.555
 6849POPC   C2B19028  23.576  34.805   8.255
 6849POPC   C3B19029  23.606  34.743   7.955
 6849POPC   C4B19030  23.551  34.808   7.655
 6850POPC   NC319031  13.604   9.745   9.455
 6850POPC   PO419032  13.628   9.734   9.155
 6850POPC   GL119033  13.660   9.704   8.855
 6850POPC   GL219034  13.543   9.646   8.855
 6850POPC   C1A19035  13.661   9.784   8.555
 6850POPC   D2A19036  13.675   9.771   8.255
 6850POPC   C3A19037  13.669   9.700   7.955
 6850POPC   C4A19038  13.588   9.725   7.655
 6850POPC   C1B19039  13.543   9.487   8.555
 6850POPC   C2B19040  13.495   9.521   8.255
 6850POPC   C3B19041  13.491   9.540   7.955
 6850POPC   C4B19042  13.529   9.558   7.655
 6851POPC   NC319043  36.107  33.830   9.455
 6851POPC   PO419044  36.172  33.802   9.155
 6851POPC   GL119045  36.153  33.758   8.855
 6851POPC   GL219046  36.196  33.687   8.855
 6851POPC   C1A19047  36.141  33.825   8.555
 6851POPC   D2A19048  36.147  33.764   8.255
 6851POPC   C3A19049  36.152  33.757   7.955
 6851POPC   C4A19050  36.096  33.814   7.655
 6851POPC   C1B19051  36.216  33.555   8.555
 6851POPC   C2B19052  36.233  33.561   8.255
 6851POPC   C3B19053  36.254  33.555   7.955
 6851POPC   C4B19054  36.250  33.530   7.655
 6852POPC   NC319055  41.544   5.106   9.455
 6852POPC   PO419056  41.536   5.137   9.155
 6852POPC   GL119057  41.557   5.131   8.855
 6852POPC   GL219058  41.629   5.172   8.855
 6852POPC   C1A19059  41.605   5.120   8.555
 6852POPC   D2A19060  41.530   5.043   8.255
 6852POPC   C3A19061  41.586   5.077   7.955
 6852POPC   C4A19062  41.576   5.059   7.655
 6852POPC   C1B19063  41.591   5.364   8.555
 6852POPC   C2B19064  41.582   5.294   8.255
 6852POPC   C3B19065  41.631   5.328   7.955
 6852POPC   C4B19066  41.608   5.324   7.655
 6853POPC   NC319067  29.884  17.543   9.455
 6853POPC   PO419068  29.883  17.459   9.155
 6853POPC   GL119069  29.926  17.494   8.855
 6853POPC   GL219070  30.034  17.517   8.855
 6853POPC   C1A19071  29.916  17.524   8.555
 6853POPC   D2A19072  29.961  17.485   8.255
 6853POPC   C3A19073  29.938  17.501   7.955
 6853POPC   C4A19074  29.876  17.463   7.655
 6853POPC   C1B19075  30.126  17.567   8.555
 6853POPC   C2B19076  30.199  17.568   8.255
 6853POPC   C3B19077  30.172  17.619   7.955
 6853POPC   C4B19078  30.142  17.609   7.655
 6854POPC   NC319079   2.736  12.863   9.455
 6854POPC   PO419080   2.738  12.838   9.155
 6854POPC   GL119081   2.722  12.902   8.855
 6854POPC   GL219082   2.632  12.809   8.855
 6854POPC   C1A19083   2.718  12.811   8.555
 6854POPC   D2A19084   2.782  12.866   8.255
 6854POPC   C3A19085   2.800  12.882   7.955
 6854POPC   C4A19086   2.796  12.898   7.655
 6854POPC   C1B19087   2.551  12.760   8.555
 6854POPC   C2B19088   2.480  12.759   8.255
 6854POPC   C3B19089   2.554  12.750   7.955
 6854POPC   C4B19090   2.528  12.769   7.655
 6855POPC   NC319091  33.802  26.084   9.455
 6855POPC   PO419092  33.780  26.021   9.155
 6855POPC   GL119093  33.834  26.006   8.855
 6855POPC   GL219094  33.671  26.131   8.855
 6855POPC   C1A19095  33.782  26.027   8.555
 6855POPC   D2A19096  33.844  26.014   8.255
 6855POPC   C3A19097  33.847  26.007   7.955
 6855POPC   C4A19098  33.764  26.050   7.655
 6855POPC   C1B19099  33.556  26.153   8.555
 6855POPC   C2B19100  33.598  26.120   8.255
 6855POPC   C3B19101  33.555  26.089   7.955
 6855POPC   C4B19102  33.553  26.075   7.655
 6856POPC   NC319103  39.227  43.894   9.455
 6856POPC   PO419104  39.186  43.935   9.155
 6856POPC   GL119105  39.195  43.927   8.855
 6856POPC   GL219106  39.162  43.958   8.855
 6856POPC   C1A19107  39.188  43.838   8.555
 6856POPC   D2A19108  39.189  43.934   8.255
 6856POPC   C3A19109  39.199  43.929   7.955
 6856POPC   C4A19110  39.222  43.929   7.655
 6856POPC   C1B19111  39.103  44.063   8.555
 6856POPC   C2B19112  39.053  44.034   8.255
 6856POPC   C3B19113  39.063  44.027   7.955
 6856POPC   C4B19114  39.037  44.059   7.655
 6857POPC   NC319115  44.692  25.269   9.455
 6857POPC   PO419116  44.699  25.310   9.155
 6857POPC   GL119117  44.659  25.312   8.855
 6857POPC   GL219118  44.816  25.223   8.855
 6857POPC   C1A19119  44.660  25.225   8.555
 6857POPC   D2A19120  44.685  25.302   8.255
 6857POPC   C3A19121  44.670  25.239   7.955
 6857POPC   C4A19122  44.653  25.243   7.655
 6857POPC   C1B19123  44.889  25.252   8.555
 6857POPC   C2B19124  44.943  25.266   8.255
 6857POPC   C3B19125  44.906  25.209   7.955
 6857POPC   C4B19126  44.869  25.246   7.655
 6858POPC   NC319127  27.555  33.760   9.455
 6858POPC   PO419128  27.597  33.823   9.155
 6858POPC   GL119129  27.622  33.817   8.855
 6858POPC   GL219130  27.434  33.770   8.855
 6858POPC   C1A19131  27.630  33.822   8.555
 6858POPC   D2A19132  27.633  33.832   8.255
 6858POPC   C3A19133  27.624  33.791   7.955
 6858POPC   C4A19134  27.610  33.760   7.655
 6858POPC   C1B19135  27.327  33.665   8.555
 6858POPC   C2B19136  27.324  33.694   8.255
 6858POPC   C3B19137  27.380  33.731   7.955
 6858POPC   C4B19138  27.357  33.658   7.655
 6859POPC   NC319139  21.377   5.879   9.455
 6859POPC   PO419140  21.431   5.889   9.155
 6859POPC   GL119141  21.356   5.844   8.855
 6859POPC   GL219142  21.462   5.839   8.855
 6859POPC   C1A19143  21.433   5.912   8.555
 6859POPC   D2A19144  21.349   5.821   8.255
 6859POPC   C3A19145  21.397   5.829   7.955
 6859POPC   C4A19146  21.355   5.842   7.655
 6859POPC   C1B19147  21.581   5.753   8.555
 6859POPC   C2B19148  21.567   5.792   8.255
 6859POPC   C3B19149  21.617   5.773   7.955
 6859POPC   C4B19150  21.656   5.724   7.655
 6860POPC   NC319151  36.163  23.673   9.455
 6860POPC   PO419152  36.085  23.708   9.155
 6860POPC   GL119153  36.134  23.740   8.855
 6860POPC   GL219154  36.039  23.812   8.855
 6860POPC   C1A19155  36.078  23.752   8.555
 6860POPC   D2A19156  36.100  23.705   8.255
 6860POPC   C3A19157  36.136  23.714   7.955
 6860POPC   C4A19158  36.143  23.673   7.655
 6860POPC   C1B19159  36.046  23.931   8.555
 6860POPC   C2B19160  36.019  23.940   8.255
 6860POPC   C3B19161  36.006  23.942   7.955
 6860POPC   C4B19162  36.047  23.985   7.655
 6861POPC   NC319163  26.817  14.405   9.455
 6861POPC   PO419164  26.815  14.362   9.155
 6861POPC   GL119165  26.866  14.401   8.855
 6861POPC   GL219166  26.901  14.317   8.855
 6861POPC   C1A19167  26.800  14.431   8.555
 6861POPC   D2A19168  26.801  14.401   8.255
 6861POPC   C3A19169  26.848  14.354   7.955
 6861POPC   C4A19170  26.794  14.443   7.655
 6861POPC   C1B19171  27.012  14.192   8.555
 6861POPC   C2B19172  26.962  14.169   8.255
 6861POPC   C3B19173  26.950  14.180   7.955
 6861POPC   C4B19174  27.004  14.222   7.655
 6862POPC   NC319175  10.480  36.917   9.455
 6862POPC   PO419176  10.496  36.925   9.155
 6862POPC   GL119177  10.534  36.951   8.855
 6862POPC   GL219178  10.361  36.900   8.855
 6862POPC   C1A19179  10.482  36.916   8.555
 6862POPC   D2A19180  10.497  36.906   8.255
 6862POPC   C3A19181  10.520  36.951   7.955
 6862POPC   C4A19182  10.536  36.913   7.655
 6862POPC   C1B19183  10.296  37.035   8.555
 6862POPC   C2B19184  10.292  36.944   8.255
 6862POPC   C3B19185  10.242  37.012   7.955
 6862POPC   C4B19186  10.281  36.944   7.655
 6863POPC   NC319187  27.585  20.653   9.455
 6863POPC   PO419188  27.583  20.580   9.155
 6863POPC   GL119189  27.545  20.581   8.855
 6863POPC   GL219190  27.479  20.576   8.855
 6863POPC   C1A19191  27.618  20.610   8.555
 6863POPC   D2A19192  27.587  20.603   8.255
 6863POPC   C3A19193  27.573  20.657   7.955
 6863POPC   C4A19194  27.585  20.605   7.655
 6863POPC   C1B19195  27.308  20.520   8.555
 6863POPC   C2B19196  27.388  20.547   8.255
 6863POPC   C3B19197  27.336  20.533   7.955
 6863POPC   C4B19198  27.348  20.511   7.655
 6864POPC   NC319199  40.772  21.389   9.455
 6864POPC   PO419200  40.808  21.363   9.155
 6864POPC   GL119201  40.788  21.393   8.855
 6864POPC   GL219202  40.801  21.483   8.855
 6864POPC   C1A19203  40.776  21.406   8.555
 6864POPC   D2A19204  40.793  21.400   8.255
 6864POPC   C3A19205  40.776  21.352   7.955
 6864POPC   C4A19206  40.819  21.385   7.655
 6864POPC   C1B19207  40.720  21.626   8.555
 6864POPC   C2B19208  40.767  21.649   8.255
 6864POPC   C3B19209  40.761  21.612   7.955
 6864POPC   C4B19210  40.708  21.626   7.655
 6865POPC   NC319211  43.113   9.792   9.455
 6865POPC   PO419212  43.099   9.793   9.155
 6865POPC   GL119213  43.065   9.746   8.855
 6865POPC   GL219214  42.999   9.831   8.855
 6865POPC   C1A19215  43.152   9.755   8.555
 6865POPC   D2A19216  43.070   9.750   8.255
 6865POPC   C3A19217  43.088   9.717   7.955
 6865POPC   C4A19218  43.068   9.795   7.655
 6865POPC   C1B19219  43.020   9.985   8.555
 6865POPC   C2B19220  42.994   9.966   8.255
 6865POPC   C3B19221  42.960   9.980   7.955
 6865POPC   C4B19222  42.980   9.990   7.655
 6866POPC   NC319223  30.670  15.172   9.455
 6866POPC   PO419224  30.660  15.130   9.155
 6866POPC   GL119225  30.720  15.168   8.855
 6866POPC   GL219226  30.597  15.114   8.855
 6866POPC   C1A19227  30.665  15.192   8.555
 6866POPC   D2A19228  30.684  15.140   8.255
 6866POPC   C3A19229  30.732  15.130   7.955
 6866POPC   C4A19230  30.737  15.212   7.655
 6866POPC   C1B19231  30.517  15.032   8.555
 6866POPC   C2B19232  30.444  14.999   8.255
 6866POPC   C3B19233  30.445  15.013   7.955
 6866POPC   C4B19234  30.469  15.052   7.655
 6867POPC   NC319235   1.975  40.052   9.455
 6867POPC   PO419236   1.968  39.960   9.155
 6867POPC   GL119237   1.946  39.964   8.855
 6867POPC   GL219238   1.864  39.913   8.855
 6867POPC   C1A19239   1.947  39.970   8.555
 6867POPC   D2A19240   1.966  40.052   8.255
 6867POPC   C3A19241   2.021  40.013   7.955
 6867POPC   C4A19242   1.994  40.039   7.655
 6867POPC   C1B19243   1.811  39.822   8.555
 6867POPC   C2B19244   1.799  39.875   8.255
 6867POPC   C3B19245   1.776  39.866   7.955
 6867POPC   C4B19246   1.821  39.819   7.655
 6868POPC   NC319247  37.723   1.958   9.455
 6868POPC   PO419248  37.636   2.016   9.155
 6868POPC   GL119249  37.674   2.032   8.855
 6868POPC   GL219250  37.551   2.057   8.855
 6868POPC   C1A19251  37.662   2.013   8.555
 6868POPC   D2A19252  37.631   1.944   8.255
 6868POPC   C3A19253  37.666   2.029   7.955
 6868POPC   C4A19254  37.726   2.012   7.655
 6868POPC   C1B19255  37.537   2.201   8.555
 6868POPC   C2B19256  37.486   2.125   8.255
 6868POPC   C3B19257  37.453   2.146   7.955
 6868POPC   C4B19258  37.507   2.154   7.655
 6869POPC   NC319259   1.221   9.791   9.455
 6869POPC   PO419260   1.252   9.788   9.155
 6869POPC   GL119261   1.200   9.755   8.855
 6869POPC   GL219262   1.321   9.603   8.855
 6869POPC   C1A19263   1.256   9.747   8.555
 6869POPC   D2A19264   1.197   9.740   8.255
 6869POPC   C3A19265   1.189   9.779   7.955
 6869POPC   C4A19266   1.237   9.774   7.655
 6869POPC   C1B19267   1.382   9.579   8.555
 6869POPC   C2B19268   1.312   9.541   8.255
 6869POPC   C3B19269   1.372   9.542   7.955
 6869POPC   C4B19270   1.367   9.490   7.655
 6870POPC   NC319271  33.754  28.411   9.455
 6870POPC   PO419272  33.825  28.410   9.155
 6870POPC   GL119273  33.794  28.343   8.855
 6870POPC   GL219274  33.801  28.274   8.855
 6870POPC   C1A19275  33.772  28.329   8.555
 6870POPC   D2A19276  33.816  28.362   8.255
 6870POPC   C3A19277  33.835  28.414   7.955
 6870POPC   C4A19278  33.819  28.356   7.655
 6870POPC   C1B19279  33.796  28.163   8.555
 6870POPC   C2B19280  33.831  28.130   8.255
 6870POPC   C3B19281  33.751  28.141   7.955
 6870POPC   C4B19282  33.743  28.106   7.655
 6871POPC   NC319283   4.310   2.725   9.455
 6871POPC   PO419284   4.328   2.717   9.155
 6871POPC   GL119285   4.328   2.779   8.855
 6871POPC   GL219286   4.452   2.762   8.855
 6871POPC   C1A19287   4.312   2.728   8.555
 6871POPC   D2A19288   4.272   2.796   8.255
 6871POPC   C3A19289   4.321   2.755   7.955
 6871POPC   C4A19290   4.267   2.754   7.655
 6871POPC   C1B19291   4.578   2.870   8.555
 6871POPC   C2B19292   4.532   2.801   8.255
 6871POPC   C3B19293   4.595   2.825   7.955
 6871POPC   C4B19294   4.566   2.860   7.655
 6872POPC   NC319295   4.367  10.564   9.455
 6872POPC   PO419296   4.343  10.540   9.155
 6872POPC   GL119297   4.274  10.565   8.855
 6872POPC   GL219298   4.210  10.489   8.855
 6872POPC   C1A19299   4.342  10.539   8.555
 6872POPC   D2A19300   4.276  10.543   8.255
 6872POPC   C3A19301   4.340  10.491   7.955
 6872POPC   C4A19302   4.326  10.520   7.655
 6872POPC   C1B19303   4.075  10.346   8.555
 6872POPC   C2B19304   4.067  10.336   8.255
 6872POPC   C3B19305   4.144  10.358   7.955
 6872POPC   C4B19306   4.081  10.403   7.655
 6873POPC   NC319307  28.372  25.254   9.455
 6873POPC   PO419308  28.368  25.251   9.155
 6873POPC   GL119309  28.325  25.226   8.855
 6873POPC   GL219310  28.238  25.204   8.855
 6873POPC   C1A19311  28.388  25.312   8.555
 6873POPC   D2A19312  28.371  25.256   8.255
 6873POPC   C3A19313  28.366  25.222   7.955
 6873POPC   C4A19314  28.393  25.260   7.655
 6873POPC   C1B19315  28.072  25.231   8.555
 6873POPC   C2B19316  28.148  25.181   8.255
 6873POPC   C3B19317  28.143  25.276   7.955
 6873POPC   C4B19318  28.074  25.181   7.655
 6874POPC   NC319319  44.706  43.839   9.455
 6874POPC   PO419320  44.640  43.936   9.155
 6874POPC   GL119321  44.662  43.895   8.855
 6874POPC   GL219322  44.610  43.769   8.855
 6874POPC   C1A19323  44.708  43.852   8.555
 6874POPC   D2A19324  44.674  43.837   8.255
 6874POPC   C3A19325  44.668  43.926   7.955
 6874POPC   C4A19326  44.640  43.871   7.655
 6874POPC   C1B19327  44.599  43.634   8.555
 6874POPC   C2B19328  44.564  43.630   8.255
 6874POPC   C3B19329  44.607  43.689   7.955
 6874POPC   C4B19330  44.630  43.612   7.655
 6875POPC   NC319331   3.531  16.713   9.455
 6875POPC   PO419332   3.570  16.717   9.155
 6875POPC   GL119333   3.547  16.699   8.855
 6875POPC   GL219334   3.431  16.804   8.855
 6875POPC   C1A19335   3.504  16.736   8.555
 6875POPC   D2A19336   3.523  16.690   8.255
 6875POPC   C3A19337   3.499  16.780   7.955
 6875POPC   C4A19338   3.536  16.720   7.655
 6875POPC   C1B19339   3.343  16.892   8.555
 6875POPC   C2B19340   3.337  16.877   8.255
 6875POPC   C3B19341   3.367  16.944   7.955
 6875POPC   C4B19342   3.347  16.940   7.655
 6876POPC   NC319343  20.611  39.252   9.455
 6876POPC   PO419344  20.637  39.197   9.155
 6876POPC   GL119345  20.644  39.267   8.855
 6876POPC   GL219346  20.598  39.080   8.855
 6876POPC   C1A19347  20.578  39.238   8.555
 6876POPC   D2A19348  20.560  39.241   8.255
 6876POPC   C3A19349  20.630  39.225   7.955
 6876POPC   C4A19350  20.584  39.212   7.655
 6876POPC   C1B19351  20.633  39.025   8.555
 6876POPC   C2B19352  20.608  38.988   8.255
 6876POPC   C3B19353  20.626  39.020   7.955
 6876POPC   C4B19354  20.620  38.979   7.655
 6877POPC   NC319355  18.275  23.754   9.455
 6877POPC   PO419356  18.271  23.696   9.155
 6877POPC   GL119357  18.321  23.734   8.855
 6877POPC   GL219358  18.323  23.589   8.855
 6877POPC   C1A19359  18.255  23.761   8.555
 6877POPC   D2A19360  18.259  23.730   8.255
 6877POPC   C3A19361  18.297  23.721   7.955
 6877POPC   C4A19362  18.294  23.712   7.655
 6877POPC   C1B19363  18.366  23.487   8.555
 6877POPC   C2B19364  18.346  23.496   8.255
 6877POPC   C3B19365  18.386  23.461   7.955
 6877POPC   C4B19366  18.403  23.503   7.655
 6878POPC   NC319367  15.224  36.108   9.455
 6878POPC   PO419368  15.195  36.120   9.155
 6878POPC   GL119369  15.136  36.142   8.855
 6878POPC   GL219370  15.073  35.998   8.855
 6878POPC   C1A19371  15.202  36.159   8.555
 6878POPC   D2A19372  15.162  36.124   8.255
 6878POPC   C3A19373  15.148  36.158   7.955
 6878POPC   C4A19374  15.218  36.091   7.655
 6878POPC   C1B19375  14.983  35.983   8.555
 6878POPC   C2B19376  14.994  35.990   8.255
 6878POPC   C3B19377  14.978  35.987   7.955
 6878POPC   C4B19378  15.007  35.995   7.655
 6879POPC   NC319379   7.457  37.722   9.455
 6879POPC   PO419380   7.443  37.653   9.155
 6879POPC   GL119381   7.464  37.700   8.855
 6879POPC   GL219382   7.501  37.598   8.855
 6879POPC   C1A19383   7.382  37.630   8.555
 6879POPC   D2A19384   7.408  37.661   8.255
 6879POPC   C3A19385   7.434  37.655   7.955
 6879POPC   C4A19386   7.422  37.640   7.655
 6879POPC   C1B19387   7.655  37.500   8.555
 6879POPC   C2B19388   7.569  37.561   8.255
 6879POPC   C3B19389   7.577  37.538   7.955
 6879POPC   C4B19390   7.658  37.503   7.655
 6880POPC   NC319391   9.732  14.404   9.455
 6880POPC   PO419392   9.720  14.383   9.155
 6880POPC   GL119393   9.795  14.358   8.855
 6880POPC   GL219394   9.831  14.488   8.855
 6880POPC   C1A19395   9.759  14.426   8.555
 6880POPC   D2A19396   9.745  14.377   8.255
 6880POPC   C3A19397   9.776  14.401   7.955
 6880POPC   C4A19398   9.758  14.370   7.655
 6880POPC   C1B19399   9.914  14.520   8.555
 6880POPC   C2B19400   9.908  14.595   8.255
 6880POPC   C3B19401   9.930  14.547   7.955
 6880POPC   C4B19402   9.897  14.521   7.655
 6881POPC   NC319403   1.216  22.901   9.455
 6881POPC   PO419404   1.243  22.913   9.155
 6881POPC   GL119405   1.232  22.972   8.855
 6881POPC   GL219406   1.233  23.041   8.855
 6881POPC   C1A19407   1.233  22.919   8.555
 6881POPC   D2A19408   1.184  22.905   8.255
 6881POPC   C3A19409   1.249  22.951   7.955
 6881POPC   C4A19410   1.229  22.973   7.655
 6881POPC   C1B19411   1.210  23.186   8.555
 6881POPC   C2B19412   1.157  23.153   8.255
 6881POPC   C3B19413   1.238  23.146   7.955
 6881POPC   C4B19414   1.154  23.139   7.655
 6882POPC   NC319415   6.675  31.432   9.455
 6882POPC   PO419416   6.656  31.452   9.155
 6882POPC   GL119417   6.626  31.468   8.855
 6882POPC   GL219418   6.570  31.588   8.855
 6882POPC   C1A19419   6.673  31.483   8.555
 6882POPC   D2A19420   6.686  31.450   8.255
 6882POPC   C3A19421   6.691  31.504   7.955
 6882POPC   C4A19422   6.691  31.469   7.655
 6882POPC   C1B19423   6.533  31.696   8.555
 6882POPC   C2B19424   6.546  31.718   8.255
 6882POPC   C3B19425   6.608  31.677   7.955
 6882POPC   C4B19426   6.610  31.715   7.655
 6883POPC   NC319427  15.159  32.251   9.455
 6883POPC   PO419428  15.134  32.231   9.155
 6883POPC   GL119429  15.172  32.247   8.855
 6883POPC   GL219430  15.142  32.414   8.855
 6883POPC   C1A19431  15.221  32.230   8.555
 6883POPC   D2A19432  15.165  32.225   8.255
 6883POPC   C3A19433  15.199  32.202   7.955
 6883POPC   C4A19434  15.143  32.276   7.655
 6883POPC   C1B19435  15.190  32.495   8.555
 6883POPC   C2B19436  15.191  32.543   8.255
 6883POPC   C3B19437  15.236  32.476   7.955
 6883POPC   C4B19438  15.149  32.452   7.655
 6884POPC   NC319439  37.638  38.431   9.455
 6884POPC   PO419440  37.659  38.501   9.155
 6884POPC   GL119441  37.639  38.451   8.855
 6884POPC   GL219442  37.695  38.594   8.855
 6884POPC   C1A19443  37.631  38.428   8.555
 6884POPC   D2A19444  37.668  38.416   8.255
 6884POPC   C3A19445  37.633  38.489   7.955
 6884POPC   C4A19446  37.721  38.490   7.655
 6884POPC   C1B19447  37.638  38.694   8.555
 6884POPC   C2B19448  37.656  38.750   8.255
 6884POPC   C3B19449  37.602  38.695   7.955
 6884POPC   C4B19450  37.613  38.700   7.655
 6885POPC   NC319451  43.865   8.157   9.455
 6885POPC   PO419452  43.842   8.163   9.155
 6885POPC   GL119453  43.864   8.228   8.855
 6885POPC   GL219454  44.017   8.200   8.855
 6885POPC   C1A19455  43.858   8.205   8.555
 6885POPC   D2A19456  43.858   8.217   8.255
 6885POPC   C3A19457  43.862   8.157   7.955
 6885POPC   C4A19458  43.870   8.191   7.655
 6885POPC   C1B19459  44.134   8.258   8.555
 6885POPC   C2B19460  44.075   8.326   8.255
 6885POPC   C3B19461  44.135   8.291   7.955
 6885POPC   C4B19462  44.124   8.280   7.655
 6886POPC   NC319463  20.565   7.421   9.455
 6886POPC   PO419464  20.604   7.410   9.155
 6886POPC   GL119465  20.617   7.407   8.855
 6886POPC   GL219466  20.553   7.298   8.855
 6886POPC   C1A19467  20.650   7.391   8.555
 6886POPC   D2A19468  20.611   7.389   8.255
 6886POPC   C3A19469  20.566   7.394   7.955
 6886POPC   C4A19470  20.648   7.469   7.655
 6886POPC   C1B19471  20.438   7.207   8.555
 6886POPC   C2B19472  20.437   7.203   8.255
 6886POPC   C3B19473  20.409   7.222   7.955
 6886POPC   C4B19474  20.442   7.262   7.655
 6887POPC   NC319475  40.808  12.079   9.455
 6887POPC   PO419476  40.756  12.117   9.155
 6887POPC   GL119477  40.752  12.102   8.855
 6887POPC   GL219478  40.751  12.227   8.855
 6887POPC   C1A19479  40.774  12.047   8.555
 6887POPC   D2A19480  40.737  12.117   8.255
 6887POPC   C3A19481  40.768  12.054   7.955
 6887POPC   C4A19482  40.785  12.032   7.655
 6887POPC   C1B19483  40.778  12.282   8.555
 6887POPC   C2B19484  40.774  12.283   8.255
 6887POPC   C3B19485  40.732  12.359   7.955
 6887POPC   C4B19486  40.687  12.320   7.655
 6888POPC   NC319487   0.416  42.323   9.455
 6888POPC   PO419488   0.444  42.349   9.155
 6888POPC   GL119489   0.410  42.336   8.855
 6888POPC   GL219490   0.474  42.249   8.855
 6888POPC   C1A19491   0.488  42.339   8.555
 6888POPC   D2A19492   0.439  42.339   8.255
 6888POPC   C3A19493   0.456  42.300   7.955
 6888POPC   C4A19494   0.445  42.319   7.655
 6888POPC   C1B19495   0.556  42.114   8.555
 6888POPC   C2B19496   0.461  42.048   8.255
 6888POPC   C3B19497   0.465  42.104   7.955
 6888POPC   C4B19498   0.511  42.069   7.655
 6889POPC   NC319499  19.080  10.555   9.455
 6889POPC   PO419500  19.078  10.562   9.155
 6889POPC   GL119501  19.101  10.569   8.855
 6889POPC   GL219502  18.976  10.414   8.855
 6889POPC   C1A19503  19.020  10.491   8.555
 6889POPC   D2A19504  19.042  10.540   8.255
 6889POPC   C3A19505  19.028  10.529   7.955
 6889POPC   C4A19506  19.032  10.537   7.655
 6889POPC   C1B19507  18.907  10.354   8.555
 6889POPC   C2B19508  18.879  10.370   8.255
 6889POPC   C3B19509  18.839  10.387   7.955
 6889POPC   C4B19510  18.858  10.380   7.655
 6890POPC   NC319511  31.446  36.863   9.455
 6890POPC   PO419512  31.489  36.860   9.155
 6890POPC   GL119513  31.424  36.905   8.855
 6890POPC   GL219514  31.376  37.022   8.855
 6890POPC   C1A19515  31.479  36.871   8.555
 6890POPC   D2A19516  31.466  36.889   8.255
 6890POPC   C3A19517  31.498  36.950   7.955
 6890POPC   C4A19518  31.512  36.855   7.655
 6890POPC   C1B19519  31.292  37.077   8.555
 6890POPC   C2B19520  31.273  37.027   8.255
 6890POPC   C3B19521  31.253  37.070   7.955
 6890POPC   C4B19522  31.249  37.084   7.655
 6891POPC   NC319523   2.755  11.329   9.455
 6891POPC   PO419524   2.776  11.288   9.155
 6891POPC   GL119525   2.746  11.312   8.855
 6891POPC   GL219526   2.922  11.356   8.855
 6891POPC   C1A19527   2.787  11.273   8.555
 6891POPC   D2A19528   2.807  11.276   8.255
 6891POPC   C3A19529   2.780  11.311   7.955
 6891POPC   C4A19530   2.747  11.322   7.655
 6891POPC   C1B19531   3.050  11.349   8.555
 6891POPC   C2B19532   2.969  11.420   8.255
 6891POPC   C3B19533   2.980  11.363   7.955
 6891POPC   C4B19534   2.986  11.354   7.655
 6892POPC   NC319535  25.313  15.988   9.455
 6892POPC   PO419536  25.282  15.984   9.155
 6892POPC   GL119537  25.314  15.935   8.855
 6892POPC   GL219538  25.369  16.011   8.855
 6892POPC   C1A19539  25.237  15.995   8.555
 6892POPC   D2A19540  25.246  15.965   8.255
 6892POPC   C3A19541  25.258  15.970   7.955
 6892POPC   C4A19542  25.221  15.913   7.655
 6892POPC   C1B19543  25.548  15.979   8.555
 6892POPC   C2B19544  25.532  16.047   8.255
 6892POPC   C3B19545  25.516  15.966   7.955
 6892POPC   C4B19546  25.560  15.987   7.655
 6893POPC   NC319547  38.436   1.257   9.455
 6893POPC   PO419548  38.448   1.189   9.155
 6893POPC   GL119549  38.479   1.259   8.855
 6893POPC   GL219550  38.358   1.318   8.855
 6893POPC   C1A19551  38.483   1.252   8.555
 6893POPC   D2A19552  38.451   1.234   8.255
 6893POPC   C3A19553  38.431   1.217   7.955
 6893POPC   C4A19554  38.470   1.246   7.655
 6893POPC   C1B19555  38.261   1.351   8.555
 6893POPC   C2B19556  38.305   1.337   8.255
 6893POPC   C3B19557  38.293   1.420   7.955
 6893POPC   C4B19558  38.219   1.325   7.655
 6894POPC   NC319559  15.179  15.224   9.455
 6894POPC   PO419560  15.194  15.201   9.155
 6894POPC   GL119561  15.218  15.137   8.855
 6894POPC   GL219562  15.301  15.201   8.855
 6894POPC   C1A19563  15.205  15.220   8.555
 6894POPC   D2A19564  15.204  15.226   8.255
 6894POPC   C3A19565  15.161  15.213   7.955
 6894POPC   C4A19566  15.136  15.187   7.655
 6894POPC   C1B19567  15.369  15.319   8.555
 6894POPC   C2B19568  15.380  15.286   8.255
 6894POPC   C3B19569  15.371  15.307   7.955
 6894POPC   C4B19570  15.384  15.332   7.655
 6895POPC   NC319571  22.132  13.607   9.455
 6895POPC   PO419572  22.119  13.583   9.155
 6895POPC   GL119573  22.191  13.639   8.855
 6895POPC   GL219574  22.083  13.599   8.855
 6895POPC   C1A19575  22.204  13.587   8.555
 6895POPC   D2A19576  22.163  13.643   8.255
 6895POPC   C3A19577  22.116  13.673   7.955
 6895POPC   C4A19578  22.132  13.645   7.655
 6895POPC   C1B19579  21.988  13.485   8.555
 6895POPC   C2B19580  21.971  13.549   8.255
 6895POPC   C3B19581  21.943  13.481   7.955
 6895POPC   C4B19582  21.988  13.473   7.655
 6896POPC   NC319583  39.963   1.955   9.455
 6896POPC   PO419584  39.969   1.995   9.155
 6896POPC   GL119585  40.045   1.943   8.855
 6896POPC   GL219586  40.147   1.986   8.855
 6896POPC   C1A19587  40.037   1.943   8.555
 6896POPC   D2A19588  40.002   1.982   8.255
 6896POPC   C3A19589  40.033   2.015   7.955
 6896POPC   C4A19590  40.034   2.018   7.655
 6896POPC   C1B19591  40.237   2.034   8.555
 6896POPC   C2B19592  40.266   2.035   8.255
 6896POPC   C3B19593  40.243   1.987   7.955
 6896POPC   C4B19594  40.210   2.034   7.655
 6897POPC   NC319595  33.845  29.916   9.455
 6897POPC   PO419596  33.818  29.936   9.155
 6897POPC   GL119597  33.814  29.892   8.855
 6897POPC   GL219598  33.719  29.948   8.855
 6897POPC   C1A19599  33.836  29.892   8.555
 6897POPC   D2A19600  33.764  29.937   8.255
 6897POPC   C3A19601  33.819  29.960   7.955
 6897POPC   C4A19602  33.839  29.971   7.655
 6897POPC   C1B19603  33.526  29.962   8.555
 6897POPC   C2B19604  33.515  30.010   8.255
 6897POPC   C3B19605  33.523  29.932   7.955
 6897POPC   C4B19606  33.578  29.932   7.655
 6898POPC   NC319607   1.199   3.563   9.455
 6898POPC   PO419608   1.187   3.498   9.155
 6898POPC   GL119609   1.256   3.510   8.855
 6898POPC   GL219610   1.167   3.406   8.855
 6898POPC   C1A19611   1.200   3.523   8.555
 6898POPC   D2A19612   1.174   3.498   8.255
 6898POPC   C3A19613   1.174   3.532   7.955
 6898POPC   C4A19614   1.225   3.562   7.655
 6898POPC   C1B19615   1.153   3.273   8.555
 6898POPC   C2B19616   1.171   3.254   8.255
 6898POPC   C3B19617   1.174   3.262   7.955
 6898POPC   C4B19618   1.195   3.334   7.655
 6899POPC   NC319619  26.047  40.791   9.455
 6899POPC   PO419620  26.042  40.816   9.155
 6899POPC   GL119621  26.063  40.798   8.855
 6899POPC   GL219622  26.186  40.780   8.855
 6899POPC   C1A19623  26.041  40.739   8.555
 6899POPC   D2A19624  26.043  40.794   8.255
 6899POPC   C3A19625  26.044  40.779   7.955
 6899POPC   C4A19626  26.003  40.746   7.655
 6899POPC   C1B19627  26.259  40.785   8.555
 6899POPC   C2B19628  26.314  40.753   8.255
 6899POPC   C3B19629  26.244  40.765   7.955
 6899POPC   C4B19630  26.327  40.780   7.655
 6900POPC   NC319631  11.302  18.314   9.455
 6900POPC   PO419632  11.253  18.269   9.155
 6900POPC   GL119633  11.316  18.288   8.855
 6900POPC   GL219634  11.343  18.148   8.855
 6900POPC   C1A19635  11.274  18.305   8.555
 6900POPC   D2A19636  11.273  18.329   8.255
 6900POPC   C3A19637  11.263  18.236   7.955
 6900POPC   C4A19638  11.308  18.324   7.655
 6900POPC   C1B19639  11.481  18.083   8.555
 6900POPC   C2B19640  11.474  18.101   8.255
 6900POPC   C3B19641  11.459  18.138   7.955
 6900POPC   C4B19642  11.492  18.081   7.655
 6901POPC   NC319643  12.818  17.510   9.455
 6901POPC   PO419644  12.815  17.524   9.155
 6901POPC   GL119645  12.885  17.528   8.855
 6901POPC   GL219646  12.874  17.603   8.855
 6901POPC   C1A19647  12.815  17.480   8.555
 6901POPC   D2A19648  12.859  17.485   8.255
 6901POPC   C3A19649  12.812  17.520   7.955
 6901POPC   C4A19650  12.802  17.543   7.655
 6901POPC   C1B19651  12.864  17.803   8.555
 6901POPC   C2B19652  12.843  17.800   8.255
 6901POPC   C3B19653  12.873  17.715   7.955
 6901POPC   C4B19654  12.840  17.788   7.655
 6902POPC   NC319655  33.845  40.025   9.455
 6902POPC   PO419656  33.832  40.025   9.155
 6902POPC   GL119657  33.767  40.041   8.855
 6902POPC   GL219658  33.895  40.076   8.855
 6902POPC   C1A19659  33.808  40.010   8.555
 6902POPC   D2A19660  33.832  40.014   8.255
 6902POPC   C3A19661  33.848  39.985   7.955
 6902POPC   C4A19662  33.773  39.958   7.655
 6902POPC   C1B19663  34.028  40.118   8.555
 6902POPC   C2B19664  34.013  40.109   8.255
 6902POPC   C3B19665  34.007  40.193   7.955
 6902POPC   C4B19666  34.031  40.104   7.655
 6903POPC   NC319667   1.177  26.791   9.455
 6903POPC   PO419668   1.198  26.864   9.155
 6903POPC   GL119669   1.192  26.793   8.855
 6903POPC   GL219670   1.086  26.868   8.855
 6903POPC   C1A19671   1.190  26.865   8.555
 6903POPC   D2A19672   1.216  26.862   8.255
 6903POPC   C3A19673   1.247  26.813   7.955
 6903POPC   C4A19674   1.259  26.853   7.655
 6903POPC   C1B19675   1.022  26.861   8.555
 6903POPC   C2B19676   1.004  26.913   8.255
 6903POPC   C3B19677   0.975  26.873   7.955
 6903POPC   C4B19678   1.005  26.925   7.655
 6904POPC   NC319679  40.035   8.925   9.455
 6904POPC   PO419680  40.034   9.011   9.155
 6904POPC   GL119681  40.055   9.015   8.855
 6904POPC   GL219682  40.088   8.871   8.855
 6904POPC   C1A19683  39.967   8.991   8.555
 6904POPC   D2A19684  39.986   8.972   8.255
 6904POPC   C3A19685  39.992   9.000   7.955
 6904POPC   C4A19686  39.977   8.931   7.655
 6904POPC   C1B19687  40.053   8.731   8.555
 6904POPC   C2B19688  40.035   8.728   8.255
 6904POPC   C3B19689  40.093   8.700   7.955
 6904POPC   C4B19690  40.046   8.736   7.655
 6905POPC   NC319691   0.442   6.601   9.455
 6905POPC   PO419692   0.462   6.611   9.155
 6905POPC   GL119693   0.456   6.637   8.855
 6905POPC   GL219694   0.343   6.503   8.855
 6905POPC   C1A19695   0.433   6.634   8.555
 6905POPC   D2A19696   0.443   6.687   8.255
 6905POPC   C3A19697   0.440   6.681   7.955
 6905POPC   C4A19698   0.480   6.685   7.655
 6905POPC   C1B19699   0.348   6.450   8.555
 6905POPC   C2B19700   0.286   6.403   8.255
 6905POPC   C3B19701   0.301   6.444   7.955
 6905POPC   C4B19702   0.317   6.452   7.655
 6906POPC   NC319703   8.951  43.061   9.455
 6906POPC   PO419704   8.992  43.079   9.155
 6906POPC   GL119705   8.994  43.140   8.855
 6906POPC   GL219706   8.915  43.249   8.855
 6906POPC   C1A19707   8.942  43.086   8.555
 6906POPC   D2A19708   8.943  43.159   8.255
 6906POPC   C3A19709   8.928  43.093   7.955
 6906POPC   C4A19710   8.992  43.140   7.655
 6906POPC   C1B19711   8.916  43.350   8.555
 6906POPC   C2B19712   8.937  43.324   8.255
 6906POPC   C3B19713   8.885  43.370   7.955
 6906POPC   C4B19714   8.889  43.381   7.655
 6907POPC   NC319715  37.646  31.509   9.455
 6907POPC   PO419716  37.635  31.443   9.155
 6907POPC   GL119717  37.697  31.453   8.855
 6907POPC   GL219718  37.544  31.458   8.855
 6907POPC   C1A19719  37.630  31.501   8.555
 6907POPC   D2A19720  37.728  31.448   8.255
 6907POPC   C3A19721  37.672  31.441   7.955
 6907POPC   C4A19722  37.717  31.427   7.655
 6907POPC   C1B19723  37.390  31.420   8.555
 6907POPC   C2B19724  37.419  31.438   8.255
 6907POPC   C3B19725  37.405  31.420   7.955
 6907POPC   C4B19726  37.475  31.433   7.655
 6908POPC   NC319727  31.432   1.244   9.455
 6908POPC   PO419728  31.423   1.226   9.155
 6908POPC   GL119729  31.491   1.226   8.855
 6908POPC   GL219730  31.632   1.223   8.855
 6908POPC   C1A19731  31.497   1.203   8.555
 6908POPC   D2A19732  31.504   1.208   8.255
 6908POPC   C3A19733  31.430   1.246   7.955
 6908POPC   C4A19734  31.441   1.260   7.655
 6908POPC   C1B19735  31.680   1.258   8.555
 6908POPC   C2B19736  31.684   1.223   8.255
 6908POPC   C3B19737  31.768   1.270   7.955
 6908POPC   C4B19738  31.685   1.243   7.655
 6909POPC   NC319739  13.631  31.427   9.455
 6909POPC   PO419740  13.658  31.492   9.155
 6909POPC   GL119741  13.613  31.450   8.855
 6909POPC   GL219742  13.540  31.523   8.855
 6909POPC   C1A19743  13.584  31.515   8.555
 6909POPC   D2A19744  13.653  31.477   8.255
 6909POPC   C3A19745  13.649  31.487   7.955
 6909POPC   C4A19746  13.674  31.502   7.655
 6909POPC   C1B19747  13.377  31.497   8.555
 6909POPC   C2B19748  13.391  31.487   8.255
 6909POPC   C3B19749  13.349  31.504   7.955
 6909POPC   C4B19750  13.422  31.493   7.655
 6910POPC   NC319751  13.595  37.719   9.455
 6910POPC   PO419752  13.645  37.664   9.155
 6910POPC   GL119753  13.644  37.647   8.855
 6910POPC   GL219754  13.549  37.690   8.855
 6910POPC   C1A19755  13.650  37.652   8.555
 6910POPC   D2A19756  13.651  37.649   8.255
 6910POPC   C3A19757  13.620  37.700   7.955
 6910POPC   C4A19758  13.597  37.632   7.655
 6910POPC   C1B19759  13.396  37.699   8.555
 6910POPC   C2B19760  13.368  37.721   8.255
 6910POPC   C3B19761  13.390  37.700   7.955
 6910POPC   C4B19762  13.403  37.702   7.655
 6911POPC   NC319763   1.975  26.803   9.455
 6911POPC   PO419764   2.001  26.844   9.155
 6911POPC   GL119765   1.962  26.807   8.855
 6911POPC   GL219766   2.155  26.804   8.855
 6911POPC   C1A19767   1.980  26.805   8.555
 6911POPC   D2A19768   2.013  26.779   8.255
 6911POPC   C3A19769   1.992  26.827   7.955
 6911POPC   C4A19770   1.964  26.821   7.655
 6911POPC   C1B19771   2.204  26.895   8.555
 6911POPC   C2B19772   2.275  26.846   8.255
 6911POPC   C3B19773   2.260  26.889   7.955
 6911POPC   C4B19774   2.192  26.861   7.655
 6912POPC   NC319775  22.896  20.651   9.455
 6912POPC   PO419776  22.970  20.601   9.155
 6912POPC   GL119777  22.901  20.611   8.855
 6912POPC   GL219778  22.949  20.530   8.855
 6912POPC   C1A19779  22.966  20.577   8.555
 6912POPC   D2A19780  22.971  20.578   8.255
 6912POPC   C3A19781  22.945  20.610   7.955
 6912POPC   C4A19782  22.905  20.606   7.655
 6912POPC   C1B19783  22.959  20.385   8.555
 6912POPC   C2B19784  22.999  20.332   8.255
 6912POPC   C3B19785  23.025  20.358   7.955
 6912POPC   C4B19786  22.995  20.360   7.655
 6913POPC   NC319787   2.759   8.152   9.455
 6913POPC   PO419788   2.784   8.191   9.155
 6913POPC   GL119789   2.722   8.244   8.855
 6913POPC   GL219790   2.879   8.135   8.855
 6913POPC   C1A19791   2.760   8.183   8.555
 6913POPC   D2A19792   2.736   8.164   8.255
 6913POPC   C3A19793   2.810   8.246   7.955
 6913POPC   C4A19794   2.730   8.172   7.655
 6913POPC   C1B19795   2.890   7.994   8.555
 6913POPC   C2B19796   2.932   8.019   8.255
 6913POPC   C3B19797   2.933   8.007   7.955
 6913POPC   C4B19798   2.921   8.041   7.655
 6914POPC   NC319799  37.688  17.526   9.455
 6914POPC   PO419800  37.671  17.548   9.155
 6914POPC   GL119801  37.714  17.545   8.855
 6914POPC   GL219802  37.575  17.380   8.855
 6914POPC   C1A19803  37.713  17.539   8.555
 6914POPC   D2A19804  37.720  17.544   8.255
 6914POPC   C3A19805  37.713  17.468   7.955
 6914POPC   C4A19806  37.666  17.528   7.655
 6914POPC   C1B19807  37.524  17.333   8.555
 6914POPC   C2B19808  37.523  17.329   8.255
 6914POPC   C3B19809  37.453  17.377   7.955
 6914POPC   C4B19810  37.489  17.373   7.655
 6915POPC   NC319811  38.418  27.547   9.455
 6915POPC   PO419812  38.472  27.627   9.155
 6915POPC   GL119813  38.423  27.574   8.855
 6915POPC   GL219814  38.471  27.525   8.855
 6915POPC   C1A19815  38.488  27.602   8.555
 6915POPC   D2A19816  38.437  27.585   8.255
 6915POPC   C3A19817  38.417  27.576   7.955
 6915POPC   C4A19818  38.449  27.611   7.655
 6915POPC   C1B19819  38.598  27.389   8.555
 6915POPC   C2B19820  38.549  27.379   8.255
 6915POPC   C3B19821  38.540  27.361   7.955
 6915POPC   C4B19822  38.610  27.358   7.655
 6916POPC   NC319823   5.879  21.436   9.455
 6916POPC   PO419824   5.835  21.431   9.155
 6916POPC   GL119825   5.825  21.366   8.855
 6916POPC   GL219826   5.844  21.513   8.855
 6916POPC   C1A19827   5.855  21.433   8.555
 6916POPC   D2A19828   5.916  21.416   8.255
 6916POPC   C3A19829   5.843  21.381   7.955
 6916POPC   C4A19830   5.897  21.432   7.655
 6916POPC   C1B19831   5.858  21.669   8.555
 6916POPC   C2B19832   5.871  21.609   8.255
 6916POPC   C3B19833   5.857  21.636   7.955
 6916POPC   C4B19834   5.936  21.592   7.655
 6917POPC   NC319835  21.408  24.474   9.455
 6917POPC   PO419836  21.365  24.519   9.155
 6917POPC   GL119837  21.362  24.472   8.855
 6917POPC   GL219838  21.415  24.322   8.855
 6917POPC   C1A19839  21.339  24.535   8.555
 6917POPC   D2A19840  21.352  24.470   8.255
 6917POPC   C3A19841  21.405  24.486   7.955
 6917POPC   C4A19842  21.362  24.446   7.655
 6917POPC   C1B19843  21.346  24.278   8.555
 6917POPC   C2B19844  21.348  24.257   8.255
 6917POPC   C3B19845  21.357  24.235   7.955
 6917POPC   C4B19846  21.360  24.237   7.655
 6918POPC   NC319847   4.324  29.887   9.455
 6918POPC   PO419848   4.269  29.899   9.155
 6918POPC   GL119849   4.330  29.883   8.855
 6918POPC   GL219850   4.352  29.778   8.855
 6918POPC   C1A19851   4.288  29.960   8.555
 6918POPC   D2A19852   4.289  29.936   8.255
 6918POPC   C3A19853   4.338  29.895   7.955
 6918POPC   C4A19854   4.352  29.894   7.655
 6918POPC   C1B19855   4.466  29.653   8.555
 6918POPC   C2B19856   4.468  29.685   8.255
 6918POPC   C3B19857   4.420  29.719   7.955
 6918POPC   C4B19858   4.399  29.658   7.655
 6919POPC   NC319859  33.810  11.275   9.455
 6919POPC   PO419860  33.796  11.343   9.155
 6919POPC   GL119861  33.847  11.322   8.855
 6919POPC   GL219862  33.720  11.252   8.855
 6919POPC   C1A19863  33.754  11.328   8.555
 6919POPC   D2A19864  33.779  11.292   8.255
 6919POPC   C3A19865  33.754  11.268   7.955
 6919POPC   C4A19866  33.752  11.334   7.655
 6919POPC   C1B19867  33.593  11.189   8.555
 6919POPC   C2B19868  33.596  11.180   8.255
 6919POPC   C3B19869  33.516  11.220   7.955
 6919POPC   C4B19870  33.522  11.216   7.655
 6920POPC   NC319871   6.655  14.413   9.455
 6920POPC   PO419872   6.676  14.418   9.155
 6920POPC   GL119873   6.654  14.453   8.855
 6920POPC   GL219874   6.783  14.371   8.855
 6920POPC   C1A19875   6.627  14.360   8.555
 6920POPC   D2A19876   6.624  14.363   8.255
 6920POPC   C3A19877   6.671  14.431   7.955
 6920POPC   C4A19878   6.649  14.407   7.655
 6920POPC   C1B19879   6.857  14.235   8.555
 6920POPC   C2B19880   6.897  14.245   8.255
 6920POPC   C3B19881   6.881  14.284   7.955
 6920POPC   C4B19882   6.837  14.278   7.655
 6921POPC   NC319883   8.179  34.567   9.455
 6921POPC   PO419884   8.212  34.597   9.155
 6921POPC   GL119885   8.244  34.624   8.855
 6921POPC   GL219886   8.350  34.608   8.855
 6921POPC   C1A19887   8.191  34.616   8.555
 6921POPC   D2A19888   8.147  34.616   8.255
 6921POPC   C3A19889   8.160  34.569   7.955
 6921POPC   C4A19890   8.225  34.532   7.655
 6921POPC   C1B19891   8.424  34.739   8.555
 6921POPC   C2B19892   8.367  34.685   8.255
 6921POPC   C3B19893   8.432  34.680   7.955
 6921POPC   C4B19894   8.458  34.708   7.655
 6922POPC   NC319895  25.997  13.591   9.455
 6922POPC   PO419896  26.014  13.614   9.155
 6922POPC   GL119897  26.051  13.608   8.855
 6922POPC   GL219898  25.899  13.638   8.855
 6922POPC   C1A19899  26.003  13.673   8.555
 6922POPC   D2A19900  26.062  13.624   8.255
 6922POPC   C3A19901  26.058  13.675   7.955
 6922POPC   C4A19902  26.000  13.620   7.655
 6922POPC   C1B19903  25.838  13.716   8.555
 6922POPC   C2B19904  25.854  13.745   8.255
 6922POPC   C3B19905  25.789  13.759   7.955
 6922POPC   C4B19906  25.836  13.730   7.655
 6923POPC   NC319907  35.358  33.814   9.455
 6923POPC   PO419908  35.345  33.791   9.155
 6923POPC   GL119909  35.346  33.794   8.855
 6923POPC   GL219910  35.269  33.721   8.855
 6923POPC   C1A19911  35.336  33.754   8.555
 6923POPC   D2A19912  35.386  33.815   8.255
 6923POPC   C3A19913  35.378  33.835   7.955
 6923POPC   C4A19914  35.391  33.796   7.655
 6923POPC   C1B19915  35.294  33.576   8.555
 6923POPC   C2B19916  35.276  33.560   8.255
 6923POPC   C3B19917  35.278  33.597   7.955
 6923POPC   C4B19918  35.213  33.592   7.655
 6924POPC   NC319919  33.005  21.338   9.455
 6924POPC   PO419920  33.074  21.413   9.155
 6924POPC   GL119921  33.013  21.366   8.855
 6924POPC   GL219922  33.121  21.451   8.855
 6924POPC   C1A19923  32.997  21.403   8.555
 6924POPC   D2A19924  33.046  21.355   8.255
 6924POPC   C3A19925  33.015  21.408   7.955
 6924POPC   C4A19926  33.035  21.391   7.655
 6924POPC   C1B19927  33.255  21.423   8.555
 6924POPC   C2B19928  33.261  21.444   8.255
 6924POPC   C3B19929  33.302  21.412   7.955
 6924POPC   C4B19930  33.297  21.443   7.655
 6925POPC   NC319931  21.408  11.291   9.455
 6925POPC   PO419932  21.425  11.294   9.155
 6925POPC   GL119933  21.430  11.284   8.855
 6925POPC   GL219934  21.246  11.259   8.855
 6925POPC   C1A19935  21.356  11.342   8.555
 6925POPC   D2A19936  21.425  11.278   8.255
 6925POPC   C3A19937  21.351  11.264   7.955
 6925POPC   C4A19938  21.344  11.305   7.655
 6925POPC   C1B19939  21.216  11.130   8.555
 6925POPC   C2B19940  21.174  11.155   8.255
 6925POPC   C3B19941  21.150  11.185   7.955
 6925POPC   C4B19942  21.206  11.175   7.655
 6926POPC   NC319943  39.255  41.536   9.455
 6926POPC   PO419944  39.189  41.520   9.155
 6926POPC   GL119945  39.227  41.559   8.855
 6926POPC   GL219946  39.348  41.539   8.855
 6926POPC   C1A19947  39.259  41.513   8.555
 6926POPC   D2A19948  39.204  41.567   8.255
 6926POPC   C3A19949  39.279  41.587   7.955
 6926POPC   C4A19950  39.272  41.544   7.655
 6926POPC   C1B19951  39.510  41.473   8.555
 6926POPC   C2B19952  39.502  41.540   8.255
 6926POPC   C3B19953  39.448  41.493   7.955
 6926POPC   C4B19954  39.511  41.548   7.655
 6927POPC   NC319955  23.665  44.636   9.455
 6927POPC   PO419956  23.741  44.617   9.155
 6927POPC   GL119957  23.686  44.618   8.855
 6927POPC   GL219958  23.738  44.562   8.855
 6927POPC   C1A19959  23.738  44.624   8.555
 6927POPC   D2A19960  23.729  44.709   8.255
 6927POPC   C3A19961  23.678  44.706   7.955
 6927POPC   C4A19962  23.740  44.681   7.655
 6927POPC   C1B19963  23.677  44.411   8.555
 6927POPC   C2B19964  23.653  44.442   8.255
 6927POPC   C3B19965  23.689  44.414   7.955
 6927POPC   C4B19966  23.671  44.389   7.655
 6928POPC   NC319967   1.170  32.214   9.455
 6928POPC   PO419968   1.196  32.215   9.155
 6928POPC   GL119969   1.222  32.248   8.855
 6928POPC   GL219970   1.345  32.170   8.855
 6928POPC   C1A19971   1.192  32.242   8.555
 6928POPC   D2A19972   1.164  32.203   8.255
 6928POPC   C3A19973   1.239  32.254   7.955
 6928POPC   C4A19974   1.216  32.213   7.655
 6928POPC   C1B19975   1.474  32.159   8.555
 6928POPC   C2B19976   1.414  32.173   8.255
 6928POPC   C3B19977   1.468  32.158   7.955
 6928POPC   C4B19978   1.478  32.182   7.655
 6929POPC   NC319979  37.698  15.175   9.455
 6929POPC   PO419980  37.656  15.221   9.155
 6929POPC   GL119981  37.649  15.155   8.855
 6929POPC   GL219982  37.628  15.320   8.855
 6929POPC   C1A19983  37.682  15.197   8.555
 6929POPC   D2A19984  37.668  15.211   8.255
 6929POPC   C3A19985  37.680  15.190   7.955
 6929POPC   C4A19986  37.651  15.152   7.655
 6929POPC   C1B19987  37.610  15.418   8.555
 6929POPC   C2B19988  37.603  15.405   8.255
 6929POPC   C3B19989  37.613  15.441   7.955
 6929POPC   C4B19990  37.638  15.389   7.655
 6930POPC   NC319991   9.022  34.625   9.455
 6930POPC   PO419992   8.926  34.558   9.155
 6930POPC   GL119993   8.964  34.595   8.855
 6930POPC   GL219994   8.852  34.499   8.855
 6930POPC   C1A19995   8.970  34.528   8.555
 6930POPC   D2A19996   9.005  34.590   8.255
 6930POPC   C3A19997   9.012  34.545   7.955
 6930POPC   C4A19998   8.968  34.543   7.655
 6930POPC   C1B19999   8.752  34.459   8.555
 6930POPC   C2B20000   8.734  34.453   8.255
 6930POPC   C3B20001   8.763  34.456   7.955
 6930POPC   C4B20002   8.699  34.426   7.655
 6931POPC   NC320003  41.559   2.760   9.455
 6931POPC   PO420004  41.530   2.778   9.155
 6931POPC   GL120005  41.605   2.739   8.855
 6931POPC   GL220006  41.539   2.626   8.855
 6931POPC   C1A20007  41.603   2.774   8.555
 6931POPC   D2A20008  41.570   2.762   8.255
 6931POPC   C3A20009  41.563   2.798   7.955
 6931POPC   C4A20010  41.555   2.804   7.655
 6931POPC   C1B20011  41.504   2.494   8.555
 6931POPC   C2B20012  41.423   2.574   8.255
 6931POPC   C3B20013  41.429   2.533   7.955
 6931POPC   C4B20014  41.478   2.530   7.655
 6932POPC   NC320015  17.540  23.665   9.455
 6932POPC   PO420016  17.538  23.667   9.155
 6932POPC   GL120017  17.480  23.729   8.855
 6932POPC   GL220018  17.398  23.629   8.855
 6932POPC   C1A20019  17.541  23.750   8.555
 6932POPC   D2A20020  17.472  23.724   8.255
 6932POPC   C3A20021  17.462  23.729   7.955
 6932POPC   C4A20022  17.478  23.705   7.655
 6932POPC   C1B20023  17.371  23.586   8.555
 6932POPC   C2B20024  17.333  23.513   8.255
 6932POPC   C3B20025  17.320  23.549   7.955
 6932POPC   C4B20026  17.355  23.532   7.655
 6933POPC   NC320027   1.944  21.359   9.455
 6933POPC   PO420028   1.950  21.431   9.155
 6933POPC   GL120029   1.956  21.404   8.855
 6933POPC   GL220030   1.938  21.248   8.855
 6933POPC   C1A20031   1.956  21.405   8.555
 6933POPC   D2A20032   1.948  21.428   8.255
 6933POPC   C3A20033   2.012  21.410   7.955
 6933POPC   C4A20034   2.035  21.399   7.655
 6933POPC   C1B20035   1.801  21.225   8.555
 6933POPC   C2B20036   1.808  21.159   8.255
 6933POPC   C3B20037   1.863  21.133   7.955
 6933POPC   C4B20038   1.883  21.173   7.655
 6934POPC   NC320039  12.900   6.602   9.455
 6934POPC   PO420040  12.848   6.607   9.155
 6934POPC   GL120041  12.873   6.631   8.855
 6934POPC   GL220042  12.987   6.566   8.855
 6934POPC   C1A20043  12.871   6.662   8.555
 6934POPC   D2A20044  12.867   6.604   8.255
 6934POPC   C3A20045  12.821   6.660   7.955
 6934POPC   C4A20046  12.837   6.684   7.655
 6934POPC   C1B20047  13.082   6.511   8.555
 6934POPC   C2B20048  13.102   6.507   8.255
 6934POPC   C3B20049  13.068   6.502   7.955
 6934POPC   C4B20050  13.060   6.486   7.655
 6935POPC   NC320051   6.618  43.120   9.455
 6935POPC   PO420052   6.689  43.152   9.155
 6935POPC   GL120053   6.630  43.110   8.855
 6935POPC   GL220054   6.719  43.006   8.855
 6935POPC   C1A20055   6.659  43.147   8.555
 6935POPC   D2A20056   6.602  43.094   8.255
 6935POPC   C3A20057   6.616  43.074   7.955
 6935POPC   C4A20058   6.631  43.116   7.655
 6935POPC   C1B20059   6.807  42.902   8.555
 6935POPC   C2B20060   6.804  42.929   8.255
 6935POPC   C3B20061   6.838  42.983   7.955
 6935POPC   C4B20062   6.824  42.908   7.655
 6936POPC   NC320063  37.643   4.303   9.455
 6936POPC   PO420064  37.679   4.318   9.155
 6936POPC   GL120065  37.663   4.296   8.855
 6936POPC   GL220066  37.739   4.428   8.855
 6936POPC   C1A20067  37.647   4.336   8.555
 6936POPC   D2A20068  37.728   4.333   8.255
 6936POPC   C3A20069  37.636   4.338   7.955
 6936POPC   C4A20070  37.664   4.312   7.655
 6936POPC   C1B20071  37.899   4.476   8.555
 6936POPC   C2B20072  37.854   4.410   8.255
 6936POPC   C3B20073  37.844   4.446   7.955
 6936POPC   C4B20074  37.933   4.403   7.655
 6937POPC   NC320075   0.414  31.435   9.455
 6937POPC   PO420076   0.449  31.474   9.155
 6937POPC   GL120077   0.396  31.485   8.855
 6937POPC   GL220078   0.332  31.438   8.855
 6937POPC   C1A20079   0.483  31.445   8.555
 6937POPC   D2A20080   0.462  31.494   8.255
 6937POPC   C3A20081   0.437  31.449   7.955
 6937POPC   C4A20082   0.395  31.461   7.655
 6937POPC   C1B20083   0.223  31.307   8.555
 6937POPC   C2B20084   0.214  31.340   8.255
 6937POPC   C3B20085   0.215  31.360   7.955
 6937POPC   C4B20086   0.192  31.352   7.655
 6938POPC   NC320087  15.973  23.730   9.455
 6938POPC   PO420088  15.995  23.691   9.155
 6938POPC   GL120089  15.994  23.703   8.855
 6938POPC   GL220090  15.991  23.851   8.855
 6938POPC   C1A20091  15.984  23.690   8.555
 6938POPC   D2A20092  16.003  23.760   8.255
 6938POPC   C3A20093  15.967  23.710   7.955
 6938POPC   C4A20094  15.991  23.691   7.655
 6938POPC   C1B20095  16.035  23.924   8.555
 6938POPC   C2B20096  16.011  23.946   8.255
 6938POPC   C3B20097  16.026  23.968   7.955
 6938POPC   C4B20098  16.053  23.945   7.655
 6939POPC   NC320099  12.074   5.106   9.455
 6939POPC   PO420100  12.112   5.095   9.155
 6939POPC   GL120101  12.083   5.046   8.855
 6939POPC   GL220102  12.188   5.041   8.855
 6939POPC   C1A20103  12.088   5.131   8.555
 6939POPC   D2A20104  12.031   5.080   8.255
 6939POPC   C3A20105  12.082   5.102   7.955
 6939POPC   C4A20106  12.027   5.075   7.655
 6939POPC   C1B20107  12.274   5.010   8.555
 6939POPC   C2B20108  12.341   4.975   8.255
 6939POPC   C3B20109  12.345   5.033   7.955
 6939POPC   C4B20110  12.265   5.031   7.655
 6940POPC   NC320111  42.289  12.836   9.455
 6940POPC   PO420112  42.320  12.840   9.155
 6940POPC   GL120113  42.298  12.835   8.855
 6940POPC   GL220114  42.197  12.839   8.855
 6940POPC   C1A20115  42.362  12.891   8.555
 6940POPC   D2A20116  42.350  12.867   8.255
 6940POPC   C3A20117  42.350  12.851   7.955
 6940POPC   C4A20118  42.344  12.850   7.655
 6940POPC   C1B20119  42.098  12.919   8.555
 6940POPC   C2B20120  42.085  12.869   8.255
 6940POPC   C3B20121  42.058  12.829   7.955
 6940POPC   C4B20122  42.082  12.832   7.655
 6941POPC   NC320123  19.858   3.531   9.455
 6941POPC   PO420124  19.788   3.516   9.155
 6941POPC   GL120125  19.868   3.514   8.855
 6941POPC   GL220126  19.902   3.477   8.855
 6941POPC   C1A20127  19.791   3.507   8.555
 6941POPC   D2A20128  19.812   3.499   8.255
 6941POPC   C3A20129  19.812   3.530   7.955
 6941POPC   C4A20130  19.823   3.583   7.655
 6941POPC   C1B20131  20.006   3.405   8.555
 6941POPC   C2B20132  19.996   3.393   8.255
 6941POPC   C3B20133  20.037   3.382   7.955
 6941POPC   C4B20134  20.008   3.413   7.655
 6942POPC   NC320135  21.373  37.690   9.455
 6942POPC   PO420136  21.363  37.642   9.155
 6942POPC   GL120137  21.339  37.719   8.855
 6942POPC   GL220138  21.227  37.687   8.855
 6942POPC   C1A20139  21.406  37.704   8.555
 6942POPC   D2A20140  21.409  37.715   8.255
 6942POPC   C3A20141  21.421  37.713   7.955
 6942POPC   C4A20142  21.400  37.635   7.655
 6942POPC   C1B20143  21.174  37.628   8.555
 6942POPC   C2B20144  21.152  37.637   8.255
 6942POPC   C3B20145  21.184  37.642   7.955
 6942POPC   C4B20146  21.140  37.656   7.655
 6943POPC   NC320147   2.727  25.291   9.455
 6943POPC   PO420148   2.781  25.301   9.155
 6943POPC   GL120149   2.724  25.246   8.855
 6943POPC   GL220150   2.817  25.183   8.855
 6943POPC   C1A20151   2.781  25.314   8.555
 6943POPC   D2A20152   2.741  25.241   8.255
 6943POPC   C3A20153   2.783  25.217   7.955
 6943POPC   C4A20154   2.790  25.217   7.655
 6943POPC   C1B20155   2.840  25.030   8.555
 6943POPC   C2B20156   2.854  25.010   8.255
 6943POPC   C3B20157   2.867  25.046   7.955
 6943POPC   C4B20158   2.846  25.060   7.655
 6944POPC   NC320159  30.709  29.949   9.455
 6944POPC   PO420160  30.680  29.921   9.155
 6944POPC   GL120161  30.679  29.920   8.855
 6944POPC   GL220162  30.561  29.896   8.855
 6944POPC   C1A20163  30.745  29.901   8.555
 6944POPC   D2A20164  30.745  29.969   8.255
 6944POPC   C3A20165  30.700  29.934   7.955
 6944POPC   C4A20166  30.693  29.877   7.655
 6944POPC   C1B20167  30.417  29.928   8.555
 6944POPC   C2B20168  30.402  29.946   8.255
 6944POPC   C3B20169  30.449  29.955   7.955
 6944POPC   C4B20170  30.493  29.952   7.655
 6945POPC   NC320171  38.467   3.507   9.455
 6945POPC   PO420172  38.485   3.575   9.155
 6945POPC   GL120173  38.435   3.499   8.855
 6945POPC   GL220174  38.402   3.449   8.855
 6945POPC   C1A20175  38.473   3.557   8.555
 6945POPC   D2A20176  38.480   3.545   8.255
 6945POPC   C3A20177  38.488   3.500   7.955
 6945POPC   C4A20178  38.410   3.527   7.655
 6945POPC   C1B20179  38.409   3.253   8.555
 6945POPC   C2B20180  38.439   3.329   8.255
 6945POPC   C3B20181  38.407   3.301   7.955
 6945POPC   C4B20182  38.497   3.268   7.655
 6946POPC   NC320183  25.281  22.970   9.455
 6946POPC   PO420184  25.256  22.948   9.155
 6946POPC   GL120185  25.234  22.979   8.855
 6946POPC   GL220186  25.189  22.788   8.855
 6946POPC   C1A20187  25.264  22.911   8.555
 6946POPC   D2A20188  25.221  22.964   8.255
 6946POPC   C3A20189  25.229  22.972   7.955
 6946POPC   C4A20190  25.277  22.952   7.655
 6946POPC   C1B20191  25.203  22.752   8.555
 6946POPC   C2B20192  25.152  22.736   8.255
 6946POPC   C3B20193  25.211  22.711   7.955
 6946POPC   C4B20194  25.186  22.664   7.655
 6947POPC   NC320195  39.219  36.147   9.455
 6947POPC   PO420196  39.199  36.084   9.155
 6947POPC   GL120197  39.276  36.115   8.855
 6947POPC   GL220198  39.186  36.190   8.855
 6947POPC   C1A20199  39.243  36.140   8.555
 6947POPC   D2A20200  39.261  36.095   8.255
 6947POPC   C3A20201  39.234  36.131   7.955
 6947POPC   C4A20202  39.226  36.154   7.655
 6947POPC   C1B20203  39.079  36.259   8.555
 6947POPC   C2B20204  39.088  36.303   8.255
 6947POPC   C3B20205  39.071  36.327   7.955
 6947POPC   C4B20206  39.077  36.313   7.655
 6948POPC   NC320207  26.823  17.531   9.455
 6948POPC   PO420208  26.788  17.491   9.155
 6948POPC   GL120209  26.846  17.538   8.855
 6948POPC   GL220210  26.937  17.457   8.855
 6948POPC   C1A20211  26.830  17.540   8.555
 6948POPC   D2A20212  26.865  17.513   8.255
 6948POPC   C3A20213  26.856  17.468   7.955
 6948POPC   C4A20214  26.776  17.513   7.655
 6948POPC   C1B20215  27.102  17.430   8.555
 6948POPC   C2B20216  27.078  17.414   8.255
 6948POPC   C3B20217  27.071  17.478   7.955
 6948POPC   C4B20218  27.102  17.497   7.655
 6949POPC   NC320219  18.255  40.828   9.455
 6949POPC   PO420220  18.239  40.746   9.155
 6949POPC   GL120221  18.265  40.779   8.855
 6949POPC   GL220222  18.373  40.694   8.855
 6949POPC   C1A20223  18.302  40.819   8.555
 6949POPC   D2A20224  18.295  40.824   8.255
 6949POPC   C3A20225  18.325  40.782   7.955
 6949POPC   C4A20226  18.284  40.810   7.655
 6949POPC   C1B20227  18.362  40.550   8.555
 6949POPC   C2B20228  18.372  40.603   8.255
 6949POPC   C3B20229  18.444  40.536   7.955
 6949POPC   C4B20230  18.382  40.537   7.655
 6950POPC   NC320231  37.667   2.736   9.455
 6950POPC   PO420232  37.640   2.741   9.155
 6950POPC   GL120233  37.636   2.716   8.855
 6950POPC   GL220234  37.812   2.795   8.855
 6950POPC   C1A20235  37.660   2.768   8.555
 6950POPC   D2A20236  37.654   2.737   8.255
 6950POPC   C3A20237  37.687   2.753   7.955
 6950POPC   C4A20238  37.675   2.787   7.655
 6950POPC   C1B20239  37.953   2.822   8.555
 6950POPC   C2B20240  37.873   2.832   8.255
 6950POPC   C3B20241  37.903   2.868   7.955
 6950POPC   C4B20242  37.945   2.812   7.655
 6951POPC   NC320243  21.355  36.173   9.455
 6951POPC   PO420244  21.359  36.090   9.155
 6951POPC   GL120245  21.371  36.154   8.855
 6951POPC   GL220246  21.301  36.071   8.855
 6951POPC   C1A20247  21.390  36.099   8.555
 6951POPC   D2A20248  21.389  36.146   8.255
 6951POPC   C3A20249  21.372  36.122   7.955
 6951POPC   C4A20250  21.341  36.118   7.655
 6951POPC   C1B20251  21.175  36.091   8.555
 6951POPC   C2B20252  21.154  36.041   8.255
 6951POPC   C3B20253  21.160  36.106   7.955
 6951POPC   C4B20254  21.112  36.097   7.655
 6952POPC   NC320255  35.356  25.269   9.455
 6952POPC   PO420256  35.350  25.269   9.155
 6952POPC   GL120257  35.368  25.279   8.855
 6952POPC   GL220258  35.489  25.316   8.855
 6952POPC   C1A20259  35.348  25.292   8.555
 6952POPC   D2A20260  35.400  25.267   8.255
 6952POPC   C3A20261  35.302  25.227   7.955
 6952POPC   C4A20262  35.311  25.258   7.655
 6952POPC   C1B20263  35.600  25.393   8.555
 6952POPC   C2B20264  35.534  25.364   8.255
 6952POPC   C3B20265  35.612  25.416   7.955
 6952POPC   C4B20266  35.545  25.430   7.655
 6953POPC   NC320267  33.072   1.176   9.455
 6953POPC   PO420268  33.028   1.184   9.155
 6953POPC   GL120269  33.022   1.209   8.855
 6953POPC   GL220270  32.911   1.295   8.855
 6953POPC   C1A20271  33.058   1.181   8.555
 6953POPC   D2A20272  33.047   1.248   8.255
 6953POPC   C3A20273  32.976   1.194   7.955
 6953POPC   C4A20274  33.064   1.242   7.655
 6953POPC   C1B20275  32.792   1.332   8.555
 6953POPC   C2B20276  32.848   1.351   8.255
 6953POPC   C3B20277  32.821   1.383   7.955
 6953POPC   C4B20278  32.845   1.331   7.655
 6954POPC   NC320279   6.617  34.622   9.455
 6954POPC   PO420280   6.616  34.597   9.155
 6954POPC   GL120281   6.693  34.593   8.855
 6954POPC   GL220282   6.789  34.617   8.855
 6954POPC   C1A20283   6.683  34.587   8.555
 6954POPC   D2A20284   6.653  34.617   8.255
 6954POPC   C3A20285   6.635  34.533   7.955
 6954POPC   C4A20286   6.613  34.611   7.655
 6954POPC   C1B20287   6.864  34.752   8.555
 6954POPC   C2B20288   6.878  34.755   8.255
 6954POPC   C3B20289   6.864  34.714   7.955
 6954POPC   C4B20290   6.871  34.747   7.655
 6955POPC   NC320291  29.879  26.012   9.455
 6955POPC   PO420292  29.903  26.039   9.155
 6955POPC   GL120293  29.903  26.051   8.855
 6955POPC   GL220294  30.011  26.091   8.855
 6955POPC   C1A20295  29.955  26.031   8.555
 6955POPC   D2A20296  29.917  26.050   8.255
 6955POPC   C3A20297  29.935  25.992   7.955
 6955POPC   C4A20298  29.897  26.054   7.655
 6955POPC   C1B20299  30.184  26.081   8.555
 6955POPC   C2B20300  30.193  26.106   8.255
 6955POPC   C3B20301  30.168  26.052   7.955
 6955POPC   C4B20302  30.164  26.127   7.655
 6956POPC   NC320303  22.187  39.218   9.455
 6956POPC   PO420304  22.181  39.183   9.155
 6956POPC   GL120305  22.135  39.230   8.855
 6956POPC   GL220306  22.102  39.310   8.855
 6956POPC   C1A20307  22.145  39.261   8.555
 6956POPC   D2A20308  22.192  39.193   8.255
 6956POPC   C3A20309  22.171  39.203   7.955
 6956POPC   C4A20310  22.135  39.196   7.655
 6956POPC   C1B20311  22.054  39.432   8.555
 6956POPC   C2B20312  22.092  39.484   8.255
 6956POPC   C3B20313  22.104  39.510   7.955
 6956POPC   C4B20314  22.138  39.459   7.655
 6957POPC   NC320315   5.119  40.824   9.455
 6957POPC   PO420316   5.135  40.753   9.155
 6957POPC   GL120317   5.066  40.814   8.855
 6957POPC   GL220318   5.071  40.934   8.855
 6957POPC   C1A20319   5.139  40.811   8.555
 6957POPC   D2A20320   5.059  40.733   8.255
 6957POPC   C3A20321   5.071  40.788   7.955
 6957POPC   C4A20322   5.093  40.740   7.655
 6957POPC   C1B20323   5.111  41.065   8.555
 6957POPC   C2B20324   5.110  41.044   8.255
 6957POPC   C3B20325   5.181  40.980   7.955
 6957POPC   C4B20326   5.089  41.047   7.655
 6958POPC   NC320327  29.161  43.159   9.455
 6958POPC   PO420328  29.108  43.119   9.155
 6958POPC   GL120329  29.189  43.075   8.855
 6958POPC   GL220330  29.005  43.055   8.855
 6958POPC   C1A20331  29.098  43.083   8.555
 6958POPC   D2A20332  29.176  43.151   8.255
 6958POPC   C3A20333  29.191  43.146   7.955
 6958POPC   C4A20334  29.168  43.156   7.655
 6958POPC   C1B20335  28.993  42.933   8.555
 6958POPC   C2B20336  28.905  42.952   8.255
 6958POPC   C3B20337  28.951  42.916   7.955
 6958POPC   C4B20338  28.985  42.944   7.655
 6959POPC   NC320339  43.098   1.166   9.455
 6959POPC   PO420340  43.127   1.222   9.155
 6959POPC   GL120341  43.063   1.192   8.855
 6959POPC   GL220342  43.032   1.244   8.855
 6959POPC   C1A20343  43.160   1.237   8.555
 6959POPC   D2A20344  43.114   1.253   8.255
 6959POPC   C3A20345  43.109   1.237   7.955
 6959POPC   C4A20346  43.095   1.215   7.655
 6959POPC   C1B20347  42.897   1.203   8.555
 6959POPC   C2B20348  42.844   1.218   8.255
 6959POPC   C3B20349  42.832   1.183   7.955
 6959POPC   C4B20350  42.888   1.232   7.655
 6960POPC   NC320351   9.753   1.183   9.455
 6960POPC   PO420352   9.781   1.183   9.155
 6960POPC   GL120353   9.700   1.229   8.855
 6960POPC   GL220354   9.698   1.309   8.855
 6960POPC   C1A20355   9.761   1.192   8.555
 6960POPC   D2A20356   9.725   1.203   8.255
 6960POPC   C3A20357   9.798   1.255   7.955
 6960POPC   C4A20358   9.708   1.201   7.655
 6960POPC   C1B20359   9.565   1.446   8.555
 6960POPC   C2B20360   9.587   1.449   8.255
 6960POPC   C3B20361   9.631   1.371   7.955
 6960POPC   C4B20362   9.571   1.393   7.655
 6961POPC   NC320363  33.818  19.863   9.455
 6961POPC   PO420364  33.751  19.884   9.155
 6961POPC   GL120365  33.838  19.859   8.855
 6961POPC   GL220366  33.962  19.766   8.855
 6961POPC   C1A20367  33.820  19.823   8.555
 6961POPC   D2A20368  33.815  19.883   8.255
 6961POPC   C3A20369  33.823  19.819   7.955
 6961POPC   C4A20370  33.839  19.877   7.655
 6961POPC   C1B20371  34.024  19.781   8.555
 6961POPC   C2B20372  34.023  19.818   8.255
 6961POPC   C3B20373  34.004  19.742   7.955
 6961POPC   C4B20374  34.043  19.821   7.655
 6962POPC   NC320375  15.209  43.154   9.455
 6962POPC   PO420376  15.193  43.118   9.155
 6962POPC   GL120377  15.171  43.114   8.855
 6962POPC   GL220378  15.062  43.087   8.855
 6962POPC   C1A20379  15.143  43.065   8.555
 6962POPC   D2A20380  15.190  43.065   8.255
 6962POPC   C3A20381  15.154  43.122   7.955
 6962POPC   C4A20382  15.194  43.149   7.655
 6962POPC   C1B20383  14.913  43.059   8.555
 6962POPC   C2B20384  14.926  42.985   8.255
 6962POPC   C3B20385  14.979  43.035   7.955
 6962POPC   C4B20386  14.923  42.988   7.655
 6963POPC   NC320387   1.949  41.524   9.455
 6963POPC   PO420388   1.951  41.535   9.155
 6963POPC   GL120389   1.944  41.530   8.855
 6963POPC   GL220390   1.845  41.512   8.855
 6963POPC   C1A20391   1.988  41.597   8.555
 6963POPC   D2A20392   1.964  41.568   8.255
 6963POPC   C3A20393   1.961  41.513   7.955
 6963POPC   C4A20394   1.978  41.573   7.655
 6963POPC   C1B20395   1.806  41.467   8.555
 6963POPC   C2B20396   1.728  41.422   8.255
 6963POPC   C3B20397   1.797  41.458   7.955
 6963POPC   C4B20398   1.737  41.473   7.655
 6964POPC   NC320399   2.791   1.175   9.455
 6964POPC   PO420400   2.801   1.178   9.155
 6964POPC   GL120401   2.806   1.260   8.855
 6964POPC   GL220402   2.763   1.133   8.855
 6964POPC   C1A20403   2.775   1.258   8.555
 6964POPC   D2A20404   2.762   1.242   8.255
 6964POPC   C3A20405   2.808   1.175   7.955
 6964POPC   C4A20406   2.746   1.240   7.655
 6964POPC   C1B20407   2.782   1.000   8.555
 6964POPC   C2B20408   2.752   0.948   8.255
 6964POPC   C3B20409   2.798   1.000   7.955
 6964POPC   C4B20410   2.803   1.003   7.655
 6965POPC   NC320411  16.726  13.628   9.455
 6965POPC   PO420412  16.780  13.599   9.155
 6965POPC   GL120413  16.739  13.676   8.855
 6965POPC   GL220414  16.823  13.544   8.855
 6965POPC   C1A20415  16.778  13.592   8.555
 6965POPC   D2A20416  16.773  13.666   8.255
 6965POPC   C3A20417  16.705  13.582   7.955
 6965POPC   C4A20418  16.686  13.671   7.655
 6965POPC   C1B20419  17.007  13.520   8.555
 6965POPC   C2B20420  16.943  13.589   8.255
 6965POPC   C3B20421  16.942  13.566   7.955
 6965POPC   C4B20422  17.003  13.520   7.655
 6966POPC   NC320423  32.296   4.327   9.455
 6966POPC   PO420424  32.293   4.275   9.155
 6966POPC   GL120425  32.269   4.307   8.855
 6966POPC   GL220426  32.348   4.225   8.855
 6966POPC   C1A20427  32.206   4.319   8.555
 6966POPC   D2A20428  32.266   4.309   8.255
 6966POPC   C3A20429  32.241   4.299   7.955
 6966POPC   C4A20430  32.239   4.304   7.655
 6966POPC   C1B20431  32.469   4.141   8.555
 6966POPC   C2B20432  32.473   4.206   8.255
 6966POPC   C3B20433  32.450   4.134   7.955
 6966POPC   C4B20434  32.423   4.169   7.655
 6967POPC   NC320435  27.595  16.748   9.455
 6967POPC   PO420436  27.583  16.710   9.155
 6967POPC   GL120437  27.608  16.769   8.855
 6967POPC   GL220438  27.683  16.586   8.855
 6967POPC   C1A20439  27.597  16.731   8.555
 6967POPC   D2A20440  27.620  16.750   8.255
 6967POPC   C3A20441  27.574  16.685   7.955
 6967POPC   C4A20442  27.588  16.741   7.655
 6967POPC   C1B20443  27.735  16.511   8.555
 6967POPC   C2B20444  27.721  16.573   8.255
 6967POPC   C3B20445  27.770  16.522   7.955
 6967POPC   C4B20446  27.740  16.555   7.655
 6968POPC   NC320447   5.867  41.576   9.455
 6968POPC   PO420448   5.892  41.521   9.155
 6968POPC   GL120449   5.855  41.600   8.855
 6968POPC   GL220450   5.770  41.543   8.855
 6968POPC   C1A20451   5.856  41.590   8.555
 6968POPC   D2A20452   5.857  41.541   8.255
 6968POPC   C3A20453   5.835  41.596   7.955
 6968POPC   C4A20454   5.854  41.571   7.655
 6968POPC   C1B20455   5.660  41.490   8.555
 6968POPC   C2B20456   5.615  41.433   8.255
 6968POPC   C3B20457   5.645  41.448   7.955
 6968POPC   C4B20458   5.645  41.427   7.655
 6969POPC   NC320459  13.667   1.974   9.455
 6969POPC   PO420460  13.625   1.978   9.155
 6969POPC   GL120461  13.643   1.969   8.855
 6969POPC   GL220462  13.545   2.004   8.855
 6969POPC   C1A20463  13.647   1.974   8.555
 6969POPC   D2A20464  13.598   1.990   8.255
 6969POPC   C3A20465  13.602   2.039   7.955
 6969POPC   C4A20466  13.601   1.999   7.655
 6969POPC   C1B20467  13.339   1.924   8.555
 6969POPC   C2B20468  13.368   1.911   8.255
 6969POPC   C3B20469  13.408   1.954   7.955
 6969POPC   C4B20470  13.423   1.899   7.655
 6970POPC   NC320471   5.845  12.867   9.455
 6970POPC   PO420472   5.852  12.840   9.155
 6970POPC   GL120473   5.825  12.835   8.855
 6970POPC   GL220474   5.936  12.795   8.855
 6970POPC   C1A20475   5.859  12.827   8.555
 6970POPC   D2A20476   5.891  12.835   8.255
 6970POPC   C3A20477   5.854  12.834   7.955
 6970POPC   C4A20478   5.834  12.867   7.655
 6970POPC   C1B20479   6.121  12.790   8.555
 6970POPC   C2B20480   6.098  12.724   8.255
 6970POPC   C3B20481   6.053  12.788   7.955
 6970POPC   C4B20482   6.053  12.711   7.655
 6971POPC   NC320483  39.195  40.819   9.455
 6971POPC   PO420484  39.262  40.798   9.155
 6971POPC   GL120485  39.242  40.790   8.855
 6971POPC   GL220486  39.147  40.728   8.855
 6971POPC   C1A20487  39.234  40.829   8.555
 6971POPC   D2A20488  39.223  40.809   8.255
 6971POPC   C3A20489  39.253  40.780   7.955
 6971POPC   C4A20490  39.269  40.784   7.655
 6971POPC   C1B20491  39.065  40.622   8.555
 6971POPC   C2B20492  39.047  40.654   8.255
 6971POPC   C3B20493  39.055  40.649   7.955
 6971POPC   C4B20494  39.049  40.691   7.655
 6972POPC   NC320495   6.647  18.261   9.455
 6972POPC   PO420496   6.691  18.250   9.155
 6972POPC   GL120497   6.614  18.239   8.855
 6972POPC   GL220498   6.529  18.362   8.855
 6972POPC   C1A20499   6.692  18.242   8.555
 6972POPC   D2A20500   6.679  18.262   8.255
 6972POPC   C3A20501   6.644  18.316   7.955
 6972POPC   C4A20502   6.688  18.274   7.655
 6972POPC   C1B20503   6.507  18.417   8.555
 6972POPC   C2B20504   6.431  18.417   8.255
 6972POPC   C3B20505   6.502  18.459   7.955
 6972POPC   C4B20506   6.480  18.448   7.655
 6973POPC   NC320507  29.968  19.080   9.455
 6973POPC   PO420508  29.904  19.036   9.155
 6973POPC   GL120509  29.948  19.022   8.855
 6973POPC   GL220510  29.975  19.134   8.855
 6973POPC   C1A20511  29.928  19.107   8.555
 6973POPC   D2A20512  29.951  19.027   8.255
 6973POPC   C3A20513  29.896  19.034   7.955
 6973POPC   C4A20514  29.939  19.017   7.655
 6973POPC   C1B20515  30.071  19.273   8.555
 6973POPC   C2B20516  30.093  19.252   8.255
 6973POPC   C3B20517  30.044  19.282   7.955
 6973POPC   C4B20518  30.057  19.246   7.655
 6974POPC   NC320519  26.786  24.511   9.455
 6974POPC   PO420520  26.806  24.522   9.155
 6974POPC   GL120521  26.819  24.457   8.855
 6974POPC   GL220522  26.953  24.517   8.855
 6974POPC   C1A20523  26.813  24.469   8.555
 6974POPC   D2A20524  26.852  24.473   8.255
 6974POPC   C3A20525  26.839  24.532   7.955
 6974POPC   C4A20526  26.819  24.492   7.655
 6974POPC   C1B20527  27.012  24.557   8.555
 6974POPC   C2B20528  27.043  24.591   8.255
 6974POPC   C3B20529  27.108  24.564   7.955
 6974POPC   C4B20530  27.046  24.503   7.655
 6975POPC   NC320531  39.222  11.348   9.455
 6975POPC   PO420532  39.190  11.261   9.155
 6975POPC   GL120533  39.185  11.347   8.855
 6975POPC   GL220534  39.146  11.225   8.855
 6975POPC   C1A20535  39.184  11.284   8.555
 6975POPC   D2A20536  39.218  11.306   8.255
 6975POPC   C3A20537  39.214  11.298   7.955
 6975POPC   C4A20538  39.276  11.319   7.655
 6975POPC   C1B20539  38.988  11.190   8.555
 6975POPC   C2B20540  39.010  11.218   8.255
 6975POPC   C3B20541  39.038  11.149   7.955
 6975POPC   C4B20542  39.016  11.196   7.655
 6976POPC   NC320543   4.334  33.070   9.455
 6976POPC   PO420544   4.335  33.037   9.155
 6976POPC   GL120545   4.339  33.065   8.855
 6976POPC   GL220546   4.386  33.106   8.855
 6976POPC   C1A20547   4.330  32.977   8.555
 6976POPC   D2A20548   4.340  33.000   8.255
 6976POPC   C3A20549   4.323  33.043   7.955
 6976POPC   C4A20550   4.292  32.977   7.655
 6976POPC   C1B20551   4.537  33.239   8.555
 6976POPC   C2B20552   4.525  33.205   8.255
 6976POPC   C3B20553   4.533  33.245   7.955
 6976POPC   C4B20554   4.528  33.180   7.655
 6977POPC   NC320555   2.788  24.469   9.455
 6977POPC   PO420556   2.795  24.452   9.155
 6977POPC   GL120557   2.806  24.452   8.855
 6977POPC   GL220558   2.875  24.515   8.855
 6977POPC   C1A20559   2.789  24.523   8.555
 6977POPC   D2A20560   2.766  24.528   8.255
 6977POPC   C3A20561   2.809  24.465   7.955
 6977POPC   C4A20562   2.779  24.511   7.655
 6977POPC   C1B20563   3.028  24.451   8.555
 6977POPC   C2B20564   2.974  24.512   8.255
 6977POPC   C3B20565   3.019  24.454   7.955
 6977POPC   C4B20566   3.001  24.501   7.655
 6978POPC   NC320567  22.193   8.944   9.455
 6978POPC   PO420568  22.114   9.006   9.155
 6978POPC   GL120569  22.185   8.984   8.855
 6978POPC   GL220570  22.200   9.114   8.855
 6978POPC   C1A20571  22.198   8.938   8.555
 6978POPC   D2A20572  22.124   8.927   8.255
 6978POPC   C3A20573  22.164   8.966   7.955
 6978POPC   C4A20574  22.125   8.999   7.655
 6978POPC   C1B20575  22.231   9.191   8.555
 6978POPC   C2B20576  22.245   9.216   8.255
 6978POPC   C3B20577  22.255   9.169   7.955
 6978POPC   C4B20578  22.280   9.155   7.655
 6979POPC   NC320579  27.576  15.167   9.455
 6979POPC   PO420580  27.626  15.139   9.155
 6979POPC   GL120581  27.576  15.160   8.855
 6979POPC   GL220582  27.555  15.285   8.855
 6979POPC   C1A20583  27.555  15.187   8.555
 6979POPC   D2A20584  27.576  15.194   8.255
 6979POPC   C3A20585  27.544  15.139   7.955
 6979POPC   C4A20586  27.626  15.157   7.655
 6979POPC   C1B20587  27.474  15.369   8.555
 6979POPC   C2B20588  27.480  15.374   8.255
 6979POPC   C3B20589  27.417  15.391   7.955
 6979POPC   C4B20590  27.446  15.414   7.655
 6980POPC   NC320591   5.099   2.016   9.455
 6980POPC   PO420592   5.103   2.030   9.155
 6980POPC   GL120593   5.084   2.015   8.855
 6980POPC   GL220594   5.187   1.920   8.855
 6980POPC   C1A20595   5.113   1.946   8.555
 6980POPC   D2A20596   5.058   1.952   8.255
 6980POPC   C3A20597   5.045   1.972   7.955
 6980POPC   C4A20598   5.118   2.034   7.655
 6980POPC   C1B20599   5.363   1.906   8.555
 6980POPC   C2B20600   5.290   1.871   8.255
 6980POPC   C3B20601   5.304   1.874   7.955
 6980POPC   C4B20602   5.315   1.868   7.655
 6981POPC   NC320603   9.739  39.192   9.455
 6981POPC   PO420604   9.718  39.230   9.155
 6981POPC   GL120605   9.788  39.195   8.855
 6981POPC   GL220606   9.853  39.093   8.855
 6981POPC   C1A20607   9.742  39.269   8.555
 6981POPC   D2A20608   9.761  39.192   8.255
 6981POPC   C3A20609   9.798  39.190   7.955
 6981POPC   C4A20610   9.749  39.279   7.655
 6981POPC   C1B20611   9.852  38.989   8.555
 6981POPC   C2B20612   9.879  38.978   8.255
 6981POPC   C3B20613   9.925  39.031   7.955
 6981POPC   C4B20614   9.924  39.031   7.655
 6982POPC   NC320615   2.722   9.734   9.455
 6982POPC   PO420616   2.743   9.730   9.155
 6982POPC   GL120617   2.756   9.715   8.855
 6982POPC   GL220618   2.725   9.859   8.855
 6982POPC   C1A20619   2.762   9.729   8.555
 6982POPC   D2A20620   2.770   9.798   8.255
 6982POPC   C3A20621   2.719   9.723   7.955
 6982POPC   C4A20622   2.800   9.752   7.655
 6982POPC   C1B20623   2.753   9.998   8.555
 6982POPC   C2B20624   2.699   9.976   8.255
 6982POPC   C3B20625   2.755  10.010   7.955
 6982POPC   C4B20626   2.722  10.005   7.655
 6983POPC   NC320627  19.100  43.840   9.455
 6983POPC   PO420628  19.013  43.923   9.155
 6983POPC   GL120629  19.048  43.841   8.855
 6983POPC   GL220630  19.036  43.751   8.855
 6983POPC   C1A20631  19.065  43.876   8.555
 6983POPC   D2A20632  19.031  43.849   8.255
 6983POPC   C3A20633  19.034  43.885   7.955
 6983POPC   C4A20634  19.107  43.869   7.655
 6983POPC   C1B20635  18.998  43.700   8.555
 6983POPC   C2B20636  18.909  43.650   8.255
 6983POPC   C3B20637  18.975  43.654   7.955
 6983POPC   C4B20638  18.975  43.687   7.655
 6984POPC   NC320639  32.238  13.666   9.455
 6984POPC   PO420640  32.279  13.614   9.155
 6984POPC   GL120641  32.240  13.627   8.855
 6984POPC   GL220642  32.147  13.534   8.855
 6984POPC   C1A20643  32.263  13.628   8.555
 6984POPC   D2A20644  32.236  13.611   8.255
 6984POPC   C3A20645  32.291  13.580   7.955
 6984POPC   C4A20646  32.266  13.610   7.655
 6984POPC   C1B20647  32.080  13.411   8.555
 6984POPC   C2B20648  32.146  13.410   8.255
 6984POPC   C3B20649  32.139  13.447   7.955
 6984POPC   C4B20650  32.090  13.405   7.655
 6985POPC   NC320651   6.682  36.160   9.455
 6985POPC   PO420652   6.626  36.112   9.155
 6985POPC   GL120653   6.676  36.092   8.855
 6985POPC   GL220654   6.810  36.098   8.855
 6985POPC   C1A20655   6.645  36.090   8.555
 6985POPC   D2A20656   6.677  36.163   8.255
 6985POPC   C3A20657   6.671  36.093   7.955
 6985POPC   C4A20658   6.688  36.149   7.655
 6985POPC   C1B20659   6.930  36.155   8.555
 6985POPC   C2B20660   6.900  36.105   8.255
 6985POPC   C3B20661   6.884  36.150   7.955
 6985POPC   C4B20662   6.935  36.141   7.655
 6986POPC   NC320663  33.049  36.916   9.455
 6986POPC   PO420664  33.056  36.929   9.155
 6986POPC   GL120665  32.993  36.894   8.855
 6986POPC   GL220666  32.922  36.900   8.855
 6986POPC   C1A20667  33.065  36.900   8.555
 6986POPC   D2A20668  33.065  36.936   8.255
 6986POPC   C3A20669  33.014  36.862   7.955
 6986POPC   C4A20670  33.073  36.942   7.655
 6986POPC   C1B20671  32.798  36.880   8.555
 6986POPC   C2B20672  32.780  36.929   8.255
 6986POPC   C3B20673  32.737  36.916   7.955
 6986POPC   C4B20674  32.739  36.873   7.655
 6987POPC   NC320675  28.400  30.662   9.455
 6987POPC   PO420676  28.402  30.695   9.155
 6987POPC   GL120677  28.389  30.653   8.855
 6987POPC   GL220678  28.462  30.751   8.855
 6987POPC   C1A20679  28.323  30.746   8.555
 6987POPC   D2A20680  28.394  30.728   8.255
 6987POPC   C3A20681  28.419  30.657   7.955
 6987POPC   C4A20682  28.369  30.654   7.655
 6987POPC   C1B20683  28.650  30.734   8.555
 6987POPC   C2B20684  28.625  30.664   8.255
 6987POPC   C3B20685  28.636  30.742   7.955
 6987POPC   C4B20686  28.657  30.711   7.655
 6988POPC   NC320687  29.945  43.893   9.455
 6988POPC   PO420688  29.930  43.876   9.155
 6988POPC   GL120689  29.963  43.921   8.855
 6988POPC   GL220690  29.827  43.859   8.855
 6988POPC   C1A20691  29.900  43.909   8.555
 6988POPC   D2A20692  29.920  43.929   8.255
 6988POPC   C3A20693  29.958  43.842   7.955
 6988POPC   C4A20694  29.906  43.842   7.655
 6988POPC   C1B20695  29.712  43.787   8.555
 6988POPC   C2B20696  29.711  43.810   8.255
 6988POPC   C3B20697  29.664  43.793   7.955
 6988POPC   C4B20698  29.649  43.792   7.655
 6989POPC   NC320699  34.558  26.848   9.455
 6989POPC   PO420700  34.616  26.813   9.155
 6989POPC   GL120701  34.555  26.792   8.855
 6989POPC   GL220702  34.726  26.846   8.855
 6989POPC   C1A20703  34.606  26.795   8.555
 6989POPC   D2A20704  34.586  26.842   8.255
 6989POPC   C3A20705  34.583  26.813   7.955
 6989POPC   C4A20706  34.583  26.816   7.655
 6989POPC   C1B20707  34.811  26.824   8.555
 6989POPC   C2B20708  34.817  26.847   8.255
 6989POPC   C3B20709  34.825  26.847   7.955
 6989POPC   C4B20710  34.819  26.816   7.655
 6990POPC   NC320711  15.190  30.668   9.455
 6990POPC   PO420712  15.140  30.662   9.155
 6990POPC   GL120713  15.204  30.720   8.855
 6990POPC   GL220714  15.047  30.749   8.855
 6990POPC   C1A20715  15.156  30.669   8.555
 6990POPC   D2A20716  15.161  30.720   8.255
 6990POPC   C3A20717  15.191  30.673   7.955
 6990POPC   C4A20718  15.176  30.745   7.655
 6990POPC   C1B20719  14.902  30.712   8.555
 6990POPC   C2B20720  14.977  30.757   8.255
 6990POPC   C3B20721  14.893  30.754   7.955
 6990POPC   C4B20722  14.980  30.770   7.655
 6991POPC   NC320723   1.164  42.299   9.455
 6991POPC   PO420724   1.192  42.329   9.155
 6991POPC   GL120725   1.221  42.356   8.855
 6991POPC   GL220726   1.137  42.326   8.855
 6991POPC   C1A20727   1.249  42.320   8.555
 6991POPC   D2A20728   1.187  42.383   8.255
 6991POPC   C3A20729   1.194  42.312   7.955
 6991POPC   C4A20730   1.263  42.366   7.655
 6991POPC   C1B20731   0.990  42.455   8.555
 6991POPC   C2B20732   0.946  42.370   8.255
 6991POPC   C3B20733   0.980  42.423   7.955
 6991POPC   C4B20734   0.977  42.387   7.655
 6992POPC   NC320735  33.844  15.911   9.455
 6992POPC   PO420736  33.751  15.958   9.155
 6992POPC   GL120737  33.753  15.986   8.855
 6992POPC   GL220738  33.681  15.900   8.855
 6992POPC   C1A20739  33.761  15.967   8.555
 6992POPC   D2A20740  33.832  15.999   8.255
 6992POPC   C3A20741  33.807  15.996   7.955
 6992POPC   C4A20742  33.790  15.949   7.655
 6992POPC   C1B20743  33.634  15.801   8.555
 6992POPC   C2B20744  33.611  15.829   8.255
 6992POPC   C3B20745  33.634  15.766   7.955
 6992POPC   C4B20746  33.639  15.768   7.655
 6993POPC   NC320747  23.730  24.539   9.455
 6993POPC   PO420748  23.739  24.499   9.155
 6993POPC   GL120749  23.687  24.515   8.855
 6993POPC   GL220750  23.557  24.501   8.855
 6993POPC   C1A20751  23.696  24.521   8.555
 6993POPC   D2A20752  23.666  24.508   8.255
 6993POPC   C3A20753  23.727  24.509   7.955
 6993POPC   C4A20754  23.755  24.485   7.655
 6993POPC   C1B20755  23.513  24.450   8.555
 6993POPC   C2B20756  23.425  24.465   8.255
 6993POPC   C3B20757  23.489  24.447   7.955
 6993POPC   C4B20758  23.455  24.431   7.655
 6994POPC   NC320759  11.288  15.910   9.455
 6994POPC   PO420760  11.258  15.949   9.155
 6994POPC   GL120761  11.270  15.945   8.855
 6994POPC   GL220762  11.394  16.055   8.855
 6994POPC   C1A20763  11.255  15.916   8.555
 6994POPC   D2A20764  11.323  15.952   8.255
 6994POPC   C3A20765  11.252  15.967   7.955
 6994POPC   C4A20766  11.305  15.923   7.655
 6994POPC   C1B20767  11.524  16.152   8.555
 6994POPC   C2B20768  11.519  16.092   8.255
 6994POPC   C3B20769  11.475  16.157   7.955
 6994POPC   C4B20770  11.511  16.129   7.655
 6995POPC   NC320771  12.893  42.300   9.455
 6995POPC   PO420772  12.840  42.370   9.155
 6995POPC   GL120773  12.870  42.308   8.855
 6995POPC   GL220774  13.006  42.319   8.855
 6995POPC   C1A20775  12.895  42.367   8.555
 6995POPC   D2A20776  12.813  42.318   8.255
 6995POPC   C3A20777  12.895  42.381   7.955
 6995POPC   C4A20778  12.843  42.356   7.655
 6995POPC   C1B20779  13.077  42.256   8.555
 6995POPC   C2B20780  13.107  42.271   8.255
 6995POPC   C3B20781  13.065  42.336   7.955
 6995POPC   C4B20782  13.081  42.306   7.655
 6996POPC   NC320783  19.032  38.442   9.455
 6996POPC   PO420784  19.030  38.497   9.155
 6996POPC   GL120785  19.019  38.503   8.855
 6996POPC   GL220786  19.228  38.402   8.855
 6996POPC   C1A20787  19.096  38.406   8.555
 6996POPC   D2A20788  19.031  38.416   8.255
 6996POPC   C3A20789  19.100  38.453   7.955
 6996POPC   C4A20790  19.028  38.419   7.655
 6996POPC   C1B20791  19.302  38.365   8.555
 6996POPC   C2B20792  19.289  38.377   8.255
 6996POPC   C3B20793  19.352  38.368   7.955
 6996POPC   C4B20794  19.291  38.380   7.655
 6997POPC   NC320795  13.629  36.155   9.455
 6997POPC   PO420796  13.622  36.088   9.155
 6997POPC   GL120797  13.639  36.168   8.855
 6997POPC   GL220798  13.768  36.084   8.855
 6997POPC   C1A20799  13.650  36.095   8.555
 6997POPC   D2A20800  13.671  36.173   8.255
 6997POPC   C3A20801  13.597  36.112   7.955
 6997POPC   C4A20802  13.632  36.176   7.655
 6997POPC   C1B20803  13.818  35.978   8.555
 6997POPC   C2B20804  13.839  36.032   8.255
 6997POPC   C3B20805  13.847  36.041   7.955
 6997POPC   C4B20806  13.855  35.992   7.655
 6998POPC   NC320807   3.581  40.013   9.455
 6998POPC   PO420808   3.533  40.026   9.155
 6998POPC   GL120809   3.545  40.017   8.855
 6998POPC   GL220810   3.461  40.080   8.855
 6998POPC   C1A20811   3.519  39.978   8.555
 6998POPC   D2A20812   3.526  40.038   8.255
 6998POPC   C3A20813   3.591  39.999   7.955
 6998POPC   C4A20814   3.583  40.019   7.655
 6998POPC   C1B20815   3.331  40.030   8.555
 6998POPC   C2B20816   3.259  40.076   8.255
 6998POPC   C3B20817   3.264  40.053   7.955
 6998POPC   C4B20818   3.347  40.099   7.655
 6999POPC   NC320819   5.070   2.740   9.455
 6999POPC   PO420820   5.057   2.812   9.155
 6999POPC   GL120821   5.074   2.727   8.855
 6999POPC   GL220822   5.013   2.662   8.855
 6999POPC   C1A20823   5.135   2.759   8.555
 6999POPC   D2A20824   5.102   2.801   8.255
 6999POPC   C3A20825   5.109   2.798   7.955
 6999POPC   C4A20826   5.058   2.807   7.655
 6999POPC   C1B20827   4.828   2.698   8.555
 6999POPC   C2B20828   4.842   2.668   8.255
 6999POPC   C3B20829   4.877   2.695   7.955
 6999POPC   C4B20830   4.879   2.605   7.655
 7000POPC   NC320831  32.239   5.843   9.455
 7000POPC   PO420832  32.272   5.917   9.155
 7000POPC   GL120833  32.229   5.823   8.855
 7000POPC   GL220834  32.250   5.729   8.855
 7000POPC   C1A20835  32.250   5.891   8.555
 7000POPC   D2A20836  32.215   5.828   8.255
 7000POPC   C3A20837  32.255   5.901   7.955
 7000POPC   C4A20838  32.259   5.836   7.655
 7000POPC   C1B20839  32.205   5.667   8.555
 7000POPC   C2B20840  32.215   5.659   8.255
 7000POPC   C3B20841  32.227   5.659   7.955
 7000POPC   C4B20842  32.194   5.600   7.655
 7001POPC   NC320843   0.434  35.395   9.455
 7001POPC   PO420844   0.417  35.370   9.155
 7001POPC   GL120845   0.395  35.349   8.855
 7001POPC   GL220846   0.339  35.412   8.855
 7001POPC   C1A20847   0.452  35.355   8.555
 7001POPC   D2A20848   0.447  35.363   8.255
 7001POPC   C3A20849   0.467  35.399   7.955
 7001POPC   C4A20850   0.487  35.371   7.655
 7001POPC   C1B20851   0.236  35.517   8.555
 7001POPC   C2B20852   0.255  35.513   8.255
 7001POPC   C3B20853   0.233  35.474   7.955
 7001POPC   C4B20854   0.233  35.498   7.655
 7002POPC   NC320855  25.285  36.919   9.455
 7002POPC   PO420856  25.234  36.940   9.155
 7002POPC   GL120857  25.304  36.936   8.855
 7002POPC   GL220858  25.397  36.935   8.855
 7002POPC   C1A20859  25.252  36.920   8.555
 7002POPC   D2A20860  25.291  36.867   8.255
 7002POPC   C3A20861  25.273  36.854   7.955
 7002POPC   C4A20862  25.312  36.890   7.655
 7002POPC   C1B20863  25.541  36.977   8.555
 7002POPC   C2B20864  25.476  36.991   8.255
 7002POPC   C3B20865  25.538  36.946   7.955
 7002POPC   C4B20866  25.484  36.989   7.655
 7003POPC   NC320867  26.796  21.340   9.455
 7003POPC   PO420868  26.859  21.405   9.155
 7003POPC   GL120869  26.833  21.404   8.855
 7003POPC   GL220870  26.738  21.252   8.855
 7003POPC   C1A20871  26.814  21.376   8.555
 7003POPC   D2A20872  26.798  21.398   8.255
 7003POPC   C3A20873  26.795  21.368   7.955
 7003POPC   C4A20874  26.837  21.397   7.655
 7003POPC   C1B20875  26.747  21.158   8.555
 7003POPC   C2B20876  26.750  21.160   8.255
 7003POPC   C3B20877  26.768  21.123   7.955
 7003POPC   C4B20878  26.698  21.131   7.655
 7004POPC   NC320879  12.108  32.992   9.455
 7004POPC   PO420880  12.063  33.037   9.155
 7004POPC   GL120881  12.081  33.024   8.855
 7004POPC   GL220882  12.183  32.978   8.855
 7004POPC   C1A20883  12.114  32.983   8.555
 7004POPC   D2A20884  12.028  33.006   8.255
 7004POPC   C3A20885  12.101  32.989   7.955
 7004POPC   C4A20886  12.118  33.004   7.655
 7004POPC   C1B20887  12.304  32.878   8.555
 7004POPC   C2B20888  12.342  32.889   8.255
 7004POPC   C3B20889  12.289  32.964   7.955
 7004POPC   C4B20890  12.290  32.902   7.655
 7005POPC   NC320891   9.753  36.926   9.455
 7005POPC   PO420892   9.732  36.915   9.155
 7005POPC   GL120893   9.734  36.893   8.855
 7005POPC   GL220894   9.800  36.972   8.855
 7005POPC   C1A20895   9.753  36.916   8.555
 7005POPC   D2A20896   9.778  36.937   8.255
 7005POPC   C3A20897   9.712  36.890   7.955
 7005POPC   C4A20898   9.750  36.919   7.655
 7005POPC   C1B20899   9.857  37.151   8.555
 7005POPC   C2B20900   9.884  37.104   8.255
 7005POPC   C3B20901   9.872  37.135   7.955
 7005POPC   C4B20902   9.869  37.094   7.655
 7006POPC   NC320903   0.437   1.983   9.455
 7006POPC   PO420904   0.399   1.961   9.155
 7006POPC   GL120905   0.405   1.975   8.855
 7006POPC   GL220906   0.506   1.921   8.855
 7006POPC   C1A20907   0.475   2.010   8.555
 7006POPC   D2A20908   0.454   1.999   8.255
 7006POPC   C3A20909   0.436   1.965   7.955
 7006POPC   C4A20910   0.480   2.004   7.655
 7006POPC   C1B20911   0.560   1.792   8.555
 7006POPC   C2B20912   0.598   1.821   8.255
 7006POPC   C3B20913   0.628   1.773   7.955
 7006POPC   C4B20914   0.586   1.770   7.655
 7007POPC   NC320915   9.004  24.486   9.455
 7007POPC   PO420916   8.959  24.510   9.155
 7007POPC   GL120917   8.962  24.478   8.855
 7007POPC   GL220918   8.873  24.575   8.855
 7007POPC   C1A20919   8.970  24.537   8.555
 7007POPC   D2A20920   8.990  24.506   8.255
 7007POPC   C3A20921   9.021  24.448   7.955
 7007POPC   C4A20922   8.942  24.448   7.655
 7007POPC   C1B20923   8.874  24.753   8.555
 7007POPC   C2B20924   8.843  24.716   8.255
 7007POPC   C3B20925   8.918  24.743   7.955
 7007POPC   C4B20926   8.862  24.676   7.655
 7008POPC   NC320927   0.424  37.674   9.455
 7008POPC   PO420928   0.405  37.661   9.155
 7008POPC   GL120929   0.411  37.649   8.855
 7008POPC   GL220930   0.586  37.676   8.855
 7008POPC   C1A20931   0.451  37.700   8.555
 7008POPC   D2A20932   0.444  37.666   8.255
 7008POPC   C3A20933   0.397  37.700   7.955
 7008POPC   C4A20934   0.453  37.634   7.655
 7008POPC   C1B20935   0.675  37.670   8.555
 7008POPC   C2B20936   0.710  37.656   8.255
 7008POPC   C3B20937   0.707  37.658   7.955
 7008POPC   C4B20938   0.701  37.640   7.655
 7009POPC   NC320939  25.305  26.860   9.455
 7009POPC   PO420940  25.231  26.793   9.155
 7009POPC   GL120941  25.295  26.793   8.855
 7009POPC   GL220942  25.384  26.939   8.855
 7009POPC   C1A20943  25.255  26.798   8.555
 7009POPC   D2A20944  25.274  26.859   8.255
 7009POPC   C3A20945  25.309  26.802   7.955
 7009POPC   C4A20946  25.297  26.838   7.655
 7009POPC   C1B20947  25.511  26.946   8.555
 7009POPC   C2B20948  25.455  26.938   8.255
 7009POPC   C3B20949  25.486  26.996   7.955
 7009POPC   C4B20950  25.432  26.952   7.655
 7010POPC   NC320951  25.225  22.185   9.455
 7010POPC   PO420952  25.236  22.121   9.155
 7010POPC   GL120953  25.278  22.119   8.855
 7010POPC   GL220954  25.194  22.298   8.855
 7010POPC   C1A20955  25.254  22.165   8.555
 7010POPC   D2A20956  25.275  22.166   8.255
 7010POPC   C3A20957  25.235  22.193   7.955
 7010POPC   C4A20958  25.247  22.132   7.655
 7010POPC   C1B20959  25.176  22.444   8.555
 7010POPC   C2B20960  25.174  22.403   8.255
 7010POPC   C3B20961  25.217  22.412   7.955
 7010POPC   C4B20962  25.225  22.406   7.655
 7011POPC   NC320963  28.406  19.036   9.455
 7011POPC   PO420964  28.339  19.047   9.155
 7011POPC   GL120965  28.360  19.080   8.855
 7011POPC   GL220966  28.404  19.005   8.855
 7011POPC   C1A20967  28.341  19.064   8.555
 7011POPC   D2A20968  28.350  19.082   8.255
 7011POPC   C3A20969  28.366  19.009   7.955
 7011POPC   C4A20970  28.390  19.098   7.655
 7011POPC   C1B20971  28.560  18.858   8.555
 7011POPC   C2B20972  28.543  18.916   8.255
 7011POPC   C3B20973  28.555  18.826   7.955
 7011POPC   C4B20974  28.588  18.858   7.655
 7012POPC   NC320975  33.792  34.551   9.455
 7012POPC   PO420976  33.779  34.608   9.155
 7012POPC   GL120977  33.793  34.585   8.855
 7012POPC   GL220978  33.845  34.709   8.855
 7012POPC   C1A20979  33.813  34.613   8.555
 7012POPC   D2A20980  33.792  34.596   8.255
 7012POPC   C3A20981  33.849  34.534   7.955
 7012POPC   C4A20982  33.833  34.607   7.655
 7012POPC   C1B20983  33.920  34.777   8.555
 7012POPC   C2B20984  33.949  34.756   8.255
 7012POPC   C3B20985  33.937  34.832   7.955
 7012POPC   C4B20986  33.913  34.740   7.655
 7013POPC   NC320987   4.348  42.301   9.455
 7013POPC   PO420988   4.298  42.304   9.155
 7013POPC   GL120989   4.367  42.307   8.855
 7013POPC   GL220990   4.370  42.235   8.855
 7013POPC   C1A20991   4.336  42.370   8.555
 7013POPC   D2A20992   4.351  42.335   8.255
 7013POPC   C3A20993   4.286  42.369   7.955
 7013POPC   C4A20994   4.304  42.327   7.655
 7013POPC   C1B20995   4.349  42.078   8.555
 7013POPC   C2B20996   4.370  42.098   8.255
 7013POPC   C3B20997   4.357  42.088   7.955
 7013POPC   C4B20998   4.407  42.048   7.655
 7014POPC   NC320999  26.866  41.580   9.455
 7014POPC   PO421000  26.797  41.537   9.155
 7014POPC   GL121001  26.840  41.566   8.855
 7014POPC   GL221002  26.647  41.525   8.855
 7014POPC   C1A21003  26.778  41.521   8.555
 7014POPC   D2A21004  26.776  41.545   8.255
 7014POPC   C3A21005  26.817  41.603   7.955
 7014POPC   C4A21006  26.860  41.546   7.655
 7014POPC   C1B21007  26.530  41.515   8.555
 7014POPC   C2B21008  26.567  41.495   8.255
 7014POPC   C3B21009  26.531  41.534   7.955
 7014POPC   C4B21010  26.552  41.490   7.655
 7015POPC   NC321011  25.229  19.068   9.455
 7015POPC   PO421012  25.245  19.036   9.155
 7015POPC   GL121013  25.228  19.027   8.855
 7015POPC   GL221014  25.391  19.033   8.855
 7015POPC   C1A21015  25.253  19.040   8.555
 7015POPC   D2A21016  25.286  19.106   8.255
 7015POPC   C3A21017  25.228  19.075   7.955
 7015POPC   C4A21018  25.277  19.057   7.655
 7015POPC   C1B21019  25.502  18.933   8.555
 7015POPC   C2B21020  25.514  18.906   8.255
 7015POPC   C3B21021  25.500  18.930   7.955
 7015POPC   C4B21022  25.515  18.993   7.655
 7016POPC   NC321023   8.967  29.132   9.455
 7016POPC   PO421024   8.979  29.160   9.155
 7016POPC   GL121025   8.924  29.165   8.855
 7016POPC   GL221026   8.908  29.048   8.855
 7016POPC   C1A21027   9.017  29.165   8.555
 7016POPC   D2A21028   8.965  29.167   8.255
 7016POPC   C3A21029   8.930  29.098   7.955
 7016POPC   C4A21030   8.954  29.164   7.655
 7016POPC   C1B21031   8.796  28.996   8.555
 7016POPC   C2B21032   8.736  29.081   8.255
 7016POPC   C3B21033   8.784  29.010   7.955
 7016POPC   C4B21034   8.741  29.054   7.655
 7017POPC   NC321035  43.132  42.352   9.455
 7017POPC   PO421036  43.068  42.320   9.155
 7017POPC   GL121037  43.139  42.317   8.855
 7017POPC   GL221038  43.032  42.424   8.855
 7017POPC   C1A21039  43.102  42.349   8.555
 7017POPC   D2A21040  43.137  42.299   8.255
 7017POPC   C3A21041  43.102  42.294   7.955
 7017POPC   C4A21042  43.092  42.373   7.655
 7017POPC   C1B21043  43.003  42.602   8.555
 7017POPC   C2B21044  43.045  42.592   8.255
 7017POPC   C3B21045  43.017  42.544   7.955
 7017POPC   C4B21046  43.081  42.611   7.655
 7018POPC   NC321047   6.680  37.635   9.455
 7018POPC   PO421048   6.595  37.729   9.155
 7018POPC   GL121049   6.693  37.679   8.855
 7018POPC   GL221050   6.527  37.722   8.855
 7018POPC   C1A21051   6.661  37.727   8.555
 7018POPC   D2A21052   6.624  37.668   8.255
 7018POPC   C3A21053   6.682  37.690   7.955
 7018POPC   C4A21054   6.617  37.663   7.655
 7018POPC   C1B21055   6.411  37.755   8.555
 7018POPC   C2B21056   6.433  37.772   8.255
 7018POPC   C3B21057   6.459  37.844   7.955
 7018POPC   C4B21058   6.462  37.853   7.655
 7019POPC   NC321059   5.139  39.255   9.455
 7019POPC   PO421060   5.093  39.229   9.155
 7019POPC   GL121061   5.076  39.278   8.855
 7019POPC   GL221062   5.159  39.301   8.855
 7019POPC   C1A21063   5.044  39.252   8.555
 7019POPC   D2A21064   5.075  39.257   8.255
 7019POPC   C3A21065   5.068  39.194   7.955
 7019POPC   C4A21066   5.096  39.196   7.655
 7019POPC   C1B21067   5.339  39.398   8.555
 7019POPC   C2B21068   5.343  39.356   8.255
 7019POPC   C3B21069   5.309  39.329   7.955
 7019POPC   C4B21070   5.270  39.350   7.655
 7020POPC   NC321071  29.175  39.244   9.455
 7020POPC   PO421072  29.156  39.269   9.155
 7020POPC   GL121073  29.125  39.234   8.855
 7020POPC   GL221074  28.973  39.204   8.855
 7020POPC   C1A21075  29.099  39.235   8.555
 7020POPC   D2A21076  29.105  39.196   8.255
 7020POPC   C3A21077  29.156  39.274   7.955
 7020POPC   C4A21078  29.195  39.229   7.655
 7020POPC   C1B21079  28.915  39.259   8.555
 7020POPC   C2B21080  28.854  39.248   8.255
 7020POPC   C3B21081  28.887  39.287   7.955
 7020POPC   C4B21082  28.927  39.282   7.655
 7021POPC   NC321083   1.230  15.981   9.455
 7021POPC   PO421084   1.194  15.999   9.155
 7021POPC   GL121085   1.225  15.928   8.855
 7021POPC   GL221086   1.335  15.907   8.855
 7021POPC   C1A21087   1.176  15.951   8.555
 7021POPC   D2A21088   1.255  15.974   8.255
 7021POPC   C3A21089   1.183  15.940   7.955
 7021POPC   C4A21090   1.231  15.935   7.655
 7021POPC   C1B21091   1.486  15.934   8.555
 7021POPC   C2B21092   1.474  15.926   8.255
 7021POPC   C3B21093   1.488  15.904   7.955
 7021POPC   C4B21094   1.490  15.973   7.655
 7022POPC   NC321095  29.922   5.841   9.455
 7022POPC   PO421096  29.896   5.841   9.155
 7022POPC   GL121097  29.939   5.884   8.855
 7022POPC   GL221098  29.902   6.009   8.855
 7022POPC   C1A21099  29.944   5.914   8.555
 7022POPC   D2A21100  29.875   5.837   8.255
 7022POPC   C3A21101  29.953   5.866   7.955
 7022POPC   C4A21102  29.927   5.893   7.655
 7022POPC   C1B21103  29.844   6.054   8.555
 7022POPC   C2B21104  29.809   6.100   8.255
 7022POPC   C3B21105  29.788   6.102   7.955
 7022POPC   C4B21106  29.764   6.057   7.655
 7023POPC   NC321107  24.469  22.909   9.455
 7023POPC   PO421108  24.493  22.976   9.155
 7023POPC   GL121109  24.511  22.937   8.855
 7023POPC   GL221110  24.519  22.988   8.855
 7023POPC   C1A21111  24.449  22.894   8.555
 7023POPC   D2A21112  24.527  22.970   8.255
 7023POPC   C3A21113  24.460  22.958   7.955
 7023POPC   C4A21114  24.473  22.895   7.655
 7023POPC   C1B21115  24.596  23.121   8.555
 7023POPC   C2B21116  24.615  23.181   8.255
 7023POPC   C3B21117  24.596  23.118   7.955
 7023POPC   C4B21118  24.597  23.093   7.655
 7024POPC   NC321119  29.121  33.772   9.455
 7024POPC   PO421120  29.111  33.811   9.155
 7024POPC   GL121121  29.158  33.816   8.855
 7024POPC   GL221122  29.108  33.667   8.855
 7024POPC   C1A21123  29.117  33.796   8.555
 7024POPC   D2A21124  29.158  33.831   8.255
 7024POPC   C3A21125  29.143  33.810   7.955
 7024POPC   C4A21126  29.113  33.847   7.655
 7024POPC   C1B21127  28.988  33.594   8.555
 7024POPC   C2B21128  28.930  33.570   8.255
 7024POPC   C3B21129  28.966  33.611   7.955
 7024POPC   C4B21130  28.963  33.566   7.655
 7025POPC   NC321131  37.703   0.483   9.455
 7025POPC   PO421132  37.720   0.448   9.155
 7025POPC   GL121133  37.693   0.462   8.855
 7025POPC   GL221134  37.537   0.412   8.855
 7025POPC   C1A21135  37.681   0.469   8.555
 7025POPC   D2A21136  37.636   0.400   8.255
 7025POPC   C3A21137  37.693   0.422   7.955
 7025POPC   C4A21138  37.688   0.398   7.655
 7025POPC   C1B21139  37.529   0.334   8.555
 7025POPC   C2B21140  37.517   0.322   8.255
 7025POPC   C3B21141  37.444   0.316   7.955
 7025POPC   C4B21142  37.464   0.280   7.655
 7026POPC   NC321143  21.370  28.396   9.455
 7026POPC   PO421144  21.404  28.351   9.155
 7026POPC   GL121145  21.350  28.392   8.855
 7026POPC   GL221146  21.383  28.537   8.855
 7026POPC   C1A21147  21.342  28.324   8.555
 7026POPC   D2A21148  21.410  28.321   8.255
 7026POPC   C3A21149  21.388  28.387   7.955
 7026POPC   C4A21150  21.379  28.381   7.655
 7026POPC   C1B21151  21.502  28.619   8.555
 7026POPC   C2B21152  21.466  28.601   8.255
 7026POPC   C3B21153  21.469  28.621   7.955
 7026POPC   C4B21154  21.478  28.615   7.655
 7027POPC   NC321155  33.766  25.258   9.455
 7027POPC   PO421156  33.776  25.291   9.155
 7027POPC   GL121157  33.816  25.223   8.855
 7027POPC   GL221158  33.815  25.354   8.855
 7027POPC   C1A21159  33.773  25.264   8.555
 7027POPC   D2A21160  33.752  25.304   8.255
 7027POPC   C3A21161  33.777  25.242   7.955
 7027POPC   C4A21162  33.844  25.313   7.655
 7027POPC   C1B21163  33.876  25.484   8.555
 7027POPC   C2B21164  33.868  25.520   8.255
 7027POPC   C3B21165  33.874  25.534   7.955
 7027POPC   C4B21166  33.943  25.457   7.655
 7028POPC   NC321167  24.505  15.201   9.455
 7028POPC   PO421168  24.525  15.197   9.155
 7028POPC   GL121169  24.517  15.164   8.855
 7028POPC   GL221170  24.395  15.086   8.855
 7028POPC   C1A21171  24.496  15.186   8.555
 7028POPC   D2A21172  24.505  15.161   8.255
 7028POPC   C3A21173  24.523  15.220   7.955
 7028POPC   C4A21174  24.483  15.169   7.655
 7028POPC   C1B21175  24.221  15.041   8.555
 7028POPC   C2B21176  24.224  15.071   8.255
 7028POPC   C3B21177  24.272  15.110   7.955
 7028POPC   C4B21178  24.229  15.097   7.655
 7029POPC   NC321179   3.572  41.546   9.455
 7029POPC   PO421180   3.508  41.603   9.155
 7029POPC   GL121181   3.512  41.542   8.855
 7029POPC   GL221182   3.617  41.682   8.855
 7029POPC   C1A21183   3.566  41.564   8.555
 7029POPC   D2A21184   3.531  41.571   8.255
 7029POPC   C3A21185   3.539  41.574   7.955
 7029POPC   C4A21186   3.582  41.546   7.655
 7029POPC   C1B21187   3.672  41.803   8.555
 7029POPC   C2B21188   3.670  41.788   8.255
 7029POPC   C3B21189   3.687  41.755   7.955
 7029POPC   C4B21190   3.667  41.768   7.655
 7030POPC   NC321191   5.063  24.480   9.455
 7030POPC   PO421192   5.049  24.463   9.155
 7030POPC   GL121193   5.142  24.507   8.855
 7030POPC   GL221194   5.115  24.322   8.855
 7030POPC   C1A21195   5.099  24.501   8.555
 7030POPC   D2A21196   5.055  24.476   8.255
 7030POPC   C3A21197   5.071  24.459   7.955
 7030POPC   C4A21198   5.070  24.441   7.655
 7030POPC   C1B21199   5.083  24.259   8.555
 7030POPC   C2B21200   5.115  24.290   8.255
 7030POPC   C3B21201   5.153  24.236   7.955
 7030POPC   C4B21202   5.079  24.277   7.655
 7031POPC   NC321203  38.417  31.435   9.455
 7031POPC   PO421204  38.501  31.518   9.155
 7031POPC   GL121205  38.466  31.451   8.855
 7031POPC   GL221206  38.534  31.474   8.855
 7031POPC   C1A21207  38.426  31.435   8.555
 7031POPC   D2A21208  38.457  31.455   8.255
 7031POPC   C3A21209  38.451  31.454   7.955
 7031POPC   C4A21210  38.495  31.465   7.655
 7031POPC   C1B21211  38.736  31.521   8.555
 7031POPC   C2B21212  38.730  31.470   8.255
 7031POPC   C3B21213  38.741  31.466   7.955
 7031POPC   C4B21214  38.660  31.427   7.655
 7032POPC   NC321215  28.321  42.289   9.455
 7032POPC   PO421216  28.341  42.341   9.155
 7032POPC   GL121217  28.330  42.360   8.855
 7032POPC   GL221218  28.245  42.391   8.855
 7032POPC   C1A21219  28.346  42.365   8.555
 7032POPC   D2A21220  28.358  42.344   8.255
 7032POPC   C3A21221  28.345  42.358   7.955
 7032POPC   C4A21222  28.371  42.310   7.655
 7032POPC   C1B21223  28.178  42.492   8.555
 7032POPC   C2B21224  28.202  42.506   8.255
 7032POPC   C3B21225  28.185  42.486   7.955
 7032POPC   C4B21226  28.149  42.476   7.655
 7033POPC   NC321227   7.421   1.248   9.455
 7033POPC   PO421228   7.398   1.179   9.155
 7033POPC   GL121229   7.429   1.186   8.855
 7033POPC   GL221230   7.336   1.293   8.855
 7033POPC   C1A21231   7.455   1.197   8.555
 7033POPC   D2A21232   7.455   1.243   8.255
 7033POPC   C3A21233   7.415   1.180   7.955
 7033POPC   C4A21234   7.431   1.223   7.655
 7033POPC   C1B21235   7.263   1.348   8.555
 7033POPC   C2B21236   7.252   1.351   8.255
 7033POPC   C3B21237   7.240   1.434   7.955
 7033POPC   C4B21238   7.208   1.361   7.655
 7034POPC   NC321239   5.052  44.655   9.455
 7034POPC   PO421240   5.117  44.623   9.155
 7034POPC   GL121241   5.134  44.623   8.855
 7034POPC   GL221242   5.014  44.772   8.855
 7034POPC   C1A21243   5.079  44.694   8.555
 7034POPC   D2A21244   5.104  44.617   8.255
 7034POPC   C3A21245   5.086  44.680   7.955
 7034POPC   C4A21246   5.088  44.684   7.655
 7034POPC   C1B21247   4.931  44.823   8.555
 7034POPC   C2B21248   4.939  44.828   8.255
 7034POPC   C3B21249   4.872  44.878   7.955
 7034POPC   C4B21250   4.875  44.836   7.655
 7035POPC   NC321251   9.710  38.442   9.455
 7035POPC   PO421252   9.781  38.436   9.155
 7035POPC   GL121253   9.711  38.459   8.855
 7035POPC   GL221254   9.819  38.612   8.855
 7035POPC   C1A21255   9.775  38.468   8.555
 7035POPC   D2A21256   9.733  38.463   8.255
 7035POPC   C3A21257   9.775  38.407   7.955
 7035POPC   C4A21258   9.747  38.501   7.655
 7035POPC   C1B21259   9.862  38.714   8.555
 7035POPC   C2B21260   9.821  38.694   8.255
 7035POPC   C3B21261   9.840  38.660   7.955
 7035POPC   C4B21262   9.808  38.728   7.655
 7036POPC   NC321263  39.212  29.903   9.455
 7036POPC   PO421264  39.267  29.928   9.155
 7036POPC   GL121265  39.235  29.902   8.855
 7036POPC   GL221266  39.306  29.829   8.855
 7036POPC   C1A21267  39.193  29.967   8.555
 7036POPC   D2A21268  39.218  29.946   8.255
 7036POPC   C3A21269  39.277  29.953   7.955
 7036POPC   C4A21270  39.202  29.888   7.655
 7036POPC   C1B21271  39.371  29.734   8.555
 7036POPC   C2B21272  39.370  29.751   8.255
 7036POPC   C3B21273  39.379  29.728   7.955
 7036POPC   C4B21274  39.392  29.694   7.655
 7037POPC   NC321275   7.450  23.712   9.455
 7037POPC   PO421276   7.469  23.724   9.155
 7037POPC   GL121277   7.402  23.702   8.855
 7037POPC   GL221278   7.313  23.708   8.855
 7037POPC   C1A21279   7.378  23.695   8.555
 7037POPC   D2A21280   7.382  23.694   8.255
 7037POPC   C3A21281   7.378  23.671   7.955
 7037POPC   C4A21282   7.408  23.752   7.655
 7037POPC   C1B21283   7.187  23.831   8.555
 7037POPC   C2B21284   7.196  23.754   8.255
 7037POPC   C3B21285   7.160  23.833   7.955
 7037POPC   C4B21286   7.188  23.850   7.655
 7038POPC   NC321287   7.424  35.344   9.455
 7038POPC   PO421288   7.446  35.308   9.155
 7038POPC   GL121289   7.415  35.310   8.855
 7038POPC   GL221290   7.567  35.360   8.855
 7038POPC   C1A21291   7.451  35.324   8.555
 7038POPC   D2A21292   7.436  35.319   8.255
 7038POPC   C3A21293   7.463  35.353   7.955
 7038POPC   C4A21294   7.462  35.357   7.655
 7038POPC   C1B21295   7.660  35.478   8.555
 7038POPC   C2B21296   7.655  35.410   8.255
 7038POPC   C3B21297   7.639  35.400   7.955
 7038POPC   C4B21298   7.644  35.428   7.655
 7039POPC   NC321299  36.936  39.185   9.455
 7039POPC   PO421300  36.938  39.190   9.155
 7039POPC   GL121301  36.878  39.263   8.855
 7039POPC   GL221302  36.930  39.302   8.855
 7039POPC   C1A21303  36.888  39.186   8.555
 7039POPC   D2A21304  36.901  39.195   8.255
 7039POPC   C3A21305  36.910  39.244   7.955
 7039POPC   C4A21306  36.886  39.192   7.655
 7039POPC   C1B21307  36.941  39.478   8.555
 7039POPC   C2B21308  37.015  39.491   8.255
 7039POPC   C3B21309  37.025  39.479   7.955
 7039POPC   C4B21310  36.992  39.476   7.655
 7040POPC   NC321311  38.494  36.117   9.455
 7040POPC   PO421312  38.475  36.129   9.155
 7040POPC   GL121313  38.476  36.130   8.855
 7040POPC   GL221314  38.335  36.143   8.855
 7040POPC   C1A21315  38.431  36.124   8.555
 7040POPC   D2A21316  38.447  36.163   8.255
 7040POPC   C3A21317  38.406  36.100   7.955
 7040POPC   C4A21318  38.428  36.091   7.655
 7040POPC   C1B21319  38.234  36.229   8.555
 7040POPC   C2B21320  38.270  36.186   8.255
 7040POPC   C3B21321  38.257  36.262   7.955
 7040POPC   C4B21322  38.212  36.191   7.655
 7041POPC   NC321323  11.337  40.037   9.455
 7041POPC   PO421324  11.287  39.960   9.155
 7041POPC   GL121325  11.289  39.963   8.855
 7041POPC   GL221326  11.359  39.914   8.855
 7041POPC   C1A21327  11.293  40.000   8.555
 7041POPC   D2A21328  11.294  39.970   8.255
 7041POPC   C3A21329  11.317  40.038   7.955
 7041POPC   C4A21330  11.309  39.998   7.655
 7041POPC   C1B21331  11.464  39.806   8.555
 7041POPC   C2B21332  11.402  39.775   8.255
 7041POPC   C3B21333  11.389  39.770   7.955
 7041POPC   C4B21334  11.444  39.782   7.655
 7042POPC   NC321335  22.136   2.754   9.455
 7042POPC   PO421336  22.207   2.797   9.155
 7042POPC   GL121337  22.157   2.794   8.855
 7042POPC   GL221338  22.058   2.731   8.855
 7042POPC   C1A21339  22.146   2.741   8.555
 7042POPC   D2A21340  22.211   2.776   8.255
 7042POPC   C3A21341  22.147   2.747   7.955
 7042POPC   C4A21342  22.154   2.780   7.655
 7042POPC   C1B21343  21.965   2.619   8.555
 7042POPC   C2B21344  22.009   2.593   8.255
 7042POPC   C3B21345  21.989   2.624   7.955
 7042POPC   C4B21346  21.949   2.564   7.655
 7043POPC   NC321347  34.615   0.467   9.455
 7043POPC   PO421348  34.559   0.437   9.155
 7043POPC   GL121349  34.557   0.407   8.855
 7043POPC   GL221350  34.496   0.435   8.855
 7043POPC   C1A21351  34.596   0.446   8.555
 7043POPC   D2A21352  34.562   0.482   8.255
 7043POPC   C3A21353  34.551   0.441   7.955
 7043POPC   C4A21354  34.560   0.479   7.655
 7043POPC   C1B21355  34.337   0.399   8.555
 7043POPC   C2B21356  34.315   0.345   8.255
 7043POPC   C3B21357  34.297   0.344   7.955
 7043POPC   C4B21358  34.349   0.426   7.655
 7044POPC   NC321359  31.468  38.446   9.455
 7044POPC   PO421360  31.489  38.417   9.155
 7044POPC   GL121361  31.426  38.424   8.855
 7044POPC   GL221362  31.392  38.468   8.855
 7044POPC   C1A21363  31.465  38.429   8.555
 7044POPC   D2A21364  31.509  38.424   8.255
 7044POPC   C3A21365  31.431  38.483   7.955
 7044POPC   C4A21366  31.445  38.474   7.655
 7044POPC   C1B21367  31.176  38.388   8.555
 7044POPC   C2B21368  31.235  38.419   8.255
 7044POPC   C3B21369  31.231  38.427   7.955
 7044POPC   C4B21370  31.218  38.396   7.655
 7045POPC   NC321371  37.726  18.306   9.455
 7045POPC   PO421372  37.691  18.286   9.155
 7045POPC   GL121373  37.667  18.243   8.855
 7045POPC   GL221374  37.579  18.159   8.855
 7045POPC   C1A21375  37.637  18.254   8.555
 7045POPC   D2A21376  37.728  18.240   8.255
 7045POPC   C3A21377  37.656  18.307   7.955
 7045POPC   C4A21378  37.697  18.252   7.655
 7045POPC   C1B21379  37.474  18.112   8.555
 7045POPC   C2B21380  37.466  18.132   8.255
 7045POPC   C3B21381  37.490  18.093   7.955
 7045POPC   C4B21382  37.519  18.109   7.655
 7046POPC   NC321383  36.148  12.889   9.455
 7046POPC   PO421384  36.109  12.822   9.155
 7046POPC   GL121385  36.145  12.826   8.855
 7046POPC   GL221386  35.986  12.890   8.855
 7046POPC   C1A21387  36.178  12.822   8.555
 7046POPC   D2A21388  36.156  12.822   8.255
 7046POPC   C3A21389  36.160  12.871   7.955
 7046POPC   C4A21390  36.136  12.858   7.655
 7046POPC   C1B21391  35.880  12.914   8.555
 7046POPC   C2B21392  35.895  12.878   8.255
 7046POPC   C3B21393  35.831  12.867   7.955
 7046POPC   C4B21394  35.851  12.904   7.655
 7047POPC   NC321395   0.412  43.114   9.455
 7047POPC   PO421396   0.488  43.070   9.155
 7047POPC   GL121397   0.419  43.156   8.855
 7047POPC   GL221398   0.371  42.996   8.855
 7047POPC   C1A21399   0.478  43.107   8.555
 7047POPC   D2A21400   0.460  43.116   8.255
 7047POPC   C3A21401   0.393  43.152   7.955
 7047POPC   C4A21402   0.485  43.090   7.655
 7047POPC   C1B21403   0.290  42.919   8.555
 7047POPC   C2B21404   0.255  42.900   8.255
 7047POPC   C3B21405   0.283  42.961   7.955
 7047POPC   C4B21406   0.201  42.982   7.655
 7048POPC   NC321407  11.292  12.119   9.455
 7048POPC   PO421408  11.297  12.121   9.155
 7048POPC   GL121409  11.336  12.044   8.855
 7048POPC   GL221410  11.368  12.049   8.855
 7048POPC   C1A21411  11.348  12.106   8.555
 7048POPC   D2A21412  11.327  12.083   8.255
 7048POPC   C3A21413  11.281  12.121   7.955
 7048POPC   C4A21414  11.271  12.029   7.655
 7048POPC   C1B21415  11.509  11.938   8.555
 7048POPC   C2B21416  11.539  11.949   8.255
 7048POPC   C3B21417  11.491  11.892   7.955
 7048POPC   C4B21418  11.546  11.938   7.655
 7049POPC   NC321419  33.766  20.575   9.455
 7049POPC   PO421420  33.754  20.637   9.155
 7049POPC   GL121421  33.763  20.568   8.855
 7049POPC   GL221422  33.964  20.619   8.855
 7049POPC   C1A21423  33.807  20.631   8.555
 7049POPC   D2A21424  33.781  20.586   8.255
 7049POPC   C3A21425  33.766  20.602   7.955
 7049POPC   C4A21426  33.836  20.587   7.655
 7049POPC   C1B21427  34.015  20.747   8.555
 7049POPC   C2B21428  34.058  20.756   8.255
 7049POPC   C3B21429  34.033  20.738   7.955
 7049POPC   C4B21430  34.009  20.674   7.655
 7050POPC   NC321431  15.186   8.971   9.455
 7050POPC   PO421432  15.191   8.938   9.155
 7050POPC   GL121433  15.208   8.987   8.855
 7050POPC   GL221434  15.100   8.867   8.855
 7050POPC   C1A21435  15.175   8.990   8.555
 7050POPC   D2A21436  15.214   8.983   8.255
 7050POPC   C3A21437  15.226   8.947   7.955
 7050POPC   C4A21438  15.135   8.943   7.655
 7050POPC   C1B21439  15.063   8.724   8.555
 7050POPC   C2B21440  15.050   8.793   8.255
 7050POPC   C3B21441  15.089   8.787   7.955
 7050POPC   C4B21442  15.041   8.775   7.655
 7051POPC   NC321443  32.264  38.476   9.455
 7051POPC   PO421444  32.212  38.455   9.155
 7051POPC   GL121445  32.214  38.454   8.855
 7051POPC   GL221446  32.219  38.580   8.855
 7051POPC   C1A21447  32.241  38.456   8.555
 7051POPC   D2A21448  32.220  38.474   8.255
 7051POPC   C3A21449  32.254  38.455   7.955
 7051POPC   C4A21450  32.259  38.408   7.655
 7051POPC   C1B21451  32.045  38.690   8.555
 7051POPC   C2B21452  32.114  38.624   8.255
 7051POPC   C3B21453  32.101  38.700   7.955
 7051POPC   C4B21454  32.119  38.644   7.655
 7052POPC   NC321455   0.394  33.053   9.455
 7052POPC   PO421456   0.416  33.005   9.155
 7052POPC   GL121457   0.469  33.063   8.855
 7052POPC   GL221458   0.520  33.155   8.855
 7052POPC   C1A21459   0.472  33.010   8.555
 7052POPC   D2A21460   0.429  33.017   8.255
 7052POPC   C3A21461   0.455  33.073   7.955
 7052POPC   C4A21462   0.424  33.030   7.655
 7052POPC   C1B21463   0.512  33.205   8.555
 7052POPC   C2B21464   0.501  33.210   8.255
 7052POPC   C3B21465   0.565  33.255   7.955
 7052POPC   C4B21466   0.575  33.248   7.655
 7053POPC   NC321467  31.433   1.970   9.455
 7053POPC   PO421468  31.510   2.032   9.155
 7053POPC   GL121469  31.499   1.980   8.855
 7053POPC   GL221470  31.616   1.906   8.855
 7053POPC   C1A21471  31.522   1.972   8.555
 7053POPC   D2A21472  31.514   1.997   8.255
 7053POPC   C3A21473  31.446   1.943   7.955
 7053POPC   C4A21474  31.423   2.015   7.655
 7053POPC   C1B21475  31.726   1.917   8.555
 7053POPC   C2B21476  31.730   1.917   8.255
 7053POPC   C3B21477  31.708   1.894   7.955
 7053POPC   C4B21478  31.724   1.839   7.655
 7054POPC   NC321479  13.620  15.980   9.455
 7054POPC   PO421480  13.628  15.987   9.155
 7054POPC   GL121481  13.654  15.919   8.855
 7054POPC   GL221482  13.752  15.818   8.855
 7054POPC   C1A21483  13.664  15.955   8.555
 7054POPC   D2A21484  13.580  15.947   8.255
 7054POPC   C3A21485  13.631  15.932   7.955
 7054POPC   C4A21486  13.652  15.951   7.655
 7054POPC   C1B21487  13.771  15.771   8.555
 7054POPC   C2B21488  13.842  15.742   8.255
 7054POPC   C3B21489  13.756  15.736   7.955
 7054POPC   C4B21490  13.848  15.762   7.655
 7055POPC   NC321491  31.503   8.937   9.455
 7055POPC   PO421492  31.488   8.941   9.155
 7055POPC   GL121493  31.445   8.931   8.855
 7055POPC   GL221494  31.461   9.087   8.855
 7055POPC   C1A21495  31.463   8.993   8.555
 7055POPC   D2A21496  31.483   8.958   8.255
 7055POPC   C3A21497  31.473   8.982   7.955
 7055POPC   C4A21498  31.458   8.993   7.655
 7055POPC   C1B21499  31.462   9.213   8.555
 7055POPC   C2B21500  31.486   9.181   8.255
 7055POPC   C3B21501  31.454   9.180   7.955
 7055POPC   C4B21502  31.461   9.196   7.655
 7056POPC   NC321503  18.317   8.942   9.455
 7056POPC   PO421504  18.245   9.012   9.155
 7056POPC   GL121505  18.287   8.925   8.855
 7056POPC   GL221506  18.408   8.869   8.855
 7056POPC   C1A21507  18.315   8.933   8.555
 7056POPC   D2A21508  18.330   8.962   8.255
 7056POPC   C3A21509  18.269   8.937   7.955
 7056POPC   C4A21510  18.266   9.018   7.655
 7056POPC   C1B21511  18.445   8.836   8.555
 7056POPC   C2B21512  18.443   8.778   8.255
 7056POPC   C3B21513  18.451   8.809   7.955
 7056POPC   C4B21514  18.403   8.782   7.655
 7057POPC   NC321515  40.032  30.662   9.455
 7057POPC   PO421516  39.992  30.710   9.155
 7057POPC   GL121517  39.980  30.733   8.855
 7057POPC   GL221518  39.995  30.562   8.855
 7057POPC   C1A21519  39.975  30.701   8.555
 7057POPC   D2A21520  40.016  30.714   8.255
 7057POPC   C3A21521  40.007  30.664   7.955
 7057POPC   C4A21522  40.013  30.689   7.655
 7057POPC   C1B21523  39.991  30.452   8.555
 7057POPC   C2B21524  40.028  30.430   8.255
 7057POPC   C3B21525  39.964  30.460   7.955
 7057POPC   C4B21526  39.973  30.402   7.655
 7058POPC   NC321527  31.463  37.649   9.455
 7058POPC   PO421528  31.489  37.691   9.155
 7058POPC   GL121529  31.478  37.707   8.855
 7058POPC   GL221530  31.336  37.774   8.855
 7058POPC   C1A21531  31.450  37.681   8.555
 7058POPC   D2A21532  31.462  37.685   8.255
 7058POPC   C3A21533  31.474  37.678   7.955
 7058POPC   C4A21534  31.494  37.638   7.655
 7058POPC   C1B21535  31.334  37.801   8.555
 7058POPC   C2B21536  31.311  37.826   8.255
 7058POPC   C3B21537  31.312  37.813   7.955
 7058POPC   C4B21538  31.263  37.824   7.655
 7059POPC   NC321539   9.758  22.968   9.455
 7059POPC   PO421540   9.761  22.928   9.155
 7059POPC   GL121541   9.714  22.931   8.855
 7059POPC   GL221542   9.743  23.035   8.855
 7059POPC   C1A21543   9.717  22.917   8.555
 7059POPC   D2A21544   9.731  22.921   8.255
 7059POPC   C3A21545   9.733  22.973   7.955
 7059POPC   C4A21546   9.732  22.981   7.655
 7059POPC   C1B21547   9.833  23.197   8.555
 7059POPC   C2B21548   9.750  23.143   8.255
 7059POPC   C3B21549   9.785  23.223   7.955
 7059POPC   C4B21550   9.791  23.223   7.655
 7060POPC   NC321551  19.831  42.383   9.455
 7060POPC   PO421552  19.844  42.354   9.155
 7060POPC   GL121553  19.874  42.303   8.855
 7060POPC   GL221554  19.776  42.259   8.855
 7060POPC   C1A21555  19.862  42.344   8.555
 7060POPC   D2A21556  19.804  42.295   8.255
 7060POPC   C3A21557  19.792  42.308   7.955
 7060POPC   C4A21558  19.787  42.371   7.655
 7060POPC   C1B21559  19.728  42.133   8.555
 7060POPC   C2B21560  19.742  42.056   8.255
 7060POPC   C3B21561  19.794  42.087   7.955
 7060POPC   C4B21562  19.711  42.068   7.655
 7061POPC   NC321563   4.339  25.999   9.455
 7061POPC   PO421564   4.338  26.083   9.155
 7061POPC   GL121565   4.312  26.088   8.855
 7061POPC   GL221566   4.398  26.034   8.855
 7061POPC   C1A21567   4.350  26.023   8.555
 7061POPC   D2A21568   4.352  26.068   8.255
 7061POPC   C3A21569   4.294  25.992   7.955
 7061POPC   C4A21570   4.333  26.022   7.655
 7061POPC   C1B21571   4.591  25.904   8.555
 7061POPC   C2B21572   4.581  25.971   8.255
 7061POPC   C3B21573   4.512  25.961   7.955
 7061POPC   C4B21574   4.574  25.940   7.655
 7062POPC   NC321575  38.461  29.144   9.455
 7062POPC   PO421576  38.413  29.171   9.155
 7062POPC   GL121577  38.476  29.122   8.855
 7062POPC   GL221578  38.406  29.228   8.855
 7062POPC   C1A21579  38.406  29.181   8.555
 7062POPC   D2A21580  38.433  29.167   8.255
 7062POPC   C3A21581  38.443  29.175   7.955
 7062POPC   C4A21582  38.435  29.182   7.655
 7062POPC   C1B21583  38.414  29.374   8.555
 7062POPC   C2B21584  38.371  29.433   8.255
 7062POPC   C3B21585  38.370  29.424   7.955
 7062POPC   C4B21586  38.421  29.389   7.655
 7063POPC   NC321587   1.204  44.667   9.455
 7063POPC   PO421588   1.177  44.615   9.155
 7063POPC   GL121589   1.167  44.706   8.855
 7063POPC   GL221590   1.294  44.675   8.855
 7063POPC   C1A21591   1.219  44.658   8.555
 7063POPC   D2A21592   1.252  44.675   8.255
 7063POPC   C3A21593   1.223  44.678   7.955
 7063POPC   C4A21594   1.243  44.620   7.655
 7063POPC   C1B21595   1.513  44.652   8.555
 7063POPC   C2B21596   1.420  44.646   8.255
 7063POPC   C3B21597   1.470  44.709   7.955
 7063POPC   C4B21598   1.448  44.644   7.655
 7064POPC   NC321599  32.224  35.358   9.455
 7064POPC   PO421600  32.253  35.369   9.155
 7064POPC   GL121601  32.250  35.387   8.855
 7064POPC   GL221602  32.299  35.273   8.855
 7064POPC   C1A21603  32.261  35.318   8.555
 7064POPC   D2A21604  32.225  35.307   8.255
 7064POPC   C3A21605  32.246  35.374   7.955
 7064POPC   C4A21606  32.228  35.334   7.655
 7064POPC   C1B21607  32.350  35.175   8.555
 7064POPC   C2B21608  32.384  35.121   8.255
 7064POPC   C3B21609  32.402  35.167   7.955
 7064POPC   C4B21610  32.383  35.158   7.655
 7065POPC   NC321611   9.758  29.166   9.455
 7065POPC   PO421612   9.705  29.099   9.155
 7065POPC   GL121613   9.699  29.161   8.855
 7065POPC   GL221614   9.901  29.124   8.855
 7065POPC   C1A21615   9.791  29.129   8.555
 7065POPC   D2A21616   9.734  29.143   8.255
 7065POPC   C3A21617   9.784  29.192   7.955
 7065POPC   C4A21618   9.772  29.098   7.655
 7065POPC   C1B21619   9.978  29.098   8.555
 7065POPC   C2B21620  10.029  29.085   8.255
 7065POPC   C3B21621  10.039  29.091   7.955
 7065POPC   C4B21622  10.015  29.131   7.655
 7066POPC   NC321623  29.955  24.501   9.455
 7066POPC   PO421624  29.968  24.463   9.155
 7066POPC   GL121625  29.931  24.467   8.855
 7066POPC   GL221626  29.886  24.562   8.855
 7066POPC   C1A21627  29.938  24.495   8.555
 7066POPC   D2A21628  29.949  24.499   8.255
 7066POPC   C3A21629  29.935  24.441   7.955
 7066POPC   C4A21630  29.908  24.489   7.655
 7066POPC   C1B21631  29.824  24.690   8.555
 7066POPC   C2B21632  29.839  24.770   8.255
 7066POPC   C3B21633  29.809  24.769   7.955
 7066POPC   C4B21634  29.856  24.691   7.655
 7067POPC   NC321635  36.127  38.473   9.455
 7067POPC   PO421636  36.166  38.473   9.155
 7067POPC   GL121637  36.161  38.436   8.855
 7067POPC   GL221638  36.043  38.419   8.855
 7067POPC   C1A21639  36.123  38.454   8.555
 7067POPC   D2A21640  36.091  38.469   8.255
 7067POPC   C3A21641  36.111  38.477   7.955
 7067POPC   C4A21642  36.152  38.421   7.655
 7067POPC   C1B21643  35.849  38.441   8.555
 7067POPC   C2B21644  35.906  38.432   8.255
 7067POPC   C3B21645  35.888  38.424   7.955
 7067POPC   C4B21646  35.895  38.435   7.655
 7068POPC   NC321647  23.708  15.919   9.455
 7068POPC   PO421648  23.746  15.940   9.155
 7068POPC   GL121649  23.746  15.956   8.855
 7068POPC   GL221650  23.605  16.081   8.855
 7068POPC   C1A21651  23.669  15.937   8.555
 7068POPC   D2A21652  23.754  15.920   8.255
 7068POPC   C3A21653  23.726  15.998   7.955
 7068POPC   C4A21654  23.746  15.960   7.655
 7068POPC   C1B21655  23.556  16.116   8.555
 7068POPC   C2B21656  23.542  16.081   8.255
 7068POPC   C3B21657  23.478  16.085   7.955
 7068POPC   C4B21658  23.500  16.122   7.655
 7069POPC   NC321659  33.770  14.440   9.455
 7069POPC   PO421660  33.816  14.415   9.155
 7069POPC   GL121661  33.779  14.394   8.855
 7069POPC   GL221662  33.798  14.536   8.855
 7069POPC   C1A21663  33.796  14.356   8.555
 7069POPC   D2A21664  33.801  14.379   8.255
 7069POPC   C3A21665  33.775  14.374   7.955
 7069POPC   C4A21666  33.808  14.430   7.655
 7069POPC   C1B21667  33.765  14.700   8.555
 7069POPC   C2B21668  33.727  14.615   8.255
 7069POPC   C3B21669  33.795  14.691   7.955
 7069POPC   C4B21670  33.743  14.691   7.655
 7070POPC   NC321671  19.092  14.392   9.455
 7070POPC   PO421672  19.081  14.430   9.155
 7070POPC   GL121673  19.044  14.405   8.855
 7070POPC   GL221674  19.205  14.464   8.855
 7070POPC   C1A21675  19.079  14.384   8.555
 7070POPC   D2A21676  19.074  14.435   8.255
 7070POPC   C3A21677  19.045  14.435   7.955
 7070POPC   C4A21678  19.103  14.377   7.655
 7070POPC   C1B21679  19.287  14.434   8.555
 7070POPC   C2B21680  19.340  14.441   8.255
 7070POPC   C3B21681  19.300  14.457   7.955
 7070POPC   C4B21682  19.320  14.494   7.655
 7071POPC   NC321683   7.413  38.413   9.455
 7071POPC   PO421684   7.438  38.495   9.155
 7071POPC   GL121685   7.461  38.432   8.855
 7071POPC   GL221686   7.274  38.516   8.855
 7071POPC   C1A21687   7.376  38.452   8.555
 7071POPC   D2A21688   7.388  38.426   8.255
 7071POPC   C3A21689   7.429  38.456   7.955
 7071POPC   C4A21690   7.393  38.477   7.655
 7071POPC   C1B21691   7.241  38.570   8.555
 7071POPC   C2B21692   7.172  38.647   8.255
 7071POPC   C3B21693   7.246  38.575   7.955
 7071POPC   C4B21694   7.255  38.635   7.655
 7072POPC   NC321695  37.701  26.038   9.455
 7072POPC   PO421696  37.716  26.026   9.155
 7072POPC   GL121697  37.650  26.003   8.855
 7072POPC   GL221698  37.689  26.152   8.855
 7072POPC   C1A21699  37.675  26.042   8.555
 7072POPC   D2A21700  37.645  26.001   8.255
 7072POPC   C3A21701  37.707  26.062   7.955
 7072POPC   C4A21702  37.665  26.023   7.655
 7072POPC   C1B21703  37.783  26.280   8.555
 7072POPC   C2B21704  37.752  26.311   8.255
 7072POPC   C3B21705  37.820  26.306   7.955
 7072POPC   C4B21706  37.822  26.302   7.655
 7073POPC   NC321707  32.246   5.131   9.455
 7073POPC   PO421708  32.203   5.102   9.155
 7073POPC   GL121709  32.296   5.099   8.855
 7073POPC   GL221710  32.259   4.938   8.855
 7073POPC   C1A21711  32.226   5.124   8.555
 7073POPC   D2A21712  32.240   5.130   8.255
 7073POPC   C3A21713  32.225   5.088   7.955
 7073POPC   C4A21714  32.259   5.137   7.655
 7073POPC   C1B21715  32.222   4.870   8.555
 7073POPC   C2B21716  32.268   4.881   8.255
 7073POPC   C3B21717  32.237   4.852   7.955
 7073POPC   C4B21718  32.208   4.826   7.655
 7074POPC   NC321719   5.066  43.843   9.455
 7074POPC   PO421720   5.075  43.877   9.155
 7074POPC   GL121721   5.138  43.872   8.855
 7074POPC   GL221722   4.935  43.888   8.855
 7074POPC   C1A21723   5.136  43.908   8.555
 7074POPC   D2A21724   5.065  43.897   8.255
 7074POPC   C3A21725   5.048  43.867   7.955
 7074POPC   C4A21726   5.046  43.873   7.655
 7074POPC   C1B21727   4.858  43.880   8.555
 7074POPC   C2B21728   4.842  43.874   8.255
 7074POPC   C3B21729   4.837  43.922   7.955
 7074POPC   C4B21730   4.806  43.899   7.655
 7075POPC   NC321731  42.328   7.381   9.455
 7075POPC   PO421732  42.304   7.406   9.155
 7075POPC   GL121733  42.370   7.445   8.855
 7075POPC   GL221734  42.329   7.541   8.855
 7075POPC   C1A21735  42.365   7.420   8.555
 7075POPC   D2A21736  42.369   7.415   8.255
 7075POPC   C3A21737  42.376   7.375   7.955
 7075POPC   C4A21738  42.324   7.391   7.655
 7075POPC   C1B21739  42.259   7.656   8.555
 7075POPC   C2B21740  42.266   7.650   8.255
 7075POPC   C3B21741  42.197   7.680   7.955
 7075POPC   C4B21742  42.227   7.615   7.655
 7076POPC   NC321743   8.934  36.860   9.455
 7076POPC   PO421744   8.985  36.862   9.155
 7076POPC   GL121745   8.953  36.946   8.855
 7076POPC   GL221746   8.967  36.776   8.855
 7076POPC   C1A21747   8.934  36.896   8.555
 7076POPC   D2A21748   8.989  36.888   8.255
 7076POPC   C3A21749   8.923  36.879   7.955
 7076POPC   C4A21750   8.991  36.933   7.655
 7076POPC   C1B21751   8.978  36.665   8.555
 7076POPC   C2B21752   8.990  36.697   8.255
 7076POPC   C3B21753   8.967  36.625   7.955
 7076POPC   C4B21754   9.035  36.650   7.655
 7077POPC   NC321755  19.027  41.552   9.455
 7077POPC   PO421756  19.106  41.594   9.155
 7077POPC   GL121757  19.107  41.568   8.855
 7077POPC   GL221758  19.032  41.671   8.855
 7077POPC   C1A21759  19.104  41.528   8.555
 7077POPC   D2A21760  19.064  41.534   8.255
 7077POPC   C3A21761  19.088  41.554   7.955
 7077POPC   C4A21762  19.095  41.565   7.655
 7077POPC   C1B21763  19.052  41.837   8.555
 7077POPC   C2B21764  19.111  41.836   8.255
 7077POPC   C3B21765  19.093  41.843   7.955
 7077POPC   C4B21766  19.077  41.787   7.655
 7078POPC   NC321767  29.108  19.862   9.455
 7078POPC   PO421768  29.166  19.849   9.155
 7078POPC   GL121769  29.154  19.816   8.855
 7078POPC   GL221770  29.232  19.747   8.855
 7078POPC   C1A21771  29.117  19.800   8.555
 7078POPC   D2A21772  29.179  19.883   8.255
 7078POPC   C3A21773  29.145  19.785   7.955
 7078POPC   C4A21774  29.181  19.835   7.655
 7078POPC   C1B21775  29.273  19.586   8.555
 7078POPC   C2B21776  29.305  19.639   8.255
 7078POPC   C3B21777  29.301  19.634   7.955
 7078POPC   C4B21778  29.257  19.590   7.655
 7079POPC   NC321779  22.177  32.991   9.455
 7079POPC   PO421780  22.145  32.982   9.155
 7079POPC   GL121781  22.187  33.072   8.855
 7079POPC   GL221782  22.237  32.954   8.855
 7079POPC   C1A21783  22.122  33.013   8.555
 7079POPC   D2A21784  22.118  32.989   8.255
 7079POPC   C3A21785  22.138  32.979   7.955
 7079POPC   C4A21786  22.196  32.979   7.655
 7079POPC   C1B21787  22.349  32.790   8.555
 7079POPC   C2B21788  22.311  32.831   8.255
 7079POPC   C3B21789  22.306  32.818   7.955
 7079POPC   C4B21790  22.352  32.810   7.655
 7080POPC   NC321791  11.271  20.607   9.455
 7080POPC   PO421792  11.278  20.655   9.155
 7080POPC   GL121793  11.267  20.561   8.855
 7080POPC   GL221794  11.273  20.775   8.855
 7080POPC   C1A21795  11.341  20.630   8.555
 7080POPC   D2A21796  11.270  20.586   8.255
 7080POPC   C3A21797  11.321  20.626   7.955
 7080POPC   C4A21798  11.307  20.610   7.655
 7080POPC   C1B21799  11.303  20.830   8.555
 7080POPC   C2B21800  11.257  20.816   8.255
 7080POPC   C3B21801  11.254  20.856   7.955
 7080POPC   C4B21802  11.337  20.863   7.655
 7081POPC   NC321803  26.779   5.838   9.455
 7081POPC   PO421804  26.771   5.866   9.155
 7081POPC   GL121805  26.811   5.846   8.855
 7081POPC   GL221806  26.913   5.773   8.855
 7081POPC   C1A21807  26.771   5.899   8.555
 7081POPC   D2A21808  26.827   5.886   8.255
 7081POPC   C3A21809  26.798   5.913   7.955
 7081POPC   C4A21810  26.807   5.826   7.655
 7081POPC   C1B21811  27.020   5.738   8.555
 7081POPC   C2B21812  27.078   5.775   8.255
 7081POPC   C3B21813  27.053   5.754   7.955
 7081POPC   C4B21814  27.091   5.751   7.655
 7082POPC   NC321815  27.562  15.991   9.455
 7082POPC   PO421816  27.610  15.932   9.155
 7082POPC   GL121817  27.614  15.945   8.855
 7082POPC   GL221818  27.524  16.035   8.855
 7082POPC   C1A21819  27.636  15.934   8.555
 7082POPC   D2A21820  27.641  15.935   8.255
 7082POPC   C3A21821  27.608  15.962   7.955
 7082POPC   C4A21822  27.599  15.931   7.655
 7082POPC   C1B21823  27.588  16.247   8.555
 7082POPC   C2B21824  27.533  16.152   8.255
 7082POPC   C3B21825  27.591  16.245   7.955
 7082POPC   C4B21826  27.542  16.186   7.655
 7083POPC   NC321827  15.210   2.007   9.455
 7083POPC   PO421828  15.162   2.003   9.155
 7083POPC   GL121829  15.196   1.974   8.855
 7083POPC   GL221830  15.093   1.881   8.855
 7083POPC   C1A21831  15.153   2.033   8.555
 7083POPC   D2A21832  15.197   1.979   8.255
 7083POPC   C3A21833  15.182   1.991   7.955
 7083POPC   C4A21834  15.132   2.034   7.655
 7083POPC   C1B21835  15.078   1.744   8.555
 7083POPC   C2B21836  15.095   1.790   8.255
 7083POPC   C3B21837  15.071   1.769   7.955
 7083POPC   C4B21838  15.044   1.720   7.655
 7084POPC   NC321839  16.765  36.912   9.455
 7084POPC   PO421840  16.703  36.935   9.155
 7084POPC   GL121841  16.717  36.939   8.855
 7084POPC   GL221842  16.725  36.788   8.855
 7084POPC   C1A21843  16.711  36.885   8.555
 7084POPC   D2A21844  16.767  36.927   8.255
 7084POPC   C3A21845  16.748  36.938   7.955
 7084POPC   C4A21846  16.776  36.870   7.655
 7084POPC   C1B21847  16.658  36.695   8.555
 7084POPC   C2B21848  16.715  36.650   8.255
 7084POPC   C3B21849  16.651  36.607   7.955
 7084POPC   C4B21850  16.649  36.662   7.655
 7085POPC   NC321851  30.675  10.533   9.455
 7085POPC   PO421852  30.691  10.570   9.155
 7085POPC   GL121853  30.678  10.508   8.855
 7085POPC   GL221854  30.837  10.549   8.855
 7085POPC   C1A21855  30.745  10.503   8.555
 7085POPC   D2A21856  30.734  10.515   8.255
 7085POPC   C3A21857  30.654  10.518   7.955
 7085POPC   C4A21858  30.726  10.475   7.655
 7085POPC   C1B21859  30.945  10.557   8.555
 7085POPC   C2B21860  30.950  10.539   8.255
 7085POPC   C3B21861  30.897  10.570   7.955
 7085POPC   C4B21862  30.948  10.550   7.655
 7086POPC   NC321863  26.779  28.396   9.455
 7086POPC   PO421864  26.815  28.355   9.155
 7086POPC   GL121865  26.823  28.396   8.855
 7086POPC   GL221866  26.932  28.450   8.855
 7086POPC   C1A21867  26.816  28.345   8.555
 7086POPC   D2A21868  26.777  28.373   8.255
 7086POPC   C3A21869  26.779  28.328   7.955
 7086POPC   C4A21870  26.812  28.404   7.655
 7086POPC   C1B21871  26.989  28.524   8.555
 7086POPC   C2B21872  26.954  28.612   8.255
 7086POPC   C3B21873  27.009  28.594   7.955
 7086POPC   C4B21874  26.963  28.558   7.655
 7087POPC   NC321875   4.281  24.535   9.455
 7087POPC   PO421876   4.272  24.497   9.155
 7087POPC   GL121877   4.316  24.460   8.855
 7087POPC   GL221878   4.193  24.387   8.855
 7087POPC   C1A21879   4.295  24.535   8.555
 7087POPC   D2A21880   4.336  24.500   8.255
 7087POPC   C3A21881   4.323  24.448   7.955
 7087POPC   C4A21882   4.275  24.513   7.655
 7087POPC   C1B21883   4.081  24.347   8.555
 7087POPC   C2B21884   4.159  24.357   8.255
 7087POPC   C3B21885   4.083  24.382   7.955
 7087POPC   C4B21886   4.148  24.346   7.655
 7088POPC   NC321887  41.586  42.306   9.455
 7088POPC   PO421888  41.517  42.294   9.155
 7088POPC   GL121889  41.526  42.364   8.855
 7088POPC   GL221890  41.709  42.240   8.855
 7088POPC   C1A21891  41.534  42.377   8.555
 7088POPC   D2A21892  41.533  42.369   8.255
 7088POPC   C3A21893  41.569  42.305   7.955
 7088POPC   C4A21894  41.524  42.341   7.655
 7088POPC   C1B21895  41.726  42.160   8.555
 7088POPC   C2B21896  41.748  42.216   8.255
 7088POPC   C3B21897  41.814  42.173   7.955
 7088POPC   C4B21898  41.740  42.206   7.655
 7089POPC   NC321899  25.282  14.369   9.455
 7089POPC   PO421900  25.233  14.451   9.155
 7089POPC   GL121901  25.265  14.448   8.855
 7089POPC   GL221902  25.241  14.569   8.855
 7089POPC   C1A21903  25.287  14.421   8.555
 7089POPC   D2A21904  25.274  14.420   8.255
 7089POPC   C3A21905  25.271  14.389   7.955
 7089POPC   C4A21906  25.283  14.369   7.655
 7089POPC   C1B21907  25.205  14.608   8.555
 7089POPC   C2B21908  25.261  14.650   8.255
 7089POPC   C3B21909  25.288  14.628   7.955
 7089POPC   C4B21910  25.203  14.678   7.655
 7090POPC   NC321911  21.406  33.040   9.455
 7090POPC   PO421912  21.403  32.994   9.155
 7090POPC   GL121913  21.434  33.031   8.855
 7090POPC   GL221914  21.265  33.015   8.855
 7090POPC   C1A21915  21.348  33.041   8.555
 7090POPC   D2A21916  21.435  33.010   8.255
 7090POPC   C3A21917  21.413  33.047   7.955
 7090POPC   C4A21918  21.341  33.016   7.655
 7090POPC   C1B21919  21.168  33.074   8.555
 7090POPC   C2B21920  21.102  33.102   8.255
 7090POPC   C3B21921  21.174  33.119   7.955
 7090POPC   C4B21922  21.165  33.094   7.655
 7091POPC   NC321923  27.553   8.170   9.455
 7091POPC   PO421924  27.590   8.205   9.155
 7091POPC   GL121925  27.600   8.236   8.855
 7091POPC   GL221926  27.626   8.081   8.855
 7091POPC   C1A21927  27.628   8.229   8.555
 7091POPC   D2A21928  27.579   8.205   8.255
 7091POPC   C3A21929  27.557   8.176   7.955
 7091POPC   C4A21930  27.631   8.218   7.655
 7091POPC   C1B21931  27.657   7.958   8.555
 7091POPC   C2B21932  27.697   7.934   8.255
 7091POPC   C3B21933  27.723   8.000   7.955
 7091POPC   C4B21934  27.656   7.958   7.655
 7092POPC   NC321935  14.373   0.439   9.455
 7092POPC   PO421936  14.401   0.450   9.155
 7092POPC   GL121937  14.447   0.443   8.855
 7092POPC   GL221938  14.507   0.499   8.855
 7092POPC   C1A21939  14.446   0.402   8.555
 7092POPC   D2A21940  14.434   0.396   8.255
 7092POPC   C3A21941  14.355   0.418   7.955
 7092POPC   C4A21942  14.414   0.437   7.655
 7092POPC   C1B21943  14.580   0.624   8.555
 7092POPC   C2B21944  14.551   0.635   8.255
 7092POPC   C3B21945  14.620   0.648   7.955
 7092POPC   C4B21946  14.583   0.637   7.655
 7093POPC   NC321947   1.971  36.916   9.455
 7093POPC   PO421948   1.944  36.868   9.155
 7093POPC   GL121949   2.037  36.888   8.855
 7093POPC   GL221950   2.006  36.803   8.855
 7093POPC   C1A21951   1.961  36.883   8.555
 7093POPC   D2A21952   1.970  36.892   8.255
 7093POPC   C3A21953   2.035  36.863   7.955
 7093POPC   C4A21954   1.987  36.944   7.655
 7093POPC   C1B21955   2.089  36.654   8.555
 7093POPC   C2B21956   2.063  36.683   8.255
 7093POPC   C3B21957   2.071  36.687   7.955
 7093POPC   C4B21958   2.125  36.688   7.655
 7094POPC   NC321959   9.013  10.499   9.455
 7094POPC   PO421960   8.948  10.491   9.155
 7094POPC   GL121961   8.925  10.566   8.855
 7094POPC   GL221962   9.080  10.449   8.855
 7094POPC   C1A21963   8.960  10.526   8.555
 7094POPC   D2A21964   8.994  10.564   8.255
 7094POPC   C3A21965   8.952  10.536   7.955
 7094POPC   C4A21966   9.022  10.510   7.655
 7094POPC   C1B21967   9.178  10.374   8.555
 7094POPC   C2B21968   9.111  10.370   8.255
 7094POPC   C3B21969   9.173  10.343   7.955
 7094POPC   C4B21970   9.152  10.330   7.655
 7095POPC   NC321971   1.994   4.367   9.455
 7095POPC   PO421972   1.970   4.357   9.155
 7095POPC   GL121973   2.000   4.347   8.855
 7095POPC   GL221974   2.001   4.227   8.855
 7095POPC   C1A21975   1.942   4.327   8.555
 7095POPC   D2A21976   1.995   4.301   8.255
 7095POPC   C3A21977   1.986   4.340   7.955
 7095POPC   C4A21978   1.970   4.291   7.655
 7095POPC   C1B21979   1.886   4.126   8.555
 7095POPC   C2B21980   1.900   4.071   8.255
 7095POPC   C3B21981   1.970   4.070   7.955
 7095POPC   C4B21982   1.931   4.070   7.655
 7096POPC   NC321983  43.911   4.279   9.455
 7096POPC   PO421984  43.890   4.302   9.155
 7096POPC   GL121985  43.860   4.271   8.855
 7096POPC   GL221986  43.904   4.206   8.855
 7096POPC   C1A21987  43.880   4.362   8.555
 7096POPC   D2A21988  43.935   4.365   8.255
 7096POPC   C3A21989  43.884   4.310   7.955
 7096POPC   C4A21990  43.858   4.282   7.655
 7096POPC   C1B21991  43.874   4.051   8.555
 7096POPC   C2B21992  43.873   4.042   8.255
 7096POPC   C3B21993  43.895   4.113   7.955
 7096POPC   C4B21994  43.826   4.101   7.655
 7097POPC   NC321995  22.140  39.958   9.455
 7097POPC   PO421996  22.112  40.030   9.155
 7097POPC   GL121997  22.142  39.996   8.855
 7097POPC   GL221998  22.284  40.110   8.855
 7097POPC   C1A21999  22.189  40.012   8.555
 7097POPC   D2A22000  22.180  40.023   8.255
 7097POPC   C3A22001  22.171  40.032   7.955
 7097POPC   C4A22002  22.177  39.996   7.655
 7097POPC   C1B22003  22.364  40.157   8.555
 7097POPC   C2B22004  22.325  40.167   8.255
 7097POPC   C3B22005  22.366  40.115   7.955
 7097POPC   C4B22006  22.352  40.213   7.655
 7098POPC   NC322007  12.081  37.651   9.455
 7098POPC   PO422008  12.069  37.698   9.155
 7098POPC   GL122009  12.074  37.710   8.855
 7098POPC   GL222010  11.997  37.667   8.855
 7098POPC   C1A22011  12.097  37.707   8.555
 7098POPC   D2A22012  12.066  37.670   8.255
 7098POPC   C3A22013  12.072  37.687   7.955
 7098POPC   C4A22014  12.081  37.675   7.655
 7098POPC   C1B22015  11.844  37.700   8.555
 7098POPC   C2B22016  11.855  37.695   8.255
 7098POPC   C3B22017  11.799  37.768   7.955
 7098POPC   C4B22018  11.790  37.728   7.655
 7099POPC   NC322019  16.001  15.229   9.455
 7099POPC   PO422020  15.979  15.180   9.155
 7099POPC   GL122021  15.994  15.208   8.855
 7099POPC   GL222022  16.083  15.137   8.855
 7099POPC   C1A22023  15.992  15.223   8.555
 7099POPC   D2A22024  15.950  15.168   8.255
 7099POPC   C3A22025  15.931  15.136   7.955
 7099POPC   C4A22026  15.977  15.210   7.655
 7099POPC   C1B22027  16.180  15.167   8.555
 7099POPC   C2B22028  16.157  15.123   8.255
 7099POPC   C3B22029  16.212  15.143   7.955
 7099POPC   C4B22030  16.175  15.198   7.655
 7100POPC   NC322031  16.710  25.241   9.455
 7100POPC   PO422032  16.712  25.237   9.155
 7100POPC   GL122033  16.707  25.315   8.855
 7100POPC   GL222034  16.668  25.350   8.855
 7100POPC   C1A22035  16.779  25.304   8.555
 7100POPC   D2A22036  16.732  25.224   8.255
 7100POPC   C3A22037  16.683  25.259   7.955
 7100POPC   C4A22038  16.729  25.295   7.655
 7100POPC   C1B22039  16.569  25.447   8.555
 7100POPC   C2B22040  16.497  25.398   8.255
 7100POPC   C3B22041  16.505  25.402   7.955
 7100POPC   C4B22042  16.555  25.368   7.655
 7101POPC   NC322043  43.860   9.752   9.455
 7101POPC   PO422044  43.866   9.737   9.155
 7101POPC   GL122045  43.884   9.738   8.855
 7101POPC   GL222046  43.865   9.601   8.855
 7101POPC   C1A22047  43.893   9.747   8.555
 7101POPC   D2A22048  43.882   9.737   8.255
 7101POPC   C3A22049  43.894   9.707   7.955
 7101POPC   C4A22050  43.934   9.791   7.655
 7101POPC   C1B22051  43.837   9.553   8.555
 7101POPC   C2B22052  43.808   9.463   8.255
 7101POPC   C3B22053  43.854   9.517   7.955
 7101POPC   C4B22054  43.836   9.464   7.655
 7102POPC   NC322055  27.620  26.795   9.455
 7102POPC   PO422056  27.640  26.800   9.155
 7102POPC   GL122057  27.560  26.782   8.855
 7102POPC   GL222058  27.600  26.726   8.855
 7102POPC   C1A22059  27.627  26.859   8.555
 7102POPC   D2A22060  27.571  26.792   8.255
 7102POPC   C3A22061  27.615  26.813   7.955
 7102POPC   C4A22062  27.633  26.829   7.655
 7102POPC   C1B22063  27.527  26.568   8.555
 7102POPC   C2B22064  27.527  26.535   8.255
 7102POPC   C3B22065  27.543  26.611   7.955
 7102POPC   C4B22066  27.597  26.586   7.655
 7103POPC   NC322067  15.917  15.967   9.455
 7103POPC   PO422068  15.934  15.979   9.155
 7103POPC   GL122069  15.941  15.963   8.855
 7103POPC   GL222070  15.801  15.848   8.855
 7103POPC   C1A22071  15.932  15.973   8.555
 7103POPC   D2A22072  15.987  15.996   8.255
 7103POPC   C3A22073  15.937  15.945   7.955
 7103POPC   C4A22074  15.954  15.945   7.655
 7103POPC   C1B22075  15.785  15.810   8.555
 7103POPC   C2B22076  15.757  15.790   8.255
 7103POPC   C3B22077  15.763  15.800   7.955
 7103POPC   C4B22078  15.755  15.842   7.655
 7104POPC   NC322079  12.116  11.329   9.455
 7104POPC   PO422080  12.087  11.292   9.155
 7104POPC   GL122081  12.061  11.294   8.855
 7104POPC   GL222082  12.223  11.400   8.855
 7104POPC   C1A22083  12.060  11.309   8.555
 7104POPC   D2A22084  12.030  11.340   8.255
 7104POPC   C3A22085  12.114  11.272   7.955
 7104POPC   C4A22086  12.086  11.264   7.655
 7104POPC   C1B22087  12.330  11.448   8.555
 7104POPC   C2B22088  12.278  11.387   8.255
 7104POPC   C3B22089  12.272  11.392   7.955
 7104POPC   C4B22090  12.352  11.371   7.655
 7105POPC   NC322091  27.637  18.312   9.455
 7105POPC   PO422092  27.578  18.326   9.155
 7105POPC   GL122093  27.624  18.244   8.855
 7105POPC   GL222094  27.694  18.283   8.855
 7105POPC   C1A22095  27.547  18.288   8.555
 7105POPC   D2A22096  27.583  18.333   8.255
 7105POPC   C3A22097  27.587  18.260   7.955
 7105POPC   C4A22098  27.557  18.321   7.655
 7105POPC   C1B22099  27.776  18.337   8.555
 7105POPC   C2B22100  27.841  18.373   8.255
 7105POPC   C3B22101  27.840  18.347   7.955
 7105POPC   C4B22102  27.814  18.375   7.655
 7106POPC   NC322103  29.908  27.585   9.455
 7106POPC   PO422104  29.900  27.629   9.155
 7106POPC   GL122105  29.954  27.597   8.855
 7106POPC   GL222106  30.048  27.546   8.855
 7106POPC   C1A22107  29.953  27.585   8.555
 7106POPC   D2A22108  29.937  27.618   8.255
 7106POPC   C3A22109  29.885  27.545   7.955
 7106POPC   C4A22110  29.951  27.569   7.655
 7106POPC   C1B22111  30.183  27.579   8.555
 7106POPC   C2B22112  30.153  27.552   8.255
 7106POPC   C3B22113  30.165  27.559   7.955
 7106POPC   C4B22114  30.205  27.622   7.655
 7107POPC   NC322115  29.109  28.355   9.455
 7107POPC   PO422116  29.130  28.380   9.155
 7107POPC   GL122117  29.130  28.368   8.855
 7107POPC   GL222118  28.997  28.438   8.855
 7107POPC   C1A22119  29.134  28.411   8.555
 7107POPC   D2A22120  29.101  28.332   8.255
 7107POPC   C3A22121  29.122  28.399   7.955
 7107POPC   C4A22122  29.173  28.381   7.655
 7107POPC   C1B22123  28.889  28.419   8.555
 7107POPC   C2B22124  28.935  28.411   8.255
 7107POPC   C3B22125  28.899  28.398   7.955
 7107POPC   C4B22126  28.885  28.363   7.655
 7108POPC   NC322127  15.171  12.038   9.455
 7108POPC   PO422128  15.133  12.078   9.155
 7108POPC   GL122129  15.229  12.045   8.855
 7108POPC   GL222130  15.294  12.122   8.855
 7108POPC   C1A22131  15.134  12.099   8.555
 7108POPC   D2A22132  15.136  12.067   8.255
 7108POPC   C3A22133  15.188  12.071   7.955
 7108POPC   C4A22134  15.195  12.119   7.655
 7108POPC   C1B22135  15.399  12.123   8.555
 7108POPC   C2B22136  15.426  12.126   8.255
 7108POPC   C3B22137  15.402  12.135   7.955
 7108POPC   C4B22138  15.438  12.093   7.655
 7109POPC   NC322139  36.869  43.143   9.455
 7109POPC   PO422140  36.897  43.125   9.155
 7109POPC   GL122141  36.928  43.094   8.855
 7109POPC   GL222142  36.815  42.986   8.855
 7109POPC   C1A22143  36.939  43.137   8.555
 7109POPC   D2A22144  36.888  43.159   8.255
 7109POPC   C3A22145  36.895  43.109   7.955
 7109POPC   C4A22146  36.928  43.144   7.655
 7109POPC   C1B22147  36.839  42.856   8.555
 7109POPC   C2B22148  36.763  42.856   8.255
 7109POPC   C3B22149  36.788  42.914   7.955
 7109POPC   C4B22150  36.778  42.904   7.655
 7110POPC   NC322151  14.418   2.024   9.455
 7110POPC   PO422152  14.365   1.958   9.155
 7110POPC   GL122153  14.389   1.995   8.855
 7110POPC   GL222154  14.295   1.889   8.855
 7110POPC   C1A22155  14.431   1.979   8.555
 7110POPC   D2A22156  14.373   1.977   8.255
 7110POPC   C3A22157  14.398   2.003   7.955
 7110POPC   C4A22158  14.435   1.954   7.655
 7110POPC   C1B22159  14.200   1.850   8.555
 7110POPC   C2B22160  14.168   1.865   8.255
 7110POPC   C3B22161  14.184   1.876   7.955
 7110POPC   C4B22162  14.230   1.823   7.655
 7111POPC   NC322163  28.332   5.856   9.455
 7111POPC   PO422164  28.355   5.868   9.155
 7111POPC   GL122165  28.397   5.863   8.855
 7111POPC   GL222166  28.318   5.940   8.855
 7111POPC   C1A22167  28.367   5.876   8.555
 7111POPC   D2A22168  28.347   5.846   8.255
 7111POPC   C3A22169  28.349   5.826   7.955
 7111POPC   C4A22170  28.357   5.878   7.655
 7111POPC   C1B22171  28.258   6.119   8.555
 7111POPC   C2B22172  28.342   6.127   8.255
 7111POPC   C3B22173  28.274   6.084   7.955
 7111POPC   C4B22174  28.251   6.104   7.655
 7112POPC   NC322175  15.187  22.164   9.455
 7112POPC   PO422176  15.134  22.197   9.155
 7112POPC   GL122177  15.184  22.117   8.855
 7112POPC   GL222178  15.077  22.200   8.855
 7112POPC   C1A22179  15.188  22.158   8.555
 7112POPC   D2A22180  15.131  22.156   8.255
 7112POPC   C3A22181  15.201  22.190   7.955
 7112POPC   C4A22182  15.215  22.144   7.655
 7112POPC   C1B22183  14.944  22.337   8.555
 7112POPC   C2B22184  15.037  22.313   8.255
 7112POPC   C3B22185  14.999  22.283   7.955
 7112POPC   C4B22186  14.989  22.280   7.655
 7113POPC   NC322187  20.627  43.855   9.455
 7113POPC   PO422188  20.573  43.879   9.155
 7113POPC   GL122189  20.589  43.850   8.855
 7113POPC   GL222190  20.472  43.825   8.855
 7113POPC   C1A22191  20.583  43.916   8.555
 7113POPC   D2A22192  20.599  43.913   8.255
 7113POPC   C3A22193  20.566  43.874   7.955
 7113POPC   C4A22194  20.603  43.915   7.655
 7113POPC   C1B22195  20.463  43.685   8.555
 7113POPC   C2B22196  20.445  43.721   8.255
 7113POPC   C3B22197  20.387  43.771   7.955
 7113POPC   C4B22198  20.446  43.750   7.655
 7114POPC   NC322199  18.253   2.039   9.455
 7114POPC   PO422200  18.279   1.946   9.155
 7114POPC   GL122201  18.308   2.021   8.855
 7114POPC   GL222202  18.257   2.066   8.855
 7114POPC   C1A22203  18.265   1.971   8.555
 7114POPC   D2A22204  18.283   1.972   8.255
 7114POPC   C3A22205  18.275   1.953   7.955
 7114POPC   C4A22206  18.290   2.000   7.655
 7114POPC   C1B22207  18.206   2.178   8.555
 7114POPC   C2B22208  18.216   2.221   8.255
 7114POPC   C3B22209  18.232   2.206   7.955
 7114POPC   C4B22210  18.204   2.253   7.655
 7115POPC   NC322211  12.071  38.484   9.455
 7115POPC   PO422212  12.097  38.468   9.155
 7115POPC   GL122213  12.093  38.427   8.855
 7115POPC   GL222214  11.958  38.403   8.855
 7115POPC   C1A22215  12.074  38.471   8.555
 7115POPC   D2A22216  12.050  38.502   8.255
 7115POPC   C3A22217  12.055  38.476   7.955
 7115POPC   C4A22218  12.084  38.480   7.655
 7115POPC   C1B22219  11.937  38.279   8.555
 7115POPC   C2B22220  11.896  38.223   8.255
 7115POPC   C3B22221  11.863  38.303   7.955
 7115POPC   C4B22222  11.864  38.241   7.655
 7116POPC   NC322223  15.989  18.242   9.455
 7116POPC   PO422224  15.945  18.282   9.155
 7116POPC   GL122225  15.930  18.304   8.855
 7116POPC   GL222226  15.853  18.342   8.855
 7116POPC   C1A22227  15.961  18.331   8.555
 7116POPC   D2A22228  15.972  18.236   8.255
 7116POPC   C3A22229  15.953  18.261   7.955
 7116POPC   C4A22230  15.976  18.264   7.655
 7116POPC   C1B22231  15.713  18.347   8.555
 7116POPC   C2B22232  15.708  18.258   8.255
 7116POPC   C3B22233  15.661  18.268   7.955
 7116POPC   C4B22234  15.740  18.355   7.655
 7117POPC   NC322235   0.406   5.079   9.455
 7117POPC   PO422236   0.457   5.101   9.155
 7117POPC   GL122237   0.399   5.055   8.855
 7117POPC   GL222238   0.480   4.954   8.855
 7117POPC   C1A22239   0.475   5.096   8.555
 7117POPC   D2A22240   0.436   5.059   8.255
 7117POPC   C3A22241   0.413   5.074   7.955
 7117POPC   C4A22242   0.425   5.099   7.655
 7117POPC   C1B22243   0.568   4.879   8.555
 7117POPC   C2B22244   0.516   4.825   8.255
 7117POPC   C3B22245   0.527   4.916   7.955
 7117POPC   C4B22246   0.521   4.868   7.655
 7118POPC   NC322247  34.604  26.081   9.455
 7118POPC   PO422248  34.527  26.067   9.155
 7118POPC   GL122249  34.624  26.079   8.855
 7118POPC   GL222250  34.477  26.069   8.855
 7118POPC   C1A22251  34.562  25.993   8.555
 7118POPC   D2A22252  34.564  25.997   8.255
 7118POPC   C3A22253  34.545  25.996   7.955
 7118POPC   C4A22254  34.582  26.001   7.655
 7118POPC   C1B22255  34.398  26.143   8.555
 7118POPC   C2B22256  34.323  26.154   8.255
 7118POPC   C3B22257  34.382  26.210   7.955
 7118POPC   C4B22258  34.336  26.212   7.655
 7119POPC   NC322259  13.675  28.374   9.455
 7119POPC   PO422260  13.675  28.417   9.155
 7119POPC   GL122261  13.604  28.399   8.855
 7119POPC   GL222262  13.615  28.536   8.855
 7119POPC   C1A22263  13.656  28.345   8.555
 7119POPC   D2A22264  13.636  28.337   8.255
 7119POPC   C3A22265  13.638  28.351   7.955
 7119POPC   C4A22266  13.580  28.391   7.655
 7119POPC   C1B22267  13.625  28.643   8.555
 7119POPC   C2B22268  13.683  28.590   8.255
 7119POPC   C3B22269  13.595  28.571   7.955
 7119POPC   C4B22270  13.683  28.654   7.655
 7120POPC   NC322271  43.122  14.417   9.455
 7120POPC   PO422272  43.090  14.417   9.155
 7120POPC   GL122273  43.120  14.387   8.855
 7120POPC   GL222274  42.988  14.414   8.855
 7120POPC   C1A22275  43.110  14.383   8.555
 7120POPC   D2A22276  43.069  14.357   8.255
 7120POPC   C3A22277  43.104  14.387   7.955
 7120POPC   C4A22278  43.147  14.355   7.655
 7120POPC   C1B22279  42.848  14.350   8.555
 7120POPC   C2B22280  42.861  14.375   8.255
 7120POPC   C3B22281  42.906  14.330   7.955
 7120POPC   C4B22282  42.825  14.367   7.655
 7121POPC   NC322283   8.931   9.756   9.455
 7121POPC   PO422284   9.013   9.767   9.155
 7121POPC   GL122285   9.005   9.741   8.855
 7121POPC   GL222286   9.055   9.749   8.855
 7121POPC   C1A22287   9.001   9.759   8.555
 7121POPC   D2A22288   8.941   9.724   8.255
 7121POPC   C3A22289   9.021   9.698   7.955
 7121POPC   C4A22290   8.937   9.757   7.655
 7121POPC   C1B22291   9.214   9.674   8.555
 7121POPC   C2B22292   9.183   9.685   8.255
 7121POPC   C3B22293   9.231   9.689   7.955
 7121POPC   C4B22294   9.241   9.686   7.655
 7122POPC   NC322295  44.660   4.322   9.455
 7122POPC   PO422296  44.632   4.280   9.155
 7122POPC   GL122297  44.710   4.359   8.855
 7122POPC   GL222298  44.662   4.396   8.855
 7122POPC   C1A22299  44.639   4.284   8.555
 7122POPC   D2A22300  44.663   4.351   8.255
 7122POPC   C3A22301  44.620   4.280   7.955
 7122POPC   C4A22302  44.668   4.295   7.655
 7122POPC   C1B22303  44.551   4.524   8.555
 7122POPC   C2B22304  44.591   4.577   8.255
 7122POPC   C3B22305  44.569   4.596   7.955
 7122POPC   C4B22306  44.594   4.582   7.655
 7123POPC   NC322307  30.704   3.526   9.455
 7123POPC   PO422308  30.648   3.546   9.155
 7123POPC   GL122309  30.667   3.540   8.855
 7123POPC   GL222310  30.714   3.650   8.855
 7123POPC   C1A22311  30.704   3.512   8.555
 7123POPC   D2A22312  30.744   3.561   8.255
 7123POPC   C3A22313  30.696   3.555   7.955
 7123POPC   C4A22314  30.740   3.515   7.655
 7123POPC   C1B22315  30.799   3.742   8.555
 7123POPC   C2B22316  30.723   3.750   8.255
 7123POPC   C3B22317  30.713   3.789   7.955
 7123POPC   C4B22318  30.760   3.744   7.655
 7124POPC   NC322319  33.794  26.837   9.455
 7124POPC   PO422320  33.797  26.772   9.155
 7124POPC   GL122321  33.774  26.828   8.855
 7124POPC   GL222322  33.846  26.886   8.855
 7124POPC   C1A22323  33.768  26.811   8.555
 7124POPC   D2A22324  33.808  26.784   8.255
 7124POPC   C3A22325  33.779  26.797   7.955
 7124POPC   C4A22326  33.811  26.786   7.655
 7124POPC   C1B22327  33.938  27.057   8.555
 7124POPC   C2B22328  33.953  27.040   8.255
 7124POPC   C3B22329  33.933  27.008   7.955
 7124POPC   C4B22330  33.924  27.002   7.655
 7125POPC   NC322331   2.007  25.247   9.455
 7125POPC   PO422332   1.957  25.256   9.155
 7125POPC   GL122333   1.952  25.224   8.855
 7125POPC   GL222334   2.094  25.384   8.855
 7125POPC   C1A22335   1.991  25.239   8.555
 7125POPC   D2A22336   1.956  25.224   8.255
 7125POPC   C3A22337   2.006  25.233   7.955
 7125POPC   C4A22338   2.018  25.302   7.655
 7125POPC   C1B22339   2.194  25.404   8.555
 7125POPC   C2B22340   2.193  25.443   8.255
 7125POPC   C3B22341   2.159  25.373   7.955
 7125POPC   C4B22342   2.172  25.382   7.655
 7126POPC   NC322343  11.322   0.465   9.455
 7126POPC   PO422344  11.265   0.488   9.155
 7126POPC   GL122345  11.335   0.465   8.855
 7126POPC   GL222346  11.235   0.516   8.855
 7126POPC   C1A22347  11.251   0.462   8.555
 7126POPC   D2A22348  11.290   0.423   8.255
 7126POPC   C3A22349  11.339   0.455   7.955
 7126POPC   C4A22350  11.257   0.481   7.655
 7126POPC   C1B22351  11.203   0.602   8.555
 7126POPC   C2B22352  11.154   0.670   8.255
 7126POPC   C3B22353  11.127   0.648   7.955
 7126POPC   C4B22354  11.133   0.592   7.655
 7127POPC   NC322355   9.782  40.030   9.455
 7127POPC   PO422356   9.729  40.000   9.155
 7127POPC   GL122357   9.713  39.961   8.855
 7127POPC   GL222358   9.834  39.852   8.855
 7127POPC   C1A22359   9.744  39.970   8.555
 7127POPC   D2A22360   9.774  39.957   8.255
 7127POPC   C3A22361   9.727  40.025   7.955
 7127POPC   C4A22362   9.794  40.010   7.655
 7127POPC   C1B22363   9.909  39.824   8.555
 7127POPC   C2B22364   9.868  39.800   8.255
 7127POPC   C3B22365   9.878  39.785   7.955
 7127POPC   C4B22366   9.825  39.801   7.655
 7128POPC   NC322367   2.730  40.796   9.455
 7128POPC   PO422368   2.760  40.739   9.155
 7128POPC   GL122369   2.799  40.778   8.855
 7128POPC   GL222370   2.706  40.701   8.855
 7128POPC   C1A22371   2.773  40.786   8.555
 7128POPC   D2A22372   2.777  40.808   8.255
 7128POPC   C3A22373   2.721  40.747   7.955
 7128POPC   C4A22374   2.744  40.802   7.655
 7128POPC   C1B22375   2.725  40.505   8.555
 7128POPC   C2B22376   2.751  40.532   8.255
 7128POPC   C3B22377   2.688  40.504   7.955
 7128POPC   C4B22378   2.743  40.518   7.655
 7129POPC   NC322379  39.981  14.415   9.455
 7129POPC   PO422380  39.987  14.435   9.155
 7129POPC   GL122381  40.005  14.393   8.855
 7129POPC   GL222382  39.905  14.417   8.855
 7129POPC   C1A22383  39.971  14.449   8.555
 7129POPC   D2A22384  40.021  14.430   8.255
 7129POPC   C3A22385  39.960  14.354   7.955
 7129POPC   C4A22386  40.027  14.451   7.655
 7129POPC   C1B22387  39.744  14.470   8.555
 7129POPC   C2B22388  39.746  14.432   8.255
 7129POPC   C3B22389  39.715  14.446   7.955
 7129POPC   C4B22390  39.761  14.428   7.655
 7130POPC   NC322391   4.361  21.419   9.455
 7130POPC   PO422392   4.298  21.373   9.155
 7130POPC   GL122393   4.316  21.374   8.855
 7130POPC   GL222394   4.381  21.510   8.855
 7130POPC   C1A22395   4.283  21.435   8.555
 7130POPC   D2A22396   4.272  21.345   8.255
 7130POPC   C3A22397   4.285  21.358   7.955
 7130POPC   C4A22398   4.349  21.385   7.655
 7130POPC   C1B22399   4.484  21.622   8.555
 7130POPC   C2B22400   4.480  21.557   8.255
 7130POPC   C3B22401   4.462  21.569   7.955
 7130POPC   C4B22402   4.488  21.551   7.655
 7131POPC   NC322403  41.598   6.687   9.455
 7131POPC   PO422404  41.539   6.622   9.155
 7131POPC   GL122405  41.579   6.670   8.855
 7131POPC   GL222406  41.610   6.772   8.855
 7131POPC   C1A22407  41.522   6.670   8.555
 7131POPC   D2A22408  41.540   6.670   8.255
 7131POPC   C3A22409  41.585   6.681   7.955
 7131POPC   C4A22410  41.517   6.599   7.655
 7131POPC   C1B22411  41.677   6.807   8.555
 7131POPC   C2B22412  41.686   6.804   8.255
 7131POPC   C3B22413  41.662   6.882   7.955
 7131POPC   C4B22414  41.735   6.857   7.655
 7132POPC   NC322415  34.559  30.670   9.455
 7132POPC   PO422416  34.573  30.735   9.155
 7132POPC   GL122417  34.526  30.713   8.855
 7132POPC   GL222418  34.508  30.621   8.855
 7132POPC   C1A22419  34.592  30.707   8.555
 7132POPC   D2A22420  34.569  30.668   8.255
 7132POPC   C3A22421  34.543  30.714   7.955
 7132POPC   C4A22422  34.552  30.708   7.655
 7132POPC   C1B22423  34.506  30.433   8.555
 7132POPC   C2B22424  34.493  30.448   8.255
 7132POPC   C3B22425  34.524  30.438   7.955
 7132POPC   C4B22426  34.448  30.507   7.655
 7133POPC   NC322427  14.374  19.086   9.455
 7133POPC   PO422428  14.412  19.029   9.155
 7133POPC   GL122429  14.435  19.088   8.855
 7133POPC   GL222430  14.325  19.166   8.855
 7133POPC   C1A22431  14.359  19.021   8.555
 7133POPC   D2A22432  14.389  19.080   8.255
 7133POPC   C3A22433  14.419  19.098   7.955
 7133POPC   C4A22434  14.382  19.032   7.655
 7133POPC   C1B22435  14.355  19.329   8.555
 7133POPC   C2B22436  14.271  19.302   8.255
 7133POPC   C3B22437  14.268  19.335   7.955
 7133POPC   C4B22438  14.331  19.311   7.655
 7134POPC   NC322439  10.493   2.809   9.455
 7134POPC   PO422440  10.502   2.739   9.155
 7134POPC   GL122441  10.483   2.808   8.855
 7134POPC   GL222442  10.481   2.655   8.855
 7134POPC   C1A22443  10.495   2.794   8.555
 7134POPC   D2A22444  10.504   2.738   8.255
 7134POPC   C3A22445  10.522   2.806   7.955
 7134POPC   C4A22446  10.498   2.772   7.655
 7134POPC   C1B22447  10.494   2.498   8.555
 7134POPC   C2B22448  10.494   2.524   8.255
 7134POPC   C3B22449  10.458   2.489   7.955
 7134POPC   C4B22450  10.516   2.505   7.655
 7135POPC   NC322451  19.838  12.029   9.455
 7135POPC   PO422452  19.802  12.075   9.155
 7135POPC   GL122453  19.860  12.123   8.855
 7135POPC   GL222454  19.672  12.091   8.855
 7135POPC   C1A22455  19.822  12.122   8.555
 7135POPC   D2A22456  19.815  12.060   8.255
 7135POPC   C3A22457  19.870  12.066   7.955
 7135POPC   C4A22458  19.806  12.104   7.655
 7135POPC   C1B22459  19.647  12.145   8.555
 7135POPC   C2B22460  19.641  12.167   8.255
 7135POPC   C3B22461  19.613  12.183   7.955
 7135POPC   C4B22462  19.598  12.137   7.655
 7136POPC   NC322463   0.391  27.601   9.455
 7136POPC   PO422464   0.469  27.625   9.155
 7136POPC   GL122465   0.418  27.632   8.855
 7136POPC   GL222466   0.451  27.492   8.855
 7136POPC   C1A22467   0.484  27.599   8.555
 7136POPC   D2A22468   0.419  27.550   8.255
 7136POPC   C3A22469   0.408  27.550   7.955
 7136POPC   C4A22470   0.463  27.550   7.655
 7136POPC   C1B22471   0.451  27.343   8.555
 7136POPC   C2B22472   0.473  27.358   8.255
 7136POPC   C3B22473   0.409  27.300   7.955
 7136POPC   C4B22474   0.491  27.324   7.655
 7137POPC   NC322475  32.242  24.503   9.455
 7137POPC   PO422476  32.221  24.440   9.155
 7137POPC   GL122477  32.294  24.475   8.855
 7137POPC   GL222478  32.239  24.566   8.855
 7137POPC   C1A22479  32.286  24.534   8.555
 7137POPC   D2A22480  32.265  24.530   8.255
 7137POPC   C3A22481  32.229  24.486   7.955
 7137POPC   C4A22482  32.221  24.500   7.655
 7137POPC   C1B22483  32.157  24.757   8.555
 7137POPC   C2B22484  32.124  24.767   8.255
 7137POPC   C3B22485  32.121  24.737   7.955
 7137POPC   C4B22486  32.184  24.679   7.655
 7138POPC   NC322487   4.305   7.422   9.455
 7138POPC   PO422488   4.324   7.374   9.155
 7138POPC   GL122489   4.335   7.419   8.855
 7138POPC   GL222490   4.324   7.492   8.855
 7138POPC   C1A22491   4.278   7.382   8.555
 7138POPC   D2A22492   4.323   7.418   8.255
 7138POPC   C3A22493   4.333   7.433   7.955
 7138POPC   C4A22494   4.296   7.410   7.655
 7138POPC   C1B22495   4.444   7.627   8.555
 7138POPC   C2B22496   4.402   7.620   8.255
 7138POPC   C3B22497   4.439   7.693   7.955
 7138POPC   C4B22498   4.454   7.635   7.655
 7139POPC   NC322499  28.394  40.043   9.455
 7139POPC   PO422500  28.386  40.019   9.155
 7139POPC   GL122501  28.378  39.985   8.855
 7139POPC   GL222502  28.292  40.110   8.855
 7139POPC   C1A22503  28.395  40.009   8.555
 7139POPC   D2A22504  28.343  40.052   8.255
 7139POPC   C3A22505  28.357  39.995   7.955
 7139POPC   C4A22506  28.414  40.004   7.655
 7139POPC   C1B22507  28.226  40.280   8.555
 7139POPC   C2B22508  28.299  40.204   8.255
 7139POPC   C3B22509  28.314  40.258   7.955
 7139POPC   C4B22510  28.317  40.229   7.655
 7140POPC   NC322511  11.252  10.496   9.455
 7140POPC   PO422512  11.347  10.479   9.155
 7140POPC   GL122513  11.320  10.567   8.855
 7140POPC   GL222514  11.307  10.632   8.855
 7140POPC   C1A22515  11.321  10.486   8.555
 7140POPC   D2A22516  11.297  10.485   8.255
 7140POPC   C3A22517  11.338  10.515   7.955
 7140POPC   C4A22518  11.273  10.528   7.655
 7140POPC   C1B22519  11.360  10.725   8.555
 7140POPC   C2B22520  11.319  10.748   8.255
 7140POPC   C3B22521  11.373  10.762   7.955
 7140POPC   C4B22522  11.374  10.762   7.655
 7141POPC   NC322523  40.804   0.417   9.455
 7141POPC   PO422524  40.801   0.486   9.155
 7141POPC   GL122525  40.803   0.470   8.855
 7141POPC   GL222526  40.835   0.354   8.855
 7141POPC   C1A22527  40.788   0.472   8.555
 7141POPC   D2A22528  40.735   0.468   8.255
 7141POPC   C3A22529  40.772   0.467   7.955
 7141POPC   C4A22530  40.762   0.412   7.655
 7141POPC   C1B22531  40.943   0.304   8.555
 7141POPC   C2B22532  40.999   0.302   8.255
 7141POPC   C3B22533  40.987   0.283   7.955
 7141POPC   C4B22534  40.975   0.283   7.655
 7142POPC   NC322535   7.406  29.910   9.455
 7142POPC   PO422536   7.424  29.952   9.155
 7142POPC   GL122537   7.468  29.876   8.855
 7142POPC   GL222538   7.443  29.799   8.855
 7142POPC   C1A22539   7.456  29.933   8.555
 7142POPC   D2A22540   7.394  29.872   8.255
 7142POPC   C3A22541   7.432  29.880   7.955
 7142POPC   C4A22542   7.449  29.960   7.655
 7142POPC   C1B22543   7.597  29.730   8.555
 7142POPC   C2B22544   7.585  29.706   8.255
 7142POPC   C3B22545   7.521  29.664   7.955
 7142POPC   C4B22546   7.575  29.759   7.655
 7143POPC   NC322547  22.941  26.086   9.455
 7143POPC   PO422548  22.923  26.049   9.155
 7143POPC   GL122549  22.947  26.063   8.855
 7143POPC   GL222550  22.917  25.894   8.855
 7143POPC   C1A22551  22.901  26.036   8.555
 7143POPC   D2A22552  22.925  26.055   8.255
 7143POPC   C3A22553  22.917  26.055   7.955
 7143POPC   C4A22554  22.980  26.057   7.655
 7143POPC   C1B22555  22.858  25.751   8.555
 7143POPC   C2B22556  22.880  25.777   8.255
 7143POPC   C3B22557  22.845  25.776   7.955
 7143POPC   C4B22558  22.895  25.803   7.655
 7144POPC   NC322559  24.461  26.840   9.455
 7144POPC   PO422560  24.486  26.835   9.155
 7144POPC   GL122561  24.527  26.852   8.855
 7144POPC   GL222562  24.481  26.743   8.855
 7144POPC   C1A22563  24.478  26.780   8.555
 7144POPC   D2A22564  24.508  26.805   8.255
 7144POPC   C3A22565  24.520  26.793   7.955
 7144POPC   C4A22566  24.478  26.852   7.655
 7144POPC   C1B22567  24.451  26.538   8.555
 7144POPC   C2B22568  24.472  26.571   8.255
 7144POPC   C3B22569  24.483  26.524   7.955
 7144POPC   C4B22570  24.452  26.530   7.655
 7145POPC   NC322571  11.336  25.997   9.455
 7145POPC   PO422572  11.330  26.068   9.155
 7145POPC   GL122573  11.292  26.080   8.855
 7145POPC   GL222574  11.250  26.102   8.855
 7145POPC   C1A22575  11.305  26.072   8.555
 7145POPC   D2A22576  11.265  26.070   8.255
 7145POPC   C3A22577  11.260  26.024   7.955
 7145POPC   C4A22578  11.308  26.010   7.655
 7145POPC   C1B22579  11.124  26.205   8.555
 7145POPC   C2B22580  11.100  26.253   8.255
 7145POPC   C3B22581  11.122  26.243   7.955
 7145POPC   C4B22582  11.138  26.219   7.655
 7146POPC   NC322583  36.160  20.608   9.455
 7146POPC   PO422584  36.150  20.620   9.155
 7146POPC   GL122585  36.090  20.597   8.855
 7146POPC   GL222586  35.984  20.660   8.855
 7146POPC   C1A22587  36.157  20.649   8.555
 7146POPC   D2A22588  36.164  20.605   8.255
 7146POPC   C3A22589  36.110  20.565   7.955
 7146POPC   C4A22590  36.098  20.564   7.655
 7146POPC   C1B22591  35.872  20.600   8.555
 7146POPC   C2B22592  35.846  20.623   8.255
 7146POPC   C3B22593  35.901  20.592   7.955
 7146POPC   C4B22594  35.887  20.619   7.655
 7147POPC   NC322595   2.033  32.264   9.455
 7147POPC   PO422596   1.971  32.264   9.155
 7147POPC   GL122597   1.981  32.249   8.855
 7147POPC   GL222598   2.076  32.251   8.855
 7147POPC   C1A22599   2.008  32.257   8.555
 7147POPC   D2A22600   1.960  32.296   8.255
 7147POPC   C3A22601   1.987  32.226   7.955
 7147POPC   C4A22602   1.950  32.261   7.655
 7147POPC   C1B22603   2.256  32.213   8.555
 7147POPC   C2B22604   2.215  32.194   8.255
 7147POPC   C3B22605   2.192  32.186   7.955
 7147POPC   C4B22606   2.205  32.203   7.655
 7148POPC   NC322607  29.878  38.459   9.455
 7148POPC   PO422608  29.966  38.477   9.155
 7148POPC   GL122609  29.934  38.491   8.855
 7148POPC   GL222610  29.870  38.602   8.855
 7148POPC   C1A22611  29.902  38.472   8.555
 7148POPC   D2A22612  29.886  38.418   8.255
 7148POPC   C3A22613  29.894  38.504   7.955
 7148POPC   C4A22614  29.917  38.480   7.655
 7148POPC   C1B22615  29.906  38.666   8.555
 7148POPC   C2B22616  29.861  38.750   8.255
 7148POPC   C3B22617  29.892  38.657   7.955
 7148POPC   C4B22618  29.925  38.657   7.655
 7149POPC   NC322619   0.453  20.590   9.455
 7149POPC   PO422620   0.393  20.584   9.155
 7149POPC   GL122621   0.487  20.597   8.855
 7149POPC   GL222622   0.458  20.699   8.855
 7149POPC   C1A22623   0.473  20.610   8.555
 7149POPC   D2A22624   0.478  20.570   8.255
 7149POPC   C3A22625   0.485  20.595   7.955
 7149POPC   C4A22626   0.408  20.569   7.655
 7149POPC   C1B22627   0.480  20.857   8.555
 7149POPC   C2B22628   0.498  20.861   8.255
 7149POPC   C3B22629   0.497  20.849   7.955
 7149POPC   C4B22630   0.446  20.885   7.655
 7150POPC   NC322631  30.735  35.392   9.455
 7150POPC   PO422632  30.654  35.337   9.155
 7150POPC   GL122633  30.718  35.379   8.855
 7150POPC   GL222634  30.666  35.464   8.855
 7150POPC   C1A22635  30.738  35.384   8.555
 7150POPC   D2A22636  30.722  35.348   8.255
 7150POPC   C3A22637  30.655  35.350   7.955
 7150POPC   C4A22638  30.657  35.349   7.655
 7150POPC   C1B22639  30.610  35.578   8.555
 7150POPC   C2B22640  30.675  35.576   8.255
 7150POPC   C3B22641  30.640  35.639   7.955
 7150POPC   C4B22642  30.669  35.602   7.655
 7151POPC   NC322643  29.896  39.219   9.455
 7151POPC   PO422644  29.905  39.210   9.155
 7151POPC   GL122645  29.936  39.227   8.855
 7151POPC   GL222646  30.071  39.215   8.855
 7151POPC   C1A22647  29.937  39.219   8.555
 7151POPC   D2A22648  29.946  39.251   8.255
 7151POPC   C3A22649  29.969  39.273   7.955
 7151POPC   C4A22650  29.905  39.263   7.655
 7151POPC   C1B22651  30.180  39.283   8.555
 7151POPC   C2B22652  30.219  39.300   8.255
 7151POPC   C3B22653  30.200  39.265   7.955
 7151POPC   C4B22654  30.187  39.225   7.655
 7152POPC   NC322655  38.483  12.057   9.455
 7152POPC   PO422656  38.489  12.091   9.155
 7152POPC   GL122657  38.450  12.093   8.855
 7152POPC   GL222658  38.433  11.946   8.855
 7152POPC   C1A22659  38.429  12.081   8.555
 7152POPC   D2A22660  38.448  12.083   8.255
 7152POPC   C3A22661  38.482  12.038   7.955
 7152POPC   C4A22662  38.452  12.038   7.655
 7152POPC   C1B22663  38.431  11.834   8.555
 7152POPC   C2B22664  38.441  11.790   8.255
 7152POPC   C3B22665  38.418  11.855   7.955
 7152POPC   C4B22666  38.400  11.847   7.655
 7153POPC   NC322667   8.194  37.676   9.455
 7153POPC   PO422668   8.196  37.646   9.155
 7153POPC   GL122669   8.213  37.683   8.855
 7153POPC   GL222670   8.302  37.828   8.855
 7153POPC   C1A22671   8.217  37.726   8.555
 7153POPC   D2A22672   8.220  37.714   8.255
 7153POPC   C3A22673   8.211  37.696   7.955
 7153POPC   C4A22674   8.216  37.690   7.655
 7153POPC   C1B22675   8.352  37.903   8.555
 7153POPC   C2B22676   8.319  37.860   8.255
 7153POPC   C3B22677   8.308  37.856   7.955
 7153POPC   C4B22678   8.299  37.893   7.655
 7154POPC   NC322679  29.879  39.960   9.455
 7154POPC   PO422680  29.895  40.018   9.155
 7154POPC   GL122681  29.934  39.982   8.855
 7154POPC   GL222682  29.815  39.998   8.855
 7154POPC   C1A22683  29.879  39.988   8.555
 7154POPC   D2A22684  29.911  40.039   8.255
 7154POPC   C3A22685  29.920  39.974   7.955
 7154POPC   C4A22686  29.917  40.021   7.655
 7154POPC   C1B22687  29.663  40.109   8.555
 7154POPC   C2B22688  29.668  40.072   8.255
 7154POPC   C3B22689  29.703  40.091   7.955
 7154POPC   C4B22690  29.695  40.060   7.655
 7155POPC   NC322691  16.720  39.238   9.455
 7155POPC   PO422692  16.779  39.199   9.155
 7155POPC   GL122693  16.714  39.277   8.855
 7155POPC   GL222694  16.884  39.214   8.855
 7155POPC   C1A22695  16.753  39.204   8.555
 7155POPC   D2A22696  16.704  39.278   8.255
 7155POPC   C3A22697  16.727  39.197   7.955
 7155POPC   C4A22698  16.717  39.257   7.655
 7155POPC   C1B22699  16.948  39.289   8.555
 7155POPC   C2B22700  16.999  39.231   8.255
 7155POPC   C3B22701  17.011  39.307   7.955
 7155POPC   C4B22702  16.948  39.289   7.655
 7156POPC   NC322703  11.302  30.720   9.455
 7156POPC   PO422704  11.305  30.661   9.155
 7156POPC   GL122705  11.264  30.719   8.855
 7156POPC   GL222706  11.327  30.837   8.855
 7156POPC   C1A22707  11.266  30.693   8.555
 7156POPC   D2A22708  11.337  30.723   8.255
 7156POPC   C3A22709  11.329  30.671   7.955
 7156POPC   C4A22710  11.313  30.729   7.655
 7156POPC   C1B22711  11.285  30.956   8.555
 7156POPC   C2B22712  11.280  30.924   8.255
 7156POPC   C3B22713  11.294  30.992   7.955
 7156POPC   C4B22714  11.275  30.948   7.655
 7157POPC   NC322715  19.102   1.204   9.455
 7157POPC   PO422716  19.081   1.212   9.155
 7157POPC   GL122717  19.087   1.242   8.855
 7157POPC   GL222718  19.036   1.301   8.855
 7157POPC   C1A22719  19.062   1.204   8.555
 7157POPC   D2A22720  19.093   1.180   8.255
 7157POPC   C3A22721  19.067   1.206   7.955
 7157POPC   C4A22722  19.059   1.178   7.655
 7157POPC   C1B22723  18.940   1.472   8.555
 7157POPC   C2B22724  18.872   1.469   8.255
 7157POPC   C3B22725  18.922   1.413   7.955
 7157POPC   C4B22726  18.877   1.460   7.655
 7158POPC   NC322727  41.576   5.900   9.455
 7158POPC   PO422728  41.514   5.913   9.155
 7158POPC   GL122729  41.590   5.880   8.855
 7158POPC   GL222730  41.485   5.808   8.855
 7158POPC   C1A22731  41.522   5.848   8.555
 7158POPC   D2A22732  41.570   5.914   8.255
 7158POPC   C3A22733  41.607   5.857   7.955
 7158POPC   C4A22734  41.597   5.858   7.655
 7158POPC   C1B22735  41.361   5.703   8.555
 7158POPC   C2B22736  41.351   5.690   8.255
 7158POPC   C3B22737  41.358   5.729   7.955
 7158POPC   C4B22738  41.398   5.739   7.655
 7159POPC   NC322739  17.477  34.530   9.455
 7159POPC   PO422740  17.519  34.625   9.155
 7159POPC   GL122741  17.462  34.553   8.855
 7159POPC   GL222742  17.455  34.652   8.855
 7159POPC   C1A22743  17.470  34.605   8.555
 7159POPC   D2A22744  17.473  34.611   8.255
 7159POPC   C3A22745  17.535  34.554   7.955
 7159POPC   C4A22746  17.551  34.622   7.655
 7159POPC   C1B22747  17.331  34.799   8.555
 7159POPC   C2B22748  17.365  34.714   8.255
 7159POPC   C3B22749  17.333  34.764   7.955
 7159POPC   C4B22750  17.356  34.729   7.655
 7160POPC   NC322751  19.012  33.812   9.455
 7160POPC   PO422752  19.071  33.759   9.155
 7160POPC   GL122753  19.056  33.827   8.855
 7160POPC   GL222754  18.903  33.799   8.855
 7160POPC   C1A22755  19.039  33.839   8.555
 7160POPC   D2A22756  19.037  33.816   8.255
 7160POPC   C3A22757  19.063  33.826   7.955
 7160POPC   C4A22758  19.031  33.776   7.655
 7160POPC   C1B22759  18.810  33.753   8.555
 7160POPC   C2B22760  18.856  33.798   8.255
 7160POPC   C3B22761  18.790  33.763   7.955
 7160POPC   C4B22762  18.838  33.766   7.655
 7161POPC   NC322763  15.131   0.394   9.455
 7161POPC   PO422764  15.207   0.466   9.155
 7161POPC   GL122765  15.217   0.454   8.855
 7161POPC   GL222766  15.200   0.362   8.855
 7161POPC   C1A22767  15.130   0.475   8.555
 7161POPC   D2A22768  15.213   0.414   8.255
 7161POPC   C3A22769  15.156   0.389   7.955
 7161POPC   C4A22770  15.142   0.420   7.655
 7161POPC   C1B22771  15.256   0.167   8.555
 7161POPC   C2B22772  15.295   0.229   8.255
 7161POPC   C3B22773  15.292   0.265   7.955
 7161POPC   C4B22774  15.325   0.203   7.655
 7162POPC   NC322775  12.058  43.067   9.455
 7162POPC   PO422776  12.035  43.151   9.155
 7162POPC   GL122777  12.045  43.118   8.855
 7162POPC   GL222778  12.158  43.009   8.855
 7162POPC   C1A22779  12.091  43.109   8.555
 7162POPC   D2A22780  12.117  43.072   8.255
 7162POPC   C3A22781  12.121  43.107   7.955
 7162POPC   C4A22782  12.066  43.144   7.655
 7162POPC   C1B22783  12.276  43.020   8.555
 7162POPC   C2B22784  12.268  43.027   8.255
 7162POPC   C3B22785  12.280  42.966   7.955
 7162POPC   C4B22786  12.261  43.007   7.655
 7163POPC   NC322787  24.464  20.601   9.455
 7163POPC   PO422788  24.469  20.600   9.155
 7163POPC   GL122789  24.454  20.595   8.855
 7163POPC   GL222790  24.545  20.701   8.855
 7163POPC   C1A22791  24.534  20.617   8.555
 7163POPC   D2A22792  24.492  20.652   8.255
 7163POPC   C3A22793  24.502  20.609   7.955
 7163POPC   C4A22794  24.487  20.569   7.655
 7163POPC   C1B22795  24.648  20.801   8.555
 7163POPC   C2B22796  24.620  20.847   8.255
 7163POPC   C3B22797  24.676  20.804   7.955
 7163POPC   C4B22798  24.677  20.803   7.655
 7164POPC   NC322799  33.805  31.431   9.455
 7164POPC   PO422800  33.803  31.473   9.155
 7164POPC   GL122801  33.795  31.431   8.855
 7164POPC   GL222802  33.757  31.373   8.855
 7164POPC   C1A22803  33.823  31.452   8.555
 7164POPC   D2A22804  33.760  31.445   8.255
 7164POPC   C3A22805  33.844  31.463   7.955
 7164POPC   C4A22806  33.800  31.498   7.655
 7164POPC   C1B22807  33.757  31.177   8.555
 7164POPC   C2B22808  33.784  31.237   8.255
 7164POPC   C3B22809  33.758  31.189   7.955
 7164POPC   C4B22810  33.736  31.248   7.655
 7165POPC   NC322811  24.462  39.987   9.455
 7165POPC   PO422812  24.537  40.005   9.155
 7165POPC   GL122813  24.442  39.989   8.855
 7165POPC   GL222814  24.523  39.952   8.855
 7165POPC   C1A22815  24.490  40.033   8.555
 7165POPC   D2A22816  24.514  40.036   8.255
 7165POPC   C3A22817  24.441  39.961   7.955
 7165POPC   C4A22818  24.465  40.014   7.655
 7165POPC   C1B22819  24.634  39.775   8.555
 7165POPC   C2B22820  24.653  39.830   8.255
 7165POPC   C3B22821  24.637  39.799   7.955
 7165POPC   C4B22822  24.646  39.790   7.655
 7166POPC   NC322823  35.351  29.897   9.455
 7166POPC   PO422824  35.363  29.934   9.155
 7166POPC   GL122825  35.313  29.894   8.855
 7166POPC   GL222826  35.365  29.848   8.855
 7166POPC   C1A22827  35.330  29.873   8.555
 7166POPC   D2A22828  35.364  29.915   8.255
 7166POPC   C3A22829  35.336  29.935   7.955
 7166POPC   C4A22830  35.386  29.921   7.655
 7166POPC   C1B22831  35.443  29.710   8.555
 7166POPC   C2B22832  35.452  29.675   8.255
 7166POPC   C3B22833  35.458  29.706   7.955
 7166POPC   C4B22834  35.420  29.691   7.655
 7167POPC   NC322835  28.403   4.298   9.455
 7167POPC   PO422836  28.416   4.342   9.155
 7167POPC   GL122837  28.340   4.322   8.855
 7167POPC   GL222838  28.396   4.255   8.855
 7167POPC   C1A22839  28.362   4.322   8.555
 7167POPC   D2A22840  28.337   4.354   8.255
 7167POPC   C3A22841  28.339   4.286   7.955
 7167POPC   C4A22842  28.396   4.364   7.655
 7167POPC   C1B22843  28.542   4.143   8.555
 7167POPC   C2B22844  28.545   4.092   8.255
 7167POPC   C3B22845  28.545   4.064   7.955
 7167POPC   C4B22846  28.508   4.085   7.655
 7168POPC   NC322847  41.523   3.568   9.455
 7168POPC   PO422848  41.573   3.523   9.155
 7168POPC   GL122849  41.598   3.498   8.855
 7168POPC   GL222850  41.664   3.439   8.855
 7168POPC   C1A22851  41.589   3.560   8.555
 7168POPC   D2A22852  41.522   3.513   8.255
 7168POPC   C3A22853  41.595   3.577   7.955
 7168POPC   C4A22854  41.543   3.566   7.655
 7168POPC   C1B22855  41.717   3.313   8.555
 7168POPC   C2B22856  41.709   3.335   8.255
 7168POPC   C3B22857  41.703   3.353   7.955
 7168POPC   C4B22858  41.675   3.317   7.655
 7169POPC   NC322859   5.885  18.258   9.455
 7169POPC   PO422860   5.899  18.267   9.155
 7169POPC   GL122861   5.827  18.239   8.855
 7169POPC   GL222862   5.814  18.374   8.855
 7169POPC   C1A22863   5.914  18.271   8.555
 7169POPC   D2A22864   5.890  18.271   8.255
 7169POPC   C3A22865   5.868  18.281   7.955
 7169POPC   C4A22866   5.847  18.333   7.655
 7169POPC   C1B22867   5.739  18.458   8.555
 7169POPC   C2B22868   5.659  18.457   8.255
 7169POPC   C3B22869   5.660  18.499   7.955
 7169POPC   C4B22870   5.682  18.442   7.655
 7170POPC   NC322871  26.023  36.117   9.455
 7170POPC   PO422872  26.034  36.135   9.155
 7170POPC   GL122873  26.035  36.147   8.855
 7170POPC   GL222874  26.151  36.122   8.855
 7170POPC   C1A22875  26.010  36.127   8.555
 7170POPC   D2A22876  26.002  36.175   8.255
 7170POPC   C3A22877  25.998  36.089   7.955
 7170POPC   C4A22878  26.041  36.124   7.655
 7170POPC   C1B22879  26.329  36.035   8.555
 7170POPC   C2B22880  26.256  36.022   8.255
 7170POPC   C3B22881  26.299  36.010   7.955
 7170POPC   C4B22882  26.322  36.010   7.655
 7171POPC   NC322883  33.071   2.009   9.455
 7171POPC   PO422884  32.987   2.034   9.155
 7171POPC   GL122885  33.009   1.971   8.855
 7171POPC   GL222886  32.959   1.926   8.855
 7171POPC   C1A22887  33.009   2.019   8.555
 7171POPC   D2A22888  33.000   2.035   8.255
 7171POPC   C3A22889  32.995   1.956   7.955
 7171POPC   C4A22890  33.013   1.973   7.655
 7171POPC   C1B22891  32.850   1.832   8.555
 7171POPC   C2B22892  32.810   1.864   8.255
 7171POPC   C3B22893  32.834   1.884   7.955
 7171POPC   C4B22894  32.838   1.856   7.655
 7172POPC   NC322895  27.638  43.932   9.455
 7172POPC   PO422896  27.581  43.837   9.155
 7172POPC   GL122897  27.565  43.841   8.855
 7172POPC   GL222898  27.438  43.863   8.855
 7172POPC   C1A22899  27.597  43.925   8.555
 7172POPC   D2A22900  27.575  43.870   8.255
 7172POPC   C3A22901  27.572  43.886   7.955
 7172POPC   C4A22902  27.639  43.928   7.655
 7172POPC   C1B22903  27.304  43.808   8.555
 7172POPC   C2B22904  27.310  43.822   8.255
 7172POPC   C3B22905  27.393  43.866   7.955
 7172POPC   C4B22906  27.308  43.882   7.655
 7173POPC   NC322907  20.574  16.751   9.455
 7173POPC   PO422908  20.572  16.749   9.155
 7173POPC   GL122909  20.610  16.711   8.855
 7173POPC   GL222910  20.564  16.834   8.855
 7173POPC   C1A22911  20.599  16.714   8.555
 7173POPC   D2A22912  20.580  16.741   8.255
 7173POPC   C3A22913  20.561  16.752   7.955
 7173POPC   C4A22914  20.654  16.705   7.655
 7173POPC   C1B22915  20.398  16.908   8.555
 7173POPC   C2B22916  20.441  16.952   8.255
 7173POPC   C3B22917  20.406  16.940   7.955
 7173POPC   C4B22918  20.449  16.864   7.655
 7174POPC   NC322919   2.017  34.601   9.455
 7174POPC   PO422920   2.005  34.601   9.155
 7174POPC   GL122921   1.958  34.536   8.855
 7174POPC   GL222922   1.919  34.621   8.855
 7174POPC   C1A22923   2.002  34.548   8.555
 7174POPC   D2A22924   2.023  34.527   8.255
 7174POPC   C3A22925   1.955  34.539   7.955
 7174POPC   C4A22926   2.015  34.596   7.655
 7174POPC   C1B22927   1.808  34.714   8.555
 7174POPC   C2B22928   1.799  34.674   8.255
 7174POPC   C3B22929   1.757  34.662   7.955
 7174POPC   C4B22930   1.761  34.709   7.655
 7175POPC   NC322931  24.494   5.819   9.455
 7175POPC   PO422932  24.526   5.843   9.155
 7175POPC   GL122933  24.533   5.835   8.855
 7175POPC   GL222934  24.639   5.809   8.855
 7175POPC   C1A22935  24.537   5.895   8.555
 7175POPC   D2A22936  24.494   5.907   8.255
 7175POPC   C3A22937  24.474   5.879   7.955
 7175POPC   C4A22938  24.517   5.867   7.655
 7175POPC   C1B22939  24.737   5.763   8.555
 7175POPC   C2B22940  24.687   5.768   8.255
 7175POPC   C3B22941  24.699   5.722   7.955
 7175POPC   C4B22942  24.679   5.728   7.655
 7176POPC   NC322943  18.319  22.967   9.455
 7176POPC   PO422944  18.236  22.914   9.155
 7176POPC   GL122945  18.251  22.917   8.855
 7176POPC   GL222946  18.184  22.833   8.855
 7176POPC   C1A22947  18.241  22.929   8.555
 7176POPC   D2A22948  18.300  22.941   8.255
 7176POPC   C3A22949  18.306  22.960   7.955
 7176POPC   C4A22950  18.260  22.953   7.655
 7176POPC   C1B22951  18.098  22.739   8.555
 7176POPC   C2B22952  18.073  22.757   8.255
 7176POPC   C3B22953  18.087  22.716   7.955
 7176POPC   C4B22954  18.137  22.737   7.655
 7177POPC   NC322955  29.879   8.239   9.455
 7177POPC   PO422956  29.873   8.161   9.155
 7177POPC   GL122957  29.969   8.157   8.855
 7177POPC   GL222958  29.990   8.123   8.855
 7177POPC   C1A22959  29.938   8.182   8.555
 7177POPC   D2A22960  29.943   8.156   8.255
 7177POPC   C3A22961  29.944   8.223   7.955
 7177POPC   C4A22962  29.947   8.212   7.655
 7177POPC   C1B22963  30.087   8.033   8.555
 7177POPC   C2B22964  30.135   8.004   8.255
 7177POPC   C3B22965  30.135   8.044   7.955
 7177POPC   C4B22966  30.045   7.969   7.655
 7178POPC   NC322967  11.337  27.629   9.455
 7178POPC   PO422968  11.300  27.633   9.155
 7178POPC   GL122969  11.252  27.588   8.855
 7178POPC   GL222970  11.293  27.717   8.855
 7178POPC   C1A22971  11.313  27.611   8.555
 7178POPC   D2A22972  11.312  27.619   8.255
 7178POPC   C3A22973  11.346  27.603   7.955
 7178POPC   C4A22974  11.345  27.620   7.655
 7178POPC   C1B22975  11.382  27.826   8.555
 7178POPC   C2B22976  11.330  27.845   8.255
 7178POPC   C3B22977  11.395  27.859   7.955
 7178POPC   C4B22978  11.425  27.833   7.655
 7179POPC   NC322979   8.227  36.882   9.455
 7179POPC   PO422980   8.209  36.894   9.155
 7179POPC   GL122981   8.235  36.952   8.855
 7179POPC   GL222982   8.055  36.888   8.855
 7179POPC   C1A22983   8.221  36.855   8.555
 7179POPC   D2A22984   8.197  36.925   8.255
 7179POPC   C3A22985   8.223  36.864   7.955
 7179POPC   C4A22986   8.228  36.857   7.655
 7179POPC   C1B22987   7.961  36.902   8.555
 7179POPC   C2B22988   7.973  36.917   8.255
 7179POPC   C3B22989   7.967  36.873   7.955
 7179POPC   C4B22990   7.910  36.857   7.655
 7180POPC   NC322991  15.996  43.125   9.455
 7180POPC   PO422992  15.922  43.142   9.155
 7180POPC   GL122993  15.977  43.089   8.855
 7180POPC   GL222994  15.858  43.024   8.855
 7180POPC   C1A22995  15.938  43.068   8.555
 7180POPC   D2A22996  15.996  43.142   8.255
 7180POPC   C3A22997  15.964  43.103   7.955
 7180POPC   C4A22998  15.915  43.082   7.655
 7180POPC   C1B22999  15.843  42.903   8.555
 7180POPC   C2B23000  15.851  42.942   8.255
 7180POPC   C3B23001  15.801  42.900   7.955
 7180POPC   C4B23002  15.807  42.864   7.655
 7181POPC   NC323003  43.902  10.495   9.455
 7181POPC   PO423004  43.842  10.517   9.155
 7181POPC   GL123005  43.868  10.527   8.855
 7181POPC   GL223006  43.937  10.657   8.855
 7181POPC   C1A23007  43.847  10.480   8.555
 7181POPC   D2A23008  43.897  10.487   8.255
 7181POPC   C3A23009  43.897  10.538   7.955
 7181POPC   C4A23010  43.878  10.555   7.655
 7181POPC   C1B23011  43.942  10.741   8.555
 7181POPC   C2B23012  43.942  10.776   8.255
 7181POPC   C3B23013  43.889  10.728   7.955
 7181POPC   C4B23014  43.880  10.748   7.655
 7182POPC   NC323015   9.009  22.969   9.455
 7182POPC   PO423016   8.930  22.943   9.155
 7182POPC   GL123017   8.946  22.978   8.855
 7182POPC   GL223018   9.082  23.030   8.855
 7182POPC   C1A23019   8.995  22.963   8.555
 7182POPC   D2A23020   8.964  22.890   8.255
 7182POPC   C3A23021   8.929  22.964   7.955
 7182POPC   C4A23022   8.935  22.913   7.655
 7182POPC   C1B23023   9.125  23.101   8.555
 7182POPC   C2B23024   9.105  23.089   8.255
 7182POPC   C3B23025   9.155  23.077   7.955
 7182POPC   C4B23026   9.148  23.094   7.655
 7183POPC   NC323027  19.871  36.120   9.455
 7183POPC   PO423028  19.791  36.139   9.155
 7183POPC   GL123029  19.854  36.157   8.855
 7183POPC   GL223030  19.724  36.089   8.855
 7183POPC   C1A23031  19.873  36.112   8.555
 7183POPC   D2A23032  19.820  36.081   8.255
 7183POPC   C3A23033  19.833  36.131   7.955
 7183POPC   C4A23034  19.843  36.081   7.655
 7183POPC   C1B23035  19.572  36.132   8.555
 7183POPC   C2B23036  19.550  36.142   8.255
 7183POPC   C3B23037  19.587  36.053   7.955
 7183POPC   C4B23038  19.627  36.102   7.655
 7184POPC   NC323039  39.240   3.520   9.455
 7184POPC   PO423040  39.232   3.551   9.155
 7184POPC   GL123041  39.265   3.493   8.855
 7184POPC   GL223042  39.296   3.416   8.855
 7184POPC   C1A23043  39.264   3.575   8.555
 7184POPC   D2A23044  39.256   3.550   8.255
 7184POPC   C3A23045  39.193   3.522   7.955
 7184POPC   C4A23046  39.224   3.527   7.655
 7184POPC   C1B23047  39.263   3.280   8.555
 7184POPC   C2B23048  39.314   3.345   8.255
 7184POPC   C3B23049  39.292   3.273   7.955
 7184POPC   C4B23050  39.329   3.274   7.655
 7185POPC   NC323051  31.424  21.342   9.455
 7185POPC   PO423052  31.517  21.389   9.155
 7185POPC   GL123053  31.472  21.424   8.855
 7185POPC   GL223054  31.462  21.550   8.855
 7185POPC   C1A23055  31.509  21.414   8.555
 7185POPC   D2A23056  31.472  21.374   8.255
 7185POPC   C3A23057  31.460  21.422   7.955
 7185POPC   C4A23058  31.500  21.352   7.655
 7185POPC   C1B23059  31.506  21.584   8.555
 7185POPC   C2B23060  31.557  21.641   8.255
 7185POPC   C3B23061  31.524  21.592   7.955
 7185POPC   C4B23062  31.543  21.653   7.655
 7186POPC   NC323063  34.614  34.590   9.455
 7186POPC   PO423064  34.575  34.555   9.155
 7186POPC   GL123065  34.533  34.545   8.855
 7186POPC   GL223066  34.686  34.622   8.855
 7186POPC   C1A23067  34.551  34.579   8.555
 7186POPC   D2A23068  34.528  34.605   8.255
 7186POPC   C3A23069  34.556  34.534   7.955
 7186POPC   C4A23070  34.609  34.557   7.655
 7186POPC   C1B23071  34.747  34.722   8.555
 7186POPC   C2B23072  34.789  34.691   8.255
 7186POPC   C3B23073  34.739  34.733   7.955
 7186POPC   C4B23074  34.803  34.707   7.655
 7187POPC   NC323075   6.610  39.985   9.455
 7187POPC   PO423076   6.632  39.972   9.155
 7187POPC   GL123077   6.631  40.050   8.855
 7187POPC   GL223078   6.600  39.904   8.855
 7187POPC   C1A23079   6.618  40.029   8.555
 7187POPC   D2A23080   6.634  40.050   8.255
 7187POPC   C3A23081   6.676  39.976   7.955
 7187POPC   C4A23082   6.645  40.041   7.655
 7187POPC   C1B23083   6.444  39.845   8.555
 7187POPC   C2B23084   6.439  39.790   8.255
 7187POPC   C3B23085   6.447  39.797   7.955
 7187POPC   C4B23086   6.506  39.807   7.655
 7188POPC   NC323087  22.981  38.499   9.455
 7188POPC   PO423088  22.941  38.465   9.155
 7188POPC   GL123089  22.984  38.501   8.855
 7188POPC   GL223090  23.015  38.495   8.855
 7188POPC   C1A23091  22.937  38.406   8.555
 7188POPC   D2A23092  22.912  38.426   8.255
 7188POPC   C3A23093  22.930  38.469   7.955
 7188POPC   C4A23094  22.924  38.411   7.655
 7188POPC   C1B23095  23.202  38.471   8.555
 7188POPC   C2B23096  23.180  38.483   8.255
 7188POPC   C3B23097  23.213  38.431   7.955
 7188POPC   C4B23098  23.142  38.499   7.655
 7189POPC   NC323099  42.365  41.608   9.455
 7189POPC   PO423100  42.297  41.551   9.155
 7189POPC   GL123101  42.291  41.515   8.855
 7189POPC   GL223102  42.286  41.438   8.855
 7189POPC   C1A23103  42.303  41.595   8.555
 7189POPC   D2A23104  42.367  41.514   8.255
 7189POPC   C3A23105  42.352  41.558   7.955
 7189POPC   C4A23106  42.347  41.596   7.655
 7189POPC   C1B23107  42.245  41.332   8.555
 7189POPC   C2B23108  42.241  41.326   8.255
 7189POPC   C3B23109  42.276  41.315   7.955
 7189POPC   C4B23110  42.269  41.358   7.655
 7190POPC   NC323111  19.851   1.966   9.455
 7190POPC   PO423112  19.823   1.968   9.155
 7190POPC   GL123113  19.875   1.959   8.855
 7190POPC   GL223114  19.743   1.895   8.855
 7190POPC   C1A23115  19.877   1.967   8.555
 7190POPC   D2A23116  19.797   1.967   8.255
 7190POPC   C3A23117  19.846   1.968   7.955
 7190POPC   C4A23118  19.843   1.995   7.655
 7190POPC   C1B23119  19.666   1.799   8.555
 7190POPC   C2B23120  19.670   1.753   8.255
 7190POPC   C3B23121  19.718   1.756   7.955
 7190POPC   C4B23122  19.676   1.807   7.655
 7191POPC   NC323123  44.628  40.740   9.455
 7191POPC   PO423124  44.710  40.780   9.155
 7191POPC   GL123125  44.632  40.769   8.855
 7191POPC   GL223126  44.786  40.832   8.855
 7191POPC   C1A23127  44.637  40.799   8.555
 7191POPC   D2A23128  44.643  40.816   8.255
 7191POPC   C3A23129  44.701  40.831   7.955
 7191POPC   C4A23130  44.634  40.822   7.655
 7191POPC   C1B23131  44.936  40.864   8.555
 7191POPC   C2B23132  44.891  40.814   8.255
 7191POPC   C3B23133  44.881  40.779   7.955
 7191POPC   C4B23134  44.895  40.847   7.655
 7192POPC   NC323135   2.768  32.223   9.455
 7192POPC   PO423136   2.734  32.264   9.155
 7192POPC   GL123137   2.732  32.270   8.855
 7192POPC   GL223138   2.714  32.136   8.855
 7192POPC   C1A23139   2.740  32.253   8.555
 7192POPC   D2A23140   2.777  32.219   8.255
 7192POPC   C3A23141   2.722  32.262   7.955
 7192POPC   C4A23142   2.730  32.233   7.655
 7192POPC   C1B23143   2.610  32.037   8.555
 7192POPC   C2B23144   2.584  32.025   8.255
 7192POPC   C3B23145   2.648  32.021   7.955
 7192POPC   C4B23146   2.600  32.021   7.655
 7193POPC   NC323147   4.303  44.643   9.455
 7193POPC   PO423148   4.293  44.620   9.155
 7193POPC   GL123149   4.322  44.671   8.855
 7193POPC   GL223150   4.170  44.565   8.855
 7193POPC   C1A23151   4.314  44.651   8.555
 7193POPC   D2A23152   4.362  44.630   8.255
 7193POPC   C3A23153   4.334  44.700   7.955
 7193POPC   C4A23154   4.293  44.684   7.655
 7193POPC   C1B23155   4.103  44.530   8.555
 7193POPC   C2B23156   4.111  44.549   8.255
 7193POPC   C3B23157   4.150  44.495   7.955
 7193POPC   C4B23158   4.113  44.474   7.655
 7194POPC   NC323159  21.350   3.545   9.455
 7194POPC   PO423160  21.428   3.493   9.155
 7194POPC   GL123161  21.373   3.549   8.855
 7194POPC   GL223162  21.269   3.564   8.855
 7194POPC   C1A23163  21.376   3.511   8.555
 7194POPC   D2A23164  21.388   3.526   8.255
 7194POPC   C3A23165  21.429   3.522   7.955
 7194POPC   C4A23166  21.379   3.567   7.655
 7194POPC   C1B23167  21.192   3.691   8.555
 7194POPC   C2B23168  21.133   3.689   8.255
 7194POPC   C3B23169  21.198   3.645   7.955
 7194POPC   C4B23170  21.133   3.684   7.655
 7195POPC   NC323171   6.628   8.949   9.455
 7195POPC   PO423172   6.647   8.947   9.155
 7195POPC   GL123173   6.659   8.986   8.855
 7195POPC   GL223174   6.627   8.884   8.855
 7195POPC   C1A23175   6.693   9.009   8.555
 7195POPC   D2A23176   6.692   8.983   8.255
 7195POPC   C3A23177   6.675   8.992   7.955
 7195POPC   C4A23178   6.596   8.975   7.655
 7195POPC   C1B23179   6.697   8.708   8.555
 7195POPC   C2B23180   6.682   8.772   8.255
 7195POPC   C3B23181   6.680   8.761   7.955
 7195POPC   C4B23182   6.658   8.673   7.655
 7196POPC   NC323183  13.650  42.303   9.455
 7196POPC   PO423184  13.604  42.348   9.155
 7196POPC   GL123185  13.626  42.325   8.855
 7196POPC   GL223186  13.555  42.218   8.855
 7196POPC   C1A23187  13.582  42.301   8.555
 7196POPC   D2A23188  13.667  42.383   8.255
 7196POPC   C3A23189  13.641  42.379   7.955
 7196POPC   C4A23190  13.583  42.295   7.655
 7196POPC   C1B23191  13.496  42.115   8.555
 7196POPC   C2B23192  13.497  42.148   8.255
 7196POPC   C3B23193  13.488  42.115   7.955
 7196POPC   C4B23194  13.501  42.060   7.655
 7197POPC   NC323195  13.624   8.984   9.455
 7197POPC   PO423196  13.658   9.010   9.155
 7197POPC   GL123197  13.659   8.994   8.855
 7197POPC   GL223198  13.610   8.855   8.855
 7197POPC   C1A23199  13.582   9.014   8.555
 7197POPC   D2A23200  13.630   8.976   8.255
 7197POPC   C3A23201  13.636   9.006   7.955
 7197POPC   C4A23202  13.600   8.951   7.655
 7197POPC   C1B23203  13.488   8.747   8.555
 7197POPC   C2B23204  13.518   8.796   8.255
 7197POPC   C3B23205  13.554   8.709   7.955
 7197POPC   C4B23206  13.538   8.751   7.655
 7198POPC   NC323207   9.725  30.734   9.455
 7198POPC   PO423208   9.722  30.690   9.155
 7198POPC   GL123209   9.774  30.676   8.855
 7198POPC   GL223210   9.693  30.592   8.855
 7198POPC   C1A23211   9.755  30.683   8.555
 7198POPC   D2A23212   9.774  30.739   8.255
 7198POPC   C3A23213   9.703  30.669   7.955
 7198POPC   C4A23214   9.779  30.715   7.655
 7198POPC   C1B23215   9.660  30.422   8.555
 7198POPC   C2B23216   9.692  30.508   8.255
 7198POPC   C3B23217   9.662  30.497   7.955
 7198POPC   C4B23218   9.603  30.500   7.655
 7199POPC   NC323219  25.310  16.762   9.455
 7199POPC   PO423220  25.234  16.742   9.155
 7199POPC   GL123221  25.314  16.761   8.855
 7199POPC   GL223222  25.360  16.686   8.855
 7199POPC   C1A23223  25.269  16.715   8.555
 7199POPC   D2A23224  25.282  16.723   8.255
 7199POPC   C3A23225  25.254  16.691   7.955
 7199POPC   C4A23226  25.310  16.764   7.655
 7199POPC   C1B23227  25.471  16.597   8.555
 7199POPC   C2B23228  25.476  16.611   8.255
 7199POPC   C3B23229  25.434  16.614   7.955
 7199POPC   C4B23230  25.439  16.606   7.655
 7200POPC   NC323231   1.164  15.190   9.455
 7200POPC   PO423232   1.170  15.144   9.155
 7200POPC   GL123233   1.188  15.158   8.855
 7200POPC   GL223234   1.174  15.018   8.855
 7200POPC   C1A23235   1.240  15.166   8.555
 7200POPC   D2A23236   1.212  15.136   8.255
 7200POPC   C3A23237   1.212  15.156   7.955
 7200POPC   C4A23238   1.188  15.207   7.655
 7200POPC   C1B23239   1.232  14.959   8.555
 7200POPC   C2B23240   1.215  14.958   8.255
 7200POPC   C3B23241   1.237  14.914   7.955
 7200POPC   C4B23242   1.231  14.926   7.655
 7201POPC   NC323243   2.753   2.758   9.455
 7201POPC   PO423244   2.797   2.774   9.155
 7201POPC   GL123245   2.721   2.751   8.855
 7201POPC   GL223246   2.775   2.627   8.855
 7201POPC   C1A23247   2.809   2.735   8.555
 7201POPC   D2A23248   2.748   2.761   8.255
 7201POPC   C3A23249   2.746   2.748   7.955
 7201POPC   C4A23250   2.804   2.784   7.655
 7201POPC   C1B23251   2.710   2.472   8.555
 7201POPC   C2B23252   2.766   2.482   8.255
 7201POPC   C3B23253   2.717   2.562   7.955
 7201POPC   C4B23254   2.705   2.473   7.655
 7202POPC   NC323255  27.613  12.066   9.455
 7202POPC   PO423256  27.557  12.026   9.155
 7202POPC   GL123257  27.614  12.055   8.855
 7202POPC   GL223258  27.738  12.018   8.855
 7202POPC   C1A23259  27.588  12.100   8.555
 7202POPC   D2A23260  27.595  12.084   8.255
 7202POPC   C3A23261  27.585  12.058   7.955
 7202POPC   C4A23262  27.597  12.073   7.655
 7202POPC   C1B23263  27.879  12.014   8.555
 7202POPC   C2B23264  27.826  12.053   8.255
 7202POPC   C3B23265  27.845  12.025   7.955
 7202POPC   C4B23266  27.808  12.053   7.655
 7203POPC   NC323267  33.849  13.630   9.455
 7203POPC   PO423268  33.758  13.640   9.155
 7203POPC   GL123269  33.762  13.588   8.855
 7203POPC   GL223270  33.659  13.520   8.855
 7203POPC   C1A23271  33.782  13.614   8.555
 7203POPC   D2A23272  33.758  13.588   8.255
 7203POPC   C3A23273  33.785  13.638   7.955
 7203POPC   C4A23274  33.762  13.629   7.655
 7203POPC   C1B23275  33.570  13.468   8.555
 7203POPC   C2B23276  33.637  13.474   8.255
 7203POPC   C3B23277  33.589  13.436   7.955
 7203POPC   C4B23278  33.600  13.415   7.655
 7204POPC   NC323279   1.226  27.631   9.455
 7204POPC   PO423280   1.254  27.600   9.155
 7204POPC   GL123281   1.216  27.600   8.855
 7204POPC   GL223282   1.375  27.613   8.855
 7204POPC   C1A23283   1.237  27.584   8.555
 7204POPC   D2A23284   1.193  27.629   8.255
 7204POPC   C3A23285   1.208  27.632   7.955
 7204POPC   C4A23286   1.263  27.637   7.655
 7204POPC   C1B23287   1.425  27.543   8.555
 7204POPC   C2B23288   1.420  27.569   8.255
 7204POPC   C3B23289   1.439  27.534   7.955
 7204POPC   C4B23290   1.435  27.597   7.655
 7205POPC   NC323291   0.483  36.133   9.455
 7205POPC   PO423292   0.402  36.082   9.155
 7205POPC   GL123293   0.455  36.148   8.855
 7205POPC   GL223294   0.363  36.081   8.855
 7205POPC   C1A23295   0.473  36.104   8.555
 7205POPC   D2A23296   0.452  36.137   8.255
 7205POPC   C3A23297   0.436  36.177   7.955
 7205POPC   C4A23298   0.438  36.108   7.655
 7205POPC   C1B23299   0.261  35.985   8.555
 7205POPC   C2B23300   0.230  35.976   8.255
 7205POPC   C3B23301   0.278  35.970   7.955
 7205POPC   C4B23302   0.202  36.024   7.655
 7206POPC   NC323303  34.557  29.938   9.455
 7206POPC   PO423304  34.543  29.942   9.155
 7206POPC   GL123305  34.621  29.951   8.855
 7206POPC   GL223306  34.600  30.067   8.855
 7206POPC   C1A23307  34.549  29.877   8.555
 7206POPC   D2A23308  34.559  29.955   8.255
 7206POPC   C3A23309  34.528  29.899   7.955
 7206POPC   C4A23310  34.560  29.926   7.655
 7206POPC   C1B23311  34.694  30.155   8.555
 7206POPC   C2B23312  34.723  30.111   8.255
 7206POPC   C3B23313  34.752  30.175   7.955
 7206POPC   C4B23314  34.691  30.099   7.655
 7207POPC   NC323315   3.545  33.781   9.455
 7207POPC   PO423316   3.571  33.807   9.155
 7207POPC   GL123317   3.558  33.770   8.855
 7207POPC   GL223318   3.376  33.706   8.855
 7207POPC   C1A23319   3.531  33.761   8.555
 7207POPC   D2A23320   3.503  33.780   8.255
 7207POPC   C3A23321   3.519  33.848   7.955
 7207POPC   C4A23322   3.494  33.774   7.655
 7207POPC   C1B23323   3.322  33.682   8.555
 7207POPC   C2B23324   3.307  33.746   8.255
 7207POPC   C3B23325   3.297  33.735   7.955
 7207POPC   C4B23326   3.315  33.745   7.655
 7208POPC   NC323327   5.107  28.332   9.455
 7208POPC   PO423328   5.110  28.345   9.155
 7208POPC   GL123329   5.076  28.346   8.855
 7208POPC   GL223330   5.074  28.211   8.855
 7208POPC   C1A23331   5.142  28.417   8.555
 7208POPC   D2A23332   5.125  28.378   8.255
 7208POPC   C3A23333   5.106  28.415   7.955
 7208POPC   C4A23334   5.120  28.343   7.655
 7208POPC   C1B23335   5.107  28.106   8.555
 7208POPC   C2B23336   5.177  28.133   8.255
 7208POPC   C3B23337   5.124  28.106   7.955
 7208POPC   C4B23338   5.190  28.118   7.655
 7209POPC   NC323339  32.992  34.589   9.455
 7209POPC   PO423340  32.996  34.556   9.155
 7209POPC   GL123341  33.023  34.564   8.855
 7209POPC   GL223342  32.856  34.553   8.855
 7209POPC   C1A23343  32.999  34.623   8.555
 7209POPC   D2A23344  33.046  34.611   8.255
 7209POPC   C3A23345  33.018  34.534   7.955
 7209POPC   C4A23346  32.995  34.614   7.655
 7209POPC   C1B23347  32.823  34.556   8.555
 7209POPC   C2B23348  32.742  34.517   8.255
 7209POPC   C3B23349  32.788  34.503   7.955
 7209POPC   C4B23350  32.776  34.510   7.655
 7210POPC   NC323351  39.222  26.090   9.455
 7210POPC   PO423352  39.272  26.029   9.155
 7210POPC   GL123353  39.204  26.006   8.855
 7210POPC   GL223354  39.372  25.966   8.855
 7210POPC   C1A23355  39.270  26.017   8.555
 7210POPC   D2A23356  39.214  26.009   8.255
 7210POPC   C3A23357  39.194  26.035   7.955
 7210POPC   C4A23358  39.208  26.068   7.655
 7210POPC   C1B23359  39.486  25.907   8.555
 7210POPC   C2B23360  39.417  25.919   8.255
 7210POPC   C3B23361  39.496  25.973   7.955
 7210POPC   C4B23362  39.454  25.902   7.655
 7211POPC   NC323363  22.929  39.183   9.455
 7211POPC   PO423364  22.919  39.228   9.155
 7211POPC   GL123365  22.900  39.271   8.855
 7211POPC   GL223366  22.918  39.093   8.855
 7211POPC   C1A23367  22.965  39.208   8.555
 7211POPC   D2A23368  22.986  39.273   8.255
 7211POPC   C3A23369  22.903  39.214   7.955
 7211POPC   C4A23370  22.970  39.225   7.655
 7211POPC   C1B23371  22.816  39.007   8.555
 7211POPC   C2B23372  22.805  39.004   8.255
 7211POPC   C3B23373  22.860  39.022   7.955
 7211POPC   C4B23374  22.857  39.050   7.655
 7212POPC   NC323375   5.863  40.737   9.455
 7212POPC   PO423376   5.853  40.832   9.155
 7212POPC   GL123377   5.883  40.803   8.855
 7212POPC   GL223378   5.953  40.932   8.855
 7212POPC   C1A23379   5.898  40.786   8.555
 7212POPC   D2A23380   5.850  40.813   8.255
 7212POPC   C3A23381   5.849  40.811   7.955
 7212POPC   C4A23382   5.863  40.757   7.655
 7212POPC   C1B23383   5.993  40.967   8.555
 7212POPC   C2B23384   6.010  41.005   8.255
 7212POPC   C3B23385   6.047  40.998   7.955
 7212POPC   C4B23386   6.036  40.960   7.655
 7213POPC   NC323387  40.816   1.225   9.455
 7213POPC   PO423388  40.805   1.248   9.155
 7213POPC   GL123389  40.755   1.194   8.855
 7213POPC   GL223390  40.874   1.256   8.855
 7213POPC   C1A23391  40.809   1.198   8.555
 7213POPC   D2A23392  40.810   1.218   8.255
 7213POPC   C3A23393  40.805   1.166   7.955
 7213POPC   C4A23394  40.821   1.178   7.655
 7213POPC   C1B23395  41.006   1.399   8.555
 7213POPC   C2B23396  40.967   1.370   8.255
 7213POPC   C3B23397  40.967   1.375   7.955
 7213POPC   C4B23398  40.961   1.345   7.655
 7214POPC   NC323399  29.893  12.120   9.455
 7214POPC   PO423400  29.967  12.102   9.155
 7214POPC   GL123401  29.872  12.034   8.855
 7214POPC   GL223402  29.891  11.997   8.855
 7214POPC   C1A23403  29.931  12.075   8.555
 7214POPC   D2A23404  29.901  12.033   8.255
 7214POPC   C3A23405  29.948  12.069   7.955
 7214POPC   C4A23406  29.943  12.114   7.655
 7214POPC   C1B23407  29.904  11.848   8.555
 7214POPC   C2B23408  29.915  11.839   8.255
 7214POPC   C3B23409  29.891  11.819   7.955
 7214POPC   C4B23410  29.889  11.816   7.655
 7215POPC   NC323411  16.706   0.425   9.455
 7215POPC   PO423412  16.730   0.437   9.155
 7215POPC   GL123413  16.732   0.447   8.855
 7215POPC   GL223414  16.680   0.271   8.855
 7215POPC   C1A23415  16.712   0.392   8.555
 7215POPC   D2A23416  16.765   0.414   8.255
 7215POPC   C3A23417  16.724   0.400   7.955
 7215POPC   C4A23418  16.761   0.404   7.655
 7215POPC   C1B23419  16.686   0.171   8.555
 7215POPC   C2B23420  16.685   0.199   8.255
 7215POPC   C3B23421  16.699   0.173   7.955
 7215POPC   C4B23422  16.702   0.158   7.655
 7216POPC   NC323423  11.266  15.135   9.455
 7216POPC   PO423424  11.308  15.170   9.155
 7216POPC   GL123425  11.325  15.227   8.855
 7216POPC   GL223426  11.406  15.231   8.855
 7216POPC   C1A23427  11.349  15.137   8.555
 7216POPC   D2A23428  11.286  15.171   8.255
 7216POPC   C3A23429  11.311  15.158   7.955
 7216POPC   C4A23430  11.285  15.160   7.655
 7216POPC   C1B23431  11.468  15.320   8.555
 7216POPC   C2B23432  11.502  15.303   8.255
 7216POPC   C3B23433  11.522  15.326   7.955
 7216POPC   C4B23434  11.542  15.326   7.655
 7217POPC   NC323435  27.637  19.870   9.455
 7217POPC   PO423436  27.598  19.868   9.155
 7217POPC   GL123437  27.602  19.877   8.855
 7217POPC   GL223438  27.544  19.670   8.855
 7217POPC   C1A23439  27.555  19.839   8.555
 7217POPC   D2A23440  27.637  19.876   8.255
 7217POPC   C3A23441  27.641  19.852   7.955
 7217POPC   C4A23442  27.602  19.861   7.655
 7217POPC   C1B23443  27.593  19.545   8.555
 7217POPC   C2B23444  27.547  19.555   8.255
 7217POPC   C3B23445  27.622  19.551   7.955
 7217POPC   C4B23446  27.617  19.596   7.655
 7218POPC   NC323447   0.389   9.755   9.455
 7218POPC   PO423448   0.394   9.759   9.155
 7218POPC   GL123449   0.414   9.760   8.855
 7218POPC   GL223450   0.458   9.892   8.855
 7218POPC   C1A23451   0.443   9.780   8.555
 7218POPC   D2A23452   0.476   9.738   8.255
 7218POPC   C3A23453   0.484   9.733   7.955
 7218POPC   C4A23454   0.436   9.709   7.655
 7218POPC   C1B23455   0.359   9.986   8.555
 7218POPC   C2B23456   0.402   9.992   8.255
 7218POPC   C3B23457   0.378   9.951   7.955
 7218POPC   C4B23458   0.420   9.947   7.655
 7219POPC   NC323459  20.624  12.059   9.455
 7219POPC   PO423460  20.585  12.045   9.155
 7219POPC   GL123461  20.588  12.071   8.855
 7219POPC   GL223462  20.763  11.976   8.855
 7219POPC   C1A23463  20.653  12.064   8.555
 7219POPC   D2A23464  20.636  12.080   8.255
 7219POPC   C3A23465  20.611  12.098   7.955
 7219POPC   C4A23466  20.562  12.122   7.655
 7219POPC   C1B23467  20.821  11.977   8.555
 7219POPC   C2B23468  20.838  11.977   8.255
 7219POPC   C3B23469  20.847  11.982   7.955
 7219POPC   C4B23470  20.851  11.950   7.655
 7220POPC   NC323471  28.369  18.321   9.455
 7220POPC   PO423472  28.362  18.237   9.155
 7220POPC   GL123473  28.328  18.237   8.855
 7220POPC   GL223474  28.310  18.176   8.855
 7220POPC   C1A23475  28.329  18.316   8.555
 7220POPC   D2A23476  28.330  18.314   8.255
 7220POPC   C3A23477  28.412  18.276   7.955
 7220POPC   C4A23478  28.374  18.258   7.655
 7220POPC   C1B23479  28.160  18.081   8.555
 7220POPC   C2B23480  28.236  18.078   8.255
 7220POPC   C3B23481  28.200  18.124   7.955
 7220POPC   C4B23482  28.217  18.151   7.655
 7221POPC   NC323483   1.983   3.587   9.455
 7221POPC   PO423484   1.951   3.583   9.155
 7221POPC   GL123485   2.037   3.501   8.855
 7221POPC   GL223486   1.871   3.429   8.855
 7221POPC   C1A23487   1.991   3.532   8.555
 7221POPC   D2A23488   1.957   3.570   8.255
 7221POPC   C3A23489   1.943   3.511   7.955
 7221POPC   C4A23490   2.012   3.540   7.655
 7221POPC   C1B23491   1.828   3.386   8.555
 7221POPC   C2B23492   1.831   3.329   8.255
 7221POPC   C3B23493   1.791   3.347   7.955
 7221POPC   C4B23494   1.852   3.315   7.655
 7222POPC   NC323495  22.945  11.266   9.455
 7222POPC   PO423496  22.950  11.328   9.155
 7222POPC   GL123497  22.956  11.264   8.855
 7222POPC   GL223498  22.960  11.388   8.855
 7222POPC   C1A23499  22.909  11.289   8.555
 7222POPC   D2A23500  22.977  11.340   8.255
 7222POPC   C3A23501  22.922  11.281   7.955
 7222POPC   C4A23502  22.918  11.300   7.655
 7222POPC   C1B23503  23.055  11.547   8.555
 7222POPC   C2B23504  22.986  11.546   8.255
 7222POPC   C3B23505  23.001  11.585   7.955
 7222POPC   C4B23506  23.037  11.566   7.655
 7223POPC   NC323507  44.642  21.373   9.455
 7223POPC   PO423508  44.654  21.378   9.155
 7223POPC   GL123509  44.677  21.372   8.855
 7223POPC   GL223510  44.713  21.236   8.855
 7223POPC   C1A23511  44.708  21.418   8.555
 7223POPC   D2A23512  44.629  21.372   8.255
 7223POPC   C3A23513  44.707  21.378   7.955
 7223POPC   C4A23514  44.708  21.362   7.655
 7223POPC   C1B23515  44.780  21.195   8.555
 7223POPC   C2B23516  44.781  21.182   8.255
 7223POPC   C3B23517  44.802  21.160   7.955
 7223POPC   C4B23518  44.771  21.110   7.655
 7224POPC   NC323519  15.963  36.108   9.455
 7224POPC   PO423520  15.996  36.090   9.155
 7224POPC   GL123521  15.939  36.087   8.855
 7224POPC   GL223522  15.953  36.024   8.855
 7224POPC   C1A23523  15.989  36.101   8.555
 7224POPC   D2A23524  15.979  36.129   8.255
 7224POPC   C3A23525  15.978  36.131   7.955
 7224POPC   C4A23526  15.928  36.177   7.655
 7224POPC   C1B23527  15.975  35.830   8.555
 7224POPC   C2B23528  16.000  35.892   8.255
 7224POPC   C3B23529  15.972  35.908   7.955
 7224POPC   C4B23530  15.971  35.851   7.655
 7225POPC   NC323531   8.956  26.817   9.455
 7225POPC   PO423532   8.940  26.812   9.155
 7225POPC   GL123533   8.981  26.862   8.855
 7225POPC   GL223534   9.043  26.790   8.855
 7225POPC   C1A23535   8.939  26.828   8.555
 7225POPC   D2A23536   8.970  26.782   8.255
 7225POPC   C3A23537   8.961  26.823   7.955
 7225POPC   C4A23538   8.942  26.812   7.655
 7225POPC   C1B23539   9.180  26.716   8.555
 7225POPC   C2B23540   9.173  26.772   8.255
 7225POPC   C3B23541   9.238  26.682   7.955
 7225POPC   C4B23542   9.220  26.727   7.655
 7226POPC   NC323543   2.791  22.184   9.455
 7226POPC   PO423544   2.796  22.145   9.155
 7226POPC   GL123545   2.798  22.166   8.855
 7226POPC   GL223546   2.629  22.170   8.855
 7226POPC   C1A23547   2.762  22.161   8.555
 7226POPC   D2A23548   2.790  22.162   8.255
 7226POPC   C3A23549   2.749  22.146   7.955
 7226POPC   C4A23550   2.725  22.159   7.655
 7226POPC   C1B23551   2.559  22.265   8.555
 7226POPC   C2B23552   2.559  22.291   8.255
 7226POPC   C3B23553   2.499  22.238   7.955
 7226POPC   C4B23554   2.541  22.244   7.655
 7227POPC   NC323555  11.280  40.744   9.455
 7227POPC   PO423556  11.350  40.762   9.155
 7227POPC   GL123557  11.316  40.748   8.855
 7227POPC   GL223558  11.351  40.866   8.855
 7227POPC   C1A23559  11.260  40.796   8.555
 7227POPC   D2A23560  11.329  40.779   8.255
 7227POPC   C3A23561  11.328  40.789   7.955
 7227POPC   C4A23562  11.264  40.735   7.655
 7227POPC   C1B23563  11.379  41.048   8.555
 7227POPC   C2B23564  11.368  41.034   8.255
 7227POPC   C3B23565  11.362  41.009   7.955
 7227POPC   C4B23566  11.439  41.014   7.655
 7228POPC   NC323567   2.037  12.813   9.455
 7228POPC   PO423568   2.024  12.844   9.155
 7228POPC   GL123569   2.004  12.846   8.855
 7228POPC   GL223570   1.918  12.735   8.855
 7228POPC   C1A23571   1.948  12.876   8.555
 7228POPC   D2A23572   2.010  12.820   8.255
 7228POPC   C3A23573   2.022  12.818   7.955
 7228POPC   C4A23574   1.996  12.852   7.655
 7228POPC   C1B23575   1.882  12.637   8.555
 7228POPC   C2B23576   1.838  12.693   8.255
 7228POPC   C3B23577   1.820  12.690   7.955
 7228POPC   C4B23578   1.882  12.660   7.655
 7229POPC   NC323579  32.249  43.074   9.455
 7229POPC   PO423580  32.275  43.132   9.155
 7229POPC   GL123581  32.199  43.084   8.855
 7229POPC   GL223582  32.230  43.272   8.855
 7229POPC   C1A23583  32.288  43.085   8.555
 7229POPC   D2A23584  32.294  43.092   8.255
 7229POPC   C3A23585  32.274  43.077   7.955
 7229POPC   C4A23586  32.215  43.061   7.655
 7229POPC   C1B23587  32.155  43.343   8.555
 7229POPC   C2B23588  32.124  43.361   8.255
 7229POPC   C3B23589  32.142  43.329   7.955
 7229POPC   C4B23590  32.112  43.361   7.655
 7230POPC   NC323591  23.760  43.068   9.455
 7230POPC   PO423592  23.755  43.150   9.155
 7230POPC   GL123593  23.756  43.132   8.855
 7230POPC   GL223594  23.554  43.161   8.855
 7230POPC   C1A23595  23.705  43.149   8.555
 7230POPC   D2A23596  23.738  43.096   8.255
 7230POPC   C3A23597  23.687  43.148   7.955
 7230POPC   C4A23598  23.695  43.063   7.655
 7230POPC   C1B23599  23.480  43.122   8.555
 7230POPC   C2B23600  23.512  43.147   8.255
 7230POPC   C3B23601  23.435  43.200   7.955
 7230POPC   C4B23602  23.518  43.199   7.655
 7231POPC   NC323603  43.897  40.048   9.455
 7231POPC   PO423604  43.837  40.015   9.155
 7231POPC   GL123605  43.884  40.021   8.855
 7231POPC   GL223606  43.883  40.161   8.855
 7231POPC   C1A23607  43.840  39.970   8.555
 7231POPC   D2A23608  43.840  40.055   8.255
 7231POPC   C3A23609  43.894  40.022   7.955
 7231POPC   C4A23610  43.904  40.049   7.655
 7231POPC   C1B23611  43.802  40.279   8.555
 7231POPC   C2B23612  43.897  40.228   8.255
 7231POPC   C3B23613  43.887  40.275   7.955
 7231POPC   C4B23614  43.896  40.233   7.655
 7232POPC   NC323615  15.947  44.642   9.455
 7232POPC   PO423616  15.976  44.682   9.155
 7232POPC   GL123617  15.930  44.688   8.855
 7232POPC   GL223618  15.956  44.806   8.855
 7232POPC   C1A23619  15.922  44.633   8.555
 7232POPC   D2A23620  15.961  44.618   8.255
 7232POPC   C3A23621  15.905  44.707   7.955
 7232POPC   C4A23622  15.980  44.698   7.655
 7232POPC   C1B23623  15.933  44.909   8.555
 7232POPC   C2B23624  15.928  44.950   8.255
 7232POPC   C3B23625  15.936  44.865   7.955
 7232POPC   C4B23626  15.993  44.875   7.655
 7233POPC   NC323627   2.039  43.885   9.455
 7233POPC   PO423628   2.027  43.905   9.155
 7233POPC   GL123629   1.989  43.928   8.855
 7233POPC   GL223630   2.039  43.804   8.855
 7233POPC   C1A23631   1.942  43.885   8.555
 7233POPC   D2A23632   1.968  43.897   8.255
 7233POPC   C3A23633   1.985  43.928   7.955
 7233POPC   C4A23634   1.997  43.856   7.655
 7233POPC   C1B23635   2.128  43.695   8.555
 7233POPC   C2B23636   2.049  43.650   8.255
 7233POPC   C3B23637   2.075  43.686   7.955
 7233POPC   C4B23638   2.102  43.700   7.655
 7234POPC   NC323639  15.226  10.509   9.455
 7234POPC   PO423640  15.168  10.571   9.155
 7234POPC   GL123641  15.180  10.487   8.855
 7234POPC   GL223642  15.213  10.628   8.855
 7234POPC   C1A23643  15.186  10.525   8.555
 7234POPC   D2A23644  15.205  10.484   8.255
 7234POPC   C3A23645  15.178  10.503   7.955
 7234POPC   C4A23646  15.149  10.495   7.655
 7234POPC   C1B23647  15.194  10.807   8.555
 7234POPC   C2B23648  15.176  10.815   8.255
 7234POPC   C3B23649  15.157  10.780   7.955
 7234POPC   C4B23650  15.177  10.751   7.655
 7235POPC   NC323651  32.981  17.547   9.455
 7235POPC   PO423652  33.067  17.528   9.155
 7235POPC   GL123653  33.025  17.548   8.855
 7235POPC   GL223654  33.072  17.380   8.855
 7235POPC   C1A23655  33.011  17.523   8.555
 7235POPC   D2A23656  33.070  17.494   8.255
 7235POPC   C3A23657  33.021  17.552   7.955
 7235POPC   C4A23658  32.982  17.469   7.655
 7235POPC   C1B23659  33.211  17.379   8.555
 7235POPC   C2B23660  33.191  17.298   8.255
 7235POPC   C3B23661  33.207  17.376   7.955
 7235POPC   C4B23662  33.169  17.296   7.655
 7236POPC   NC323663  10.547  28.408   9.455
 7236POPC   PO423664  10.480  28.364   9.155
 7236POPC   GL123665  10.484  28.416   8.855
 7236POPC   GL223666  10.399  28.345   8.855
 7236POPC   C1A23667  10.480  28.352   8.555
 7236POPC   D2A23668  10.501  28.324   8.255
 7236POPC   C3A23669  10.532  28.331   7.955
 7236POPC   C4A23670  10.525  28.332   7.655
 7236POPC   C1B23671  10.228  28.421   8.555
 7236POPC   C2B23672  10.286  28.393   8.255
 7236POPC   C3B23673  10.314  28.371   7.955
 7236POPC   C4B23674  10.265  28.424   7.655
 7237POPC   NC323675  30.652  21.347   9.455
 7237POPC   PO423676  30.700  21.419   9.155
 7237POPC   GL123677  30.726  21.342   8.855
 7237POPC   GL223678  30.834  21.502   8.855
 7237POPC   C1A23679  30.677  21.428   8.555
 7237POPC   D2A23680  30.682  21.354   8.255
 7237POPC   C3A23681  30.654  21.359   7.955
 7237POPC   C4A23682  30.712  21.436   7.655
 7237POPC   C1B23683  30.910  21.563   8.555
 7237POPC   C2B23684  30.954  21.494   8.255
 7237POPC   C3B23685  30.859  21.564   7.955
 7237POPC   C4B23686  30.949  21.557   7.655
 7238POPC   NC323687  40.820  40.000   9.455
 7238POPC   PO423688  40.773  39.988   9.155
 7238POPC   GL123689  40.759  39.959   8.855
 7238POPC   GL223690  40.930  39.944   8.855
 7238POPC   C1A23691  40.826  40.042   8.555
 7238POPC   D2A23692  40.820  40.030   8.255
 7238POPC   C3A23693  40.765  39.992   7.955
 7238POPC   C4A23694  40.769  40.052   7.655
 7238POPC   C1B23695  41.016  39.820   8.555
 7238POPC   C2B23696  40.993  39.853   8.255
 7238POPC   C3B23697  40.984  39.824   7.955
 7238POPC   C4B23698  40.952  39.862   7.655
 7239POPC   NC323699  32.201  29.917   9.455
 7239POPC   PO423700  32.223  29.943   9.155
 7239POPC   GL123701  32.213  29.914   8.855
 7239POPC   GL223702  32.116  29.958   8.855
 7239POPC   C1A23703  32.298  29.909   8.555
 7239POPC   D2A23704  32.270  29.936   8.255
 7239POPC   C3A23705  32.232  29.951   7.955
 7239POPC   C4A23706  32.236  29.894   7.655
 7239POPC   C1B23707  31.969  29.964   8.555
 7239POPC   C2B23708  32.017  29.947   8.255
 7239POPC   C3B23709  31.986  29.957   7.955
 7239POPC   C4B23710  31.973  29.888   7.655
 7240POPC   NC323711   2.005  19.080   9.455
 7240POPC   PO423712   2.036  19.034   9.155
 7240POPC   GL123713   1.947  19.064   8.855
 7240POPC   GL223714   1.890  18.965   8.855
 7240POPC   C1A23715   2.025  19.054   8.555
 7240POPC   D2A23716   2.025  19.041   8.255
 7240POPC   C3A23717   2.015  19.106   7.955
 7240POPC   C4A23718   1.952  19.011   7.655
 7240POPC   C1B23719   1.855  18.874   8.555
 7240POPC   C2B23720   1.846  18.881   8.255
 7240POPC   C3B23721   1.862  18.807   7.955
 7240POPC   C4B23722   1.881  18.800   7.655
 7241POPC   NC323723  17.485  36.171   9.455
 7241POPC   PO423724  17.463  36.135   9.155
 7241POPC   GL123725  17.506  36.078   8.855
 7241POPC   GL223726  17.608  36.033   8.855
 7241POPC   C1A23727  17.491  36.109   8.555
 7241POPC   D2A23728  17.503  36.094   8.255
 7241POPC   C3A23729  17.553  36.086   7.955
 7241POPC   C4A23730  17.463  36.129   7.655
 7241POPC   C1B23731  17.668  36.012   8.555
 7241POPC   C2B23732  17.722  35.953   8.255
 7241POPC   C3B23733  17.661  35.955   7.955
 7241POPC   C4B23734  17.753  36.021   7.655
 7242POPC   NC323735  38.502   9.763   9.455
 7242POPC   PO423736  38.424   9.765   9.155
 7242POPC   GL123737  38.420   9.709   8.855
 7242POPC   GL223738  38.356   9.822   8.855
 7242POPC   C1A23739  38.411   9.711   8.555
 7242POPC   D2A23740  38.504   9.758   8.255
 7242POPC   C3A23741  38.435   9.720   7.955
 7242POPC   C4A23742  38.486   9.784   7.655
 7242POPC   C1B23743  38.174   9.783   8.555
 7242POPC   C2B23744  38.212   9.838   8.255
 7242POPC   C3B23745  38.170   9.772   7.955
 7242POPC   C4B23746  38.234   9.815   7.655
 7243POPC   NC323747  24.523  24.445   9.455
 7243POPC   PO423748  24.482  24.527   9.155
 7243POPC   GL123749  24.502  24.504   8.855
 7243POPC   GL223750  24.499  24.569   8.855
 7243POPC   C1A23751  24.487  24.466   8.555
 7243POPC   D2A23752  24.501  24.499   8.255
 7243POPC   C3A23753  24.510  24.525   7.955
 7243POPC   C4A23754  24.498  24.476   7.655
 7243POPC   C1B23755  24.519  24.776   8.555
 7243POPC   C2B23756  24.576  24.728   8.255
 7243POPC   C3B23757  24.566  24.729   7.955
 7243POPC   C4B23758  24.565  24.743   7.655
 7244POPC   NC323759  38.442   2.723   9.455
 7244POPC   PO423760  38.463   2.749   9.155
 7244POPC   GL123761  38.472   2.770   8.855
 7244POPC   GL223762  38.501   2.595   8.855
 7244POPC   C1A23763  38.472   2.780   8.555
 7244POPC   D2A23764  38.422   2.800   8.255
 7244POPC   C3A23765  38.464   2.755   7.955
 7244POPC   C4A23766  38.476   2.799   7.655
 7244POPC   C1B23767  38.476   2.517   8.555
 7244POPC   C2B23768  38.483   2.491   8.255
 7244POPC   C3B23769  38.489   2.490   7.955
 7244POPC   C4B23770  38.506   2.507   7.655
 7245POPC   NC323771  12.123   8.943   9.455
 7245POPC   PO423772  12.035   8.938   9.155
 7245POPC   GL123773  12.113   9.011   8.855
 7245POPC   GL223774  12.158   8.835   8.855
 7245POPC   C1A23775  12.091   8.930   8.555
 7245POPC   D2A23776  12.035   8.970   8.255
 7245POPC   C3A23777  12.075   8.979   7.955
 7245POPC   C4A23778  12.121   8.950   7.655
 7245POPC   C1B23779  12.160   8.781   8.555
 7245POPC   C2B23780  12.201   8.739   8.255
 7245POPC   C3B23781  12.201   8.774   7.955
 7245POPC   C4B23782  12.175   8.770   7.655
 7246POPC   NC323783  35.349  12.831   9.455
 7246POPC   PO423784  35.354  12.859   9.155
 7246POPC   GL123785  35.344  12.867   8.855
 7246POPC   GL223786  35.229  12.818   8.855
 7246POPC   C1A23787  35.334  12.875   8.555
 7246POPC   D2A23788  35.352  12.834   8.255
 7246POPC   C3A23789  35.308  12.841   7.955
 7246POPC   C4A23790  35.323  12.879   7.655
 7246POPC   C1B23791  35.118  12.721   8.555
 7246POPC   C2B23792  35.095  12.722   8.255
 7246POPC   C3B23793  35.170  12.702   7.955
 7246POPC   C4B23794  35.100  12.720   7.655
 7247POPC   NC323795  23.691   5.061   9.455
 7247POPC   PO423796  23.699   5.099   9.155
 7247POPC   GL123797  23.695   5.090   8.855
 7247POPC   GL223798  23.579   5.093   8.855
 7247POPC   C1A23799  23.722   5.096   8.555
 7247POPC   D2A23800  23.734   5.052   8.255
 7247POPC   C3A23801  23.758   5.125   7.955
 7247POPC   C4A23802  23.721   5.052   7.655
 7247POPC   C1B23803  23.448   5.154   8.555
 7247POPC   C2B23804  23.492   5.202   8.255
 7247POPC   C3B23805  23.459   5.138   7.955
 7247POPC   C4B23806  23.454   5.190   7.655
 7248POPC   NC323807  37.657  29.146   9.455
 7248POPC   PO423808  37.723  29.114   9.155
 7248POPC   GL123809  37.669  29.157   8.855
 7248POPC   GL223810  37.616  29.034   8.855
 7248POPC   C1A23811  37.662  29.188   8.555
 7248POPC   D2A23812  37.723  29.097   8.255
 7248POPC   C3A23813  37.698  29.110   7.955
 7248POPC   C4A23814  37.640  29.121   7.655
 7248POPC   C1B23815  37.562  28.915   8.555
 7248POPC   C2B23816  37.589  28.944   8.255
 7248POPC   C3B23817  37.560  28.881   7.955
 7248POPC   C4B23818  37.564  28.897   7.655
 7249POPC   NC323819  14.436  12.813   9.455
 7249POPC   PO423820  14.441  12.899   9.155
 7249POPC   GL123821  14.394  12.850   8.855
 7249POPC   GL223822  14.334  12.739   8.855
 7249POPC   C1A23823  14.391  12.856   8.555
 7249POPC   D2A23824  14.419  12.830   8.255
 7249POPC   C3A23825  14.426  12.898   7.955
 7249POPC   C4A23826  14.424  12.831   7.655
 7249POPC   C1B23827  14.335  12.636   8.555
 7249POPC   C2B23828  14.326  12.658   8.255
 7249POPC   C3B23829  14.357  12.636   7.955
 7249POPC   C4B23830  14.318  12.625   7.655
 7250POPC   NC323831  33.001  22.974   9.455
 7250POPC   PO423832  33.030  22.923   9.155
 7250POPC   GL123833  33.039  22.917   8.855
 7250POPC   GL223834  33.086  22.862   8.855
 7250POPC   C1A23835  33.074  22.983   8.555
 7250POPC   D2A23836  33.013  22.911   8.255
 7250POPC   C3A23837  33.065  22.918   7.955
 7250POPC   C4A23838  33.028  22.958   7.655
 7250POPC   C1B23839  33.100  22.709   8.555
 7250POPC   C2B23840  33.097  22.708   8.255
 7250POPC   C3B23841  33.074  22.662   7.955
 7250POPC   C4B23842  33.049  22.702   7.655
 7251POPC   NC323843  14.442  40.005   9.455
 7251POPC   PO423844  14.397  40.020   9.155
 7251POPC   GL123845  14.369  39.991   8.855
 7251POPC   GL223846  14.293  40.053   8.855
 7251POPC   C1A23847  14.409  39.983   8.555
 7251POPC   D2A23848  14.397  40.052   8.255
 7251POPC   C3A23849  14.388  40.016   7.955
 7251POPC   C4A23850  14.375  39.963   7.655
 7251POPC   C1B23851  14.175  40.126   8.555
 7251POPC   C2B23852  14.146  40.132   8.255
 7251POPC   C3B23853  14.138  40.102   7.955
 7251POPC   C4B23854  14.169  40.138   7.655
 7252POPC   NC323855  34.569  28.368   9.455
 7252POPC   PO423856  34.550  28.377   9.155
 7252POPC   GL123857  34.597  28.397   8.855
 7252POPC   GL223858  34.689  28.481   8.855
 7252POPC   C1A23859  34.618  28.407   8.555
 7252POPC   D2A23860  34.611  28.413   8.255
 7252POPC   C3A23861  34.543  28.414   7.955
 7252POPC   C4A23862  34.611  28.348   7.655
 7252POPC   C1B23863  34.765  28.532   8.555
 7252POPC   C2B23864  34.750  28.470   8.255
 7252POPC   C3B23865  34.760  28.562   7.955
 7252POPC   C4B23866  34.743  28.535   7.655
 7253POPC   NC323867  43.878  35.324   9.455
 7253POPC   PO423868  43.845  35.364   9.155
 7253POPC   GL123869  43.899  35.324   8.855
 7253POPC   GL223870  43.920  35.273   8.855
 7253POPC   C1A23871  43.881  35.302   8.555
 7253POPC   D2A23872  43.844  35.352   8.255
 7253POPC   C3A23873  43.843  35.336   7.955
 7253POPC   C4A23874  43.930  35.368   7.655
 7253POPC   C1B23875  43.872  35.093   8.555
 7253POPC   C2B23876  43.938  35.092   8.255
 7253POPC   C3B23877  43.925  35.079   7.955
 7253POPC   C4B23878  43.925  35.141   7.655
 7254POPC   NC323879  44.699  38.461   9.455
 7254POPC   PO423880  44.661  38.479   9.155
 7254POPC   GL123881  44.622  38.433   8.855
 7254POPC   GL223882  44.578  38.534   8.855
 7254POPC   C1A23883  44.699  38.467   8.555
 7254POPC   D2A23884  44.617  38.435   8.255
 7254POPC   C3A23885  44.680  38.474   7.955
 7254POPC   C4A23886  44.641  38.480   7.655
 7254POPC   C1B23887  44.461  38.562   8.555
 7254POPC   C2B23888  44.405  38.607   8.255
 7254POPC   C3B23889  44.483  38.562   7.955
 7254POPC   C4B23890  44.410  38.593   7.655
 7255POPC   NC323891   8.185  24.475   9.455
 7255POPC   PO423892   8.236  24.515   9.155
 7255POPC   GL123893   8.206  24.523   8.855
 7255POPC   GL223894   8.111  24.365   8.855
 7255POPC   C1A23895   8.191  24.459   8.555
 7255POPC   D2A23896   8.198  24.502   8.255
 7255POPC   C3A23897   8.161  24.442   7.955
 7255POPC   C4A23898   8.155  24.507   7.655
 7255POPC   C1B23899   8.029  24.287   8.555
 7255POPC   C2B23900   8.002  24.280   8.255
 7255POPC   C3B23901   8.043  24.350   7.955
 7255POPC   C4B23902   8.005  24.293   7.655
 7256POPC   NC323903  14.447  37.663   9.455
 7256POPC   PO423904  14.378  37.705   9.155
 7256POPC   GL123905  14.432  37.716   8.855
 7256POPC   GL223906  14.330  37.574   8.855
 7256POPC   C1A23907  14.450  37.727   8.555
 7256POPC   D2A23908  14.428  37.650   8.255
 7256POPC   C3A23909  14.423  37.654   7.955
 7256POPC   C4A23910  14.441  37.670   7.655
 7256POPC   C1B23911  14.322  37.455   8.555
 7256POPC   C2B23912  14.291  37.433   8.255
 7256POPC   C3B23913  14.345  37.492   7.955
 7256POPC   C4B23914  14.290  37.463   7.655
 7257POPC   NC323915  31.513  39.247   9.455
 7257POPC   PO423916  31.462  39.243   9.155
 7257POPC   GL123917  31.465  39.223   8.855
 7257POPC   GL223918  31.541  39.336   8.855
 7257POPC   C1A23919  31.455  39.189   8.555
 7257POPC   D2A23920  31.516  39.232   8.255
 7257POPC   C3A23921  31.475  39.189   7.955
 7257POPC   C4A23922  31.474  39.225   7.655
 7257POPC   C1B23923  31.664  39.389   8.555
 7257POPC   C2B23924  31.616  39.444   8.255
 7257POPC   C3B23925  31.703  39.395   7.955
 7257POPC   C4B23926  31.648  39.441   7.655
 7258POPC   NC323927  43.107   7.460   9.455
 7258POPC   PO423928  43.075   7.385   9.155
 7258POPC   GL123929  43.062   7.446   8.855
 7258POPC   GL223930  43.217   7.536   8.855
 7258POPC   C1A23931  43.134   7.466   8.555
 7258POPC   D2A23932  43.150   7.418   8.255
 7258POPC   C3A23933  43.118   7.464   7.955
 7258POPC   C4A23934  43.089   7.419   7.655
 7258POPC   C1B23935  43.341   7.612   8.555
 7258POPC   C2B23936  43.330   7.576   8.255
 7258POPC   C3B23937  43.323   7.585   7.955
 7258POPC   C4B23938  43.325   7.524   7.655
 7259POPC   NC323939  30.694  34.601   9.455
 7259POPC   PO423940  30.717  34.544   9.155
 7259POPC   GL123941  30.679  34.599   8.855
 7259POPC   GL223942  30.776  34.613   8.855
 7259POPC   C1A23943  30.742  34.609   8.555
 7259POPC   D2A23944  30.744  34.558   8.255
 7259POPC   C3A23945  30.681  34.559   7.955
 7259POPC   C4A23946  30.665  34.617   7.655
 7259POPC   C1B23947  30.983  34.561   8.555
 7259POPC   C2B23948  30.920  34.585   8.255
 7259POPC   C3B23949  30.970  34.581   7.955
 7259POPC   C4B23950  30.976  34.630   7.655
 7260POPC   NC323951  27.595  36.131   9.455
 7260POPC   PO423952  27.613  36.176   9.155
 7260POPC   GL123953  27.587  36.161   8.855
 7260POPC   GL223954  27.729  36.069   8.855
 7260POPC   C1A23955  27.600  36.135   8.555
 7260POPC   D2A23956  27.620  36.140   8.255
 7260POPC   C3A23957  27.574  36.088   7.955
 7260POPC   C4A23958  27.611  36.134   7.655
 7260POPC   C1B23959  27.779  36.072   8.555
 7260POPC   C2B23960  27.805  36.001   8.255
 7260POPC   C3B23961  27.872  36.013   7.955
 7260POPC   C4B23962  27.784  36.008   7.655
 7261POPC   NC323963  43.845  29.151   9.455
 7261POPC   PO423964  43.906  29.129   9.155
 7261POPC   GL123965  43.927  29.120   8.855
 7261POPC   GL223966  44.026  29.207   8.855
 7261POPC   C1A23967  43.899  29.162   8.555
 7261POPC   D2A23968  43.893  29.104   8.255
 7261POPC   C3A23969  43.845  29.111   7.955
 7261POPC   C4A23970  43.911  29.170   7.655
 7261POPC   C1B23971  44.044  29.327   8.555
 7261POPC   C2B23972  44.038  29.344   8.255
 7261POPC   C3B23973  44.085  29.278   7.955
 7261POPC   C4B23974  44.042  29.262   7.655
 7262POPC   NC323975  43.159  40.810   9.455
 7262POPC   PO423976  43.143  40.778   9.155
 7262POPC   GL123977  43.068  40.768   8.855
 7262POPC   GL223978  42.990  40.648   8.855
 7262POPC   C1A23979  43.071  40.780   8.555
 7262POPC   D2A23980  43.084  40.790   8.255
 7262POPC   C3A23981  43.098  40.805   7.955
 7262POPC   C4A23982  43.154  40.763   7.655
 7262POPC   C1B23983  42.949  40.589   8.555
 7262POPC   C2B23984  43.008  40.617   8.255
 7262POPC   C3B23985  42.926  40.598   7.955
 7262POPC   C4B23986  42.993  40.631   7.655
 7263POPC   NC323987   5.077  40.015   9.455
 7263POPC   PO423988   5.053  39.965   9.155
 7263POPC   GL123989   5.081  40.049   8.855
 7263POPC   GL223990   4.953  40.077   8.855
 7263POPC   C1A23991   5.098  39.975   8.555
 7263POPC   D2A23992   5.099  40.017   8.255
 7263POPC   C3A23993   5.085  40.044   7.955
 7263POPC   C4A23994   5.114  40.036   7.655
 7263POPC   C1B23995   4.858  40.071   8.555
 7263POPC   C2B23996   4.857  40.023   8.255
 7263POPC   C3B23997   4.895  40.070   7.955
 7263POPC   C4B23998   4.839  40.082   7.655
 7264POPC   NC323999  36.146  26.080   9.455
 7264POPC   PO424000  36.109  26.016   9.155
 7264POPC   GL124001  36.145  26.006   8.855
 7264POPC   GL224002  35.965  26.101   8.855
 7264POPC   C1A24003  36.091  26.001   8.555
 7264POPC   D2A24004  36.170  26.081   8.255
 7264POPC   C3A24005  36.091  25.998   7.955
 7264POPC   C4A24006  36.151  26.076   7.655
 7264POPC   C1B24007  35.840  26.111   8.555
 7264POPC   C2B24008  35.917  26.105   8.255
 7264POPC   C3B24009  35.907  26.152   7.955
 7264POPC   C4B24010  35.872  26.124   7.655
 7265POPC   NC324011  19.831  37.654   9.455
 7265POPC   PO424012  19.816  37.682   9.155
 7265POPC   GL124013  19.880  37.682   8.855
 7265POPC   GL224014  19.969  37.581   8.855
 7265POPC   C1A24015  19.853  37.664   8.555
 7265POPC   D2A24016  19.873  37.686   8.255
 7265POPC   C3A24017  19.796  37.693   7.955
 7265POPC   C4A24018  19.869  37.647   7.655
 7265POPC   C1B24019  20.008  37.562   8.555
 7265POPC   C2B24020  20.080  37.547   8.255
 7265POPC   C3B24021  20.026  37.528   7.955
 7265POPC   C4B24022  20.082  37.564   7.655
 7266POPC   NC324023  38.438   8.223   9.455
 7266POPC   PO424024  38.426   8.157   9.155
 7266POPC   GL124025  38.501   8.217   8.855
 7266POPC   GL224026  38.408   8.357   8.855
 7266POPC   C1A24027  38.470   8.219   8.555
 7266POPC   D2A24028  38.487   8.155   8.255
 7266POPC   C3A24029  38.417   8.185   7.955
 7266POPC   C4A24030  38.459   8.203   7.655
 7266POPC   C1B24031  38.378   8.441   8.555
 7266POPC   C2B24032  38.430   8.437   8.255
 7266POPC   C3B24033  38.468   8.432   7.955
 7266POPC   C4B24034  38.406   8.453   7.655
 7267POPC   NC324035  41.569  43.920   9.455
 7267POPC   PO424036  41.551  43.844   9.155
 7267POPC   GL124037  41.513  43.926   8.855
 7267POPC   GL224038  41.589  43.745   8.855
 7267POPC   C1A24039  41.536  43.860   8.555
 7267POPC   D2A24040  41.595  43.910   8.255
 7267POPC   C3A24041  41.604  43.843   7.955
 7267POPC   C4A24042  41.528  43.935   7.655
 7267POPC   C1B24043  41.707  43.660   8.555
 7267POPC   C2B24044  41.731  43.675   8.255
 7267POPC   C3B24045  41.677  43.716   7.955
 7267POPC   C4B24046  41.662  43.629   7.655
 7268POPC   NC324047  40.057  44.686   9.455
 7268POPC   PO424048  40.043  44.710   9.155
 7268POPC   GL124049  40.025  44.638   8.855
 7268POPC   GL224050  40.080  44.758   8.855
 7268POPC   C1A24051  40.000  44.645   8.555
 7268POPC   D2A24052  40.008  44.677   8.255
 7268POPC   C3A24053  39.996  44.698   7.955
 7268POPC   C4A24054  39.970  44.672   7.655
 7268POPC   C1B24055  40.066  44.921   8.555
 7268POPC   C2B24056  40.042  44.936   8.255
 7268POPC   C3B24057  40.042  44.922   7.955
 7268POPC   C4B24058  40.118  44.909   7.655
 7269POPC   NC324059  27.632  25.253   9.455
 7269POPC   PO424060  27.630  25.314   9.155
 7269POPC   GL124061  27.628  25.295   8.855
 7269POPC   GL224062  27.441  25.359   8.855
 7269POPC   C1A24063  27.600  25.261   8.555
 7269POPC   D2A24064  27.554  25.288   8.255
 7269POPC   C3A24065  27.622  25.259   7.955
 7269POPC   C4A24066  27.620  25.238   7.655
 7269POPC   C1B24067  27.400  25.407   8.555
 7269POPC   C2B24068  27.336  25.420   8.255
 7269POPC   C3B24069  27.361  25.419   7.955
 7269POPC   C4B24070  27.370  25.372   7.655
 7270POPC   NC324071  29.971  36.932   9.455
 7270POPC   PO424072  29.913  36.857   9.155
 7270POPC   GL124073  29.885  36.911   8.855
 7270POPC   GL224074  29.999  36.858   8.855
 7270POPC   C1A24075  29.886  36.882   8.555
 7270POPC   D2A24076  29.928  36.945   8.255
 7270POPC   C3A24077  29.913  36.916   7.955
 7270POPC   C4A24078  29.908  36.887   7.655
 7270POPC   C1B24079  30.113  36.763   8.555
 7270POPC   C2B24080  30.063  36.769   8.255
 7270POPC   C3B24081  30.102  36.738   7.955
 7270POPC   C4B24082  30.100  36.755   7.655
 7271POPC   NC324083  26.060   9.753   9.455
 7271POPC   PO424084  26.079   9.787   9.155
 7271POPC   GL124085  26.012   9.758   8.855
 7271POPC   GL224086  26.151   9.707   8.855
 7271POPC   C1A24087  26.022   9.734   8.555
 7271POPC   D2A24088  26.007   9.703   8.255
 7271POPC   C3A24089  26.056   9.781   7.955
 7271POPC   C4A24090  25.993   9.716   7.655
 7271POPC   C1B24091  26.261   9.743   8.555
 7271POPC   C2B24092  26.309   9.710   8.255
 7271POPC   C3B24093  26.279   9.690   7.955
 7271POPC   C4B24094  26.281   9.754   7.655
 7272POPC   NC324095  16.760  38.479   9.455
 7272POPC   PO424096  16.754  38.477   9.155
 7272POPC   GL124097  16.747  38.409   8.855
 7272POPC   GL224098  16.731  38.350   8.855
 7272POPC   C1A24099  16.772  38.449   8.555
 7272POPC   D2A24100  16.768  38.438   8.255
 7272POPC   C3A24101  16.737  38.501   7.955
 7272POPC   C4A24102  16.704  38.495   7.655
 7272POPC   C1B24103  16.758  38.156   8.555
 7272POPC   C2B24104  16.701  38.159   8.255
 7272POPC   C3B24105  16.748  38.212   7.955
 7272POPC   C4B24106  16.756  38.176   7.655
 7273POPC   NC324107  13.655  22.177   9.455
 7273POPC   PO424108  13.658  22.195   9.155
 7273POPC   GL124109  13.587  22.200   8.855
 7273POPC   GL224110  13.751  22.081   8.855
 7273POPC   C1A24111  13.643  22.207   8.555
 7273POPC   D2A24112  13.650  22.188   8.255
 7273POPC   C3A24113  13.583  22.207   7.955
 7273POPC   C4A24114  13.632  22.172   7.655
 7273POPC   C1B24115  13.806  22.069   8.555
 7273POPC   C2B24116  13.863  22.056   8.255
 7273POPC   C3B24117  13.856  22.076   7.955
 7273POPC   C4B24118  13.858  22.009   7.655
 7274POPC   NC324119  30.690  19.092   9.455
 7274POPC   PO424120  30.713  19.104   9.155
 7274POPC   GL124121  30.694  19.052   8.855
 7274POPC   GL224122  30.578  18.995   8.855
 7274POPC   C1A24123  30.723  19.052   8.555
 7274POPC   D2A24124  30.746  19.091   8.255
 7274POPC   C3A24125  30.708  19.094   7.955
 7274POPC   C4A24126  30.651  19.062   7.655
 7274POPC   C1B24127  30.577  18.834   8.555
 7274POPC   C2B24128  30.547  18.828   8.255
 7274POPC   C3B24129  30.484  18.919   7.955
 7274POPC   C4B24130  30.502  18.891   7.655
 7275POPC   NC324131  35.330   1.236   9.455
 7275POPC   PO424132  35.364   1.240   9.155
 7275POPC   GL124133  35.335   1.185   8.855
 7275POPC   GL224134  35.361   1.299   8.855
 7275POPC   C1A24135  35.365   1.210   8.555
 7275POPC   D2A24136  35.384   1.170   8.255
 7275POPC   C3A24137  35.402   1.234   7.955
 7275POPC   C4A24138  35.395   1.228   7.655
 7275POPC   C1B24139  35.463   1.483   8.555
 7275POPC   C2B24140  35.483   1.491   8.255
 7275POPC   C3B24141  35.401   1.400   7.955
 7275POPC   C4B24142  35.398   1.400   7.655
 7276POPC   NC324143  12.874  25.223   9.455
 7276POPC   PO424144  12.901  25.232   9.155
 7276POPC   GL124145  12.890  25.267   8.855
 7276POPC   GL224146  12.791  25.362   8.855
 7276POPC   C1A24147  12.876  25.223   8.555
 7276POPC   D2A24148  12.875  25.237   8.255
 7276POPC   C3A24149  12.819  25.288   7.955
 7276POPC   C4A24150  12.861  25.302   7.655
 7276POPC   C1B24151  12.681  25.513   8.555
 7276POPC   C2B24152  12.683  25.424   8.255
 7276POPC   C3B24153  12.737  25.490   7.955
 7276POPC   C4B24154  12.735  25.472   7.655
 7277POPC   NC324155  25.278  12.048   9.455
 7277POPC   PO424156  25.279  12.116   9.155
 7277POPC   GL124157  25.217  12.053   8.855
 7277POPC   GL224158  25.198  12.152   8.855
 7277POPC   C1A24159  25.286  12.113   8.555
 7277POPC   D2A24160  25.251  12.034   8.255
 7277POPC   C3A24161  25.222  12.043   7.955
 7277POPC   C4A24162  25.228  12.035   7.655
 7277POPC   C1B24163  25.079  12.232   8.555
 7277POPC   C2B24164  25.071  12.171   8.255
 7277POPC   C3B24165  25.060  12.193   7.955
 7277POPC   C4B24166  25.001  12.226   7.655
 7278POPC   NC324167  31.436  30.718   9.455
 7278POPC   PO424168  31.474  30.721   9.155
 7278POPC   GL124169  31.429  30.739   8.855
 7278POPC   GL224170  31.447  30.827   8.855
 7278POPC   C1A24171  31.508  30.734   8.555
 7278POPC   D2A24172  31.491  30.744   8.255
 7278POPC   C3A24173  31.490  30.663   7.955
 7278POPC   C4A24174  31.426  30.731   7.655
 7278POPC   C1B24175  31.374  30.925   8.555
 7278POPC   C2B24176  31.313  30.888   8.255
 7278POPC   C3B24177  31.366  30.872   7.955
 7278POPC   C4B24178  31.361  30.870   7.655
 7279POPC   NC324179  13.586  18.311   9.455
 7279POPC   PO424180  13.602  18.312   9.155
 7279POPC   GL124181  13.628  18.299   8.855
 7279POPC   GL224182  13.518  18.286   8.855
 7279POPC   C1A24183  13.617  18.274   8.555
 7279POPC   D2A24184  13.645  18.285   8.255
 7279POPC   C3A24185  13.610  18.234   7.955
 7279POPC   C4A24186  13.581  18.277   7.655
 7279POPC   C1B24187  13.391  18.345   8.555
 7279POPC   C2B24188  13.396  18.345   8.255
 7279POPC   C3B24189  13.393  18.316   7.955
 7279POPC   C4B24190  13.394  18.354   7.655
 7280POPC   NC324191  29.180   6.617   9.455
 7280POPC   PO424192  29.175   6.676   9.155
 7280POPC   GL124193  29.194   6.616   8.855
 7280POPC   GL224194  29.279   6.755   8.855
 7280POPC   C1A24195  29.104   6.631   8.555
 7280POPC   D2A24196  29.166   6.673   8.255
 7280POPC   C3A24197  29.117   6.691   7.955
 7280POPC   C4A24198  29.097   6.641   7.655
 7280POPC   C1B24199  29.316   6.790   8.555
 7280POPC   C2B24200  29.301   6.833   8.255
 7280POPC   C3B24201  29.337   6.806   7.955
 7280POPC   C4B24202  29.350   6.824   7.655
 7281POPC   NC324203  28.371  11.327   9.455
 7281POPC   PO424204  28.341  11.349   9.155
 7281POPC   GL124205  28.359  11.271   8.855
 7281POPC   GL224206  28.298  11.348   8.855
 7281POPC   C1A24207  28.417  11.323   8.555
 7281POPC   D2A24208  28.382  11.340   8.255
 7281POPC   C3A24209  28.346  11.310   7.955
 7281POPC   C4A24210  28.365  11.304   7.655
 7281POPC   C1B24211  28.151  11.497   8.555
 7281POPC   C2B24212  28.153  11.437   8.255
 7281POPC   C3B24213  28.165  11.492   7.955
 7281POPC   C4B24214  28.206  11.482   7.655
 7282POPC   NC324215   7.423  39.261   9.455
 7282POPC   PO424216   7.469  39.252   9.155
 7282POPC   GL124217   7.393  39.234   8.855
 7282POPC   GL224218   7.331  39.118   8.855
 7282POPC   C1A24219   7.388  39.241   8.555
 7282POPC   D2A24220   7.400  39.190   8.255
 7282POPC   C3A24221   7.377  39.183   7.955
 7282POPC   C4A24222   7.452  39.217   7.655
 7282POPC   C1B24223   7.292  38.993   8.555
 7282POPC   C2B24224   7.277  39.051   8.255
 7282POPC   C3B24225   7.232  39.018   7.955
 7282POPC   C4B24226   7.267  39.049   7.655
 7283POPC   NC324227  27.545   7.446   9.455
 7283POPC   PO424228  27.609   7.402   9.155
 7283POPC   GL124229  27.589   7.372   8.855
 7283POPC   GL224230  27.722   7.360   8.855
 7283POPC   C1A24231  27.641   7.457   8.555
 7283POPC   D2A24232  27.547   7.379   8.255
 7283POPC   C3A24233  27.555   7.382   7.955
 7283POPC   C4A24234  27.562   7.375   7.655
 7283POPC   C1B24235  27.852   7.338   8.555
 7283POPC   C2B24236  27.808   7.278   8.255
 7283POPC   C3B24237  27.812   7.339   7.955
 7283POPC   C4B24238  27.813   7.303   7.655
 7284POPC   NC324239   4.315  22.897   9.455
 7284POPC   PO424240   4.276  22.972   9.155
 7284POPC   GL124241   4.312  22.893   8.855
 7284POPC   GL224242   4.457  22.908   8.855
 7284POPC   C1A24243   4.332  22.911   8.555
 7284POPC   D2A24244   4.325  22.890   8.255
 7284POPC   C3A24245   4.289  22.961   7.955
 7284POPC   C4A24246   4.317  22.977   7.655
 7284POPC   C1B24247   4.530  22.864   8.555
 7284POPC   C2B24248   4.561  22.879   8.255
 7284POPC   C3B24249   4.547  22.866   7.955
 7284POPC   C4B24250   4.500  22.784   7.655
 7285POPC   NC324251  44.670  29.190   9.455
 7285POPC   PO424252  44.635  29.140   9.155
 7285POPC   GL124253  44.706  29.101   8.855
 7285POPC   GL224254  44.715  29.030   8.855
 7285POPC   C1A24255  44.692  29.116   8.555
 7285POPC   D2A24256  44.631  29.147   8.255
 7285POPC   C3A24257  44.671  29.136   7.955
 7285POPC   C4A24258  44.676  29.116   7.655
 7285POPC   C1B24259  44.767  28.968   8.555
 7285POPC   C2B24260  44.777  28.989   8.255
 7285POPC   C3B24261  44.804  28.904   7.955
 7285POPC   C4B24262  44.804  28.928   7.655
 7286POPC   NC324263  38.415   5.875   9.455
 7286POPC   PO424264  38.406   5.839   9.155
 7286POPC   GL124265  38.436   5.885   8.855
 7286POPC   GL224266  38.428   5.797   8.855
 7286POPC   C1A24267  38.462   5.885   8.555
 7286POPC   D2A24268  38.459   5.893   8.255
 7286POPC   C3A24269  38.486   5.914   7.955
 7286POPC   C4A24270  38.450   5.901   7.655
 7286POPC   C1B24271  38.396   5.659   8.555
 7286POPC   C2B24272  38.426   5.668   8.255
 7286POPC   C3B24273  38.397   5.647   7.955
 7286POPC   C4B24274  38.373   5.642   7.655
 7287POPC   NC324275  43.066  29.126   9.455
 7287POPC   PO424276  43.072  29.126   9.155
 7287POPC   GL124277  43.153  29.188   8.855
 7287POPC   GL224278  43.218  29.191   8.855
 7287POPC   C1A24279  43.067  29.117   8.555
 7287POPC   D2A24280  43.085  29.125   8.255
 7287POPC   C3A24281  43.142  29.175   7.955
 7287POPC   C4A24282  43.148  29.112   7.655
 7287POPC   C1B24283  43.332  29.239   8.555
 7287POPC   C2B24284  43.338  29.253   8.255
 7287POPC   C3B24285  43.371  29.240   7.955
 7287POPC   C4B24286  43.396  29.187   7.655
 7288POPC   NC324287  20.647  35.304   9.455
 7288POPC   PO424288  20.598  35.377   9.155
 7288POPC   GL124289  20.565  35.337   8.855
 7288POPC   GL224290  20.705  35.420   8.855
 7288POPC   C1A24291  20.616  35.355   8.555
 7288POPC   D2A24292  20.660  35.395   8.255
 7288POPC   C3A24293  20.615  35.371   7.955
 7288POPC   C4A24294  20.647  35.390   7.655
 7288POPC   C1B24295  20.856  35.440   8.555
 7288POPC   C2B24296  20.866  35.492   8.255
 7288POPC   C3B24297  20.790  35.476   7.955
 7288POPC   C4B24298  20.806  35.500   7.655
 7289POPC   NC324299   8.200  35.323   9.455
 7289POPC   PO424300   8.158  35.341   9.155
 7289POPC   GL124301   8.229  35.365   8.855
 7289POPC   GL224302   8.118  35.276   8.855
 7289POPC   C1A24303   8.194  35.323   8.555
 7289POPC   D2A24304   8.203  35.385   8.255
 7289POPC   C3A24305   8.204  35.398   7.955
 7289POPC   C4A24306   8.172  35.392   7.655
 7289POPC   C1B24307   7.940  35.268   8.555
 7289POPC   C2B24308   7.950  35.249   8.255
 7289POPC   C3B24309   7.948  35.197   7.955
 7289POPC   C4B24310   7.992  35.187   7.655
 7290POPC   NC324311   6.687  40.812   9.455
 7290POPC   PO424312   6.628  40.796   9.155
 7290POPC   GL124313   6.675  40.829   8.855
 7290POPC   GL224314   6.785  40.750   8.855
 7290POPC   C1A24315   6.657  40.823   8.555
 7290POPC   D2A24316   6.620  40.740   8.255
 7290POPC   C3A24317   6.665  40.758   7.955
 7290POPC   C4A24318   6.601  40.794   7.655
 7290POPC   C1B24319   6.820  40.720   8.555
 7290POPC   C2B24320   6.871  40.653   8.255
 7290POPC   C3B24321   6.830  40.623   7.955
 7290POPC   C4B24322   6.914  40.632   7.655
 7291POPC   NC324323   2.805  17.470   9.455
 7291POPC   PO424324   2.744  17.550   9.155
 7291POPC   GL124325   2.742  17.524   8.855
 7291POPC   GL224326   2.845  17.638   8.855
 7291POPC   C1A24327   2.744  17.529   8.555
 7291POPC   D2A24328   2.782  17.484   8.255
 7291POPC   C3A24329   2.722  17.506   7.955
 7291POPC   C4A24330   2.785  17.521   7.655
 7291POPC   C1B24331   2.898  17.694   8.555
 7291POPC   C2B24332   2.840  17.710   8.255
 7291POPC   C3B24333   2.934  17.688   7.955
 7291POPC   C4B24334   2.857  17.767   7.655
 7292POPC   NC324335  18.318  24.523   9.455
 7292POPC   PO424336  18.277  24.481   9.155
 7292POPC   GL124337  18.282  24.536   8.855
 7292POPC   GL224338  18.336  24.326   8.855
 7292POPC   C1A24339  18.316  24.463   8.555
 7292POPC   D2A24340  18.323  24.462   8.255
 7292POPC   C3A24341  18.280  24.453   7.955
 7292POPC   C4A24342  18.306  24.497   7.655
 7292POPC   C1B24343  18.351  24.220   8.555
 7292POPC   C2B24344  18.403  24.239   8.255
 7292POPC   C3B24345  18.308  24.221   7.955
 7292POPC   C4B24346  18.333  24.264   7.655
 7293POPC   NC324347  39.234   6.675   9.455
 7293POPC   PO424348  39.184   6.597   9.155
 7293POPC   GL124349  39.233   6.601   8.855
 7293POPC   GL224350  39.278   6.526   8.855
 7293POPC   C1A24351  39.181   6.672   8.555
 7293POPC   D2A24352  39.271   6.679   8.255
 7293POPC   C3A24353  39.248   6.656   7.955
 7293POPC   C4A24354  39.244   6.627   7.655
 7293POPC   C1B24355  39.341   6.482   8.555
 7293POPC   C2B24356  39.390   6.475   8.255
 7293POPC   C3B24357  39.409   6.407   7.955
 7293POPC   C4B24358  39.408   6.435   7.655
 7294POPC   NC324359  15.219  12.826   9.455
 7294POPC   PO424360  15.190  12.814   9.155
 7294POPC   GL124361  15.189  12.811   8.855
 7294POPC   GL224362  15.156  12.734   8.855
 7294POPC   C1A24363  15.165  12.813   8.555
 7294POPC   D2A24364  15.186  12.900   8.255
 7294POPC   C3A24365  15.188  12.813   7.955
 7294POPC   C4A24366  15.173  12.849   7.655
 7294POPC   C1B24367  15.261  12.583   8.555
 7294POPC   C2B24368  15.243  12.595   8.255
 7294POPC   C3B24369  15.209  12.590   7.955
 7294POPC   C4B24370  15.234  12.636   7.655
 7295POPC   NC324371  29.185  30.694   9.455
 7295POPC   PO424372  29.136  30.733   9.155
 7295POPC   GL124373  29.102  30.668   8.855
 7295POPC   GL224374  28.990  30.631   8.855
 7295POPC   C1A24375  29.146  30.653   8.555
 7295POPC   D2A24376  29.194  30.661   8.255
 7295POPC   C3A24377  29.134  30.726   7.955
 7295POPC   C4A24378  29.155  30.683   7.655
 7295POPC   C1B24379  28.900  30.602   8.555
 7295POPC   C2B24380  28.873  30.616   8.255
 7295POPC   C3B24381  28.945  30.615   7.955
 7295POPC   C4B24382  28.870  30.600   7.655
 7296POPC   NC324383  19.823  27.639   9.455
 7296POPC   PO424384  19.831  27.623   9.155
 7296POPC   GL124385  19.785  27.623   8.855
 7296POPC   GL224386  19.774  27.688   8.855
 7296POPC   C1A24387  19.836  27.544   8.555
 7296POPC   D2A24388  19.791  27.554   8.255
 7296POPC   C3A24389  19.842  27.622   7.955
 7296POPC   C4A24390  19.876  27.595   7.655
 7296POPC   C1B24391  19.699  27.869   8.555
 7296POPC   C2B24392  19.714  27.811   8.255
 7296POPC   C3B24393  19.745  27.860   7.955
 7296POPC   C4B24394  19.720  27.821   7.655
 7297POPC   NC324395  29.923  28.333   9.455
 7297POPC   PO424396  29.963  28.407   9.155
 7297POPC   GL124397  29.946  28.419   8.855
 7297POPC   GL224398  30.025  28.312   8.855
 7297POPC   C1A24399  29.948  28.395   8.555
 7297POPC   D2A24400  29.907  28.377   8.255
 7297POPC   C3A24401  29.948  28.389   7.955
 7297POPC   C4A24402  29.916  28.351   7.655
 7297POPC   C1B24403  30.058  28.204   8.555
 7297POPC   C2B24404  30.081  28.243   8.255
 7297POPC   C3B24405  30.079  28.209   7.955
 7297POPC   C4B24406  30.145  28.161   7.655
 7298POPC   NC324407  38.501   4.292   9.455
 7298POPC   PO424408  38.500   4.334   9.155
 7298POPC   GL124409  38.420   4.339   8.855
 7298POPC   GL224410  38.466   4.180   8.855
 7298POPC   C1A24411  38.439   4.356   8.555
 7298POPC   D2A24412  38.417   4.279   8.255
 7298POPC   C3A24413  38.407   4.366   7.955
 7298POPC   C4A24414  38.417   4.320   7.655
 7298POPC   C1B24415  38.434   4.099   8.555
 7298POPC   C2B24416  38.459   4.105   8.255
 7298POPC   C3B24417  38.426   4.115   7.955
 7298POPC   C4B24418  38.427   4.090   7.655
 7299POPC   NC324419  12.805  29.876   9.455
 7299POPC   PO424420  12.893  29.887   9.155
 7299POPC   GL124421  12.888  29.883   8.855
 7299POPC   GL224422  12.727  29.838   8.855
 7299POPC   C1A24423  12.853  29.914   8.555
 7299POPC   D2A24424  12.896  29.954   8.255
 7299POPC   C3A24425  12.870  29.882   7.955
 7299POPC   C4A24426  12.855  29.953   7.655
 7299POPC   C1B24427  12.634  29.804   8.555
 7299POPC   C2B24428  12.640  29.840   8.255
 7299POPC   C3B24429  12.665  29.828   7.955
 7299POPC   C4B24430  12.614  29.838   7.655
 7300POPC   NC324431  12.110  23.701   9.455
 7300POPC   PO424432  12.120  23.675   9.155
 7300POPC   GL124433  12.030  23.705   8.855
 7300POPC   GL224434  12.182  23.725   8.855
 7300POPC   C1A24435  12.092  23.681   8.555
 7300POPC   D2A24436  12.083  23.705   8.255
 7300POPC   C3A24437  12.051  23.713   7.955
 7300POPC   C4A24438  12.045  23.761   7.655
 7300POPC   C1B24439  12.320  23.841   8.555
 7300POPC   C2B24440  12.281  23.757   8.255
 7300POPC   C3B24441  12.283  23.800   7.955
 7300POPC   C4B24442  12.336  23.800   7.655
 7301POPC   NC324443  31.433  13.658   9.455
 7301POPC   PO424444  31.423  13.639   9.155
 7301POPC   GL124445  31.483  13.637   8.855
 7301POPC   GL224446  31.554  13.745   8.855
 7301POPC   C1A24447  31.440  13.583   8.555
 7301POPC   D2A24448  31.474  13.604   8.255
 7301POPC   C3A24449  31.444  13.672   7.955
 7301POPC   C4A24450  31.439  13.600   7.655
 7301POPC   C1B24451  31.595  13.859   8.555
 7301POPC   C2B24452  31.664  13.765   8.255
 7301POPC   C3B24453  31.652  13.778   7.955
 7301POPC   C4B24454  31.668  13.798   7.655
 7302POPC   NC324455  17.471  24.499   9.455
 7302POPC   PO424456  17.551  24.455   9.155
 7302POPC   GL124457  17.529  24.519   8.855
 7302POPC   GL224458  17.395  24.554   8.855
 7302POPC   C1A24459  17.512  24.498   8.555
 7302POPC   D2A24460  17.462  24.490   8.255
 7302POPC   C3A24461  17.544  24.490   7.955
 7302POPC   C4A24462  17.518  24.454   7.655
 7302POPC   C1B24463  17.283  24.568   8.555
 7302POPC   C2B24464  17.316  24.629   8.255
 7302POPC   C3B24465  17.252  24.581   7.955
 7302POPC   C4B24466  17.286  24.622   7.655
 7303POPC   NC324467  10.478  37.663   9.455
 7303POPC   PO424468  10.505  37.639   9.155
 7303POPC   GL124469  10.532  37.684   8.855
 7303POPC   GL224470  10.371  37.735   8.855
 7303POPC   C1A24471  10.498  37.706   8.555
 7303POPC   D2A24472  10.500  37.649   8.255
 7303POPC   C3A24473  10.553  37.703   7.955
 7303POPC   C4A24474  10.502  37.654   7.655
 7303POPC   C1B24475  10.319  37.843   8.555
 7303POPC   C2B24476  10.358  37.797   8.255
 7303POPC   C3B24477  10.359  37.796   7.955
 7303POPC   C4B24478  10.332  37.836   7.655
 7304POPC   NC324479  11.289  11.271   9.455
 7304POPC   PO424480  11.267  11.326   9.155
 7304POPC   GL124481  11.330  11.296   8.855
 7304POPC   GL224482  11.440  11.222   8.855
 7304POPC   C1A24483  11.271  11.270   8.555
 7304POPC   D2A24484  11.265  11.300   8.255
 7304POPC   C3A24485  11.301  11.296   7.955
 7304POPC   C4A24486  11.273  11.288   7.655
 7304POPC   C1B24487  11.515  11.228   8.555
 7304POPC   C2B24488  11.513  11.195   8.255
 7304POPC   C3B24489  11.554  11.212   7.955
 7304POPC   C4B24490  11.514  11.206   7.655
 7305POPC   NC324491  23.726  36.079   9.455
 7305POPC   PO424492  23.760  36.168   9.155
 7305POPC   GL124493  23.707  36.175   8.855
 7305POPC   GL224494  23.772  36.195   8.855
 7305POPC   C1A24495  23.733  36.177   8.555
 7305POPC   D2A24496  23.744  36.080   8.255
 7305POPC   C3A24497  23.692  36.172   7.955
 7305POPC   C4A24498  23.763  36.101   7.655
 7305POPC   C1B24499  23.811  36.327   8.555
 7305POPC   C2B24500  23.782  36.320   8.255
 7305POPC   C3B24501  23.809  36.332   7.955
 7305POPC   C4B24502  23.777  36.330   7.655
 7306POPC   NC324503  44.645  42.289   9.455
 7306POPC   PO424504  44.698  42.292   9.155
 7306POPC   GL124505  44.707  42.371   8.855
 7306POPC   GL224506  44.757  42.213   8.855
 7306POPC   C1A24507  44.698  42.329   8.555
 7306POPC   D2A24508  44.669  42.330   8.255
 7306POPC   C3A24509  44.711  42.374   7.955
 7306POPC   C4A24510  44.707  42.362   7.655
 7306POPC   C1B24511  44.843  42.192   8.555
 7306POPC   C2B24512  44.827  42.222   8.255
 7306POPC   C3B24513  44.855  42.149   7.955
 7306POPC   C4B24514  44.899  42.170   7.655
 7307POPC   NC324515  21.357  40.792   9.455
 7307POPC   PO424516  21.434  40.782   9.155
 7307POPC   GL124517  21.423  40.748   8.855
 7307POPC   GL224518  21.260  40.740   8.855
 7307POPC   C1A24519  21.401  40.833   8.555
 7307POPC   D2A24520  21.410  40.793   8.255
 7307POPC   C3A24521  21.355  40.798   7.955
 7307POPC   C4A24522  21.355  40.816   7.655
 7307POPC   C1B24523  21.207  40.614   8.555
 7307POPC   C2B24524  21.169  40.623   8.255
 7307POPC   C3B24525  21.204  40.652   7.955
 7307POPC   C4B24526  21.158  40.611   7.655
 7308POPC   NC324527   3.540  15.984   9.455
 7308POPC   PO424528   3.578  15.971   9.155
 7308POPC   GL124529   3.552  15.992   8.855
 7308POPC   GL224530   3.517  16.101   8.855
 7308POPC   C1A24531   3.550  15.939   8.555
 7308POPC   D2A24532   3.559  15.981   8.255
 7308POPC   C3A24533   3.512  16.005   7.955
 7308POPC   C4A24534   3.509  15.986   7.655
 7308POPC   C1B24535   3.383  16.169   8.555
 7308POPC   C2B24536   3.374  16.140   8.255
 7308POPC   C3B24537   3.378  16.168   7.955
 7308POPC   C4B24538   3.411  16.151   7.655
 7309POPC   NC324539  26.857  39.979   9.455
 7309POPC   PO424540  26.773  39.972   9.155
 7309POPC   GL124541  26.775  40.009   8.855
 7309POPC   GL224542  26.766  40.176   8.855
 7309POPC   C1A24543  26.866  39.983   8.555
 7309POPC   D2A24544  26.830  39.981   8.255
 7309POPC   C3A24545  26.841  39.974   7.955
 7309POPC   C4A24546  26.808  40.036   7.655
 7309POPC   C1B24547  26.706  40.265   8.555
 7309POPC   C2B24548  26.722  40.262   8.255
 7309POPC   C3B24549  26.722  40.293   7.955
 7309POPC   C4B24550  26.775  40.274   7.655
 7310POPC   NC324551  21.370  43.158   9.455
 7310POPC   PO424552  21.357  43.124   9.155
 7310POPC   GL124553  21.405  43.125   8.855
 7310POPC   GL224554  21.394  42.963   8.855
 7310POPC   C1A24555  21.434  43.073   8.555
 7310POPC   D2A24556  21.398  43.064   8.255
 7310POPC   C3A24557  21.405  43.109   7.955
 7310POPC   C4A24558  21.389  43.087   7.655
 7310POPC   C1B24559  21.400  42.839   8.555
 7310POPC   C2B24560  21.424  42.900   8.255
 7310POPC   C3B24561  21.423  42.812   7.955
 7310POPC   C4B24562  21.415  42.823   7.655
 7311POPC   NC324563  30.694  19.847   9.455
 7311POPC   PO424564  30.704  19.858   9.155
 7311POPC   GL124565  30.669  19.852   8.855
 7311POPC   GL224566  30.746  19.757   8.855
 7311POPC   C1A24567  30.741  19.863   8.555
 7311POPC   D2A24568  30.671  19.801   8.255
 7311POPC   C3A24569  30.681  19.823   7.955
 7311POPC   C4A24570  30.670  19.871   7.655
 7311POPC   C1B24571  30.720  19.553   8.555
 7311POPC   C2B24572  30.672  19.624   8.255
 7311POPC   C3B24573  30.651  19.580   7.955
 7311POPC   C4B24574  30.662  19.593   7.655
 7312POPC   NC324575  34.553  19.789   9.455
 7312POPC   PO424576  34.560  19.827   9.155
 7312POPC   GL124577  34.586  19.786   8.855
 7312POPC   GL224578  34.660  19.912   8.855
 7312POPC   C1A24579  34.557  19.834   8.555
 7312POPC   D2A24580  34.550  19.841   8.255
 7312POPC   C3A24581  34.606  19.866   7.955
 7312POPC   C4A24582  34.589  19.860   7.655
 7312POPC   C1B24583  34.692  20.033   8.555
 7312POPC   C2B24584  34.744  20.050   8.255
 7312POPC   C3B24585  34.768  20.061   7.955
 7312POPC   C4B24586  34.708  19.993   7.655
 7313POPC   NC324587   1.949  43.061   9.455
 7313POPC   PO424588   1.940  43.093   9.155
 7313POPC   GL124589   1.997  43.073   8.855
 7313POPC   GL224590   1.845  43.017   8.855
 7313POPC   C1A24591   1.942  43.124   8.555
 7313POPC   D2A24592   1.973  43.061   8.255
 7313POPC   C3A24593   1.945  43.105   7.955
 7313POPC   C4A24594   2.032  43.071   7.655
 7313POPC   C1B24595   1.819  42.994   8.555
 7313POPC   C2B24596   1.795  42.938   8.255
 7313POPC   C3B24597   1.784  42.949   7.955
 7313POPC   C4B24598   1.811  42.960   7.655
 7314POPC   NC324599  21.417   2.025   9.455
 7314POPC   PO424600  21.378   2.006   9.155
 7314POPC   GL124601  21.398   2.029   8.855
 7314POPC   GL224602  21.465   1.856   8.855
 7314POPC   C1A24603  21.348   1.996   8.555
 7314POPC   D2A24604  21.357   2.036   8.255
 7314POPC   C3A24605  21.406   2.014   7.955
 7314POPC   C4A24606  21.427   1.942   7.655
 7314POPC   C1B24607  21.425   1.751   8.555
 7314POPC   C2B24608  21.430   1.744   8.255
 7314POPC   C3B24609  21.488   1.756   7.955
 7314POPC   C4B24610  21.427   1.741   7.655
 7315POPC   NC324611  39.223  17.534   9.455
 7315POPC   PO424612  39.274  17.539   9.155
 7315POPC   GL124613  39.192  17.520   8.855
 7315POPC   GL224614  39.213  17.608   8.855
 7315POPC   C1A24615  39.279  17.477   8.555
 7315POPC   D2A24616  39.222  17.531   8.255
 7315POPC   C3A24617  39.274  17.494   7.955
 7315POPC   C4A24618  39.234  17.529   7.655
 7315POPC   C1B24619  39.266  17.736   8.555
 7315POPC   C2B24620  39.268  17.747   8.255
 7315POPC   C3B24621  39.216  17.771   7.955
 7315POPC   C4B24622  39.180  17.759   7.655
 7316POPC   NC324623  15.908  35.348   9.455
 7316POPC   PO424624  15.996  35.359   9.155
 7316POPC   GL124625  15.947  35.311   8.855
 7316POPC   GL224626  16.018  35.501   8.855
 7316POPC   C1A24627  15.929  35.346   8.555
 7316POPC   D2A24628  15.927  35.359   8.255
 7316POPC   C3A24629  15.939  35.383   7.955
 7316POPC   C4A24630  15.989  35.307   7.655
 7316POPC   C1B24631  16.125  35.521   8.555
 7316POPC   C2B24632  16.094  35.598   8.255
 7316POPC   C3B24633  16.113  35.575   7.955
 7316POPC   C4B24634  16.039  35.581   7.655
 7317POPC   NC324635  18.249  33.023   9.455
 7317POPC   PO424636  18.270  33.017   9.155
 7317POPC   GL124637  18.321  33.043   8.855
 7317POPC   GL224638  18.251  33.161   8.855
 7317POPC   C1A24639  18.274  33.048   8.555
 7317POPC   D2A24640  18.270  33.025   8.255
 7317POPC   C3A24641  18.270  32.975   7.955
 7317POPC   C4A24642  18.321  33.023   7.655
 7317POPC   C1B24643  18.210  33.239   8.555
 7317POPC   C2B24644  18.230  33.300   8.255
 7317POPC   C3B24645  18.163  33.304   7.955
 7317POPC   C4B24646  18.140  33.246   7.655
 7318POPC   NC324647   5.894   2.740   9.455
 7318POPC   PO424648   5.905   2.722   9.155
 7318POPC   GL124649   5.888   2.732   8.855
 7318POPC   GL224650   5.730   2.715   8.855
 7318POPC   C1A24651   5.870   2.751   8.555
 7318POPC   D2A24652   5.845   2.769   8.255
 7318POPC   C3A24653   5.898   2.793   7.955
 7318POPC   C4A24654   5.905   2.754   7.655
 7318POPC   C1B24655   5.677   2.692   8.555
 7318POPC   C2B24656   5.625   2.655   8.255
 7318POPC   C3B24657   5.600   2.682   7.955
 7318POPC   C4B24658   5.622   2.740   7.655
 7319POPC   NC324659   0.451   1.232   9.455
 7319POPC   PO424660   0.432   1.172   9.155
 7319POPC   GL124661   0.442   1.228   8.855
 7319POPC   GL224662   0.354   1.150   8.855
 7319POPC   C1A24663   0.467   1.229   8.555
 7319POPC   D2A24664   0.464   1.259   8.255
 7319POPC   C3A24665   0.419   1.229   7.955
 7319POPC   C4A24666   0.410   1.225   7.655
 7319POPC   C1B24667   0.268   0.981   8.555
 7319POPC   C2B24668   0.251   1.050   8.255
 7319POPC   C3B24669   0.275   1.008   7.955
 7319POPC   C4B24670   0.257   1.066   7.655
 7320POPC   NC324671   4.294  18.244   9.455
 7320POPC   PO424672   4.300  18.309   9.155
 7320POPC   GL124673   4.292  18.251   8.855
 7320POPC   GL224674   4.355  18.129   8.855
 7320POPC   C1A24675   4.363  18.293   8.555
 7320POPC   D2A24676   4.311  18.286   8.255
 7320POPC   C3A24677   4.358  18.294   7.955
 7320POPC   C4A24678   4.321  18.294   7.655
 7320POPC   C1B24679   4.402  18.046   8.555
 7320POPC   C2B24680   4.384  18.048   8.255
 7320POPC   C3B24681   4.469  18.029   7.955
 7320POPC   C4B24682   4.409  18.105   7.655
 7321POPC   NC324683   7.433  36.129   9.455
 7321POPC   PO424684   7.469  36.125   9.155
 7321POPC   GL124685   7.454  36.107   8.855
 7321POPC   GL224686   7.321  36.001   8.855
 7321POPC   C1A24687   7.402  36.172   8.555
 7321POPC   D2A24688   7.377  36.168   8.255
 7321POPC   C3A24689   7.445  36.108   7.955
 7321POPC   C4A24690   7.451  36.101   7.655
 7321POPC   C1B24691   7.264  35.935   8.555
 7321POPC   C2B24692   7.285  35.968   8.255
 7321POPC   C3B24693   7.308  35.944   7.955
 7321POPC   C4B24694   7.286  35.869   7.655
 7322POPC   NC324695  21.384  22.973   9.455
 7322POPC   PO424696  21.369  22.932   9.155
 7322POPC   GL124697  21.367  22.948   8.855
 7322POPC   GL224698  21.466  22.826   8.855
 7322POPC   C1A24699  21.352  22.939   8.555
 7322POPC   D2A24700  21.363  22.920   8.255
 7322POPC   C3A24701  21.417  22.969   7.955
 7322POPC   C4A24702  21.404  22.937   7.655
 7322POPC   C1B24703  21.600  22.767   8.555
 7322POPC   C2B24704  21.512  22.772   8.255
 7322POPC   C3B24705  21.546  22.762   7.955
 7322POPC   C4B24706  21.524  22.768   7.655
 7323POPC   NC324707   0.432  23.740   9.455
 7323POPC   PO424708   0.398  23.707   9.155
 7323POPC   GL124709   0.467  23.680   8.855
 7323POPC   GL224710   0.461  23.547   8.855
 7323POPC   C1A24711   0.463  23.669   8.555
 7323POPC   D2A24712   0.409  23.687   8.255
 7323POPC   C3A24713   0.485  23.701   7.955
 7323POPC   C4A24714   0.486  23.707   7.655
 7323POPC   C1B24715   0.511  23.456   8.555
 7323POPC   C2B24716   0.516  23.452   8.255
 7323POPC   C3B24717   0.554  23.449   7.955
 7323POPC   C4B24718   0.481  23.448   7.655
 7324POPC   NC324719  20.637  40.762   9.455
 7324POPC   PO424720  20.652  40.766   9.155
 7324POPC   GL124721  20.578  40.737   8.855
 7324POPC   GL224722  20.711  40.675   8.855
 7324POPC   C1A24723  20.604  40.811   8.555
 7324POPC   D2A24724  20.659  40.811   8.255
 7324POPC   C3A24725  20.652  40.781   7.955
 7324POPC   C4A24726  20.596  40.768   7.655
 7324POPC   C1B24727  20.796  40.662   8.555
 7324POPC   C2B24728  20.781  40.598   8.255
 7324POPC   C3B24729  20.855  40.589   7.955
 7324POPC   C4B24730  20.774  40.584   7.655
 7325POPC   NC324731  22.945  35.386   9.455
 7325POPC   PO424732  22.927  35.307   9.155
 7325POPC   GL124733  22.925  35.308   8.855
 7325POPC   GL224734  22.875  35.425   8.855
 7325POPC   C1A24735  22.938  35.324   8.555
 7325POPC   D2A24736  22.908  35.368   8.255
 7325POPC   C3A24737  22.897  35.356   7.955
 7325POPC   C4A24738  22.915  35.383   7.655
 7325POPC   C1B24739  22.722  35.456   8.555
 7325POPC   C2B24740  22.733  35.536   8.255
 7325POPC   C3B24741  22.708  35.477   7.955
 7325POPC   C4B24742  22.705  35.515   7.655
 7326POPC   NC324743  20.656  26.075   9.455
 7326POPC   PO424744  20.647  26.077   9.155
 7326POPC   GL124745  20.658  26.018   8.855
 7326POPC   GL224746  20.677  25.961   8.855
 7326POPC   C1A24747  20.563  26.052   8.555
 7326POPC   D2A24748  20.613  26.029   8.255
 7326POPC   C3A24749  20.631  26.037   7.955
 7326POPC   C4A24750  20.582  26.073   7.655
 7326POPC   C1B24751  20.883  25.907   8.555
 7326POPC   C2B24752  20.871  25.937   8.255
 7326POPC   C3B24753  20.850  25.918   7.955
 7326POPC   C4B24754  20.855  25.957   7.655
 7327POPC   NC324755   4.328  25.286   9.455
 7327POPC   PO424756   4.325  25.288   9.155
 7327POPC   GL124757   4.357  25.227   8.855
 7327POPC   GL224758   4.321  25.131   8.855
 7327POPC   C1A24759   4.285  25.234   8.555
 7327POPC   D2A24760   4.347  25.309   8.255
 7327POPC   C3A24761   4.291  25.270   7.955
 7327POPC   C4A24762   4.347  25.281   7.655
 7327POPC   C1B24763   4.445  25.008   8.555
 7327POPC   C2B24764   4.415  25.010   8.255
 7327POPC   C3B24765   4.384  24.985   7.955
 7327POPC   C4B24766   4.393  25.038   7.655
 7328POPC   NC324767   5.892  35.311   9.455
 7328POPC   PO424768   5.841  35.351   9.155
 7328POPC   GL124769   5.847  35.364   8.855
 7328POPC   GL224770   5.788  35.447   8.855
 7328POPC   C1A24771   5.895  35.346   8.555
 7328POPC   D2A24772   5.821  35.343   8.255
 7328POPC   C3A24773   5.907  35.324   7.955
 7328POPC   C4A24774   5.874  35.332   7.655
 7328POPC   C1B24775   5.626  35.466   8.555
 7328POPC   C2B24776   5.715  35.553   8.255
 7328POPC   C3B24777   5.664  35.490   7.955
 7328POPC   C4B24778   5.670  35.489   7.655
 7329POPC   NC324779  38.468  39.991   9.455
 7329POPC   PO424780  38.426  40.033   9.155
 7329POPC   GL124781  38.436  40.044   8.855
 7329POPC   GL224782  38.328  39.878   8.855
 7329POPC   C1A24783  38.466  40.032   8.555
 7329POPC   D2A24784  38.454  40.006   8.255
 7329POPC   C3A24785  38.480  40.007   7.955
 7329POPC   C4A24786  38.456  39.999   7.655
 7329POPC   C1B24787  38.305  39.877   8.555
 7329POPC   C2B24788  38.296  39.818   8.255
 7329POPC   C3B24789  38.280  39.868   7.955
 7329POPC   C4B24790  38.317  39.871   7.655
 7330POPC   NC324791  36.948  38.420   9.455
 7330POPC   PO424792  36.897  38.439   9.155
 7330POPC   GL124793  36.942  38.467   8.855
 7330POPC   GL224794  36.810  38.340   8.855
 7330POPC   C1A24795  36.948  38.480   8.555
 7330POPC   D2A24796  36.943  38.440   8.255
 7330POPC   C3A24797  36.930  38.484   7.955
 7330POPC   C4A24798  36.927  38.499   7.655
 7330POPC   C1B24799  36.726  38.349   8.555
 7330POPC   C2B24800  36.706  38.315   8.255
 7330POPC   C3B24801  36.656  38.294   7.955
 7330POPC   C4B24802  36.658  38.351   7.655
 7331POPC   NC324803  38.442  30.650   9.455
 7331POPC   PO424804  38.419  30.704   9.155
 7331POPC   GL124805  38.414  30.658   8.855
 7331POPC   GL224806  38.324  30.742   8.855
 7331POPC   C1A24807  38.461  30.733   8.555
 7331POPC   D2A24808  38.427  30.703   8.255
 7331POPC   C3A24809  38.415  30.731   7.955
 7331POPC   C4A24810  38.481  30.739   7.655
 7331POPC   C1B24811  38.258  30.770   8.555
 7331POPC   C2B24812  38.267  30.787   8.255
 7331POPC   C3B24813  38.240  30.769   7.955
 7331POPC   C4B24814  38.222  30.850   7.655
 7332POPC   NC324815  25.281   8.181   9.455
 7332POPC   PO424816  25.247   8.246   9.155
 7332POPC   GL124817  25.310   8.235   8.855
 7332POPC   GL224818  25.330   8.302   8.855
 7332POPC   C1A24819  25.239   8.172   8.555
 7332POPC   D2A24820  25.307   8.231   8.255
 7332POPC   C3A24821  25.241   8.177   7.955
 7332POPC   C4A24822  25.296   8.147   7.655
 7332POPC   C1B24823  25.461   8.380   8.555
 7332POPC   C2B24824  25.415   8.374   8.255
 7332POPC   C3B24825  25.390   8.384   7.955
 7332POPC   C4B24826  25.374   8.383   7.655
 7333POPC   NC324827  32.275   1.177   9.455
 7333POPC   PO424828  32.267   1.224   9.155
 7333POPC   GL124829  32.251   1.252   8.855
 7333POPC   GL224830  32.366   1.089   8.855
 7333POPC   C1A24831  32.218   1.263   8.555
 7333POPC   D2A24832  32.257   1.172   8.255
 7333POPC   C3A24833  32.278   1.231   7.955
 7333POPC   C4A24834  32.256   1.209   7.655
 7333POPC   C1B24835  32.412   1.030   8.555
 7333POPC   C2B24836  32.467   1.066   8.255
 7333POPC   C3B24837  32.394   1.028   7.955
 7333POPC   C4B24838  32.413   1.011   7.655
 7334POPC   NC324839  23.714  22.904   9.455
 7334POPC   PO424840  23.692  22.948   9.155
 7334POPC   GL124841  23.665  22.905   8.855
 7334POPC   GL224842  23.834  22.882   8.855
 7334POPC   C1A24843  23.755  22.915   8.555
 7334POPC   D2A24844  23.722  22.946   8.255
 7334POPC   C3A24845  23.674  22.949   7.955
 7334POPC   C4A24846  23.733  22.970   7.655
 7334POPC   C1B24847  23.905  22.796   8.555
 7334POPC   C2B24848  23.933  22.796   8.255
 7334POPC   C3B24849  23.967  22.808   7.955
 7334POPC   C4B24850  23.899  22.867   7.655
 7335POPC   NC324851  44.614  33.011   9.455
 7335POPC   PO424852  44.619  33.013   9.155
 7335POPC   GL124853  44.686  33.007   8.855
 7335POPC   GL224854  44.503  32.976   8.855
 7335POPC   C1A24855  44.663  33.039   8.555
 7335POPC   D2A24856  44.645  33.052   8.255
 7335POPC   C3A24857  44.627  33.015   7.955
 7335POPC   C4A24858  44.655  32.999   7.655
 7335POPC   C1B24859  44.417  32.880   8.555
 7335POPC   C2B24860  44.441  32.868   8.255
 7335POPC   C3B24861  44.418  32.930   7.955
 7335POPC   C4B24862  44.460  32.875   7.655
 7336POPC   NC324863   0.448  28.401   9.455
 7336POPC   PO424864   0.451  28.406   9.155
 7336POPC   GL124865   0.466  28.342   8.855
 7336POPC   GL224866   0.593  28.420   8.855
 7336POPC   C1A24867   0.481  28.381   8.555
 7336POPC   D2A24868   0.462  28.411   8.255
 7336POPC   C3A24869   0.414  28.338   7.955
 7336POPC   C4A24870   0.468  28.389   7.655
 7336POPC   C1B24871   0.641  28.509   8.555
 7336POPC   C2B24872   0.629  28.521   8.255
 7336POPC   C3B24873   0.646  28.466   7.955
 7336POPC   C4B24874   0.693  28.495   7.655
 7337POPC   NC324875   7.445  28.386   9.455
 7337POPC   PO424876   7.415  28.409   9.155
 7337POPC   GL124877   7.445  28.321   8.855
 7337POPC   GL224878   7.465  28.535   8.855
 7337POPC   C1A24879   7.382  28.408   8.555
 7337POPC   D2A24880   7.378  28.394   8.255
 7337POPC   C3A24881   7.376  28.375   7.955
 7337POPC   C4A24882   7.454  28.414   7.655
 7337POPC   C1B24883   7.394  28.617   8.555
 7337POPC   C2B24884   7.375  28.609   8.255
 7337POPC   C3B24885   7.442  28.578   7.955
 7337POPC   C4B24886   7.397  28.571   7.655
 7338POPC   NC324887  23.704  19.086   9.455
 7338POPC   PO424888  23.708  19.107   9.155
 7338POPC   GL124889  23.753  19.009   8.855
 7338POPC   GL224890  23.756  18.927   8.855
 7338POPC   C1A24891  23.758  19.097   8.555
 7338POPC   D2A24892  23.711  19.087   8.255
 7338POPC   C3A24893  23.703  19.009   7.955
 7338POPC   C4A24894  23.718  19.101   7.655
 7338POPC   C1B24895  23.872  18.928   8.555
 7338POPC   C2B24896  23.852  18.874   8.255
 7338POPC   C3B24897  23.936  18.914   7.955
 7338POPC   C4B24898  23.908  18.850   7.655
 7339POPC   NC324899  33.020  24.495   9.455
 7339POPC   PO424900  32.983  24.454   9.155
 7339POPC   GL124901  33.069  24.495   8.855
 7339POPC   GL224902  32.927  24.374   8.855
 7339POPC   C1A24903  33.030  24.467   8.555
 7339POPC   D2A24904  33.017  24.502   8.255
 7339POPC   C3A24905  33.034  24.496   7.955
 7339POPC   C4A24906  33.014  24.504   7.655
 7339POPC   C1B24907  32.845  24.276   8.555
 7339POPC   C2B24908  32.859  24.301   8.255
 7339POPC   C3B24909  32.909  24.253   7.955
 7339POPC   C4B24910  32.845  24.312   7.655
 7340POPC   NC324911  21.362  12.871   9.455
 7340POPC   PO424912  21.373  12.840   9.155
 7340POPC   GL124913  21.360  12.816   8.855
 7340POPC   GL224914  21.332  12.787   8.855
 7340POPC   C1A24915  21.372  12.880   8.555
 7340POPC   D2A24916  21.402  12.810   8.255
 7340POPC   C3A24917  21.360  12.852   7.955
 7340POPC   C4A24918  21.405  12.894   7.655
 7340POPC   C1B24919  21.263  12.659   8.555
 7340POPC   C2B24920  21.280  12.674   8.255
 7340POPC   C3B24921  21.287  12.658   7.955
 7340POPC   C4B24922  21.236  12.681   7.655
 7341POPC   NC324923   6.606  32.227   9.455
 7341POPC   PO424924   6.692  32.238   9.155
 7341POPC   GL124925   6.683  32.279   8.855
 7341POPC   GL224926   6.696  32.386   8.855
 7341POPC   C1A24927   6.629  32.234   8.555
 7341POPC   D2A24928   6.629  32.254   8.255
 7341POPC   C3A24929   6.657  32.263   7.955
 7341POPC   C4A24930   6.675  32.294   7.655
 7341POPC   C1B24931   6.717  32.464   8.555
 7341POPC   C2B24932   6.763  32.514   8.255
 7341POPC   C3B24933   6.770  32.497   7.955
 7341POPC   C4B24934   6.691  32.516   7.655
 7342POPC   NC324935  21.369  34.550   9.455
 7342POPC   PO424936  21.405  34.595   9.155
 7342POPC   GL124937  21.372  34.562   8.855
 7342POPC   GL224938  21.343  34.425   8.855
 7342POPC   C1A24939  21.355  34.581   8.555
 7342POPC   D2A24940  21.371  34.550   8.255
 7342POPC   C3A24941  21.367  34.571   7.955
 7342POPC   C4A24942  21.377  34.609   7.655
 7342POPC   C1B24943  21.292  34.305   8.555
 7342POPC   C2B24944  21.265  34.312   8.255
 7342POPC   C3B24945  21.304  34.336   7.955
 7342POPC   C4B24946  21.335  34.339   7.655
 7343POPC   NC324947   8.239  16.713   9.455
 7343POPC   PO424948   8.245  16.728   9.155
 7343POPC   GL124949   8.242  16.702   8.855
 7343POPC   GL224950   8.130  16.791   8.855
 7343POPC   C1A24951   8.172  16.776   8.555
 7343POPC   D2A24952   8.154  16.773   8.255
 7343POPC   C3A24953   8.174  16.711   7.955
 7343POPC   C4A24954   8.150  16.688   7.655
 7343POPC   C1B24955   7.950  16.838   8.555
 7343POPC   C2B24956   8.030  16.924   8.255
 7343POPC   C3B24957   8.014  16.843   7.955
 7343POPC   C4B24958   7.960  16.915   7.655
 7344POPC   NC324959   5.853  20.571   9.455
 7344POPC   PO424960   5.897  20.617   9.155
 7344POPC   GL124961   5.833  20.596   8.855
 7344POPC   GL224962   5.936  20.680   8.855
 7344POPC   C1A24963   5.843  20.648   8.555
 7344POPC   D2A24964   5.844  20.560   8.255
 7344POPC   C3A24965   5.882  20.640   7.955
 7344POPC   C4A24966   5.907  20.590   7.655
 7344POPC   C1B24967   5.955  20.847   8.555
 7344POPC   C2B24968   5.943  20.835   8.255
 7344POPC   C3B24969   6.020  20.790   7.955
 7344POPC   C4B24970   6.006  20.789   7.655
 7345POPC   NC324971  23.688  11.342   9.455
 7345POPC   PO424972  23.721  11.268   9.155
 7345POPC   GL124973  23.719  11.311   8.855
 7345POPC   GL224974  23.734  11.378   8.855
 7345POPC   C1A24975  23.703  11.320   8.555
 7345POPC   D2A24976  23.684  11.274   8.255
 7345POPC   C3A24977  23.695  11.263   7.955
 7345POPC   C4A24978  23.665  11.348   7.655
 7345POPC   C1B24979  23.811  11.500   8.555
 7345POPC   C2B24980  23.822  11.500   8.255
 7345POPC   C3B24981  23.853  11.488   7.955
 7345POPC   C4B24982  23.839  11.515   7.655
 7346POPC   NC324983  36.916  29.167   9.455
 7346POPC   PO424984  36.902  29.181   9.155
 7346POPC   GL124985  36.923  29.152   8.855
 7346POPC   GL224986  36.833  29.236   8.855
 7346POPC   C1A24987  36.936  29.155   8.555
 7346POPC   D2A24988  36.932  29.142   8.255
 7346POPC   C3A24989  36.953  29.132   7.955
 7346POPC   C4A24990  36.864  29.171   7.655
 7346POPC   C1B24991  36.702  29.327   8.555
 7346POPC   C2B24992  36.779  29.355   8.255
 7346POPC   C3B24993  36.779  29.326   7.955
 7346POPC   C4B24994  36.745  29.304   7.655
 7347POPC   NC324995   6.671  11.259   9.455
 7347POPC   PO424996   6.694  11.329   9.155
 7347POPC   GL124997   6.686  11.291   8.855
 7347POPC   GL224998   6.591  11.456   8.855
 7347POPC   C1A24999   6.646  11.272   8.555
 7347POPC   D2A25000   6.620  11.279   8.255
 7347POPC   C3A25001   6.684  11.334   7.955
 7347POPC   C4A25002   6.665  11.333   7.655
 7347POPC   C1B25003   6.483  11.540   8.555
 7347POPC   C2B25004   6.548  11.558   8.255
 7347POPC   C3B25005   6.532  11.528   7.955
 7347POPC   C4B25006   6.521  11.525   7.655
 7348POPC   NC325007   6.680  16.763   9.455
 7348POPC   PO425008   6.626  16.765   9.155
 7348POPC   GL125009   6.688  16.714   8.855
 7348POPC   GL225010   6.712  16.771   8.855
 7348POPC   C1A25011   6.608  16.759   8.555
 7348POPC   D2A25012   6.647  16.767   8.255
 7348POPC   C3A25013   6.646  16.750   7.955
 7348POPC   C4A25014   6.649  16.738   7.655
 7348POPC   C1B25015   6.835  16.795   8.555
 7348POPC   C2B25016   6.903  16.837   8.255
 7348POPC   C3B25017   6.909  16.850   7.955
 7348POPC   C4B25018   6.867  16.873   7.655
 7349POPC   NC325019  29.140   9.728   9.455
 7349POPC   PO425020  29.110   9.747   9.155
 7349POPC   GL125021  29.157   9.762   8.855
 7349POPC   GL225022  29.254   9.661   8.855
 7349POPC   C1A25023  29.177   9.707   8.555
 7349POPC   D2A25024  29.096   9.736   8.255
 7349POPC   C3A25025  29.146   9.742   7.955
 7349POPC   C4A25026  29.144   9.722   7.655
 7349POPC   C1B25027  29.374   9.661   8.555
 7349POPC   C2B25028  29.345   9.623   8.255
 7349POPC   C3B25029  29.374   9.668   7.955
 7349POPC   C4B25030  29.365   9.716   7.655
 7350POPC   NC325031   2.035  31.472   9.455
 7350POPC   PO425032   1.949  31.424   9.155
 7350POPC   GL125033   2.020  31.471   8.855
 7350POPC   GL225034   1.939  31.538   8.855
 7350POPC   C1A25035   1.949  31.482   8.555
 7350POPC   D2A25036   1.976  31.508   8.255
 7350POPC   C3A25037   1.968  31.459   7.955
 7350POPC   C4A25038   2.012  31.518   7.655
 7350POPC   C1B25039   1.812  31.677   8.555
 7350POPC   C2B25040   1.804  31.714   8.255
 7350POPC   C3B25041   1.813  31.678   7.955
 7350POPC   C4B25042   1.847  31.697   7.655
 7351POPC   NC325043  14.357  13.609   9.455
 7351POPC   PO425044  14.362  13.669   9.155
 7351POPC   GL125045  14.379  13.627   8.855
 7351POPC   GL225046  14.545  13.597   8.855
 7351POPC   C1A25047  14.354  13.590   8.555
 7351POPC   D2A25048  14.403  13.668   8.255
 7351POPC   C3A25049  14.437  13.636   7.955
 7351POPC   C4A25050  14.432  13.676   7.655
 7351POPC   C1B25051  14.645  13.472   8.555
 7351POPC   C2B25052  14.626  13.526   8.255
 7351POPC   C3B25053  14.591  13.456   7.955
 7351POPC   C4B25054  14.596  13.527   7.655
 7352POPC   NC325055   2.797   3.574   9.455
 7352POPC   PO425056   2.789   3.545   9.155
 7352POPC   GL125057   2.799   3.535   8.855
 7352POPC   GL225058   2.736   3.642   8.855
 7352POPC   C1A25059   2.797   3.590   8.555
 7352POPC   D2A25060   2.814   3.510   8.255
 7352POPC   C3A25061   2.726   3.542   7.955
 7352POPC   C4A25062   2.748   3.498   7.655
 7352POPC   C1B25063   2.697   3.829   8.555
 7352POPC   C2B25064   2.791   3.796   8.255
 7352POPC   C3B25065   2.702   3.789   7.955
 7352POPC   C4B25066   2.741   3.802   7.655
 7353POPC   NC325067  23.721  35.329   9.455
 7353POPC   PO425068  23.710  35.315   9.155
 7353POPC   GL125069  23.666  35.317   8.855
 7353POPC   GL225070  23.738  35.504   8.855
 7353POPC   C1A25071  23.753  35.389   8.555
 7353POPC   D2A25072  23.706  35.354   8.255
 7353POPC   C3A25073  23.727  35.399   7.955
 7353POPC   C4A25074  23.752  35.380   7.655
 7353POPC   C1B25075  23.681  35.596   8.555
 7353POPC   C2B25076  23.661  35.572   8.255
 7353POPC   C3B25077  23.687  35.604   7.955
 7353POPC   C4B25078  23.688  35.564   7.655
 7354POPC   NC325079   9.019  12.813   9.455
 7354POPC   PO425080   8.954  12.845   9.155
 7354POPC   GL125081   8.929  12.852   8.855
 7354POPC   GL225082   8.853  12.891   8.855
 7354POPC   C1A25083   9.003  12.900   8.555
 7354POPC   D2A25084   8.974  12.848   8.255
 7354POPC   C3A25085   8.932  12.846   7.955
 7354POPC   C4A25086   8.939  12.834   7.655
 7354POPC   C1B25087   8.713  12.884   8.555
 7354POPC   C2B25088   8.753  12.900   8.255
 7354POPC   C3B25089   8.722  12.905   7.955
 7354POPC   C4B25090   8.731  12.849   7.655
 7355POPC   NC325091  37.673  44.638   9.455
 7355POPC   PO425092  37.715  44.650   9.155
 7355POPC   GL125093  37.674  44.692   8.855
 7355POPC   GL225094  37.608  44.703   8.855
 7355POPC   C1A25095  37.724  44.673   8.555
 7355POPC   D2A25096  37.635  44.672   8.255
 7355POPC   C3A25097  37.696  44.685   7.955
 7355POPC   C4A25098  37.724  44.620   7.655
 7355POPC   C1B25099  37.501  44.886   8.555
 7355POPC   C2B25100  37.469  44.809   8.255
 7355POPC   C3B25101  37.501  44.870   7.955
 7355POPC   C4B25102  37.523  44.850   7.655
 7356POPC   NC325103  21.424   4.302   9.455
 7356POPC   PO425104  21.354   4.350   9.155
 7356POPC   GL125105  21.369   4.282   8.855
 7356POPC   GL225106  21.402   4.156   8.855
 7356POPC   C1A25107  21.428   4.327   8.555
 7356POPC   D2A25108  21.406   4.314   8.255
 7356POPC   C3A25109  21.429   4.367   7.955
 7356POPC   C4A25110  21.403   4.303   7.655
 7356POPC   C1B25111  21.358   4.094   8.555
 7356POPC   C2B25112  21.435   4.030   8.255
 7356POPC   C3B25113  21.355   4.100   7.955
 7356POPC   C4B25114  21.427   4.091   7.655
 7357POPC   NC325115  42.381  21.342   9.455
 7357POPC   PO425116  42.320  21.403   9.155
 7357POPC   GL125117  42.308  21.399   8.855
 7357POPC   GL225118  42.188  21.402   8.855
 7357POPC   C1A25119  42.340  21.354   8.555
 7357POPC   D2A25120  42.342  21.412   8.255
 7357POPC   C3A25121  42.302  21.434   7.955
 7357POPC   C4A25122  42.288  21.426   7.655
 7357POPC   C1B25123  42.149  21.520   8.555
 7357POPC   C2B25124  42.106  21.512   8.255
 7357POPC   C3B25125  42.149  21.501   7.955
 7357POPC   C4B25126  42.107  21.482   7.655
 7358POPC   NC325127  12.058  43.917   9.455
 7358POPC   PO425128  12.093  43.846   9.155
 7358POPC   GL125129  12.029  43.922   8.855
 7358POPC   GL225130  11.989  43.980   8.855
 7358POPC   C1A25131  12.082  43.883   8.555
 7358POPC   D2A25132  12.062  43.878   8.255
 7358POPC   C3A25133  12.071  43.897   7.955
 7358POPC   C4A25134  12.030  43.890   7.655
 7358POPC   C1B25135  11.944  44.083   8.555
 7358POPC   C2B25136  11.963  44.074   8.255
 7358POPC   C3B25137  11.949  44.071   7.955
 7358POPC   C4B25138  11.947  44.058   7.655
 7359POPC   NC325139  31.461  35.323   9.455
 7359POPC   PO425140  31.423  35.327   9.155
 7359POPC   GL125141  31.485  35.351   8.855
 7359POPC   GL225142  31.453  35.257   8.855
 7359POPC   C1A25143  31.474  35.382   8.555
 7359POPC   D2A25144  31.477  35.316   8.255
 7359POPC   C3A25145  31.513  35.315   7.955
 7359POPC   C4A25146  31.433  35.387   7.655
 7359POPC   C1B25147  31.418  35.129   8.555
 7359POPC   C2B25148  31.478  35.106   8.255
 7359POPC   C3B25149  31.440  35.086   7.955
 7359POPC   C4B25150  31.425  35.080   7.655
 7360POPC   NC325151  28.321  20.573   9.455
 7360POPC   PO425152  28.323  20.653   9.155
 7360POPC   GL125153  28.345  20.633   8.855
 7360POPC   GL225154  28.503  20.669   8.855
 7360POPC   C1A25155  28.334  20.582   8.555
 7360POPC   D2A25156  28.395  20.649   8.255
 7360POPC   C3A25157  28.330  20.587   7.955
 7360POPC   C4A25158  28.359  20.589   7.655
 7360POPC   C1B25159  28.641  20.606   8.555
 7360POPC   C2B25160  28.614  20.623   8.255
 7360POPC   C3B25161  28.663  20.636   7.955
 7360POPC   C4B25162  28.642  20.638   7.655
 7361POPC   NC325163  12.044  40.057   9.455
 7361POPC   PO425164  12.069  39.995   9.155
 7361POPC   GL125165  12.043  40.001   8.855
 7361POPC   GL225166  11.952  39.953   8.855
 7361POPC   C1A25167  12.043  40.043   8.555
 7361POPC   D2A25168  12.033  39.992   8.255
 7361POPC   C3A25169  12.067  40.027   7.955
 7361POPC   C4A25170  12.075  40.005   7.655
 7361POPC   C1B25171  11.847  39.908   8.555
 7361POPC   C2B25172  11.832  39.867   8.255
 7361POPC   C3B25173  11.862  39.909   7.955
 7361POPC   C4B25174  11.831  39.935   7.655
 7362POPC   NC325175  25.222  40.759   9.455
 7362POPC   PO425176  25.303  40.756   9.155
 7362POPC   GL125177  25.270  40.797   8.855
 7362POPC   GL225178  25.307  40.886   8.855
 7362POPC   C1A25179  25.268  40.735   8.555
 7362POPC   D2A25180  25.306  40.820   8.255
 7362POPC   C3A25181  25.284  40.797   7.955
 7362POPC   C4A25182  25.282  40.738   7.655
 7362POPC   C1B25183  25.320  41.053   8.555
 7362POPC   C2B25184  25.358  40.988   8.255
 7362POPC   C3B25185  25.338  41.007   7.955
 7362POPC   C4B25186  25.350  41.052   7.655
 7363POPC   NC325187   4.306   9.752   9.455
 7363POPC   PO425188   4.360   9.729   9.155
 7363POPC   GL125189   4.338   9.720   8.855
 7363POPC   GL225190   4.308   9.882   8.855
 7363POPC   C1A25191   4.363   9.756   8.555
 7363POPC   D2A25192   4.316   9.753   8.255
 7363POPC   C3A25193   4.317   9.707   7.955
 7363POPC   C4A25194   4.359   9.783   7.655
 7363POPC   C1B25195   4.366  10.033   8.555
 7363POPC   C2B25196   4.356   9.957   8.255
 7363POPC   C3B25197   4.360   9.967   7.955
 7363POPC   C4B25198   4.298   9.981   7.655
 7364POPC   NC325199  12.049  16.003   9.455
 7364POPC   PO425200  12.067  15.939   9.155
 7364POPC   GL125201  12.060  15.984   8.855
 7364POPC   GL225202  12.033  15.823   8.855
 7364POPC   C1A25203  12.068  15.991   8.555
 7364POPC   D2A25204  12.047  15.946   8.255
 7364POPC   C3A25205  12.069  16.001   7.955
 7364POPC   C4A25206  12.056  15.982   7.655
 7364POPC   C1B25207  12.065  15.714   8.555
 7364POPC   C2B25208  12.059  15.733   8.255
 7364POPC   C3B25209  12.075  15.674   7.955
 7364POPC   C4B25210  12.044  15.721   7.655
 7365POPC   NC325211  29.184  19.038   9.455
 7365POPC   PO425212  29.148  19.106   9.155
 7365POPC   GL125213  29.099  19.040   8.855
 7365POPC   GL225214  29.271  19.031   8.855
 7365POPC   C1A25215  29.158  19.090   8.555
 7365POPC   D2A25216  29.121  19.037   8.255
 7365POPC   C3A25217  29.155  19.054   7.955
 7365POPC   C4A25218  29.123  19.016   7.655
 7365POPC   C1B25219  29.425  19.053   8.555
 7365POPC   C2B25220  29.435  18.985   8.255
 7365POPC   C3B25221  29.412  19.034   7.955
 7365POPC   C4B25222  29.408  19.065   7.655
 7366POPC   NC325223  35.326  13.611   9.455
 7366POPC   PO425224  35.386  13.625   9.155
 7366POPC   GL125225  35.319  13.644   8.855
 7366POPC   GL225226  35.238  13.562   8.855
 7366POPC   C1A25227  35.304  13.610   8.555
 7366POPC   D2A25228  35.373  13.659   8.255
 7366POPC   C3A25229  35.334  13.655   7.955
 7366POPC   C4A25230  35.390  13.647   7.655
 7366POPC   C1B25231  35.127  13.493   8.555
 7366POPC   C2B25232  35.182  13.464   8.255
 7366POPC   C3B25233  35.131  13.539   7.955
 7366POPC   C4B25234  35.156  13.545   7.655
 7367POPC   NC325235   8.193  38.447   9.455
 7367POPC   PO425236   8.231  38.484   9.155
 7367POPC   GL125237   8.158  38.459   8.855
 7367POPC   GL225238   8.074  38.382   8.855
 7367POPC   C1A25239   8.149  38.431   8.555
 7367POPC   D2A25240   8.206  38.455   8.255
 7367POPC   C3A25241   8.155  38.483   7.955
 7367POPC   C4A25242   8.210  38.474   7.655
 7367POPC   C1B25243   7.980  38.292   8.555
 7367POPC   C2B25244   7.992  38.316   8.255
 7367POPC   C3B25245   7.995  38.365   7.955
 7367POPC   C4B25246   8.021  38.373   7.655
 7368POPC   NC325247  16.693  19.877   9.455
 7368POPC   PO425248  16.747  19.843   9.155
 7368POPC   GL125249  16.778  19.827   8.855
 7368POPC   GL225250  16.846  19.875   8.855
 7368POPC   C1A25251  16.705  19.864   8.555
 7368POPC   D2A25252  16.764  19.851   8.255
 7368POPC   C3A25253  16.685  19.881   7.955
 7368POPC   C4A25254  16.700  19.820   7.655
 7368POPC   C1B25255  16.959  19.895   8.555
 7368POPC   C2B25256  16.936  19.888   8.255
 7368POPC   C3B25257  16.933  19.858   7.955
 7368POPC   C4B25258  16.991  19.815   7.655
 7369POPC   NC325259  35.310  22.193   9.455
 7369POPC   PO425260  35.316  22.139   9.155
 7369POPC   GL125261  35.372  22.125   8.855
 7369POPC   GL225262  35.336  22.264   8.855
 7369POPC   C1A25263  35.348  22.196   8.555
 7369POPC   D2A25264  35.350  22.128   8.255
 7369POPC   C3A25265  35.362  22.206   7.955
 7369POPC   C4A25266  35.303  22.175   7.655
 7369POPC   C1B25267  35.370  22.430   8.555
 7369POPC   C2B25268  35.361  22.388   8.255
 7369POPC   C3B25269  35.375  22.373   7.955
 7369POPC   C4B25270  35.301  22.396   7.655
 7370POPC   NC325271  42.353  40.006   9.455
 7370POPC   PO425272  42.316  39.974   9.155
 7370POPC   GL125273  42.304  40.047   8.855
 7370POPC   GL225274  42.466  39.947   8.855
 7370POPC   C1A25275  42.355  40.014   8.555
 7370POPC   D2A25276  42.292  40.019   8.255
 7370POPC   C3A25277  42.285  40.015   7.955
 7370POPC   C4A25278  42.364  40.025   7.655
 7370POPC   C1B25279  42.536  39.849   8.555
 7370POPC   C2B25280  42.568  39.843   8.255
 7370POPC   C3B25281  42.497  39.864   7.955
 7370POPC   C4B25282  42.524  39.799   7.655
 7371POPC   NC325283  30.732  18.306   9.455
 7371POPC   PO425284  30.678  18.262   9.155
 7371POPC   GL125285  30.653  18.295   8.855
 7371POPC   GL225286  30.585  18.265   8.855
 7371POPC   C1A25287  30.711  18.323   8.555
 7371POPC   D2A25288  30.694  18.300   8.255
 7371POPC   C3A25289  30.683  18.287   7.955
 7371POPC   C4A25290  30.673  18.245   7.655
 7371POPC   C1B25291  30.486  18.284   8.555
 7371POPC   C2B25292  30.489  18.348   8.255
 7371POPC   C3B25293  30.487  18.307   7.955
 7371POPC   C4B25294  30.404  18.277   7.655
 7372POPC   NC325295  17.525  38.421   9.455
 7372POPC   PO425296  17.553  38.425   9.155
 7372POPC   GL125297  17.497  38.440   8.855
 7372POPC   GL225298  17.578  38.537   8.855
 7372POPC   C1A25299  17.493  38.483   8.555
 7372POPC   D2A25300  17.513  38.475   8.255
 7372POPC   C3A25301  17.480  38.451   7.955
 7372POPC   C4A25302  17.507  38.427   7.655
 7372POPC   C1B25303  17.714  38.659   8.555
 7372POPC   C2B25304  17.710  38.611   8.255
 7372POPC   C3B25305  17.686  38.688   7.955
 7372POPC   C4B25306  17.697  38.683   7.655
 7373POPC   NC325307  12.055  10.495   9.455
 7373POPC   PO425308  12.082  10.555   9.155
 7373POPC   GL125309  12.096  10.475   8.855
 7373POPC   GL225310  12.230  10.533   8.855
 7373POPC   C1A25311  12.104  10.513   8.555
 7373POPC   D2A25312  12.097  10.529   8.255
 7373POPC   C3A25313  12.073  10.572   7.955
 7373POPC   C4A25314  12.090  10.557   7.655
 7373POPC   C1B25315  12.288  10.618   8.555
 7373POPC   C2B25316  12.284  10.581   8.255
 7373POPC   C3B25317  12.284  10.581   7.955
 7373POPC   C4B25318  12.269  10.601   7.655
 7374POPC   NC325319   7.411  15.940   9.455
 7374POPC   PO425320   7.391  15.944   9.155
 7374POPC   GL125321   7.429  15.998   8.855
 7374POPC   GL225322   7.320  16.043   8.855
 7374POPC   C1A25323   7.446  15.968   8.555
 7374POPC   D2A25324   7.396  15.943   8.255
 7374POPC   C3A25325   7.403  15.956   7.955
 7374POPC   C4A25326   7.383  15.918   7.655
 7374POPC   C1B25327   7.266  16.163   8.555
 7374POPC   C2B25328   7.235  16.163   8.255
 7374POPC   C3B25329   7.331  16.167   7.955
 7374POPC   C4B25330   7.330  16.206   7.655
 7375POPC   NC325331  32.200  18.270   9.455
 7375POPC   PO425332  32.225  18.246   9.155
 7375POPC   GL125333  32.209  18.285   8.855
 7375POPC   GL225334  32.151  18.225   8.855
 7375POPC   C1A25335  32.205  18.274   8.555
 7375POPC   D2A25336  32.254  18.306   8.255
 7375POPC   C3A25337  32.250  18.242   7.955
 7375POPC   C4A25338  32.209  18.327   7.655
 7375POPC   C1B25339  32.054  18.049   8.555
 7375POPC   C2B25340  32.037  18.123   8.255
 7375POPC   C3B25341  32.088  18.110   7.955
 7375POPC   C4B25342  32.110  18.098   7.655
 7376POPC   NC325343  25.999  38.476   9.455
 7376POPC   PO425344  26.053  38.466   9.155
 7376POPC   GL125345  26.079  38.481   8.855
 7376POPC   GL225346  25.902  38.381   8.855
 7376POPC   C1A25347  26.015  38.409   8.555
 7376POPC   D2A25348  26.080  38.468   8.255
 7376POPC   C3A25349  26.003  38.454   7.955
 7376POPC   C4A25350  26.064  38.412   7.655
 7376POPC   C1B25351  25.798  38.359   8.555
 7376POPC   C2B25352  25.832  38.407   8.255
 7376POPC   C3B25353  25.837  38.405   7.955
 7376POPC   C4B25354  25.851  38.354   7.655
 7377POPC   NC325355   2.733  37.685   9.455
 7377POPC   PO425356   2.790  37.642   9.155
 7377POPC   GL125357   2.793  37.704   8.855
 7377POPC   GL225358   2.666  37.647   8.855
 7377POPC   C1A25359   2.731  37.653   8.555
 7377POPC   D2A25360   2.802  37.697   8.255
 7377POPC   C3A25361   2.716  37.716   7.955
 7377POPC   C4A25362   2.744  37.638   7.655
 7377POPC   C1B25363   2.542  37.616   8.555
 7377POPC   C2B25364   2.561  37.606   8.255
 7377POPC   C3B25365   2.534  37.586   7.955
 7377POPC   C4B25366   2.478  37.576   7.655
 7378POPC   NC325367   4.307  19.022   9.455
 7378POPC   PO425368   4.336  19.090   9.155
 7378POPC   GL125369   4.305  19.098   8.855
 7378POPC   GL225370   4.441  19.077   8.855
 7378POPC   C1A25371   4.332  19.061   8.555
 7378POPC   D2A25372   4.267  19.050   8.255
 7378POPC   C3A25373   4.360  19.061   7.955
 7378POPC   C4A25374   4.342  19.090   7.655
 7378POPC   C1B25375   4.584  19.101   8.555
 7378POPC   C2B25376   4.548  19.095   8.255
 7378POPC   C3B25377   4.603  19.048   7.955
 7378POPC   C4B25378   4.563  19.117   7.655
 7379POPC   NC325379  29.929  21.386   9.455
 7379POPC   PO425380  29.918  21.363   9.155
 7379POPC   GL125381  29.878  21.390   8.855
 7379POPC   GL225382  30.016  21.283   8.855
 7379POPC   C1A25383  29.967  21.356   8.555
 7379POPC   D2A25384  29.955  21.434   8.255
 7379POPC   C3A25385  29.902  21.421   7.955
 7379POPC   C4A25386  29.872  21.398   7.655
 7379POPC   C1B25387  30.155  21.269   8.555
 7379POPC   C2B25388  30.147  21.307   8.255
 7379POPC   C3B25389  30.140  21.282   7.955
 7379POPC   C4B25390  30.127  21.306   7.655
 7380POPC   NC325391  25.250  24.512   9.455
 7380POPC   PO425392  25.281  24.452   9.155
 7380POPC   GL125393  25.249  24.476   8.855
 7380POPC   GL225394  25.191  24.615   8.855
 7380POPC   C1A25395  25.312  24.532   8.555
 7380POPC   D2A25396  25.225  24.470   8.255
 7380POPC   C3A25397  25.302  24.469   7.955
 7380POPC   C4A25398  25.273  24.446   7.655
 7380POPC   C1B25399  25.105  24.670   8.555
 7380POPC   C2B25400  25.158  24.654   8.255
 7380POPC   C3B25401  25.093  24.724   7.955
 7380POPC   C4B25402  25.150  24.684   7.655
 7381POPC   NC325403  10.524  22.982   9.455
 7381POPC   PO425404  10.492  22.954   9.155
 7381POPC   GL125405  10.498  22.898   8.855
 7381POPC   GL225406  10.532  23.040   8.855
 7381POPC   C1A25407  10.530  22.988   8.555
 7381POPC   D2A25408  10.510  22.960   8.255
 7381POPC   C3A25409  10.512  22.923   7.955
 7381POPC   C4A25410  10.569  22.965   7.655
 7381POPC   C1B25411  10.465  23.149   8.555
 7381POPC   C2B25412  10.527  23.182   8.255
 7381POPC   C3B25413  10.518  23.215   7.955
 7381POPC   C4B25414  10.483  23.168   7.655
 7382POPC   NC325415  10.518  44.673   9.455
 7382POPC   PO425416  10.476  44.668   9.155
 7382POPC   GL125417  10.556  44.631   8.855
 7382POPC   GL225418  10.618  44.694   8.855
 7382POPC   C1A25419  10.493  44.663   8.555
 7382POPC   D2A25420  10.514  44.642   8.255
 7382POPC   C3A25421  10.488  44.672   7.955
 7382POPC   C4A25422  10.553  44.628   7.655
 7382POPC   C1B25423  10.756  44.769   8.555
 7382POPC   C2B25424  10.723  44.777   8.255
 7382POPC   C3B25425  10.785  44.796   7.955
 7382POPC   C4B25426  10.730  44.779   7.655
 7383POPC   NC325427  38.434  41.560   9.455
 7383POPC   PO425428  38.479  41.584   9.155
 7383POPC   GL125429  38.416  41.584   8.855
 7383POPC   GL225430  38.616  41.556   8.855
 7383POPC   C1A25431  38.473  41.556   8.555
 7383POPC   D2A25432  38.502  41.522   8.255
 7383POPC   C3A25433  38.406  41.565   7.955
 7383POPC   C4A25434  38.461  41.523   7.655
 7383POPC   C1B25435  38.682  41.671   8.555
 7383POPC   C2B25436  38.739  41.602   8.255
 7383POPC   C3B25437  38.660  41.667   7.955
 7383POPC   C4B25438  38.720  41.588   7.655
 7384POPC   NC325439  29.189  27.590   9.455
 7384POPC   PO425440  29.126  27.612   9.155
 7384POPC   GL125441  29.111  27.590   8.855
 7384POPC   GL225442  29.092  27.520   8.855
 7384POPC   C1A25443  29.162  27.565   8.555
 7384POPC   D2A25444  29.190  27.642   8.255
 7384POPC   C3A25445  29.175  27.587   7.955
 7384POPC   C4A25446  29.183  27.605   7.655
 7384POPC   C1B25447  28.902  27.469   8.555
 7384POPC   C2B25448  28.957  27.490   8.255
 7384POPC   C3B25449  28.903  27.489   7.955
 7384POPC   C4B25450  28.922  27.420   7.655
 7385POPC   NC325451  26.054   8.160   9.455
 7385POPC   PO425452  26.064   8.244   9.155
 7385POPC   GL125453  26.021   8.159   8.855
 7385POPC   GL225454  26.130   8.277   8.855
 7385POPC   C1A25455  26.024   8.194   8.555
 7385POPC   D2A25456  26.036   8.215   8.255
 7385POPC   C3A25457  26.054   8.207   7.955
 7385POPC   C4A25458  26.002   8.200   7.655
 7385POPC   C1B25459  26.237   8.349   8.555
 7385POPC   C2B25460  26.226   8.426   8.255
 7385POPC   C3B25461  26.202   8.365   7.955
 7385POPC   C4B25462  26.173   8.392   7.655
 7386POPC   NC325463  11.287  33.845   9.455
 7386POPC   PO425464  11.290  33.839   9.155
 7386POPC   GL125465  11.347  33.758   8.855
 7386POPC   GL225466  11.246  33.715   8.855
 7386POPC   C1A25467  11.285  33.777   8.555
 7386POPC   D2A25468  11.342  33.790   8.255
 7386POPC   C3A25469  11.275  33.797   7.955
 7386POPC   C4A25470  11.341  33.753   7.655
 7386POPC   C1B25471  11.284  33.588   8.555
 7386POPC   C2B25472  11.237  33.516   8.255
 7386POPC   C3B25473  11.269  33.549   7.955
 7386POPC   C4B25474  11.247  33.521   7.655
 7387POPC   NC325475  33.768  33.783   9.455
 7387POPC   PO425476  33.758  33.790   9.155
 7387POPC   GL125477  33.806  33.765   8.855
 7387POPC   GL225478  33.763  33.731   8.855
 7387POPC   C1A25479  33.819  33.844   8.555
 7387POPC   D2A25480  33.797  33.811   8.255
 7387POPC   C3A25481  33.792  33.839   7.955
 7387POPC   C4A25482  33.781  33.800   7.655
 7387POPC   C1B25483  33.653  33.570   8.555
 7387POPC   C2B25484  33.654  33.618   8.255
 7387POPC   C3B25485  33.604  33.576   7.955
 7387POPC   C4B25486  33.616  33.579   7.655
 7388POPC   NC325487  34.613  43.870   9.455
 7388POPC   PO425488  34.619  43.881   9.155
 7388POPC   GL125489  34.561  43.906   8.855
 7388POPC   GL225490  34.603  44.042   8.855
 7388POPC   C1A25491  34.600  43.868   8.555
 7388POPC   D2A25492  34.539  43.936   8.255
 7388POPC   C3A25493  34.619  43.837   7.955
 7388POPC   C4A25494  34.613  43.866   7.655
 7388POPC   C1B25495  34.637  44.145   8.555
 7388POPC   C2B25496  34.635  44.114   8.255
 7388POPC   C3B25497  34.688  44.148   7.955
 7388POPC   C4B25498  34.607  44.164   7.655
 7389POPC   NC325499  44.706  14.444   9.455
 7389POPC   PO425500  44.703  14.393   9.155
 7389POPC   GL125501  44.666  14.392   8.855
 7389POPC   GL225502  44.712  14.535   8.855
 7389POPC   C1A25503  44.623  14.443   8.555
 7389POPC   D2A25504  44.654  14.436   8.255
 7389POPC   C3A25505  44.674  14.371   7.955
 7389POPC   C4A25506  44.700  14.382   7.655
 7389POPC   C1B25507  44.746  14.694   8.555
 7389POPC   C2B25508  44.730  14.684   8.255
 7389POPC   C3B25509  44.755  14.698   7.955
 7389POPC   C4B25510  44.699  14.599   7.655
 7390POPC   NC325511  21.362  25.289   9.455
 7390POPC   PO425512  21.364  25.235   9.155
 7390POPC   GL125513  21.408  25.308   8.855
 7390POPC   GL225514  21.316  25.199   8.855
 7390POPC   C1A25515  21.365  25.235   8.555
 7390POPC   D2A25516  21.392  25.258   8.255
 7390POPC   C3A25517  21.372  25.248   7.955
 7390POPC   C4A25518  21.359  25.241   7.655
 7390POPC   C1B25519  21.276  25.061   8.555
 7390POPC   C2B25520  21.250  25.048   8.255
 7390POPC   C3B25521  21.313  25.005   7.955
 7390POPC   C4B25522  21.303  25.052   7.655
 7391POPC   NC325523  29.959  40.739   9.455
 7391POPC   PO425524  29.960  40.810   9.155
 7391POPC   GL125525  29.946  40.763   8.855
 7391POPC   GL225526  30.006  40.891   8.855
 7391POPC   C1A25527  29.947  40.811   8.555
 7391POPC   D2A25528  29.889  40.757   8.255
 7391POPC   C3A25529  29.923  40.786   7.955
 7391POPC   C4A25530  29.909  40.734   7.655
 7391POPC   C1B25531  29.987  40.966   8.555
 7391POPC   C2B25532  29.999  40.986   8.255
 7391POPC   C3B25533  30.030  41.052   7.955
 7391POPC   C4B25534  30.022  41.060   7.655
 7392POPC   NC325535   7.394  21.341   9.455
 7392POPC   PO425536   7.379  21.399   9.155
 7392POPC   GL125537   7.415  21.383   8.855
 7392POPC   GL225538   7.522  21.471   8.855
 7392POPC   C1A25539   7.470  21.337   8.555
 7392POPC   D2A25540   7.469  21.364   8.255
 7392POPC   C3A25541   7.391  21.422   7.955
 7392POPC   C4A25542   7.426  21.398   7.655
 7392POPC   C1B25543   7.608  21.484   8.555
 7392POPC   C2B25544   7.598  21.469   8.255
 7392POPC   C3B25545   7.603  21.462   7.955
 7392POPC   C4B25546   7.656  21.478   7.655
 7393POPC   NC325547  27.544  42.291   9.455
 7393POPC   PO425548  27.595  42.370   9.155
 7393POPC   GL125549  27.623  42.327   8.855
 7393POPC   GL225550  27.740  42.254   8.855
 7393POPC   C1A25551  27.570  42.358   8.555
 7393POPC   D2A25552  27.631  42.309   8.255
 7393POPC   C3A25553  27.584  42.322   7.955
 7393POPC   C4A25554  27.638  42.293   7.655
 7393POPC   C1B25555  27.835  42.240   8.555
 7393POPC   C2B25556  27.843  42.280   8.255
 7393POPC   C3B25557  27.844  42.295   7.955
 7393POPC   C4B25558  27.802  42.221   7.655
 7394POPC   NC325559   3.504  26.777   9.455
 7394POPC   PO425560   3.537  26.814   9.155
 7394POPC   GL125561   3.496  26.834   8.855
 7394POPC   GL225562   3.436  26.923   8.855
 7394POPC   C1A25563   3.559  26.820   8.555
 7394POPC   D2A25564   3.524  26.815   8.255
 7394POPC   C3A25565   3.555  26.804   7.955
 7394POPC   C4A25566   3.521  26.837   7.655
 7394POPC   C1B25567   3.431  27.005   8.555
 7394POPC   C2B25568   3.460  27.005   8.255
 7394POPC   C3B25569   3.439  27.011   7.955
 7394POPC   C4B25570   3.457  27.008   7.655
 7395POPC   NC325571   0.442   5.894   9.455
 7395POPC   PO425572   0.452   5.848   9.155
 7395POPC   GL125573   0.395   5.855   8.855
 7395POPC   GL225574   0.462   6.010   8.855
 7395POPC   C1A25575   0.449   5.831   8.555
 7395POPC   D2A25576   0.406   5.827   8.255
 7395POPC   C3A25577   0.471   5.867   7.955
 7395POPC   C4A25578   0.396   5.885   7.655
 7395POPC   C1B25579   0.450   6.160   8.555
 7395POPC   C2B25580   0.448   6.095   8.255
 7395POPC   C3B25581   0.465   6.073   7.955
 7395POPC   C4B25582   0.476   6.070   7.655
 7396POPC   NC325583  33.779   1.202   9.455
 7396POPC   PO425584  33.820   1.226   9.155
 7396POPC   GL125585  33.751   1.230   8.855
 7396POPC   GL225586  33.711   1.226   8.855
 7396POPC   C1A25587  33.824   1.238   8.555
 7396POPC   D2A25588  33.817   1.218   8.255
 7396POPC   C3A25589  33.839   1.225   7.955
 7396POPC   C4A25590  33.831   1.168   7.655
 7396POPC   C1B25591  33.562   1.181   8.555
 7396POPC   C2B25592  33.518   1.189   8.255
 7396POPC   C3B25593  33.506   1.152   7.955
 7396POPC   C4B25594  33.583   1.174   7.655
 7397POPC   NC325595  26.052  37.640   9.455
 7397POPC   PO425596  26.009  37.639   9.155
 7397POPC   GL125597  26.068  37.722   8.855
 7397POPC   GL225598  26.042  37.529   8.855
 7397POPC   C1A25599  25.998  37.649   8.555
 7397POPC   D2A25600  26.001  37.667   8.255
 7397POPC   C3A25601  26.025  37.715   7.955
 7397POPC   C4A25602  26.067  37.634   7.655
 7397POPC   C1B25603  26.012  37.476   8.555
 7397POPC   C2B25604  26.081  37.461   8.255
 7397POPC   C3B25605  26.062  37.441   7.955
 7397POPC   C4B25606  26.084  37.434   7.655
 7398POPC   NC325607  39.957  21.343   9.455
 7398POPC   PO425608  39.964  21.376   9.155
 7398POPC   GL125609  40.016  21.377   8.855
 7398POPC   GL225610  39.928  21.479   8.855
 7398POPC   C1A25611  39.971  21.374   8.555
 7398POPC   D2A25612  40.052  21.394   8.255
 7398POPC   C3A25613  40.046  21.378   7.955
 7398POPC   C4A25614  40.021  21.405   7.655
 7398POPC   C1B25615  39.941  21.571   8.555
 7398POPC   C2B25616  39.907  21.590   8.255
 7398POPC   C3B25617  39.869  21.572   7.955
 7398POPC   C4B25618  39.929  21.615   7.655
 7399POPC   NC325619  29.891  18.301   9.455
 7399POPC   PO425620  29.968  18.261   9.155
 7399POPC   GL125621  29.933  18.243   8.855
 7399POPC   GL225622  30.038  18.288   8.855
 7399POPC   C1A25623  29.925  18.263   8.555
 7399POPC   D2A25624  29.950  18.300   8.255
 7399POPC   C3A25625  29.902  18.324   7.955
 7399POPC   C4A25626  29.908  18.267   7.655
 7399POPC   C1B25627  30.207  18.222   8.555
 7399POPC   C2B25628  30.206  18.227   8.255
 7399POPC   C3B25629  30.172  18.255   7.955
 7399POPC   C4B25630  30.145  18.303   7.655
 7400POPC   NC325631  40.774  11.348   9.455
 7400POPC   PO425632  40.768  11.310   9.155
 7400POPC   GL125633  40.792  11.277   8.855
 7400POPC   GL225634  40.728  11.181   8.855
 7400POPC   C1A25635  40.825  11.266   8.555
 7400POPC   D2A25636  40.754  11.306   8.255
 7400POPC   C3A25637  40.779  11.320   7.955
 7400POPC   C4A25638  40.767  11.306   7.655
 7400POPC   C1B25639  40.605  11.100   8.555
 7400POPC   C2B25640  40.646  11.094   8.255
 7400POPC   C3B25641  40.572  11.076   7.955
 7400POPC   C4B25642  40.601  11.164   7.655
 7401POPC   NC325643  12.060  28.371   9.455
 7401POPC   PO425644  12.102  28.380   9.155
 7401POPC   GL125645  12.078  28.383   8.855
 7401POPC   GL225646  12.043  28.530   8.855
 7401POPC   C1A25647  12.056  28.401   8.555
 7401POPC   D2A25648  12.118  28.324   8.255
 7401POPC   C3A25649  12.105  28.393   7.955
 7401POPC   C4A25650  12.062  28.350   7.655
 7401POPC   C1B25651  12.048  28.649   8.555
 7401POPC   C2B25652  12.067  28.647   8.255
 7401POPC   C3B25653  12.056  28.631   7.955
 7401POPC   C4B25654  12.018  28.595   7.655
 7402POPC   NC325655   4.268  29.157   9.455
 7402POPC   PO425656   4.276  29.111   9.155
 7402POPC   GL125657   4.353  29.185   8.855
 7402POPC   GL225658   4.191  29.112   8.855
 7402POPC   C1A25659   4.313  29.142   8.555
 7402POPC   D2A25660   4.359  29.107   8.255
 7402POPC   C3A25661   4.290  29.129   7.955
 7402POPC   C4A25662   4.282  29.192   7.655
 7402POPC   C1B25663   4.112  29.011   8.555
 7402POPC   C2B25664   4.131  29.090   8.255
 7402POPC   C3B25665   4.118  29.100   7.955
 7402POPC   C4B25666   4.068  29.036   7.655
 7403POPC   NC325667  43.099  39.181   9.455
 7403POPC   PO425668  43.064  39.265   9.155
 7403POPC   GL125669  43.072  39.189   8.855
 7403POPC   GL225670  43.102  39.132   8.855
 7403POPC   C1A25671  43.131  39.255   8.555
 7403POPC   D2A25672  43.136  39.268   8.255
 7403POPC   C3A25673  43.128  39.221   7.955
 7403POPC   C4A25674  43.118  39.263   7.655
 7403POPC   C1B25675  43.200  38.950   8.555
 7403POPC   C2B25676  43.173  38.949   8.255
 7403POPC   C3B25677  43.190  39.002   7.955
 7403POPC   C4B25678  43.108  39.011   7.655
 7404POPC   NC325679   5.068  35.371   9.455
 7404POPC   PO425680   5.058  35.374   9.155
 7404POPC   GL125681   5.059  35.338   8.855
 7404POPC   GL225682   5.065  35.278   8.855
 7404POPC   C1A25683   5.093  35.328   8.555
 7404POPC   D2A25684   5.131  35.370   8.255
 7404POPC   C3A25685   5.104  35.314   7.955
 7404POPC   C4A25686   5.126  35.371   7.655
 7404POPC   C1B25687   4.962  35.145   8.555
 7404POPC   C2B25688   4.955  35.126   8.255
 7404POPC   C3B25689   4.964  35.136   7.955
 7404POPC   C4B25690   4.959  35.155   7.655
 7405POPC   NC325691  15.192  31.511   9.455
 7405POPC   PO425692  15.145  31.455   9.155
 7405POPC   GL125693  15.203  31.483   8.855
 7405POPC   GL225694  15.171  31.547   8.855
 7405POPC   C1A25695  15.222  31.439   8.555
 7405POPC   D2A25696  15.145  31.426   8.255
 7405POPC   C3A25697  15.188  31.494   7.955
 7405POPC   C4A25698  15.182  31.485   7.655
 7405POPC   C1B25699  15.110  31.673   8.555
 7405POPC   C2B25700  15.111  31.748   8.255
 7405POPC   C3B25701  15.131  31.674   7.955
 7405POPC   C4B25702  15.132  31.767   7.655
 7406POPC   NC325703  22.117  27.623   9.455
 7406POPC   PO425704  22.115  27.641   9.155
 7406POPC   GL125705  22.174  27.558   8.855
 7406POPC   GL225706  22.098  27.696   8.855
 7406POPC   C1A25707  22.128  27.628   8.555
 7406POPC   D2A25708  22.140  27.558   8.255
 7406POPC   C3A25709  22.123  27.608   7.955
 7406POPC   C4A25710  22.126  27.587   7.655
 7406POPC   C1B25711  22.057  27.836   8.555
 7406POPC   C2B25712  22.062  27.845   8.255
 7406POPC   C3B25713  21.988  27.798   7.955
 7406POPC   C4B25714  22.070  27.782   7.655
 7407POPC   NC325715  25.256  37.721   9.455
 7407POPC   PO425716  25.275  37.678   9.155
 7407POPC   GL125717  25.314  37.696   8.855
 7407POPC   GL225718  25.325  37.765   8.855
 7407POPC   C1A25719  25.257  37.689   8.555
 7407POPC   D2A25720  25.220  37.648   8.255
 7407POPC   C3A25721  25.293  37.667   7.955
 7407POPC   C4A25722  25.286  37.678   7.655
 7407POPC   C1B25723  25.341  37.881   8.555
 7407POPC   C2B25724  25.409  37.934   8.255
 7407POPC   C3B25725  25.368  37.935   7.955
 7407POPC   C4B25726  25.349  37.919   7.655
 7408POPC   NC325727   8.946  40.783   9.455
 7408POPC   PO425728   8.945  40.759   9.155
 7408POPC   GL125729   8.982  40.804   8.855
 7408POPC   GL225730   8.859  40.894   8.855
 7408POPC   C1A25731   9.000  40.824   8.555
 7408POPC   D2A25732   8.960  40.791   8.255
 7408POPC   C3A25733   8.923  40.812   7.955
 7408POPC   C4A25734   9.005  40.779   7.655
 7408POPC   C1B25735   8.806  40.921   8.555
 7408POPC   C2B25736   8.797  40.923   8.255
 7408POPC   C3B25737   8.768  40.964   7.955
 7408POPC   C4B25738   8.802  40.911   7.655
 7409POPC   NC325739  12.851  16.772   9.455
 7409POPC   PO425740  12.809  16.741   9.155
 7409POPC   GL125741  12.888  16.682   8.855
 7409POPC   GL225742  12.901  16.826   8.855
 7409POPC   C1A25743  12.900  16.778   8.555
 7409POPC   D2A25744  12.895  16.767   8.255
 7409POPC   C3A25745  12.810  16.730   7.955
 7409POPC   C4A25746  12.847  16.745   7.655
 7409POPC   C1B25747  12.970  16.937   8.555
 7409POPC   C2B25748  12.891  16.933   8.255
 7409POPC   C3B25749  12.944  16.990   7.955
 7409POPC   C4B25750  12.946  16.977   7.655
 7410POPC   NC325751   6.614  32.997   9.455
 7410POPC   PO425752   6.682  32.987   9.155
 7410POPC   GL125753   6.651  33.022   8.855
 7410POPC   GL225754   6.741  33.120   8.855
 7410POPC   C1A25755   6.659  32.992   8.555
 7410POPC   D2A25756   6.655  32.992   8.255
 7410POPC   C3A25757   6.629  33.056   7.955
 7410POPC   C4A25758   6.695  33.003   7.655
 7410POPC   C1B25759   6.907  33.185   8.555
 7410POPC   C2B25760   6.912  33.096   8.255
 7410POPC   C3B25761   6.870  33.170   7.955
 7410POPC   C4B25762   6.868  33.104   7.655
 7411POPC   NC325763  12.119  42.379   9.455
 7411POPC   PO425764  12.027  42.333   9.155
 7411POPC   GL125765  12.080  42.301   8.855
 7411POPC   GL225766  12.146  42.292   8.855
 7411POPC   C1A25767  12.114  42.360   8.555
 7411POPC   D2A25768  12.046  42.333   8.255
 7411POPC   C3A25769  12.118  42.351   7.955
 7411POPC   C4A25770  12.086  42.321   7.655
 7411POPC   C1B25771  12.254  42.135   8.555
 7411POPC   C2B25772  12.281  42.143   8.255
 7411POPC   C3B25773  12.306  42.226   7.955
 7411POPC   C4B25774  12.286  42.207   7.655
 7412POPC   NC325775  29.167  25.274   9.455
 7412POPC   PO425776  29.135  25.262   9.155
 7412POPC   GL125777  29.159  25.267   8.855
 7412POPC   GL225778  29.121  25.377   8.855
 7412POPC   C1A25779  29.118  25.270   8.555
 7412POPC   D2A25780  29.180  25.239   8.255
 7412POPC   C3A25781  29.121  25.229   7.955
 7412POPC   C4A25782  29.143  25.300   7.655
 7412POPC   C1B25783  29.032  25.536   8.555
 7412POPC   C2B25784  29.015  25.532   8.255
 7412POPC   C3B25785  29.066  25.490   7.955
 7412POPC   C4B25786  29.023  25.541   7.655
 7413POPC   NC325787  36.912  25.259   9.455
 7413POPC   PO425788  36.925  25.252   9.155
 7413POPC   GL125789  36.949  25.281   8.855
 7413POPC   GL225790  36.953  25.340   8.855
 7413POPC   C1A25791  36.855  25.295   8.555
 7413POPC   D2A25792  36.854  25.258   8.255
 7413POPC   C3A25793  36.880  25.269   7.955
 7413POPC   C4A25794  36.904  25.290   7.655
 7413POPC   C1B25795  37.090  25.490   8.555
 7413POPC   C2B25796  37.092  25.484   8.255
 7413POPC   C3B25797  37.091  25.462   7.955
 7413POPC   C4B25798  37.106  25.458   7.655
 7414POPC   NC325799  29.145  34.573   9.455
 7414POPC   PO425800  29.099  34.606   9.155
 7414POPC   GL125801  29.178  34.612   8.855
 7414POPC   GL225802  29.193  34.507   8.855
 7414POPC   C1A25803  29.162  34.616   8.555
 7414POPC   D2A25804  29.165  34.561   8.255
 7414POPC   C3A25805  29.177  34.584   7.955
 7414POPC   C4A25806  29.124  34.610   7.655
 7414POPC   C1B25807  29.332  34.390   8.555
 7414POPC   C2B25808  29.245  34.369   8.255
 7414POPC   C3B25809  29.239  34.399   7.955
 7414POPC   C4B25810  29.265  34.339   7.655
 7415POPC   NC325811  15.156  35.309   9.455
 7415POPC   PO425812  15.204  35.312   9.155
 7415POPC   GL125813  15.162  35.370   8.855
 7415POPC   GL225814  15.072  35.275   8.855
 7415POPC   C1A25815  15.167  35.386   8.555
 7415POPC   D2A25816  15.223  35.309   8.255
 7415POPC   C3A25817  15.171  35.312   7.955
 7415POPC   C4A25818  15.143  35.329   7.655
 7415POPC   C1B25819  15.016  35.170   8.555
 7415POPC   C2B25820  15.017  35.216   8.255
 7415POPC   C3B25821  14.974  35.201   7.955
 7415POPC   C4B25822  15.030  35.174   7.655
 7416POPC   NC325823  12.865  44.619   9.455
 7416POPC   PO425824  12.843  44.623   9.155
 7416POPC   GL125825  12.889  44.640   8.855
 7416POPC   GL225826  12.790  44.556   8.855
 7416POPC   C1A25827  12.823  44.693   8.555
 7416POPC   D2A25828  12.855  44.674   8.255
 7416POPC   C3A25829  12.855  44.707   7.955
 7416POPC   C4A25830  12.888  44.655   7.655
 7416POPC   C1B25831  12.703  44.421   8.555
 7416POPC   C2B25832  12.765  44.443   8.255
 7416POPC   C3B25833  12.734  44.423   7.955
 7416POPC   C4B25834  12.713  44.434   7.655
 7417POPC   NC325835  43.131   9.010   9.455
 7417POPC   PO425836  43.075   8.997   9.155
 7417POPC   GL125837  43.142   8.975   8.855
 7417POPC   GL225838  43.201   9.128   8.855
 7417POPC   C1A25839  43.103   8.994   8.555
 7417POPC   D2A25840  43.081   8.969   8.255
 7417POPC   C3A25841  43.120   8.933   7.955
 7417POPC   C4A25842  43.077   8.939   7.655
 7417POPC   C1B25843  43.262   9.236   8.555
 7417POPC   C2B25844  43.188   9.241   8.255
 7417POPC   C3B25845  43.182   9.191   7.955
 7417POPC   C4B25846  43.265   9.151   7.655
 7418POPC   NC325847  29.139  12.812   9.455
 7418POPC   PO425848  29.175  12.849   9.155
 7418POPC   GL125849  29.154  12.837   8.855
 7418POPC   GL225850  29.251  12.971   8.855
 7418POPC   C1A25851  29.097  12.802   8.555
 7418POPC   D2A25852  29.189  12.876   8.255
 7418POPC   C3A25853  29.123  12.839   7.955
 7418POPC   C4A25854  29.099  12.862   7.655
 7418POPC   C1B25855  29.380  12.991   8.555
 7418POPC   C2B25856  29.380  12.965   8.255
 7418POPC   C3B25857  29.318  12.995   7.955
 7418POPC   C4B25858  29.337  12.993   7.655
 7419POPC   NC325859  35.343  14.390   9.455
 7419POPC   PO425860  35.391  14.433   9.155
 7419POPC   GL125861  35.396  14.453   8.855
 7419POPC   GL225862  35.423  14.320   8.855
 7419POPC   C1A25863  35.328  14.433   8.555
 7419POPC   D2A25864  35.344  14.384   8.255
 7419POPC   C3A25865  35.342  14.383   7.955
 7419POPC   C4A25866  35.342  14.362   7.655
 7419POPC   C1B25867  35.549  14.255   8.555
 7419POPC   C2B25868  35.549  14.341   8.255
 7419POPC   C3B25869  35.621  14.295   7.955
 7419POPC   C4B25870  35.581  14.318   7.655
 7420POPC   NC325871  38.420  15.178   9.455
 7420POPC   PO425872  38.483  15.191   9.155
 7420POPC   GL125873  38.485  15.224   8.855
 7420POPC   GL225874  38.412  15.344   8.855
 7420POPC   C1A25875  38.467  15.143   8.555
 7420POPC   D2A25876  38.495  15.221   8.255
 7420POPC   C3A25877  38.470  15.192   7.955
 7420POPC   C4A25878  38.485  15.156   7.655
 7420POPC   C1B25879  38.441  15.415   8.555
 7420POPC   C2B25880  38.413  15.426   8.255
 7420POPC   C3B25881  38.433  15.449   7.955
 7420POPC   C4B25882  38.427  15.450   7.655
 7421POPC   NC325883   5.902  24.482   9.455
 7421POPC   PO425884   5.828  24.452   9.155
 7421POPC   GL125885   5.822  24.539   8.855
 7421POPC   GL225886   5.766  24.558   8.855
 7421POPC   C1A25887   5.859  24.486   8.555
 7421POPC   D2A25888   5.841  24.463   8.255
 7421POPC   C3A25889   5.837  24.492   7.955
 7421POPC   C4A25890   5.913  24.458   7.655
 7421POPC   C1B25891   5.617  24.521   8.555
 7421POPC   C2B25892   5.604  24.510   8.255
 7421POPC   C3B25893   5.628  24.488   7.955
 7421POPC   C4B25894   5.582  24.557   7.655
 7422POPC   NC325895  28.369  34.554   9.455
 7422POPC   PO425896  28.396  34.553   9.155
 7422POPC   GL125897  28.384  34.534   8.855
 7422POPC   GL225898  28.269  34.581   8.855
 7422POPC   C1A25899  28.345  34.587   8.555
 7422POPC   D2A25900  28.347  34.549   8.255
 7422POPC   C3A25901  28.356  34.586   7.955
 7422POPC   C4A25902  28.391  34.579   7.655
 7422POPC   C1B25903  28.131  34.582   8.555
 7422POPC   C2B25904  28.149  34.612   8.255
 7422POPC   C3B25905  28.155  34.619   7.955
 7422POPC   C4B25906  28.161  34.578   7.655
 7423POPC   NC325907   8.971  37.656   9.455
 7423POPC   PO425908   8.968  37.702   9.155
 7423POPC   GL125909   8.982  37.670   8.855
 7423POPC   GL225910   8.853  37.777   8.855
 7423POPC   C1A25911   8.984  37.693   8.555
 7423POPC   D2A25912   8.926  37.649   8.255
 7423POPC   C3A25913   8.998  37.679   7.955
 7423POPC   C4A25914   8.987  37.660   7.655
 7423POPC   C1B25915   8.772  37.791   8.555
 7423POPC   C2B25916   8.776  37.735   8.255
 7423POPC   C3B25917   8.715  37.735   7.955
 7423POPC   C4B25918   8.786  37.808   7.655
 7424POPC   NC325919  33.027  19.105   9.455
 7424POPC   PO425920  33.061  19.032   9.155
 7424POPC   GL125921  33.060  19.052   8.855
 7424POPC   GL225922  33.133  18.913   8.855
 7424POPC   C1A25923  33.049  19.081   8.555
 7424POPC   D2A25924  33.066  19.106   8.255
 7424POPC   C3A25925  33.066  19.071   7.955
 7424POPC   C4A25926  33.005  19.083   7.655
 7424POPC   C1B25927  33.175  18.845   8.555
 7424POPC   C2B25928  33.160  18.855   8.255
 7424POPC   C3B25929  33.160  18.804   7.955
 7424POPC   C4B25930  33.213  18.851   7.655
 7425POPC   NC325931  13.636  41.579   9.455
 7425POPC   PO425932  13.607  41.526   9.155
 7425POPC   GL125933  13.599  41.560   8.855
 7425POPC   GL225934  13.752  41.471   8.855
 7425POPC   C1A25935  13.637  41.510   8.555
 7425POPC   D2A25936  13.644  41.608   8.255
 7425POPC   C3A25937  13.642  41.535   7.955
 7425POPC   C4A25938  13.633  41.530   7.655
 7425POPC   C1B25939  13.892  41.512   8.555
 7425POPC   C2B25940  13.875  41.456   8.255
 7425POPC   C3B25941  13.893  41.439   7.955
 7425POPC   C4B25942  13.853  41.462   7.655
 7426POPC   NC325943  16.758  15.917   9.455
 7426POPC   PO425944  16.750  16.003   9.155
 7426POPC   GL125945  16.697  15.996   8.855
 7426POPC   GL225946  16.650  16.098   8.855
 7426POPC   C1A25947  16.733  15.950   8.555
 7426POPC   D2A25948  16.721  15.960   8.255
 7426POPC   C3A25949  16.709  15.960   7.955
 7426POPC   C4A25950  16.778  15.957   7.655
 7426POPC   C1B25951  16.566  16.137   8.555
 7426POPC   C2B25952  16.552  16.140   8.255
 7426POPC   C3B25953  16.588  16.185   7.955
 7426POPC   C4B25954  16.627  16.111   7.655
 7427POPC   NC325955  27.585  17.487   9.455
 7427POPC   PO425956  27.600  17.501   9.155
 7427POPC   GL125957  27.597  17.542   8.855
 7427POPC   GL225958  27.739  17.474   8.855
 7427POPC   C1A25959  27.571  17.502   8.555
 7427POPC   D2A25960  27.556  17.534   8.255
 7427POPC   C3A25961  27.631  17.473   7.955
 7427POPC   C4A25962  27.624  17.485   7.655
 7427POPC   C1B25963  27.875  17.445   8.555
 7427POPC   C2B25964  27.824  17.495   8.255
 7427POPC   C3B25965  27.840  17.419   7.955
 7427POPC   C4B25966  27.828  17.478   7.655
 7428POPC   NC325967  27.586  33.069   9.455
 7428POPC   PO425968  27.586  32.980   9.155
 7428POPC   GL125969  27.590  33.064   8.855
 7428POPC   GL225970  27.619  33.123   8.855
 7428POPC   C1A25971  27.617  32.986   8.555
 7428POPC   D2A25972  27.637  33.057   8.255
 7428POPC   C3A25973  27.582  33.038   7.955
 7428POPC   C4A25974  27.619  33.004   7.655
 7428POPC   C1B25975  27.695  33.280   8.555
 7428POPC   C2B25976  27.691  33.237   8.255
 7428POPC   C3B25977  27.674  33.277   7.955
 7428POPC   C4B25978  27.646  33.219   7.655
 7429POPC   NC325979   7.446  11.341   9.455
 7429POPC   PO425980   7.376  11.292   9.155
 7429POPC   GL125981   7.396  11.319   8.855
 7429POPC   GL225982   7.552  11.386   8.855
 7429POPC   C1A25983   7.425  11.277   8.555
 7429POPC   D2A25984   7.452  11.340   8.255
 7429POPC   C3A25985   7.432  11.338   7.955
 7429POPC   C4A25986   7.447  11.342   7.655
 7429POPC   C1B25987   7.570  11.530   8.555
 7429POPC   C2B25988   7.595  11.440   8.255
 7429POPC   C3B25989   7.555  11.465   7.955
 7429POPC   C4B25990   7.632  11.511   7.655
 7430POPC   NC325991  22.140  43.876   9.455
 7430POPC   PO425992  22.179  43.929   9.155
 7430POPC   GL125993  22.147  43.919   8.855
 7430POPC   GL225994  22.230  44.023   8.855
 7430POPC   C1A25995  22.177  43.840   8.555
 7430POPC   D2A25996  22.151  43.906   8.255
 7430POPC   C3A25997  22.189  43.847   7.955
 7430POPC   C4A25998  22.171  43.841   7.655
 7430POPC   C1B25999  22.258  44.151   8.555
 7430POPC   C2B26000  22.258  44.111   8.255
 7430POPC   C3B26001  22.257  44.129   7.955
 7430POPC   C4B26002  22.296  44.144   7.655
 7431POPC   NC326003  15.942  33.809   9.455
 7431POPC   PO426004  15.978  33.767   9.155
 7431POPC   GL126005  15.969  33.782   8.855
 7431POPC   GL226006  15.821  33.805   8.855
 7431POPC   C1A26007  16.002  33.793   8.555
 7431POPC   D2A26008  15.996  33.813   8.255
 7431POPC   C3A26009  15.944  33.755   7.955
 7431POPC   C4A26010  15.955  33.751   7.655
 7431POPC   C1B26011  15.750  33.864   8.555
 7431POPC   C2B26012  15.726  33.860   8.255
 7431POPC   C3B26013  15.671  33.811   7.955
 7431POPC   C4B26014  15.690  33.806   7.655
 7432POPC   NC326015   7.389  25.235   9.455
 7432POPC   PO426016   7.444  25.281   9.155
 7432POPC   GL126017   7.453  25.251   8.855
 7432POPC   GL226018   7.365  25.175   8.855
 7432POPC   C1A26019   7.415  25.279   8.555
 7432POPC   D2A26020   7.467  25.268   8.255
 7432POPC   C3A26021   7.440  25.270   7.955
 7432POPC   C4A26022   7.383  25.257   7.655
 7432POPC   C1B26023   7.287  25.088   8.555
 7432POPC   C2B26024   7.309  25.047   8.255
 7432POPC   C3B26025   7.325  25.024   7.955
 7432POPC   C4B26026   7.307  25.074   7.655
 7433POPC   NC326027  36.939   5.872   9.455
 7433POPC   PO426028  36.950   5.856   9.155
 7433POPC   GL126029  36.931   5.845   8.855
 7433POPC   GL226030  36.852   5.753   8.855
 7433POPC   C1A26031  36.898   5.847   8.555
 7433POPC   D2A26032  36.941   5.873   8.255
 7433POPC   C3A26033  36.872   5.881   7.955
 7433POPC   C4A26034  36.924   5.845   7.655
 7433POPC   C1B26035  36.825   5.576   8.555
 7433POPC   C2B26036  36.808   5.667   8.255
 7433POPC   C3B26037  36.865   5.622   7.955
 7433POPC   C4B26038  36.856   5.649   7.655
 7434POPC   NC326039   4.312  36.875   9.455
 7434POPC   PO426040   4.284  36.853   9.155
 7434POPC   GL126041   4.344  36.952   8.855
 7434POPC   GL226042   4.283  36.822   8.855
 7434POPC   C1A26043   4.347  36.869   8.555
 7434POPC   D2A26044   4.312  36.936   8.255
 7434POPC   C3A26045   4.306  36.876   7.955
 7434POPC   C4A26046   4.352  36.881   7.655
 7434POPC   C1B26047   4.243  36.688   8.555
 7434POPC   C2B26048   4.187  36.659   8.255
 7434POPC   C3B26049   4.186  36.642   7.955
 7434POPC   C4B26050   4.233  36.625   7.655
 7435POPC   NC326051  11.326  26.844   9.455
 7435POPC   PO426052  11.297  26.809   9.155
 7435POPC   GL126053  11.347  26.801   8.855
 7435POPC   GL226054  11.361  26.906   8.855
 7435POPC   C1A26055  11.318  26.862   8.555
 7435POPC   D2A26056  11.334  26.774   8.255
 7435POPC   C3A26057  11.308  26.777   7.955
 7435POPC   C4A26058  11.275  26.791   7.655
 7435POPC   C1B26059  11.419  27.060   8.555
 7435POPC   C2B26060  11.418  27.040   8.255
 7435POPC   C3B26061  11.450  26.996   7.955
 7435POPC   C4B26062  11.454  27.054   7.655
 7436POPC   NC326063  38.437   0.425   9.455
 7436POPC   PO426064  38.435   0.415   9.155
 7436POPC   GL126065  38.461   0.412   8.855
 7436POPC   GL226066  38.526   0.475   8.855
 7436POPC   C1A26067  38.504   0.488   8.555
 7436POPC   D2A26068  38.429   0.395   8.255
 7436POPC   C3A26069  38.432   0.465   7.955
 7436POPC   C4A26070  38.501   0.441   7.655
 7436POPC   C1B26071  38.729   0.506   8.555
 7436POPC   C2B26072  38.692   0.542   8.255
 7436POPC   C3B26073  38.707   0.519   7.955
 7436POPC   C4B26074  38.689   0.552   7.655
 7437POPC   NC326075  16.719  34.559   9.455
 7437POPC   PO426076  16.756  34.585   9.155
 7437POPC   GL126077  16.690  34.531   8.855
 7437POPC   GL226078  16.661  34.660   8.855
 7437POPC   C1A26079  16.687  34.566   8.555
 7437POPC   D2A26080  16.747  34.529   8.255
 7437POPC   C3A26081  16.763  34.532   7.955
 7437POPC   C4A26082  16.743  34.614   7.655
 7437POPC   C1B26083  16.601  34.753   8.555
 7437POPC   C2B26084  16.582  34.765   8.255
 7437POPC   C3B26085  16.574  34.814   7.955
 7437POPC   C4B26086  16.555  34.832   7.655
 7438POPC   NC326087  44.665  12.047   9.455
 7438POPC   PO426088  44.626  12.120   9.155
 7438POPC   GL126089  44.691  12.039   8.855
 7438POPC   GL226090  44.560  12.004   8.855
 7438POPC   C1A26091  44.614  12.098   8.555
 7438POPC   D2A26092  44.685  12.071   8.255
 7438POPC   C3A26093  44.677  12.119   7.955
 7438POPC   C4A26094  44.698  12.045   7.655
 7438POPC   C1B26095  44.419  11.947   8.555
 7438POPC   C2B26096  44.468  11.924   8.255
 7438POPC   C3B26097  44.434  11.935   7.955
 7438POPC   C4B26098  44.433  11.967   7.655
 7439POPC   NC326099  34.620  31.512   9.455
 7439POPC   PO426100  34.539  31.478   9.155
 7439POPC   GL126101  34.613  31.484   8.855
 7439POPC   GL226102  34.469  31.351   8.855
 7439POPC   C1A26103  34.541  31.507   8.555
 7439POPC   D2A26104  34.615  31.437   8.255
 7439POPC   C3A26105  34.533  31.479   7.955
 7439POPC   C4A26106  34.528  31.466   7.655
 7439POPC   C1B26107  34.401  31.223   8.555
 7439POPC   C2B26108  34.408  31.245   8.255
 7439POPC   C3B26109  34.468  31.286   7.955
 7439POPC   C4B26110  34.407  31.290   7.655
 7440POPC   NC326111   9.706  24.507   9.455
 7440POPC   PO426112   9.745  24.528   9.155
 7440POPC   GL126113   9.739  24.458   8.855
 7440POPC   GL226114   9.634  24.427   8.855
 7440POPC   C1A26115   9.745  24.463   8.555
 7440POPC   D2A26116   9.763  24.449   8.255
 7440POPC   C3A26117   9.705  24.470   7.955
 7440POPC   C4A26118   9.722  24.488   7.655
 7440POPC   C1B26119   9.521  24.375   8.555
 7440POPC   C2B26120   9.571  24.421   8.255
 7440POPC   C3B26121   9.479  24.389   7.955
 7440POPC   C4B26122   9.563  24.387   7.655
 7441POPC   NC326123  25.275  20.587   9.455
 7441POPC   PO426124  25.314  20.567   9.155
 7441POPC   GL126125  25.291  20.651   8.855
 7441POPC   GL226126  25.253  20.715   8.855
 7441POPC   C1A26127  25.303  20.569   8.555
 7441POPC   D2A26128  25.232  20.565   8.255
 7441POPC   C3A26129  25.302  20.659   7.955
 7441POPC   C4A26130  25.309  20.573   7.655
 7441POPC   C1B26131  25.233  20.898   8.555
 7441POPC   C2B26132  25.262  20.876   8.255
 7441POPC   C3B26133  25.326  20.821   7.955
 7441POPC   C4B26134  25.311  20.880   7.655
 7442POPC   NC326135  23.734  14.450   9.455
 7442POPC   PO426136  23.690  14.373   9.155
 7442POPC   GL126137  23.680  14.406   8.855
 7442POPC   GL226138  23.612  14.313   8.855
 7442POPC   C1A26139  23.760  14.426   8.555
 7442POPC   D2A26140  23.678  14.370   8.255
 7442POPC   C3A26141  23.692  14.441   7.955
 7442POPC   C4A26142  23.702  14.415   7.655
 7442POPC   C1B26143  23.505  14.220   8.555
 7442POPC   C2B26144  23.562  14.263   8.255
 7442POPC   C3B26145  23.495  14.225   7.955
 7442POPC   C4B26146  23.496  14.198   7.655
 7443POPC   NC326147  13.624  13.662   9.455
 7443POPC   PO426148  13.617  13.622   9.155
 7443POPC   GL126149  13.601  13.667   8.855
 7443POPC   GL226150  13.607  13.759   8.855
 7443POPC   C1A26151  13.651  13.674   8.555
 7443POPC   D2A26152  13.626  13.633   8.255
 7443POPC   C3A26153  13.588  13.675   7.955
 7443POPC   C4A26154  13.652  13.641   7.655
 7443POPC   C1B26155  13.530  13.853   8.555
 7443POPC   C2B26156  13.614  13.849   8.255
 7443POPC   C3B26157  13.577  13.862   7.955
 7443POPC   C4B26158  13.523  13.824   7.655
 7444POPC   NC326159  26.088  25.248   9.455
 7444POPC   PO426160  26.009  25.284   9.155
 7444POPC   GL126161  26.062  25.259   8.855
 7444POPC   GL226162  26.085  25.197   8.855
 7444POPC   C1A26163  26.074  25.260   8.555
 7444POPC   D2A26164  26.017  25.253   8.255
 7444POPC   C3A26165  26.067  25.307   7.955
 7444POPC   C4A26166  26.005  25.273   7.655
 7444POPC   C1B26167  26.107  25.008   8.555
 7444POPC   C2B26168  26.108  25.003   8.255
 7444POPC   C3B26169  26.101  24.996   7.955
 7444POPC   C4B26170  26.162  25.036   7.655
 7445POPC   NC326171  36.890  33.011   9.455
 7445POPC   PO426172  36.889  33.008   9.155
 7445POPC   GL126173  36.862  32.995   8.855
 7445POPC   GL226174  36.972  32.924   8.855
 7445POPC   C1A26175  36.871  33.016   8.555
 7445POPC   D2A26176  36.920  33.070   8.255
 7445POPC   C3A26177  36.891  33.040   7.955
 7445POPC   C4A26178  36.886  33.043   7.655
 7445POPC   C1B26179  37.045  32.874   8.555
 7445POPC   C2B26180  37.089  32.824   8.255
 7445POPC   C3B26181  37.049  32.857   7.955
 7445POPC   C4B26182  37.104  32.820   7.655
 7446POPC   NC326183   3.568   6.677   9.455
 7446POPC   PO426184   3.556   6.689   9.155
 7446POPC   GL126185   3.551   6.628   8.855
 7446POPC   GL226186   3.676   6.726   8.855
 7446POPC   C1A26187   3.552   6.674   8.555
 7446POPC   D2A26188   3.581   6.599   8.255
 7446POPC   C3A26189   3.517   6.613   7.955
 7446POPC   C4A26190   3.526   6.624   7.655
 7446POPC   C1B26191   3.759   6.825   8.555
 7446POPC   C2B26192   3.742   6.814   8.255
 7446POPC   C3B26193   3.731   6.785   7.955
 7446POPC   C4B26194   3.717   6.768   7.655
 7447POPC   NC326195  11.273   5.870   9.455
 7447POPC   PO426196  11.282   5.868   9.155
 7447POPC   GL126197  11.293   5.919   8.855
 7447POPC   GL226198  11.398   5.806   8.855
 7447POPC   C1A26199  11.338   5.842   8.555
 7447POPC   D2A26200  11.273   5.830   8.255
 7447POPC   C3A26201  11.256   5.862   7.955
 7447POPC   C4A26202  11.321   5.860   7.655
 7447POPC   C1B26203  11.564   5.779   8.555
 7447POPC   C2B26204  11.482   5.776   8.255
 7447POPC   C3B26205  11.499   5.752   7.955
 7447POPC   C4B26206  11.549   5.785   7.655
 7448POPC   NC326207  34.622  41.553   9.455
 7448POPC   PO426208  34.620  41.534   9.155
 7448POPC   GL126209  34.621  41.543   8.855
 7448POPC   GL226210  34.453  41.571   8.855
 7448POPC   C1A26211  34.548  41.566   8.555
 7448POPC   D2A26212  34.578  41.544   8.255
 7448POPC   C3A26213  34.576  41.566   7.955
 7448POPC   C4A26214  34.575  41.571   7.655
 7448POPC   C1B26215  34.315  41.626   8.555
 7448POPC   C2B26216  34.319  41.699   8.255
 7448POPC   C3B26217  34.397  41.686   7.955
 7448POPC   C4B26218  34.325  41.656   7.655
 7449POPC   NC326219  37.654  43.892   9.455
 7449POPC   PO426220  37.705  43.854   9.155
 7449POPC   GL126221  37.712  43.922   8.855
 7449POPC   GL226222  37.611  43.831   8.855
 7449POPC   C1A26223  37.636  43.893   8.555
 7449POPC   D2A26224  37.651  43.847   8.255
 7449POPC   C3A26225  37.698  43.862   7.955
 7449POPC   C4A26226  37.651  43.926   7.655
 7449POPC   C1B26227  37.463  43.730   8.555
 7449POPC   C2B26228  37.442  43.758   8.255
 7449POPC   C3B26229  37.501  43.713   7.955
 7449POPC   C4B26230  37.488  43.702   7.655
 7450POPC   NC326231   9.737  41.588   9.455
 7450POPC   PO426232   9.778  41.516   9.155
 7450POPC   GL126233   9.749  41.552   8.855
 7450POPC   GL226234   9.899  41.541   8.855
 7450POPC   C1A26235   9.734  41.580   8.555
 7450POPC   D2A26236   9.745  41.581   8.255
 7450POPC   C3A26237   9.745  41.523   7.955
 7450POPC   C4A26238   9.786  41.557   7.655
 7450POPC   C1B26239   9.977  41.514   8.555
 7450POPC   C2B26240   9.957  41.473   8.255
 7450POPC   C3B26241  10.001  41.462   7.955
 7450POPC   C4B26242  10.000  41.442   7.655
 7451POPC   NC326243   8.147  44.623   9.455
 7451POPC   PO426244   8.199  44.711   9.155
 7451POPC   GL126245   8.200  44.694   8.855
 7451POPC   GL226246   8.293  44.560   8.855
 7451POPC   C1A26247   8.151  44.625   8.555
 7451POPC   D2A26248   8.172  44.634   8.255
 7451POPC   C3A26249   8.244  44.675   7.955
 7451POPC   C4A26250   8.202  44.667   7.655
 7451POPC   C1B26251   8.365  44.516   8.555
 7451POPC   C2B26252   8.437  44.524   8.255
 7451POPC   C3B26253   8.399  44.514   7.955
 7451POPC   C4B26254   8.392  44.518   7.655
 7452POPC   NC326255  43.907  22.207   9.455
 7452POPC   PO426256  43.845  22.121   9.155
 7452POPC   GL126257  43.842  22.188   8.855
 7452POPC   GL226258  43.993  22.046   8.855
 7452POPC   C1A26259  43.888  22.162   8.555
 7452POPC   D2A26260  43.887  22.148   8.255
 7452POPC   C3A26261  43.887  22.139   7.955
 7452POPC   C4A26262  43.862  22.120   7.655
 7452POPC   C1B26263  44.102  21.998   8.555
 7452POPC   C2B26264  44.043  22.032   8.255
 7452POPC   C3B26265  44.059  22.065   7.955
 7452POPC   C4B26266  44.073  21.976   7.655
 7453POPC   NC326267  22.972  27.575   9.455
 7453POPC   PO426268  22.900  27.631   9.155
 7453POPC   GL126269  22.917  27.559   8.855
 7453POPC   GL226270  22.842  27.530   8.855
 7453POPC   C1A26271  22.962  27.634   8.555
 7453POPC   D2A26272  22.956  27.577   8.255
 7453POPC   C3A26273  22.942  27.544   7.955
 7453POPC   C4A26274  22.910  27.587   7.655
 7453POPC   C1B26275  22.660  27.595   8.555
 7453POPC   C2B26276  22.729  27.576   8.255
 7453POPC   C3B26277  22.656  27.553   7.955
 7453POPC   C4B26278  22.703  27.572   7.655
 7454POPC   NC326279  15.972  32.233   9.455
 7454POPC   PO426280  16.001  32.271   9.155
 7454POPC   GL126281  15.976  32.253   8.855
 7454POPC   GL226282  15.975  32.121   8.855
 7454POPC   C1A26283  15.936  32.292   8.555
 7454POPC   D2A26284  15.910  32.203   8.255
 7454POPC   C3A26285  15.924  32.290   7.955
 7454POPC   C4A26286  15.990  32.259   7.655
 7454POPC   C1B26287  16.027  32.028   8.555
 7454POPC   C2B26288  16.081  32.025   8.255
 7454POPC   C3B26289  16.093  31.977   7.955
 7454POPC   C4B26290  16.100  32.068   7.655
 7455POPC   NC326291   7.444  42.303   9.455
 7455POPC   PO426292   7.423  42.369   9.155
 7455POPC   GL126293   7.445  42.344   8.855
 7455POPC   GL226294   7.396  42.445   8.855
 7455POPC   C1A26295   7.396  42.342   8.555
 7455POPC   D2A26296   7.381  42.328   8.255
 7455POPC   C3A26297   7.410  42.304   7.955
 7455POPC   C4A26298   7.399  42.300   7.655
 7455POPC   C1B26299   7.425  42.592   8.555
 7455POPC   C2B26300   7.503  42.572   8.255
 7455POPC   C3B26301   7.441  42.609   7.955
 7455POPC   C4B26302   7.433  42.560   7.655
 7456POPC   NC326303  37.718   3.550   9.455
 7456POPC   PO426304  37.641   3.570   9.155
 7456POPC   GL126305  37.671   3.588   8.855
 7456POPC   GL226306  37.560   3.417   8.855
 7456POPC   C1A26307  37.646   3.504   8.555
 7456POPC   D2A26308  37.711   3.555   8.255
 7456POPC   C3A26309  37.719   3.591   7.955
 7456POPC   C4A26310  37.654   3.533   7.655
 7456POPC   C1B26311  37.477   3.372   8.555
 7456POPC   C2B26312  37.471   3.420   8.255
 7456POPC   C3B26313  37.480   3.366   7.955
 7456POPC   C4B26314  37.465   3.378   7.655
 7457POPC   NC326315  15.963  38.497   9.455
 7457POPC   PO426316  15.940  38.429   9.155
 7457POPC   GL126317  15.963  38.488   8.855
 7457POPC   GL226318  15.829  38.538   8.855
 7457POPC   C1A26319  15.951  38.497   8.555
 7457POPC   D2A26320  16.005  38.411   8.255
 7457POPC   C3A26321  15.958  38.496   7.955
 7457POPC   C4A26322  15.928  38.446   7.655
 7457POPC   C1B26323  15.707  38.649   8.555
 7457POPC   C2B26324  15.706  38.632   8.255
 7457POPC   C3B26325  15.796  38.613   7.955
 7457POPC   C4B26326  15.740  38.617   7.655
 7458POPC   NC326327  29.905  36.140   9.455
 7458POPC   PO426328  29.926  36.149   9.155
 7458POPC   GL126329  29.939  36.126   8.855
 7458POPC   GL226330  30.079  36.232   8.855
 7458POPC   C1A26331  29.893  36.122   8.555
 7458POPC   D2A26332  29.889  36.082   8.255
 7458POPC   C3A26333  29.882  36.131   7.955
 7458POPC   C4A26334  29.874  36.088   7.655
 7458POPC   C1B26335  30.178  36.223   8.555
 7458POPC   C2B26336  30.171  36.225   8.255
 7458POPC   C3B26337  30.153  36.212   7.955
 7458POPC   C4B26338  30.185  36.243   7.655
 7459POPC   NC326339  10.522  26.050   9.455
 7459POPC   PO426340  10.479  26.064   9.155
 7459POPC   GL126341  10.502  26.014   8.855
 7459POPC   GL226342  10.624  26.124   8.855
 7459POPC   C1A26343  10.505  26.008   8.555
 7459POPC   D2A26344  10.507  26.075   8.255
 7459POPC   C3A26345  10.516  26.033   7.955
 7459POPC   C4A26346  10.494  26.048   7.655
 7459POPC   C1B26347  10.664  26.271   8.555
 7459POPC   C2B26348  10.620  26.226   8.255
 7459POPC   C3B26349  10.634  26.294   7.955
 7459POPC   C4B26350  10.617  26.273   7.655
 7460POPC   NC326351  25.298  19.824   9.455
 7460POPC   PO426352  25.288  19.840   9.155
 7460POPC   GL126353  25.266  19.858   8.855
 7460POPC   GL226354  25.365  19.890   8.855
 7460POPC   C1A26355  25.249  19.811   8.555
 7460POPC   D2A26356  25.252  19.812   8.255
 7460POPC   C3A26357  25.243  19.789   7.955
 7460POPC   C4A26358  25.285  19.872   7.655
 7460POPC   C1B26359  25.376  19.993   8.555
 7460POPC   C2B26360  25.405  20.044   8.255
 7460POPC   C3B26361  25.404  20.048   7.955
 7460POPC   C4B26362  25.357  19.992   7.655
 7461POPC   NC326363  21.404  26.789   9.455
 7461POPC   PO426364  21.347  26.774   9.155
 7461POPC   GL126365  21.353  26.826   8.855
 7461POPC   GL226366  21.490  26.943   8.855
 7461POPC   C1A26367  21.418  26.831   8.555
 7461POPC   D2A26368  21.414  26.798   8.255
 7461POPC   C3A26369  21.401  26.787   7.955
 7461POPC   C4A26370  21.368  26.818   7.655
 7461POPC   C1B26371  21.541  26.997   8.555
 7461POPC   C2B26372  21.527  26.989   8.255
 7461POPC   C3B26373  21.474  27.067   7.955
 7461POPC   C4B26374  21.492  27.052   7.655
 7462POPC   NC326375  12.081  19.856   9.455
 7462POPC   PO426376  12.068  19.787   9.155
 7462POPC   GL126377  12.064  19.819   8.855
 7462POPC   GL226378  11.941  19.819   8.855
 7462POPC   C1A26379  12.063  19.808   8.555
 7462POPC   D2A26380  12.069  19.789   8.255
 7462POPC   C3A26381  12.086  19.823   7.955
 7462POPC   C4A26382  12.033  19.859   7.655
 7462POPC   C1B26383  11.790  19.875   8.555
 7462POPC   C2B26384  11.808  19.938   8.255
 7462POPC   C3B26385  11.878  19.946   7.955
 7462POPC   C4B26386  11.844  19.935   7.655
 7463POPC   NC326387  31.513  14.393   9.455
 7463POPC   PO426388  31.473  14.403   9.155
 7463POPC   GL126389  31.444  14.453   8.855
 7463POPC   GL226390  31.324  14.508   8.855
 7463POPC   C1A26391  31.469  14.424   8.555
 7463POPC   D2A26392  31.467  14.398   8.255
 7463POPC   C3A26393  31.443  14.394   7.955
 7463POPC   C4A26394  31.467  14.387   7.655
 7463POPC   C1B26395  31.226  14.509   8.555
 7463POPC   C2B26396  31.237  14.509   8.255
 7463POPC   C3B26397  31.223  14.508   7.955
 7463POPC   C4B26398  31.302  14.519   7.655
 7464POPC   NC326399   1.172  36.911   9.455
 7464POPC   PO426400   1.169  36.948   9.155
 7464POPC   GL126401   1.186  36.885   8.855
 7464POPC   GL226402   1.103  36.887   8.855
 7464POPC   C1A26403   1.192  36.946   8.555
 7464POPC   D2A26404   1.240  36.877   8.255
 7464POPC   C3A26405   1.204  36.924   7.955
 7464POPC   C4A26406   1.248  36.896   7.655
 7464POPC   C1B26407   0.970  36.921   8.555
 7464POPC   C2B26408   0.940  36.882   8.255
 7464POPC   C3B26409   0.965  36.912   7.955
 7464POPC   C4B26410   0.928  36.962   7.655
 7465POPC   NC326411  26.002  15.951   9.455
 7465POPC   PO426412  26.080  15.946   9.155
 7465POPC   GL126413  26.078  15.974   8.855
 7465POPC   GL226414  25.975  15.812   8.855
 7465POPC   C1A26415  26.087  15.974   8.555
 7465POPC   D2A26416  26.006  16.002   8.255
 7465POPC   C3A26417  26.055  15.941   7.955
 7465POPC   C4A26418  26.016  15.992   7.655
 7465POPC   C1B26419  26.009  15.671   8.555
 7465POPC   C2B26420  25.955  15.663   8.255
 7465POPC   C3B26421  26.034  15.762   7.955
 7465POPC   C4B26422  26.005  15.728   7.655
 7466POPC   NC326423  30.649  40.828   9.455
 7466POPC   PO426424  30.653  40.748   9.155
 7466POPC   GL126425  30.658  40.757   8.855
 7466POPC   GL226426  30.838  40.750   8.855
 7466POPC   C1A26427  30.731  40.751   8.555
 7466POPC   D2A26428  30.704  40.771   8.255
 7466POPC   C3A26429  30.658  40.745   7.955
 7466POPC   C4A26430  30.670  40.818   7.655
 7466POPC   C1B26431  30.920  40.679   8.555
 7466POPC   C2B26432  30.962  40.678   8.255
 7466POPC   C3B26433  30.922  40.706   7.955
 7466POPC   C4B26434  30.930  40.720   7.655
 7467POPC   NC326435  15.977  22.157   9.455
 7467POPC   PO426436  15.982  22.130   9.155
 7467POPC   GL126437  15.992  22.207   8.855
 7467POPC   GL226438  16.073  22.234   8.855
 7467POPC   C1A26439  15.945  22.173   8.555
 7467POPC   D2A26440  15.995  22.187   8.255
 7467POPC   C3A26441  15.991  22.186   7.955
 7467POPC   C4A26442  15.952  22.157   7.655
 7467POPC   C1B26443  16.249  22.178   8.555
 7467POPC   C2B26444  16.242  22.202   8.255
 7467POPC   C3B26445  16.201  22.178   7.955
 7467POPC   C4B26446  16.236  22.216   7.655
 7468POPC   NC326447  26.048  12.106   9.455
 7468POPC   PO426448  26.037  12.096   9.155
 7468POPC   GL126449  26.045  12.117   8.855
 7468POPC   GL226450  25.936  12.022   8.855
 7468POPC   C1A26451  26.070  12.058   8.555
 7468POPC   D2A26452  26.087  12.123   8.255
 7468POPC   C3A26453  26.088  12.040   7.955
 7468POPC   C4A26454  26.035  12.072   7.655
 7468POPC   C1B26455  25.813  12.067   8.555
 7468POPC   C2B26456  25.781  12.083   8.255
 7468POPC   C3B26457  25.823  12.011   7.955
 7468POPC   C4B26458  25.806  12.005   7.655
 7469POPC   NC326459  27.570  22.960   9.455
 7469POPC   PO426460  27.627  22.975   9.155
 7469POPC   GL126461  27.620  22.893   8.855
 7469POPC   GL226462  27.534  22.855   8.855
 7469POPC   C1A26463  27.581  22.895   8.555
 7469POPC   D2A26464  27.555  22.986   8.255
 7469POPC   C3A26465  27.614  22.954   7.955
 7469POPC   C4A26466  27.574  22.905   7.655
 7469POPC   C1B26467  27.476  22.712   8.555
 7469POPC   C2B26468  27.491  22.713   8.255
 7469POPC   C3B26469  27.566  22.716   7.955
 7469POPC   C4B26470  27.530  22.728   7.655
 7470POPC   NC326471  23.713   9.018   9.455
 7470POPC   PO426472  23.708   9.002   9.155
 7470POPC   GL126473  23.715   8.983   8.855
 7470POPC   GL226474  23.795   9.094   8.855
 7470POPC   C1A26475  23.664   8.926   8.555
 7470POPC   D2A26476  23.677   8.994   8.255
 7470POPC   C3A26477  23.714   9.015   7.955
 7470POPC   C4A26478  23.665   8.931   7.655
 7470POPC   C1B26479  23.891   9.148   8.555
 7470POPC   C2B26480  23.900   9.109   8.255
 7470POPC   C3B26481  23.948   9.163   7.955
 7470POPC   C4B26482  23.962   9.168   7.655
 7471POPC   NC326483  11.341  23.677   9.455
 7471POPC   PO426484  11.264  23.675   9.155
 7471POPC   GL126485  11.330  23.732   8.855
 7471POPC   GL226486  11.375  23.696   8.855
 7471POPC   C1A26487  11.274  23.760   8.555
 7471POPC   D2A26488  11.309  23.684   8.255
 7471POPC   C3A26489  11.322  23.744   7.955
 7471POPC   C4A26490  11.346  23.713   7.655
 7471POPC   C1B26491  11.567  23.705   8.555
 7471POPC   C2B26492  11.578  23.651   8.255
 7471POPC   C3B26493  11.533  23.702   7.955
 7471POPC   C4B26494  11.588  23.651   7.655
 7472POPC   NC326495   5.069  26.065   9.455
 7472POPC   PO426496   5.104  26.081   9.155
 7472POPC   GL126497   5.142  26.000   8.855
 7472POPC   GL226498   5.042  26.133   8.855
 7472POPC   C1A26499   5.060  26.050   8.555
 7472POPC   D2A26500   5.063  25.993   8.255
 7472POPC   C3A26501   5.065  26.077   7.955
 7472POPC   C4A26502   5.065  26.001   7.655
 7472POPC   C1B26503   5.033  26.294   8.555
 7472POPC   C2B26504   5.060  26.280   8.255
 7472POPC   C3B26505   5.003  26.329   7.955
 7472POPC   C4B26506   5.037  26.325   7.655
 7473POPC   NC326507  29.914  42.301   9.455
 7473POPC   PO426508  29.883  42.375   9.155
 7473POPC   GL126509  29.871  42.372   8.855
 7473POPC   GL226510  29.999  42.283   8.855
 7473POPC   C1A26511  29.966  42.289   8.555
 7473POPC   D2A26512  29.964  42.324   8.255
 7473POPC   C3A26513  29.946  42.365   7.955
 7473POPC   C4A26514  29.948  42.345   7.655
 7473POPC   C1B26515  30.149  42.222   8.555
 7473POPC   C2B26516  30.162  42.246   8.255
 7473POPC   C3B26517  30.149  42.315   7.955
 7473POPC   C4B26518  30.201  42.246   7.655
 7474POPC   NC326519   5.087  22.179   9.455
 7474POPC   PO426520   5.099  22.195   9.155
 7474POPC   GL126521   5.131  22.168   8.855
 7474POPC   GL226522   5.079  22.063   8.855
 7474POPC   C1A26523   5.138  22.139   8.555
 7474POPC   D2A26524   5.124  22.192   8.255
 7474POPC   C3A26525   5.051  22.168   7.955
 7474POPC   C4A26526   5.125  22.149   7.655
 7474POPC   C1B26527   4.952  21.943   8.555
 7474POPC   C2B26528   4.977  21.916   8.255
 7474POPC   C3B26529   4.949  21.944   7.955
 7474POPC   C4B26530   4.972  21.892   7.655
 7475POPC   NC326531  22.200  24.503   9.455
 7475POPC   PO426532  22.135  24.535   9.155
 7475POPC   GL126533  22.131  24.449   8.855
 7475POPC   GL226534  21.997  24.499   8.855
 7475POPC   C1A26535  22.212  24.462   8.555
 7475POPC   D2A26536  22.193  24.520   8.255
 7475POPC   C3A26537  22.147  24.441   7.955
 7475POPC   C4A26538  22.166  24.517   7.655
 7475POPC   C1B26539  21.933  24.426   8.555
 7475POPC   C2B26540  21.939  24.460   8.255
 7475POPC   C3B26541  21.871  24.490   7.955
 7475POPC   C4B26542  21.938  24.466   7.655
 7476POPC   NC326543  20.632   9.776   9.455
 7476POPC   PO426544  20.606   9.702   9.155
 7476POPC   GL126545  20.625   9.781   8.855
 7476POPC   GL226546  20.721   9.797   8.855
 7476POPC   C1A26547  20.589   9.750   8.555
 7476POPC   D2A26548  20.627   9.776   8.255
 7476POPC   C3A26549  20.575   9.746   7.955
 7476POPC   C4A26550  20.571   9.714   7.655
 7476POPC   C1B26551  20.830   9.941   8.555
 7476POPC   C2B26552  20.816   9.858   8.255
 7476POPC   C3B26553  20.769   9.928   7.955
 7476POPC   C4B26554  20.837   9.894   7.655
 7477POPC   NC326555  31.438  32.241   9.455
 7477POPC   PO426556  31.492  32.288   9.155
 7477POPC   GL126557  31.467  32.212   8.855
 7477POPC   GL226558  31.384  32.224   8.855
 7477POPC   C1A26559  31.487  32.234   8.555
 7477POPC   D2A26560  31.499  32.253   8.255
 7477POPC   C3A26561  31.502  32.283   7.955
 7477POPC   C4A26562  31.456  32.264   7.655
 7477POPC   C1B26563  31.198  32.178   8.555
 7477POPC   C2B26564  31.243  32.218   8.255
 7477POPC   C3B26565  31.245  32.233   7.955
 7477POPC   C4B26566  31.278  32.196   7.655
 7478POPC   NC326567   8.946  32.233   9.455
 7478POPC   PO426568   9.000  32.222   9.155
 7478POPC   GL126569   8.973  32.288   8.855
 7478POPC   GL226570   9.032  32.394   8.855
 7478POPC   C1A26571   8.977  32.230   8.555
 7478POPC   D2A26572   8.953  32.280   8.255
 7478POPC   C3A26573   8.985  32.222   7.955
 7478POPC   C4A26574   8.933  32.237   7.655
 7478POPC   C1B26575   9.167  32.480   8.555
 7478POPC   C2B26576   9.125  32.417   8.255
 7478POPC   C3B26577   9.162  32.406   7.955
 7478POPC   C4B26578   9.158  32.450   7.655
 7479POPC   NC326579   7.439   0.407   9.455
 7479POPC   PO426580   7.431   0.483   9.155
 7479POPC   GL126581   7.375   0.423   8.855
 7479POPC   GL226582   7.393   0.583   8.855
 7479POPC   C1A26583   7.408   0.445   8.555
 7479POPC   D2A26584   7.432   0.397   8.255
 7479POPC   C3A26585   7.450   0.407   7.955
 7479POPC   C4A26586   7.426   0.439   7.655
 7479POPC   C1B26587   7.381   0.695   8.555
 7479POPC   C2B26588   7.420   0.674   8.255
 7479POPC   C3B26589   7.407   0.672   7.955
 7479POPC   C4B26590   7.367   0.673   7.655
 7480POPC   NC326591  17.481   2.007   9.455
 7480POPC   PO426592  17.555   1.998   9.155
 7480POPC   GL126593  17.463   2.038   8.855
 7480POPC   GL226594  17.546   2.069   8.855
 7480POPC   C1A26595  17.459   1.943   8.555
 7480POPC   D2A26596  17.494   1.991   8.255
 7480POPC   C3A26597  17.460   1.998   7.955
 7480POPC   C4A26598  17.547   1.997   7.655
 7480POPC   C1B26599  17.666   2.161   8.555
 7480POPC   C2B26600  17.630   2.200   8.255
 7480POPC   C3B26601  17.657   2.160   7.955
 7480POPC   C4B26602  17.647   2.220   7.655
 7481POPC   NC326603  30.736  42.383   9.455
 7481POPC   PO426604  30.706  42.376   9.155
 7481POPC   GL126605  30.705  42.355   8.855
 7481POPC   GL226606  30.534  42.315   8.855
 7481POPC   C1A26607  30.664  42.328   8.555
 7481POPC   D2A26608  30.675  42.315   8.255
 7481POPC   C3A26609  30.746  42.360   7.955
 7481POPC   C4A26610  30.662  42.328   7.655
 7481POPC   C1B26611  30.468  42.344   8.555
 7481POPC   C2B26612  30.409  42.301   8.255
 7481POPC   C3B26613  30.485  42.317   7.955
 7481POPC   C4B26614  30.402  42.337   7.655
 7482POPC   NC326615  40.745  12.900   9.455
 7482POPC   PO426616  40.751  12.819   9.155
 7482POPC   GL126617  40.794  12.886   8.855
 7482POPC   GL226618  40.929  12.843   8.855
 7482POPC   C1A26619  40.759  12.843   8.555
 7482POPC   D2A26620  40.763  12.845   8.255
 7482POPC   C3A26621  40.754  12.893   7.955
 7482POPC   C4A26622  40.832  12.890   7.655
 7482POPC   C1B26623  41.024  12.804   8.555
 7482POPC   C2B26624  41.001  12.780   8.255
 7482POPC   C3B26625  41.013  12.816   7.955
 7482POPC   C4B26626  40.985  12.859   7.655
 7483POPC   NC326627   9.731  34.559   9.455
 7483POPC   PO426628   9.777  34.572   9.155
 7483POPC   GL126629   9.736  34.600   8.855
 7483POPC   GL226630   9.619  34.562   8.855
 7483POPC   C1A26631   9.737  34.591   8.555
 7483POPC   D2A26632   9.701  34.597   8.255
 7483POPC   C3A26633   9.705  34.578   7.955
 7483POPC   C4A26634   9.709  34.589   7.655
 7483POPC   C1B26635   9.510  34.520   8.555
 7483POPC   C2B26636   9.485  34.514   8.255
 7483POPC   C3B26637   9.474  34.426   7.955
 7483POPC   C4B26638   9.538  34.486   7.655
 7484POPC   NC326639  23.703  25.992   9.455
 7484POPC   PO426640  23.675  25.998   9.155
 7484POPC   GL126641  23.664  26.031   8.855
 7484POPC   GL226642  23.616  25.990   8.855
 7484POPC   C1A26643  23.755  26.043   8.555
 7484POPC   D2A26644  23.744  26.060   8.255
 7484POPC   C3A26645  23.724  26.056   7.955
 7484POPC   C4A26646  23.673  26.014   7.655
 7484POPC   C1B26647  23.509  26.073   8.555
 7484POPC   C2B26648  23.453  26.019   8.255
 7484POPC   C3B26649  23.433  26.065   7.955
 7484POPC   C4B26650  23.496  25.987   7.655
 7485POPC   NC326651  38.463  14.434   9.455
 7485POPC   PO426652  38.442  14.357   9.155
 7485POPC   GL126653  38.432  14.418   8.855
 7485POPC   GL226654  38.439  14.287   8.855
 7485POPC   C1A26655  38.454  14.380   8.555
 7485POPC   D2A26656  38.447  14.362   8.255
 7485POPC   C3A26657  38.409  14.393   7.955
 7485POPC   C4A26658  38.423  14.439   7.655
 7485POPC   C1B26659  38.517  14.110   8.555
 7485POPC   C2B26660  38.491  14.120   8.255
 7485POPC   C3B26661  38.489  14.116   7.955
 7485POPC   C4B26662  38.526  14.193   7.655
 7486POPC   NC326663  15.197   1.261   9.455
 7486POPC   PO426664  15.163   1.243   9.155
 7486POPC   GL126665  15.215   1.219   8.855
 7486POPC   GL226666  15.260   1.265   8.855
 7486POPC   C1A26667  15.180   1.183   8.555
 7486POPC   D2A26668  15.160   1.172   8.255
 7486POPC   C3A26669  15.132   1.213   7.955
 7486POPC   C4A26670  15.196   1.165   7.655
 7486POPC   C1B26671  15.450   1.308   8.555
 7486POPC   C2B26672  15.426   1.312   8.255
 7486POPC   C3B26673  15.383   1.251   7.955
 7486POPC   C4B26674  15.405   1.322   7.655
 7487POPC   NC326675  33.016  32.217   9.455
 7487POPC   PO426676  33.056  32.279   9.155
 7487POPC   GL126677  33.002  32.276   8.855
 7487POPC   GL226678  33.157  32.352   8.855
 7487POPC   C1A26679  33.008  32.261   8.555
 7487POPC   D2A26680  33.037  32.241   8.255
 7487POPC   C3A26681  32.988  32.283   7.955
 7487POPC   C4A26682  32.981  32.281   7.655
 7487POPC   C1B26683  33.214  32.322   8.555
 7487POPC   C2B26684  33.256  32.408   8.255
 7487POPC   C3B26685  33.272  32.319   7.955
 7487POPC   C4B26686  33.223  32.402   7.655
 7488POPC   NC326687  22.202   6.636   9.455
 7488POPC   PO426688  22.140   6.610   9.155
 7488POPC   GL126689  22.171   6.669   8.855
 7488POPC   GL226690  22.085   6.636   8.855
 7488POPC   C1A26691  22.133   6.675   8.555
 7488POPC   D2A26692  22.115   6.664   8.255
 7488POPC   C3A26693  22.113   6.612   7.955
 7488POPC   C4A26694  22.162   6.653   7.655
 7488POPC   C1B26695  21.961   6.554   8.555
 7488POPC   C2B26696  21.904   6.566   8.255
 7488POPC   C3B26697  21.909   6.538   7.955
 7488POPC   C4B26698  21.902   6.535   7.655
 7489POPC   NC326699   4.359  35.398   9.455
 7489POPC   PO426700   4.297  35.386   9.155
 7489POPC   GL126701   4.293  35.314   8.855
 7489POPC   GL226702   4.186  35.355   8.855
 7489POPC   C1A26703   4.269  35.355   8.555
 7489POPC   D2A26704   4.305  35.370   8.255
 7489POPC   C3A26705   4.349  35.312   7.955
 7489POPC   C4A26706   4.285  35.314   7.655
 7489POPC   C1B26707   4.080  35.390   8.555
 7489POPC   C2B26708   4.087  35.360   8.255
 7489POPC   C3B26709   4.097  35.346   7.955
 7489POPC   C4B26710   4.078  35.425   7.655
 7490POPC   NC326711   7.456  36.876   9.455
 7490POPC   PO426712   7.373  36.886   9.155
 7490POPC   GL126713   7.391  36.915   8.855
 7490POPC   GL226714   7.491  36.840   8.855
 7490POPC   C1A26715   7.403  36.858   8.555
 7490POPC   D2A26716   7.407  36.893   8.255
 7490POPC   C3A26717   7.410  36.921   7.955
 7490POPC   C4A26718   7.375  36.922   7.655
 7490POPC   C1B26719   7.580  36.709   8.555
 7490POPC   C2B26720   7.622  36.709   8.255
 7490POPC   C3B26721   7.579  36.751   7.955
 7490POPC   C4B26722   7.551  36.693   7.655
 7491POPC   NC326723  25.222  43.118   9.455
 7491POPC   PO426724  25.271  43.109   9.155
 7491POPC   GL126725  25.259  43.092   8.855
 7491POPC   GL226726  25.112  43.170   8.855
 7491POPC   C1A26727  25.249  43.064   8.555
 7491POPC   D2A26728  25.291  43.085   8.255
 7491POPC   C3A26729  25.217  43.065   7.955
 7491POPC   C4A26730  25.245  43.095   7.655
 7491POPC   C1B26731  25.038  43.219   8.555
 7491POPC   C2B26732  25.036  43.158   8.255
 7491POPC   C3B26733  25.038  43.172   7.955
 7491POPC   C4B26734  25.011  43.180   7.655
 7492POPC   NC326735  35.329  28.368   9.455
 7492POPC   PO426736  35.371  28.416   9.155
 7492POPC   GL126737  35.370  28.350   8.855
 7492POPC   GL226738  35.273  28.383   8.855
 7492POPC   C1A26739  35.316  28.388   8.555
 7492POPC   D2A26740  35.333  28.414   8.255
 7492POPC   C3A26741  35.336  28.377   7.955
 7492POPC   C4A26742  35.306  28.320   7.655
 7492POPC   C1B26743  35.125  28.358   8.555
 7492POPC   C2B26744  35.145  28.400   8.255
 7492POPC   C3B26745  35.106  28.372   7.955
 7492POPC   C4B26746  35.118  28.373   7.655
 7493POPC   NC326747  39.242  19.070   9.455
 7493POPC   PO426748  39.206  19.009   9.155
 7493POPC   GL126749  39.208  19.090   8.855
 7493POPC   GL226750  39.161  19.123   8.855
 7493POPC   C1A26751  39.212  19.062   8.555
 7493POPC   D2A26752  39.182  19.033   8.255
 7493POPC   C3A26753  39.274  19.009   7.955
 7493POPC   C4A26754  39.275  19.048   7.655
 7493POPC   C1B26755  38.963  19.102   8.555
 7493POPC   C2B26756  38.958  19.135   8.255
 7493POPC   C3B26757  38.981  19.158   7.955
 7493POPC   C4B26758  39.033  19.122   7.655
 7494POPC   NC326759  33.036  40.755   9.455
 7494POPC   PO426760  33.045  40.810   9.155
 7494POPC   GL126761  33.063  40.827   8.855
 7494POPC   GL226762  33.092  40.898   8.855
 7494POPC   C1A26763  32.978  40.738   8.555
 7494POPC   D2A26764  32.990  40.826   8.255
 7494POPC   C3A26765  32.988  40.802   7.955
 7494POPC   C4A26766  33.046  40.749   7.655
 7494POPC   C1B26767  33.174  40.960   8.555
 7494POPC   C2B26768  33.189  40.981   8.255
 7494POPC   C3B26769  33.141  41.005   7.955
 7494POPC   C4B26770  33.183  40.938   7.655
 7495POPC   NC326771  43.839  12.084   9.455
 7495POPC   PO426772  43.858  12.059   9.155
 7495POPC   GL126773  43.847  12.111   8.855
 7495POPC   GL226774  43.986  11.918   8.855
 7495POPC   C1A26775  43.854  12.075   8.555
 7495POPC   D2A26776  43.849  12.030   8.255
 7495POPC   C3A26777  43.915  12.071   7.955
 7495POPC   C4A26778  43.882  12.116   7.655
 7495POPC   C1B26779  43.998  11.904   8.555
 7495POPC   C2B26780  44.011  11.879   8.255
 7495POPC   C3B26781  43.974  11.818   7.955
 7495POPC   C4B26782  44.025  11.820   7.655
 7496POPC   NC326783  36.117   3.590   9.455
 7496POPC   PO426784  36.118   3.493   9.155
 7496POPC   GL126785  36.126   3.583   8.855
 7496POPC   GL226786  36.268   3.594   8.855
 7496POPC   C1A26787  36.161   3.526   8.555
 7496POPC   D2A26788  36.106   3.512   8.255
 7496POPC   C3A26789  36.115   3.536   7.955
 7496POPC   C4A26790  36.081   3.498   7.655
 7496POPC   C1B26791  36.355   3.643   8.555
 7496POPC   C2B26792  36.318   3.675   8.255
 7496POPC   C3B26793  36.356   3.649   7.955
 7496POPC   C4B26794  36.346   3.654   7.655
 7497POPC   NC326795   3.552  15.228   9.455
 7497POPC   PO426796   3.553  15.133   9.155
 7497POPC   GL126797   3.527  15.187   8.855
 7497POPC   GL226798   3.383  15.213   8.855
 7497POPC   C1A26799   3.500  15.186   8.555
 7497POPC   D2A26800   3.526  15.172   8.255
 7497POPC   C3A26801   3.552  15.174   7.955
 7497POPC   C4A26802   3.513  15.143   7.655
 7497POPC   C1B26803   3.346  15.297   8.555
 7497POPC   C2B26804   3.334  15.308   8.255
 7497POPC   C3B26805   3.280  15.246   7.955
 7497POPC   C4B26806   3.327  15.241   7.655
 7498POPC   NC326807  33.819   4.304   9.455
 7498POPC   PO426808  33.818   4.280   9.155
 7498POPC   GL126809  33.822   4.284   8.855
 7498POPC   GL226810  33.874   4.234   8.855
 7498POPC   C1A26811  33.839   4.284   8.555
 7498POPC   D2A26812  33.848   4.344   8.255
 7498POPC   C3A26813  33.781   4.352   7.955
 7498POPC   C4A26814  33.782   4.351   7.655
 7498POPC   C1B26815  33.927   4.101   8.555
 7498POPC   C2B26816  33.935   4.155   8.255
 7498POPC   C3B26817  33.996   4.130   7.955
 7498POPC   C4B26818  33.944   4.167   7.655
 7499POPC   NC326819  32.276   0.477   9.455
 7499POPC   PO426820  32.239   0.479   9.155
 7499POPC   GL126821  32.223   0.485   8.855
 7499POPC   GL226822  32.125   0.494   8.855
 7499POPC   C1A26823  32.235   0.484   8.555
 7499POPC   D2A26824  32.293   0.434   8.255
 7499POPC   C3A26825  32.207   0.419   7.955
 7499POPC   C4A26826  32.292   0.400   7.655
 7499POPC   C1B26827  31.983   0.556   8.555
 7499POPC   C2B26828  31.981   0.517   8.255
 7499POPC   C3B26829  32.075   0.564   7.955
 7499POPC   C4B26830  32.062   0.510   7.655
 7500POPC   NC326831   2.778  40.024   9.455
 7500POPC   PO426832   2.731  39.994   9.155
 7500POPC   GL126833   2.811  40.049   8.855
 7500POPC   GL226834   2.889  39.973   8.855
 7500POPC   C1A26835   2.760  40.023   8.555
 7500POPC   D2A26836   2.743  40.011   8.255
 7500POPC   C3A26837   2.736  40.004   7.955
 7500POPC   C4A26838   2.758  40.053   7.655
 7500POPC   C1B26839   3.003  39.981   8.555
 7500POPC   C2B26840   2.965  40.009   8.255
 7500POPC   C3B26841   2.968  40.066   7.955
 7500POPC   C4B26842   3.009  40.027   7.655
 7501POPC   NC326843  16.779  11.336   9.455
 7501POPC   PO426844  16.713  11.305   9.155
 7501POPC   GL126845  16.704  11.277   8.855
 7501POPC   GL226846  16.802  11.308   8.855
 7501POPC   C1A26847  16.685  11.276   8.555
 7501POPC   D2A26848  16.764  11.257   8.255
 7501POPC   C3A26849  16.725  11.343   7.955
 7501POPC   C4A26850  16.698  11.276   7.655
 7501POPC   C1B26851  16.924  11.193   8.555
 7501POPC   C2B26852  16.928  11.181   8.255
 7501POPC   C3B26853  17.008  11.251   7.955
 7501POPC   C4B26854  16.962  11.186   7.655
 7502POPC   NC326855  24.525  43.076   9.455
 7502POPC   PO426856  24.453  43.128   9.155
 7502POPC   GL126857  24.495  43.111   8.855
 7502POPC   GL226858  24.581  43.111   8.855
 7502POPC   C1A26859  24.463  43.093   8.555
 7502POPC   D2A26860  24.515  43.132   8.255
 7502POPC   C3A26861  24.538  43.080   7.955
 7502POPC   C4A26862  24.499  43.158   7.655
 7502POPC   C1B26863  24.769  43.140   8.555
 7502POPC   C2B26864  24.692  43.131   8.255
 7502POPC   C3B26865  24.719  43.172   7.955
 7502POPC   C4B26866  24.746  43.152   7.655
 7503POPC   NC326867  41.516  29.889   9.455
 7503POPC   PO426868  41.525  29.906   9.155
 7503POPC   GL126869  41.592  29.881   8.855
 7503POPC   GL226870  41.470  30.060   8.855
 7503POPC   C1A26871  41.529  29.930   8.555
 7503POPC   D2A26872  41.521  29.950   8.255
 7503POPC   C3A26873  41.520  29.928   7.955
 7503POPC   C4A26874  41.592  29.951   7.655
 7503POPC   C1B26875  41.480  30.168   8.555
 7503POPC   C2B26876  41.454  30.109   8.255
 7503POPC   C3B26877  41.394  30.118   7.955
 7503POPC   C4B26878  41.408  30.127   7.655
 7504POPC   NC326879  23.732  39.259   9.455
 7504POPC   PO426880  23.764  39.197   9.155
 7504POPC   GL126881  23.673  39.233   8.855
 7504POPC   GL226882  23.677  39.177   8.855
 7504POPC   C1A26883  23.743  39.265   8.555
 7504POPC   D2A26884  23.764  39.279   8.255
 7504POPC   C3A26885  23.686  39.189   7.955
 7504POPC   C4A26886  23.692  39.259   7.655
 7504POPC   C1B26887  23.577  39.058   8.555
 7504POPC   C2B26888  23.558  38.988   8.255
 7504POPC   C3B26889  23.543  39.024   7.955
 7504POPC   C4B26890  23.573  38.993   7.655
 7505POPC   NC326891  14.443  22.146   9.455
 7505POPC   PO426892  14.432  22.174   9.155
 7505POPC   GL126893  14.390  22.134   8.855
 7505POPC   GL226894  14.421  22.030   8.855
 7505POPC   C1A26895  14.434  22.200   8.555
 7505POPC   D2A26896  14.415  22.147   8.255
 7505POPC   C3A26897  14.362  22.157   7.955
 7505POPC   C4A26898  14.425  22.198   7.655
 7505POPC   C1B26899  14.487  21.959   8.555
 7505POPC   C2B26900  14.530  21.908   8.255
 7505POPC   C3B26901  14.495  21.910   7.955
 7505POPC   C4B26902  14.498  21.964   7.655
 7506POPC   NC326903  36.946   1.178   9.455
 7506POPC   PO426904  36.930   1.184   9.155
 7506POPC   GL126905  36.953   1.255   8.855
 7506POPC   GL226906  36.891   1.340   8.855
 7506POPC   C1A26907  36.899   1.210   8.555
 7506POPC   D2A26908  36.877   1.189   8.255
 7506POPC   C3A26909  36.924   1.213   7.955
 7506POPC   C4A26910  36.904   1.261   7.655
 7506POPC   C1B26911  36.980   1.411   8.555
 7506POPC   C2B26912  36.989   1.441   8.255
 7506POPC   C3B26913  36.947   1.484   7.955
 7506POPC   C4B26914  36.953   1.456   7.655
 7507POPC   NC326915   5.827  31.424   9.455
 7507POPC   PO426916   5.864  31.424   9.155
 7507POPC   GL126917   5.853  31.435   8.855
 7507POPC   GL226918   5.821  31.333   8.855
 7507POPC   C1A26919   5.821  31.460   8.555
 7507POPC   D2A26920   5.899  31.472   8.255
 7507POPC   C3A26921   5.838  31.444   7.955
 7507POPC   C4A26922   5.840  31.519   7.655
 7507POPC   C1B26923   5.911  31.265   8.555
 7507POPC   C2B26924   5.894  31.192   8.255
 7507POPC   C3B26925   5.873  31.240   7.955
 7507POPC   C4B26926   5.823  31.248   7.655
 7508POPC   NC326927  38.429  23.685   9.455
 7508POPC   PO426928  38.450  23.727   9.155
 7508POPC   GL126929  38.444  23.757   8.855
 7508POPC   GL226930  38.432  23.606   8.855
 7508POPC   C1A26931  38.482  23.750   8.555
 7508POPC   D2A26932  38.449  23.681   8.255
 7508POPC   C3A26933  38.420  23.721   7.955
 7508POPC   C4A26934  38.424  23.692   7.655
 7508POPC   C1B26935  38.461  23.443   8.555
 7508POPC   C2B26936  38.490  23.421   8.255
 7508POPC   C3B26937  38.501  23.484   7.955
 7508POPC   C4B26938  38.479  23.435   7.655
 7509POPC   NC326939  33.016  18.267   9.455
 7509POPC   PO426940  33.026  18.323   9.155
 7509POPC   GL126941  33.041  18.239   8.855
 7509POPC   GL226942  33.134  18.318   8.855
 7509POPC   C1A26943  33.024  18.256   8.555
 7509POPC   D2A26944  33.035  18.243   8.255
 7509POPC   C3A26945  33.036  18.330   7.955
 7509POPC   C4A26946  33.000  18.307   7.655
 7509POPC   C1B26947  33.246  18.454   8.555
 7509POPC   C2B26948  33.226  18.427   8.255
 7509POPC   C3B26949  33.189  18.449   7.955
 7509POPC   C4B26950  33.275  18.394   7.655
 7510POPC   NC326951   3.569  23.710   9.455
 7510POPC   PO426952   3.519  23.691   9.155
 7510POPC   GL126953   3.541  23.731   8.855
 7510POPC   GL226954   3.489  23.864   8.855
 7510POPC   C1A26955   3.579  23.694   8.555
 7510POPC   D2A26956   3.513  23.682   8.255
 7510POPC   C3A26957   3.498  23.748   7.955
 7510POPC   C4A26958   3.587  23.738   7.655
 7510POPC   C1B26959   3.517  23.922   8.555
 7510POPC   C2B26960   3.516  24.008   8.255
 7510POPC   C3B26961   3.467  24.009   7.955
 7510POPC   C4B26962   3.545  24.001   7.655
 7511POPC   NC326963  15.966  19.850   9.455
 7511POPC   PO426964  15.934  19.800   9.155
 7511POPC   GL126965  15.946  19.806   8.855
 7511POPC   GL226966  16.007  19.964   8.855
 7511POPC   C1A26967  15.980  19.807   8.555
 7511POPC   D2A26968  15.957  19.790   8.255
 7511POPC   C3A26969  15.974  19.829   7.955
 7511POPC   C4A26970  15.913  19.844   7.655
 7511POPC   C1B26971  15.912  20.050   8.555
 7511POPC   C2B26972  15.954  20.037   8.255
 7511POPC   C3B26973  15.958  20.110   7.955
 7511POPC   C4B26974  15.995  20.098   7.655
 7512POPC   NC326975  13.667  33.001   9.455
 7512POPC   PO426976  13.636  32.996   9.155
 7512POPC   GL126977  13.593  33.001   8.855
 7512POPC   GL226978  13.575  32.953   8.855
 7512POPC   C1A26979  13.628  32.982   8.555
 7512POPC   D2A26980  13.596  33.044   8.255
 7512POPC   C3A26981  13.673  32.977   7.955
 7512POPC   C4A26982  13.649  32.984   7.655
 7512POPC   C1B26983  13.510  32.793   8.555
 7512POPC   C2B26984  13.538  32.836   8.255
 7512POPC   C3B26985  13.491  32.808   7.955
 7512POPC   C4B26986  13.560  32.819   7.655
 7513POPC   NC326987  12.101  25.314   9.455
 7513POPC   PO426988  12.102  25.230   9.155
 7513POPC   GL126989  12.092  25.261   8.855
 7513POPC   GL226990  12.221  25.250   8.855
 7513POPC   C1A26991  12.118  25.286   8.555
 7513POPC   D2A26992  12.121  25.280   8.255
 7513POPC   C3A26993  12.082  25.260   7.955
 7513POPC   C4A26994  12.108  25.261   7.655
 7513POPC   C1B26995  12.319  25.346   8.555
 7513POPC   C2B26996  12.301  25.340   8.255
 7513POPC   C3B26997  12.312  25.335   7.955
 7513POPC   C4B26998  12.293  25.347   7.655
 7514POPC   NC326999  29.875  29.115   9.455
 7514POPC   PO427000  29.899  29.184   9.155
 7514POPC   GL127001  29.874  29.118   8.855
 7514POPC   GL227002  30.021  29.130   8.855
 7514POPC   C1A27003  29.891  29.193   8.555
 7514POPC   D2A27004  29.908  29.161   8.255
 7514POPC   C3A27005  29.906  29.165   7.955
 7514POPC   C4A27006  29.924  29.176   7.655
 7514POPC   C1B27007  30.154  29.151   8.555
 7514POPC   C2B27008  30.148  29.082   8.255
 7514POPC   C3B27009  30.135  29.154   7.955
 7514POPC   C4B27010  30.121  29.088   7.655
 7515POPC   NC327011  19.808  33.045   9.455
 7515POPC   PO427012  19.850  33.024   9.155
 7515POPC   GL127013  19.791  32.989   8.855
 7515POPC   GL227014  19.913  33.068   8.855
 7515POPC   C1A27015  19.827  33.062   8.555
 7515POPC   D2A27016  19.793  33.016   8.255
 7515POPC   C3A27017  19.844  33.041   7.955
 7515POPC   C4A27018  19.804  33.037   7.655
 7515POPC   C1B27019  20.090  33.180   8.555
 7515POPC   C2B27020  20.095  33.096   8.255
 7515POPC   C3B27021  20.064  33.186   7.955
 7515POPC   C4B27022  20.022  33.095   7.655
 7516POPC   NC327023  15.958  36.933   9.455
 7516POPC   PO427024  15.912  36.933   9.155
 7516POPC   GL127025  15.987  36.923   8.855
 7516POPC   GL227026  16.089  36.934   8.855
 7516POPC   C1A27027  15.907  36.950   8.555
 7516POPC   D2A27028  15.946  36.871   8.255
 7516POPC   C3A27029  15.939  36.940   7.955
 7516POPC   C4A27030  15.949  36.917   7.655
 7516POPC   C1B27031  16.176  37.006   8.555
 7516POPC   C2B27032  16.162  36.964   8.255
 7516POPC   C3B27033  16.172  37.044   7.955
 7516POPC   C4B27034  16.167  37.021   7.655
 7517POPC   NC327035  19.869   2.782   9.455
 7517POPC   PO427036  19.865   2.737   9.155
 7517POPC   GL127037  19.848   2.756   8.855
 7517POPC   GL227038  19.683   2.745   8.855
 7517POPC   C1A27039  19.788   2.735   8.555
 7517POPC   D2A27040  19.829   2.787   8.255
 7517POPC   C3A27041  19.871   2.757   7.955
 7517POPC   C4A27042  19.877   2.726   7.655
 7517POPC   C1B27043  19.606   2.672   8.555
 7517POPC   C2B27044  19.562   2.691   8.255
 7517POPC   C3B27045  19.613   2.682   7.955
 7517POPC   C4B27046  19.638   2.642   7.655
 7518POPC   NC327047  27.584  39.982   9.455
 7518POPC   PO427048  27.628  40.024   9.155
 7518POPC   GL127049  27.624  39.967   8.855
 7518POPC   GL227050  27.656  40.111   8.855
 7518POPC   C1A27051  27.547  40.017   8.555
 7518POPC   D2A27052  27.604  39.979   8.255
 7518POPC   C3A27053  27.627  40.024   7.955
 7518POPC   C4A27054  27.558  39.990   7.655
 7518POPC   C1B27055  27.760  40.241   8.555
 7518POPC   C2B27056  27.774  40.230   8.255
 7518POPC   C3B27057  27.738  40.223   7.955
 7518POPC   C4B27058  27.751  40.182   7.655
 7519POPC   NC327059  41.509  31.512   9.455
 7519POPC   PO427060  41.550  31.482   9.155
 7519POPC   GL127061  41.608  31.504   8.855
 7519POPC   GL227062  41.687  31.450   8.855
 7519POPC   C1A27063  41.517  31.514   8.555
 7519POPC   D2A27064  41.531  31.425   8.255
 7519POPC   C3A27065  41.590  31.451   7.955
 7519POPC   C4A27066  41.596  31.447   7.655
 7519POPC   C1B27067  41.812  31.407   8.555
 7519POPC   C2B27068  41.735  31.391   8.255
 7519POPC   C3B27069  41.751  31.335   7.955
 7519POPC   C4B27070  41.826  31.405   7.655
 7520POPC   NC327071  21.385  27.625   9.455
 7520POPC   PO427072  21.398  27.574   9.155
 7520POPC   GL127073  21.405  27.569   8.855
 7520POPC   GL227074  21.251  27.597   8.855
 7520POPC   C1A27075  21.364  27.636   8.555
 7520POPC   D2A27076  21.399  27.569   8.255
 7520POPC   C3A27077  21.392  27.643   7.955
 7520POPC   C4A27078  21.410  27.594   7.655
 7520POPC   C1B27079  21.152  27.521   8.555
 7520POPC   C2B27080  21.183  27.512   8.255
 7520POPC   C3B27081  21.123  27.536   7.955
 7520POPC   C4B27082  21.094  27.533   7.655
 7521POPC   NC327083  23.729  12.112   9.455
 7521POPC   PO427084  23.733  12.119   9.155
 7521POPC   GL127085  23.687  12.071   8.855
 7521POPC   GL227086  23.624  12.017   8.855
 7521POPC   C1A27087  23.751  12.054   8.555
 7521POPC   D2A27088  23.709  12.082   8.255
 7521POPC   C3A27089  23.688  12.034   7.955
 7521POPC   C4A27090  23.670  12.063   7.655
 7521POPC   C1B27091  23.448  11.951   8.555
 7521POPC   C2B27092  23.427  12.007   8.255
 7521POPC   C3B27093  23.459  12.008   7.955
 7521POPC   C4B27094  23.468  11.996   7.655
 7522POPC   NC327095   7.381  30.662   9.455
 7522POPC   PO427096   7.394  30.746   9.155
 7522POPC   GL127097   7.460  30.657   8.855
 7522POPC   GL227098   7.488  30.694   8.855
 7522POPC   C1A27099   7.437  30.657   8.555
 7522POPC   D2A27100   7.428  30.694   8.255
 7522POPC   C3A27101   7.453  30.661   7.955
 7522POPC   C4A27102   7.437  30.714   7.655
 7522POPC   C1B27103   7.645  30.579   8.555
 7522POPC   C2B27104   7.623  30.641   8.255
 7522POPC   C3B27105   7.625  30.572   7.955
 7522POPC   C4B27106   7.650  30.576   7.655
 7523POPC   NC327107  10.496  14.362   9.455
 7523POPC   PO427108  10.524  14.407   9.155
 7523POPC   GL127109  10.565  14.407   8.855
 7523POPC   GL227110  10.643  14.364   8.855
 7523POPC   C1A27111  10.492  14.373   8.555
 7523POPC   D2A27112  10.519  14.423   8.255
 7523POPC   C3A27113  10.520  14.449   7.955
 7523POPC   C4A27114  10.480  14.436   7.655
 7523POPC   C1B27115  10.767  14.252   8.555
 7523POPC   C2B27116  10.768  14.317   8.255
 7523POPC   C3B27117  10.756  14.254   7.955
 7523POPC   C4B27118  10.775  14.279   7.655
 7524POPC   NC327119  24.539  25.237   9.455
 7524POPC   PO427120  24.491  25.274   9.155
 7524POPC   GL127121  24.533  25.225   8.855
 7524POPC   GL227122  24.652  25.203   8.855
 7524POPC   C1A27123  24.522  25.274   8.555
 7524POPC   D2A27124  24.450  25.291   8.255
 7524POPC   C3A27125  24.449  25.290   7.955
 7524POPC   C4A27126  24.446  25.233   7.655
 7524POPC   C1B27127  24.694  25.210   8.555
 7524POPC   C2B27128  24.712  25.178   8.255
 7524POPC   C3B27129  24.698  25.175   7.955
 7524POPC   C4B27130  24.725  25.149   7.655
 7525POPC   NC327131   5.132  33.038   9.455
 7525POPC   PO427132   5.107  33.056   9.155
 7525POPC   GL127133   5.113  33.055   8.855
 7525POPC   GL227134   5.129  33.114   8.855
 7525POPC   C1A27135   5.101  33.000   8.555
 7525POPC   D2A27136   5.121  33.052   8.255
 7525POPC   C3A27137   5.133  33.028   7.955
 7525POPC   C4A27138   5.121  32.994   7.655
 7525POPC   C1B27139   5.186  33.286   8.555
 7525POPC   C2B27140   5.150  33.239   8.255
 7525POPC   C3B27141   5.130  33.299   7.955
 7525POPC   C4B27142   5.174  33.243   7.655
 7526POPC   NC327143   8.974  41.581   9.455
 7526POPC   PO427144   9.008  41.570   9.155
 7526POPC   GL127145   8.991  41.528   8.855
 7526POPC   GL227146   8.965  41.712   8.855
 7526POPC   C1A27147   9.014  41.522   8.555
 7526POPC   D2A27148   8.989  41.590   8.255
 7526POPC   C3A27149   8.992  41.572   7.955
 7526POPC   C4A27150   8.940  41.570   7.655
 7526POPC   C1B27151   8.966  41.840   8.555
 7526POPC   C2B27152   8.939  41.789   8.255
 7526POPC   C3B27153   8.921  41.841   7.955
 7526POPC   C4B27154   8.892  41.837   7.655
 7527POPC   NC327155  38.450  11.318   9.455
 7527POPC   PO427156  38.459  11.299   9.155
 7527POPC   GL127157  38.496  11.266   8.855
 7527POPC   GL227158  38.425  11.227   8.855
 7527POPC   C1A27159  38.468  11.314   8.555
 7527POPC   D2A27160  38.429  11.329   8.255
 7527POPC   C3A27161  38.498  11.276   7.955
 7527POPC   C4A27162  38.442  11.279   7.655
 7527POPC   C1B27163  38.398  11.114   8.555
 7527POPC   C2B27164  38.337  11.060   8.255
 7527POPC   C3B27165  38.419  11.088   7.955
 7527POPC   C4B27166  38.424  11.025   7.655
 7528POPC   NC327167  12.123  22.172   9.455
 7528POPC   PO427168  12.037  22.199   9.155
 7528POPC   GL127169  12.094  22.136   8.855
 7528POPC   GL227170  12.096  22.247   8.855
 7528POPC   C1A27171  12.096  22.124   8.555
 7528POPC   D2A27172  12.035  22.189   8.255
 7528POPC   C3A27173  12.030  22.123   7.955
 7528POPC   C4A27174  12.079  22.203   7.655
 7528POPC   C1B27175  12.169  22.392   8.555
 7528POPC   C2B27176  12.167  22.424   8.255
 7528POPC   C3B27177  12.161  22.372   7.955
 7528POPC   C4B27178  12.107  22.394   7.655
 7529POPC   NC327179  37.708  22.201   9.455
 7529POPC   PO427180  37.700  22.191   9.155
 7529POPC   GL127181  37.667  22.161   8.855
 7529POPC   GL227182  37.800  22.164   8.855
 7529POPC   C1A27183  37.723  22.181   8.555
 7529POPC   D2A27184  37.689  22.149   8.255
 7529POPC   C3A27185  37.664  22.135   7.955
 7529POPC   C4A27186  37.661  22.141   7.655
 7529POPC   C1B27187  37.965  22.123   8.555
 7529POPC   C2B27188  37.925  22.165   8.255
 7529POPC   C3B27189  37.974  22.135   7.955
 7529POPC   C4B27190  37.953  22.143   7.655
 7530POPC   NC327191  36.920  32.281   9.455
 7530POPC   PO427192  36.897  32.223   9.155
 7530POPC   GL127193  36.913  32.291   8.855
 7530POPC   GL227194  36.824  32.145   8.855
 7530POPC   C1A27195  36.937  32.287   8.555
 7530POPC   D2A27196  36.861  32.268   8.255
 7530POPC   C3A27197  36.869  32.233   7.955
 7530POPC   C4A27198  36.859  32.208   7.655
 7530POPC   C1B27199  36.831  32.050   8.555
 7530POPC   C2B27200  36.871  32.020   8.255
 7530POPC   C3B27201  36.799  32.039   7.955
 7530POPC   C4B27202  36.798  32.024   7.655
 7531POPC   NC327203  43.876   0.401   9.455
 7531POPC   PO427204  43.895   0.453   9.155
 7531POPC   GL127205  43.898   0.452   8.855
 7531POPC   GL227206  43.899   0.288   8.855
 7531POPC   C1A27207  43.932   0.484   8.555
 7531POPC   D2A27208  43.925   0.407   8.255
 7531POPC   C3A27209  43.892   0.436   7.955
 7531POPC   C4A27210  43.908   0.434   7.655
 7531POPC   C1B27211  44.004   0.255   8.555
 7531POPC   C2B27212  44.039   0.250   8.255
 7531POPC   C3B27213  43.994   0.247   7.955
 7531POPC   C4B27214  43.995   0.249   7.655
 7532POPC   NC327215   1.212  25.259   9.455
 7532POPC   PO427216   1.230  25.285   9.155
 7532POPC   GL127217   1.214  25.276   8.855
 7532POPC   GL227218   1.086  25.223   8.855
 7532POPC   C1A27219   1.236  25.252   8.555
 7532POPC   D2A27220   1.187  25.229   8.255
 7532POPC   C3A27221   1.199  25.283   7.955
 7532POPC   C4A27222   1.203  25.221   7.655
 7532POPC   C1B27223   0.954  25.110   8.555
 7532POPC   C2B27224   1.028  25.197   8.255
 7532POPC   C3B27225   1.021  25.179   7.955
 7532POPC   C4B27226   0.954  25.123   7.655
 7533POPC   NC327227   3.528  24.488   9.455
 7533POPC   PO427228   3.591  24.493   9.155
 7533POPC   GL127229   3.554  24.502   8.855
 7533POPC   GL227230   3.687  24.595   8.855
 7533POPC   C1A27231   3.497  24.526   8.555
 7533POPC   D2A27232   3.493  24.469   8.255
 7533POPC   C3A27233   3.520  24.455   7.955
 7533POPC   C4A27234   3.500  24.508   7.655
 7533POPC   C1B27235   3.738  24.664   8.555
 7533POPC   C2B27236   3.708  24.669   8.255
 7533POPC   C3B27237   3.720  24.646   7.955
 7533POPC   C4B27238   3.731  24.668   7.655
 7534POPC   NC327239   0.419  19.871   9.455
 7534POPC   PO427240   0.465  19.848   9.155
 7534POPC   GL127241   0.418  19.829   8.855
 7534POPC   GL227242   0.429  19.919   8.855
 7534POPC   C1A27243   0.414  19.848   8.555
 7534POPC   D2A27244   0.464  19.839   8.255
 7534POPC   C3A27245   0.476  19.872   7.955
 7534POPC   C4A27246   0.395  19.816   7.655
 7534POPC   C1B27247   0.365  20.052   8.555
 7534POPC   C2B27248   0.288  20.049   8.255
 7534POPC   C3B27249   0.351  20.105   7.955
 7534POPC   C4B27250   0.367  20.107   7.655
 7535POPC   NC327251  11.291  22.182   9.455
 7535POPC   PO427252  11.335  22.181   9.155
 7535POPC   GL127253  11.324  22.139   8.855
 7535POPC   GL227254  11.369  22.060   8.855
 7535POPC   C1A27255  11.306  22.164   8.555
 7535POPC   D2A27256  11.303  22.193   8.255
 7535POPC   C3A27257  11.292  22.212   7.955
 7535POPC   C4A27258  11.349  22.114   7.655
 7535POPC   C1B27259  11.509  22.017   8.555
 7535POPC   C2B27260  11.461  22.048   8.255
 7535POPC   C3B27261  11.460  22.042   7.955
 7535POPC   C4B27262  11.449  22.013   7.655
 7536POPC   NC327263  12.044  15.139   9.455
 7536POPC   PO427264  12.045  15.169   9.155
 7536POPC   GL127265  12.060  15.153   8.855
 7536POPC   GL227266  11.920  15.130   8.855
 7536POPC   C1A27267  12.107  15.131   8.555
 7536POPC   D2A27268  12.106  15.152   8.255
 7536POPC   C3A27269  12.099  15.225   7.955
 7536POPC   C4A27270  12.099  15.171   7.655
 7536POPC   C1B27271  11.819  15.102   8.555
 7536POPC   C2B27272  11.872  15.058   8.255
 7536POPC   C3B27273  11.863  15.030   7.955
 7536POPC   C4B27274  11.810  15.042   7.655
 7537POPC   NC327275  37.663  42.309   9.455
 7537POPC   PO427276  37.693  42.355   9.155
 7537POPC   GL127277  37.676  42.331   8.855
 7537POPC   GL227278  37.581  42.231   8.855
 7537POPC   C1A27279  37.709  42.347   8.555
 7537POPC   D2A27280  37.700  42.377   8.255
 7537POPC   C3A27281  37.720  42.341   7.955
 7537POPC   C4A27282  37.643  42.330   7.655
 7537POPC   C1B27283  37.586  42.108   8.555
 7537POPC   C2B27284  37.493  42.086   8.255
 7537POPC   C3B27285  37.562  42.159   7.955
 7537POPC   C4B27286  37.569  42.119   7.655
 7538POPC   NC327287  11.290  24.447   9.455
 7538POPC   PO427288  11.328  24.454   9.155
 7538POPC   GL127289  11.288  24.529   8.855
 7538POPC   GL227290  11.434  24.554   8.855
 7538POPC   C1A27291  11.326  24.457   8.555
 7538POPC   D2A27292  11.268  24.537   8.255
 7538POPC   C3A27293  11.256  24.528   7.955
 7538POPC   C4A27294  11.296  24.478   7.655
 7538POPC   C1B27295  11.525  24.613   8.555
 7538POPC   C2B27296  11.543  24.558   8.255
 7538POPC   C3B27297  11.577  24.613   7.955
 7538POPC   C4B27298  11.540  24.596   7.655
 7539POPC   NC327299   7.467  33.829   9.455
 7539POPC   PO427300   7.388  33.754   9.155
 7539POPC   GL127301   7.427  33.849   8.855
 7539POPC   GL227302   7.452  33.660   8.855
 7539POPC   C1A27303   7.413  33.774   8.555
 7539POPC   D2A27304   7.372  33.798   8.255
 7539POPC   C3A27305   7.378  33.827   7.955
 7539POPC   C4A27306   7.372  33.784   7.655
 7539POPC   C1B27307   7.527  33.530   8.555
 7539POPC   C2B27308   7.535  33.618   8.255
 7539POPC   C3B27309   7.549  33.596   7.955
 7539POPC   C4B27310   7.499  33.552   7.655
 7540POPC   NC327311   6.606  10.504   9.455
 7540POPC   PO427312   6.600  10.505   9.155
 7540POPC   GL127313   6.603  10.527   8.855
 7540POPC   GL227314   6.778  10.556   8.855
 7540POPC   C1A27315   6.628  10.513   8.555
 7540POPC   D2A27316   6.667  10.490   8.255
 7540POPC   C3A27317   6.688  10.561   7.955
 7540POPC   C4A27318   6.640  10.536   7.655
 7540POPC   C1B27319   6.854  10.627   8.555
 7540POPC   C2B27320   6.822  10.699   8.255
 7540POPC   C3B27321   6.884  10.646   7.955
 7540POPC   C4B27322   6.869  10.671   7.655
 7541POPC   NC327323  29.908  11.294   9.455
 7541POPC   PO427324  29.886  11.258   9.155
 7541POPC   GL127325  29.949  11.310   8.855
 7541POPC   GL227326  30.014  11.220   8.855
 7541POPC   C1A27327  29.958  11.263   8.555
 7541POPC   D2A27328  29.914  11.322   8.255
 7541POPC   C3A27329  29.893  11.261   7.955
 7541POPC   C4A27330  29.958  11.334   7.655
 7541POPC   C1B27331  30.011  11.045   8.555
 7541POPC   C2B27332  30.041  11.046   8.255
 7541POPC   C3B27333  30.027  11.123   7.955
 7541POPC   C4B27334  30.092  11.093   7.655
 7542POPC   NC327335  10.568  24.476   9.455
 7542POPC   PO427336  10.501  24.450   9.155
 7542POPC   GL127337  10.505  24.483   8.855
 7542POPC   GL227338  10.437  24.418   8.855
 7542POPC   C1A27339  10.512  24.520   8.555
 7542POPC   D2A27340  10.489  24.520   8.255
 7542POPC   C3A27341  10.572  24.507   7.955
 7542POPC   C4A27342  10.530  24.474   7.655
 7542POPC   C1B27343  10.271  24.443   8.555
 7542POPC   C2B27344  10.304  24.397   8.255
 7542POPC   C3B27345  10.241  24.462   7.955
 7542POPC   C4B27346  10.237  24.383   7.655
 7543POPC   NC327347  13.636  19.096   9.455
 7543POPC   PO427348  13.599  19.016   9.155
 7543POPC   GL127349  13.651  19.086   8.855
 7543POPC   GL227350  13.518  19.033   8.855
 7543POPC   C1A27351  13.627  19.028   8.555
 7543POPC   D2A27352  13.625  19.064   8.255
 7543POPC   C3A27353  13.592  19.050   7.955
 7543POPC   C4A27354  13.614  19.010   7.655
 7543POPC   C1B27355  13.422  18.958   8.555
 7543POPC   C2B27356  13.389  18.995   8.255
 7543POPC   C3B27357  13.373  18.972   7.955
 7543POPC   C4B27358  13.404  18.934   7.655
 7544POPC   NC327359  42.335  30.716   9.455
 7544POPC   PO427360  42.285  30.703   9.155
 7544POPC   GL127361  42.330  30.651   8.855
 7544POPC   GL227362  42.442  30.737   8.855
 7544POPC   C1A27363  42.350  30.666   8.555
 7544POPC   D2A27364  42.349  30.666   8.255
 7544POPC   C3A27365  42.343  30.670   7.955
 7544POPC   C4A27366  42.347  30.681   7.655
 7544POPC   C1B27367  42.545  30.836   8.555
 7544POPC   C2B27368  42.509  30.865   8.255
 7544POPC   C3B27369  42.564  30.815   7.955
 7544POPC   C4B27370  42.602  30.838   7.655
 7545POPC   NC327371   1.189  26.037   9.455
 7545POPC   PO427372   1.225  26.032   9.155
 7545POPC   GL127373   1.253  26.023   8.855
 7545POPC   GL227374   1.093  26.078   8.855
 7545POPC   C1A27375   1.183  26.028   8.555
 7545POPC   D2A27376   1.223  26.085   8.255
 7545POPC   C3A27377   1.223  26.059   7.955
 7545POPC   C4A27378   1.176  26.056   7.655
 7545POPC   C1B27379   0.983  26.109   8.555
 7545POPC   C2B27380   0.970  26.100   8.255
 7545POPC   C3B27381   0.978  26.088   7.955
 7545POPC   C4B27382   0.949  26.099   7.655
 7546POPC   NC327383  19.850  32.261   9.455
 7546POPC   PO427384  19.789  32.211   9.155
 7546POPC   GL127385  19.849  32.222   8.855
 7546POPC   GL227386  19.925  32.109   8.855
 7546POPC   C1A27387  19.793  32.251   8.555
 7546POPC   D2A27388  19.841  32.286   8.255
 7546POPC   C3A27389  19.825  32.234   7.955
 7546POPC   C4A27390  19.803  32.261   7.655
 7546POPC   C1B27391  19.944  31.995   8.555
 7546POPC   C2B27392  19.949  32.064   8.255
 7546POPC   C3B27393  19.935  32.004   7.955
 7546POPC   C4B27394  19.943  32.000   7.655
 7547POPC   NC327395   1.974   6.601   9.455
 7547POPC   PO427396   1.966   6.642   9.155
 7547POPC   GL127397   2.034   6.666   8.855
 7547POPC   GL227398   1.838   6.665   8.855
 7547POPC   C1A27399   2.032   6.617   8.555
 7547POPC   D2A27400   1.998   6.603   8.255
 7547POPC   C3A27401   2.026   6.634   7.955
 7547POPC   C4A27402   1.968   6.600   7.655
 7547POPC   C1B27403   1.763   6.642   8.555
 7547POPC   C2B27404   1.748   6.712   8.255
 7547POPC   C3B27405   1.783   6.662   7.955
 7547POPC   C4B27406   1.772   6.700   7.655
 7548POPC   NC327407  20.582  38.470   9.455
 7548POPC   PO427408  20.642  38.411   9.155
 7548POPC   GL127409  20.599  38.433   8.855
 7548POPC   GL227410  20.713  38.402   8.855
 7548POPC   C1A27411  20.560  38.446   8.555
 7548POPC   D2A27412  20.655  38.472   8.255
 7548POPC   C3A27413  20.597  38.423   7.955
 7548POPC   C4A27414  20.571  38.438   7.655
 7548POPC   C1B27415  20.783  38.271   8.555
 7548POPC   C2B27416  20.807  38.339   8.255
 7548POPC   C3B27417  20.796  38.352   7.955
 7548POPC   C4B27418  20.795  38.274   7.655
 7549POPC   NC327419  20.613  34.541   9.455
 7549POPC   PO427420  20.601  34.570   9.155
 7549POPC   GL127421  20.659  34.587   8.855
 7549POPC   GL227422  20.651  34.416   8.855
 7549POPC   C1A27423  20.576  34.617   8.555
 7549POPC   D2A27424  20.660  34.595   8.255
 7549POPC   C3A27425  20.597  34.536   7.955
 7549POPC   C4A27426  20.619  34.587   7.655
 7549POPC   C1B27427  20.657  34.341   8.555
 7549POPC   C2B27428  20.706  34.349   8.255
 7549POPC   C3B27429  20.642  34.300   7.955
 7549POPC   C4B27430  20.719  34.373   7.655
 7550POPC   NC327431  22.890  39.984   9.455
 7550POPC   PO427432  22.984  40.021   9.155
 7550POPC   GL127433  22.907  39.966   8.855
 7550POPC   GL227434  22.941  39.895   8.855
 7550POPC   C1A27435  22.945  40.035   8.555
 7550POPC   D2A27436  22.968  40.028   8.255
 7550POPC   C3A27437  22.927  40.038   7.955
 7550POPC   C4A27438  22.949  40.010   7.655
 7550POPC   C1B27439  22.960  39.795   8.555
 7550POPC   C2B27440  22.969  39.751   8.255
 7550POPC   C3B27441  22.950  39.715   7.955
 7550POPC   C4B27442  22.963  39.710   7.655
 7551POPC   NC327443  18.297  43.872   9.455
 7551POPC   PO427444  18.288  43.884   9.155
 7551POPC   GL127445  18.300  43.925   8.855
 7551POPC   GL227446  18.368  43.845   8.855
 7551POPC   C1A27447  18.233  43.919   8.555
 7551POPC   D2A27448  18.277  43.892   8.255
 7551POPC   C3A27449  18.315  43.895   7.955
 7551POPC   C4A27450  18.248  43.861   7.655
 7551POPC   C1B27451  18.544  43.733   8.555
 7551POPC   C2B27452  18.544  43.751   8.255
 7551POPC   C3B27453  18.538  43.727   7.955
 7551POPC   C4B27454  18.536  43.718   7.655
 7552POPC   NC327455  26.018  19.833   9.455
 7552POPC   PO427456  26.078  19.855   9.155
 7552POPC   GL127457  26.027  19.803   8.855
 7552POPC   GL227458  26.113  19.724   8.855
 7552POPC   C1A27459  26.081  19.879   8.555
 7552POPC   D2A27460  26.073  19.853   8.255
 7552POPC   C3A27461  26.010  19.815   7.955
 7552POPC   C4A27462  26.009  19.817   7.655
 7552POPC   C1B27463  26.133  19.591   8.555
 7552POPC   C2B27464  26.102  19.588   8.255
 7552POPC   C3B27465  26.135  19.625   7.955
 7552POPC   C4B27466  26.107  19.575   7.655
 7553POPC   NC327467  26.784  36.147   9.455
 7553POPC   PO427468  26.847  36.159   9.155
 7553POPC   GL127469  26.824  36.146   8.855
 7553POPC   GL227470  26.717  36.068   8.855
 7553POPC   C1A27471  26.790  36.100   8.555
 7553POPC   D2A27472  26.771  36.112   8.255
 7553POPC   C3A27473  26.834  36.165   7.955
 7553POPC   C4A27474  26.855  36.147   7.655
 7553POPC   C1B27475  26.589  36.042   8.555
 7553POPC   C2B27476  26.606  36.054   8.255
 7553POPC   C3B27477  26.531  36.082   7.955
 7553POPC   C4B27478  26.600  36.008   7.655
 7554POPC   NC327479  19.832  12.811   9.455
 7554POPC   PO427480  19.862  12.893   9.155
 7554POPC   GL127481  19.798  12.862   8.855
 7554POPC   GL227482  19.928  12.749   8.855
 7554POPC   C1A27483  19.827  12.848   8.555
 7554POPC   D2A27484  19.860  12.876   8.255
 7554POPC   C3A27485  19.813  12.893   7.955
 7554POPC   C4A27486  19.823  12.833   7.655
 7554POPC   C1B27487  20.076  12.705   8.555
 7554POPC   C2B27488  20.064  12.718   8.255
 7554POPC   C3B27489  19.997  12.719   7.955
 7554POPC   C4B27490  20.028  12.695   7.655
 7555POPC   NC327491   5.134  31.431   9.455
 7555POPC   PO427492   5.046  31.436   9.155
 7555POPC   GL127493   5.060  31.465   8.855
 7555POPC   GL227494   4.925  31.465   8.855
 7555POPC   C1A27495   5.065  31.504   8.555
 7555POPC   D2A27496   5.058  31.500   8.255
 7555POPC   C3A27497   5.049  31.505   7.955
 7555POPC   C4A27498   5.089  31.438   7.655
 7555POPC   C1B27499   4.833  31.371   8.555
 7555POPC   C2B27500   4.812  31.387   8.255
 7555POPC   C3B27501   4.843  31.400   7.955
 7555POPC   C4B27502   4.875  31.377   7.655
 7556POPC   NC327503  14.413  25.232   9.455
 7556POPC   PO427504  14.442  25.270   9.155
 7556POPC   GL127505  14.380  25.306   8.855
 7556POPC   GL227506  14.296  25.343   8.855
 7556POPC   C1A27507  14.391  25.267   8.555
 7556POPC   D2A27508  14.408  25.298   8.255
 7556POPC   C3A27509  14.437  25.298   7.955
 7556POPC   C4A27510  14.423  25.229   7.655
 7556POPC   C1B27511  14.207  25.435   8.555
 7556POPC   C2B27512  14.183  25.359   8.255
 7556POPC   C3B27513  14.165  25.358   7.955
 7556POPC   C4B27514  14.214  25.362   7.655
 7557POPC   NC327515  37.674  40.767   9.455
 7557POPC   PO427516  37.642  40.801   9.155
 7557POPC   GL127517  37.659  40.746   8.855
 7557POPC   GL227518  37.548  40.791   8.855
 7557POPC   C1A27519  37.702  40.801   8.555
 7557POPC   D2A27520  37.680  40.833   8.255
 7557POPC   C3A27521  37.683  40.827   7.955
 7557POPC   C4A27522  37.726  40.771   7.655
 7557POPC   C1B27523  37.481  40.896   8.555
 7557POPC   C2B27524  37.491  40.897   8.255
 7557POPC   C3B27525  37.455  40.841   7.955
 7557POPC   C4B27526  37.442  40.904   7.655
 7558POPC   NC327527  12.884   5.853   9.455
 7558POPC   PO427528  12.881   5.879   9.155
 7558POPC   GL127529  12.808   5.908   8.855
 7558POPC   GL227530  12.871   6.007   8.855
 7558POPC   C1A27531  12.857   5.901   8.555
 7558POPC   D2A27532  12.857   5.904   8.255
 7558POPC   C3A27533  12.864   5.910   7.955
 7558POPC   C4A27534  12.820   5.889   7.655
 7558POPC   C1B27535  12.852   6.078   8.555
 7558POPC   C2B27536  12.820   6.113   8.255
 7558POPC   C3B27537  12.881   6.071   7.955
 7558POPC   C4B27538  12.831   6.145   7.655
 7559POPC   NC327539  28.415  16.714   9.455
 7559POPC   PO427540  28.352  16.690   9.155
 7559POPC   GL127541  28.399  16.691   8.855
 7559POPC   GL227542  28.394  16.614   8.855
 7559POPC   C1A27543  28.337  16.745   8.555
 7559POPC   D2A27544  28.388  16.706   8.255
 7559POPC   C3A27545  28.402  16.755   7.955
 7559POPC   C4A27546  28.416  16.763   7.655
 7559POPC   C1B27547  28.486  16.533   8.555
 7559POPC   C2B27548  28.422  16.517   8.255
 7559POPC   C3B27549  28.421  16.471   7.955
 7559POPC   C4B27550  28.428  16.499   7.655
 7560POPC   NC327551  22.942  36.895   9.455
 7560POPC   PO427552  22.902  36.899   9.155
 7560POPC   GL127553  22.896  36.950   8.855
 7560POPC   GL227554  23.087  36.888   8.855
 7560POPC   C1A27555  22.920  36.878   8.555
 7560POPC   D2A27556  22.969  36.942   8.255
 7560POPC   C3A27557  22.939  36.934   7.955
 7560POPC   C4A27558  22.947  36.900   7.655
 7560POPC   C1B27559  23.169  36.922   8.555
 7560POPC   C2B27560  23.141  36.848   8.255
 7560POPC   C3B27561  23.156  36.865   7.955
 7560POPC   C4B27562  23.209  36.896   7.655
 7561POPC   NC327563  28.416   7.394   9.455
 7561POPC   PO427564  28.370   7.379   9.155
 7561POPC   GL127565  28.393   7.424   8.855
 7561POPC   GL227566  28.363   7.332   8.855
 7561POPC   C1A27567  28.338   7.375   8.555
 7561POPC   D2A27568  28.387   7.457   8.255
 7561POPC   C3A27569  28.325   7.375   7.955
 7561POPC   C4A27570  28.372   7.428   7.655
 7561POPC   C1B27571  28.353   7.199   8.555
 7561POPC   C2B27572  28.322   7.146   8.255
 7561POPC   C3B27573  28.350   7.149   7.955
 7561POPC   C4B27574  28.335   7.163   7.655
 7562POPC   NC327575  19.849  39.279   9.455
 7562POPC   PO427576  19.786  39.211   9.155
 7562POPC   GL127577  19.865  39.239   8.855
 7562POPC   GL227578  19.959  39.137   8.855
 7562POPC   C1A27579  19.877  39.258   8.555
 7562POPC   D2A27580  19.883  39.220   8.255
 7562POPC   C3A27581  19.812  39.181   7.955
 7562POPC   C4A27582  19.823  39.234   7.655
 7562POPC   C1B27583  20.041  39.115   8.555
 7562POPC   C2B27584  20.038  39.083   8.255
 7562POPC   C3B27585  20.056  39.085   7.955
 7562POPC   C4B27586  20.025  39.021   7.655
 7563POPC   NC327587  18.271  13.628   9.455
 7563POPC   PO427588  18.326  13.634   9.155
 7563POPC   GL127589  18.266  13.607   8.855
 7563POPC   GL227590  18.234  13.749   8.855
 7563POPC   C1A27591  18.241  13.638   8.555
 7563POPC   D2A27592  18.293  13.592   8.255
 7563POPC   C3A27593  18.247  13.579   7.955
 7563POPC   C4A27594  18.234  13.634   7.655
 7563POPC   C1B27595  18.118  13.814   8.555
 7563POPC   C2B27596  18.140  13.824   8.255
 7563POPC   C3B27597  18.141  13.835   7.955
 7563POPC   C4B27598  18.153  13.818   7.655
 7564POPC   NC327599  20.646   5.095   9.455
 7564POPC   PO427600  20.608   5.121   9.155
 7564POPC   GL127601  20.631   5.052   8.855
 7564POPC   GL227602  20.634   5.007   8.855
 7564POPC   C1A27603  20.568   5.045   8.555
 7564POPC   D2A27604  20.600   5.137   8.255
 7564POPC   C3A27605  20.589   5.070   7.955
 7564POPC   C4A27606  20.563   5.105   7.655
 7564POPC   C1B27607  20.620   4.849   8.555
 7564POPC   C2B27608  20.675   4.859   8.255
 7564POPC   C3B27609  20.704   4.874   7.955
 7564POPC   C4B27610  20.672   4.891   7.655
 7565POPC   NC327611  31.492  17.479   9.455
 7565POPC   PO427612  31.458  17.484   9.155
 7565POPC   GL127613  31.509  17.539   8.855
 7565POPC   GL227614  31.452  17.370   8.855
 7565POPC   C1A27615  31.455  17.485   8.555
 7565POPC   D2A27616  31.451  17.462   8.255
 7565POPC   C3A27617  31.435  17.474   7.955
 7565POPC   C4A27618  31.462  17.527   7.655
 7565POPC   C1B27619  31.562  17.306   8.555
 7565POPC   C2B27620  31.571  17.308   8.255
 7565POPC   C3B27621  31.555  17.271   7.955
 7565POPC   C4B27622  31.570  17.259   7.655
 7566POPC   NC327623  31.518  28.368   9.455
 7566POPC   PO427624  31.478  28.398   9.155
 7566POPC   GL127625  31.438  28.398   8.855
 7566POPC   GL227626  31.321  28.385   8.855
 7566POPC   C1A27627  31.439  28.392   8.555
 7566POPC   D2A27628  31.442  28.345   8.255
 7566POPC   C3A27629  31.485  28.322   7.955
 7566POPC   C4A27630  31.462  28.350   7.655
 7566POPC   C1B27631  31.213  28.458   8.555
 7566POPC   C2B27632  31.251  28.440   8.255
 7566POPC   C3B27633  31.230  28.431   7.955
 7566POPC   C4B27634  31.243  28.485   7.655
 7567POPC   NC327635  36.087  27.573   9.455
 7567POPC   PO427636  36.106  27.567   9.155
 7567POPC   GL127637  36.173  27.630   8.855
 7567POPC   GL227638  36.053  27.553   8.855
 7567POPC   C1A27639  36.159  27.639   8.555
 7567POPC   D2A27640  36.083  27.544   8.255
 7567POPC   C3A27641  36.114  27.549   7.955
 7567POPC   C4A27642  36.177  27.640   7.655
 7567POPC   C1B27643  35.880  27.499   8.555
 7567POPC   C2B27644  35.872  27.528   8.255
 7567POPC   C3B27645  35.903  27.516   7.955
 7567POPC   C4B27646  35.855  27.511   7.655
 7568POPC   NC327647  36.119  29.178   9.455
 7568POPC   PO427648  36.122  29.166   9.155
 7568POPC   GL127649  36.154  29.127   8.855
 7568POPC   GL227650  36.058  29.176   8.855
 7568POPC   C1A27651  36.126  29.127   8.555
 7568POPC   D2A27652  36.078  29.114   8.255
 7568POPC   C3A27653  36.103  29.154   7.955
 7568POPC   C4A27654  36.147  29.101   7.655
 7568POPC   C1B27655  35.864  29.185   8.555
 7568POPC   C2B27656  35.861  29.192   8.255
 7568POPC   C3B27657  35.905  29.233   7.955
 7568POPC   C4B27658  35.869  29.267   7.655
 7569POPC   NC327659  22.948  34.527   9.455
 7569POPC   PO427660  22.939  34.533   9.155
 7569POPC   GL127661  22.900  34.614   8.855
 7569POPC   GL227662  23.047  34.639   8.855
 7569POPC   C1A27663  22.941  34.591   8.555
 7569POPC   D2A27664  22.964  34.539   8.255
 7569POPC   C3A27665  22.921  34.576   7.955
 7569POPC   C4A27666  22.955  34.589   7.655
 7569POPC   C1B27667  23.087  34.720   8.555
 7569POPC   C2B27668  23.086  34.756   8.255
 7569POPC   C3B27669  23.104  34.744   7.955
 7569POPC   C4B27670  23.146  34.726   7.655
 7570POPC   NC327671  41.597  12.088   9.455
 7570POPC   PO427672  41.513  12.081   9.155
 7570POPC   GL127673  41.518  12.034   8.855
 7570POPC   GL227674  41.706  12.177   8.855
 7570POPC   C1A27675  41.577  12.102   8.555
 7570POPC   D2A27676  41.568  12.049   8.255
 7570POPC   C3A27677  41.536  12.039   7.955
 7570POPC   C4A27678  41.540  12.095   7.655
 7570POPC   C1B27679  41.824  12.180   8.555
 7570POPC   C2B27680  41.803  12.220   8.255
 7570POPC   C3B27681  41.813  12.179   7.955
 7570POPC   C4B27682  41.807  12.151   7.655
 7571POPC   NC327683  28.348  43.088   9.455
 7571POPC   PO427684  28.366  43.064   9.155
 7571POPC   GL127685  28.330  43.127   8.855
 7571POPC   GL227686  28.445  43.077   8.855
 7571POPC   C1A27687  28.354  43.094   8.555
 7571POPC   D2A27688  28.410  43.090   8.255
 7571POPC   C3A27689  28.407  43.075   7.955
 7571POPC   C4A27690  28.363  43.077   7.655
 7571POPC   C1B27691  28.636  43.178   8.555
 7571POPC   C2B27692  28.608  43.174   8.255
 7571POPC   C3B27693  28.589  43.108   7.955
 7571POPC   C4B27694  28.604  43.171   7.655
 7572POPC   NC327695   1.994  27.590   9.455
 7572POPC   PO427696   2.028  27.560   9.155
 7572POPC   GL127697   2.013  27.600   8.855
 7572POPC   GL227698   1.887  27.547   8.855
 7572POPC   C1A27699   1.961  27.607   8.555
 7572POPC   D2A27700   1.957  27.635   8.255
 7572POPC   C3A27701   2.038  27.621   7.955
 7572POPC   C4A27702   1.987  27.549   7.655
 7572POPC   C1B27703   1.791  27.442   8.555
 7572POPC   C2B27704   1.732  27.505   8.255
 7572POPC   C3B27705   1.817  27.419   7.955
 7572POPC   C4B27706   1.739  27.418   7.655
 7573POPC   NC327707  19.033  44.665   9.455
 7573POPC   PO427708  19.066  44.681   9.155
 7573POPC   GL127709  19.091  44.685   8.855
 7573POPC   GL227710  18.965  44.766   8.855
 7573POPC   C1A27711  19.058  44.640   8.555
 7573POPC   D2A27712  19.024  44.617   8.255
 7573POPC   C3A27713  19.051  44.696   7.955
 7573POPC   C4A27714  19.030  44.651   7.655
 7573POPC   C1B27715  18.816  44.772   8.555
 7573POPC   C2B27716  18.821  44.803   8.255
 7573POPC   C3B27717  18.810  44.817   7.955
 7573POPC   C4B27718  18.799  44.820   7.655
 7574POPC   NC327719  14.436  35.357   9.455
 7574POPC   PO427720  14.405  35.365   9.155
 7574POPC   GL127721  14.417  35.335   8.855
 7574POPC   GL227722  14.459  35.240   8.855
 7574POPC   C1A27723  14.390  35.370   8.555
 7574POPC   D2A27724  14.356  35.347   8.255
 7574POPC   C3A27725  14.410  35.334   7.955
 7574POPC   C4A27726  14.385  35.314   7.655
 7574POPC   C1B27727  14.516  35.120   8.555
 7574POPC   C2B27728  14.521  35.159   8.255
 7574POPC   C3B27729  14.552  35.173   7.955
 7574POPC   C4B27730  14.507  35.167   7.655
 7575POPC   NC327731   0.441  26.081   9.455
 7575POPC   PO427732   0.397  26.066   9.155
 7575POPC   GL127733   0.457  25.997   8.855
 7575POPC   GL227734   0.458  25.893   8.855
 7575POPC   C1A27735   0.454  26.006   8.555
 7575POPC   D2A27736   0.409  26.022   8.255
 7575POPC   C3A27737   0.469  26.018   7.955
 7575POPC   C4A27738   0.391  26.063   7.655
 7575POPC   C1B27739   0.567  25.793   8.555
 7575POPC   C2B27740   0.600  25.803   8.255
 7575POPC   C3B27741   0.589  25.775   7.955
 7575POPC   C4B27742   0.543  25.835   7.655
 7576POPC   NC327743  22.966  26.839   9.455
 7576POPC   PO427744  22.934  26.788   9.155
 7576POPC   GL127745  22.922  26.862   8.855
 7576POPC   GL227746  22.852  26.652   8.855
 7576POPC   C1A27747  22.981  26.776   8.555
 7576POPC   D2A27748  22.969  26.805   8.255
 7576POPC   C3A27749  22.912  26.769   7.955
 7576POPC   C4A27750  22.958  26.768   7.655
 7576POPC   C1B27751  22.808  26.620   8.555
 7576POPC   C2B27752  22.888  26.562   8.255
 7576POPC   C3B27753  22.796  26.540   7.955
 7576POPC   C4B27754  22.839  26.594   7.655
 7577POPC   NC327755  22.118  34.618   9.455
 7577POPC   PO427756  22.187  34.602   9.155
 7577POPC   GL127757  22.133  34.558   8.855
 7577POPC   GL227758  22.181  34.452   8.855
 7577POPC   C1A27759  22.124  34.559   8.555
 7577POPC   D2A27760  22.210  34.581   8.255
 7577POPC   C3A27761  22.129  34.593   7.955
 7577POPC   C4A27762  22.190  34.564   7.655
 7577POPC   C1B27763  22.235  34.302   8.555
 7577POPC   C2B27764  22.206  34.299   8.255
 7577POPC   C3B27765  22.274  34.385   7.955
 7577POPC   C4B27766  22.281  34.320   7.655
 7578POPC   NC327767   6.662  43.882   9.455
 7578POPC   PO427768   6.599  43.884   9.155
 7578POPC   GL127769   6.646  43.842   8.855
 7578POPC   GL227770   6.483  43.953   8.855
 7578POPC   C1A27771   6.632  43.850   8.555
 7578POPC   D2A27772   6.693  43.842   8.255
 7578POPC   C3A27773   6.632  43.920   7.955
 7578POPC   C4A27774   6.613  43.844   7.655
 7578POPC   C1B27775   6.375  43.931   8.555
 7578POPC   C2B27776   6.413  43.972   8.255
 7578POPC   C3B27777   6.370  43.964   7.955
 7578POPC   C4B27778   6.449  44.009   7.655
 7579POPC   NC327779  35.306  40.789   9.455
 7579POPC   PO427780  35.348  40.752   9.155
 7579POPC   GL127781  35.373  40.740   8.855
 7579POPC   GL227782  35.235  40.783   8.855
 7579POPC   C1A27783  35.392  40.770   8.555
 7579POPC   D2A27784  35.344  40.771   8.255
 7579POPC   C3A27785  35.342  40.770   7.955
 7579POPC   C4A27786  35.371  40.768   7.655
 7579POPC   C1B27787  35.056  40.779   8.555
 7579POPC   C2B27788  35.149  40.721   8.255
 7579POPC   C3B27789  35.080  40.749   7.955
 7579POPC   C4B27790  35.088  40.754   7.655
 7580POPC   NC327791   4.325  40.008   9.455
 7580POPC   PO427792   4.354  39.989   9.155
 7580POPC   GL127793   4.294  40.040   8.855
 7580POPC   GL227794   4.358  39.926   8.855
 7580POPC   C1A27795   4.353  40.003   8.555
 7580POPC   D2A27796   4.322  40.050   8.255
 7580POPC   C3A27797   4.329  40.002   7.955
 7580POPC   C4A27798   4.342  39.972   7.655
 7580POPC   C1B27799   4.328  39.738   8.555
 7580POPC   C2B27800   4.386  39.762   8.255
 7580POPC   C3B27801   4.368  39.738   7.955
 7580POPC   C4B27802   4.321  39.729   7.655
 7581POPC   NC327803  10.531  15.907   9.455
 7581POPC   PO427804  10.505  15.930   9.155
 7581POPC   GL127805  10.538  15.939   8.855
 7581POPC   GL227806  10.493  16.051   8.855
 7581POPC   C1A27807  10.489  15.996   8.555
 7581POPC   D2A27808  10.560  15.908   8.255
 7581POPC   C3A27809  10.541  16.004   7.955
 7581POPC   C4A27810  10.547  15.957   7.655
 7581POPC   C1B27811  10.397  16.177   8.555
 7581POPC   C2B27812  10.340  16.163   8.255
 7581POPC   C3B27813  10.373  16.151   7.955
 7581POPC   C4B27814  10.389  16.127   7.655
 7582POPC   NC327815  25.243   8.966   9.455
 7582POPC   PO427816  25.289   9.015   9.155
 7582POPC   GL127817  25.218   9.004   8.855
 7582POPC   GL227818  25.151   8.995   8.855
 7582POPC   C1A27819  25.296   8.923   8.555
 7582POPC   D2A27820  25.231   8.992   8.255
 7582POPC   C3A27821  25.307   8.995   7.955
 7582POPC   C4A27822  25.223   8.960   7.655
 7582POPC   C1B27823  24.970   8.936   8.555
 7582POPC   C2B27824  24.975   8.987   8.255
 7582POPC   C3B27825  25.033   8.941   7.955
 7582POPC   C4B27826  24.969   8.982   7.655
 7583POPC   NC327827  22.163   8.216   9.455
 7583POPC   PO427828  22.195   8.186   9.155
 7583POPC   GL127829  22.137   8.188   8.855
 7583POPC   GL227830  22.066   8.345   8.855
 7583POPC   C1A27831  22.183   8.175   8.555
 7583POPC   D2A27832  22.115   8.153   8.255
 7583POPC   C3A27833  22.192   8.179   7.955
 7583POPC   C4A27834  22.175   8.179   7.655
 7583POPC   C1B27835  22.039   8.456   8.555
 7583POPC   C2B27836  22.069   8.411   8.255
 7583POPC   C3B27837  22.035   8.442   7.955
 7583POPC   C4B27838  22.039   8.399   7.655
 7584POPC   NC327839  20.590  37.727   9.455
 7584POPC   PO427840  20.606  37.648   9.155
 7584POPC   GL127841  20.563  37.636   8.855
 7584POPC   GL227842  20.542  37.818   8.855
 7584POPC   C1A27843  20.643  37.673   8.555
 7584POPC   D2A27844  20.639  37.641   8.255
 7584POPC   C3A27845  20.618  37.726   7.955
 7584POPC   C4A27846  20.568  37.648   7.655
 7584POPC   C1B27847  20.492  37.851   8.555
 7584POPC   C2B27848  20.481  37.856   8.255
 7584POPC   C3B27849  20.448  37.865   7.955
 7584POPC   C4B27850  20.488  37.905   7.655
 7585POPC   NC327851  36.096  29.934   9.455
 7585POPC   PO427852  36.167  29.873   9.155
 7585POPC   GL127853  36.169  29.970   8.855
 7585POPC   GL227854  36.181  29.765   8.855
 7585POPC   C1A27855  36.122  29.890   8.555
 7585POPC   D2A27856  36.150  29.928   8.255
 7585POPC   C3A27857  36.176  29.947   7.955
 7585POPC   C4A27858  36.120  29.918   7.655
 7585POPC   C1B27859  36.184  29.645   8.555
 7585POPC   C2B27860  36.222  29.715   8.255
 7585POPC   C3B27861  36.159  29.666   7.955
 7585POPC   C4B27862  36.188  29.718   7.655
 7586POPC   NC327863  30.670  31.447   9.455
 7586POPC   PO427864  30.695  31.460   9.155
 7586POPC   GL127865  30.695  31.463   8.855
 7586POPC   GL227866  30.555  31.497   8.855
 7586POPC   C1A27867  30.708  31.516   8.555
 7586POPC   D2A27868  30.675  31.495   8.255
 7586POPC   C3A27869  30.679  31.433   7.955
 7586POPC   C4A27870  30.740  31.433   7.655
 7586POPC   C1B27871  30.419  31.489   8.555
 7586POPC   C2B27872  30.439  31.511   8.255
 7586POPC   C3B27873  30.471  31.482   7.955
 7586POPC   C4B27874  30.438  31.530   7.655
 7587POPC   NC327875  20.609   1.230   9.455
 7587POPC   PO427876  20.565   1.245   9.155
 7587POPC   GL127877  20.595   1.209   8.855
 7587POPC   GL227878  20.600   1.087   8.855
 7587POPC   C1A27879  20.643   1.212   8.555
 7587POPC   D2A27880  20.599   1.227   8.255
 7587POPC   C3A27881  20.563   1.221   7.955
 7587POPC   C4A27882  20.593   1.246   7.655
 7587POPC   C1B27883  20.489   0.976   8.555
 7587POPC   C2B27884  20.480   0.961   8.255
 7587POPC   C3B27885  20.539   0.960   7.955
 7587POPC   C4B27886  20.521   1.016   7.655
 7588POPC   NC327887  41.537  43.063   9.455
 7588POPC   PO427888  41.549  43.086   9.155
 7588POPC   GL127889  41.561  43.084   8.855
 7588POPC   GL227890  41.462  43.193   8.855
 7588POPC   C1A27891  41.606  43.127   8.555
 7588POPC   D2A27892  41.534  43.137   8.255
 7588POPC   C3A27893  41.585  43.138   7.955
 7588POPC   C4A27894  41.579  43.135   7.655
 7588POPC   C1B27895  41.327  43.180   8.555
 7588POPC   C2B27896  41.382  43.188   8.255
 7588POPC   C3B27897  41.318  43.259   7.955
 7588POPC   C4B27898  41.370  43.210   7.655
 7589POPC   NC327899  40.054   1.230   9.455
 7589POPC   PO427900  39.982   1.214   9.155
 7589POPC   GL127901  39.988   1.214   8.855
 7589POPC   GL227902  39.979   1.088   8.855
 7589POPC   C1A27903  39.980   1.167   8.555
 7589POPC   D2A27904  39.996   1.210   8.255
 7589POPC   C3A27905  39.967   1.176   7.955
 7589POPC   C4A27906  39.973   1.242   7.655
 7589POPC   C1B27907  39.974   0.991   8.555
 7589POPC   C2B27908  39.991   0.995   8.255
 7589POPC   C3B27909  39.988   0.962   7.955
 7589POPC   C4B27910  40.049   0.941   7.655
 7590POPC   NC327911  24.453  18.268   9.455
 7590POPC   PO427912  24.532  18.283   9.155
 7590POPC   GL127913  24.514  18.272   8.855
 7590POPC   GL227914  24.616  18.355   8.855
 7590POPC   C1A27915  24.526  18.291   8.555
 7590POPC   D2A27916  24.520  18.280   8.255
 7590POPC   C3A27917  24.529  18.300   7.955
 7590POPC   C4A27918  24.499  18.297   7.655
 7590POPC   C1B27919  24.694  18.446   8.555
 7590POPC   C2B27920  24.692  18.460   8.255
 7590POPC   C3B27921  24.652  18.486   7.955
 7590POPC   C4B27922  24.699  18.459   7.655
 7591POPC   NC327923  44.623  43.074   9.455
 7591POPC   PO427924  44.651  43.080   9.155
 7591POPC   GL127925  44.697  43.138   8.855
 7591POPC   GL227926  44.789  43.086   8.855
 7591POPC   C1A27927  44.658  43.082   8.555
 7591POPC   D2A27928  44.704  43.144   8.255
 7591POPC   C3A27929  44.631  43.110   7.955
 7591POPC   C4A27930  44.701  43.151   7.655
 7591POPC   C1B27931  44.869  43.104   8.555
 7591POPC   C2B27932  44.873  43.119   8.255
 7591POPC   C3B27933  44.869  43.087   7.955
 7591POPC   C4B27934  44.933  43.089   7.655
 7592POPC   NC327935   2.019  14.355   9.455
 7592POPC   PO427936   1.982  14.388   9.155
 7592POPC   GL127937   1.942  14.417   8.855
 7592POPC   GL227938   2.098  14.486   8.855
 7592POPC   C1A27939   2.003  14.386   8.555
 7592POPC   D2A27940   2.020  14.392   8.255
 7592POPC   C3A27941   1.959  14.377   7.955
 7592POPC   C4A27942   2.013  14.429   7.655
 7592POPC   C1B27943   2.253  14.501   8.555
 7592POPC   C2B27944   2.253  14.466   8.255
 7592POPC   C3B27945   2.228  14.472   7.955
 7592POPC   C4B27946   2.256  14.443   7.655
 7593POPC   NC327947   8.172  33.027   9.455
 7593POPC   PO427948   8.153  33.029   9.155
 7593POPC   GL127949   8.230  33.050   8.855
 7593POPC   GL227950   8.073  33.085   8.855
 7593POPC   C1A27951   8.243  33.048   8.555
 7593POPC   D2A27952   8.167  33.002   8.255
 7593POPC   C3A27953   8.207  33.009   7.955
 7593POPC   C4A27954   8.225  33.033   7.655
 7593POPC   C1B27955   8.005  33.224   8.555
 7593POPC   C2B27956   7.996  33.209   8.255
 7593POPC   C3B27957   7.990  33.215   7.955
 7593POPC   C4B27958   8.060  33.190   7.655
 7594POPC   NC327959  40.012   5.864   9.455
 7594POPC   PO427960  39.987   5.837   9.155
 7594POPC   GL127961  40.049   5.882   8.855
 7594POPC   GL227962  39.865   5.921   8.855
 7594POPC   C1A27963  39.959   5.830   8.555
 7594POPC   D2A27964  39.962   5.883   8.255
 7594POPC   C3A27965  40.001   5.890   7.955
 7594POPC   C4A27966  39.980   5.892   7.655
 7594POPC   C1B27967  39.809   5.951   8.555
 7594POPC   C2B27968  39.758   5.983   8.255
 7594POPC   C3B27969  39.809   5.964   7.955
 7594POPC   C4B27970  39.810   6.024   7.655
 7595POPC   NC327971   8.957  15.184   9.455
 7595POPC   PO427972   8.924  15.197   9.155
 7595POPC   GL127973   8.932  15.132   8.855
 7595POPC   GL227974   9.025  15.275   8.855
 7595POPC   C1A27975   9.014  15.159   8.555
 7595POPC   D2A27976   9.002  15.206   8.255
 7595POPC   C3A27977   8.927  15.166   7.955
 7595POPC   C4A27978   9.005  15.146   7.655
 7595POPC   C1B27979   9.082  15.458   8.555
 7595POPC   C2B27980   9.037  15.428   8.255
 7595POPC   C3B27981   9.067  15.451   7.955
 7595POPC   C4B27982   9.054  15.371   7.655
 7596POPC   NC327983   8.237  14.354   9.455
 7596POPC   PO427984   8.197  14.433   9.155
 7596POPC   GL127985   8.192  14.420   8.855
 7596POPC   GL227986   8.151  14.513   8.855
 7596POPC   C1A27987   8.239  14.435   8.555
 7596POPC   D2A27988   8.151  14.355   8.255
 7596POPC   C3A27989   8.221  14.394   7.955
 7596POPC   C4A27990   8.148  14.402   7.655
 7596POPC   C1B27991   8.122  14.684   8.555
 7596POPC   C2B27992   8.151  14.650   8.255
 7596POPC   C3B27993   8.126  14.586   7.955
 7596POPC   C4B27994   8.115  14.661   7.655
 7597POPC   NC327995  36.901  33.765   9.455
 7597POPC   PO427996  36.868  33.813   9.155
 7597POPC   GL127997  36.876  33.755   8.855
 7597POPC   GL227998  36.816  33.923   8.855
 7597POPC   C1A27999  36.937  33.819   8.555
 7597POPC   D2A28000  36.920  33.782   8.255
 7597POPC   C3A28001  36.870  33.760   7.955
 7597POPC   C4A28002  36.889  33.814   7.655
 7597POPC   C1B28003  36.839  34.070   8.555
 7597POPC   C2B28004  36.780  34.013   8.255
 7597POPC   C3B28005  36.806  34.046   7.955
 7597POPC   C4B28006  36.821  34.017   7.655
 7598POPC   NC328007  28.371  26.851   9.455
 7598POPC   PO428008  28.401  26.822   9.155
 7598POPC   GL128009  28.394  26.853   8.855
 7598POPC   GL228010  28.364  26.701   8.855
 7598POPC   C1A28011  28.343  26.843   8.555
 7598POPC   D2A28012  28.402  26.802   8.255
 7598POPC   C3A28013  28.362  26.836   7.955
 7598POPC   C4A28014  28.351  26.836   7.655
 7598POPC   C1B28015  28.257  26.581   8.555
 7598POPC   C2B28016  28.348  26.619   8.255
 7598POPC   C3B28017  28.299  26.584   7.955
 7598POPC   C4B28018  28.296  26.537   7.655
 7599POPC   NC328019   2.724  22.927   9.455
 7599POPC   PO428020   2.775  22.985   9.155
 7599POPC   GL128021   2.815  22.965   8.855
 7599POPC   GL228022   2.930  22.938   8.855
 7599POPC   C1A28023   2.763  22.977   8.555
 7599POPC   D2A28024   2.724  22.950   8.255
 7599POPC   C3A28025   2.803  22.982   7.955
 7599POPC   C4A28026   2.791  22.907   7.655
 7599POPC   C1B28027   2.958  23.018   8.555
 7599POPC   C2B28028   2.989  22.970   8.255
 7599POPC   C3B28029   3.011  22.963   7.955
 7599POPC   C4B28030   2.964  22.977   7.655
 7600POPC   NC328031  31.468   2.762   9.455
 7600POPC   PO428032  31.504   2.720   9.155
 7600POPC   GL128033  31.493   2.716   8.855
 7600POPC   GL228034  31.496   2.937   8.855
 7600POPC   C1A28035  31.466   2.785   8.555
 7600POPC   D2A28036  31.489   2.722   8.255
 7600POPC   C3A28037  31.492   2.811   7.955
 7600POPC   C4A28038  31.515   2.747   7.655
 7600POPC   C1B28039  31.475   3.062   8.555
 7600POPC   C2B28040  31.483   3.036   8.255
 7600POPC   C3B28041  31.433   3.042   7.955
 7600POPC   C4B28042  31.486   2.999   7.655
 7601POPC   NC328043   1.247  34.604   9.455
 7601POPC   PO428044   1.172  34.588   9.155
 7601POPC   GL128045   1.191  34.597   8.855
 7601POPC   GL228046   1.280  34.473   8.855
 7601POPC   C1A28047   1.235  34.593   8.555
 7601POPC   D2A28048   1.205  34.562   8.255
 7601POPC   C3A28049   1.198  34.590   7.955
 7601POPC   C4A28050   1.244  34.561   7.655
 7601POPC   C1B28051   1.349  34.357   8.555
 7601POPC   C2B28052   1.305  34.357   8.255
 7601POPC   C3B28053   1.329  34.366   7.955
 7601POPC   C4B28054   1.292  34.312   7.655
 7602POPC   NC328055  27.624  35.364   9.455
 7602POPC   PO428056  27.550  35.341   9.155
 7602POPC   GL128057  27.603  35.362   8.855
 7602POPC   GL228058  27.719  35.248   8.855
 7602POPC   C1A28059  27.574  35.318   8.555
 7602POPC   D2A28060  27.557  35.328   8.255
 7602POPC   C3A28061  27.578  35.375   7.955
 7602POPC   C4A28062  27.626  35.367   7.655
 7602POPC   C1B28063  27.797  35.200   8.555
 7602POPC   C2B28064  27.779  35.201   8.255
 7602POPC   C3B28065  27.756  35.149   7.955
 7602POPC   C4B28066  27.782  35.162   7.655
 7603POPC   NC328067  13.596  38.501   9.455
 7603POPC   PO428068  13.592  38.439   9.155
 7603POPC   GL128069  13.603  38.504   8.855
 7603POPC   GL228070  13.553  38.486   8.855
 7603POPC   C1A28071  13.608  38.471   8.555
 7603POPC   D2A28072  13.661  38.492   8.255
 7603POPC   C3A28073  13.671  38.504   7.955
 7603POPC   C4A28074  13.623  38.423   7.655
 7603POPC   C1B28075  13.473  38.559   8.555
 7603POPC   C2B28076  13.403  38.621   8.255
 7603POPC   C3B28077  13.415  38.627   7.955
 7603POPC   C4B28078  13.381  38.623   7.655
 7604POPC   NC328079  26.793  38.431   9.455
 7604POPC   PO428080  26.778  38.502   9.155
 7604POPC   GL128081  26.800  38.432   8.855
 7604POPC   GL228082  26.833  38.582   8.855
 7604POPC   C1A28083  26.848  38.503   8.555
 7604POPC   D2A28084  26.771  38.450   8.255
 7604POPC   C3A28085  26.780  38.434   7.955
 7604POPC   C4A28086  26.784  38.489   7.655
 7604POPC   C1B28087  26.890  38.681   8.555
 7604POPC   C2B28088  26.897  38.679   8.255
 7604POPC   C3B28089  26.840  38.660   7.955
 7604POPC   C4B28090  26.926  38.728   7.655
 7605POPC   NC328091  12.812  15.176   9.455
 7605POPC   PO428092  12.896  15.190   9.155
 7605POPC   GL128093  12.867  15.139   8.855
 7605POPC   GL228094  12.913  15.281   8.855
 7605POPC   C1A28095  12.819  15.216   8.555
 7605POPC   D2A28096  12.834  15.159   8.255
 7605POPC   C3A28097  12.843  15.161   7.955
 7605POPC   C4A28098  12.861  15.174   7.655
 7605POPC   C1B28099  12.969  15.405   8.555
 7605POPC   C2B28100  12.964  15.374   8.255
 7605POPC   C3B28101  12.949  15.380   7.955
 7605POPC   C4B28102  12.986  15.389   7.655
 7606POPC   NC328103   8.231  39.235   9.455
 7606POPC   PO428104   8.225  39.210   9.155
 7606POPC   GL128105   8.222  39.222   8.855
 7606POPC   GL228106   8.160  39.159   8.855
 7606POPC   C1A28107   8.225  39.224   8.555
 7606POPC   D2A28108   8.178  39.202   8.255
 7606POPC   C3A28109   8.149  39.240   7.955
 7606POPC   C4A28110   8.187  39.206   7.655
 7606POPC   C1B28111   8.076  39.053   8.555
 7606POPC   C2B28112   8.020  39.041   8.255
 7606POPC   C3B28113   8.069  39.071   7.955
 7606POPC   C4B28114   8.060  39.031   7.655
 7607POPC   NC328115   9.767  12.067   9.455
 7607POPC   PO428116   9.772  12.087   9.155
 7607POPC   GL128117   9.748  12.092   8.855
 7607POPC   GL228118   9.912  12.096   8.855
 7607POPC   C1A28119   9.722  12.065   8.555
 7607POPC   D2A28120   9.786  12.063   8.255
 7607POPC   C3A28121   9.718  12.102   7.955
 7607POPC   C4A28122   9.775  12.081   7.655
 7607POPC   C1B28123   9.990  12.137   8.555
 7607POPC   C2B28124   9.936  12.202   8.255
 7607POPC   C3B28125   9.958  12.130   7.955
 7607POPC   C4B28126   9.999  12.177   7.655
 7608POPC   NC328127  43.090  44.631   9.455
 7608POPC   PO428128  43.140  44.642   9.155
 7608POPC   GL128129  43.139  44.618   8.855
 7608POPC   GL228130  42.981  44.660   8.855
 7608POPC   C1A28131  43.133  44.631   8.555
 7608POPC   D2A28132  43.079  44.649   8.255
 7608POPC   C3A28133  43.102  44.634   7.955
 7608POPC   C4A28134  43.063  44.676   7.655
 7608POPC   C1B28135  42.829  44.603   8.555
 7608POPC   C2B28136  42.918  44.562   8.255
 7608POPC   C3B28137  42.923  44.615   7.955
 7608POPC   C4B28138  42.873  44.532   7.655
 7609POPC   NC328139   4.285  31.423   9.455
 7609POPC   PO428140   4.364  31.463   9.155
 7609POPC   GL128141   4.271  31.437   8.855
 7609POPC   GL228142   4.328  31.571   8.855
 7609POPC   C1A28143   4.268  31.484   8.555
 7609POPC   D2A28144   4.269  31.424   8.255
 7609POPC   C3A28145   4.303  31.465   7.955
 7609POPC   C4A28146   4.358  31.515   7.655
 7609POPC   C1B28147   4.285  31.711   8.555
 7609POPC   C2B28148   4.319  31.674   8.255
 7609POPC   C3B28149   4.342  31.757   7.955
 7609POPC   C4B28150   4.315  31.742   7.655
 7610POPC   NC328151  11.294  35.386   9.455
 7610POPC   PO428152  11.310  35.335   9.155
 7610POPC   GL128153  11.279  35.322   8.855
 7610POPC   GL228154  11.366  35.438   8.855
 7610POPC   C1A28155  11.323  35.333   8.555
 7610POPC   D2A28156  11.319  35.345   8.255
 7610POPC   C3A28157  11.317  35.333   7.955
 7610POPC   C4A28158  11.274  35.360   7.655
 7610POPC   C1B28159  11.375  35.575   8.555
 7610POPC   C2B28160  11.395  35.563   8.255
 7610POPC   C3B28161  11.351  35.578   7.955
 7610POPC   C4B28162  11.387  35.595   7.655
 7611POPC   NC328163  36.922  43.857   9.455
 7611POPC   PO428164  36.917  43.863   9.155
 7611POPC   GL128165  36.889  43.852   8.855
 7611POPC   GL228166  36.783  43.905   8.855
 7611POPC   C1A28167  36.943  43.903   8.555
 7611POPC   D2A28168  36.930  43.895   8.255
 7611POPC   C3A28169  36.878  43.904   7.955
 7611POPC   C4A28170  36.873  43.919   7.655
 7611POPC   C1B28171  36.617  43.949   8.555
 7611POPC   C2B28172  36.653  43.985   8.255
 7611POPC   C3B28173  36.643  43.935   7.955
 7611POPC   C4B28174  36.642  43.923   7.655
 7612POPC   NC328175   5.867   1.244   9.455
 7612POPC   PO428176   5.847   1.210   9.155
 7612POPC   GL128177   5.888   1.236   8.855
 7612POPC   GL228178   5.818   1.320   8.855
 7612POPC   C1A28179   5.879   1.243   8.555
 7612POPC   D2A28180   5.864   1.247   8.255
 7612POPC   C3A28181   5.902   1.244   7.955
 7612POPC   C4A28182   5.844   1.231   7.655
 7612POPC   C1B28183   5.711   1.413   8.555
 7612POPC   C2B28184   5.705   1.403   8.255
 7612POPC   C3B28185   5.669   1.327   7.955
 7612POPC   C4B28186   5.672   1.367   7.655
 7613POPC   NC328187  22.167  26.053   9.455
 7613POPC   PO428188  22.187  26.004   9.155
 7613POPC   GL128189  22.174  26.007   8.855
 7613POPC   GL228190  22.273  26.012   8.855
 7613POPC   C1A28191  22.157  26.059   8.555
 7613POPC   D2A28192  22.182  26.029   8.255
 7613POPC   C3A28193  22.123  26.051   7.955
 7613POPC   C4A28194  22.152  25.997   7.655
 7613POPC   C1B28195  22.444  26.100   8.555
 7613POPC   C2B28196  22.412  26.103   8.255
 7613POPC   C3B28197  22.363  26.023   7.955
 7613POPC   C4B28198  22.458  26.084   7.655
 7614POPC   NC328199  32.212  44.692   9.455
 7614POPC   PO428200  32.294  44.686   9.155
 7614POPC   GL128201  32.210  44.708   8.855
 7614POPC   GL228202  32.116  44.725   8.855
 7614POPC   C1A28203  32.282  44.689   8.555
 7614POPC   D2A28204  32.263  44.678   8.255
 7614POPC   C3A28205  32.210  44.623   7.955
 7614POPC   C4A28206  32.211  44.618   7.655
 7614POPC   C1B28207  32.079  44.780   8.555
 7614POPC   C2B28208  32.057  44.768   8.255
 7614POPC   C3B28209  32.073  44.791   7.955
 7614POPC   C4B28210  32.010  44.773   7.655
 7615POPC   NC328211  14.406  31.471   9.455
 7615POPC   PO428212  14.397  31.436   9.155
 7615POPC   GL128213  14.377  31.481   8.855
 7615POPC   GL228214  14.541  31.488   8.855
 7615POPC   C1A28215  14.361  31.513   8.555
 7615POPC   D2A28216  14.397  31.521   8.255
 7615POPC   C3A28217  14.389  31.469   7.955
 7615POPC   C4A28218  14.355  31.498   7.655
 7615POPC   C1B28219  14.636  31.414   8.555
 7615POPC   C2B28220  14.677  31.373   8.255
 7615POPC   C3B28221  14.667  31.412   7.955
 7615POPC   C4B28222  14.687  31.386   7.655
 7616POPC   NC328223   5.883  17.460   9.455
 7616POPC   PO428224   5.854  17.474   9.155
 7616POPC   GL128225   5.831  17.500   8.855
 7616POPC   GL228226   5.906  17.640   8.855
 7616POPC   C1A28227   5.834  17.525   8.555
 7616POPC   D2A28228   5.906  17.478   8.255
 7616POPC   C3A28229   5.915  17.511   7.955
 7616POPC   C4A28230   5.913  17.489   7.655
 7616POPC   C1B28231   5.848  17.744   8.555
 7616POPC   C2B28232   5.871  17.754   8.255
 7616POPC   C3B28233   5.905  17.746   7.955
 7616POPC   C4B28234   5.826  17.717   7.655
 7617POPC   NC328235   2.766   9.020   9.455
 7617POPC   PO428236   2.775   8.936   9.155
 7617POPC   GL128237   2.756   8.955   8.855
 7617POPC   GL228238   2.890   8.884   8.855
 7617POPC   C1A28239   2.731   8.945   8.555
 7617POPC   D2A28240   2.786   8.999   8.255
 7617POPC   C3A28241   2.750   8.982   7.955
 7617POPC   C4A28242   2.774   8.933   7.655
 7617POPC   C1B28243   3.045   8.890   8.555
 7617POPC   C2B28244   3.045   8.904   8.255
 7617POPC   C3B28245   3.044   8.843   7.955
 7617POPC   C4B28246   3.026   8.861   7.655
 7618POPC   NC328247  44.661  16.735   9.455
 7618POPC   PO428248  44.701  16.697   9.155
 7618POPC   GL128249  44.704  16.691   8.855
 7618POPC   GL228250  44.696  16.630   8.855
 7618POPC   C1A28251  44.654  16.736   8.555
 7618POPC   D2A28252  44.674  16.756   8.255
 7618POPC   C3A28253  44.615  16.728   7.955
 7618POPC   C4A28254  44.629  16.681   7.655
 7618POPC   C1B28255  44.597  16.482   8.555
 7618POPC   C2B28256  44.602  16.516   8.255
 7618POPC   C3B28257  44.650  16.518   7.955
 7618POPC   C4B28258  44.605  16.437   7.655
 7619POPC   NC328259  25.313  23.707   9.455
 7619POPC   PO428260  25.290  23.710   9.155
 7619POPC   GL128261  25.286  23.756   8.855
 7619POPC   GL228262  25.148  23.625   8.855
 7619POPC   C1A28263  25.265  23.703   8.555
 7619POPC   D2A28264  25.300  23.711   8.255
 7619POPC   C3A28265  25.269  23.672   7.955
 7619POPC   C4A28266  25.281  23.674   7.655
 7619POPC   C1B28267  25.035  23.516   8.555
 7619POPC   C2B28268  25.052  23.592   8.255
 7619POPC   C3B28269  25.039  23.502   7.955
 7619POPC   C4B28270  25.069  23.585   7.655
 7620POPC   NC328271  35.369  26.808   9.455
 7620POPC   PO428272  35.364  26.781   9.155
 7620POPC   GL128273  35.316  26.810   8.855
 7620POPC   GL228274  35.246  26.941   8.855
 7620POPC   C1A28275  35.332  26.851   8.555
 7620POPC   D2A28276  35.401  26.812   8.255
 7620POPC   C3A28277  35.315  26.837   7.955
 7620POPC   C4A28278  35.326  26.844   7.655
 7620POPC   C1B28279  35.201  26.972   8.555
 7620POPC   C2B28280  35.193  27.017   8.255
 7620POPC   C3B28281  35.124  26.982   7.955
 7620POPC   C4B28282  35.168  26.983   7.655
 7621POPC   NC328283  34.565  22.204   9.455
 7621POPC   PO428284  34.608  22.194   9.155
 7621POPC   GL128285  34.534  22.149   8.855
 7621POPC   GL228286  34.544  22.321   8.855
 7621POPC   C1A28287  34.620  22.192   8.555
 7621POPC   D2A28288  34.601  22.120   8.255
 7621POPC   C3A28289  34.597  22.206   7.955
 7621POPC   C4A28290  34.617  22.165   7.655
 7621POPC   C1B28291  34.522  22.443   8.555
 7621POPC   C2B28292  34.542  22.406   8.255
 7621POPC   C3B28293  34.485  22.397   7.955
 7621POPC   C4B28294  34.553  22.438   7.655
 7622POPC   NC328295  12.077  44.635   9.455
 7622POPC   PO428296  12.080  44.636   9.155
 7622POPC   GL128297  12.056  44.675   8.855
 7622POPC   GL228298  12.104  44.542   8.855
 7622POPC   C1A28299  12.086  44.649   8.555
 7622POPC   D2A28300  12.041  44.623   8.255
 7622POPC   C3A28301  12.124  44.649   7.955
 7622POPC   C4A28302  12.034  44.636   7.655
 7622POPC   C1B28303  12.230  44.470   8.555
 7622POPC   C2B28304  12.256  44.457   8.255
 7622POPC   C3B28305  12.225  44.471   7.955
 7622POPC   C4B28306  12.260  44.451   7.655
 7623POPC   NC328307  28.371  12.852   9.455
 7623POPC   PO428308  28.401  12.814   9.155
 7623POPC   GL128309  28.320  12.809   8.855
 7623POPC   GL228310  28.446  12.853   8.855
 7623POPC   C1A28311  28.363  12.857   8.555
 7623POPC   D2A28312  28.362  12.834   8.255
 7623POPC   C3A28313  28.388  12.836   7.955
 7623POPC   C4A28314  28.323  12.876   7.655
 7623POPC   C1B28315  28.628  12.738   8.555
 7623POPC   C2B28316  28.578  12.731   8.255
 7623POPC   C3B28317  28.642  12.767   7.955
 7623POPC   C4B28318  28.586  12.785   7.655
 7624POPC   NC328319   2.746  31.431   9.455
 7624POPC   PO428320   2.803  31.500   9.155
 7624POPC   GL128321   2.790  31.472   8.855
 7624POPC   GL228322   2.909  31.428   8.855
 7624POPC   C1A28323   2.793  31.458   8.555
 7624POPC   D2A28324   2.752  31.426   8.255
 7624POPC   C3A28325   2.748  31.481   7.955
 7624POPC   C4A28326   2.790  31.489   7.655
 7624POPC   C1B28327   2.955  31.330   8.555
 7624POPC   C2B28328   2.963  31.331   8.255
 7624POPC   C3B28329   2.949  31.320   7.955
 7624POPC   C4B28330   3.000  31.285   7.655
 7625POPC   NC328331   6.686  29.895   9.455
 7625POPC   PO428332   6.632  29.945   9.155
 7625POPC   GL128333   6.680  29.940   8.855
 7625POPC   GL228334   6.570  29.845   8.855
 7625POPC   C1A28335   6.656  29.877   8.555
 7625POPC   D2A28336   6.676  29.890   8.255
 7625POPC   C3A28337   6.658  29.937   7.955
 7625POPC   C4A28338   6.627  29.953   7.655
 7625POPC   C1B28339   6.443  29.769   8.555
 7625POPC   C2B28340   6.482  29.814   8.255
 7625POPC   C3B28341   6.480  29.821   7.955
 7625POPC   C4B28342   6.438  29.777   7.655
 7626POPC   NC328343  18.251  12.828   9.455
 7626POPC   PO428344  18.264  12.892   9.155
 7626POPC   GL128345  18.320  12.845   8.855
 7626POPC   GL228346  18.201  12.739   8.855
 7626POPC   C1A28347  18.294  12.849   8.555
 7626POPC   D2A28348  18.313  12.857   8.255
 7626POPC   C3A28349  18.251  12.877   7.955
 7626POPC   C4A28350  18.241  12.852   7.655
 7626POPC   C1B28351  18.172  12.680   8.555
 7626POPC   C2B28352  18.166  12.616   8.255
 7626POPC   C3B28353  18.144  12.670   7.955
 7626POPC   C4B28354  18.120  12.625   7.655
 7627POPC   NC328355  40.028   2.808   9.455
 7627POPC   PO428356  40.035   2.752   9.155
 7627POPC   GL128357  40.021   2.783   8.855
 7627POPC   GL228358  39.971   2.663   8.855
 7627POPC   C1A28359  39.966   2.810   8.555
 7627POPC   D2A28360  40.034   2.784   8.255
 7627POPC   C3A28361  40.006   2.808   7.955
 7627POPC   C4A28362  39.974   2.785   7.655
 7627POPC   C1B28363  39.843   2.575   8.555
 7627POPC   C2B28364  39.871   2.555   8.255
 7627POPC   C3B28365  39.833   2.579   7.955
 7627POPC   C4B28366  39.858   2.600   7.655
 7628POPC   NC328367  30.719  17.482   9.455
 7628POPC   PO428368  30.662  17.544   9.155
 7628POPC   GL128369  30.689  17.526   8.855
 7628POPC   GL228370  30.597  17.496   8.855
 7628POPC   C1A28371  30.718  17.538   8.555
 7628POPC   D2A28372  30.727  17.523   8.255
 7628POPC   C3A28373  30.719  17.544   7.955
 7628POPC   C4A28374  30.744  17.507   7.655
 7628POPC   C1B28375  30.432  17.596   8.555
 7628POPC   C2B28376  30.470  17.554   8.255
 7628POPC   C3B28377  30.430  17.591   7.955
 7628POPC   C4B28378  30.416  17.592   7.655
 7629POPC   NC328379  33.781  15.151   9.455
 7629POPC   PO428380  33.802  15.175   9.155
 7629POPC   GL128381  33.831  15.176   8.855
 7629POPC   GL228382  33.646  15.204   8.855
 7629POPC   C1A28383  33.826  15.171   8.555
 7629POPC   D2A28384  33.790  15.131   8.255
 7629POPC   C3A28385  33.751  15.213   7.955
 7629POPC   C4A28386  33.794  15.195   7.655
 7629POPC   C1B28387  33.572  15.309   8.555
 7629POPC   C2B28388  33.596  15.244   8.255
 7629POPC   C3B28389  33.534  15.278   7.955
 7629POPC   C4B28390  33.572  15.286   7.655
 7630POPC   NC328391   3.539  39.204   9.455
 7630POPC   PO428392   3.534  39.192   9.155
 7630POPC   GL128393   3.528  39.253   8.855
 7630POPC   GL228394   3.452  39.302   8.855
 7630POPC   C1A28395   3.582  39.208   8.555
 7630POPC   D2A28396   3.553  39.197   8.255
 7630POPC   C3A28397   3.567  39.200   7.955
 7630POPC   C4A28398   3.539  39.226   7.655
 7630POPC   C1B28399   3.380  39.439   8.555
 7630POPC   C2B28400   3.326  39.442   8.255
 7630POPC   C3B28401   3.397  39.434   7.955
 7630POPC   C4B28402   3.386  39.422   7.655
 7631POPC   NC328403  36.148  15.930   9.455
 7631POPC   PO428404  36.112  15.921   9.155
 7631POPC   GL128405  36.116  15.980   8.855
 7631POPC   GL228406  36.258  15.879   8.855
 7631POPC   C1A28407  36.144  15.965   8.555
 7631POPC   D2A28408  36.105  15.953   8.255
 7631POPC   C3A28409  36.101  15.958   7.955
 7631POPC   C4A28410  36.127  15.913   7.655
 7631POPC   C1B28411  36.411  15.888   8.555
 7631POPC   C2B28412  36.393  15.914   8.255
 7631POPC   C3B28413  36.333  15.881   7.955
 7631POPC   C4B28414  36.334  15.897   7.655
 7632POPC   NC328415  36.918  20.576   9.455
 7632POPC   PO428416  36.910  20.635   9.155
 7632POPC   GL128417  36.885  20.636   8.855
 7632POPC   GL228418  37.006  20.722   8.855
 7632POPC   C1A28419  36.923  20.594   8.555
 7632POPC   D2A28420  36.908  20.589   8.255
 7632POPC   C3A28421  36.922  20.581   7.955
 7632POPC   C4A28422  36.865  20.561   7.655
 7632POPC   C1B28423  37.129  20.767   8.555
 7632POPC   C2B28424  37.093  20.768   8.255
 7632POPC   C3B28425  37.069  20.724   7.955
 7632POPC   C4B28426  37.100  20.722   7.655
 7633POPC   NC328427  25.311  21.392   9.455
 7633POPC   PO428428  25.227  21.354   9.155
 7633POPC   GL128429  25.246  21.362   8.855
 7633POPC   GL228430  25.302  21.499   8.855
 7633POPC   C1A28431  25.252  21.368   8.555
 7633POPC   D2A28432  25.230  21.390   8.255
 7633POPC   C3A28433  25.281  21.398   7.955
 7633POPC   C4A28434  25.287  21.356   7.655
 7633POPC   C1B28435  25.319  21.609   8.555
 7633POPC   C2B28436  25.286  21.651   8.255
 7633POPC   C3B28437  25.341  21.584   7.955
 7633POPC   C4B28438  25.288  21.661   7.655
 7634POPC   NC328439  19.012  22.196   9.455
 7634POPC   PO428440  19.029  22.157   9.155
 7634POPC   GL128441  19.012  22.175   8.855
 7634POPC   GL228442  19.069  22.237   8.855
 7634POPC   C1A28443  19.090  22.165   8.555
 7634POPC   D2A28444  19.056  22.133   8.255
 7634POPC   C3A28445  19.012  22.140   7.955
 7634POPC   C4A28446  19.043  22.140   7.655
 7634POPC   C1B28447  19.148  22.378   8.555
 7634POPC   C2B28448  19.144  22.393   8.255
 7634POPC   C3B28449  19.076  22.358   7.955
 7634POPC   C4B28450  19.143  22.422   7.655
 7635POPC   NC328451  14.360   9.718   9.455
 7635POPC   PO428452  14.417   9.781   9.155
 7635POPC   GL128453  14.442   9.786   8.855
 7635POPC   GL228454  14.358   9.873   8.855
 7635POPC   C1A28455  14.429   9.722   8.555
 7635POPC   D2A28456  14.414   9.722   8.255
 7635POPC   C3A28457  14.431   9.749   7.955
 7635POPC   C4A28458  14.428   9.786   7.655
 7635POPC   C1B28459  14.374   9.977   8.555
 7635POPC   C2B28460  14.308  10.037   8.255
 7635POPC   C3B28461  14.319   9.980   7.955
 7635POPC   C4B28462  14.308   9.969   7.655
 7636POPC   NC328463  13.594   6.688   9.455
 7636POPC   PO428464  13.669   6.693   9.155
 7636POPC   GL128465  13.597   6.640   8.855
 7636POPC   GL228466  13.549   6.608   8.855
 7636POPC   C1A28467  13.634   6.615   8.555
 7636POPC   D2A28468  13.639   6.682   8.255
 7636POPC   C3A28469  13.583   6.626   7.955
 7636POPC   C4A28470  13.599   6.648   7.655
 7636POPC   C1B28471  13.336   6.610   8.555
 7636POPC   C2B28472  13.359   6.662   8.255
 7636POPC   C3B28473  13.400   6.687   7.955
 7636POPC   C4B28474  13.424   6.597   7.655
 7637POPC   NC328475   5.052  30.718   9.455
 7637POPC   PO428476   5.063  30.663   9.155
 7637POPC   GL128477   5.109  30.667   8.855
 7637POPC   GL228478   5.262  30.728   8.855
 7637POPC   C1A28479   5.139  30.743   8.555
 7637POPC   D2A28480   5.122  30.684   8.255
 7637POPC   C3A28481   5.045  30.667   7.955
 7637POPC   C4A28482   5.117  30.700   7.655
 7637POPC   C1B28483   5.362  30.712   8.555
 7637POPC   C2B28484   5.342  30.719   8.255
 7637POPC   C3B28485   5.365  30.665   7.955
 7637POPC   C4B28486   5.334  30.652   7.655
 7638POPC   NC328487  43.897  20.650   9.455
 7638POPC   PO428488  43.934  20.597   9.155
 7638POPC   GL128489  43.873  20.581   8.855
 7638POPC   GL228490  43.887  20.450   8.855
 7638POPC   C1A28491  43.920  20.645   8.555
 7638POPC   D2A28492  43.851  20.582   8.255
 7638POPC   C3A28493  43.909  20.565   7.955
 7638POPC   C4A28494  43.917  20.647   7.655
 7638POPC   C1B28495  43.907  20.324   8.555
 7638POPC   C2B28496  43.901  20.388   8.255
 7638POPC   C3B28497  43.879  20.366   7.955
 7638POPC   C4B28498  43.905  20.369   7.655
 7639POPC   NC328499  39.245  39.979   9.455
 7639POPC   PO428500  39.191  39.986   9.155
 7639POPC   GL128501  39.181  40.053   8.855
 7639POPC   GL228502  39.172  40.159   8.855
 7639POPC   C1A28503  39.214  40.029   8.555
 7639POPC   D2A28504  39.254  40.042   8.255
 7639POPC   C3A28505  39.204  40.050   7.955
 7639POPC   C4A28506  39.237  39.998   7.655
 7639POPC   C1B28507  39.144  40.219   8.555
 7639POPC   C2B28508  39.146  40.200   8.255
 7639POPC   C3B28509  39.161  40.202   7.955
 7639POPC   C4B28510  39.081  40.216   7.655
 7640POPC   NC328511  40.743   5.132   9.455
 7640POPC   PO428512  40.749   5.090   9.155
 7640POPC   GL128513  40.741   5.093   8.855
 7640POPC   GL228514  40.927   5.006   8.855
 7640POPC   C1A28515  40.781   5.093   8.555
 7640POPC   D2A28516  40.764   5.132   8.255
 7640POPC   C3A28517  40.830   5.131   7.955
 7640POPC   C4A28518  40.770   5.096   7.655
 7640POPC   C1B28519  41.002   4.995   8.555
 7640POPC   C2B28520  41.055   4.950   8.255
 7640POPC   C3B28521  41.044   4.960   7.955
 7640POPC   C4B28522  40.975   4.976   7.655
 7641POPC   NC328523  36.926  40.818   9.455
 7641POPC   PO428524  36.865  40.767   9.155
 7641POPC   GL128525  36.863  40.765   8.855
 7641POPC   GL228526  37.015  40.823   8.855
 7641POPC   C1A28527  36.947  40.780   8.555
 7641POPC   D2A28528  36.892  40.758   8.255
 7641POPC   C3A28529  36.900  40.774   7.955
 7641POPC   C4A28530  36.929  40.753   7.655
 7641POPC   C1B28531  37.202  40.803   8.555
 7641POPC   C2B28532  37.137  40.809   8.255
 7641POPC   C3B28533  37.161  40.756   7.955
 7641POPC   C4B28534  37.130  40.742   7.655
 7642POPC   NC328535  10.504  19.071   9.455
 7642POPC   PO428536  10.506  19.074   9.155
 7642POPC   GL128537  10.565  19.080   8.855
 7642POPC   GL228538  10.442  19.019   8.855
 7642POPC   C1A28539  10.556  19.080   8.555
 7642POPC   D2A28540  10.518  19.066   8.255
 7642POPC   C3A28541  10.536  19.013   7.955
 7642POPC   C4A28542  10.508  19.014   7.655
 7642POPC   C1B28543  10.234  19.065   8.555
 7642POPC   C2B28544  10.315  18.986   8.255
 7642POPC   C3B28545  10.295  19.026   7.955
 7642POPC   C4B28546  10.239  19.035   7.655
 7643POPC   NC328547  43.850   2.804   9.455
 7643POPC   PO428548  43.867   2.778   9.155
 7643POPC   GL128549  43.847   2.719   8.855
 7643POPC   GL228550  43.815   2.822   8.855
 7643POPC   C1A28551  43.900   2.793   8.555
 7643POPC   D2A28552  43.844   2.719   8.255
 7643POPC   C3A28553  43.855   2.778   7.955
 7643POPC   C4A28554  43.902   2.776   7.655
 7643POPC   C1B28555  43.621   2.913   8.555
 7643POPC   C2B28556  43.693   2.855   8.255
 7643POPC   C3B28557  43.670   2.906   7.955
 7643POPC   C4B28558  43.628   2.854   7.655
 7644POPC   NC328559   3.522   9.796   9.455
 7644POPC   PO428560   3.582   9.739   9.155
 7644POPC   GL128561   3.565   9.703   8.855
 7644POPC   GL228562   3.617   9.771   8.855
 7644POPC   C1A28563   3.541   9.752   8.555
 7644POPC   D2A28564   3.536   9.744   8.255
 7644POPC   C3A28565   3.509   9.712   7.955
 7644POPC   C4A28566   3.520   9.736   7.655
 7644POPC   C1B28567   3.797   9.828   8.555
 7644POPC   C2B28568   3.727   9.880   8.255
 7644POPC   C3B28569   3.798   9.816   7.955
 7644POPC   C4B28570   3.794   9.846   7.655
 7645POPC   NC328571  37.721  13.634   9.455
 7645POPC   PO428572  37.634  13.596   9.155
 7645POPC   GL128573  37.707  13.647   8.855
 7645POPC   GL228574  37.639  13.480   8.855
 7645POPC   C1A28575  37.722  13.607   8.555
 7645POPC   D2A28576  37.728  13.645   8.255
 7645POPC   C3A28577  37.714  13.655   7.955
 7645POPC   C4A28578  37.666  13.586   7.655
 7645POPC   C1B28579  37.644  13.378   8.555
 7645POPC   C2B28580  37.634  13.413   8.255
 7645POPC   C3B28581  37.659  13.363   7.955
 7645POPC   C4B28582  37.695  13.400   7.655
 7646POPC   NC328583  16.710  16.760   9.455
 7646POPC   PO428584  16.757  16.740   9.155
 7646POPC   GL128585  16.732  16.776   8.855
 7646POPC   GL228586  16.733  16.893   8.855
 7646POPC   C1A28587  16.683  16.697   8.555
 7646POPC   D2A28588  16.772  16.748   8.255
 7646POPC   C3A28589  16.738  16.771   7.955
 7646POPC   C4A28590  16.713  16.773   7.655
 7646POPC   C1B28591  16.649  16.938   8.555
 7646POPC   C2B28592  16.616  16.923   8.255
 7646POPC   C3B28593  16.623  16.988   7.955
 7646POPC   C4B28594  16.670  16.968   7.655
 7647POPC   NC328595  39.232  13.676   9.455
 7647POPC   PO428596  39.221  13.609   9.155
 7647POPC   GL128597  39.223  13.595   8.855
 7647POPC   GL228598  39.388  13.582   8.855
 7647POPC   C1A28599  39.247  13.637   8.555
 7647POPC   D2A28600  39.245  13.580   8.255
 7647POPC   C3A28601  39.266  13.629   7.955
 7647POPC   C4A28602  39.275  13.626   7.655
 7647POPC   C1B28603  39.477  13.603   8.555
 7647POPC   C2B28604  39.434  13.551   8.255
 7647POPC   C3B28605  39.446  13.577   7.955
 7647POPC   C4B28606  39.456  13.618   7.655
 7648POPC   NC328607   2.730  33.030   9.455
 7648POPC   PO428608   2.746  33.013   9.155
 7648POPC   GL128609   2.734  33.016   8.855
 7648POPC   GL228610   2.727  32.888   8.855
 7648POPC   C1A28611   2.788  33.072   8.555
 7648POPC   D2A28612   2.808  33.039   8.255
 7648POPC   C3A28613   2.777  32.994   7.955
 7648POPC   C4A28614   2.804  32.990   7.655
 7648POPC   C1B28615   2.589  32.806   8.555
 7648POPC   C2B28616   2.591  32.832   8.255
 7648POPC   C3B28617   2.585  32.791   7.955
 7648POPC   C4B28618   2.667  32.854   7.655
 7649POPC   NC328619  18.311  27.545   9.455
 7649POPC   PO428620  18.291  27.546   9.155
 7649POPC   GL128621  18.332  27.591   8.855
 7649POPC   GL228622  18.158  27.522   8.855
 7649POPC   C1A28623  18.275  27.588   8.555
 7649POPC   D2A28624  18.306  27.573   8.255
 7649POPC   C3A28625  18.277  27.632   7.955
 7649POPC   C4A28626  18.306  27.622   7.655
 7649POPC   C1B28627  18.132  27.408   8.555
 7649POPC   C2B28628  18.138  27.413   8.255
 7649POPC   C3B28629  18.157  27.361   7.955
 7649POPC   C4B28630  18.072  27.399   7.655
 7650POPC   NC328631  31.484  18.300   9.455
 7650POPC   PO428632  31.440  18.327   9.155
 7650POPC   GL128633  31.517  18.310   8.855
 7650POPC   GL228634  31.577  18.199   8.855
 7650POPC   C1A28635  31.455  18.331   8.555
 7650POPC   D2A28636  31.516  18.268   8.255
 7650POPC   C3A28637  31.511  18.326   7.955
 7650POPC   C4A28638  31.510  18.308   7.655
 7650POPC   C1B28639  31.607  18.104   8.555
 7650POPC   C2B28640  31.606  18.054   8.255
 7650POPC   C3B28641  31.664  18.076   7.955
 7650POPC   C4B28642  31.597  18.118   7.655
 7651POPC   NC328643  10.559  19.866   9.455
 7651POPC   PO428644  10.518  19.824   9.155
 7651POPC   GL128645  10.515  19.838   8.855
 7651POPC   GL228646  10.680  19.777   8.855
 7651POPC   C1A28647  10.510  19.825   8.555
 7651POPC   D2A28648  10.491  19.805   8.255
 7651POPC   C3A28649  10.549  19.870   7.955
 7651POPC   C4A28650  10.527  19.865   7.655
 7651POPC   C1B28651  10.805  19.796   8.555
 7651POPC   C2B28652  10.723  19.778   8.255
 7651POPC   C3B28653  10.814  19.803   7.955
 7651POPC   C4B28654  10.812  19.770   7.655
 7652POPC   NC328655   8.157  22.923   9.455
 7652POPC   PO428656   8.150  22.954   9.155
 7652POPC   GL128657   8.176  22.939   8.855
 7652POPC   GL228658   8.269  23.023   8.855
 7652POPC   C1A28659   8.232  22.969   8.555
 7652POPC   D2A28660   8.208  22.967   8.255
 7652POPC   C3A28661   8.174  22.966   7.955
 7652POPC   C4A28662   8.148  22.955   7.655
 7652POPC   C1B28663   8.331  23.165   8.555
 7652POPC   C2B28664   8.240  23.213   8.255
 7652POPC   C3B28665   8.263  23.176   7.955
 7652POPC   C4B28666   8.327  23.154   7.655
 7653POPC   NC328667  22.921   8.950   9.455
 7653POPC   PO428668  22.945   8.994   9.155
 7653POPC   GL128669  22.938   8.955   8.855
 7653POPC   GL228670  22.920   8.837   8.855
 7653POPC   C1A28671  22.950   8.938   8.555
 7653POPC   D2A28672  22.987   8.943   8.255
 7653POPC   C3A28673  22.933   8.975   7.955
 7653POPC   C4A28674  22.918   8.935   7.655
 7653POPC   C1B28675  22.947   8.756   8.555
 7653POPC   C2B28676  22.913   8.713   8.255
 7653POPC   C3B28677  22.977   8.683   7.955
 7653POPC   C4B28678  22.971   8.764   7.655
 7654POPC   NC328679  40.817  43.147   9.455
 7654POPC   PO428680  40.778  43.092   9.155
 7654POPC   GL128681  40.809  43.118   8.855
 7654POPC   GL228682  40.895  43.159   8.855
 7654POPC   C1A28683  40.743  43.111   8.555
 7654POPC   D2A28684  40.821  43.099   8.255
 7654POPC   C3A28685  40.737  43.125   7.955
 7654POPC   C4A28686  40.825  43.095   7.655
 7654POPC   C1B28687  41.026  43.194   8.555
 7654POPC   C2B28688  41.009  43.143   8.255
 7654POPC   C3B28689  40.998  43.194   7.955
 7654POPC   C4B28690  40.987  43.161   7.655
 7655POPC   NC328691   9.704  33.765   9.455
 7655POPC   PO428692   9.738  33.751   9.155
 7655POPC   GL128693   9.715  33.772   8.855
 7655POPC   GL228694   9.764  33.872   8.855
 7655POPC   C1A28695   9.760  33.802   8.555
 7655POPC   D2A28696   9.795  33.791   8.255
 7655POPC   C3A28697   9.798  33.766   7.955
 7655POPC   C4A28698   9.757  33.778   7.655
 7655POPC   C1B28699   9.796  34.082   8.555
 7655POPC   C2B28700   9.830  34.070   8.255
 7655POPC   C3B28701   9.799  34.053   7.955
 7655POPC   C4B28702   9.865  34.055   7.655
 7656POPC   NC328703  28.393  39.242   9.455
 7656POPC   PO428704  28.410  39.236   9.155
 7656POPC   GL128705  28.349  39.222   8.855
 7656POPC   GL228706  28.274  39.099   8.855
 7656POPC   C1A28707  28.416  39.254   8.555
 7656POPC   D2A28708  28.386  39.186   8.255
 7656POPC   C3A28709  28.404  39.275   7.955
 7656POPC   C4A28710  28.414  39.195   7.655
 7656POPC   C1B28711  28.233  39.018   8.555
 7656POPC   C2B28712  28.272  39.010   8.255
 7656POPC   C3B28713  28.192  38.975   7.955
 7656POPC   C4B28714  28.221  38.989   7.655
 7657POPC   NC328715   8.930  44.613   9.455
 7657POPC   PO428716   9.000  44.684   9.155
 7657POPC   GL128717   8.990  44.667   8.855
 7657POPC   GL228718   8.974  44.815   8.855
 7657POPC   C1A28719   8.934  44.633   8.555
 7657POPC   D2A28720   8.991  44.651   8.255
 7657POPC   C3A28721   8.955  44.616   7.955
 7657POPC   C4A28722   9.001  44.631   7.655
 7657POPC   C1B28723   8.982  44.891   8.555
 7657POPC   C2B28724   8.957  44.887   8.255
 7657POPC   C3B28725   8.893  44.916   7.955
 7657POPC   C4B28726   8.975  44.948   7.655
 7658POPC   NC328727  20.583   6.632   9.455
 7658POPC   PO428728  20.579   6.679   9.155
 7658POPC   GL128729  20.568   6.611   8.855
 7658POPC   GL228730  20.582   6.503   8.855
 7658POPC   C1A28731  20.647   6.622   8.555
 7658POPC   D2A28732  20.591   6.620   8.255
 7658POPC   C3A28733  20.571   6.668   7.955
 7658POPC   C4A28734  20.566   6.614   7.655
 7658POPC   C1B28735  20.659   6.383   8.555
 7658POPC   C2B28736  20.664   6.430   8.255
 7658POPC   C3B28737  20.643   6.440   7.955
 7658POPC   C4B28738  20.626   6.375   7.655
 7659POPC   NC328739  30.669   0.412   9.455
 7659POPC   PO428740  30.652   0.408   9.155
 7659POPC   GL128741  30.656   0.391   8.855
 7659POPC   GL228742  30.723   0.351   8.855
 7659POPC   C1A28743  30.708   0.463   8.555
 7659POPC   D2A28744  30.720   0.437   8.255
 7659POPC   C3A28745  30.667   0.478   7.955
 7659POPC   C4A28746  30.718   0.428   7.655
 7659POPC   C1B28747  30.741   0.228   8.555
 7659POPC   C2B28748  30.742   0.173   8.255
 7659POPC   C3B28749  30.741   0.232   7.955
 7659POPC   C4B28750  30.745   0.182   7.655
 7660POPC   NC328751  41.572  41.555   9.455
 7660POPC   PO428752  41.549  41.585   9.155
 7660POPC   GL128753  41.583  41.536   8.855
 7660POPC   GL228754  41.416  41.635   8.855
 7660POPC   C1A28755  41.572  41.594   8.555
 7660POPC   D2A28756  41.519  41.606   8.255
 7660POPC   C3A28757  41.516  41.598   7.955
 7660POPC   C4A28758  41.584  41.600   7.655
 7660POPC   C1B28759  41.316  41.717   8.555
 7660POPC   C2B28760  41.377  41.691   8.255
 7660POPC   C3B28761  41.305  41.639   7.955
 7660POPC   C4B28762  41.351  41.699   7.655
 7661POPC   NC328763  21.422  38.467   9.455
 7661POPC   PO428764  21.430  38.464   9.155
 7661POPC   GL128765  21.422  38.467   8.855
 7661POPC   GL228766  21.345  38.345   8.855
 7661POPC   C1A28767  21.351  38.491   8.555
 7661POPC   D2A28768  21.431  38.455   8.255
 7661POPC   C3A28769  21.401  38.418   7.955
 7661POPC   C4A28770  21.407  38.472   7.655
 7661POPC   C1B28771  21.251  38.186   8.555
 7661POPC   C2B28772  21.340  38.177   8.255
 7661POPC   C3B28773  21.278  38.229   7.955
 7661POPC   C4B28774  21.297  38.204   7.655
 7662POPC   NC328775  25.290   5.119   9.455
 7662POPC   PO428776  25.250   5.075   9.155
 7662POPC   GL128777  25.271   5.119   8.855
 7662POPC   GL228778  25.360   5.166   8.855
 7662POPC   C1A28779  25.306   5.118   8.555
 7662POPC   D2A28780  25.308   5.128   8.255
 7662POPC   C3A28781  25.222   5.120   7.955
 7662POPC   C4A28782  25.258   5.067   7.655
 7662POPC   C1B28783  25.481   5.292   8.555
 7662POPC   C2B28784  25.430   5.288   8.255
 7662POPC   C3B28785  25.481   5.257   7.955
 7662POPC   C4B28786  25.467   5.303   7.655
 7663POPC   NC328787   5.873  30.681   9.455
 7663POPC   PO428788   5.844  30.740   9.155
 7663POPC   GL128789   5.912  30.727   8.855
 7663POPC   GL228790   5.961  30.665   8.855
 7663POPC   C1A28791   5.903  30.682   8.555
 7663POPC   D2A28792   5.882  30.694   8.255
 7663POPC   C3A28793   5.917  30.681   7.955
 7663POPC   C4A28794   5.855  30.661   7.655
 7663POPC   C1B28795   6.112  30.648   8.555
 7663POPC   C2B28796   6.103  30.644   8.255
 7663POPC   C3B28797   6.151  30.667   7.955
 7663POPC   C4B28798   6.085  30.702   7.655
 7664POPC   NC328799  23.724  36.863   9.455
 7664POPC   PO428800  23.705  36.935   9.155
 7664POPC   GL128801  23.680  36.923   8.855
 7664POPC   GL228802  23.696  36.994   8.855
 7664POPC   C1A28803  23.704  36.941   8.555
 7664POPC   D2A28804  23.701  36.895   8.255
 7664POPC   C3A28805  23.667  36.854   7.955
 7664POPC   C4A28806  23.692  36.916   7.655
 7664POPC   C1B28807  23.633  37.123   8.555
 7664POPC   C2B28808  23.608  37.109   8.255
 7664POPC   C3B28809  23.612  37.118   7.955
 7664POPC   C4B28810  23.637  37.159   7.655
 7665POPC   NC328811  43.069  43.867   9.455
 7665POPC   PO428812  43.064  43.857   9.155
 7665POPC   GL128813  43.136  43.900   8.855
 7665POPC   GL228814  43.134  43.767   8.855
 7665POPC   C1A28815  43.082  43.924   8.555
 7665POPC   D2A28816  43.152  43.878   8.255
 7665POPC   C3A28817  43.068  43.892   7.955
 7665POPC   C4A28818  43.125  43.900   7.655
 7665POPC   C1B28819  43.160  43.637   8.555
 7665POPC   C2B28820  43.229  43.666   8.255
 7665POPC   C3B28821  43.170  43.672   7.955
 7665POPC   C4B28822  43.214  43.601   7.655
 7666POPC   NC328823  42.320   2.739   9.455
 7666POPC   PO428824  42.304   2.780   9.155
 7666POPC   GL128825  42.305   2.735   8.855
 7666POPC   GL228826  42.289   2.703   8.855
 7666POPC   C1A28827  42.353   2.801   8.555
 7666POPC   D2A28828  42.373   2.802   8.255
 7666POPC   C3A28829  42.366   2.794   7.955
 7666POPC   C4A28830  42.312   2.765   7.655
 7666POPC   C1B28831  42.213   2.566   8.555
 7666POPC   C2B28832  42.167   2.553   8.255
 7666POPC   C3B28833  42.153   2.601   7.955
 7666POPC   C4B28834  42.193   2.615   7.655
 7667POPC   NC328835  14.361  12.027   9.455
 7667POPC   PO428836  14.423  12.070   9.155
 7667POPC   GL128837  14.422  12.033   8.855
 7667POPC   GL228838  14.526  12.115   8.855
 7667POPC   C1A28839  14.447  12.091   8.555
 7667POPC   D2A28840  14.371  12.105   8.255
 7667POPC   C3A28841  14.439  12.028   7.955
 7667POPC   C4A28842  14.377  12.126   7.655
 7667POPC   C1B28843  14.610  12.069   8.555
 7667POPC   C2B28844  14.665  12.086   8.255
 7667POPC   C3B28845  14.616  12.019   7.955
 7667POPC   C4B28846  14.609  12.046   7.655
 7668POPC   NC328847  39.972  41.581   9.455
 7668POPC   PO428848  39.982  41.554   9.155
 7668POPC   GL128849  40.001  41.522   8.855
 7668POPC   GL228850  39.927  41.655   8.855
 7668POPC   C1A28851  39.974  41.525   8.555
 7668POPC   D2A28852  40.019  41.578   8.255
 7668POPC   C3A28853  39.957  41.577   7.955
 7668POPC   C4A28854  40.013  41.526   7.655
 7668POPC   C1B28855  39.922  41.831   8.555
 7668POPC   C2B28856  39.875  41.824   8.255
 7668POPC   C3B28857  39.904  41.817   7.955
 7668POPC   C4B28858  39.880  41.834   7.655
 7669POPC   NC328859  14.430  42.375   9.455
 7669POPC   PO428860  14.423  42.295   9.155
 7669POPC   GL128861  14.377  42.319   8.855
 7669POPC   GL228862  14.459  42.444   8.855
 7669POPC   C1A28863  14.384  42.333   8.555
 7669POPC   D2A28864  14.407  42.341   8.255
 7669POPC   C3A28865  14.372  42.299   7.955
 7669POPC   C4A28866  14.448  42.311   7.655
 7669POPC   C1B28867  14.532  42.508   8.555
 7669POPC   C2B28868  14.501  42.539   8.255
 7669POPC   C3B28869  14.523  42.519   7.955
 7669POPC   C4B28870  14.565  42.543   7.655
 7670POPC   NC328871  22.941  43.842   9.455
 7670POPC   PO428872  22.966  43.856   9.155
 7670POPC   GL128873  22.956  43.916   8.855
 7670POPC   GL228874  22.797  43.895   8.855
 7670POPC   C1A28875  22.957  43.867   8.555
 7670POPC   D2A28876  22.934  43.866   8.255
 7670POPC   C3A28877  22.914  43.905   7.955
 7670POPC   C4A28878  22.910  43.913   7.655
 7670POPC   C1B28879  22.696  44.025   8.555
 7670POPC   C2B28880  22.761  43.962   8.255
 7670POPC   C3B28881  22.760  44.002   7.955
 7670POPC   C4B28882  22.697  43.981   7.655
 7671POPC   NC328883   9.797  27.603   9.455
 7671POPC   PO428884   9.738  27.576   9.155
 7671POPC   GL128885   9.712  27.620   8.855
 7671POPC   GL228886   9.656  27.566   8.855
 7671POPC   C1A28887   9.757  27.629   8.555
 7671POPC   D2A28888   9.770  27.637   8.255
 7671POPC   C3A28889   9.724  27.560   7.955
 7671POPC   C4A28890   9.720  27.565   7.655
 7671POPC   C1B28891   9.510  27.418   8.555
 7671POPC   C2B28892   9.521  27.406   8.255
 7671POPC   C3B28893   9.537  27.474   7.955
 7671POPC   C4B28894   9.511  27.438   7.655
 7672POPC   NC328895  35.390  27.548   9.455
 7672POPC   PO428896  35.339  27.593   9.155
 7672POPC   GL128897  35.324  27.553   8.855
 7672POPC   GL228898  35.392  27.465   8.855
 7672POPC   C1A28899  35.319  27.641   8.555
 7672POPC   D2A28900  35.335  27.592   8.255
 7672POPC   C3A28901  35.386  27.584   7.955
 7672POPC   C4A28902  35.375  27.573   7.655
 7672POPC   C1B28903  35.330  27.366   8.555
 7672POPC   C2B28904  35.367  27.357   8.255
 7672POPC   C3B28905  35.387  27.345   7.955
 7672POPC   C4B28906  35.301  27.299   7.655
 7673POPC   NC328907  20.598  32.989   9.455
 7673POPC   PO428908  20.619  33.045   9.155
 7673POPC   GL128909  20.652  33.050   8.855
 7673POPC   GL228910  20.765  33.048   8.855
 7673POPC   C1A28911  20.651  32.989   8.555
 7673POPC   D2A28912  20.624  33.000   8.255
 7673POPC   C3A28913  20.582  33.055   7.955
 7673POPC   C4A28914  20.652  33.059   7.655
 7673POPC   C1B28915  20.824  33.073   8.555
 7673POPC   C2B28916  20.906  33.077   8.255
 7673POPC   C3B28917  20.841  33.108   7.955
 7673POPC   C4B28918  20.900  33.054   7.655
 7674POPC   NC328919  30.689  27.555   9.455
 7674POPC   PO428920  30.714  27.605   9.155
 7674POPC   GL128921  30.741  27.622   8.855
 7674POPC   GL228922  30.773  27.541   8.855
 7674POPC   C1A28923  30.690  27.560   8.555
 7674POPC   D2A28924  30.662  27.629   8.255
 7674POPC   C3A28925  30.649  27.618   7.955
 7674POPC   C4A28926  30.693  27.638   7.655
 7674POPC   C1B28927  30.923  27.468   8.555
 7674POPC   C2B28928  30.946  27.489   8.255
 7674POPC   C3B28929  30.918  27.474   7.955
 7674POPC   C4B28930  30.957  27.508   7.655
 7675POPC   NC328931  14.385   2.724   9.455
 7675POPC   PO428932  14.433   2.801   9.155
 7675POPC   GL128933  14.391   2.780   8.855
 7675POPC   GL228934  14.357   2.937   8.855
 7675POPC   C1A28935  14.383   2.741   8.555
 7675POPC   D2A28936  14.431   2.795   8.255
 7675POPC   C3A28937  14.413   2.799   7.955
 7675POPC   C4A28938  14.437   2.792   7.655
 7675POPC   C1B28939  14.424   3.050   8.555
 7675POPC   C2B28940  14.357   2.968   8.255
 7675POPC   C3B28941  14.358   3.058   7.955
 7675POPC   C4B28942  14.370   3.053   7.655
 7676POPC   NC328943  22.914  23.754   9.455
 7676POPC   PO428944  22.939  23.694   9.155
 7676POPC   GL128945  22.960  23.677   8.855
 7676POPC   GL228946  23.040  23.772   8.855
 7676POPC   C1A28947  22.986  23.707   8.555
 7676POPC   D2A28948  22.974  23.677   8.255
 7676POPC   C3A28949  22.916  23.732   7.955
 7676POPC   C4A28950  22.980  23.667   7.655
 7676POPC   C1B28951  23.158  23.784   8.555
 7676POPC   C2B28952  23.186  23.802   8.255
 7676POPC   C3B28953  23.187  23.798   7.955
 7676POPC   C4B28954  23.127  23.810   7.655
 7677POPC   NC328955  11.314  41.516   9.455
 7677POPC   PO428956  11.309  41.600   9.155
 7677POPC   GL128957  11.255  41.605   8.855
 7677POPC   GL228958  11.316  41.449   8.855
 7677POPC   C1A28959  11.337  41.585   8.555
 7677POPC   D2A28960  11.276  41.601   8.255
 7677POPC   C3A28961  11.295  41.528   7.955
 7677POPC   C4A28962  11.305  41.518   7.655
 7677POPC   C1B28963  11.344  41.350   8.555
 7677POPC   C2B28964  11.338  41.306   8.255
 7677POPC   C3B28965  11.364  41.263   7.955
 7677POPC   C4B28966  11.329  41.283   7.655
 7678POPC   NC328967  26.012  35.309   9.455
 7678POPC   PO428968  26.013  35.378   9.155
 7678POPC   GL128969  26.081  35.366   8.855
 7678POPC   GL228970  25.932  35.382   8.855
 7678POPC   C1A28971  26.031  35.359   8.555
 7678POPC   D2A28972  26.066  35.384   8.255
 7678POPC   C3A28973  26.037  35.369   7.955
 7678POPC   C4A28974  26.034  35.392   7.655
 7678POPC   C1B28975  25.799  35.359   8.555
 7678POPC   C2B28976  25.821  35.359   8.255
 7678POPC   C3B28977  25.819  35.418   7.955
 7678POPC   C4B28978  25.807  35.370   7.655
 7679POPC   NC328979  32.995  30.720   9.455
 7679POPC   PO428980  33.069  30.649   9.155
 7679POPC   GL128981  33.027  30.689   8.855
 7679POPC   GL228982  32.879  30.635   8.855
 7679POPC   C1A28983  33.066  30.738   8.555
 7679POPC   D2A28984  33.014  30.717   8.255
 7679POPC   C3A28985  32.992  30.682   7.955
 7679POPC   C4A28986  33.017  30.704   7.655
 7679POPC   C1B28987  32.823  30.625   8.555
 7679POPC   C2B28988  32.771  30.581   8.255
 7679POPC   C3B28989  32.781  30.607   7.955
 7679POPC   C4B28990  32.800  30.587   7.655
 7680POPC   NC328991  33.840  43.109   9.455
 7680POPC   PO428992  33.835  43.069   9.155
 7680POPC   GL128993  33.768  43.119   8.855
 7680POPC   GL228994  33.849  43.174   8.855
 7680POPC   C1A28995  33.798  43.141   8.555
 7680POPC   D2A28996  33.833  43.076   8.255
 7680POPC   C3A28997  33.770  43.123   7.955
 7680POPC   C4A28998  33.795  43.082   7.655
 7680POPC   C1B28999  33.916  43.300   8.555
 7680POPC   C2B29000  33.947  43.361   8.255
 7680POPC   C3B29001  33.923  43.347   7.955
 7680POPC   C4B29002  33.961  43.369   7.655
 7681POPC   NC329003   3.550  11.256   9.455
 7681POPC   PO429004   3.529  11.287   9.155
 7681POPC   GL129005   3.578  11.253   8.855
 7681POPC   GL229006   3.421  11.246   8.855
 7681POPC   C1A29007   3.510  11.294   8.555
 7681POPC   D2A29008   3.517  11.265   8.255
 7681POPC   C3A29009   3.511  11.291   7.955
 7681POPC   C4A29010   3.524  11.300   7.655
 7681POPC   C1B29011   3.260  11.179   8.555
 7681POPC   C2B29012   3.298  11.206   8.255
 7681POPC   C3B29013   3.350  11.179   7.955
 7681POPC   C4B29014   3.265  11.256   7.655
 7682POPC   NC329015  31.511  12.871   9.455
 7682POPC   PO429016  31.473  12.847   9.155
 7682POPC   GL129017  31.480  12.896   8.855
 7682POPC   GL229018  31.318  12.928   8.855
 7682POPC   C1A29019  31.431  12.805   8.555
 7682POPC   D2A29020  31.465  12.889   8.255
 7682POPC   C3A29021  31.501  12.812   7.955
 7682POPC   C4A29022  31.443  12.899   7.655
 7682POPC   C1B29023  31.247  13.006   8.555
 7682POPC   C2B29024  31.230  12.985   8.255
 7682POPC   C3B29025  31.239  12.973   7.955
 7682POPC   C4B29026  31.211  12.998   7.655
 7683POPC   NC329027  12.085  33.768   9.455
 7683POPC   PO429028  12.104  33.784   9.155
 7683POPC   GL129029  12.110  33.754   8.855
 7683POPC   GL229030  12.084  33.690   8.855
 7683POPC   C1A29031  12.048  33.825   8.555
 7683POPC   D2A29032  12.060  33.843   8.255
 7683POPC   C3A29033  12.051  33.834   7.955
 7683POPC   C4A29034  12.072  33.751   7.655
 7683POPC   C1B29035  12.101  33.522   8.555
 7683POPC   C2B29036  12.104  33.588   8.255
 7683POPC   C3B29037  12.089  33.549   7.955
 7683POPC   C4B29038  12.013  33.534   7.655
 7684POPC   NC329039  32.217  26.070   9.455
 7684POPC   PO429040  32.224  26.025   9.155
 7684POPC   GL129041  32.256  26.000   8.855
 7684POPC   GL229042  32.194  26.118   8.855
 7684POPC   C1A29043  32.284  26.038   8.555
 7684POPC   D2A29044  32.208  26.055   8.255
 7684POPC   C3A29045  32.213  26.000   7.955
 7684POPC   C4A29046  32.241  26.034   7.655
 7684POPC   C1B29047  32.029  26.203   8.555
 7684POPC   C2B29048  32.044  26.196   8.255
 7684POPC   C3B29049  32.077  26.216   7.955
 7684POPC   C4B29050  32.033  26.225   7.655
 7685POPC   NC329051  26.039  42.315   9.455
 7685POPC   PO429052  26.082  42.307   9.155
 7685POPC   GL129053  26.000  42.378   8.855
 7685POPC   GL229054  25.929  42.347   8.855
 7685POPC   C1A29055  26.023  42.342   8.555
 7685POPC   D2A29056  26.042  42.369   8.255
 7685POPC   C3A29057  25.993  42.320   7.955
 7685POPC   C4A29058  26.058  42.329   7.655
 7685POPC   C1B29059  25.841  42.340   8.555
 7685POPC   C2B29060  25.828  42.284   8.255
 7685POPC   C3B29061  25.754  42.272   7.955
 7685POPC   C4B29062  25.838  42.293   7.655
 7686POPC   NC329063  36.137  22.978   9.455
 7686POPC   PO429064  36.106  22.904   9.155
 7686POPC   GL129065  36.169  22.895   8.855
 7686POPC   GL229066  36.194  22.887   8.855
 7686POPC   C1A29067  36.099  22.907   8.555
 7686POPC   D2A29068  36.111  22.984   8.255
 7686POPC   C3A29069  36.172  22.946   7.955
 7686POPC   C4A29070  36.114  22.940   7.655
 7686POPC   C1B29071  36.318  22.827   8.555
 7686POPC   C2B29072  36.356  22.755   8.255
 7686POPC   C3B29073  36.358  22.816   7.955
 7686POPC   C4B29074  36.274  22.819   7.655
 7687POPC   NC329075   1.218  29.147   9.455
 7687POPC   PO429076   1.165  29.166   9.155
 7687POPC   GL129077   1.169  29.184   8.855
 7687POPC   GL229078   1.277  29.255   8.855
 7687POPC   C1A29079   1.179  29.142   8.555
 7687POPC   D2A29080   1.229  29.191   8.255
 7687POPC   C3A29081   1.231  29.161   7.955
 7687POPC   C4A29082   1.192  29.102   7.655
 7687POPC   C1B29083   1.460  29.271   8.555
 7687POPC   C2B29084   1.391  29.280   8.255
 7687POPC   C3B29085   1.406  29.291   7.955
 7687POPC   C4B29086   1.369  29.324   7.655
 7688POPC   NC329087  22.914  31.461   9.455
 7688POPC   PO429088  22.975  31.477   9.155
 7688POPC   GL129089  22.947  31.500   8.855
 7688POPC   GL229090  23.032  31.402   8.855
 7688POPC   C1A29091  22.980  31.482   8.555
 7688POPC   D2A29092  22.938  31.459   8.255
 7688POPC   C3A29093  22.893  31.469   7.955
 7688POPC   C4A29094  22.908  31.493   7.655
 7688POPC   C1B29095  23.005  31.239   8.555
 7688POPC   C2B29096  23.031  31.222   8.255
 7688POPC   C3B29097  23.059  31.216   7.955
 7688POPC   C4B29098  23.048  31.251   7.655
 7689POPC   NC329099  18.308  43.095   9.455
 7689POPC   PO429100  18.241  43.084   9.155
 7689POPC   GL129101  18.299  43.119   8.855
 7689POPC   GL229102  18.380  42.998   8.855
 7689POPC   C1A29103  18.289  43.134   8.555
 7689POPC   D2A29104  18.311  43.096   8.255
 7689POPC   C3A29105  18.293  43.106   7.955
 7689POPC   C4A29106  18.280  43.127   7.655
 7689POPC   C1B29107  18.482  42.931   8.555
 7689POPC   C2B29108  18.447  42.923   8.255
 7689POPC   C3B29109  18.463  42.985   7.955
 7689POPC   C4B29110  18.466  42.987   7.655
 7690POPC   NC329111  29.915  30.687   9.455
 7690POPC   PO429112  29.922  30.709   9.155
 7690POPC   GL129113  29.876  30.649   8.855
 7690POPC   GL229114  29.751  30.650   8.855
 7690POPC   C1A29115  29.910  30.694   8.555
 7690POPC   D2A29116  29.966  30.716   8.255
 7690POPC   C3A29117  29.883  30.664   7.955
 7690POPC   C4A29118  29.885  30.663   7.655
 7690POPC   C1B29119  29.674  30.694   8.555
 7690POPC   C2B29120  29.670  30.681   8.255
 7690POPC   C3B29121  29.652  30.723   7.955
 7690POPC   C4B29122  29.705  30.685   7.655
 7691POPC   NC329123  10.516   5.140   9.455
 7691POPC   PO429124  10.527   5.099   9.155
 7691POPC   GL129125  10.558   5.070   8.855
 7691POPC   GL229126  10.605   5.050   8.855
 7691POPC   C1A29127  10.559   5.096   8.555
 7691POPC   D2A29128  10.475   5.089   8.255
 7691POPC   C3A29129  10.541   5.049   7.955
 7691POPC   C4A29130  10.554   5.060   7.655
 7691POPC   C1B29131  10.735   5.114   8.555
 7691POPC   C2B29132  10.809   5.113   8.255
 7691POPC   C3B29133  10.788   5.113   7.955
 7691POPC   C4B29134  10.747   5.101   7.655
 7692POPC   NC329135   3.499  18.332   9.455
 7692POPC   PO429136   3.512  18.295   9.155
 7692POPC   GL129137   3.559  18.332   8.855
 7692POPC   GL229138   3.634  18.326   8.855
 7692POPC   C1A29139   3.527  18.266   8.555
 7692POPC   D2A29140   3.561  18.261   8.255
 7692POPC   C3A29141   3.543  18.305   7.955
 7692POPC   C4A29142   3.568  18.297   7.655
 7692POPC   C1B29143   3.723  18.401   8.555
 7692POPC   C2B29144   3.736  18.424   8.255
 7692POPC   C3B29145   3.705  18.436   7.955
 7692POPC   C4B29146   3.709  18.373   7.655
 7693POPC   NC329147  15.188  23.741   9.455
 7693POPC   PO429148  15.202  23.723   9.155
 7693POPC   GL129149  15.195  23.701   8.855
 7693POPC   GL229150  15.128  23.666   8.855
 7693POPC   C1A29151  15.209  23.715   8.555
 7693POPC   D2A29152  15.166  23.737   8.255
 7693POPC   C3A29153  15.217  23.687   7.955
 7693POPC   C4A29154  15.226  23.711   7.655
 7693POPC   C1B29155  15.002  23.587   8.555
 7693POPC   C2B29156  15.001  23.587   8.255
 7693POPC   C3B29157  14.970  23.529   7.955
 7693POPC   C4B29158  14.950  23.538   7.655
 7694POPC   NC329159  26.038  22.143   9.455
 7694POPC   PO429160  25.999  22.160   9.155
 7694POPC   GL129161  26.043  22.140   8.855
 7694POPC   GL229162  26.004  21.997   8.855
 7694POPC   C1A29163  26.066  22.207   8.555
 7694POPC   D2A29164  26.077  22.210   8.255
 7694POPC   C3A29165  26.078  22.188   7.955
 7694POPC   C4A29166  26.013  22.194   7.655
 7694POPC   C1B29167  25.939  21.967   8.555
 7694POPC   C2B29168  25.944  21.878   8.255
 7694POPC   C3B29169  25.976  21.954   7.955
 7694POPC   C4B29170  26.017  21.964   7.655
 7695POPC   NC329171  16.764  37.713   9.455
 7695POPC   PO429172  16.693  37.718   9.155
 7695POPC   GL129173  16.742  37.663   8.855
 7695POPC   GL229174  16.695  37.806   8.855
 7695POPC   C1A29175  16.696  37.674   8.555
 7695POPC   D2A29176  16.724  37.707   8.255
 7695POPC   C3A29177  16.717  37.651   7.955
 7695POPC   C4A29178  16.724  37.705   7.655
 7695POPC   C1B29179  16.628  37.940   8.555
 7695POPC   C2B29180  16.612  37.901   8.255
 7695POPC   C3B29181  16.620  37.934   7.955
 7695POPC   C4B29182  16.594  37.914   7.655
 7696POPC   NC329183  40.782   1.945   9.455
 7696POPC   PO429184  40.752   1.983   9.155
 7696POPC   GL129185  40.825   1.958   8.855
 7696POPC   GL229186  40.729   2.117   8.855
 7696POPC   C1A29187  40.745   2.028   8.555
 7696POPC   D2A29188  40.735   1.953   8.255
 7696POPC   C3A29189  40.757   1.986   7.955
 7696POPC   C4A29190  40.744   2.020   7.655
 7696POPC   C1B29191  40.723   2.246   8.555
 7696POPC   C2B29192  40.746   2.187   8.255
 7696POPC   C3B29193  40.742   2.256   7.955
 7696POPC   C4B29194  40.715   2.274   7.655
 7697POPC   NC329195  31.497  44.682   9.455
 7697POPC   PO429196  31.492  44.674   9.155
 7697POPC   GL129197  31.520  44.694   8.855
 7697POPC   GL229198  31.597  44.754   8.855
 7697POPC   C1A29199  31.453  44.621   8.555
 7697POPC   D2A29200  31.455  44.690   8.255
 7697POPC   C3A29201  31.439  44.657   7.955
 7697POPC   C4A29202  31.458  44.653   7.655
 7697POPC   C1B29203  31.618  44.862   8.555
 7697POPC   C2B29204  31.657  44.849   8.255
 7697POPC   C3B29205  31.662  44.817   7.955
 7697POPC   C4B29206  31.679  44.859   7.655
 7698POPC   NC329207   1.227  31.510   9.455
 7698POPC   PO429208   1.179  31.426   9.155
 7698POPC   GL129209   1.165  31.472   8.855
 7698POPC   GL229210   1.199  31.608   8.855
 7698POPC   C1A29211   1.240  31.520   8.555
 7698POPC   D2A29212   1.229  31.450   8.255
 7698POPC   C3A29213   1.244  31.466   7.955
 7698POPC   C4A29214   1.165  31.499   7.655
 7698POPC   C1B29215   1.278  31.679   8.555
 7698POPC   C2B29216   1.263  31.746   8.255
 7698POPC   C3B29217   1.204  31.757   7.955
 7698POPC   C4B29218   1.250  31.722   7.655
 7699POPC   NC329219  36.888  23.678   9.455
 7699POPC   PO429220  36.872  23.740   9.155
 7699POPC   GL129221  36.901  23.725   8.855
 7699POPC   GL229222  36.791  23.796   8.855
 7699POPC   C1A29223  36.865  23.742   8.555
 7699POPC   D2A29224  36.906  23.737   8.255
 7699POPC   C3A29225  36.931  23.665   7.955
 7699POPC   C4A29226  36.894  23.755   7.655
 7699POPC   C1B29227  36.676  23.826   8.555
 7699POPC   C2B29228  36.667  23.799   8.255
 7699POPC   C3B29229  36.708  23.786   7.955
 7699POPC   C4B29230  36.684  23.761   7.655
 7700POPC   NC329231   1.165  23.712   9.455
 7700POPC   PO429232   1.181  23.720   9.155
 7700POPC   GL129233   1.185  23.731   8.855
 7700POPC   GL229234   1.065  23.692   8.855
 7700POPC   C1A29235   1.203  23.664   8.555
 7700POPC   D2A29236   1.180  23.677   8.255
 7700POPC   C3A29237   1.191  23.685   7.955
 7700POPC   C4A29238   1.194  23.721   7.655
 7700POPC   C1B29239   0.941  23.682   8.555
 7700POPC   C2B29240   0.925  23.618   8.255
 7700POPC   C3B29241   0.942  23.711   7.955
 7700POPC   C4B29242   0.974  23.707   7.655
 7701POPC   NC329243  31.472  40.025   9.455
 7701POPC   PO429244  31.510  40.003   9.155
 7701POPC   GL129245  31.517  39.994   8.855
 7701POPC   GL229246  31.628  40.010   8.855
 7701POPC   C1A29247  31.502  40.031   8.555
 7701POPC   D2A29248  31.512  40.015   8.255
 7701POPC   C3A29249  31.482  40.013   7.955
 7701POPC   C4A29250  31.488  39.993   7.655
 7701POPC   C1B29251  31.754  40.120   8.555
 7701POPC   C2B29252  31.662  40.058   8.255
 7701POPC   C3B29253  31.659  40.131   7.955
 7701POPC   C4B29254  31.672  40.089   7.655
 7702POPC   NC329255  26.850  15.917   9.455
 7702POPC   PO429256  26.832  15.969   9.155
 7702POPC   GL129257  26.770  15.924   8.855
 7702POPC   GL229258  26.698  15.900   8.855
 7702POPC   C1A29259  26.805  15.940   8.555
 7702POPC   D2A29260  26.816  15.943   8.255
 7702POPC   C3A29261  26.806  15.927   7.955
 7702POPC   C4A29262  26.776  15.928   7.655
 7702POPC   C1B29263  26.611  15.823   8.555
 7702POPC   C2B29264  26.626  15.884   8.255
 7702POPC   C3B29265  26.573  15.872   7.955
 7702POPC   C4B29266  26.568  15.884   7.655
 7703POPC   NC329267   0.401  12.054   9.455
 7703POPC   PO429268   0.446  12.050   9.155
 7703POPC   GL129269   0.420  12.068   8.855
 7703POPC   GL229270   0.522  12.025   8.855
 7703POPC   C1A29271   0.410  12.119   8.555
 7703POPC   D2A29272   0.471  12.086   8.255
 7703POPC   C3A29273   0.443  12.080   7.955
 7703POPC   C4A29274   0.462  12.109   7.655
 7703POPC   C1B29275   0.708  11.988   8.555
 7703POPC   C2B29276   0.696  11.997   8.255
 7703POPC   C3B29277   0.650  12.023   7.955
 7703POPC   C4B29278   0.703  11.979   7.655
 7704POPC   NC329279  21.413  14.421   9.455
 7704POPC   PO429280  21.360  14.389   9.155
 7704POPC   GL129281  21.359  14.388   8.855
 7704POPC   GL229282  21.240  14.431   8.855
 7704POPC   C1A29283  21.368  14.421   8.555
 7704POPC   D2A29284  21.413  14.364   8.255
 7704POPC   C3A29285  21.411  14.429   7.955
 7704POPC   C4A29286  21.395  14.433   7.655
 7704POPC   C1B29287  21.218  14.539   8.555
 7704POPC   C2B29288  21.198  14.570   8.255
 7704POPC   C3B29289  21.170  14.546   7.955
 7704POPC   C4B29290  21.220  14.535   7.655
 7705POPC   NC329291  16.754  33.792   9.455
 7705POPC   PO429292  16.752  33.846   9.155
 7705POPC   GL129293  16.708  33.827   8.855
 7705POPC   GL229294  16.844  33.803   8.855
 7705POPC   C1A29295  16.699  33.819   8.555
 7705POPC   D2A29296  16.755  33.823   8.255
 7705POPC   C3A29297  16.741  33.777   7.955
 7705POPC   C4A29298  16.760  33.809   7.655
 7705POPC   C1B29299  16.957  33.832   8.555
 7705POPC   C2B29300  16.990  33.806   8.255
 7705POPC   C3B29301  16.942  33.810   7.955
 7705POPC   C4B29302  17.029  33.832   7.655
 7706POPC   NC329303   0.448  22.917   9.455
 7706POPC   PO429304   0.395  22.920   9.155
 7706POPC   GL129305   0.430  22.923   8.855
 7706POPC   GL229306   0.476  23.102   8.855
 7706POPC   C1A29307   0.435  22.963   8.555
 7706POPC   D2A29308   0.464  22.983   8.255
 7706POPC   C3A29309   0.392  22.902   7.955
 7706POPC   C4A29310   0.433  22.981   7.655
 7706POPC   C1B29311   0.459  23.184   8.555
 7706POPC   C2B29312   0.505  23.188   8.255
 7706POPC   C3B29313   0.416  23.200   7.955
 7706POPC   C4B29314   0.498  23.177   7.655
 7707POPC   NC329315  41.580  39.993   9.455
 7707POPC   PO429316  41.523  40.030   9.155
 7707POPC   GL129317  41.572  40.010   8.855
 7707POPC   GL229318  41.415  40.052   8.855
 7707POPC   C1A29319  41.563  39.996   8.555
 7707POPC   D2A29320  41.570  40.022   8.255
 7707POPC   C3A29321  41.554  40.049   7.955
 7707POPC   C4A29322  41.553  40.047   7.655
 7707POPC   C1B29323  41.312  40.045   8.555
 7707POPC   C2B29324  41.279  40.076   8.255
 7707POPC   C3B29325  41.290  40.055   7.955
 7707POPC   C4B29326  41.360  40.006   7.655
 7708POPC   NC329327  29.167  16.695   9.455
 7708POPC   PO429328  29.163  16.751   9.155
 7708POPC   GL129329  29.142  16.729   8.855
 7708POPC   GL229330  29.230  16.789   8.855
 7708POPC   C1A29331  29.170  16.689   8.555
 7708POPC   D2A29332  29.145  16.708   8.255
 7708POPC   C3A29333  29.115  16.722   7.955
 7708POPC   C4A29334  29.189  16.742   7.655
 7708POPC   C1B29335  29.348  16.792   8.555
 7708POPC   C2B29336  29.382  16.850   8.255
 7708POPC   C3B29337  29.414  16.847   7.955
 7708POPC   C4B29338  29.407  16.850   7.655
 7709POPC   NC329339   9.002  38.407   9.455
 7709POPC   PO429340   8.984  38.418   9.155
 7709POPC   GL129341   8.980  38.438   8.855
 7709POPC   GL229342   9.000  38.598   8.855
 7709POPC   C1A29343   8.975  38.504   8.555
 7709POPC   D2A29344   8.961  38.465   8.255
 7709POPC   C3A29345   9.017  38.496   7.955
 7709POPC   C4A29346   8.984  38.500   7.655
 7709POPC   C1B29347   8.915  38.688   8.555
 7709POPC   C2B29348   8.898  38.677   8.255
 7709POPC   C3B29349   8.889  38.716   7.955
 7709POPC   C4B29350   8.966  38.717   7.655
 7710POPC   NC329351  38.439  40.797   9.455
 7710POPC   PO429352  38.504  40.824   9.155
 7710POPC   GL129353  38.481  40.813   8.855
 7710POPC   GL229354  38.431  40.678   8.855
 7710POPC   C1A29355  38.462  40.791   8.555
 7710POPC   D2A29356  38.419  40.814   8.255
 7710POPC   C3A29357  38.449  40.800   7.955
 7710POPC   C4A29358  38.485  40.802   7.655
 7710POPC   C1B29359  38.341  40.540   8.555
 7710POPC   C2B29360  38.272  40.539   8.255
 7710POPC   C3B29361  38.308  40.550   7.955
 7710POPC   C4B29362  38.355  40.571   7.655
 7711POPC   NC329363  32.286  25.300   9.455
 7711POPC   PO429364  32.244  25.265   9.155
 7711POPC   GL129365  32.220  25.255   8.855
 7711POPC   GL229366  32.377  25.336   8.855
 7711POPC   C1A29367  32.215  25.231   8.555
 7711POPC   D2A29368  32.220  25.289   8.255
 7711POPC   C3A29369  32.238  25.267   7.955
 7711POPC   C4A29370  32.252  25.298   7.655
 7711POPC   C1B29371  32.387  25.412   8.555
 7711POPC   C2B29372  32.370  25.489   8.255
 7711POPC   C3B29373  32.449  25.413   7.955
 7711POPC   C4B29374  32.459  25.419   7.655
 7712POPC   NC329375   3.570   1.999   9.455
 7712POPC   PO429376   3.506   2.026   9.155
 7712POPC   GL129377   3.577   1.999   8.855
 7712POPC   GL229378   3.407   2.064   8.855
 7712POPC   C1A29379   3.545   1.946   8.555
 7712POPC   D2A29380   3.495   2.024   8.255
 7712POPC   C3A29381   3.557   1.942   7.955
 7712POPC   C4A29382   3.544   1.989   7.655
 7712POPC   C1B29383   3.305   2.153   8.555
 7712POPC   C2B29384   3.273   2.066   8.255
 7712POPC   C3B29385   3.296   2.129   7.955
 7712POPC   C4B29386   3.360   2.144   7.655
 7713POPC   NC329387  43.925  41.522   9.455
 7713POPC   PO429388  43.872  41.590   9.155
 7713POPC   GL129389  43.894  41.537   8.855
 7713POPC   GL229390  43.815  41.610   8.855
 7713POPC   C1A29391  43.842  41.532   8.555
 7713POPC   D2A29392  43.896  41.603   8.255
 7713POPC   C3A29393  43.877  41.572   7.955
 7713POPC   C4A29394  43.884  41.546   7.655
 7713POPC   C1B29395  43.717  41.722   8.555
 7713POPC   C2B29396  43.706  41.730   8.255
 7713POPC   C3B29397  43.700  41.682   7.955
 7713POPC   C4B29398  43.690  41.699   7.655
 7714POPC   NC329399   2.794  34.577   9.455
 7714POPC   PO429400   2.768  34.564   9.155
 7714POPC   GL129401   2.779  34.535   8.855
 7714POPC   GL229402   2.901  34.644   8.855
 7714POPC   C1A29403   2.742  34.617   8.555
 7714POPC   D2A29404   2.803  34.624   8.255
 7714POPC   C3A29405   2.754  34.580   7.955
 7714POPC   C4A29406   2.756  34.557   7.655
 7714POPC   C1B29407   3.005  34.587   8.555
 7714POPC   C2B29408   2.974  34.621   8.255
 7714POPC   C3B29409   3.032  34.638   7.955
 7714POPC   C4B29410   2.961  34.665   7.655
 7715POPC   NC329411  19.052  24.468   9.455
 7715POPC   PO429412  19.024  24.512   9.155
 7715POPC   GL129413  19.058  24.519   8.855
 7715POPC   GL229414  18.950  24.389   8.855
 7715POPC   C1A29415  19.094  24.506   8.555
 7715POPC   D2A29416  19.073  24.448   8.255
 7715POPC   C3A29417  19.085  24.497   7.955
 7715POPC   C4A29418  19.031  24.486   7.655
 7715POPC   C1B29419  18.860  24.287   8.555
 7715POPC   C2B29420  18.893  24.376   8.255
 7715POPC   C3B29421  18.880  24.359   7.955
 7715POPC   C4B29422  18.862  24.376   7.655
 7716POPC   NC329423  38.502  33.018   9.455
 7716POPC   PO429424  38.480  33.070   9.155
 7716POPC   GL129425  38.452  32.992   8.855
 7716POPC   GL229426  38.484  33.140   8.855
 7716POPC   C1A29427  38.499  33.069   8.555
 7716POPC   D2A29428  38.496  33.019   8.255
 7716POPC   C3A29429  38.496  33.004   7.955
 7716POPC   C4A29430  38.423  32.987   7.655
 7716POPC   C1B29431  38.460  33.320   8.555
 7716POPC   C2B29432  38.401  33.316   8.255
 7716POPC   C3B29433  38.454  33.299   7.955
 7716POPC   C4B29434  38.484  33.287   7.655
 7717POPC   NC329435  27.548   9.728   9.455
 7717POPC   PO429436  27.624   9.791   9.155
 7717POPC   GL129437  27.569   9.759   8.855
 7717POPC   GL229438  27.639   9.855   8.855
 7717POPC   C1A29439  27.606   9.780   8.555
 7717POPC   D2A29440  27.565   9.778   8.255
 7717POPC   C3A29441  27.554   9.788   7.955
 7717POPC   C4A29442  27.577   9.705   7.655
 7717POPC   C1B29443  27.623  10.014   8.555
 7717POPC   C2B29444  27.666   9.973   8.255
 7717POPC   C3B29445  27.652   9.959   7.955
 7717POPC   C4B29446  27.713   9.959   7.655
 7718POPC   NC329447  15.166  34.563   9.455
 7718POPC   PO429448  15.159  34.526   9.155
 7718POPC   GL129449  15.137  34.564   8.855
 7718POPC   GL229450  15.226  34.655   8.855
 7718POPC   C1A29451  15.182  34.623   8.555
 7718POPC   D2A29452  15.201  34.623   8.255
 7718POPC   C3A29453  15.221  34.614   7.955
 7718POPC   C4A29454  15.225  34.538   7.655
 7718POPC   C1B29455  15.239  34.835   8.555
 7718POPC   C2B29456  15.176  34.780   8.255
 7718POPC   C3B29457  15.227  34.806   7.955
 7718POPC   C4B29458  15.202  34.828   7.655
 7719POPC   NC329459   2.768  27.595   9.455
 7719POPC   PO429460   2.719  27.569   9.155
 7719POPC   GL129461   2.760  27.615   8.855
 7719POPC   GL229462   2.720  27.506   8.855
 7719POPC   C1A29463   2.724  27.599   8.555
 7719POPC   D2A29464   2.728  27.551   8.255
 7719POPC   C3A29465   2.755  27.605   7.955
 7719POPC   C4A29466   2.757  27.561   7.655
 7719POPC   C1B29467   2.664  27.335   8.555
 7719POPC   C2B29468   2.660  27.415   8.255
 7719POPC   C3B29469   2.634  27.420   7.955
 7719POPC   C4B29470   2.650  27.374   7.655
 7720POPC   NC329471  10.549  11.285   9.455
 7720POPC   PO429472  10.527  11.299   9.155
 7720POPC   GL129473  10.561  11.331   8.855
 7720POPC   GL229474  10.472  11.176   8.855
 7720POPC   C1A29475  10.556  11.292   8.555
 7720POPC   D2A29476  10.522  11.330   8.255
 7720POPC   C3A29477  10.566  11.317   7.955
 7720POPC   C4A29478  10.502  11.284   7.655
 7720POPC   C1B29479  10.379  11.093   8.555
 7720POPC   C2B29480  10.416  11.063   8.255
 7720POPC   C3B29481  10.387  11.084   7.955
 7720POPC   C4B29482  10.388  11.049   7.655
 7721POPC   NC329483  40.830  41.580   9.455
 7721POPC   PO429484  40.799  41.557   9.155
 7721POPC   GL129485  40.765  41.566   8.855
 7721POPC   GL229486  40.696  41.506   8.855
 7721POPC   C1A29487  40.805  41.539   8.555
 7721POPC   D2A29488  40.780  41.572   8.255
 7721POPC   C3A29489  40.784  41.519   7.955
 7721POPC   C4A29490  40.805  41.596   7.655
 7721POPC   C1B29491  40.601  41.347   8.555
 7721POPC   C2B29492  40.654  41.411   8.255
 7721POPC   C3B29493  40.578  41.400   7.955
 7721POPC   C4B29494  40.667  41.338   7.655
 7722POPC   NC329495   1.212  38.492   9.455
 7722POPC   PO429496   1.233  38.486   9.155
 7722POPC   GL129497   1.231  38.426   8.855
 7722POPC   GL229498   1.303  38.537   8.855
 7722POPC   C1A29499   1.226  38.486   8.555
 7722POPC   D2A29500   1.211  38.451   8.255
 7722POPC   C3A29501   1.239  38.467   7.955
 7722POPC   C4A29502   1.264  38.485   7.655
 7722POPC   C1B29503   1.390  38.650   8.555
 7722POPC   C2B29504   1.442  38.598   8.255
 7722POPC   C3B29505   1.365  38.618   7.955
 7722POPC   C4B29506   1.384  38.601   7.655
 7723POPC   NC329507  19.094  32.245   9.455
 7723POPC   PO429508  19.028  32.213   9.155
 7723POPC   GL129509  19.021  32.278   8.855
 7723POPC   GL229510  19.195  32.208   8.855
 7723POPC   C1A29511  19.052  32.205   8.555
 7723POPC   D2A29512  19.036  32.290   8.255
 7723POPC   C3A29513  19.049  32.288   7.955
 7723POPC   C4A29514  19.076  32.242   7.655
 7723POPC   C1B29515  19.265  32.057   8.555
 7723POPC   C2B29516  19.277  32.118   8.255
 7723POPC   C3B29517  19.232  32.073   7.955
 7723POPC   C4B29518  19.275  32.134   7.655
 7724POPC   NC329519   2.762  15.192   9.455
 7724POPC   PO429520   2.760  15.146   9.155
 7724POPC   GL129521   2.789  15.174   8.855
 7724POPC   GL229522   2.823  15.245   8.855
 7724POPC   C1A29523   2.783  15.217   8.555
 7724POPC   D2A29524   2.793  15.180   8.255
 7724POPC   C3A29525   2.795  15.180   7.955
 7724POPC   C4A29526   2.746  15.188   7.655
 7724POPC   C1B29527   2.928  15.341   8.555
 7724POPC   C2B29528   2.911  15.358   8.255
 7724POPC   C3B29529   2.920  15.397   7.955
 7724POPC   C4B29530   2.929  15.337   7.655
 7725POPC   NC329531  18.285   9.717   9.455
 7725POPC   PO429532  18.241   9.708   9.155
 7725POPC   GL129533  18.310   9.706   8.855
 7725POPC   GL229534  18.204   9.728   8.855
 7725POPC   C1A29535  18.269   9.702   8.555
 7725POPC   D2A29536  18.312   9.768   8.255
 7725POPC   C3A29537  18.311   9.746   7.955
 7725POPC   C4A29538  18.317   9.699   7.655
 7725POPC   C1B29539  17.999   9.720   8.555
 7725POPC   C2B29540  18.072   9.721   8.255
 7725POPC   C3B29541  18.058   9.696   7.955
 7725POPC   C4B29542  17.997   9.641   7.655
 7726POPC   NC329543  20.577   4.333   9.455
 7726POPC   PO429544  20.600   4.267   9.155
 7726POPC   GL129545  20.659   4.321   8.855
 7726POPC   GL229546  20.677   4.157   8.855
 7726POPC   C1A29547  20.582   4.287   8.555
 7726POPC   D2A29548  20.581   4.312   8.255
 7726POPC   C3A29549  20.576   4.320   7.955
 7726POPC   C4A29550  20.639   4.346   7.655
 7726POPC   C1B29551  20.701   4.037   8.555
 7726POPC   C2B29552  20.697   4.067   8.255
 7726POPC   C3B29553  20.625   4.065   7.955
 7726POPC   C4B29554  20.692   4.053   7.655
 7727POPC   NC329555   4.277  14.367   9.455
 7727POPC   PO429556   4.310  14.399   9.155
 7727POPC   GL129557   4.331  14.369   8.855
 7727POPC   GL229558   4.470  14.409   8.855
 7727POPC   C1A29559   4.366  14.398   8.555
 7727POPC   D2A29560   4.338  14.382   8.255
 7727POPC   C3A29561   4.312  14.372   7.955
 7727POPC   C4A29562   4.302  14.422   7.655
 7727POPC   C1B29563   4.583  14.416   8.555
 7727POPC   C2B29564   4.574  14.396   8.255
 7727POPC   C3B29565   4.591  14.401   7.955
 7727POPC   C4B29566   4.612  14.455   7.655
 7728POPC   NC329567  43.092   6.679   9.455
 7728POPC   PO429568  43.116   6.623   9.155
 7728POPC   GL129569  43.063   6.630   8.855
 7728POPC   GL229570  43.022   6.612   8.855
 7728POPC   C1A29571  43.063   6.630   8.555
 7728POPC   D2A29572  43.152   6.691   8.255
 7728POPC   C3A29573  43.074   6.610   7.955
 7728POPC   C4A29574  43.117   6.604   7.655
 7728POPC   C1B29575  42.860   6.568   8.555
 7728POPC   C2B29576  42.873   6.547   8.255
 7728POPC   C3B29577  42.872   6.503   7.955
 7728POPC   C4B29578  42.898   6.486   7.655
 7729POPC   NC329579   1.980  44.656   9.455
 7729POPC   PO429580   1.981  44.680   9.155
 7729POPC   GL129581   1.985  44.665   8.855
 7729POPC   GL229582   1.896  44.816   8.855
 7729POPC   C1A29583   2.035  44.662   8.555
 7729POPC   D2A29584   1.943  44.682   8.255
 7729POPC   C3A29585   2.023  44.703   7.955
 7729POPC   C4A29586   1.979  44.689   7.655
 7729POPC   C1B29587   1.870  44.863   8.555
 7729POPC   C2B29588   1.841  44.880   8.255
 7729POPC   C3B29589   1.867  44.927   7.955
 7729POPC   C4B29590   1.917  44.885   7.655
 7730POPC   NC329591  16.739  32.227   9.455
 7730POPC   PO429592  16.724  32.292   9.155
 7730POPC   GL129593  16.715  32.245   8.855
 7730POPC   GL229594  16.701  32.394   8.855
 7730POPC   C1A29595  16.687  32.252   8.555
 7730POPC   D2A29596  16.748  32.286   8.255
 7730POPC   C3A29597  16.774  32.218   7.955
 7730POPC   C4A29598  16.753  32.204   7.655
 7730POPC   C1B29599  16.642  32.463   8.555
 7730POPC   C2B29600  16.600  32.448   8.255
 7730POPC   C3B29601  16.614  32.484   7.955
 7730POPC   C4B29602  16.611  32.516   7.655
 7731POPC   NC329603  10.519  10.476   9.455
 7731POPC   PO429604  10.560  10.497   9.155
 7731POPC   GL129605  10.474  10.513   8.855
 7731POPC   GL229606  10.570  10.424   8.855
 7731POPC   C1A29607  10.543  10.501   8.555
 7731POPC   D2A29608  10.518  10.494   8.255
 7731POPC   C3A29609  10.511  10.484   7.955
 7731POPC   C4A29610  10.493  10.478   7.655
 7731POPC   C1B29611  10.703  10.347   8.555
 7731POPC   C2B29612  10.635  10.339   8.255
 7731POPC   C3B29613  10.671  10.382   7.955
 7731POPC   C4B29614  10.706  10.364   7.655
 7732POPC   NC329615  28.355  26.074   9.455
 7732POPC   PO429616  28.332  26.020   9.155
 7732POPC   GL129617  28.351  26.068   8.855
 7732POPC   GL229618  28.496  26.144   8.855
 7732POPC   C1A29619  28.322  26.023   8.555
 7732POPC   D2A29620  28.349  26.056   8.255
 7732POPC   C3A29621  28.416  26.078   7.955
 7732POPC   C4A29622  28.396  26.026   7.655
 7732POPC   C1B29623  28.542  26.266   8.555
 7732POPC   C2B29624  28.536  26.281   8.255
 7732POPC   C3B29625  28.550  26.266   7.955
 7732POPC   C4B29626  28.543  26.232   7.655
 7733POPC   NC329627  35.326  36.931   9.455
 7733POPC   PO429628  35.344  36.946   9.155
 7733POPC   GL129629  35.365  36.891   8.855
 7733POPC   GL229630  35.338  36.999   8.855
 7733POPC   C1A29631  35.357  36.868   8.555
 7733POPC   D2A29632  35.386  36.873   8.255
 7733POPC   C3A29633  35.323  36.921   7.955
 7733POPC   C4A29634  35.387  36.916   7.655
 7733POPC   C1B29635  35.247  37.107   8.555
 7733POPC   C2B29636  35.305  37.164   8.255
 7733POPC   C3B29637  35.259  37.144   7.955
 7733POPC   C4B29638  35.315  37.137   7.655
 7734POPC   NC329639  28.412  43.888   9.455
 7734POPC   PO429640  28.394  43.910   9.155
 7734POPC   GL129641  28.392  43.921   8.855
 7734POPC   GL229642  28.320  43.993   8.855
 7734POPC   C1A29643  28.331  43.893   8.555
 7734POPC   D2A29644  28.406  43.935   8.255
 7734POPC   C3A29645  28.414  43.871   7.955
 7734POPC   C4A29646  28.415  43.866   7.655
 7734POPC   C1B29647  28.186  44.111   8.555
 7734POPC   C2B29648  28.186  44.133   8.255
 7734POPC   C3B29649  28.199  44.046   7.955
 7734POPC   C4B29650  28.195  44.092   7.655
 7735POPC   NC329651  19.836  24.517   9.455
 7735POPC   PO429652  19.827  24.494   9.155
 7735POPC   GL129653  19.797  24.445   8.855
 7735POPC   GL229654  19.885  24.575   8.855
 7735POPC   C1A29655  19.856  24.484   8.555
 7735POPC   D2A29656  19.808  24.457   8.255
 7735POPC   C3A29657  19.881  24.505   7.955
 7735POPC   C4A29658  19.853  24.539   7.655
 7735POPC   C1B29659  19.828  24.729   8.555
 7735POPC   C2B29660  19.806  24.768   8.255
 7735POPC   C3B29661  19.857  24.757   7.955
 7735POPC   C4B29662  19.815  24.717   7.655
 7736POPC   NC329663  22.904   6.690   9.455
 7736POPC   PO429664  22.977   6.632   9.155
 7736POPC   GL129665  22.951   6.605   8.855
 7736POPC   GL229666  22.981   6.578   8.855
 7736POPC   C1A29667  22.984   6.609   8.555
 7736POPC   D2A29668  22.926   6.599   8.255
 7736POPC   C3A29669  22.945   6.647   7.955
 7736POPC   C4A29670  22.904   6.685   7.655
 7736POPC   C1B29671  23.142   6.517   8.555
 7736POPC   C2B29672  23.093   6.510   8.255
 7736POPC   C3B29673  23.167   6.429   7.955
 7736POPC   C4B29674  23.148   6.518   7.655
 7737POPC   NC329675  23.708  17.521   9.455
 7737POPC   PO429676  23.668  17.547   9.155
 7737POPC   GL129677  23.667  17.483   8.855
 7737POPC   GL229678  23.607  17.528   8.855
 7737POPC   C1A29679  23.712  17.545   8.555
 7737POPC   D2A29680  23.721  17.469   8.255
 7737POPC   C3A29681  23.729  17.477   7.955
 7737POPC   C4A29682  23.741  17.465   7.655
 7737POPC   C1B29683  23.498  17.571   8.555
 7737POPC   C2B29684  23.499  17.625   8.255
 7737POPC   C3B29685  23.489  17.620   7.955
 7737POPC   C4B29686  23.431  17.575   7.655
 7738POPC   NC329687  15.159   9.789   9.455
 7738POPC   PO429688  15.144   9.709   9.155
 7738POPC   GL129689  15.213   9.734   8.855
 7738POPC   GL229690  15.229   9.835   8.855
 7738POPC   C1A29691  15.187   9.717   8.555
 7738POPC   D2A29692  15.138   9.755   8.255
 7738POPC   C3A29693  15.194   9.770   7.955
 7738POPC   C4A29694  15.210   9.752   7.655
 7738POPC   C1B29695  15.343   9.954   8.555
 7738POPC   C2B29696  15.355   9.923   8.255
 7738POPC   C3B29697  15.362   9.908   7.955
 7738POPC   C4B29698  15.336   9.939   7.655
 7739POPC   NC329699  33.778  39.192   9.455
 7739POPC   PO429700  33.827  39.241   9.155
 7739POPC   GL129701  33.820  39.182   8.855
 7739POPC   GL229702  33.709  39.372   8.855
 7739POPC   C1A29703  33.761  39.187   8.555
 7739POPC   D2A29704  33.805  39.202   8.255
 7739POPC   C3A29705  33.815  39.238   7.955
 7739POPC   C4A29706  33.768  39.228   7.655
 7739POPC   C1B29707  33.693  39.478   8.555
 7739POPC   C2B29708  33.738  39.463   8.255
 7739POPC   C3B29709  33.735  39.468   7.955
 7739POPC   C4B29710  33.759  39.431   7.655
 7740POPC   NC329711   5.068  14.441   9.455
 7740POPC   PO429712   5.103  14.373   9.155
 7740POPC   GL129713   5.097  14.370   8.855
 7740POPC   GL229714   5.152  14.232   8.855
 7740POPC   C1A29715   5.065  14.400   8.555
 7740POPC   D2A29716   5.131  14.379   8.255
 7740POPC   C3A29717   5.073  14.407   7.955
 7740POPC   C4A29718   5.056  14.436   7.655
 7740POPC   C1B29719   5.163  14.140   8.555
 7740POPC   C2B29720   5.091  14.174   8.255
 7740POPC   C3B29721   5.111  14.143   7.955
 7740POPC   C4B29722   5.138  14.125   7.655
 7741POPC   NC329723   2.025  30.717   9.455
 7741POPC   PO429724   2.029  30.733   9.155
 7741POPC   GL129725   2.007  30.662   8.855
 7741POPC   GL229726   1.881  30.745   8.855
 7741POPC   C1A29727   2.028  30.725   8.555
 7741POPC   D2A29728   2.013  30.741   8.255
 7741POPC   C3A29729   1.991  30.657   7.955
 7741POPC   C4A29730   2.038  30.698   7.655
 7741POPC   C1B29731   1.772  30.757   8.555
 7741POPC   C2B29732   1.791  30.773   8.255
 7741POPC   C3B29733   1.803  30.759   7.955
 7741POPC   C4B29734   1.717  30.836   7.655
 7742POPC   NC329735   3.569  33.010   9.455
 7742POPC   PO429736   3.584  33.035   9.155
 7742POPC   GL129737   3.523  32.985   8.855
 7742POPC   GL229738   3.627  33.023   8.855
 7742POPC   C1A29739   3.527  32.974   8.555
 7742POPC   D2A29740   3.517  33.023   8.255
 7742POPC   C3A29741   3.533  33.021   7.955
 7742POPC   C4A29742   3.552  33.038   7.655
 7742POPC   C1B29743   3.837  33.011   8.555
 7742POPC   C2B29744   3.824  32.978   8.255
 7742POPC   C3B29745   3.803  32.984   7.955
 7742POPC   C4B29746   3.837  32.971   7.655
 7743POPC   NC329747   6.646  33.797   9.455
 7743POPC   PO429748   6.675  33.755   9.155
 7743POPC   GL129749   6.671  33.769   8.855
 7743POPC   GL229750   6.488  33.836   8.855
 7743POPC   C1A29751   6.631  33.809   8.555
 7743POPC   D2A29752   6.608  33.804   8.255
 7743POPC   C3A29753   6.677  33.767   7.955
 7743POPC   C4A29754   6.688  33.801   7.655
 7743POPC   C1B29755   6.404  33.791   8.555
 7743POPC   C2B29756   6.444  33.830   8.255
 7743POPC   C3B29757   6.437  33.829   7.955
 7743POPC   C4B29758   6.385  33.819   7.655
 7744POPC   NC329759   9.739   0.398   9.455
 7744POPC   PO429760   9.745   0.429   9.155
 7744POPC   GL129761   9.734   0.409   8.855
 7744POPC   GL229762   9.676   0.361   8.855
 7744POPC   C1A29763   9.773   0.472   8.555
 7744POPC   D2A29764   9.713   0.398   8.255
 7744POPC   C3A29765   9.705   0.448   7.955
 7744POPC   C4A29766   9.713   0.468   7.655
 7744POPC   C1B29767   9.709   0.170   8.555
 7744POPC   C2B29768   9.681   0.230   8.255
 7744POPC   C3B29769   9.647   0.212   7.955
 7744POPC   C4B29770   9.730   0.221   7.655
 7745POPC   NC329771  24.446  36.896   9.455
 7745POPC   PO429772  24.494  36.937   9.155
 7745POPC   GL129773  24.480  36.934   8.855
 7745POPC   GL229774  24.517  36.824   8.855
 7745POPC   C1A29775  24.505  36.916   8.555
 7745POPC   D2A29776  24.469  36.931   8.255
 7745POPC   C3A29777  24.499  36.903   7.955
 7745POPC   C4A29778  24.502  36.882   7.655
 7745POPC   C1B29779  24.458  36.613   8.555
 7745POPC   C2B29780  24.503  36.655   8.255
 7745POPC   C3B29781  24.472  36.692   7.955
 7745POPC   C4B29782  24.496  36.638   7.655
 7746POPC   NC329783  13.586  15.129   9.455
 7746POPC   PO429784  13.620  15.149   9.155
 7746POPC   GL129785  13.634  15.221   8.855
 7746POPC   GL229786  13.608  15.063   8.855
 7746POPC   C1A29787  13.660  15.171   8.555
 7746POPC   D2A29788  13.605  15.146   8.255
 7746POPC   C3A29789  13.599  15.213   7.955
 7746POPC   C4A29790  13.592  15.157   7.655
 7746POPC   C1B29791  13.630  14.960   8.555
 7746POPC   C2B29792  13.660  14.969   8.255
 7746POPC   C3B29793  13.572  14.964   7.955
 7746POPC   C4B29794  13.642  14.943   7.655
 7747POPC   NC329795  31.431  19.097   9.455
 7747POPC   PO429796  31.423  19.100   9.155
 7747POPC   GL129797  31.452  19.061   8.855
 7747POPC   GL229798  31.568  19.139   8.855
 7747POPC   C1A29799  31.520  19.075   8.555
 7747POPC   D2A29800  31.508  19.096   8.255
 7747POPC   C3A29801  31.502  19.034   7.955
 7747POPC   C4A29802  31.437  19.083   7.655
 7747POPC   C1B29803  31.725  19.149   8.555
 7747POPC   C2B29804  31.700  19.106   8.255
 7747POPC   C3B29805  31.740  19.117   7.955
 7747POPC   C4B29806  31.707  19.123   7.655
 7748POPC   NC329807   1.968   5.060   9.455
 7748POPC   PO429808   1.995   5.084   9.155
 7748POPC   GL129809   2.003   5.119   8.855
 7748POPC   GL229810   1.913   5.145   8.855
 7748POPC   C1A29811   2.029   5.065   8.555
 7748POPC   D2A29812   2.035   5.051   8.255
 7748POPC   C3A29813   1.952   5.125   7.955
 7748POPC   C4A29814   2.032   5.045   7.655
 7748POPC   C1B29815   1.752   5.224   8.555
 7748POPC   C2B29816   1.757   5.153   8.255
 7748POPC   C3B29817   1.794   5.223   7.955
 7748POPC   C4B29818   1.762   5.189   7.655
 7749POPC   NC329819   0.406   0.451   9.455
 7749POPC   PO429820   0.462   0.479   9.155
 7749POPC   GL129821   0.469   0.467   8.855
 7749POPC   GL229822   0.484   0.556   8.855
 7749POPC   C1A29823   0.486   0.396   8.555
 7749POPC   D2A29824   0.480   0.452   8.255
 7749POPC   C3A29825   0.402   0.414   7.955
 7749POPC   C4A29826   0.483   0.415   7.655
 7749POPC   C1B29827   0.511   0.730   8.555
 7749POPC   C2B29828   0.468   0.694   8.255
 7749POPC   C3B29829   0.457   0.636   7.955
 7749POPC   C4B29830   0.522   0.657   7.655
 7750POPC   NC329831  23.752  10.506   9.455
 7750POPC   PO429832  23.748  10.491   9.155
 7750POPC   GL129833  23.728  10.535   8.855
 7750POPC   GL229834  23.767  10.365   8.855
 7750POPC   C1A29835  23.698  10.483   8.555
 7750POPC   D2A29836  23.724  10.542   8.255
 7750POPC   C3A29837  23.689  10.503   7.955
 7750POPC   C4A29838  23.739  10.540   7.655
 7750POPC   C1B29839  23.844  10.329   8.555
 7750POPC   C2B29840  23.758  10.318   8.255
 7750POPC   C3B29841  23.851  10.271   7.955
 7750POPC   C4B29842  23.851  10.332   7.655
 7751POPC   NC329843   1.248   8.201   9.455
 7751POPC   PO429844   1.200   8.198   9.155
 7751POPC   GL129845   1.188   8.238   8.855
 7751POPC   GL229846   1.375   8.146   8.855
 7751POPC   C1A29847   1.167   8.243   8.555
 7751POPC   D2A29848   1.235   8.162   8.255
 7751POPC   C3A29849   1.175   8.241   7.955
 7751POPC   C4A29850   1.166   8.172   7.655
 7751POPC   C1B29851   1.480   8.153   8.555
 7751POPC   C2B29852   1.439   8.075   8.255
 7751POPC   C3B29853   1.433   8.164   7.955
 7751POPC   C4B29854   1.448   8.149   7.655
 7752POPC   NC329855  17.469  40.797   9.455
 7752POPC   PO429856  17.529  40.795   9.155
 7752POPC   GL129857  17.462  40.823   8.855
 7752POPC   GL229858  17.406  40.668   8.855
 7752POPC   C1A29859  17.519  40.749   8.555
 7752POPC   D2A29860  17.537  40.764   8.255
 7752POPC   C3A29861  17.533  40.812   7.955
 7752POPC   C4A29862  17.467  40.787   7.655
 7752POPC   C1B29863  17.335  40.529   8.555
 7752POPC   C2B29864  17.388  40.527   8.255
 7752POPC   C3B29865  17.404  40.581   7.955
 7752POPC   C4B29866  17.346  40.572   7.655
 7753POPC   NC329867  29.934  33.820   9.455
 7753POPC   PO429868  29.933  33.813   9.155
 7753POPC   GL129869  29.893  33.780   8.855
 7753POPC   GL229870  29.864  33.668   8.855
 7753POPC   C1A29871  29.938  33.823   8.555
 7753POPC   D2A29872  29.954  33.770   8.255
 7753POPC   C3A29873  29.964  33.800   7.955
 7753POPC   C4A29874  29.900  33.769   7.655
 7753POPC   C1B29875  29.852  33.542   8.555
 7753POPC   C2B29876  29.936  33.568   8.255
 7753POPC   C3B29877  29.869  33.571   7.955
 7753POPC   C4B29878  29.881  33.563   7.655
 7754POPC   NC329879  12.879  38.472   9.455
 7754POPC   PO429880  12.889  38.463   9.155
 7754POPC   GL129881  12.881  38.489   8.855
 7754POPC   GL229882  12.923  38.341   8.855
 7754POPC   C1A29883  12.853  38.481   8.555
 7754POPC   D2A29884  12.812  38.413   8.255
 7754POPC   C3A29885  12.873  38.451   7.955
 7754POPC   C4A29886  12.830  38.436   7.655
 7754POPC   C1B29887  13.055  38.293   8.555
 7754POPC   C2B29888  13.070  38.304   8.255
 7754POPC   C3B29889  13.063  38.367   7.955
 7754POPC   C4B29890  13.090  38.331   7.655
 7755POPC   NC329891  34.589   6.670   9.455
 7755POPC   PO429892  34.604   6.688   9.155
 7755POPC   GL129893  34.601   6.664   8.855
 7755POPC   GL229894  34.534   6.721   8.855
 7755POPC   C1A29895  34.537   6.644   8.555
 7755POPC   D2A29896  34.596   6.626   8.255
 7755POPC   C3A29897  34.624   6.691   7.955
 7755POPC   C4A29898  34.576   6.641   7.655
 7755POPC   C1B29899  34.580   6.876   8.555
 7755POPC   C2B29900  34.594   6.917   8.255
 7755POPC   C3B29901  34.611   6.885   7.955
 7755POPC   C4B29902  34.547   6.894   7.655
 7756POPC   NC329903  26.780  23.703   9.455
 7756POPC   PO429904  26.809  23.733   9.155
 7756POPC   GL129905  26.851  23.728   8.855
 7756POPC   GL229906  26.740  23.802   8.855
 7756POPC   C1A29907  26.813  23.680   8.555
 7756POPC   D2A29908  26.842  23.762   8.255
 7756POPC   C3A29909  26.824  23.686   7.955
 7756POPC   C4A29910  26.855  23.688   7.655
 7756POPC   C1B29911  26.662  23.862   8.555
 7756POPC   C2B29912  26.657  23.913   8.255
 7756POPC   C3B29913  26.638  23.883   7.955
 7756POPC   C4B29914  26.651  23.887   7.655
 7757POPC   NC329915  44.689  29.936   9.455
 7757POPC   PO429916  44.709  29.952   9.155
 7757POPC   GL129917  44.700  29.949   8.855
 7757POPC   GL229918  44.521  29.928   8.855
 7757POPC   C1A29919  44.670  29.896   8.555
 7757POPC   D2A29920  44.647  29.883   8.255
 7757POPC   C3A29921  44.672  29.922   7.955
 7757POPC   C4A29922  44.678  29.953   7.655
 7757POPC   C1B29923  44.394  30.018   8.555
 7757POPC   C2B29924  44.416  30.003   8.255
 7757POPC   C3B29925  44.399  30.044   7.955
 7757POPC   C4B29926  44.428  30.050   7.655
 7758POPC   NC329927  24.493  23.727   9.455
 7758POPC   PO429928  24.441  23.760   9.155
 7758POPC   GL129929  24.490  23.715   8.855
 7758POPC   GL229930  24.438  23.802   8.855
 7758POPC   C1A29931  24.473  23.719   8.555
 7758POPC   D2A29932  24.445  23.750   8.255
 7758POPC   C3A29933  24.514  23.763   7.955
 7758POPC   C4A29934  24.530  23.665   7.655
 7758POPC   C1B29935  24.314  23.903   8.555
 7758POPC   C2B29936  24.316  23.874   8.255
 7758POPC   C3B29937  24.316  23.907   7.955
 7758POPC   C4B29938  24.322  23.940   7.655
 7759POPC   NC329939   1.253  13.659   9.455
 7759POPC   PO429940   1.180  13.669   9.155
 7759POPC   GL129941   1.173  13.595   8.855
 7759POPC   GL229942   1.264  13.511   8.855
 7759POPC   C1A29943   1.210  13.641   8.555
 7759POPC   D2A29944   1.227  13.647   8.255
 7759POPC   C3A29945   1.201  13.627   7.955
 7759POPC   C4A29946   1.251  13.592   7.655
 7759POPC   C1B29947   1.342  13.462   8.555
 7759POPC   C2B29948   1.329  13.422   8.255
 7759POPC   C3B29949   1.399  13.453   7.955
 7759POPC   C4B29950   1.330  13.454   7.655
 7760POPC   NC329951   3.587  17.493   9.455
 7760POPC   PO429952   3.574  17.468   9.155
 7760POPC   GL129953   3.496  17.533   8.855
 7760POPC   GL229954   3.451  17.386   8.855
 7760POPC   C1A29955   3.548  17.555   8.555
 7760POPC   D2A29956   3.520  17.486   8.255
 7760POPC   C3A29957   3.540  17.547   7.955
 7760POPC   C4A29958   3.574  17.500   7.655
 7760POPC   C1B29959   3.339  17.346   8.555
 7760POPC   C2B29960   3.313  17.298   8.255
 7760POPC   C3B29961   3.343  17.386   7.955
 7760POPC   C4B29962   3.331  17.308   7.655
 7761POPC   NC329963  18.287   2.812   9.455
 7761POPC   PO429964  18.313   2.720   9.155
 7761POPC   GL129965  18.301   2.774   8.855
 7761POPC   GL229966  18.181   2.768   8.855
 7761POPC   C1A29967  18.283   2.753   8.555
 7761POPC   D2A29968  18.245   2.800   8.255
 7761POPC   C3A29969  18.324   2.718   7.955
 7761POPC   C4A29970  18.303   2.801   7.655
 7761POPC   C1B29971  18.036   2.824   8.555
 7761POPC   C2B29972  18.023   2.750   8.255
 7761POPC   C3B29973  18.047   2.790   7.955
 7761POPC   C4B29974  18.062   2.787   7.655
 7762POPC   NC329975  19.048  34.607   9.455
 7762POPC   PO429976  19.048  34.622   9.155
 7762POPC   GL129977  19.029  34.600   8.855
 7762POPC   GL229978  19.020  34.691   8.855
 7762POPC   C1A29979  19.065  34.558   8.555
 7762POPC   D2A29980  19.025  34.615   8.255
 7762POPC   C3A29981  19.044  34.549   7.955
 7762POPC   C4A29982  19.015  34.560   7.655
 7762POPC   C1B29983  18.960  34.790   8.555
 7762POPC   C2B29984  18.991  34.857   8.255
 7762POPC   C3B29985  19.049  34.849   7.955
 7762POPC   C4B29986  19.043  34.784   7.655
 7763POPC   NC329987  29.945  10.547   9.455
 7763POPC   PO429988  29.889  10.567   9.155
 7763POPC   GL129989  29.894  10.553   8.855
 7763POPC   GL229990  30.025  10.381   8.855
 7763POPC   C1A29991  29.934  10.545   8.555
 7763POPC   D2A29992  29.950  10.568   8.255
 7763POPC   C3A29993  29.928  10.549   7.955
 7763POPC   C4A29994  29.956  10.492   7.655
 7763POPC   C1B29995  30.107  10.357   8.555
 7763POPC   C2B29996  30.052  10.332   8.255
 7763POPC   C3B29997  30.038  10.308   7.955
 7763POPC   C4B29998  30.061  10.276   7.655
 7764POPC   NC329999  40.763   5.871   9.455
 7764POPC   PO430000  40.742   5.867   9.155
 7764POPC   GL130001  40.812   5.910   8.855
 7764POPC   GL230002  40.676   5.923   8.855
 7764POPC   C1A30003  40.804   5.917   8.555
 7764POPC   D2A30004  40.757   5.877   8.255
 7764POPC   C3A30005  40.776   5.841   7.955
 7764POPC   C4A30006  40.816   5.866   7.655
 7764POPC   C1B30007  40.525   5.951   8.555
 7764POPC   C2B30008  40.509   5.909   8.255
 7764POPC   C3B30009  40.533   5.883   7.955
 7764POPC   C4B30010  40.497   5.915   7.655
 7765POPC   NC330011  36.910  36.909   9.455
 7765POPC   PO430012  36.925  36.932   9.155
 7765POPC   GL130013  36.947  36.935   8.855
 7765POPC   GL230014  36.995  36.975   8.855
 7765POPC   C1A30015  36.947  36.938   8.555
 7765POPC   D2A30016  36.879  36.952   8.255
 7765POPC   C3A30017  36.860  36.911   7.955
 7765POPC   C4A30018  36.905  36.946   7.655
 7765POPC   C1B30019  37.062  37.111   8.555
 7765POPC   C2B30020  37.068  37.087   8.255
 7765POPC   C3B30021  37.098  37.061   7.955
 7765POPC   C4B30022  37.103  37.107   7.655
 7766POPC   NC330023  10.504  12.057   9.455
 7766POPC   PO430024  10.480  12.037   9.155
 7766POPC   GL130025  10.513  12.087   8.855
 7766POPC   GL230026  10.509  12.179   8.855
 7766POPC   C1A30027  10.521  12.094   8.555
 7766POPC   D2A30028  10.528  12.063   8.255
 7766POPC   C3A30029  10.545  12.115   7.955
 7766POPC   C4A30030  10.518  12.061   7.655
 7766POPC   C1B30031  10.388  12.352   8.555
 7766POPC   C2B30032  10.378  12.343   8.255
 7766POPC   C3B30033  10.438  12.303   7.955
 7766POPC   C4B30034  10.373  12.292   7.655
 7767POPC   NC330035  22.152  19.098   9.455
 7767POPC   PO430036  22.121  19.087   9.155
 7767POPC   GL130037  22.147  19.024   8.855
 7767POPC   GL230038  22.060  19.068   8.855
 7767POPC   C1A30039  22.200  19.065   8.555
 7767POPC   D2A30040  22.150  19.092   8.255
 7767POPC   C3A30041  22.160  19.089   7.955
 7767POPC   C4A30042  22.138  19.088   7.655
 7767POPC   C1B30043  21.910  19.096   8.555
 7767POPC   C2B30044  21.942  19.159   8.255
 7767POPC   C3B30045  21.905  19.088   7.955
 7767POPC   C4B30046  21.918  19.142   7.655
 7768POPC   NC330047  27.574  27.582   9.455
 7768POPC   PO430048  27.616  27.589   9.155
 7768POPC   GL130049  27.548  27.620   8.855
 7768POPC   GL230050  27.590  27.742   8.855
 7768POPC   C1A30051  27.582  27.640   8.555
 7768POPC   D2A30052  27.609  27.628   8.255
 7768POPC   C3A30053  27.629  27.575   7.955
 7768POPC   C4A30054  27.556  27.590   7.655
 7768POPC   C1B30055  27.513  27.842   8.555
 7768POPC   C2B30056  27.509  27.840   8.255
 7768POPC   C3B30057  27.541  27.845   7.955
 7768POPC   C4B30058  27.566  27.811   7.655
 7769POPC   NC330059  12.878  19.046   9.455
 7769POPC   PO430060  12.867  19.043   9.155
 7769POPC   GL130061  12.817  19.061   8.855
 7769POPC   GL230062  12.804  18.972   8.855
 7769POPC   C1A30063  12.832  19.032   8.555
 7769POPC   D2A30064  12.859  19.034   8.255
 7769POPC   C3A30065  12.901  19.061   7.955
 7769POPC   C4A30066  12.882  19.097   7.655
 7769POPC   C1B30067  12.778  18.819   8.555
 7769POPC   C2B30068  12.782  18.836   8.255
 7769POPC   C3B30069  12.819  18.797   7.955
 7769POPC   C4B30070  12.790  18.786   7.655
 7770POPC   NC330071  15.183  13.659   9.455
 7770POPC   PO430072  15.143  13.637   9.155
 7770POPC   GL130073  15.224  13.646   8.855
 7770POPC   GL230074  15.169  13.708   8.855
 7770POPC   C1A30075  15.225  13.630   8.555
 7770POPC   D2A30076  15.163  13.598   8.255
 7770POPC   C3A30077  15.184  13.618   7.955
 7770POPC   C4A30078  15.179  13.662   7.655
 7770POPC   C1B30079  15.159  13.832   8.555
 7770POPC   C2B30080  15.135  13.841   8.255
 7770POPC   C3B30081  15.146  13.878   7.955
 7770POPC   C4B30082  15.129  13.859   7.655
 7771POPC   NC330083  22.175   1.165   9.455
 7771POPC   PO430084  22.191   1.190   9.155
 7771POPC   GL130085  22.161   1.231   8.855
 7771POPC   GL230086  22.075   1.151   8.855
 7771POPC   C1A30087  22.206   1.215   8.555
 7771POPC   D2A30088  22.188   1.200   8.255
 7771POPC   C3A30089  22.148   1.223   7.955
 7771POPC   C4A30090  22.175   1.226   7.655
 7771POPC   C1B30091  21.996   1.018   8.555
 7771POPC   C2B30092  21.954   1.047   8.255
 7771POPC   C3B30093  21.953   1.079   7.955
 7771POPC   C4B30094  21.947   1.061   7.655
 7772POPC   NC330095  40.813   9.797   9.455
 7772POPC   PO430096  40.766   9.754   9.155
 7772POPC   GL130097  40.829   9.790   8.855
 7772POPC   GL230098  40.898   9.733   8.855
 7772POPC   C1A30099  40.832   9.755   8.555
 7772POPC   D2A30100  40.810   9.745   8.255
 7772POPC   C3A30101  40.820   9.765   7.955
 7772POPC   C4A30102  40.796   9.738   7.655
 7772POPC   C1B30103  41.038   9.733   8.555
 7772POPC   C2B30104  40.994   9.742   8.255
 7772POPC   C3B30105  41.017   9.734   7.955
 7772POPC   C4B30106  41.010   9.724   7.655
 7773POPC   NC330107   5.886  13.642   9.455
 7773POPC   PO430108   5.879  13.646   9.155
 7773POPC   GL130109   5.849  13.610   8.855
 7773POPC   GL230110   5.797  13.554   8.855
 7773POPC   C1A30111   5.905  13.586   8.555
 7773POPC   D2A30112   5.858  13.601   8.255
 7773POPC   C3A30113   5.915  13.594   7.955
 7773POPC   C4A30114   5.880  13.619   7.655
 7773POPC   C1B30115   5.865  13.388   8.555
 7773POPC   C2B30116   5.852  13.386   8.255
 7773POPC   C3B30117   5.830  13.401   7.955
 7773POPC   C4B30118   5.841  13.347   7.655
 7774POPC   NC330119  22.206  14.378   9.455
 7774POPC   PO430120  22.171  14.440   9.155
 7774POPC   GL130121  22.144  14.429   8.855
 7774POPC   GL230122  22.146  14.237   8.855
 7774POPC   C1A30123  22.117  14.373   8.555
 7774POPC   D2A30124  22.181  14.428   8.255
 7774POPC   C3A30125  22.170  14.366   7.955
 7774POPC   C4A30126  22.181  14.372   7.655
 7774POPC   C1B30127  22.143  14.125   8.555
 7774POPC   C2B30128  22.088  14.202   8.255
 7774POPC   C3B30129  22.092  14.126   7.955
 7774POPC   C4B30130  22.106  14.179   7.655
 7775POPC   NC330131  12.032   9.778   9.455
 7775POPC   PO430132  12.123   9.794   9.155
 7775POPC   GL130133  12.068   9.795   8.855
 7775POPC   GL230134  11.936   9.853   8.855
 7775POPC   C1A30135  12.039   9.747   8.555
 7775POPC   D2A30136  12.067   9.766   8.255
 7775POPC   C3A30137  12.069   9.796   7.955
 7775POPC   C4A30138  12.042   9.708   7.655
 7775POPC   C1B30139  11.863   9.906   8.555
 7775POPC   C2B30140  11.819   9.872   8.255
 7775POPC   C3B30141  11.833   9.919   7.955
 7775POPC   C4B30142  11.910   9.860   7.655
 7776POPC   NC330143   4.283  28.366   9.455
 7776POPC   PO430144   4.334  28.363   9.155
 7776POPC   GL130145   4.359  28.405   8.855
 7776POPC   GL230146   4.366  28.422   8.855
 7776POPC   C1A30147   4.279  28.402   8.555
 7776POPC   D2A30148   4.307  28.361   8.255
 7776POPC   C3A30149   4.360  28.330   7.955
 7776POPC   C4A30150   4.357  28.328   7.655
 7776POPC   C1B30151   4.531  28.542   8.555
 7776POPC   C2B30152   4.488  28.575   8.255
 7776POPC   C3B30153   4.472  28.556   7.955
 7776POPC   C4B30154   4.533  28.509   7.655
 7777POPC   NC330155  32.288   2.037   9.455
 7777POPC   PO430156  32.229   2.029   9.155
 7777POPC   GL130157  32.277   2.007   8.855
 7777POPC   GL230158  32.268   2.058   8.855
 7777POPC   C1A30159  32.291   2.009   8.555
 7777POPC   D2A30160  32.233   1.974   8.255
 7777POPC   C3A30161  32.210   2.031   7.955
 7777POPC   C4A30162  32.254   2.008   7.655
 7777POPC   C1B30163  32.403   2.224   8.555
 7777POPC   C2B30164  32.336   2.223   8.255
 7777POPC   C3B30165  32.326   2.202   7.955
 7777POPC   C4B30166  32.368   2.173   7.655
 7778POPC   NC330167  24.470  15.963   9.455
 7778POPC   PO430168  24.496  16.001   9.155
 7778POPC   GL130169  24.445  15.973   8.855
 7778POPC   GL230170  24.510  15.892   8.855
 7778POPC   C1A30171  24.477  15.937   8.555
 7778POPC   D2A30172  24.535  15.980   8.255
 7778POPC   C3A30173  24.518  16.000   7.955
 7778POPC   C4A30174  24.474  15.996   7.655
 7778POPC   C1B30175  24.637  15.776   8.555
 7778POPC   C2B30176  24.608  15.779   8.255
 7778POPC   C3B30177  24.605  15.755   7.955
 7778POPC   C4B30178  24.564  15.694   7.655
 7779POPC   NC330179  20.562  12.849   9.455
 7779POPC   PO430180  20.636  12.823   9.155
 7779POPC   GL130181  20.603  12.873   8.855
 7779POPC   GL230182  20.519  12.784   8.855
 7779POPC   C1A30183  20.574  12.895   8.555
 7779POPC   D2A30184  20.585  12.806   8.255
 7779POPC   C3A30185  20.575  12.838   7.955
 7779POPC   C4A30186  20.582  12.860   7.655
 7779POPC   C1B30187  20.446  12.657   8.555
 7779POPC   C2B30188  20.421  12.647   8.255
 7779POPC   C3B30189  20.446  12.719   7.955
 7779POPC   C4B30190  20.422  12.731   7.655
 7780POPC   NC330191   0.469   4.285   9.455
 7780POPC   PO430192   0.459   4.354   9.155
 7780POPC   GL130193   0.440   4.274   8.855
 7780POPC   GL230194   0.411   4.213   8.855
 7780POPC   C1A30195   0.440   4.283   8.555
 7780POPC   D2A30196   0.390   4.279   8.255
 7780POPC   C3A30197   0.459   4.333   7.955
 7780POPC   C4A30198   0.396   4.279   7.655
 7780POPC   C1B30199   0.367   4.035   8.555
 7780POPC   C2B30200   0.352   4.063   8.255
 7780POPC   C3B30201   0.323   4.086   7.955
 7780POPC   C4B30202   0.407   4.030   7.655
 7781POPC   NC330203  37.705  32.209   9.455
 7781POPC   PO430204  37.663  32.242   9.155
 7781POPC   GL130205  37.673  32.240   8.855
 7781POPC   GL230206  37.759  32.191   8.855
 7781POPC   C1A30207  37.683  32.284   8.555
 7781POPC   D2A30208  37.683  32.249   8.255
 7781POPC   C3A30209  37.637  32.244   7.955
 7781POPC   C4A30210  37.668  32.205   7.655
 7781POPC   C1B30211  37.870  32.084   8.555
 7781POPC   C2B30212  37.857  32.064   8.255
 7781POPC   C3B30213  37.850  32.072   7.955
 7781POPC   C4B30214  37.791  32.011   7.655
 7782POPC   NC330215  13.637  12.036   9.455
 7782POPC   PO430216  13.651  12.068   9.155
 7782POPC   GL130217  13.665  12.090   8.855
 7782POPC   GL230218  13.636  12.161   8.855
 7782POPC   C1A30219  13.648  12.065   8.555
 7782POPC   D2A30220  13.600  12.125   8.255
 7782POPC   C3A30221  13.631  12.096   7.955
 7782POPC   C4A30222  13.670  12.068   7.655
 7782POPC   C1B30223  13.608  12.285   8.555
 7782POPC   C2B30224  13.599  12.355   8.255
 7782POPC   C3B30225  13.529  12.289   7.955
 7782POPC   C4B30226  13.553  12.287   7.655
 7783POPC   NC330227  22.925  13.655   9.455
 7783POPC   PO430228  22.949  13.664   9.155
 7783POPC   GL130229  22.967  13.595   8.855
 7783POPC   GL230230  22.949  13.506   8.855
 7783POPC   C1A30231  22.945  13.585   8.555
 7783POPC   D2A30232  22.894  13.647   8.255
 7783POPC   C3A30233  22.954  13.657   7.955
 7783POPC   C4A30234  22.958  13.590   7.655
 7783POPC   C1B30235  23.052  13.392   8.555
 7783POPC   C2B30236  23.075  13.444   8.255
 7783POPC   C3B30237  23.077  13.355   7.955
 7783POPC   C4B30238  23.059  13.358   7.655
 7784POPC   NC330239   4.269  32.294   9.455
 7784POPC   PO430240   4.279  32.272   9.155
 7784POPC   GL130241   4.324  32.229   8.855
 7784POPC   GL230242   4.231  32.291   8.855
 7784POPC   C1A30243   4.295  32.252   8.555
 7784POPC   D2A30244   4.324  32.275   8.255
 7784POPC   C3A30245   4.352  32.233   7.955
 7784POPC   C4A30246   4.336  32.208   7.655
 7784POPC   C1B30247   4.146  32.424   8.555
 7784POPC   C2B30248   4.081  32.387   8.255
 7784POPC   C3B30249   4.067  32.405   7.955
 7784POPC   C4B30250   4.063  32.398   7.655
 7785POPC   NC330251  14.419  36.104   9.455
 7785POPC   PO430252  14.414  36.168   9.155
 7785POPC   GL130253  14.406  36.085   8.855
 7785POPC   GL230254  14.253  36.199   8.855
 7785POPC   C1A30255  14.442  36.151   8.555
 7785POPC   D2A30256  14.400  36.107   8.255
 7785POPC   C3A30257  14.445  36.112   7.955
 7785POPC   C4A30258  14.438  36.177   7.655
 7785POPC   C1B30259  14.178  36.206   8.555
 7785POPC   C2B30260  14.171  36.167   8.255
 7785POPC   C3B30261  14.111  36.133   7.955
 7785POPC   C4B30262  14.136  36.151   7.655
 7786POPC   NC330263  10.538  40.014   9.455
 7786POPC   PO430264  10.507  40.054   9.155
 7786POPC   GL130265  10.555  39.978   8.855
 7786POPC   GL230266  10.675  40.076   8.855
 7786POPC   C1A30267  10.477  39.999   8.555
 7786POPC   D2A30268  10.508  40.027   8.255
 7786POPC   C3A30269  10.536  40.022   7.955
 7786POPC   C4A30270  10.492  40.014   7.655
 7786POPC   C1B30271  10.754  40.151   8.555
 7786POPC   C2B30272  10.717  40.198   8.255
 7786POPC   C3B30273  10.695  40.106   7.955
 7786POPC   C4B30274  10.688  40.124   7.655
 7787POPC   NC330275  33.800  30.672   9.455
 7787POPC   PO430276  33.755  30.702   9.155
 7787POPC   GL130277  33.848  30.689   8.855
 7787POPC   GL230278  33.663  30.797   8.855
 7787POPC   C1A30279  33.823  30.733   8.555
 7787POPC   D2A30280  33.803  30.660   8.255
 7787POPC   C3A30281  33.839  30.673   7.955
 7787POPC   C4A30282  33.767  30.681   7.655
 7787POPC   C1B30283  33.622  30.858   8.555
 7787POPC   C2B30284  33.545  30.802   8.255
 7787POPC   C3B30285  33.628  30.811   7.955
 7787POPC   C4B30286  33.620  30.818   7.655
 7788POPC   NC330287  12.079  12.035   9.455
 7788POPC   PO430288  12.118  12.053   9.155
 7788POPC   GL130289  12.111  12.074   8.855
 7788POPC   GL230290  12.024  12.188   8.855
 7788POPC   C1A30291  12.047  12.113   8.555
 7788POPC   D2A30292  12.041  12.110   8.255
 7788POPC   C3A30293  12.043  12.089   7.955
 7788POPC   C4A30294  12.077  12.098   7.655
 7788POPC   C1B30295  11.923  12.245   8.555
 7788POPC   C2B30296  11.924  12.312   8.255
 7788POPC   C3B30297  11.869  12.223   7.955
 7788POPC   C4B30298  11.887  12.303   7.655
 7789POPC   NC330299  20.659  14.451   9.455
 7789POPC   PO430300  20.577  14.403   9.155
 7789POPC   GL130301  20.616  14.432   8.855
 7789POPC   GL230302  20.713  14.387   8.855
 7789POPC   C1A30303  20.627  14.449   8.555
 7789POPC   D2A30304  20.611  14.386   8.255
 7789POPC   C3A30305  20.606  14.415   7.955
 7789POPC   C4A30306  20.657  14.407   7.655
 7789POPC   C1B30307  20.881  14.401   8.555
 7789POPC   C2B30308  20.905  14.353   8.255
 7789POPC   C3B30309  20.840  14.383   7.955
 7789POPC   C4B30310  20.852  14.360   7.655
 7790POPC   NC330311  22.890  33.033   9.455
 7790POPC   PO430312  22.945  33.053   9.155
 7790POPC   GL130313  22.940  33.060   8.855
 7790POPC   GL230314  23.034  32.965   8.855
 7790POPC   C1A30315  22.931  33.035   8.555
 7790POPC   D2A30316  22.917  33.044   8.255
 7790POPC   C3A30317  22.956  33.008   7.955
 7790POPC   C4A30318  22.982  33.039   7.655
 7790POPC   C1B30319  23.147  32.792   8.555
 7790POPC   C2B30320  23.084  32.809   8.255
 7790POPC   C3B30321  23.151  32.889   7.955
 7790POPC   C4B30322  23.144  32.858   7.655
 7791POPC   NC330323   3.522  30.727   9.455
 7791POPC   PO430324   3.553  30.694   9.155
 7791POPC   GL130325   3.552  30.711   8.855
 7791POPC   GL230326   3.617  30.801   8.855
 7791POPC   C1A30327   3.493  30.678   8.555
 7791POPC   D2A30328   3.540  30.676   8.255
 7791POPC   C3A30329   3.504  30.656   7.955
 7791POPC   C4A30330   3.496  30.692   7.655
 7791POPC   C1B30331   3.661  30.943   8.555
 7791POPC   C2B30332   3.698  30.912   8.255
 7791POPC   C3B30333   3.680  30.867   7.955
 7791POPC   C4B30334   3.662  30.947   7.655
 7792POPC   NC330335  13.639  44.700   9.455
 7792POPC   PO430336  13.579  44.700   9.155
 7792POPC   GL130337  13.672  44.633   8.855
 7792POPC   GL230338  13.508  44.611   8.855
 7792POPC   C1A30339  13.650  44.629   8.555
 7792POPC   D2A30340  13.583  44.655   8.255
 7792POPC   C3A30341  13.663  44.648   7.955
 7792POPC   C4A30342  13.583  44.690   7.655
 7792POPC   C1B30343  13.405  44.514   8.555
 7792POPC   C2B30344  13.373  44.561   8.255
 7792POPC   C3B30345  13.434  44.606   7.955
 7792POPC   C4B30346  13.380  44.522   7.655
 7793POPC   NC330347   9.723  17.466   9.455
 7793POPC   PO430348   9.752  17.550   9.155
 7793POPC   GL130349   9.754  17.506   8.855
 7793POPC   GL230350   9.707  17.398   8.855
 7793POPC   C1A30351   9.765  17.460   8.555
 7793POPC   D2A30352   9.789  17.547   8.255
 7793POPC   C3A30353   9.771  17.496   7.955
 7793POPC   C4A30354   9.783  17.471   7.655
 7793POPC   C1B30355   9.604  17.274   8.555
 7793POPC   C2B30356   9.671  17.282   8.255
 7793POPC   C3B30357   9.622  17.297   7.955
 7793POPC   C4B30358   9.603  17.283   7.655
 7794POPC   NC330359   0.410  11.330   9.455
 7794POPC   PO430360   0.483  11.348   9.155
 7794POPC   GL130361   0.391  11.326   8.855
 7794POPC   GL230362   0.448  11.152   8.855
 7794POPC   C1A30363   0.412  11.309   8.555
 7794POPC   D2A30364   0.437  11.288   8.255
 7794POPC   C3A30365   0.461  11.293   7.955
 7794POPC   C4A30366   0.449  11.265   7.655
 7794POPC   C1B30367   0.434  11.011   8.555
 7794POPC   C2B30368   0.402  11.040   8.255
 7794POPC   C3B30369   0.370  11.058   7.955
 7794POPC   C4B30370   0.355  11.046   7.655
 7795POPC   NC330371  26.800  43.098   9.455
 7795POPC   PO430372  26.851  43.112   9.155
 7795POPC   GL130373  26.819  43.103   8.855
 7795POPC   GL230374  26.747  43.220   8.855
 7795POPC   C1A30375  26.854  43.141   8.555
 7795POPC   D2A30376  26.788  43.077   8.255
 7795POPC   C3A30377  26.835  43.102   7.955
 7795POPC   C4A30378  26.834  43.101   7.655
 7795POPC   C1B30379  26.689  43.334   8.555
 7795POPC   C2B30380  26.702  43.324   8.255
 7795POPC   C3B30381  26.720  43.386   7.955
 7795POPC   C4B30382  26.691  43.316   7.655
 7796POPC   NC330383   3.504  36.935   9.455
 7796POPC   PO430384   3.505  36.896   9.155
 7796POPC   GL130385   3.515  36.892   8.855
 7796POPC   GL230386   3.475  37.018   8.855
 7796POPC   C1A30387   3.499  36.929   8.555
 7796POPC   D2A30388   3.534  36.950   8.255
 7796POPC   C3A30389   3.532  36.934   7.955
 7796POPC   C4A30390   3.590  36.867   7.655
 7796POPC   C1B30391   3.409  37.080   8.555
 7796POPC   C2B30392   3.362  37.113   8.255
 7796POPC   C3B30393   3.321  37.109   7.955
 7796POPC   C4B30394   3.407  37.112   7.655
 7797POPC   NC330395  32.240  15.939   9.455
 7797POPC   PO430396  32.209  15.964   9.155
 7797POPC   GL130397  32.210  15.986   8.855
 7797POPC   GL230398  32.407  16.011   8.855
 7797POPC   C1A30399  32.273  15.908   8.555
 7797POPC   D2A30400  32.215  15.980   8.255
 7797POPC   C3A30401  32.206  15.914   7.955
 7797POPC   C4A30402  32.278  15.955   7.655
 7797POPC   C1B30403  32.514  15.949   8.555
 7797POPC   C2B30404  32.483  16.018   8.255
 7797POPC   C3B30405  32.529  15.952   7.955
 7797POPC   C4B30406  32.515  16.012   7.655
 7798POPC   NC330407  27.583  36.919   9.455
 7798POPC   PO430408  27.575  36.866   9.155
 7798POPC   GL130409  27.567  36.920   8.855
 7798POPC   GL230410  27.607  37.057   8.855
 7798POPC   C1A30411  27.597  36.910   8.555
 7798POPC   D2A30412  27.595  36.910   8.255
 7798POPC   C3A30413  27.576  36.936   7.955
 7798POPC   C4A30414  27.574  36.902   7.655
 7798POPC   C1B30415  27.654  37.148   8.555
 7798POPC   C2B30416  27.715  37.166   8.255
 7798POPC   C3B30417  27.664  37.141   7.955
 7798POPC   C4B30418  27.627  37.146   7.655
 7799POPC   NC330419  11.256   9.726   9.455
 7799POPC   PO430420  11.257   9.773   9.155
 7799POPC   GL130421  11.319   9.747   8.855
 7799POPC   GL230422  11.256   9.801   8.855
 7799POPC   C1A30423  11.316   9.775   8.555
 7799POPC   D2A30424  11.252   9.762   8.255
 7799POPC   C3A30425  11.296   9.701   7.955
 7799POPC   C4A30426  11.296   9.740   7.655
 7799POPC   C1B30427  11.108   9.895   8.555
 7799POPC   C2B30428  11.139   9.881   8.255
 7799POPC   C3B30429  11.076   9.932   7.955
 7799POPC   C4B30430  11.101   9.880   7.655
 7800POPC   NC330431   7.458  16.768   9.455
 7800POPC   PO430432   7.422  16.708   9.155
 7800POPC   GL130433   7.424  16.689   8.855
 7800POPC   GL230434   7.366  16.809   8.855
 7800POPC   C1A30435   7.440  16.698   8.555
 7800POPC   D2A30436   7.400  16.716   8.255
 7800POPC   C3A30437   7.374  16.700   7.955
 7800POPC   C4A30438   7.458  16.745   7.655
 7800POPC   C1B30439   7.408  17.025   8.555
 7800POPC   C2B30440   7.365  17.020   8.255
 7800POPC   C3B30441   7.417  17.000   7.955
 7800POPC   C4B30442   7.419  17.025   7.655
 7801POPC   NC330443   1.968  42.286   9.455
 7801POPC   PO430444   2.008  42.347   9.155
 7801POPC   GL130445   1.974  42.359   8.855
 7801POPC   GL230446   2.060  42.274   8.855
 7801POPC   C1A30447   1.974  42.305   8.555
 7801POPC   D2A30448   1.944  42.310   8.255
 7801POPC   C3A30449   2.014  42.288   7.955
 7801POPC   C4A30450   1.955  42.365   7.655
 7801POPC   C1B30451   2.184  42.178   8.555
 7801POPC   C2B30452   2.217  42.127   8.255
 7801POPC   C3B30453   2.122  42.143   7.955
 7801POPC   C4B30454   2.178  42.166   7.655
 7802POPC   NC330455   7.454  17.494   9.455
 7802POPC   PO430456   7.374  17.506   9.155
 7802POPC   GL130457   7.437  17.470   8.855
 7802POPC   GL230458   7.451  17.646   8.855
 7802POPC   C1A30459   7.445  17.555   8.555
 7802POPC   D2A30460   7.413  17.472   8.255
 7802POPC   C3A30461   7.377  17.467   7.955
 7802POPC   C4A30462   7.394  17.511   7.655
 7802POPC   C1B30463   7.374  17.708   8.555
 7802POPC   C2B30464   7.392  17.804   8.255
 7802POPC   C3B30465   7.377  17.741   7.955
 7802POPC   C4B30466   7.389  17.721   7.655
 7803POPC   NC330467  42.370   8.185   9.455
 7803POPC   PO430468  42.347   8.221   9.155
 7803POPC   GL130469  42.337   8.186   8.855
 7803POPC   GL230470  42.405   8.151   8.855
 7803POPC   C1A30471  42.312   8.159   8.555
 7803POPC   D2A30472  42.358   8.241   8.255
 7803POPC   C3A30473  42.361   8.155   7.955
 7803POPC   C4A30474  42.324   8.175   7.655
 7803POPC   C1B30475  42.494   8.049   8.555
 7803POPC   C2B30476  42.486   8.017   8.255
 7803POPC   C3B30477  42.509   8.006   7.955
 7803POPC   C4B30478  42.464   8.066   7.655
 7804POPC   NC330479  44.710  28.392   9.455
 7804POPC   PO430480  44.690  28.394   9.155
 7804POPC   GL130481  44.657  28.387   8.855
 7804POPC   GL230482  44.630  28.217   8.855
 7804POPC   C1A30483  44.647  28.382   8.555
 7804POPC   D2A30484  44.687  28.322   8.255
 7804POPC   C3A30485  44.638  28.399   7.955
 7804POPC   C4A30486  44.648  28.338   7.655
 7804POPC   C1B30487  44.591  28.139   8.555
 7804POPC   C2B30488  44.608  28.082   8.255
 7804POPC   C3B30489  44.655  28.125   7.955
 7804POPC   C4B30490  44.648  28.126   7.655
 7805POPC   NC330491  23.740  16.714   9.455
 7805POPC   PO430492  23.745  16.752   9.155
 7805POPC   GL130493  23.712  16.778   8.855
 7805POPC   GL230494  23.630  16.620   8.855
 7805POPC   C1A30495  23.761  16.712   8.555
 7805POPC   D2A30496  23.689  16.688   8.255
 7805POPC   C3A30497  23.718  16.711   7.955
 7805POPC   C4A30498  23.734  16.688   7.655
 7805POPC   C1B30499  23.540  16.481   8.555
 7805POPC   C2B30500  23.537  16.529   8.255
 7805POPC   C3B30501  23.551  16.570   7.955
 7805POPC   C4B30502  23.573  16.486   7.655
 7806POPC   NC330503  11.286   2.767   9.455
 7806POPC   PO430504  11.316   2.805   9.155
 7806POPC   GL130505  11.346   2.774   8.855
 7806POPC   GL230506  11.245   2.673   8.855
 7806POPC   C1A30507  11.293   2.724   8.555
 7806POPC   D2A30508  11.253   2.793   8.255
 7806POPC   C3A30509  11.312   2.758   7.955
 7806POPC   C4A30510  11.341   2.782   7.655
 7806POPC   C1B30511  11.094   2.619   8.555
 7806POPC   C2B30512  11.132   2.656   8.255
 7806POPC   C3B30513  11.133   2.638   7.955
 7806POPC   C4B30514  11.097   2.615   7.655
 7807POPC   NC330515  15.229  41.528   9.455
 7807POPC   PO430516  15.199  41.575   9.155
 7807POPC   GL130517  15.186  41.606   8.855
 7807POPC   GL230518  15.083  41.463   8.855
 7807POPC   C1A30519  15.141  41.579   8.555
 7807POPC   D2A30520  15.222  41.560   8.255
 7807POPC   C3A30521  15.196  41.588   7.955
 7807POPC   C4A30522  15.195  41.512   7.655
 7807POPC   C1B30523  15.047  41.361   8.555
 7807POPC   C2B30524  14.992  41.316   8.255
 7807POPC   C3B30525  15.053  41.314   7.955
 7807POPC   C4B30526  15.048  41.367   7.655
 7808POPC   NC330527  24.512   6.644   9.455
 7808POPC   PO430528  24.469   6.599   9.155
 7808POPC   GL130529  24.461   6.657   8.855
 7808POPC   GL230530  24.633   6.715   8.855
 7808POPC   C1A30531  24.522   6.610   8.555
 7808POPC   D2A30532  24.472   6.620   8.255
 7808POPC   C3A30533  24.491   6.645   7.955
 7808POPC   C4A30534  24.442   6.682   7.655
 7808POPC   C1B30535  24.645   6.836   8.555
 7808POPC   C2B30536  24.685   6.812   8.255
 7808POPC   C3B30537  24.655   6.824   7.955
 7808POPC   C4B30538  24.732   6.820   7.655
 7809POPC   NC330539  15.946  40.029   9.455
 7809POPC   PO430540  15.931  39.974   9.155
 7809POPC   GL130541  15.913  40.000   8.855
 7809POPC   GL230542  15.936  40.119   8.855
 7809POPC   C1A30543  15.992  40.050   8.555
 7809POPC   D2A30544  15.909  40.048   8.255
 7809POPC   C3A30545  15.952  40.005   7.955
 7809POPC   C4A30546  15.981  40.020   7.655
 7809POPC   C1B30547  15.853  40.174   8.555
 7809POPC   C2B30548  15.848  40.210   8.255
 7809POPC   C3B30549  15.817  40.235   7.955
 7809POPC   C4B30550  15.803  40.234   7.655
 7810POPC   NC330551  42.313   0.396   9.455
 7810POPC   PO430552  42.343   0.472   9.155
 7810POPC   GL130553  42.305   0.434   8.855
 7810POPC   GL230554  42.196   0.430   8.855
 7810POPC   C1A30555  42.324   0.453   8.555
 7810POPC   D2A30556  42.376   0.424   8.255
 7810POPC   C3A30557  42.288   0.403   7.955
 7810POPC   C4A30558  42.347   0.428   7.655
 7810POPC   C1B30559  42.077   0.398   8.555
 7810POPC   C2B30560  42.084   0.405   8.255
 7810POPC   C3B30561  42.061   0.396   7.955
 7810POPC   C4B30562  42.108   0.382   7.655
 7811POPC   NC330563  21.339  39.247   9.455
 7811POPC   PO430564  21.422  39.196   9.155
 7811POPC   GL130565  21.415  39.237   8.855
 7811POPC   GL230566  21.396  39.134   8.855
 7811POPC   C1A30567  21.426  39.240   8.555
 7811POPC   D2A30568  21.381  39.207   8.255
 7811POPC   C3A30569  21.417  39.250   7.955
 7811POPC   C4A30570  21.353  39.221   7.655
 7811POPC   C1B30571  21.349  39.012   8.555
 7811POPC   C2B30572  21.334  38.983   8.255
 7811POPC   C3B30573  21.341  39.011   7.955
 7811POPC   C4B30574  21.365  38.969   7.655
 7812POPC   NC330575  40.801  28.396   9.455
 7812POPC   PO430576  40.762  28.345   9.155
 7812POPC   GL130577  40.781  28.339   8.855
 7812POPC   GL230578  40.652  28.444   8.855
 7812POPC   C1A30579  40.768  28.361   8.555
 7812POPC   D2A30580  40.829  28.411   8.255
 7812POPC   C3A30581  40.777  28.361   7.955
 7812POPC   C4A30582  40.832  28.411   7.655
 7812POPC   C1B30583  40.564  28.441   8.555
 7812POPC   C2B30584  40.515  28.397   8.255
 7812POPC   C3B30585  40.584  28.385   7.955
 7812POPC   C4B30586  40.584  28.401   7.655
 7813POPC   NC330587  26.793  11.337   9.455
 7813POPC   PO430588  26.769  11.251   9.155
 7813POPC   GL130589  26.850  11.334   8.855
 7813POPC   GL230590  26.771  11.408   8.855
 7813POPC   C1A30591  26.816  11.296   8.555
 7813POPC   D2A30592  26.811  11.308   8.255
 7813POPC   C3A30593  26.864  11.262   7.955
 7813POPC   C4A30594  26.856  11.271   7.655
 7813POPC   C1B30595  26.585  11.460   8.555
 7813POPC   C2B30596  26.638  11.484   8.255
 7813POPC   C3B30597  26.640  11.503   7.955
 7813POPC   C4B30598  26.623  11.483   7.655
 7814POPC   NC330599  39.229  44.617   9.455
 7814POPC   PO430600  39.274  44.622   9.155
 7814POPC   GL130601  39.271  44.639   8.855
 7814POPC   GL230602  39.345  44.642   8.855
 7814POPC   C1A30603  39.209  44.696   8.555
 7814POPC   D2A30604  39.212  44.648   8.255
 7814POPC   C3A30605  39.197  44.708   7.955
 7814POPC   C4A30606  39.256  44.641   7.655
 7814POPC   C1B30607  39.430  44.528   8.555
 7814POPC   C2B30608  39.478  44.541   8.255
 7814POPC   C3B30609  39.507  44.556   7.955
 7814POPC   C4B30610  39.423  44.581   7.655
 7815POPC   NC330611  33.842  44.689   9.455
 7815POPC   PO430612  33.791  44.689   9.155
 7815POPC   GL130613  33.772  44.695   8.855
 7815POPC   GL230614  33.701  44.575   8.855
 7815POPC   C1A30615  33.835  44.681   8.555
 7815POPC   D2A30616  33.773  44.711   8.255
 7815POPC   C3A30617  33.774  44.685   7.955
 7815POPC   C4A30618  33.758  44.649   7.655
 7815POPC   C1B30619  33.531  44.563   8.555
 7815POPC   C2B30620  33.523  44.584   8.255
 7815POPC   C3B30621  33.602  44.600   7.955
 7815POPC   C4B30622  33.599  44.584   7.655
 7816POPC   NC330623  36.913  24.519   9.455
 7816POPC   PO430624  36.922  24.512   9.155
 7816POPC   GL130625  36.917  24.475   8.855
 7816POPC   GL230626  36.867  24.369   8.855
 7816POPC   C1A30627  36.951  24.472   8.555
 7816POPC   D2A30628  36.886  24.469   8.255
 7816POPC   C3A30629  36.889  24.507   7.955
 7816POPC   C4A30630  36.874  24.512   7.655
 7816POPC   C1B30631  36.714  24.301   8.555
 7816POPC   C2B30632  36.770  24.273   8.255
 7816POPC   C3B30633  36.756  24.306   7.955
 7816POPC   C4B30634  36.741  24.322   7.655
 7817POPC   NC330635  21.391  15.994   9.455
 7817POPC   PO430636  21.345  15.998   9.155
 7817POPC   GL130637  21.340  15.934   8.855
 7817POPC   GL230638  21.227  15.975   8.855
 7817POPC   C1A30639  21.393  15.979   8.555
 7817POPC   D2A30640  21.405  15.990   8.255
 7817POPC   C3A30641  21.377  15.985   7.955
 7817POPC   C4A30642  21.348  15.965   7.655
 7817POPC   C1B30643  21.115  15.963   8.555
 7817POPC   C2B30644  21.119  15.894   8.255
 7817POPC   C3B30645  21.101  15.976   7.955
 7817POPC   C4B30646  21.110  15.974   7.655
 7818POPC   NC330647  10.534  35.365   9.455
 7818POPC   PO430648  10.497  35.394   9.155
 7818POPC   GL130649  10.547  35.340   8.855
 7818POPC   GL230650  10.472  35.462   8.855
 7818POPC   C1A30651  10.568  35.331   8.555
 7818POPC   D2A30652  10.541  35.390   8.255
 7818POPC   C3A30653  10.512  35.331   7.955
 7818POPC   C4A30654  10.553  35.345   7.655
 7818POPC   C1B30655  10.361  35.587   8.555
 7818POPC   C2B30656  10.405  35.599   8.255
 7818POPC   C3B30657  10.452  35.619   7.955
 7818POPC   C4B30658  10.375  35.547   7.655
 7819POPC   NC330659  13.607  33.832   9.455
 7819POPC   PO430660  13.591  33.789   9.155
 7819POPC   GL130661  13.615  33.844   8.855
 7819POPC   GL230662  13.560  33.781   8.855
 7819POPC   C1A30663  13.673  33.770   8.555
 7819POPC   D2A30664  13.614  33.766   8.255
 7819POPC   C3A30665  13.603  33.771   7.955
 7819POPC   C4A30666  13.606  33.847   7.655
 7819POPC   C1B30667  13.390  33.649   8.555
 7819POPC   C2B30668  13.415  33.656   8.255
 7819POPC   C3B30669  13.369  33.622   7.955
 7819POPC   C4B30670  13.451  33.635   7.655
 7820POPC   NC330671  26.057  14.363   9.455
 7820POPC   PO430672  26.043  14.361   9.155
 7820POPC   GL130673  26.037  14.450   8.855
 7820POPC   GL230674  26.135  14.489   8.855
 7820POPC   C1A30675  26.039  14.431   8.555
 7820POPC   D2A30676  25.992  14.372   8.255
 7820POPC   C3A30677  25.992  14.417   7.955
 7820POPC   C4A30678  26.077  14.364   7.655
 7820POPC   C1B30679  26.105  14.623   8.555
 7820POPC   C2B30680  26.173  14.642   8.255
 7820POPC   C3B30681  26.178  14.643   7.955
 7820POPC   C4B30682  26.103  14.629   7.655
 7821POPC   NC330683  32.289  41.606   9.455
 7821POPC   PO430684  32.257  41.554   9.155
 7821POPC   GL130685  32.226  41.579   8.855
 7821POPC   GL230686  32.139  41.487   8.855
 7821POPC   C1A30687  32.223  41.526   8.555
 7821POPC   D2A30688  32.237  41.516   8.255
 7821POPC   C3A30689  32.258  41.586   7.955
 7821POPC   C4A30690  32.267  41.573   7.655
 7821POPC   C1B30691  32.161  41.294   8.555
 7821POPC   C2B30692  32.081  41.376   8.255
 7821POPC   C3B30693  32.164  41.315   7.955
 7821POPC   C4B30694  32.145  41.308   7.655
 7822POPC   NC330695  23.699   9.783   9.455
 7822POPC   PO430696  23.716   9.722   9.155
 7822POPC   GL130697  23.673   9.766   8.855
 7822POPC   GL230698  23.699   9.637   8.855
 7822POPC   C1A30699  23.669   9.795   8.555
 7822POPC   D2A30700  23.741   9.729   8.255
 7822POPC   C3A30701  23.750   9.727   7.955
 7822POPC   C4A30702  23.691   9.792   7.655
 7822POPC   C1B30703  23.765   9.474   8.555
 7822POPC   C2B30704  23.727   9.542   8.255
 7822POPC   C3B30705  23.792   9.547   7.955
 7822POPC   C4B30706  23.756   9.521   7.655
 7823POPC   NC330707   5.067   0.451   9.455
 7823POPC   PO430708   5.089   0.454   9.155
 7823POPC   GL130709   5.052   0.391   8.855
 7823POPC   GL230710   4.950   0.368   8.855
 7823POPC   C1A30711   5.114   0.477   8.555
 7823POPC   D2A30712   5.131   0.391   8.255
 7823POPC   C3A30713   5.115   0.463   7.955
 7823POPC   C4A30714   5.078   0.473   7.655
 7823POPC   C1B30715   4.891   0.342   8.555
 7823POPC   C2B30716   4.843   0.280   8.255
 7823POPC   C3B30717   4.868   0.345   7.955
 7823POPC   C4B30718   4.913   0.304   7.655
 7824POPC   NC330719  13.646  19.812   9.455
 7824POPC   PO430720  13.640  19.876   9.155
 7824POPC   GL130721  13.631  19.870   8.855
 7824POPC   GL230722  13.714  19.943   8.855
 7824POPC   C1A30723  13.591  19.878   8.555
 7824POPC   D2A30724  13.629  19.869   8.255
 7824POPC   C3A30725  13.589  19.797   7.955
 7824POPC   C4A30726  13.612  19.815   7.655
 7824POPC   C1B30727  13.854  19.965   8.555
 7824POPC   C2B30728  13.814  20.011   8.255
 7824POPC   C3B30729  13.823  19.964   7.955
 7824POPC   C4B30730  13.862  19.970   7.655
 7825POPC   NC330731  14.381  44.669   9.455
 7825POPC   PO430732  14.450  44.654   9.155
 7825POPC   GL130733  14.353  44.645   8.855
 7825POPC   GL230734  14.302  44.743   8.855
 7825POPC   C1A30735  14.363  44.670   8.555
 7825POPC   D2A30736  14.395  44.619   8.255
 7825POPC   C3A30737  14.357  44.629   7.955
 7825POPC   C4A30738  14.404  44.676   7.655
 7825POPC   C1B30739  14.179  44.762   8.555
 7825POPC   C2B30740  14.147  44.812   8.255
 7825POPC   C3B30741  14.140  44.808   7.955
 7825POPC   C4B30742  14.135  44.731   7.655
 7826POPC   NC330743  13.661   0.436   9.455
 7826POPC   PO430744  13.655   0.467   9.155
 7826POPC   GL130745  13.658   0.424   8.855
 7826POPC   GL230746  13.560   0.334   8.855
 7826POPC   C1A30747  13.623   0.487   8.555
 7826POPC   D2A30748  13.619   0.391   8.255
 7826POPC   C3A30749  13.627   0.450   7.955
 7826POPC   C4A30750  13.660   0.482   7.655
 7826POPC   C1B30751  13.532   0.181   8.555
 7826POPC   C2B30752  13.585   0.183   8.255
 7826POPC   C3B30753  13.570   0.166   7.955
 7826POPC   C4B30754  13.587   0.201   7.655
 7827POPC   NC330755   9.709  22.171   9.455
 7827POPC   PO430756   9.777  22.197   9.155
 7827POPC   GL130757   9.702  22.200   8.855
 7827POPC   GL230758   9.851  22.212   8.855
 7827POPC   C1A30759   9.717  22.133   8.555
 7827POPC   D2A30760   9.736  22.133   8.255
 7827POPC   C3A30761   9.711  22.168   7.955
 7827POPC   C4A30762   9.719  22.196   7.655
 7827POPC   C1B30763   9.959  22.367   8.555
 7827POPC   C2B30764   9.903  22.346   8.255
 7827POPC   C3B30765   9.903  22.313   7.955
 7827POPC   C4B30766   9.970  22.347   7.655
 7828POPC   NC330767  34.578   4.343   9.455
 7828POPC   PO430768  34.622   4.349   9.155
 7828POPC   GL130769  34.531   4.359   8.855
 7828POPC   GL230770  34.499   4.372   8.855
 7828POPC   C1A30771  34.565   4.303   8.555
 7828POPC   D2A30772  34.616   4.335   8.255
 7828POPC   C3A30773  34.618   4.312   7.955
 7828POPC   C4A30774  34.542   4.351   7.655
 7828POPC   C1B30775  34.371   4.549   8.555
 7828POPC   C2B30776  34.457   4.523   8.255
 7828POPC   C3B30777  34.407   4.491   7.955
 7828POPC   C4B30778  34.423   4.540   7.655
 7829POPC   NC330779  36.931   2.733   9.455
 7829POPC   PO430780  36.861   2.721   9.155
 7829POPC   GL130781  36.932   2.754   8.855
 7829POPC   GL230782  36.792   2.705   8.855
 7829POPC   C1A30783  36.918   2.756   8.555
 7829POPC   D2A30784  36.918   2.743   8.255
 7829POPC   C3A30785  36.908   2.734   7.955
 7829POPC   C4A30786  36.866   2.758   7.655
 7829POPC   C1B30787  36.776   2.598   8.555
 7829POPC   C2B30788  36.755   2.585   8.255
 7829POPC   C3B30789  36.790   2.560   7.955
 7829POPC   C4B30790  36.781   2.576   7.655
 7830POPC   NC330791  18.254  39.181   9.455
 7830POPC   PO430792  18.292  39.247   9.155
 7830POPC   GL130793  18.295  39.193   8.855
 7830POPC   GL230794  18.150  39.210   8.855
 7830POPC   C1A30795  18.281  39.243   8.555
 7830POPC   D2A30796  18.254  39.217   8.255
 7830POPC   C3A30797  18.258  39.183   7.955
 7830POPC   C4A30798  18.270  39.281   7.655
 7830POPC   C1B30799  17.990  39.255   8.555
 7830POPC   C2B30800  17.996  39.232   8.255
 7830POPC   C3B30801  18.022  39.250   7.955
 7830POPC   C4B30802  18.063  39.230   7.655
 7831POPC   NC330803  36.100  41.581   9.455
 7831POPC   PO430804  36.158  41.585   9.155
 7831POPC   GL130805  36.143  41.519   8.855
 7831POPC   GL230806  36.170  41.456   8.855
 7831POPC   C1A30807  36.089  41.577   8.555
 7831POPC   D2A30808  36.110  41.532   8.255
 7831POPC   C3A30809  36.148  41.567   7.955
 7831POPC   C4A30810  36.157  41.597   7.655
 7831POPC   C1B30811  36.191  41.280   8.555
 7831POPC   C2B30812  36.187  41.340   8.255
 7831POPC   C3B30813  36.128  41.327   7.955
 7831POPC   C4B30814  36.179  41.353   7.655
 7832POPC   NC330815  32.206   2.726   9.455
 7832POPC   PO430816  32.247   2.748   9.155
 7832POPC   GL130817  32.216   2.801   8.855
 7832POPC   GL230818  32.362   2.841   8.855
 7832POPC   C1A30819  32.245   2.764   8.555
 7832POPC   D2A30820  32.236   2.789   8.255
 7832POPC   C3A30821  32.216   2.790   7.955
 7832POPC   C4A30822  32.285   2.782   7.655
 7832POPC   C1B30823  32.447   2.866   8.555
 7832POPC   C2B30824  32.489   2.788   8.255
 7832POPC   C3B30825  32.455   2.852   7.955
 7832POPC   C4B30826  32.482   2.833   7.655
 7833POPC   NC330827  17.535  15.137   9.455
 7833POPC   PO430828  17.474  15.157   9.155
 7833POPC   GL130829  17.482  15.140   8.855
 7833POPC   GL230830  17.363  15.109   8.855
 7833POPC   C1A30831  17.506  15.141   8.555
 7833POPC   D2A30832  17.531  15.184   8.255
 7833POPC   C3A30833  17.495  15.184   7.955
 7833POPC   C4A30834  17.458  15.130   7.655
 7833POPC   C1B30835  17.260  15.084   8.555
 7833POPC   C2B30836  17.307  15.077   8.255
 7833POPC   C3B30837  17.328  15.066   7.955
 7833POPC   C4B30838  17.254  15.062   7.655
 7834POPC   NC330839   0.457   3.521   9.455
 7834POPC   PO430840   0.462   3.523   9.155
 7834POPC   GL130841   0.442   3.522   8.855
 7834POPC   GL230842   0.531   3.527   8.855
 7834POPC   C1A30843   0.415   3.567   8.555
 7834POPC   D2A30844   0.426   3.555   8.255
 7834POPC   C3A30845   0.436   3.501   7.955
 7834POPC   C4A30846   0.454   3.589   7.655
 7834POPC   C1B30847   0.682   3.625   8.555
 7834POPC   C2B30848   0.724   3.634   8.255
 7834POPC   C3B30849   0.648   3.577   7.955
 7834POPC   C4B30850   0.730   3.539   7.655
 7835POPC   NC330851  12.867  11.295   9.455
 7835POPC   PO430852  12.859  11.343   9.155
 7835POPC   GL130853  12.816  11.319   8.855
 7835POPC   GL230854  12.714  11.347   8.855
 7835POPC   C1A30855  12.843  11.276   8.555
 7835POPC   D2A30856  12.895  11.261   8.255
 7835POPC   C3A30857  12.864  11.350   7.955
 7835POPC   C4A30858  12.827  11.313   7.655
 7835POPC   C1B30859  12.644  11.298   8.555
 7835POPC   C2B30860  12.584  11.278   8.255
 7835POPC   C3B30861  12.597  11.325   7.955
 7835POPC   C4B30862  12.618  11.327   7.655
 7836POPC   NC330863  19.060  37.646   9.455
 7836POPC   PO430864  19.047  37.715   9.155
 7836POPC   GL130865  19.094  37.646   8.855
 7836POPC   GL230866  19.107  37.559   8.855
 7836POPC   C1A30867  19.092  37.659   8.555
 7836POPC   D2A30868  19.036  37.640   8.255
 7836POPC   C3A30869  19.057  37.638   7.955
 7836POPC   C4A30870  19.107  37.686   7.655
 7836POPC   C1B30871  19.078  37.432   8.555
 7836POPC   C2B30872  19.087  37.436   8.255
 7836POPC   C3B30873  19.129  37.436   7.955
 7836POPC   C4B30874  19.091  37.397   7.655
 7837POPC   NC330875   8.223  43.093   9.455
 7837POPC   PO430876   8.153  43.080   9.155
 7837POPC   GL130877   8.148  43.157   8.855
 7837POPC   GL230878   8.334  43.072   8.855
 7837POPC   C1A30879   8.156  43.151   8.555
 7837POPC   D2A30880   8.242  43.124   8.255
 7837POPC   C3A30881   8.233  43.092   7.955
 7837POPC   C4A30882   8.209  43.149   7.655
 7837POPC   C1B30883   8.402  42.994   8.555
 7837POPC   C2B30884   8.451  43.022   8.255
 7837POPC   C3B30885   8.468  43.066   7.955
 7837POPC   C4B30886   8.429  43.010   7.655
 7838POPC   NC330887  33.017  40.008   9.455
 7838POPC   PO430888  32.993  39.979   9.155
 7838POPC   GL130889  33.047  39.970   8.855
 7838POPC   GL230890  32.867  39.956   8.855
 7838POPC   C1A30891  33.021  40.024   8.555
 7838POPC   D2A30892  33.073  40.001   8.255
 7838POPC   C3A30893  33.041  40.005   7.955
 7838POPC   C4A30894  33.023  40.041   7.655
 7838POPC   C1B30895  32.817  39.943   8.555
 7838POPC   C2B30896  32.800  39.871   8.255
 7838POPC   C3B30897  32.789  39.939   7.955
 7838POPC   C4B30898  32.775  39.862   7.655
 7839POPC   NC330899  26.084  16.732   9.455
 7839POPC   PO430900  26.079  16.730   9.155
 7839POPC   GL130901  25.996  16.709   8.855
 7839POPC   GL230902  25.949  16.661   8.855
 7839POPC   C1A30903  25.997  16.685   8.555
 7839POPC   D2A30904  26.049  16.717   8.255
 7839POPC   C3A30905  26.036  16.707   7.955
 7839POPC   C4A30906  25.999  16.769   7.655
 7839POPC   C1B30907  25.884  16.571   8.555
 7839POPC   C2B30908  25.840  16.542   8.255
 7839POPC   C3B30909  25.905  16.576   7.955
 7839POPC   C4B30910  25.880  16.585   7.655
 7840POPC   NC330911  40.015   0.409   9.455
 7840POPC   PO430912  39.964   0.479   9.155
 7840POPC   GL130913  39.976   0.410   8.855
 7840POPC   GL230914  39.975   0.580   8.855
 7840POPC   C1A30915  40.020   0.411   8.555
 7840POPC   D2A30916  40.025   0.414   8.255
 7840POPC   C3A30917  40.000   0.453   7.955
 7840POPC   C4A30918  40.016   0.411   7.655
 7840POPC   C1B30919  40.013   0.656   8.555
 7840POPC   C2B30920  40.016   0.706   8.255
 7840POPC   C3B30921  39.992   0.642   7.955
 7840POPC   C4B30922  40.015   0.693   7.655
 7841POPC   NC330923  22.138   0.427   9.455
 7841POPC   PO430924  22.144   0.448   9.155
 7841POPC   GL130925  22.146   0.424   8.855
 7841POPC   GL230926  22.081   0.409   8.855
 7841POPC   C1A30927  22.165   0.440   8.555
 7841POPC   D2A30928  22.134   0.426   8.255
 7841POPC   C3A30929  22.150   0.399   7.955
 7841POPC   C4A30930  22.199   0.437   7.655
 7841POPC   C1B30931  21.907   0.350   8.555
 7841POPC   C2B30932  21.891   0.304   8.255
 7841POPC   C3B30933  21.908   0.330   7.955
 7841POPC   C4B30934  21.894   0.377   7.655
 7842POPC   NC330935   5.890  19.850   9.455
 7842POPC   PO430936   5.853  19.839   9.155
 7842POPC   GL130937   5.884  19.789   8.855
 7842POPC   GL230938   5.946  19.816   8.855
 7842POPC   C1A30939   5.883  19.874   8.555
 7842POPC   D2A30940   5.880  19.828   8.255
 7842POPC   C3A30941   5.887  19.856   7.955
 7842POPC   C4A30942   5.863  19.829   7.655
 7842POPC   C1B30943   6.117  19.855   8.555
 7842POPC   C2B30944   6.136  19.789   8.255
 7842POPC   C3B30945   6.130  19.864   7.955
 7842POPC   C4B30946   6.069  19.791   7.655
 7843POPC   NC330947  22.119  40.803   9.455
 7843POPC   PO430948  22.172  40.803   9.155
 7843POPC   GL130949  22.146  40.780   8.855
 7843POPC   GL230950  22.141  40.649   8.855
 7843POPC   C1A30951  22.168  40.831   8.555
 7843POPC   D2A30952  22.190  40.763   8.255
 7843POPC   C3A30953  22.173  40.779   7.955
 7843POPC   C4A30954  22.181  40.817   7.655
 7843POPC   C1B30955  22.034  40.575   8.555
 7843POPC   C2B30956  22.014  40.527   8.255
 7843POPC   C3B30957  22.054  40.544   7.955
 7843POPC   C4B30958  22.065  40.580   7.655
 7844POPC   NC330959  26.059  19.105   9.455
 7844POPC   PO430960  26.013  19.021   9.155
 7844POPC   GL130961  26.054  19.041   8.855
 7844POPC   GL230962  25.916  19.015   8.855
 7844POPC   C1A30963  25.997  19.099   8.555
 7844POPC   D2A30964  26.077  19.019   8.255
 7844POPC   C3A30965  26.038  19.023   7.955
 7844POPC   C4A30966  26.045  19.015   7.655
 7844POPC   C1B30967  25.817  19.043   8.555
 7844POPC   C2B30968  25.796  18.966   8.255
 7844POPC   C3B30969  25.805  18.974   7.955
 7844POPC   C4B30970  25.748  18.973   7.655
 7845POPC   NC330971  17.460  32.260   9.455
 7845POPC   PO430972  17.478  32.211   9.155
 7845POPC   GL130973  17.504  32.260   8.855
 7845POPC   GL230974  17.594  32.347   8.855
 7845POPC   C1A30975  17.553  32.199   8.555
 7845POPC   D2A30976  17.550  32.294   8.255
 7845POPC   C3A30977  17.542  32.234   7.955
 7845POPC   C4A30978  17.517  32.199   7.655
 7845POPC   C1B30979  17.621  32.415   8.555
 7845POPC   C2B30980  17.667  32.475   8.255
 7845POPC   C3B30981  17.703  32.414   7.955
 7845POPC   C4B30982  17.690  32.444   7.655
 7846POPC   NC330983  15.144  42.329   9.455
 7846POPC   PO430984  15.214  42.373   9.155
 7846POPC   GL130985  15.229  42.357   8.855
 7846POPC   GL230986  15.143  42.404   8.855
 7846POPC   C1A30987  15.190  42.327   8.555
 7846POPC   D2A30988  15.160  42.376   8.255
 7846POPC   C3A30989  15.199  42.365   7.955
 7846POPC   C4A30990  15.210  42.375   7.655
 7846POPC   C1B30991  15.058  42.577   8.555
 7846POPC   C2B30992  15.055  42.592   8.255
 7846POPC   C3B30993  15.139  42.573   7.955
 7846POPC   C4B30994  15.103  42.590   7.655
 7847POPC   NC330995  44.637  30.702   9.455
 7847POPC   PO430996  44.697  30.709   9.155
 7847POPC   GL130997  44.694  30.672   8.855
 7847POPC   GL230998  44.729  30.623   8.855
 7847POPC   C1A30999  44.630  30.720   8.555
 7847POPC   D2A31000  44.671  30.722   8.255
 7847POPC   C3A31001  44.671  30.745   7.955
 7847POPC   C4A31002  44.690  30.664   7.655
 7847POPC   C1B31003  44.741  30.415   8.555
 7847POPC   C2B31004  44.699  30.432   8.255
 7847POPC   C3B31005  44.675  30.445   7.955
 7847POPC   C4B31006  44.697  30.467   7.655
 7848POPC   NC331007  39.999  40.047   9.455
 7848POPC   PO431008  40.010  39.972   9.155
 7848POPC   GL131009  40.050  40.014   8.855
 7848POPC   GL231010  40.093  39.910   8.855
 7848POPC   C1A31011  40.047  40.036   8.555
 7848POPC   D2A31012  40.036  40.031   8.255
 7848POPC   C3A31013  39.959  40.044   7.955
 7848POPC   C4A31014  40.025  39.980   7.655
 7848POPC   C1B31015  40.184  39.852   8.555
 7848POPC   C2B31016  40.186  39.798   8.255
 7848POPC   C3B31017  40.160  39.821   7.955
 7848POPC   C4B31018  40.177  39.766   7.655
 7849POPC   NC331019  36.082  15.183   9.455
 7849POPC   PO431020  36.099  15.187   9.155
 7849POPC   GL131021  36.082  15.133   8.855
 7849POPC   GL231022  36.273  15.268   8.855
 7849POPC   C1A31023  36.103  15.159   8.555
 7849POPC   D2A31024  36.116  15.136   8.255
 7849POPC   C3A31025  36.151  15.170   7.955
 7849POPC   C4A31026  36.143  15.210   7.655
 7849POPC   C1B31027  36.401  15.250   8.555
 7849POPC   C2B31028  36.323  15.270   8.255
 7849POPC   C3B31029  36.373  15.250   7.955
 7849POPC   C4B31030  36.326  15.275   7.655
 7850POPC   NC331031  23.726   7.411   9.455
 7850POPC   PO431032  23.732   7.451   9.155
 7850POPC   GL131033  23.732   7.443   8.855
 7850POPC   GL231034  23.687   7.559   8.855
 7850POPC   C1A31035  23.706   7.400   8.555
 7850POPC   D2A31036  23.725   7.390   8.255
 7850POPC   C3A31037  23.684   7.447   7.955
 7850POPC   C4A31038  23.745   7.441   7.655
 7850POPC   C1B31039  23.650   7.707   8.555
 7850POPC   C2B31040  23.668   7.664   8.255
 7850POPC   C3B31041  23.668   7.621   7.955
 7850POPC   C4B31042  23.723   7.645   7.655
 7851POPC   NC331043  12.811  13.651   9.455
 7851POPC   PO431044  12.855  13.587   9.155
 7851POPC   GL131045  12.842  13.586   8.855
 7851POPC   GL231046  13.008  13.594   8.855
 7851POPC   C1A31047  12.802  13.652   8.555
 7851POPC   D2A31048  12.843  13.593   8.255
 7851POPC   C3A31049  12.806  13.610   7.955
 7851POPC   C4A31050  12.837  13.657   7.655
 7851POPC   C1B31051  13.069  13.637   8.555
 7851POPC   C2B31052  13.079  13.700   8.255
 7851POPC   C3B31053  13.104  13.685   7.955
 7851POPC   C4B31054  13.111  13.668   7.655
 7852POPC   NC331055  29.880  43.077   9.455
 7852POPC   PO431056  29.897  43.127   9.155
 7852POPC   GL131057  29.879  43.151   8.855
 7852POPC   GL231058  29.773  43.066   8.855
 7852POPC   C1A31059  29.917  43.125   8.555
 7852POPC   D2A31060  29.871  43.065   8.255
 7852POPC   C3A31061  29.878  43.085   7.955
 7852POPC   C4A31062  29.874  43.137   7.655
 7852POPC   C1B31063  29.716  43.010   8.555
 7852POPC   C2B31064  29.709  43.028   8.255
 7852POPC   C3B31065  29.702  43.020   7.955
 7852POPC   C4B31066  29.659  43.025   7.655
 7853POPC   NC331067  32.276  39.276   9.455
 7853POPC   PO431068  32.294  39.257   9.155
 7853POPC   GL131069  32.247  39.199   8.855
 7853POPC   GL231070  32.332  39.286   8.855
 7853POPC   C1A31071  32.204  39.270   8.555
 7853POPC   D2A31072  32.290  39.190   8.255
 7853POPC   C3A31073  32.233  39.201   7.955
 7853POPC   C4A31074  32.210  39.271   7.655
 7853POPC   C1B31075  32.388  39.367   8.555
 7853POPC   C2B31076  32.417  39.388   8.255
 7853POPC   C3B31077  32.379  39.397   7.955
 7853POPC   C4B31078  32.392  39.454   7.655
 7854POPC   NC331079  24.453  42.347   9.455
 7854POPC   PO431080  24.509  42.309   9.155
 7854POPC   GL131081  24.538  42.287   8.855
 7854POPC   GL231082  24.380  42.257   8.855
 7854POPC   C1A31083  24.443  42.335   8.555
 7854POPC   D2A31084  24.511  42.307   8.255
 7854POPC   C3A31085  24.524  42.296   7.955
 7854POPC   C4A31086  24.464  42.286   7.655
 7854POPC   C1B31087  24.279  42.190   8.555
 7854POPC   C2B31088  24.270  42.217   8.255
 7854POPC   C3B31089  24.300  42.168   7.955
 7854POPC   C4B31090  24.266  42.194   7.655
 7855POPC   NC331091  34.609  35.337   9.455
 7855POPC   PO431092  34.533  35.345   9.155
 7855POPC   GL131093  34.582  35.358   8.855
 7855POPC   GL231094  34.545  35.427   8.855
 7855POPC   C1A31095  34.541  35.374   8.555
 7855POPC   D2A31096  34.568  35.374   8.255
 7855POPC   C3A31097  34.563  35.302   7.955
 7855POPC   C4A31098  34.607  35.384   7.655
 7855POPC   C1B31099  34.582  35.586   8.555
 7855POPC   C2B31100  34.539  35.607   8.255
 7855POPC   C3B31101  34.519  35.629   7.955
 7855POPC   C4B31102  34.567  35.603   7.655
 7856POPC   NC331103  32.271  27.631   9.455
 7856POPC   PO431104  32.297  27.613   9.155
 7856POPC   GL131105  32.217  27.633   8.855
 7856POPC   GL231106  32.243  27.490   8.855
 7856POPC   C1A31107  32.274  27.575   8.555
 7856POPC   D2A31108  32.209  27.570   8.255
 7856POPC   C3A31109  32.262  27.549   7.955
 7856POPC   C4A31110  32.252  27.631   7.655
 7856POPC   C1B31111  32.234  27.374   8.555
 7856POPC   C2B31112  32.261  27.375   8.255
 7856POPC   C3B31113  32.249  27.307   7.955
 7856POPC   C4B31114  32.308  27.294   7.655
 7857POPC   NC331115  19.051  30.697   9.455
 7857POPC   PO431116  19.034  30.660   9.155
 7857POPC   GL131117  19.071  30.726   8.855
 7857POPC   GL231118  19.153  30.650   8.855
 7857POPC   C1A31119  19.023  30.655   8.555
 7857POPC   D2A31120  19.102  30.695   8.255
 7857POPC   C3A31121  19.094  30.664   7.955
 7857POPC   C4A31122  19.015  30.719   7.655
 7857POPC   C1B31123  19.288  30.622   8.555
 7857POPC   C2B31124  19.267  30.601   8.255
 7857POPC   C3B31125  19.260  30.640   7.955
 7857POPC   C4B31126  19.333  30.620   7.655
 7858POPC   NC331127  43.933   9.005   9.455
 7858POPC   PO431128  43.877   8.987   9.155
 7858POPC   GL131129  43.896   8.975   8.855
 7858POPC   GL231130  43.827   8.846   8.855
 7858POPC   C1A31131  43.836   8.984   8.555
 7858POPC   D2A31132  43.840   8.956   8.255
 7858POPC   C3A31133  43.888   8.962   7.955
 7858POPC   C4A31134  43.880   9.021   7.655
 7858POPC   C1B31135  43.839   8.679   8.555
 7858POPC   C2B31136  43.882   8.741   8.255
 7858POPC   C3B31137  43.796   8.768   7.955
 7858POPC   C4B31138  43.873   8.722   7.655
 7859POPC   NC331139   3.573  10.544   9.455
 7859POPC   PO431140   3.590  10.525   9.155
 7859POPC   GL131141   3.521  10.488   8.855
 7859POPC   GL231142   3.664  10.474   8.855
 7859POPC   C1A31143   3.521  10.508   8.555
 7859POPC   D2A31144   3.522  10.500   8.255
 7859POPC   C3A31145   3.537  10.523   7.955
 7859POPC   C4A31146   3.582  10.546   7.655
 7859POPC   C1B31147   3.794  10.454   8.555
 7859POPC   C2B31148   3.797  10.446   8.255
 7859POPC   C3B31149   3.753  10.424   7.955
 7859POPC   C4B31150   3.783  10.498   7.655
 7860POPC   NC331151  26.780   9.022   9.455
 7860POPC   PO431152  26.819   8.926   9.155
 7860POPC   GL131153  26.805   9.003   8.855
 7860POPC   GL231154  26.717   9.103   8.855
 7860POPC   C1A31155  26.851   8.936   8.555
 7860POPC   D2A31156  26.833   9.020   8.255
 7860POPC   C3A31157  26.786   9.020   7.955
 7860POPC   C4A31158  26.785   8.924   7.655
 7860POPC   C1B31159  26.713   9.180   8.555
 7860POPC   C2B31160  26.633   9.209   8.255
 7860POPC   C3B31161  26.681   9.137   7.955
 7860POPC   C4B31162  26.643   9.189   7.655
 7861POPC   NC331163  20.626  29.167   9.455
 7861POPC   PO431164  20.626  29.150   9.155
 7861POPC   GL131165  20.563  29.166   8.855
 7861POPC   GL231166  20.473  29.159   8.855
 7861POPC   C1A31167  20.577  29.194   8.555
 7861POPC   D2A31168  20.654  29.178   8.255
 7861POPC   C3A31169  20.609  29.130   7.955
 7861POPC   C4A31170  20.575  29.122   7.655
 7861POPC   C1B31171  20.368  29.108   8.555
 7861POPC   C2B31172  20.360  29.155   8.255
 7861POPC   C3B31173  20.389  29.133   7.955
 7861POPC   C4B31174  20.357  29.107   7.655
 7862POPC   NC331175  44.665  32.201   9.455
 7862POPC   PO431176  44.693  32.296   9.155
 7862POPC   GL131177  44.693  32.210   8.855
 7862POPC   GL231178  44.652  32.121   8.855
 7862POPC   C1A31179  44.615  32.206   8.555
 7862POPC   D2A31180  44.629  32.282   8.255
 7862POPC   C3A31181  44.685  32.284   7.955
 7862POPC   C4A31182  44.635  32.223   7.655
 7862POPC   C1B31183  44.714  32.012   8.555
 7862POPC   C2B31184  44.716  31.965   8.255
 7862POPC   C3B31185  44.757  31.998   7.955
 7862POPC   C4B31186  44.695  31.982   7.655
 7863POPC   NC331187   2.032   0.395   9.455
 7863POPC   PO431188   2.005   0.392   9.155
 7863POPC   GL131189   2.009   0.393   8.855
 7863POPC   GL231190   2.006   0.295   8.855
 7863POPC   C1A31191   1.953   0.397   8.555
 7863POPC   D2A31192   1.966   0.483   8.255
 7863POPC   C3A31193   1.964   0.410   7.955
 7863POPC   C4A31194   2.014   0.437   7.655
 7863POPC   C1B31195   2.034   0.233   8.555
 7863POPC   C2B31196   1.994   0.216   8.255
 7863POPC   C3B31197   2.013   0.175   7.955
 7863POPC   C4B31198   2.012   0.218   7.655
 7864POPC   NC331199  41.535   0.454   9.455
 7864POPC   PO431200  41.510   0.447   9.155
 7864POPC   GL131201  41.580   0.424   8.855
 7864POPC   GL231202  41.454   0.412   8.855
 7864POPC   C1A31203  41.584   0.425   8.555
 7864POPC   D2A31204  41.535   0.436   8.255
 7864POPC   C3A31205  41.590   0.486   7.955
 7864POPC   C4A31206  41.537   0.479   7.655
 7864POPC   C1B31207  41.315   0.354   8.555
 7864POPC   C2B31208  41.356   0.419   8.255
 7864POPC   C3B31209  41.262   0.442   7.955
 7864POPC   C4B31210  41.262   0.453   7.655
 7865POPC   NC331211  20.603  43.113   9.455
 7865POPC   PO431212  20.612  43.154   9.155
 7865POPC   GL131213  20.638  43.069   8.855
 7865POPC   GL231214  20.643  43.001   8.855
 7865POPC   C1A31215  20.646  43.117   8.555
 7865POPC   D2A31216  20.589  43.067   8.255
 7865POPC   C3A31217  20.654  43.087   7.955
 7865POPC   C4A31218  20.656  43.136   7.655
 7865POPC   C1B31219  20.614  42.816   8.555
 7865POPC   C2B31220  20.684  42.864   8.255
 7865POPC   C3B31221  20.660  42.858   7.955
 7865POPC   C4B31222  20.678  42.880   7.655
 7866POPC   NC331223   8.214  11.258   9.455
 7866POPC   PO431224   8.209  11.341   9.155
 7866POPC   GL131225   8.173  11.278   8.855
 7866POPC   GL231226   8.066  11.329   8.855
 7866POPC   C1A31227   8.186  11.277   8.555
 7866POPC   D2A31228   8.191  11.325   8.255
 7866POPC   C3A31229   8.178  11.286   7.955
 7866POPC   C4A31230   8.190  11.346   7.655
 7866POPC   C1B31231   7.976  11.464   8.555
 7866POPC   C2B31232   7.945  11.447   8.255
 7866POPC   C3B31233   7.960  11.420   7.955
 7866POPC   C4B31234   7.975  11.473   7.655
 7867POPC   NC331235  36.874   5.070   9.455
 7867POPC   PO431236  36.913   5.057   9.155
 7867POPC   GL131237  36.934   5.084   8.855
 7867POPC   GL231238  36.823   4.988   8.855
 7867POPC   C1A31239  36.950   5.117   8.555
 7867POPC   D2A31240  36.937   5.115   8.255
 7867POPC   C3A31241  36.947   5.102   7.955
 7867POPC   C4A31242  36.919   5.133   7.655
 7867POPC   C1B31243  36.863   4.896   8.555
 7867POPC   C2B31244  36.812   4.851   8.255
 7867POPC   C3B31245  36.817   4.889   7.955
 7867POPC   C4B31246  36.804   4.901   7.655
 7868POPC   NC331247   8.229  29.964   9.455
 7868POPC   PO431248   8.175  29.940   9.155
 7868POPC   GL131249   8.224  29.916   8.855
 7868POPC   GL231250   8.198  29.817   8.855
 7868POPC   C1A31251   8.168  29.911   8.555
 7868POPC   D2A31252   8.188  29.963   8.255
 7868POPC   C3A31253   8.157  29.883   7.955
 7868POPC   C4A31254   8.213  29.874   7.655
 7868POPC   C1B31255   8.265  29.703   8.555
 7868POPC   C2B31256   8.292  29.646   8.255
 7868POPC   C3B31257   8.305  29.731   7.955
 7868POPC   C4B31258   8.228  29.698   7.655
 7869POPC   NC331259  33.752  22.131   9.455
 7869POPC   PO431260  33.821  22.168   9.155
 7869POPC   GL131261  33.770  22.139   8.855
 7869POPC   GL231262  33.912  22.070   8.855
 7869POPC   C1A31263  33.777  22.157   8.555
 7869POPC   D2A31264  33.794  22.181   8.255
 7869POPC   C3A31265  33.796  22.204   7.955
 7869POPC   C4A31266  33.827  22.166   7.655
 7869POPC   C1B31267  33.922  21.930   8.555
 7869POPC   C2B31268  33.954  21.967   8.255
 7869POPC   C3B31269  33.964  21.972   7.955
 7869POPC   C4B31270  33.913  21.941   7.655
 7870POPC   NC331271  38.502  43.066   9.455
 7870POPC   PO431272  38.470  43.154   9.155
 7870POPC   GL131273  38.454  43.105   8.855
 7870POPC   GL231274  38.535  43.046   8.855
 7870POPC   C1A31275  38.464  43.069   8.555
 7870POPC   D2A31276  38.452  43.107   8.255
 7870POPC   C3A31277  38.472  43.088   7.955
 7870POPC   C4A31278  38.431  43.094   7.655
 7870POPC   C1B31279  38.726  43.029   8.555
 7870POPC   C2B31280  38.668  43.024   8.255
 7870POPC   C3B31281  38.736  43.082   7.955
 7870POPC   C4B31282  38.730  43.082   7.655
 7871POPC   NC331283   5.101  43.145   9.455
 7871POPC   PO431284   5.063  43.104   9.155
 7871POPC   GL131285   5.091  43.079   8.855
 7871POPC   GL231286   5.030  43.169   8.855
 7871POPC   C1A31287   5.103  43.125   8.555
 7871POPC   D2A31288   5.069  43.085   8.255
 7871POPC   C3A31289   5.129  43.146   7.955
 7871POPC   C4A31290   5.116  43.131   7.655
 7871POPC   C1B31291   4.933  43.323   8.555
 7871POPC   C2B31292   5.007  43.287   8.255
 7871POPC   C3B31293   5.000  43.294   7.955
 7871POPC   C4B31294   5.004  43.311   7.655
 7872POPC   NC331295   3.554  42.302   9.455
 7872POPC   PO431296   3.586  42.367   9.155
 7872POPC   GL131297   3.513  42.292   8.855
 7872POPC   GL231298   3.616  42.393   8.855
 7872POPC   C1A31299   3.535  42.312   8.555
 7872POPC   D2A31300   3.581  42.361   8.255
 7872POPC   C3A31301   3.497  42.358   7.955
 7872POPC   C4A31302   3.555  42.350   7.655
 7872POPC   C1B31303   3.715  42.491   8.555
 7872POPC   C2B31304   3.772  42.528   8.255
 7872POPC   C3B31305   3.738  42.515   7.955
 7872POPC   C4B31306   3.727  42.489   7.655
 7873POPC   NC331307  19.051  11.262   9.455
 7873POPC   PO431308  19.022  11.337   9.155
 7873POPC   GL131309  19.037  11.299   8.855
 7873POPC   GL231310  19.080  11.380   8.855
 7873POPC   C1A31311  19.058  11.339   8.555
 7873POPC   D2A31312  19.095  11.265   8.255
 7873POPC   C3A31313  19.059  11.260   7.955
 7873POPC   C4A31314  19.027  11.269   7.655
 7873POPC   C1B31315  19.123  11.547   8.555
 7873POPC   C2B31316  19.103  11.524   8.255
 7873POPC   C3B31317  19.094  11.542   7.955
 7873POPC   C4B31318  19.138  11.531   7.655
 7874POPC   NC331319   5.081  12.058   9.455
 7874POPC   PO431320   5.081  12.030   9.155
 7874POPC   GL131321   5.094  12.091   8.855
 7874POPC   GL231322   5.166  12.224   8.855
 7874POPC   C1A31323   5.043  12.102   8.555
 7874POPC   D2A31324   5.114  12.098   8.255
 7874POPC   C3A31325   5.131  12.095   7.955
 7874POPC   C4A31326   5.099  12.094   7.655
 7874POPC   C1B31327   5.286  12.271   8.555
 7874POPC   C2B31328   5.284  12.313   8.255
 7874POPC   C3B31329   5.259  12.309   7.955
 7874POPC   C4B31330   5.239  12.279   7.655
 7875POPC   NC331331  19.795  13.641   9.455
 7875POPC   PO431332  19.858  13.656   9.155
 7875POPC   GL131333  19.795  13.651   8.855
 7875POPC   GL231334  19.735  13.651   8.855
 7875POPC   C1A31335  19.812  13.641   8.555
 7875POPC   D2A31336  19.807  13.603   8.255
 7875POPC   C3A31337  19.882  13.593   7.955
 7875POPC   C4A31338  19.848  13.617   7.655
 7875POPC   C1B31339  19.598  13.685   8.555
 7875POPC   C2B31340  19.618  13.637   8.255
 7875POPC   C3B31341  19.637  13.620   7.955
 7875POPC   C4B31342  19.621  13.666   7.655
 7876POPC   NC331343  15.162  15.991   9.455
 7876POPC   PO431344  15.151  15.937   9.155
 7876POPC   GL131345  15.137  16.001   8.855
 7876POPC   GL231346  15.080  15.996   8.855
 7876POPC   C1A31347  15.223  15.999   8.555
 7876POPC   D2A31348  15.193  15.961   8.255
 7876POPC   C3A31349  15.213  16.004   7.955
 7876POPC   C4A31350  15.220  15.989   7.655
 7876POPC   C1B31351  14.903  15.985   8.555
 7876POPC   C2B31352  14.975  16.021   8.255
 7876POPC   C3B31353  14.918  15.992   7.955
 7876POPC   C4B31354  14.918  15.962   7.655
 7877POPC   NC331355   7.457  10.569   9.455
 7877POPC   PO431356   7.399  10.571   9.155
 7877POPC   GL131357   7.393  10.573   8.855
 7877POPC   GL231358   7.548  10.495   8.855
 7877POPC   C1A31359   7.433  10.571   8.555
 7877POPC   D2A31360   7.384  10.521   8.255
 7877POPC   C3A31361   7.382  10.572   7.955
 7877POPC   C4A31362   7.432  10.550   7.655
 7877POPC   C1B31363   7.690  10.404   8.555
 7877POPC   C2B31364   7.677  10.452   8.255
 7877POPC   C3B31365   7.610  10.398   7.955
 7877POPC   C4B31366   7.694  10.464   7.655
 7878POPC   NC331367  18.235  32.238   9.455
 7878POPC   PO431368  18.306  32.228   9.155
 7878POPC   GL131369  18.312  32.280   8.855
 7878POPC   GL231370  18.345  32.165   8.855
 7878POPC   C1A31371  18.292  32.269   8.555
 7878POPC   D2A31372  18.301  32.224   8.255
 7878POPC   C3A31373  18.323  32.214   7.955
 7878POPC   C4A31374  18.325  32.226   7.655
 7878POPC   C1B31375  18.468  32.046   8.555
 7878POPC   C2B31376  18.449  32.087   8.255
 7878POPC   C3B31377  18.423  32.037   7.955
 7878POPC   C4B31378  18.462  32.060   7.655
 7879POPC   NC331379   8.162  19.854   9.455
 7879POPC   PO431380   8.160  19.883   9.155
 7879POPC   GL131381   8.242  19.880   8.855
 7879POPC   GL231382   8.322  19.817   8.855
 7879POPC   C1A31383   8.159  19.805   8.555
 7879POPC   D2A31384   8.207  19.808   8.255
 7879POPC   C3A31385   8.167  19.819   7.955
 7879POPC   C4A31386   8.162  19.884   7.655
 7879POPC   C1B31387   8.449  19.912   8.555
 7879POPC   C2B31388   8.434  19.923   8.255
 7879POPC   C3B31389   8.424  19.883   7.955
 7879POPC   C4B31390   8.452  19.881   7.655
 7880POPC   NC331391  13.619  14.446   9.455
 7880POPC   PO431392  13.586  14.436   9.155
 7880POPC   GL131393  13.660  14.410   8.855
 7880POPC   GL231394  13.576  14.480   8.855
 7880POPC   C1A31395  13.626  14.377   8.555
 7880POPC   D2A31396  13.662  14.385   8.255
 7880POPC   C3A31397  13.633  14.361   7.955
 7880POPC   C4A31398  13.615  14.402   7.655
 7880POPC   C1B31399  13.525  14.687   8.555
 7880POPC   C2B31400  13.613  14.633   8.255
 7880POPC   C3B31401  13.606  14.609   7.955
 7880POPC   C4B31402  13.592  14.694   7.655
 7881POPC   NC331403  27.608  26.080   9.455
 7881POPC   PO431404  27.582  26.010   9.155
 7881POPC   GL131405  27.629  26.063   8.855
 7881POPC   GL231406  27.527  25.947   8.855
 7881POPC   C1A31407  27.638  26.026   8.555
 7881POPC   D2A31408  27.576  26.033   8.255
 7881POPC   C3A31409  27.627  26.041   7.955
 7881POPC   C4A31410  27.626  26.012   7.655
 7881POPC   C1B31411  27.313  25.991   8.555
 7881POPC   C2B31412  27.377  25.921   8.255
 7881POPC   C3B31413  27.351  25.975   7.955
 7881POPC   C4B31414  27.366  25.947   7.655
 7882POPC   NC331415  28.355   8.208   9.455
 7882POPC   PO431416  28.388   8.229   9.155
 7882POPC   GL131417  28.324   8.229   8.855
 7882POPC   GL231418  28.304   8.088   8.855
 7882POPC   C1A31419  28.369   8.208   8.555
 7882POPC   D2A31420  28.340   8.235   8.255
 7882POPC   C3A31421  28.356   8.190   7.955
 7882POPC   C4A31422  28.384   8.218   7.655
 7882POPC   C1B31423  28.275   7.984   8.555
 7882POPC   C2B31424  28.250   7.979   8.255
 7882POPC   C3B31425  28.320   7.912   7.955
 7882POPC   C4B31426  28.283   7.993   7.655
 7883POPC   NC331427  22.113  38.445   9.455
 7883POPC   PO431428  22.149  38.488   9.155
 7883POPC   GL131429  22.134  38.459   8.855
 7883POPC   GL231430  22.266  38.488   8.855
 7883POPC   C1A31431  22.190  38.484   8.555
 7883POPC   D2A31432  22.198  38.454   8.255
 7883POPC   C3A31433  22.186  38.501   7.955
 7883POPC   C4A31434  22.196  38.466   7.655
 7883POPC   C1B31435  22.418  38.465   8.555
 7883POPC   C2B31436  22.448  38.490   8.255
 7883POPC   C3B31437  22.420  38.451   7.955
 7883POPC   C4B31438  22.398  38.476   7.655
 7884POPC   NC331439   9.733  44.639   9.455
 7884POPC   PO431440   9.735  44.644   9.155
 7884POPC   GL131441   9.758  44.616   8.855
 7884POPC   GL231442   9.764  44.555   8.855
 7884POPC   C1A31443   9.729  44.653   8.555
 7884POPC   D2A31444   9.768  44.685   8.255
 7884POPC   C3A31445   9.790  44.664   7.955
 7884POPC   C4A31446   9.756  44.641   7.655
 7884POPC   C1B31447   9.802  44.395   8.555
 7884POPC   C2B31448   9.849  44.373   8.255
 7884POPC   C3B31449   9.845  44.372   7.955
 7884POPC   C4B31450   9.834  44.387   7.655
 7885POPC   NC331451  36.939  17.547   9.455
 7885POPC   PO431452  36.929  17.458   9.155
 7885POPC   GL131453  36.854  17.547   8.855
 7885POPC   GL231454  36.917  17.401   8.855
 7885POPC   C1A31455  36.865  17.556   8.555
 7885POPC   D2A31456  36.939  17.506   8.255
 7885POPC   C3A31457  36.859  17.482   7.955
 7885POPC   C4A31458  36.872  17.556   7.655
 7885POPC   C1B31459  36.919  17.259   8.555
 7885POPC   C2B31460  36.940  17.272   8.255
 7885POPC   C3B31461  36.970  17.214   7.955
 7885POPC   C4B31462  36.908  17.236   7.655
 7886POPC   NC331463  29.157  14.439   9.455
 7886POPC   PO431464  29.173  14.418   9.155
 7886POPC   GL131465  29.100  14.428   8.855
 7886POPC   GL231466  29.106  14.493   8.855
 7886POPC   C1A31467  29.101  14.443   8.555
 7886POPC   D2A31468  29.159  14.434   8.255
 7886POPC   C3A31469  29.106  14.399   7.955
 7886POPC   C4A31470  29.194  14.366   7.655
 7886POPC   C1B31471  29.113  14.632   8.555
 7886POPC   C2B31472  29.119  14.596   8.255
 7886POPC   C3B31473  29.096  14.614   7.955
 7886POPC   C4B31474  29.103  14.674   7.655
 7887POPC   NC331475  14.384  23.707   9.455
 7887POPC   PO431476  14.386  23.674   9.155
 7887POPC   GL131477  14.366  23.709   8.855
 7887POPC   GL231478  14.300  23.822   8.855
 7887POPC   C1A31479  14.435  23.716   8.555
 7887POPC   D2A31480  14.447  23.682   8.255
 7887POPC   C3A31481  14.409  23.735   7.955
 7887POPC   C4A31482  14.401  23.715   7.655
 7887POPC   C1B31483  14.281  23.899   8.555
 7887POPC   C2B31484  14.210  23.893   8.255
 7887POPC   C3B31485  14.284  23.934   7.955
 7887POPC   C4B31486  14.268  23.868   7.655
 7888POPC   NC331487  16.683  12.802   9.455
 7888POPC   PO431488  16.687  12.853   9.155
 7888POPC   GL131489  16.687  12.830   8.855
 7888POPC   GL231490  16.896  12.873   8.855
 7888POPC   C1A31491  16.735  12.901   8.555
 7888POPC   D2A31492  16.683  12.891   8.255
 7888POPC   C3A31493  16.715  12.860   7.955
 7888POPC   C4A31494  16.720  12.870   7.655
 7888POPC   C1B31495  17.011  12.946   8.555
 7888POPC   C2B31496  17.010  12.905   8.255
 7888POPC   C3B31497  16.977  12.890   7.955
 7888POPC   C4B31498  16.999  12.902   7.655
 7889POPC   NC331499  19.014  13.623   9.455
 7889POPC   PO431500  19.046  13.617   9.155
 7889POPC   GL131501  19.043  13.637   8.855
 7889POPC   GL231502  19.142  13.505   8.855
 7889POPC   C1A31503  19.060  13.608   8.555
 7889POPC   D2A31504  19.028  13.657   8.255
 7889POPC   C3A31505  19.064  13.671   7.955
 7889POPC   C4A31506  19.024  13.650   7.655
 7889POPC   C1B31507  19.238  13.438   8.555
 7889POPC   C2B31508  19.265  13.422   8.255
 7889POPC   C3B31509  19.240  13.419   7.955
 7889POPC   C4B31510  19.214  13.431   7.655
 7890POPC   NC331511  12.104  22.916   9.455
 7890POPC   PO431512  12.113  22.909   9.155
 7890POPC   GL131513  12.085  22.921   8.855
 7890POPC   GL231514  12.178  22.953   8.855
 7890POPC   C1A31515  12.038  22.914   8.555
 7890POPC   D2A31516  12.091  22.984   8.255
 7890POPC   C3A31517  12.098  22.913   7.955
 7890POPC   C4A31518  12.056  22.939   7.655
 7890POPC   C1B31519  12.256  23.070   8.555
 7890POPC   C2B31520  12.350  23.023   8.255
 7890POPC   C3B31521  12.265  23.005   7.955
 7890POPC   C4B31522  12.265  23.037   7.655
 7891POPC   NC331523  22.923  14.403   9.455
 7891POPC   PO431524  22.986  14.445   9.155
 7891POPC   GL131525  22.946  14.405   8.855
 7891POPC   GL231526  23.003  14.258   8.855
 7891POPC   C1A31527  22.929  14.412   8.555
 7891POPC   D2A31528  22.939  14.359   8.255
 7891POPC   C3A31529  22.897  14.379   7.955
 7891POPC   C4A31530  22.936  14.386   7.655
 7891POPC   C1B31531  23.134  14.177   8.555
 7891POPC   C2B31532  23.058  14.206   8.255
 7891POPC   C3B31533  23.115  14.199   7.955
 7891POPC   C4B31534  23.092  14.216   7.655
 7892POPC   NC331535   1.999  19.790   9.455
 7892POPC   PO431536   1.950  19.811   9.155
 7892POPC   GL131537   1.956  19.829   8.855
 7892POPC   GL231538   1.864  19.803   8.855
 7892POPC   C1A31539   1.960  19.856   8.555
 7892POPC   D2A31540   2.008  19.839   8.255
 7892POPC   C3A31541   1.983  19.841   7.955
 7892POPC   C4A31542   1.961  19.810   7.655
 7892POPC   C1B31543   1.733  19.771   8.555
 7892POPC   C2B31544   1.756  19.788   8.255
 7892POPC   C3B31545   1.712  19.777   7.955
 7892POPC   C4B31546   1.747  19.824   7.655
 7893POPC   NC331547   6.643  25.272   9.455
 7893POPC   PO431548   6.601  25.313   9.155
 7893POPC   GL131549   6.691  25.226   8.855
 7893POPC   GL231550   6.599  25.135   8.855
 7893POPC   C1A31551   6.638  25.269   8.555
 7893POPC   D2A31552   6.642  25.226   8.255
 7893POPC   C3A31553   6.666  25.244   7.955
 7893POPC   C4A31554   6.643  25.262   7.655
 7893POPC   C1B31555   6.554  24.990   8.555
 7893POPC   C2B31556   6.634  25.007   8.255
 7893POPC   C3B31557   6.638  25.019   7.955
 7893POPC   C4B31558   6.569  25.052   7.655
 7894POPC   NC331559  11.341  16.764   9.455
 7894POPC   PO431560  11.296  16.714   9.155
 7894POPC   GL131561  11.308  16.722   8.855
 7894POPC   GL231562  11.322  16.595   8.855
 7894POPC   C1A31563  11.279  16.771   8.555
 7894POPC   D2A31564  11.343  16.694   8.255
 7894POPC   C3A31565  11.283  16.759   7.955
 7894POPC   C4A31566  11.264  16.737   7.655
 7894POPC   C1B31567  11.383  16.532   8.555
 7894POPC   C2B31568  11.393  16.542   8.255
 7894POPC   C3B31569  11.383  16.500   7.955
 7894POPC   C4B31570  11.417  16.487   7.655
 7895POPC   NC331571  38.463  13.634   9.455
 7895POPC   PO431572  38.406  13.578   9.155
 7895POPC   GL131573  38.474  13.660   8.855
 7895POPC   GL231574  38.458  13.781   8.855
 7895POPC   C1A31575  38.460  13.647   8.555
 7895POPC   D2A31576  38.491  13.674   8.255
 7895POPC   C3A31577  38.457  13.618   7.955
 7895POPC   C4A31578  38.411  13.663   7.655
 7895POPC   C1B31579  38.520  13.857   8.555
 7895POPC   C2B31580  38.513  13.856   8.255
 7895POPC   C3B31581  38.571  13.890   7.955
 7895POPC   C4B31582  38.568  13.876   7.655
 7896POPC   NC331583  32.282   3.577   9.455
 7896POPC   PO431584  32.211   3.564   9.155
 7896POPC   GL131585  32.281   3.559   8.855
 7896POPC   GL231586  32.288   3.680   8.855
 7896POPC   C1A31587  32.272   3.508   8.555
 7896POPC   D2A31588  32.202   3.577   8.255
 7896POPC   C3A31589  32.235   3.552   7.955
 7896POPC   C4A31590  32.298   3.590   7.655
 7896POPC   C1B31591  32.279   3.751   8.555
 7896POPC   C2B31592  32.291   3.804   8.255
 7896POPC   C3B31593  32.295   3.783   7.955
 7896POPC   C4B31594  32.353   3.753   7.655
 7897POPC   NC331595  16.694  15.178   9.455
 7897POPC   PO431596  16.734  15.201   9.155
 7897POPC   GL131597  16.716  15.175   8.855
 7897POPC   GL231598  16.666  15.333   8.855
 7897POPC   C1A31599  16.722  15.131   8.555
 7897POPC   D2A31600  16.748  15.218   8.255
 7897POPC   C3A31601  16.706  15.216   7.955
 7897POPC   C4A31602  16.707  15.149   7.655
 7897POPC   C1B31603  16.632  15.431   8.555
 7897POPC   C2B31604  16.678  15.387   8.255
 7897POPC   C3B31605  16.597  15.427   7.955
 7897POPC   C4B31606  16.662  15.429   7.655
 7898POPC   NC331607   8.995   8.209   9.455
 7898POPC   PO431608   8.985   8.205   9.155
 7898POPC   GL131609   9.007   8.203   8.855
 7898POPC   GL231610   9.089   8.077   8.855
 7898POPC   C1A31611   8.942   8.151   8.555
 7898POPC   D2A31612   8.993   8.153   8.255
 7898POPC   C3A31613   8.996   8.192   7.955
 7898POPC   C4A31614   8.983   8.246   7.655
 7898POPC   C1B31615   9.176   8.045   8.555
 7898POPC   C2B31616   9.157   7.999   8.255
 7898POPC   C3B31617   9.097   7.994   7.955
 7898POPC   C4B31618   9.176   8.024   7.655
 7899POPC   NC331619  15.937  42.337   9.455
 7899POPC   PO431620  15.964  42.349   9.155
 7899POPC   GL131621  15.960  42.347   8.855
 7899POPC   GL231622  16.023  42.243   8.855
 7899POPC   C1A31623  15.952  42.320   8.555
 7899POPC   D2A31624  15.995  42.353   8.255
 7899POPC   C3A31625  16.001  42.336   7.955
 7899POPC   C4A31626  15.916  42.365   7.655
 7899POPC   C1B31627  16.055  42.054   8.555
 7899POPC   C2B31628  15.996  42.100   8.255
 7899POPC   C3B31629  16.027  42.079   7.955
 7899POPC   C4B31630  15.995  42.131   7.655
 7900POPC   NC331631  32.222  17.466   9.455
 7900POPC   PO431632  32.228  17.509   9.155
 7900POPC   GL131633  32.297  17.553   8.855
 7900POPC   GL231634  32.356  17.456   8.855
 7900POPC   C1A31635  32.207  17.467   8.555
 7900POPC   D2A31636  32.256  17.542   8.255
 7900POPC   C3A31637  32.208  17.512   7.955
 7900POPC   C4A31638  32.212  17.490   7.655
 7900POPC   C1B31639  32.459  17.407   8.555
 7900POPC   C2B31640  32.461  17.414   8.255
 7900POPC   C3B31641  32.495  17.384   7.955
 7900POPC   C4B31642  32.481  17.383   7.655
 7901POPC   NC331643  12.849  36.904   9.455
 7901POPC   PO431644  12.814  36.932   9.155
 7901POPC   GL131645  12.900  36.866   8.855
 7901POPC   GL231646  12.904  37.005   8.855
 7901POPC   C1A31647  12.846  36.903   8.555
 7901POPC   D2A31648  12.884  36.872   8.255
 7901POPC   C3A31649  12.895  36.876   7.955
 7901POPC   C4A31650  12.837  36.872   7.655
 7901POPC   C1B31651  12.982  37.113   8.555
 7901POPC   C2B31652  12.992  37.074   8.255
 7901POPC   C3B31653  12.948  37.108   7.955
 7901POPC   C4B31654  12.950  37.058   7.655
 7902POPC   NC331655  33.783  24.539   9.455
 7902POPC   PO431656  33.758  24.537   9.155
 7902POPC   GL131657  33.780  24.443   8.855
 7902POPC   GL231658  33.910  24.409   8.855
 7902POPC   C1A31659  33.831  24.538   8.555
 7902POPC   D2A31660  33.753  24.451   8.255
 7902POPC   C3A31661  33.763  24.502   7.955
 7902POPC   C4A31662  33.757  24.470   7.655
 7902POPC   C1B31663  33.998  24.292   8.555
 7902POPC   C2B31664  34.016  24.336   8.255
 7902POPC   C3B31665  33.990  24.347   7.955
 7902POPC   C4B31666  33.995  24.360   7.655
 7903POPC   NC331667  15.191  32.989   9.455
 7903POPC   PO431668  15.141  33.027   9.155
 7903POPC   GL131669  15.228  33.011   8.855
 7903POPC   GL231670  15.335  32.916   8.855
 7903POPC   C1A31671  15.144  33.073   8.555
 7903POPC   D2A31672  15.214  33.052   8.255
 7903POPC   C3A31673  15.204  32.988   7.955
 7903POPC   C4A31674  15.211  33.044   7.655
 7903POPC   C1B31675  15.370  32.931   8.555
 7903POPC   C2B31676  15.412  32.901   8.255
 7903POPC   C3B31677  15.362  32.928   7.955
 7903POPC   C4B31678  15.350  32.853   7.655
 7904POPC   NC331679  12.833  43.160   9.455
 7904POPC   PO431680  12.881  43.104   9.155
 7904POPC   GL131681  12.888  43.099   8.855
 7904POPC   GL231682  12.779  42.945   8.855
 7904POPC   C1A31683  12.844  43.093   8.555
 7904POPC   D2A31684  12.859  43.077   8.255
 7904POPC   C3A31685  12.896  43.073   7.955
 7904POPC   C4A31686  12.840  43.127   7.655
 7904POPC   C1B31687  12.767  42.840   8.555
 7904POPC   C2B31688  12.757  42.851   8.255
 7904POPC   C3B31689  12.794  42.865   7.955
 7904POPC   C4B31690  12.736  42.863   7.655
 7905POPC   NC331691  34.575  44.712   9.455
 7905POPC   PO431692  34.562  44.646   9.155
 7905POPC   GL131693  34.566  44.689   8.855
 7905POPC   GL231694  34.579  44.733   8.855
 7905POPC   C1A31695  34.604  44.680   8.555
 7905POPC   D2A31696  34.619  44.677   8.255
 7905POPC   C3A31697  34.540  44.705   7.955
 7905POPC   C4A31698  34.605  44.656   7.655
 7905POPC   C1B31699  34.505  44.866   8.555
 7905POPC   C2B31700  34.521  44.862   8.255
 7905POPC   C3B31701  34.523  44.899   7.955
 7905POPC   C4B31702  34.523  44.886   7.655
 7906POPC   NC331703  12.041  31.478   9.455
 7906POPC   PO431704  12.093  31.427   9.155
 7906POPC   GL131705  12.058  31.516   8.855
 7906POPC   GL231706  12.096  31.305   8.855
 7906POPC   C1A31707  12.035  31.456   8.555
 7906POPC   D2A31708  12.108  31.456   8.255
 7906POPC   C3A31709  12.105  31.432   7.955
 7906POPC   C4A31710  12.101  31.487   7.655
 7906POPC   C1B31711  12.125  31.225   8.555
 7906POPC   C2B31712  12.182  31.229   8.255
 7906POPC   C3B31713  12.108  31.230   7.955
 7906POPC   C4B31714  12.137  31.200   7.655
 7907POPC   NC331715  29.189  26.001   9.455
 7907POPC   PO431716  29.129  25.993   9.155
 7907POPC   GL131717  29.127  26.047   8.855
 7907POPC   GL231718  29.083  25.900   8.855
 7907POPC   C1A31719  29.131  26.080   8.555
 7907POPC   D2A31720  29.160  26.024   8.255
 7907POPC   C3A31721  29.138  25.998   7.955
 7907POPC   C4A31722  29.144  26.076   7.655
 7907POPC   C1B31723  28.998  25.852   8.555
 7907POPC   C2B31724  29.042  25.822   8.255
 7907POPC   C3B31725  29.017  25.775   7.955
 7907POPC   C4B31726  29.054  25.842   7.655
 7908POPC   NC331727  35.359  32.251   9.455
 7908POPC   PO431728  35.374  32.277   9.155
 7908POPC   GL131729  35.385  32.294   8.855
 7908POPC   GL231730  35.510  32.295   8.855
 7908POPC   C1A31731  35.393  32.235   8.555
 7908POPC   D2A31732  35.392  32.242   8.255
 7908POPC   C3A31733  35.401  32.254   7.955
 7908POPC   C4A31734  35.304  32.276   7.655
 7908POPC   C1B31735  35.620  32.361   8.555
 7908POPC   C2B31736  35.610  32.377   8.255
 7908POPC   C3B31737  35.544  32.326   7.955
 7908POPC   C4B31738  35.579  32.388   7.655
 7909POPC   NC331739  34.607  18.296   9.455
 7909POPC   PO431740  34.539  18.254   9.155
 7909POPC   GL131741  34.526  18.260   8.855
 7909POPC   GL231742  34.485  18.310   8.855
 7909POPC   C1A31743  34.607  18.313   8.555
 7909POPC   D2A31744  34.564  18.304   8.255
 7909POPC   C3A31745  34.613  18.284   7.955
 7909POPC   C4A31746  34.571  18.325   7.655
 7909POPC   C1B31747  34.343  18.287   8.555
 7909POPC   C2B31748  34.354  18.289   8.255
 7909POPC   C3B31749  34.377  18.306   7.955
 7909POPC   C4B31750  34.295  18.287   7.655
 7910POPC   NC331751   1.251   8.937   9.455
 7910POPC   PO431752   1.203   8.971   9.155
 7910POPC   GL131753   1.206   8.925   8.855
 7910POPC   GL231754   1.049   8.977   8.855
 7910POPC   C1A31755   1.261   8.988   8.555
 7910POPC   D2A31756   1.171   8.970   8.255
 7910POPC   C3A31757   1.176   8.925   7.955
 7910POPC   C4A31758   1.174   8.927   7.655
 7910POPC   C1B31759   0.995   9.057   8.555
 7910POPC   C2B31760   0.944   9.032   8.255
 7910POPC   C3B31761   0.968   9.034   7.955
 7910POPC   C4B31762   1.008   9.034   7.655
 7911POPC   NC331763  15.966   2.013   9.455
 7911POPC   PO431764  15.982   2.023   9.155
 7911POPC   GL131765  15.980   2.027   8.855
 7911POPC   GL231766  16.119   1.964   8.855
 7911POPC   C1A31767  15.992   1.997   8.555
 7911POPC   D2A31768  15.977   1.993   8.255
 7911POPC   C3A31769  15.996   2.031   7.955
 7911POPC   C4A31770  15.929   2.002   7.655
 7911POPC   C1B31771  16.197   1.925   8.555
 7911POPC   C2B31772  16.225   1.882   8.255
 7911POPC   C3B31773  16.193   1.867   7.955
 7911POPC   C4B31774  16.212   1.873   7.655
 7912POPC   NC331775  42.290  32.220   9.455
 7912POPC   PO431776  42.336  32.207   9.155
 7912POPC   GL131777  42.369  32.229   8.855
 7912POPC   GL231778  42.482  32.202   8.855
 7912POPC   C1A31779  42.344  32.293   8.555
 7912POPC   D2A31780  42.351  32.261   8.255
 7912POPC   C3A31781  42.325  32.206   7.955
 7912POPC   C4A31782  42.329  32.289   7.655
 7912POPC   C1B31783  42.551  32.245   8.555
 7912POPC   C2B31784  42.618  32.199   8.255
 7912POPC   C3B31785  42.606  32.214   7.955
 7912POPC   C4B31786  42.578  32.221   7.655
 7913POPC   NC331787   8.948  12.034   9.455
 7913POPC   PO431788   8.941  12.042   9.155
 7913POPC   GL131789   9.001  12.112   8.855
 7913POPC   GL231790   8.857  12.132   8.855
 7913POPC   C1A31791   8.979  12.120   8.555
 7913POPC   D2A31792   8.961  12.091   8.255
 7913POPC   C3A31793   9.003  12.065   7.955
 7913POPC   C4A31794   9.014  12.120   7.655
 7913POPC   C1B31795   8.872  12.297   8.555
 7913POPC   C2B31796   8.792  12.314   8.255
 7913POPC   C3B31797   8.807  12.236   7.955
 7913POPC   C4B31798   8.821  12.312   7.655
 7914POPC   NC331799  15.220  19.107   9.455
 7914POPC   PO431800  15.151  19.024   9.155
 7914POPC   GL131801  15.207  19.105   8.855
 7914POPC   GL231802  15.263  19.202   8.855
 7914POPC   C1A31803  15.212  19.094   8.555
 7914POPC   D2A31804  15.217  19.022   8.255
 7914POPC   C3A31805  15.182  19.083   7.955
 7914POPC   C4A31806  15.174  19.091   7.655
 7914POPC   C1B31807  15.278  19.242   8.555
 7914POPC   C2B31808  15.356  19.316   8.255
 7914POPC   C3B31809  15.335  19.319   7.955
 7914POPC   C4B31810  15.324  19.311   7.655
 7915POPC   NC331811  36.952  16.736   9.455
 7915POPC   PO431812  36.915  16.731   9.155
 7915POPC   GL131813  36.892  16.768   8.855
 7915POPC   GL231814  36.826  16.676   8.855
 7915POPC   C1A31815  36.879  16.725   8.555
 7915POPC   D2A31816  36.867  16.757   8.255
 7915POPC   C3A31817  36.894  16.699   7.955
 7915POPC   C4A31818  36.926  16.733   7.655
 7915POPC   C1B31819  36.737  16.564   8.555
 7915POPC   C2B31820  36.696  16.587   8.255
 7915POPC   C3B31821  36.666  16.572   7.955
 7915POPC   C4B31822  36.687  16.592   7.655
 7916POPC   NC331823  25.236   7.411   9.455
 7916POPC   PO431824  25.261   7.421   9.155
 7916POPC   GL131825  25.241   7.469   8.855
 7916POPC   GL231826  25.323   7.555   8.855
 7916POPC   C1A31827  25.218   7.377   8.555
 7916POPC   D2A31828  25.301   7.404   8.255
 7916POPC   C3A31829  25.272   7.434   7.955
 7916POPC   C4A31830  25.254   7.389   7.655
 7916POPC   C1B31831  25.340   7.693   8.555
 7916POPC   C2B31832  25.336   7.639   8.255
 7916POPC   C3B31833  25.263   7.643   7.955
 7916POPC   C4B31834  25.329   7.679   7.655
 7917POPC   NC331835  12.060  36.166   9.455
 7917POPC   PO431836  12.079  36.126   9.155
 7917POPC   GL131837  12.086  36.101   8.855
 7917POPC   GL231838  12.086  36.280   8.855
 7917POPC   C1A31839  12.062  36.143   8.555
 7917POPC   D2A31840  12.102  36.114   8.255
 7917POPC   C3A31841  12.041  36.133   7.955
 7917POPC   C4A31842  12.123  36.163   7.655
 7917POPC   C1B31843  12.037  36.385   8.555
 7917POPC   C2B31844  12.105  36.394   8.255
 7917POPC   C3B31845  12.031  36.423   7.955
 7917POPC   C4B31846  12.047  36.398   7.655
 7918POPC   NC331847  37.632  39.239   9.455
 7918POPC   PO431848  37.653  39.251   9.155
 7918POPC   GL131849  37.664  39.205   8.855
 7918POPC   GL231850  37.558  39.248   8.855
 7918POPC   C1A31851  37.698  39.245   8.555
 7918POPC   D2A31852  37.638  39.269   8.255
 7918POPC   C3A31853  37.703  39.209   7.955
 7918POPC   C4A31854  37.665  39.270   7.655
 7918POPC   C1B31855  37.421  39.222   8.555
 7918POPC   C2B31856  37.422  39.214   8.255
 7918POPC   C3B31857  37.429  39.201   7.955
 7918POPC   C4B31858  37.458  39.269   7.655
 7919POPC   NC331859   1.253   7.468   9.455
 7919POPC   PO431860   1.238   7.407   9.155
 7919POPC   GL131861   1.221   7.470   8.855
 7919POPC   GL231862   1.134   7.439   8.855
 7919POPC   C1A31863   1.181   7.419   8.555
 7919POPC   D2A31864   1.193   7.428   8.255
 7919POPC   C3A31865   1.254   7.468   7.955
 7919POPC   C4A31866   1.186   7.432   7.655
 7919POPC   C1B31867   0.930   7.451   8.555
 7919POPC   C2B31868   0.992   7.415   8.255
 7919POPC   C3B31869   0.951   7.444   7.955
 7919POPC   C4B31870   0.939   7.434   7.655
 7920POPC   NC331871  13.592  39.206   9.455
 7920POPC   PO431872  13.649  39.213   9.155
 7920POPC   GL131873  13.642  39.203   8.855
 7920POPC   GL231874  13.569  39.302   8.855
 7920POPC   C1A31875  13.631  39.197   8.555
 7920POPC   D2A31876  13.622  39.216   8.255
 7920POPC   C3A31877  13.629  39.199   7.955
 7920POPC   C4A31878  13.601  39.280   7.655
 7920POPC   C1B31879  13.536  39.464   8.555
 7920POPC   C2B31880  13.529  39.479   8.255
 7920POPC   C3B31881  13.494  39.481   7.955
 7920POPC   C4B31882  13.501  39.446   7.655
 7921POPC   NC331883   6.668  27.628   9.455
 7921POPC   PO431884   6.674  27.635   9.155
 7921POPC   GL131885   6.678  27.546   8.855
 7921POPC   GL231886   6.637  27.707   8.855
 7921POPC   C1A31887   6.626  27.585   8.555
 7921POPC   D2A31888   6.668  27.598   8.255
 7921POPC   C3A31889   6.689  27.583   7.955
 7921POPC   C4A31890   6.690  27.570   7.655
 7921POPC   C1B31891   6.617  27.872   8.555
 7921POPC   C2B31892   6.586  27.832   8.255
 7921POPC   C3B31893   6.630  27.844   7.955
 7921POPC   C4B31894   6.592  27.879   7.655
 7922POPC   NC331895  31.426  42.373   9.455
 7922POPC   PO431896  31.513  42.314   9.155
 7922POPC   GL131897  31.463  42.303   8.855
 7922POPC   GL231898  31.586  42.343   8.855
 7922POPC   C1A31899  31.507  42.380   8.555
 7922POPC   D2A31900  31.520  42.303   8.255
 7922POPC   C3A31901  31.491  42.357   7.955
 7922POPC   C4A31902  31.450  42.296   7.655
 7922POPC   C1B31903  31.713  42.297   8.555
 7922POPC   C2B31904  31.768  42.282   8.255
 7922POPC   C3B31905  31.686  42.289   7.955
 7922POPC   C4B31906  31.684  42.253   7.655
 7923POPC   NC331907  12.072  16.704   9.455
 7923POPC   PO431908  12.048  16.770   9.155
 7923POPC   GL131909  12.069  16.715   8.855
 7923POPC   GL231910  12.011  16.666   8.855
 7923POPC   C1A31911  12.049  16.776   8.555
 7923POPC   D2A31912  12.096  16.699   8.255
 7923POPC   C3A31913  12.053  16.780   7.955
 7923POPC   C4A31914  12.028  16.741   7.655
 7923POPC   C1B31915  11.873  16.576   8.555
 7923POPC   C2B31916  11.920  16.493   8.255
 7923POPC   C3B31917  11.888  16.535   7.955
 7923POPC   C4B31918  11.909  16.504   7.655
 7924POPC   NC331919   5.844  10.491   9.455
 7924POPC   PO431920   5.828  10.565   9.155
 7924POPC   GL131921   5.911  10.492   8.855
 7924POPC   GL231922   5.982  10.632   8.855
 7924POPC   C1A31923   5.851  10.546   8.555
 7924POPC   D2A31924   5.867  10.524   8.255
 7924POPC   C3A31925   5.918  10.501   7.955
 7924POPC   C4A31926   5.896  10.565   7.655
 7924POPC   C1B31927   6.135  10.648   8.555
 7924POPC   C2B31928   6.064  10.683   8.255
 7924POPC   C3B31929   6.130  10.673   7.955
 7924POPC   C4B31930   6.074  10.610   7.655
 7925POPC   NC331931  20.623   8.177   9.455
 7925POPC   PO431932  20.588   8.148   9.155
 7925POPC   GL131933  20.643   8.211   8.855
 7925POPC   GL231934  20.670   8.286   8.855
 7925POPC   C1A31935  20.649   8.176   8.555
 7925POPC   D2A31936  20.570   8.157   8.255
 7925POPC   C3A31937  20.626   8.212   7.955
 7925POPC   C4A31938  20.617   8.235   7.655
 7925POPC   C1B31939  20.793   8.389   8.555
 7925POPC   C2B31940  20.731   8.448   8.255
 7925POPC   C3B31941  20.703   8.369   7.955
 7925POPC   C4B31942  20.753   8.391   7.655
 7926POPC   NC331943   1.262   5.890   9.455
 7926POPC   PO431944   1.258   5.858   9.155
 7926POPC   GL131945   1.263   5.899   8.855
 7926POPC   GL231946   1.134   5.781   8.855
 7926POPC   C1A31947   1.179   5.862   8.555
 7926POPC   D2A31948   1.178   5.868   8.255
 7926POPC   C3A31949   1.254   5.886   7.955
 7926POPC   C4A31950   1.217   5.845   7.655
 7926POPC   C1B31951   1.109   5.635   8.555
 7926POPC   C2B31952   1.156   5.601   8.255
 7926POPC   C3B31953   1.110   5.659   7.955
 7926POPC   C4B31954   1.128   5.670   7.655
 7927POPC   NC331955  19.851  23.725   9.455
 7927POPC   PO431956  19.819  23.755   9.155
 7927POPC   GL131957  19.878  23.669   8.855
 7927POPC   GL231958  19.917  23.766   8.855
 7927POPC   C1A31959  19.875  23.694   8.555
 7927POPC   D2A31960  19.820  23.681   8.255
 7927POPC   C3A31961  19.785  23.748   7.955
 7927POPC   C4A31962  19.884  23.719   7.655
 7927POPC   C1B31963  20.076  23.758   8.555
 7927POPC   C2B31964  20.122  23.757   8.255
 7927POPC   C3B31965  20.047  23.784   7.955
 7927POPC   C4B31966  20.072  23.800   7.655
 7928POPC   NC331967  29.155  40.767   9.455
 7928POPC   PO431968  29.181  40.826   9.155
 7928POPC   GL131969  29.098  40.815   8.855
 7928POPC   GL231970  29.169  40.669   8.855
 7928POPC   C1A31971  29.118  40.829   8.555
 7928POPC   D2A31972  29.126  40.743   8.255
 7928POPC   C3A31973  29.129  40.738   7.955
 7928POPC   C4A31974  29.193  40.803   7.655
 7928POPC   C1B31975  29.254  40.526   8.555
 7928POPC   C2B31976  29.225  40.525   8.255
 7928POPC   C3B31977  29.277  40.549   7.955
 7928POPC   C4B31978  29.238  40.593   7.655
 7929POPC   NC331979  12.858   9.015   9.455
 7929POPC   PO431980  12.818   8.964   9.155
 7929POPC   GL131981  12.887   8.984   8.855
 7929POPC   GL231982  13.018   8.980   8.855
 7929POPC   C1A31983  12.877   8.990   8.555
 7929POPC   D2A31984  12.862   9.006   8.255
 7929POPC   C3A31985  12.863   8.990   7.955
 7929POPC   C4A31986  12.884   8.967   7.655
 7929POPC   C1B31987  13.066   9.012   8.555
 7929POPC   C2B31988  13.060   8.967   8.255
 7929POPC   C3B31989  13.057   9.011   7.955
 7929POPC   C4B31990  13.103   8.929   7.655
 7930POPC   NC331991  37.645  19.880   9.455
 7930POPC   PO431992  37.653  19.793   9.155
 7930POPC   GL131993  37.682  19.858   8.855
 7930POPC   GL231994  37.571  19.707   8.855
 7930POPC   C1A31995  37.649  19.798   8.555
 7930POPC   D2A31996  37.709  19.857   8.255
 7930POPC   C3A31997  37.710  19.817   7.955
 7930POPC   C4A31998  37.685  19.831   7.655
 7930POPC   C1B31999  37.462  19.637   8.555
 7930POPC   C2B32000  37.484  19.613   8.255
 7930POPC   C3B32001  37.482  19.697   7.955
 7930POPC   C4B32002  37.466  19.646   7.655
 7931POPC   NC332003   3.521  22.959   9.455
 7931POPC   PO432004   3.505  22.914   9.155
 7931POPC   GL132005   3.561  22.966   8.855
 7931POPC   GL232006   3.609  22.788   8.855
 7931POPC   C1A32007   3.529  22.948   8.555
 7931POPC   D2A32008   3.538  22.986   8.255
 7931POPC   C3A32009   3.550  22.956   7.955
 7931POPC   C4A32010   3.510  22.966   7.655
 7931POPC   C1B32011   3.661  22.661   8.555
 7931POPC   C2B32012   3.635  22.760   8.255
 7931POPC   C3B32013   3.669  22.706   7.955
 7931POPC   C4B32014   3.626  22.672   7.655
 7932POPC   NC332015   8.931  28.368   9.455
 7932POPC   PO432016   8.998  28.411   9.155
 7932POPC   GL132017   8.960  28.380   8.855
 7932POPC   GL232018   8.956  28.233   8.855
 7932POPC   C1A32019   9.003  28.398   8.555
 7932POPC   D2A32020   8.988  28.324   8.255
 7932POPC   C3A32021   8.970  28.385   7.955
 7932POPC   C4A32022   8.974  28.407   7.655
 7932POPC   C1B32023   8.930  28.108   8.555
 7932POPC   C2B32024   8.963  28.102   8.255
 7932POPC   C3B32025   8.930  28.080   7.955
 7932POPC   C4B32026   8.919  28.111   7.655
 7933POPC   NC332027  12.837  22.205   9.455
 7933POPC   PO432028  12.900  22.113   9.155
 7933POPC   GL132029  12.889  22.209   8.855
 7933POPC   GL232030  12.968  22.122   8.855
 7933POPC   C1A32031  12.855  22.186   8.555
 7933POPC   D2A32032  12.894  22.190   8.255
 7933POPC   C3A32033  12.837  22.166   7.955
 7933POPC   C4A32034  12.831  22.154   7.655
 7933POPC   C1B32035  13.031  22.005   8.555
 7933POPC   C2B32036  13.057  21.976   8.255
 7933POPC   C3B32037  12.994  21.950   7.955
 7933POPC   C4B32038  13.019  21.961   7.655
 7934POPC   NC332039  20.658  24.477   9.455
 7934POPC   PO432040  20.590  24.531   9.155
 7934POPC   GL132041  20.561  24.462   8.855
 7934POPC   GL232042  20.719  24.439   8.855
 7934POPC   C1A32043  20.577  24.497   8.555
 7934POPC   D2A32044  20.604  24.498   8.255
 7934POPC   C3A32045  20.654  24.452   7.955
 7934POPC   C4A32046  20.565  24.532   7.655
 7934POPC   C1B32047  20.776  24.302   8.555
 7934POPC   C2B32048  20.729  24.328   8.255
 7934POPC   C3B32049  20.807  24.323   7.955
 7934POPC   C4B32050  20.757  24.280   7.655
 7935POPC   NC332051  36.885  14.377   9.455
 7935POPC   PO432052  36.924  14.443   9.155
 7935POPC   GL132053  36.899  14.394   8.855
 7935POPC   GL232054  36.984  14.447   8.855
 7935POPC   C1A32055  36.907  14.449   8.555
 7935POPC   D2A32056  36.947  14.420   8.255
 7935POPC   C3A32057  36.934  14.379   7.955
 7935POPC   C4A32058  36.927  14.392   7.655
 7935POPC   C1B32059  37.135  14.507   8.555
 7935POPC   C2B32060  37.112  14.503   8.255
 7935POPC   C3B32061  37.149  14.471   7.955
 7935POPC   C4B32062  37.147  14.463   7.655
 7936POPC   NC332063  33.046  38.431   9.455
 7936POPC   PO432064  33.041  38.488   9.155
 7936POPC   GL132065  33.051  38.448   8.855
 7936POPC   GL232066  33.159  38.501   8.855
 7936POPC   C1A32067  32.983  38.449   8.555
 7936POPC   D2A32068  32.979  38.410   8.255
 7936POPC   C3A32069  33.028  38.454   7.955
 7936POPC   C4A32070  32.976  38.491   7.655
 7936POPC   C1B32071  33.234  38.527   8.555
 7936POPC   C2B32072  33.224  38.528   8.255
 7936POPC   C3B32073  33.218  38.561   7.955
 7936POPC   C4B32074  33.292  38.567   7.655
 7937POPC   NC332075   4.323  20.648   9.455
 7937POPC   PO432076   4.359  20.578   9.155
 7937POPC   GL132077   4.287  20.585   8.855
 7937POPC   GL232078   4.169  20.579   8.855
 7937POPC   C1A32079   4.289  20.658   8.555
 7937POPC   D2A32080   4.318  20.594   8.255
 7937POPC   C3A32081   4.353  20.603   7.955
 7937POPC   C4A32082   4.336  20.576   7.655
 7937POPC   C1B32083   4.114  20.639   8.555
 7937POPC   C2B32084   4.062  20.650   8.255
 7937POPC   C3B32085   4.027  20.598   7.955
 7937POPC   C4B32086   4.039  20.664   7.655
 7938POPC   NC332087  26.796  19.073   9.455
 7938POPC   PO432088  26.791  19.011   9.155
 7938POPC   GL132089  26.861  19.073   8.855
 7938POPC   GL232090  26.899  19.167   8.855
 7938POPC   C1A32091  26.786  19.058   8.555
 7938POPC   D2A32092  26.776  19.022   8.255
 7938POPC   C3A32093  26.862  19.044   7.955
 7938POPC   C4A32094  26.797  19.105   7.655
 7938POPC   C1B32095  27.024  19.257   8.555
 7938POPC   C2B32096  27.020  19.200   8.255
 7938POPC   C3B32097  26.961  19.231   7.955
 7938POPC   C4B32098  26.965  19.221   7.655
 7939POPC   NC332099  17.507  22.943   9.455
 7939POPC   PO432100  17.499  22.963   9.155
 7939POPC   GL132101  17.469  22.981   8.855
 7939POPC   GL232102  17.350  22.980   8.855
 7939POPC   C1A32103  17.553  22.950   8.555
 7939POPC   D2A32104  17.537  22.959   8.255
 7939POPC   C3A32105  17.538  22.913   7.955
 7939POPC   C4A32106  17.506  22.939   7.655
 7939POPC   C1B32107  17.309  23.085   8.555
 7939POPC   C2B32108  17.326  23.096   8.255
 7939POPC   C3B32109  17.292  23.098   7.955
 7939POPC   C4B32110  17.324  23.055   7.655
 7940POPC   NC332111   3.556  36.165   9.455
 7940POPC   PO432112   3.500  36.139   9.155
 7940POPC   GL132113   3.492  36.095   8.855
 7940POPC   GL232114   3.596  36.045   8.855
 7940POPC   C1A32115   3.510  36.094   8.555
 7940POPC   D2A32116   3.503  36.143   8.255
 7940POPC   C3A32117   3.572  36.175   7.955
 7940POPC   C4A32118   3.552  36.146   7.655
 7940POPC   C1B32119   3.628  35.893   8.555
 7940POPC   C2B32120   3.666  35.884   8.255
 7940POPC   C3B32121   3.694  35.855   7.955
 7940POPC   C4B32122   3.691  35.888   7.655
 7941POPC   NC332123  31.488  22.889   9.455
 7941POPC   PO432124  31.452  22.964   9.155
 7941POPC   GL132125  31.516  22.937   8.855
 7941POPC   GL232126  31.322  22.899   8.855
 7941POPC   C1A32127  31.490  22.906   8.555
 7941POPC   D2A32128  31.484  22.934   8.255
 7941POPC   C3A32129  31.496  22.928   7.955
 7941POPC   C4A32130  31.499  22.981   7.655
 7941POPC   C1B32131  31.277  22.839   8.555
 7941POPC   C2B32132  31.187  22.821   8.255
 7941POPC   C3B32133  31.213  22.910   7.955
 7941POPC   C4B32134  31.262  22.842   7.655
 7942POPC   NC332135  33.770  29.117   9.455
 7942POPC   PO432136  33.764  29.174   9.155
 7942POPC   GL132137  33.778  29.173   8.855
 7942POPC   GL232138  33.738  29.023   8.855
 7942POPC   C1A32139  33.810  29.132   8.555
 7942POPC   D2A32140  33.771  29.143   8.255
 7942POPC   C3A32141  33.815  29.170   7.955
 7942POPC   C4A32142  33.797  29.176   7.655
 7942POPC   C1B32143  33.594  28.969   8.555
 7942POPC   C2B32144  33.674  28.970   8.255
 7942POPC   C3B32145  33.684  28.918   7.955
 7942POPC   C4B32146  33.652  28.989   7.655
 7943POPC   NC332147  33.824   1.982   9.455
 7943POPC   PO432148  33.824   2.023   9.155
 7943POPC   GL132149  33.844   1.996   8.855
 7943POPC   GL232150  33.950   1.948   8.855
 7943POPC   C1A32151  33.769   1.947   8.555
 7943POPC   D2A32152  33.750   2.030   8.255
 7943POPC   C3A32153  33.804   1.983   7.955
 7943POPC   C4A32154  33.813   1.993   7.655
 7943POPC   C1B32155  34.025   1.801   8.555
 7943POPC   C2B32156  34.020   1.813   8.255
 7943POPC   C3B32157  34.006   1.855   7.955
 7943POPC   C4B32158  33.984   1.862   7.655
 7944POPC   NC332159  42.328  11.313   9.455
 7944POPC   PO432160  42.342  11.311   9.155
 7944POPC   GL132161  42.377  11.338   8.855
 7944POPC   GL232162  42.255  11.283   8.855
 7944POPC   C1A32163  42.331  11.302   8.555
 7944POPC   D2A32164  42.295  11.343   8.255
 7944POPC   C3A32165  42.290  11.297   7.955
 7944POPC   C4A32166  42.330  11.346   7.655
 7944POPC   C1B32167  42.077  11.160   8.555
 7944POPC   C2B32168  42.086  11.182   8.255
 7944POPC   C3B32169  42.147  11.166   7.955
 7944POPC   C4B32170  42.081  11.163   7.655
 7945POPC   NC332171  40.057  10.527   9.455
 7945POPC   PO432172  40.047  10.518   9.155
 7945POPC   GL132173  39.980  10.508   8.855
 7945POPC   GL232174  40.052  10.604   8.855
 7945POPC   C1A32175  39.965  10.539   8.555
 7945POPC   D2A32176  39.989  10.537   8.255
 7945POPC   C3A32177  40.015  10.552   7.955
 7945POPC   C4A32178  39.986  10.477   7.655
 7945POPC   C1B32179  40.142  10.706   8.555
 7945POPC   C2B32180  40.229  10.649   8.255
 7945POPC   C3B32181  40.235  10.663   7.955
 7945POPC   C4B32182  40.235  10.668   7.655
 7946POPC   NC332183  30.693  24.535   9.455
 7946POPC   PO432184  30.659  24.448   9.155
 7946POPC   GL132185  30.733  24.475   8.855
 7946POPC   GL232186  30.669  24.397   8.855
 7946POPC   C1A32187  30.714  24.534   8.555
 7946POPC   D2A32188  30.702  24.449   8.255
 7946POPC   C3A32189  30.656  24.527   7.955
 7946POPC   C4A32190  30.736  24.502   7.655
 7946POPC   C1B32191  30.755  24.208   8.555
 7946POPC   C2B32192  30.731  24.244   8.255
 7946POPC   C3B32193  30.713  24.211   7.955
 7946POPC   C4B32194  30.757  24.215   7.655
 7947POPC   NC332195  15.993   8.186   9.455
 7947POPC   PO432196  15.980   8.243   9.155
 7947POPC   GL132197  15.925   8.160   8.855
 7947POPC   GL232198  15.970   8.344   8.855
 7947POPC   C1A32199  16.001   8.188   8.555
 7947POPC   D2A32200  15.936   8.179   8.255
 7947POPC   C3A32201  15.907   8.151   7.955
 7947POPC   C4A32202  15.992   8.196   7.655
 7947POPC   C1B32203  15.998   8.421   8.555
 7947POPC   C2B32204  15.964   8.431   8.255
 7947POPC   C3B32205  15.996   8.411   7.955
 7947POPC   C4B32206  15.945   8.490   7.655
 7948POPC   NC332207   0.473  33.810   9.455
 7948POPC   PO432208   0.486  33.788   9.155
 7948POPC   GL132209   0.413  33.789   8.855
 7948POPC   GL232210   0.329  33.676   8.855
 7948POPC   C1A32211   0.478  33.847   8.555
 7948POPC   D2A32212   0.475  33.829   8.255
 7948POPC   C3A32213   0.469  33.828   7.955
 7948POPC   C4A32214   0.467  33.810   7.655
 7948POPC   C1B32215   0.202  33.676   8.555
 7948POPC   C2B32216   0.257  33.631   8.255
 7948POPC   C3B32217   0.245  33.678   7.955
 7948POPC   C4B32218   0.243  33.664   7.655
 7949POPC   NC332219   4.299  36.130   9.455
 7949POPC   PO432220   4.337  36.115   9.155
 7949POPC   GL132221   4.314  36.170   8.855
 7949POPC   GL232222   4.459  36.091   8.855
 7949POPC   C1A32223   4.293  36.166   8.555
 7949POPC   D2A32224   4.302  36.163   8.255
 7949POPC   C3A32225   4.325  36.091   7.955
 7949POPC   C4A32226   4.315  36.144   7.655
 7949POPC   C1B32227   4.589  36.041   8.555
 7949POPC   C2B32228   4.590  36.067   8.255
 7949POPC   C3B32229   4.573  36.102   7.955
 7949POPC   C4B32230   4.533  36.051   7.655
 7950POPC   NC332231   1.207  33.014   9.455
 7950POPC   PO432232   1.187  33.000   9.155
 7950POPC   GL132233   1.262  33.051   8.855
 7950POPC   GL232234   1.238  32.935   8.855
 7950POPC   C1A32235   1.174  33.030   8.555
 7950POPC   D2A32236   1.196  32.975   8.255
 7950POPC   C3A32237   1.181  33.014   7.955
 7950POPC   C4A32238   1.259  33.000   7.655
 7950POPC   C1B32239   1.351  32.806   8.555
 7950POPC   C2B32240   1.363  32.828   8.255
 7950POPC   C3B32241   1.390  32.808   7.955
 7950POPC   C4B32242   1.377  32.788   7.655
 7951POPC   NC332243   3.527  34.554   9.455
 7951POPC   PO432244   3.493  34.560   9.155
 7951POPC   GL132245   3.569  34.583   8.855
 7951POPC   GL232246   3.514  34.683   8.855
 7951POPC   C1A32247   3.524  34.533   8.555
 7951POPC   D2A32248   3.542  34.579   8.255
 7951POPC   C3A32249   3.543  34.550   7.955
 7951POPC   C4A32250   3.557  34.532   7.655
 7951POPC   C1B32251   3.537  34.832   8.555
 7951POPC   C2B32252   3.481  34.853   8.255
 7951POPC   C3B32253   3.474  34.860   7.955
 7951POPC   C4B32254   3.489  34.829   7.655
 7952POPC   NC332255  25.243  26.033   9.455
 7952POPC   PO432256  25.231  26.012   9.155
 7952POPC   GL132257  25.287  26.061   8.855
 7952POPC   GL232258  25.293  26.172   8.855
 7952POPC   C1A32259  25.283  25.994   8.555
 7952POPC   D2A32260  25.219  26.003   8.255
 7952POPC   C3A32261  25.254  26.077   7.955
 7952POPC   C4A32262  25.232  26.053   7.655
 7952POPC   C1B32263  25.324  26.290   8.555
 7952POPC   C2B32264  25.309  26.301   8.255
 7952POPC   C3B32265  25.329  26.242   7.955
 7952POPC   C4B32266  25.247  26.246   7.655
 7953POPC   NC332267  29.952  25.264   9.455
 7953POPC   PO432268  29.943  25.242   9.155
 7953POPC   GL132269  29.873  25.223   8.855
 7953POPC   GL232270  29.998  25.292   8.855
 7953POPC   C1A32271  29.919  25.301   8.555
 7953POPC   D2A32272  29.898  25.221   8.255
 7953POPC   C3A32273  29.880  25.249   7.955
 7953POPC   C4A32274  29.886  25.296   7.655
 7953POPC   C1B32275  30.176  25.333   8.555
 7953POPC   C2B32276  30.178  25.343   8.255
 7953POPC   C3B32277  30.117  25.373   7.955
 7953POPC   C4B32278  30.122  25.370   7.655
 7954POPC   NC332279  24.464  13.605   9.455
 7954POPC   PO432280  24.508  13.588   9.155
 7954POPC   GL132281  24.503  13.639   8.855
 7954POPC   GL232282  24.421  13.710   8.855
 7954POPC   C1A32283  24.500  13.658   8.555
 7954POPC   D2A32284  24.508  13.612   8.255
 7954POPC   C3A32285  24.453  13.633   7.955
 7954POPC   C4A32286  24.445  13.642   7.655
 7954POPC   C1B32287  24.289  13.716   8.555
 7954POPC   C2B32288  24.293  13.745   8.255
 7954POPC   C3B32289  24.247  13.727   7.955
 7954POPC   C4B32290  24.260  13.715   7.655
 7955POPC   NC332291   0.463  39.988   9.455
 7955POPC   PO432292   0.394  39.985   9.155
 7955POPC   GL132293   0.399  40.042   8.855
 7955POPC   GL232294   0.556  40.049   8.855
 7955POPC   C1A32295   0.435  40.055   8.555
 7955POPC   D2A32296   0.446  40.049   8.255
 7955POPC   C3A32297   0.455  39.988   7.955
 7955POPC   C4A32298   0.462  40.027   7.655
 7955POPC   C1B32299   0.614  40.155   8.555
 7955POPC   C2B32300   0.656  40.141   8.255
 7955POPC   C3B32301   0.640  40.152   7.955
 7955POPC   C4B32302   0.610  40.162   7.655
 7956POPC   NC332303  21.338   1.264   9.455
 7956POPC   PO432304  21.378   1.232   9.155
 7956POPC   GL132305  21.435   1.259   8.855
 7956POPC   GL232306  21.346   1.351   8.855
 7956POPC   C1A32307  21.356   1.184   8.555
 7956POPC   D2A32308  21.408   1.259   8.255
 7956POPC   C3A32309  21.372   1.242   7.955
 7956POPC   C4A32310  21.381   1.220   7.655
 7956POPC   C1B32311  21.301   1.489   8.555
 7956POPC   C2B32312  21.326   1.479   8.255
 7956POPC   C3B32313  21.399   1.469   7.955
 7956POPC   C4B32314  21.348   1.476   7.655
 7957POPC   NC332315  20.625  29.921   9.455
 7957POPC   PO432316  20.573  29.932   9.155
 7957POPC   GL132317  20.581  29.959   8.855
 7957POPC   GL232318  20.748  29.904   8.855
 7957POPC   C1A32319  20.573  29.930   8.555
 7957POPC   D2A32320  20.609  29.910   8.255
 7957POPC   C3A32321  20.605  29.909   7.955
 7957POPC   C4A32322  20.652  29.916   7.655
 7957POPC   C1B32323  20.901  29.959   8.555
 7957POPC   C2B32324  20.813  29.976   8.255
 7957POPC   C3B32325  20.895  29.931   7.955
 7957POPC   C4B32326  20.830  29.911   7.655
 7958POPC   NC332327  31.463  16.682   9.455
 7958POPC   PO432328  31.461  16.780   9.155
 7958POPC   GL132329  31.499  16.753   8.855
 7958POPC   GL232330  31.484  16.837   8.855
 7958POPC   C1A32331  31.521  16.711   8.555
 7958POPC   D2A32332  31.510  16.773   8.255
 7958POPC   C3A32333  31.459  16.691   7.955
 7958POPC   C4A32334  31.496  16.711   7.655
 7958POPC   C1B32335  31.516  16.997   8.555
 7958POPC   C2B32336  31.459  16.949   8.255
 7958POPC   C3B32337  31.523  16.949   7.955
 7958POPC   C4B32338  31.479  17.023   7.655
 7959POPC   NC332339  15.908  22.889   9.455
 7959POPC   PO432340  15.980  22.977   9.155
 7959POPC   GL132341  15.928  22.921   8.855
 7959POPC   GL232342  15.965  23.025   8.855
 7959POPC   C1A32343  15.986  22.906   8.555
 7959POPC   D2A32344  15.907  22.951   8.255
 7959POPC   C3A32345  16.002  22.955   7.955
 7959POPC   C4A32346  15.934  22.895   7.655
 7959POPC   C1B32347  16.097  23.174   8.555
 7959POPC   C2B32348  16.038  23.137   8.255
 7959POPC   C3B32349  16.066  23.160   7.955
 7959POPC   C4B32350  16.081  23.166   7.655
 7960POPC   NC332351  36.164  13.614   9.455
 7960POPC   PO432352  36.131  13.610   9.155
 7960POPC   GL132353  36.174  13.615   8.855
 7960POPC   GL232354  36.173  13.762   8.855
 7960POPC   C1A32355  36.125  13.670   8.555
 7960POPC   D2A32356  36.171  13.606   8.255
 7960POPC   C3A32357  36.134  13.647   7.955
 7960POPC   C4A32358  36.158  13.626   7.655
 7960POPC   C1B32359  36.330  13.825   8.555
 7960POPC   C2B32360  36.322  13.822   8.255
 7960POPC   C3B32361  36.286  13.830   7.955
 7960POPC   C4B32362  36.280  13.800   7.655
 7961POPC   NC332363  29.163  38.441   9.455
 7961POPC   PO432364  29.111  38.488   9.155
 7961POPC   GL132365  29.179  38.438   8.855
 7961POPC   GL232366  29.055  38.469   8.855
 7961POPC   C1A32367  29.105  38.428   8.555
 7961POPC   D2A32368  29.147  38.421   8.255
 7961POPC   C3A32369  29.137  38.444   7.955
 7961POPC   C4A32370  29.124  38.501   7.655
 7961POPC   C1B32371  28.946  38.549   8.555
 7961POPC   C2B32372  28.932  38.578   8.255
 7961POPC   C3B32373  28.923  38.525   7.955
 7961POPC   C4B32374  28.867  38.587   7.655
 7962POPC   NC332375  22.954   0.407   9.455
 7962POPC   PO432376  22.904   0.425   9.155
 7962POPC   GL132377  22.959   0.409   8.855
 7962POPC   GL232378  23.030   0.580   8.855
 7962POPC   C1A32379  22.946   0.427   8.555
 7962POPC   D2A32380  22.911   0.401   8.255
 7962POPC   C3A32381  22.967   0.428   7.955
 7962POPC   C4A32382  22.913   0.461   7.655
 7962POPC   C1B32383  23.048   0.711   8.555
 7962POPC   C2B32384  23.033   0.686   8.255
 7962POPC   C3B32385  23.053   0.674   7.955
 7962POPC   C4B32386  23.039   0.634   7.655
 7963POPC   NC332387   6.692  44.659   9.455
 7963POPC   PO432388   6.694  44.642   9.155
 7963POPC   GL132389   6.627  44.702   8.855
 7963POPC   GL232390   6.691  44.585   8.855
 7963POPC   C1A32391   6.637  44.656   8.555
 7963POPC   D2A32392   6.678  44.644   8.255
 7963POPC   C3A32393   6.676  44.682   7.955
 7963POPC   C4A32394   6.679  44.631   7.655
 7963POPC   C1B32395   6.700  44.435   8.555
 7963POPC   C2B32396   6.668  44.382   8.255
 7963POPC   C3B32397   6.650  44.447   7.955
 7963POPC   C4B32398   6.645  44.364   7.655
 7964POPC   NC332399  17.486  37.710   9.455
 7964POPC   PO432400  17.509  37.715   9.155
 7964POPC   GL132401  17.480  37.643   8.855
 7964POPC   GL232402  17.568  37.804   8.855
 7964POPC   C1A32403  17.522  37.667   8.555
 7964POPC   D2A32404  17.492  37.685   8.255
 7964POPC   C3A32405  17.547  37.719   7.955
 7964POPC   C4A32406  17.464  37.706   7.655
 7964POPC   C1B32407  17.650  37.881   8.555
 7964POPC   C2B32408  17.640  37.835   8.255
 7964POPC   C3B32409  17.658  37.819   7.955
 7964POPC   C4B32410  17.726  37.859   7.655
 7965POPC   NC332411   2.028  28.347   9.455
 7965POPC   PO432412   2.003  28.362   9.155
 7965POPC   GL132413   2.005  28.354   8.855
 7965POPC   GL232414   2.129  28.413   8.855
 7965POPC   C1A32415   1.960  28.332   8.555
 7965POPC   D2A32416   2.005  28.330   8.255
 7965POPC   C3A32417   2.033  28.334   7.955
 7965POPC   C4A32418   1.953  28.371   7.655
 7965POPC   C1B32419   2.235  28.414   8.555
 7965POPC   C2B32420   2.220  28.360   8.255
 7965POPC   C3B32421   2.235  28.439   7.955
 7965POPC   C4B32422   2.200  28.360   7.655
 7966POPC   NC332423   5.841  12.041   9.455
 7966POPC   PO432424   5.839  12.068   9.155
 7966POPC   GL132425   5.911  12.032   8.855
 7966POPC   GL232426   5.945  11.997   8.855
 7966POPC   C1A32427   5.851  12.054   8.555
 7966POPC   D2A32428   5.892  12.091   8.255
 7966POPC   C3A32429   5.826  12.048   7.955
 7966POPC   C4A32430   5.914  12.064   7.655
 7966POPC   C1B32431   6.147  11.946   8.555
 7966POPC   C2B32432   6.121  11.983   8.255
 7966POPC   C3B32433   6.148  11.987   7.955
 7966POPC   C4B32434   6.101  11.970   7.655
 7967POPC   NC332435   9.706  23.712   9.455
 7967POPC   PO432436   9.720  23.748   9.155
 7967POPC   GL132437   9.793  23.738   8.855
 7967POPC   GL232438   9.700  23.587   8.855
 7967POPC   C1A32439   9.720  23.737   8.555
 7967POPC   D2A32440   9.728  23.679   8.255
 7967POPC   C3A32441   9.739  23.671   7.955
 7967POPC   C4A32442   9.738  23.725   7.655
 7967POPC   C1B32443   9.762  23.429   8.555
 7967POPC   C2B32444   9.710  23.447   8.255
 7967POPC   C3B32445   9.716  23.483   7.955
 7967POPC   C4B32446   9.758  23.496   7.655
 7968POPC   NC332447  31.522  33.049   9.455
 7968POPC   PO432448  31.424  33.003   9.155
 7968POPC   GL132449  31.432  33.013   8.855
 7968POPC   GL232450  31.398  32.956   8.855
 7968POPC   C1A32451  31.490  32.997   8.555
 7968POPC   D2A32452  31.455  33.059   8.255
 7968POPC   C3A32453  31.474  32.988   7.955
 7968POPC   C4A32454  31.425  33.053   7.655
 7968POPC   C1B32455  31.301  32.818   8.555
 7968POPC   C2B32456  31.296  32.852   8.255
 7968POPC   C3B32457  31.349  32.772   7.955
 7968POPC   C4B32458  31.309  32.858   7.655
 7969POPC   NC332459   8.999  14.381   9.455
 7969POPC   PO432460   8.932  14.382   9.155
 7969POPC   GL132461   8.946  14.374   8.855
 7969POPC   GL232462   8.915  14.345   8.855
 7969POPC   C1A32463   8.975  14.403   8.555
 7969POPC   D2A32464   8.965  14.449   8.255
 7969POPC   C3A32465   9.002  14.358   7.955
 7969POPC   C4A32466   8.963  14.367   7.655
 7969POPC   C1B32467   8.834  14.216   8.555
 7969POPC   C2B32468   8.779  14.209   8.255
 7969POPC   C3B32469   8.774  14.198   7.955
 7969POPC   C4B32470   8.823  14.202   7.655
 7970POPC   NC332471   9.711  26.793   9.455
 7970POPC   PO432472   9.710  26.808   9.155
 7970POPC   GL132473   9.732  26.824   8.855
 7970POPC   GL232474   9.822  26.880   8.855
 7970POPC   C1A32475   9.748  26.822   8.555
 7970POPC   D2A32476   9.773  26.778   8.255
 7970POPC   C3A32477   9.777  26.799   7.955
 7970POPC   C4A32478   9.711  26.849   7.655
 7970POPC   C1B32479  10.009  26.853   8.555
 7970POPC   C2B32480  10.001  26.882   8.255
 7970POPC   C3B32481  10.014  26.885   7.955
 7970POPC   C4B32482   9.957  26.831   7.655
 7971POPC   NC332483  12.902  12.890   9.455
 7971POPC   PO432484  12.829  12.880   9.155
 7971POPC   GL132485  12.876  12.871   8.855
 7971POPC   GL232486  12.952  12.877   8.855
 7971POPC   C1A32487  12.883  12.835   8.555
 7971POPC   D2A32488  12.887  12.886   8.255
 7971POPC   C3A32489  12.855  12.882   7.955
 7971POPC   C4A32490  12.813  12.813   7.655
 7971POPC   C1B32491  13.026  12.987   8.555
 7971POPC   C2B32492  13.032  12.917   8.255
 7971POPC   C3B32493  13.104  12.973   7.955
 7971POPC   C4B32494  13.083  12.990   7.655
 7972POPC   NC332495  33.844  18.327   9.455
 7972POPC   PO432496  33.773  18.324   9.155
 7972POPC   GL132497  33.814  18.276   8.855
 7972POPC   GL232498  33.887  18.280   8.855
 7972POPC   C1A32499  33.777  18.303   8.555
 7972POPC   D2A32500  33.832  18.260   8.255
 7972POPC   C3A32501  33.759  18.329   7.955
 7972POPC   C4A32502  33.824  18.241   7.655
 7972POPC   C1B32503  34.009  18.184   8.555
 7972POPC   C2B32504  34.001  18.212   8.255
 7972POPC   C3B32505  33.994  18.264   7.955
 7972POPC   C4B32506  34.016  18.212   7.655
 7973POPC   NC332507  43.926  33.061   9.455
 7973POPC   PO432508  43.904  33.034   9.155
 7973POPC   GL132509  43.844  33.054   8.855
 7973POPC   GL232510  43.829  33.180   8.855
 7973POPC   C1A32511  43.865  32.980   8.555
 7973POPC   D2A32512  43.934  33.004   8.255
 7973POPC   C3A32513  43.841  32.984   7.955
 7973POPC   C4A32514  43.874  33.031   7.655
 7973POPC   C1B32515  43.724  33.277   8.555
 7973POPC   C2B32516  43.740  33.262   8.255
 7973POPC   C3B32517  43.736  33.253   7.955
 7973POPC   C4B32518  43.767  33.292   7.655
 7974POPC   NC332519   7.390  29.193   9.455
 7974POPC   PO432520   7.434  29.165   9.155
 7974POPC   GL132521   7.413  29.139   8.855
 7974POPC   GL232522   7.503  29.175   8.855
 7974POPC   C1A32523   7.447  29.121   8.555
 7974POPC   D2A32524   7.376  29.119   8.255
 7974POPC   C3A32525   7.449  29.118   7.955
 7974POPC   C4A32526   7.403  29.173   7.655
 7974POPC   C1B32527   7.619  29.249   8.555
 7974POPC   C2B32528   7.650  29.170   8.255
 7974POPC   C3B32529   7.619  29.208   7.955
 7974POPC   C4B32530   7.617  29.205   7.655
 7975POPC   NC332531  26.031  40.011   9.455
 7975POPC   PO432532  26.085  40.003   9.155
 7975POPC   GL132533  26.055  39.998   8.855
 7975POPC   GL232534  26.022  39.858   8.855
 7975POPC   C1A32535  26.006  40.032   8.555
 7975POPC   D2A32536  26.071  39.991   8.255
 7975POPC   C3A32537  26.049  39.962   7.955
 7975POPC   C4A32538  25.992  39.997   7.655
 7975POPC   C1B32539  26.003  39.804   8.555
 7975POPC   C2B32540  25.988  39.811   8.255
 7975POPC   C3B32541  25.999  39.774   7.955
 7975POPC   C4B32542  25.981  39.798   7.655
 7976POPC   NC332543   1.949  15.135   9.455
 7976POPC   PO432544   2.038  15.143   9.155
 7976POPC   GL132545   2.006  15.193   8.855
 7976POPC   GL232546   1.945  15.331   8.855
 7976POPC   C1A32547   1.996  15.225   8.555
 7976POPC   D2A32548   2.011  15.208   8.255
 7976POPC   C3A32549   2.002  15.216   7.955
 7976POPC   C4A32550   1.999  15.152   7.655
 7976POPC   C1B32551   1.995  15.411   8.555
 7976POPC   C2B32552   1.934  15.418   8.255
 7976POPC   C3B32553   1.925  15.415   7.955
 7976POPC   C4B32554   2.007  15.395   7.655
 7977POPC   NC332555   0.463  16.749   9.455
 7977POPC   PO432556   0.477  16.766   9.155
 7977POPC   GL132557   0.447  16.755   8.855
 7977POPC   GL232558   0.539  16.860   8.855
 7977POPC   C1A32559   0.467  16.743   8.555
 7977POPC   D2A32560   0.463  16.685   8.255
 7977POPC   C3A32561   0.486  16.727   7.955
 7977POPC   C4A32562   0.483  16.700   7.655
 7977POPC   C1B32563   0.583  16.856   8.555
 7977POPC   C2B32564   0.658  16.922   8.255
 7977POPC   C3B32565   0.570  16.944   7.955
 7977POPC   C4B32566   0.585  16.915   7.655
 7978POPC   NC332567   6.688  19.796   9.455
 7978POPC   PO432568   6.601  19.791   9.155
 7978POPC   GL132569   6.681  19.862   8.855
 7978POPC   GL232570   6.772  19.820   8.855
 7978POPC   C1A32571   6.630  19.862   8.555
 7978POPC   D2A32572   6.683  19.883   8.255
 7978POPC   C3A32573   6.669  19.807   7.955
 7978POPC   C4A32574   6.605  19.794   7.655
 7978POPC   C1B32575   6.902  19.829   8.555
 7978POPC   C2B32576   6.905  19.794   8.255
 7978POPC   C3B32577   6.930  19.838   7.955
 7978POPC   C4B32578   6.889  19.785   7.655
 7979POPC   NC332579   8.223  23.715   9.455
 7979POPC   PO432580   8.196  23.734   9.155
 7979POPC   GL132581   8.212  23.690   8.855
 7979POPC   GL232582   8.318  23.822   8.855
 7979POPC   C1A32583   8.223  23.763   8.555
 7979POPC   D2A32584   8.166  23.741   8.255
 7979POPC   C3A32585   8.239  23.696   7.955
 7979POPC   C4A32586   8.190  23.703   7.655
 7979POPC   C1B32587   8.369  23.849   8.555
 7979POPC   C2B32588   8.385  23.920   8.255
 7979POPC   C3B32589   8.356  23.841   7.955
 7979POPC   C4B32590   8.379  23.891   7.655
 7980POPC   NC332591  18.322  44.624   9.455
 7980POPC   PO432592  18.327  44.657   9.155
 7980POPC   GL132593  18.321  44.709   8.855
 7980POPC   GL232594  18.194  44.750   8.855
 7980POPC   C1A32595  18.331  44.645   8.555
 7980POPC   D2A32596  18.290  44.640   8.255
 7980POPC   C3A32597  18.233  44.617   7.955
 7980POPC   C4A32598  18.244  44.707   7.655
 7980POPC   C1B32599  18.222  44.876   8.555
 7980POPC   C2B32600  18.201  44.863   8.255
 7980POPC   C3B32601  18.205  44.943   7.955
 7980POPC   C4B32602  18.224  44.888   7.655
 7981POPC   NC332603   2.760  18.246   9.455
 7981POPC   PO432604   2.813  18.262   9.155
 7981POPC   GL132605   2.770  18.276   8.855
 7981POPC   GL232606   2.615  18.304   8.855
 7981POPC   C1A32607   2.748  18.245   8.555
 7981POPC   D2A32608   2.743  18.315   8.255
 7981POPC   C3A32609   2.806  18.310   7.955
 7981POPC   C4A32610   2.777  18.236   7.655
 7981POPC   C1B32611   2.558  18.224   8.555
 7981POPC   C2B32612   2.477  18.220   8.255
 7981POPC   C3B32613   2.528  18.263   7.955
 7981POPC   C4B32614   2.479  18.239   7.655
 7982POPC   NC332615  42.299  10.541   9.455
 7982POPC   PO432616  42.298  10.502   9.155
 7982POPC   GL132617  42.372  10.477   8.855
 7982POPC   GL232618  42.219  10.616   8.855
 7982POPC   C1A32619  42.329  10.488   8.555
 7982POPC   D2A32620  42.349  10.496   8.255
 7982POPC   C3A32621  42.305  10.476   7.955
 7982POPC   C4A32622  42.302  10.547   7.655
 7982POPC   C1B32623  42.203  10.732   8.555
 7982POPC   C2B32624  42.144  10.737   8.255
 7982POPC   C3B32625  42.172  10.741   7.955
 7982POPC   C4B32626  42.171  10.711   7.655
 7983POPC   NC332627  10.539  17.472   9.455
 7983POPC   PO432628  10.550  17.487   9.155
 7983POPC   GL132629  10.511  17.531   8.855
 7983POPC   GL232630  10.683  17.462   8.855
 7983POPC   C1A32631  10.479  17.529   8.555
 7983POPC   D2A32632  10.510  17.470   8.255
 7983POPC   C3A32633  10.567  17.480   7.955
 7983POPC   C4A32634  10.550  17.549   7.655
 7983POPC   C1B32635  10.768  17.492   8.555
 7983POPC   C2B32636  10.808  17.491   8.255
 7983POPC   C3B32637  10.757  17.488   7.955
 7983POPC   C4B32638  10.773  17.508   7.655
 7984POPC   NC332639  10.571  16.769   9.455
 7984POPC   PO432640  10.566  16.762   9.155
 7984POPC   GL132641  10.511  16.764   8.855
 7984POPC   GL232642  10.474  16.639   8.855
 7984POPC   C1A32643  10.523  16.696   8.555
 7984POPC   D2A32644  10.565  16.736   8.255
 7984POPC   C3A32645  10.524  16.761   7.955
 7984POPC   C4A32646  10.562  16.702   7.655
 7984POPC   C1B32647  10.437  16.549   8.555
 7984POPC   C2B32648  10.389  16.510   8.255
 7984POPC   C3B32649  10.433  16.541   7.955
 7984POPC   C4B32650  10.391  16.491   7.655
 7985POPC   NC332651  22.916   2.812   9.455
 7985POPC   PO432652  22.956   2.764   9.155
 7985POPC   GL132653  22.945   2.736   8.855
 7985POPC   GL232654  22.900   2.856   8.855
 7985POPC   C1A32655  22.973   2.719   8.555
 7985POPC   D2A32656  22.943   2.801   8.255
 7985POPC   C3A32657  22.955   2.749   7.955
 7985POPC   C4A32658  22.962   2.719   7.655
 7985POPC   C1B32659  22.879   3.021   8.555
 7985POPC   C2B32660  22.815   2.988   8.255
 7985POPC   C3B32661  22.873   3.032   7.955
 7985POPC   C4B32662  22.905   3.047   7.655
 7986POPC   NC332663  29.182  21.379   9.455
 7986POPC   PO432664  29.131  21.406   9.155
 7986POPC   GL132665  29.194  21.392   8.855
 7986POPC   GL232666  29.246  21.246   8.855
 7986POPC   C1A32667  29.149  21.433   8.555
 7986POPC   D2A32668  29.118  21.428   8.255
 7986POPC   C3A32669  29.143  21.338   7.955
 7986POPC   C4A32670  29.162  21.408   7.655
 7986POPC   C1B32671  29.283  21.168   8.555
 7986POPC   C2B32672  29.296  21.224   8.255
 7986POPC   C3B32673  29.281  21.219   7.955
 7986POPC   C4B32674  29.341  21.166   7.655
 7987POPC   NC332675  41.572  11.296   9.455
 7987POPC   PO432676  41.546  11.284   9.155
 7987POPC   GL132677  41.522  11.337   8.855
 7987POPC   GL232678  41.504  11.448   8.855
 7987POPC   C1A32679  41.538  11.252   8.555
 7987POPC   D2A32680  41.584  11.269   8.255
 7987POPC   C3A32681  41.599  11.268   7.955
 7987POPC   C4A32682  41.569  11.334   7.655
 7987POPC   C1B32683  41.387  11.464   8.555
 7987POPC   C2B32684  41.455  11.469   8.255
 7987POPC   C3B32685  41.444  11.500   7.955
 7987POPC   C4B32686  41.426  11.534   7.655
 7988POPC   NC332687  43.109   5.055   9.455
 7988POPC   PO432688  43.126   5.121   9.155
 7988POPC   GL132689  43.148   5.065   8.855
 7988POPC   GL232690  43.033   5.003   8.855
 7988POPC   C1A32691  43.149   5.105   8.555
 7988POPC   D2A32692  43.133   5.112   8.255
 7988POPC   C3A32693  43.139   5.110   7.955
 7988POPC   C4A32694  43.078   5.130   7.655
 7988POPC   C1B32695  43.015   4.833   8.555
 7988POPC   C2B32696  43.007   4.854   8.255
 7988POPC   C3B32697  42.998   4.831   7.955
 7988POPC   C4B32698  42.969   4.912   7.655
 7989POPC   NC332699  15.948  11.287   9.455
 7989POPC   PO432700  15.987  11.338   9.155
 7989POPC   GL132701  15.962  11.308   8.855
 7989POPC   GL232702  15.979  11.134   8.855
 7989POPC   C1A32703  15.946  11.320   8.555
 7989POPC   D2A32704  15.917  11.250   8.255
 7989POPC   C3A32705  15.980  11.272   7.955
 7989POPC   C4A32706  15.922  11.315   7.655
 7989POPC   C1B32707  16.043  11.040   8.555
 7989POPC   C2B32708  16.048  11.021   8.255
 7989POPC   C3B32709  16.035  11.068   7.955
 7989POPC   C4B32710  16.057  11.054   7.655
 7990POPC   NC332711  32.251  40.037   9.455
 7990POPC   PO432712  32.199  40.020   9.155
 7990POPC   GL132713  32.211  40.039   8.855
 7990POPC   GL232714  32.221  40.147   8.855
 7990POPC   C1A32715  32.294  40.035   8.555
 7990POPC   D2A32716  32.232  40.042   8.255
 7990POPC   C3A32717  32.198  40.007   7.955
 7990POPC   C4A32718  32.260  39.992   7.655
 7990POPC   C1B32719  32.202  40.259   8.555
 7990POPC   C2B32720  32.165  40.270   8.255
 7990POPC   C3B32721  32.153  40.267   7.955
 7990POPC   C4B32722  32.191  40.286   7.655
 7991POPC   NC332723  30.746  29.112   9.455
 7991POPC   PO432724  30.685  29.149   9.155
 7991POPC   GL132725  30.711  29.136   8.855
 7991POPC   GL232726  30.710  29.008   8.855
 7991POPC   C1A32727  30.723  29.109   8.555
 7991POPC   D2A32728  30.731  29.147   8.255
 7991POPC   C3A32729  30.701  29.151   7.955
 7991POPC   C4A32730  30.650  29.116   7.655
 7991POPC   C1B32731  30.749  28.945   8.555
 7991POPC   C2B32732  30.767  28.889   8.255
 7991POPC   C3B32733  30.788  28.878   7.955
 7991POPC   C4B32734  30.803  28.944   7.655
 7992POPC   NC332735  41.525  40.756   9.455
 7992POPC   PO432736  41.547  40.753   9.155
 7992POPC   GL132737  41.554  40.770   8.855
 7992POPC   GL232738  41.642  40.685   8.855
 7992POPC   C1A32739  41.580  40.820   8.555
 7992POPC   D2A32740  41.566  40.824   8.255
 7992POPC   C3A32741  41.551  40.763   7.955
 7992POPC   C4A32742  41.529  40.766   7.655
 7992POPC   C1B32743  41.776  40.612   8.555
 7992POPC   C2B32744  41.734  40.598   8.255
 7992POPC   C3B32745  41.738  40.563   7.955
 7992POPC   C4B32746  41.706  40.599   7.655
 7993POPC   NC332747  37.648  21.348   9.455
 7993POPC   PO432748  37.695  21.350   9.155
 7993POPC   GL132749  37.712  21.397   8.855
 7993POPC   GL232750  37.753  21.366   8.855
 7993POPC   C1A32751  37.641  21.339   8.555
 7993POPC   D2A32752  37.687  21.348   8.255
 7993POPC   C3A32753  37.683  21.347   7.955
 7993POPC   C4A32754  37.694  21.424   7.655
 7993POPC   C1B32755  37.945  21.327   8.555
 7993POPC   C2B32756  37.890  21.344   8.255
 7993POPC   C3B32757  37.892  21.309   7.955
 7993POPC   C4B32758  37.871  21.315   7.655
 7994POPC   NC332759  16.711   1.248   9.455
 7994POPC   PO432760  16.718   1.229   9.155
 7994POPC   GL132761  16.726   1.170   8.855
 7994POPC   GL232762  16.857   1.256   8.855
 7994POPC   C1A32763  16.754   1.253   8.555
 7994POPC   D2A32764  16.712   1.263   8.255
 7994POPC   C3A32765  16.761   1.182   7.955
 7994POPC   C4A32766  16.722   1.226   7.655
 7994POPC   C1B32767  16.930   1.298   8.555
 7994POPC   C2B32768  16.966   1.380   8.255
 7994POPC   C3B32769  16.938   1.334   7.955
 7994POPC   C4B32770  16.931   1.349   7.655
 7995POPC   NC332771  28.366  12.062   9.455
 7995POPC   PO432772  28.391  12.046   9.155
 7995POPC   GL132773  28.325  12.041   8.855
 7995POPC   GL232774  28.483  12.081   8.855
 7995POPC   C1A32775  28.356  12.109   8.555
 7995POPC   D2A32776  28.356  12.098   8.255
 7995POPC   C3A32777  28.410  12.056   7.955
 7995POPC   C4A32778  28.351  12.113   7.655
 7995POPC   C1B32779  28.646  12.039   8.555
 7995POPC   C2B32780  28.578  12.056   8.255
 7995POPC   C3B32781  28.666  12.115   7.955
 7995POPC   C4B32782  28.579  12.134   7.655
 7996POPC   NC332783  44.628  12.831   9.455
 7996POPC   PO432784  44.654  12.895   9.155
 7996POPC   GL132785  44.620  12.884   8.855
 7996POPC   GL232786  44.553  12.986   8.855
 7996POPC   C1A32787  44.687  12.827   8.555
 7996POPC   D2A32788  44.681  12.834   8.255
 7996POPC   C3A32789  44.700  12.802   7.955
 7996POPC   C4A32790  44.663  12.811   7.655
 7996POPC   C1B32791  44.482  13.007   8.555
 7996POPC   C2B32792  44.530  13.015   8.255
 7996POPC   C3B32793  44.478  13.010   7.955
 7996POPC   C4B32794  44.472  13.094   7.655
 7997POPC   NC332795  12.064  24.521   9.455
 7997POPC   PO432796  12.041  24.486   9.155
 7997POPC   GL132797  12.054  24.466   8.855
 7997POPC   GL232798  12.195  24.558   8.855
 7997POPC   C1A32799  12.090  24.513   8.555
 7997POPC   D2A32800  12.059  24.538   8.255
 7997POPC   C3A32801  12.032  24.532   7.955
 7997POPC   C4A32802  12.124  24.447   7.655
 7997POPC   C1B32803  12.358  24.545   8.555
 7997POPC   C2B32804  12.279  24.596   8.255
 7997POPC   C3B32805  12.280  24.558   7.955
 7997POPC   C4B32806  12.270  24.595   7.655
 7998POPC   NC332807  39.222  29.117   9.455
 7998POPC   PO432808  39.265  29.132   9.155
 7998POPC   GL132809  39.270  29.102   8.855
 7998POPC   GL232810  39.247  29.312   8.855
 7998POPC   C1A32811  39.228  29.147   8.555
 7998POPC   D2A32812  39.221  29.191   8.255
 7998POPC   C3A32813  39.280  29.185   7.955
 7998POPC   C4A32814  39.236  29.181   7.655
 7998POPC   C1B32815  39.278  29.394   8.555
 7998POPC   C2B32816  39.301  29.437   8.255
 7998POPC   C3B32817  39.261  29.402   7.955
 7998POPC   C4B32818  39.275  29.379   7.655
 7999POPC   NC332819  19.082   5.845   9.455
 7999POPC   PO432820  19.053   5.890   9.155
 7999POPC   GL132821  19.055   5.887   8.855
 7999POPC   GL232822  18.969   5.851   8.855
 7999POPC   C1A32823  19.073   5.906   8.555
 7999POPC   D2A32824  19.016   5.876   8.255
 7999POPC   C3A32825  19.058   5.919   7.955
 7999POPC   C4A32826  19.067   5.864   7.655
 7999POPC   C1B32827  18.823   5.854   8.555
 7999POPC   C2B32828  18.799   5.905   8.255
 7999POPC   C3B32829  18.816   5.853   7.955
 7999POPC   C4B32830  18.783   5.917   7.655
 8000POPC   NC332831   2.796  30.721   9.455
 8000POPC   PO432832   2.793  30.722   9.155
 8000POPC   GL132833   2.736  30.724   8.855
 8000POPC   GL232834   2.707  30.549   8.855
 8000POPC   C1A32835   2.789  30.689   8.555
 8000POPC   D2A32836   2.780  30.657   8.255
 8000POPC   C3A32837   2.731  30.731   7.955
 8000POPC   C4A32838   2.784  30.657   7.655
 8000POPC   C1B32839   2.662  30.493   8.555
 8000POPC   C2B32840   2.686  30.438   8.255
 8000POPC   C3B32841   2.609  30.512   7.955
 8000POPC   C4B32842   2.684  30.486   7.655
 8001POPC   NC332843  23.736   8.220   9.455
 8001POPC   PO432844  23.707   8.170   9.155
 8001POPC   GL132845  23.720   8.209   8.855
 8001POPC   GL232846  23.702   8.321   8.855
 8001POPC   C1A32847  23.720   8.188   8.555
 8001POPC   D2A32848  23.709   8.242   8.255
 8001POPC   C3A32849  23.711   8.150   7.955
 8001POPC   C4A32850  23.739   8.164   7.655
 8001POPC   C1B32851  23.658   8.415   8.555
 8001POPC   C2B32852  23.613   8.449   8.255
 8001POPC   C3B32853  23.633   8.447   7.955
 8001POPC   C4B32854  23.685   8.437   7.655
 8002POPC   NC332855  26.073  26.004   9.455
 8002POPC   PO432856  26.091  26.078   9.155
 8002POPC   GL132857  26.089  26.012   8.855
 8002POPC   GL232858  26.132  26.146   8.855
 8002POPC   C1A32859  25.993  26.082   8.555
 8002POPC   D2A32860  26.073  26.082   8.255
 8002POPC   C3A32861  26.057  26.007   7.955
 8002POPC   C4A32862  26.020  26.072   7.655
 8002POPC   C1B32863  26.183  26.172   8.555
 8002POPC   C2B32864  26.188  26.207   8.255
 8002POPC   C3B32865  26.268  26.215   7.955
 8002POPC   C4B32866  26.231  26.247   7.655
 8003POPC   NC332867  36.101   1.977   9.455
 8003POPC   PO432868  36.149   2.020   9.155
 8003POPC   GL132869  36.166   1.988   8.855
 8003POPC   GL232870  36.138   1.824   8.855
 8003POPC   C1A32871  36.155   1.972   8.555
 8003POPC   D2A32872  36.168   1.994   8.255
 8003POPC   C3A32873  36.078   1.976   7.955
 8003POPC   C4A32874  36.093   2.027   7.655
 8003POPC   C1B32875  36.143   1.773   8.555
 8003POPC   C2B32876  36.128   1.752   8.255
 8003POPC   C3B32877  36.202   1.735   7.955
 8003POPC   C4B32878  36.211   1.708   7.655
 8004POPC   NC332879   2.812  19.048   9.455
 8004POPC   PO432880   2.755  19.080   9.155
 8004POPC   GL132881   2.728  19.104   8.855
 8004POPC   GL232882   2.736  18.974   8.855
 8004POPC   C1A32883   2.792  19.083   8.555
 8004POPC   D2A32884   2.796  19.015   8.255
 8004POPC   C3A32885   2.784  19.049   7.955
 8004POPC   C4A32886   2.736  19.093   7.655
 8004POPC   C1B32887   2.740  18.803   8.555
 8004POPC   C2B32888   2.720  18.775   8.255
 8004POPC   C3B32889   2.760  18.808   7.955
 8004POPC   C4B32890   2.783  18.789   7.655
 8005POPC   NC332891  24.495  37.686   9.455
 8005POPC   PO432892  24.510  37.684   9.155
 8005POPC   GL132893  24.463  37.677   8.855
 8005POPC   GL232894  24.399  37.711   8.855
 8005POPC   C1A32895  24.442  37.640   8.555
 8005POPC   D2A32896  24.498  37.662   8.255
 8005POPC   C3A32897  24.464  37.711   7.955
 8005POPC   C4A32898  24.476  37.663   7.655
 8005POPC   C1B32899  24.217  37.755   8.555
 8005POPC   C2B32900  24.210  37.710   8.255
 8005POPC   C3B32901  24.222  37.737   7.955
 8005POPC   C4B32902  24.247  37.749   7.655
 8006POPC   NC332903  19.030  33.005   9.455
 8006POPC   PO432904  19.073  32.996   9.155
 8006POPC   GL132905  19.073  33.028   8.855
 8006POPC   GL232906  19.175  32.894   8.855
 8006POPC   C1A32907  19.025  33.023   8.555
 8006POPC   D2A32908  19.034  33.049   8.255
 8006POPC   C3A32909  19.061  33.047   7.955
 8006POPC   C4A32910  19.012  32.982   7.655
 8006POPC   C1B32911  19.262  32.820   8.555
 8006POPC   C2B32912  19.202  32.888   8.255
 8006POPC   C3B32913  19.241  32.852   7.955
 8006POPC   C4B32914  19.282  32.857   7.655
 8007POPC   NC332915   4.316  16.700   9.455
 8007POPC   PO432916   4.360  16.707   9.155
 8007POPC   GL132917   4.353  16.700   8.855
 8007POPC   GL232918   4.198  16.819   8.855
 8007POPC   C1A32919   4.336  16.776   8.555
 8007POPC   D2A32920   4.275  16.719   8.255
 8007POPC   C3A32921   4.341  16.703   7.955
 8007POPC   C4A32922   4.341  16.689   7.655
 8007POPC   C1B32923   4.157  16.899   8.555
 8007POPC   C2B32924   4.077  16.910   8.255
 8007POPC   C3B32925   4.139  16.929   7.955
 8007POPC   C4B32926   4.077  16.876   7.655
 8008POPC   NC332927   8.209  25.258   9.455
 8008POPC   PO432928   8.166  25.236   9.155
 8008POPC   GL132929   8.246  25.287   8.855
 8008POPC   GL232930   8.084  25.320   8.855
 8008POPC   C1A32931   8.218  25.256   8.555
 8008POPC   D2A32932   8.242  25.286   8.255
 8008POPC   C3A32933   8.178  25.311   7.955
 8008POPC   C4A32934   8.189  25.258   7.655
 8008POPC   C1B32935   7.966  25.350   8.555
 8008POPC   C2B32936   7.984  25.374   8.255
 8008POPC   C3B32937   7.944  25.349   7.955
 8008POPC   C4B32938   7.934  25.421   7.655
 8009POPC   NC332939   0.468  38.439   9.455
 8009POPC   PO432940   0.430  38.478   9.155
 8009POPC   GL132941   0.462  38.484   8.855
 8009POPC   GL232942   0.326  38.499   8.855
 8009POPC   C1A32943   0.445  38.445   8.555
 8009POPC   D2A32944   0.420  38.438   8.255
 8009POPC   C3A32945   0.459  38.482   7.955
 8009POPC   C4A32946   0.454  38.468   7.655
 8009POPC   C1B32947   0.183  38.501   8.555
 8009POPC   C2B32948   0.244  38.552   8.255
 8009POPC   C3B32949   0.250  38.578   7.955
 8009POPC   C4B32950   0.174  38.587   7.655
 8010POPC   NC332951  36.920  27.609   9.455
 8010POPC   PO432952  36.855  27.637   9.155
 8010POPC   GL132953  36.895  27.565   8.855
 8010POPC   GL232954  37.006  27.688   8.855
 8010POPC   C1A32955  36.860  27.560   8.555
 8010POPC   D2A32956  36.942  27.637   8.255
 8010POPC   C3A32957  36.896  27.626   7.955
 8010POPC   C4A32958  36.859  27.551   7.655
 8010POPC   C1B32959  37.143  27.662   8.555
 8010POPC   C2B32960  37.171  27.732   8.255
 8010POPC   C3B32961  37.173  27.720   7.955
 8010POPC   C4B32962  37.170  27.687   7.655
 8011POPC   NC332963   0.468  34.589   9.455
 8011POPC   PO432964   0.464  34.615   9.155
 8011POPC   GL132965   0.447  34.569   8.855
 8011POPC   GL232966   0.322  34.664   8.855
 8011POPC   C1A32967   0.404  34.623   8.555
 8011POPC   D2A32968   0.481  34.616   8.255
 8011POPC   C3A32969   0.477  34.573   7.955
 8011POPC   C4A32970   0.416  34.536   7.655
 8011POPC   C1B32971   0.215  34.744   8.555
 8011POPC   C2B32972   0.250  34.690   8.255
 8011POPC   C3B32973   0.192  34.690   7.955
 8011POPC   C4B32974   0.270  34.679   7.655
 8012POPC   NC332975  26.053  15.168   9.455
 8012POPC   PO432976  26.049  15.211   9.155
 8012POPC   GL132977  26.008  15.155   8.855
 8012POPC   GL232978  25.987  15.105   8.855
 8012POPC   C1A32979  26.086  15.182   8.555
 8012POPC   D2A32980  26.027  15.130   8.255
 8012POPC   C3A32981  26.069  15.163   7.955
 8012POPC   C4A32982  26.017  15.197   7.655
 8012POPC   C1B32983  26.032  14.901   8.555
 8012POPC   C2B32984  25.986  14.983   8.255
 8012POPC   C3B32985  25.976  14.909   7.955
 8012POPC   C4B32986  26.029  14.894   7.655
 8013POPC   NC332987  28.405   6.615   9.455
 8013POPC   PO432988  28.373   6.675   9.155
 8013POPC   GL132989  28.402   6.670   8.855
 8013POPC   GL232990  28.431   6.501   8.855
 8013POPC   C1A32991  28.414   6.694   8.555
 8013POPC   D2A32992  28.341   6.638   8.255
 8013POPC   C3A32993  28.418   6.602   7.955
 8013POPC   C4A32994  28.337   6.672   7.655
 8013POPC   C1B32995  28.456   6.444   8.555
 8013POPC   C2B32996  28.476   6.402   8.255
 8013POPC   C3B32997  28.477   6.403   7.955
 8013POPC   C4B32998  28.511   6.382   7.655
 8014POPC   NC332999   3.545   8.157   9.455
 8014POPC   PO433000   3.525   8.186   9.155
 8014POPC   GL133001   3.588   8.200   8.855
 8014POPC   GL233002   3.715   8.258   8.855
 8014POPC   C1A33003   3.515   8.209   8.555
 8014POPC   D2A33004   3.550   8.158   8.255
 8014POPC   C3A33005   3.524   8.200   7.955
 8014POPC   C4A33006   3.559   8.157   7.655
 8014POPC   C1B33007   3.786   8.265   8.555
 8014POPC   C2B33008   3.744   8.213   8.255
 8014POPC   C3B33009   3.816   8.173   7.955
 8014POPC   C4B33010   3.831   8.202   7.655
 8015POPC   NC333011   7.419  24.447   9.455
 8015POPC   PO433012   7.381  24.505   9.155
 8015POPC   GL133013   7.390  24.499   8.855
 8015POPC   GL233014   7.504  24.380   8.855
 8015POPC   C1A33015   7.375  24.519   8.555
 8015POPC   D2A33016   7.377  24.484   8.255
 8015POPC   C3A33017   7.442  24.510   7.955
 8015POPC   C4A33018   7.371  24.529   7.655
 8015POPC   C1B33019   7.596  24.381   8.555
 8015POPC   C2B33020   7.663  24.320   8.255
 8015POPC   C3B33021   7.629  24.339   7.955
 8015POPC   C4B33022   7.590  24.322   7.655
 8016POPC   NC333023  19.880  30.663   9.455
 8016POPC   PO433024  19.828  30.725   9.155
 8016POPC   GL133025  19.818  30.734   8.855
 8016POPC   GL233026  19.711  30.772   8.855
 8016POPC   C1A33027  19.791  30.694   8.555
 8016POPC   D2A33028  19.827  30.648   8.255
 8016POPC   C3A33029  19.883  30.724   7.955
 8016POPC   C4A33030  19.873  30.716   7.655
 8016POPC   C1B33031  19.558  30.759   8.555
 8016POPC   C2B33032  19.639  30.783   8.255
 8016POPC   C3B33033  19.585  30.768   7.955
 8016POPC   C4B33034  19.625  30.824   7.655
 8017POPC   NC333035   1.953   2.017   9.455
 8017POPC   PO433036   2.022   2.012   9.155
 8017POPC   GL133037   1.995   1.997   8.855
 8017POPC   GL233038   2.078   2.072   8.855
 8017POPC   C1A33039   2.025   1.996   8.555
 8017POPC   D2A33040   1.981   2.031   8.255
 8017POPC   C3A33041   1.940   1.988   7.955
 8017POPC   C4A33042   1.940   1.957   7.655
 8017POPC   C1B33043   2.190   2.184   8.555
 8017POPC   C2B33044   2.129   2.194   8.255
 8017POPC   C3B33045   2.170   2.146   7.955
 8017POPC   C4B33046   2.174   2.184   7.655
 8018POPC   NC333047  35.345  21.382   9.455
 8018POPC   PO433048  35.366  21.423   9.155
 8018POPC   GL133049  35.318  21.342   8.855
 8018POPC   GL233050  35.308  21.475   8.855
 8018POPC   C1A33051  35.383  21.375   8.555
 8018POPC   D2A33052  35.308  21.409   8.255
 8018POPC   C3A33053  35.351  21.423   7.955
 8018POPC   C4A33054  35.368  21.365   7.655
 8018POPC   C1B33055  35.174  21.602   8.555
 8018POPC   C2B33056  35.254  21.636   8.255
 8018POPC   C3B33057  35.233  21.578   7.955
 8018POPC   C4B33058  35.261  21.570   7.655
 8019POPC   NC333059  19.876  36.912   9.455
 8019POPC   PO433060  19.856  36.946   9.155
 8019POPC   GL133061  19.785  36.897   8.855
 8019POPC   GL233062  19.779  36.961   8.855
 8019POPC   C1A33063  19.864  36.860   8.555
 8019POPC   D2A33064  19.856  36.903   8.255
 8019POPC   C3A33065  19.827  36.880   7.955
 8019POPC   C4A33066  19.831  36.898   7.655
 8019POPC   C1B33067  19.677  37.047   8.555
 8019POPC   C2B33068  19.623  37.084   8.255
 8019POPC   C3B33069  19.653  37.027   7.955
 8019POPC   C4B33070  19.598  37.119   7.655
 8020POPC   NC333071  33.035  20.631   9.455
 8020POPC   PO433072  33.055  20.654   9.155
 8020POPC   GL133073  32.994  20.621   8.855
 8020POPC   GL233074  32.876  20.520   8.855
 8020POPC   C1A33075  33.018  20.641   8.555
 8020POPC   D2A33076  33.010  20.571   8.255
 8020POPC   C3A33077  33.004  20.596   7.955
 8020POPC   C4A33078  33.041  20.597   7.655
 8020POPC   C1B33079  32.799  20.479   8.555
 8020POPC   C2B33080  32.859  20.433   8.255
 8020POPC   C3B33081  32.823  20.429   7.955
 8020POPC   C4B33082  32.828  20.505   7.655
 8021POPC   NC333083  18.261  38.418   9.455
 8021POPC   PO433084  18.310  38.437   9.155
 8021POPC   GL133085  18.289  38.433   8.855
 8021POPC   GL233086  18.225  38.318   8.855
 8021POPC   C1A33087  18.265  38.473   8.555
 8021POPC   D2A33088  18.256  38.434   8.255
 8021POPC   C3A33089  18.267  38.499   7.955
 8021POPC   C4A33090  18.317  38.457   7.655
 8021POPC   C1B33091  18.192  38.271   8.555
 8021POPC   C2B33092  18.144  38.274   8.255
 8021POPC   C3B33093  18.202  38.206   7.955
 8021POPC   C4B33094  18.212  38.256   7.655
 8022POPC   NC333095  24.460   8.952   9.455
 8022POPC   PO433096  24.462   8.973   9.155
 8022POPC   GL133097  24.443   9.022   8.855
 8022POPC   GL233098  24.570   8.987   8.855
 8022POPC   C1A33099  24.462   9.021   8.555
 8022POPC   D2A33100  24.524   9.010   8.255
 8022POPC   C3A33101  24.465   8.957   7.955
 8022POPC   C4A33102  24.509   8.946   7.655
 8022POPC   C1B33103  24.703   8.983   8.555
 8022POPC   C2B33104  24.756   9.064   8.255
 8022POPC   C3B33105  24.777   8.984   7.955
 8022POPC   C4B33106  24.770   9.051   7.655
 8023POPC   NC333107  22.181  28.418   9.455
 8023POPC   PO433108  22.163  28.356   9.155
 8023POPC   GL133109  22.177  28.363   8.855
 8023POPC   GL233110  22.310  28.356   8.855
 8023POPC   C1A33111  22.211  28.336   8.555
 8023POPC   D2A33112  22.141  28.339   8.255
 8023POPC   C3A33113  22.212  28.374   7.955
 8023POPC   C4A33114  22.141  28.401   7.655
 8023POPC   C1B33115  22.448  28.408   8.555
 8023POPC   C2B33116  22.424  28.328   8.255
 8023POPC   C3B33117  22.396  28.375   7.955
 8023POPC   C4B33118  22.431  28.348   7.655
 8024POPC   NC333119   1.977  40.758   9.455
 8024POPC   PO433120   1.995  40.760   9.155
 8024POPC   GL133121   1.962  40.790   8.855
 8024POPC   GL233122   2.090  40.925   8.855
 8024POPC   C1A33123   1.976  40.779   8.555
 8024POPC   D2A33124   1.957  40.754   8.255
 8024POPC   C3A33125   1.958  40.822   7.955
 8024POPC   C4A33126   1.962  40.745   7.655
 8024POPC   C1B33127   2.135  40.987   8.555
 8024POPC   C2B33128   2.145  40.988   8.255
 8024POPC   C3B33129   2.081  41.051   7.955
 8024POPC   C4B33130   2.118  40.959   7.655
 8025POPC   NC333131  43.089   0.419   9.455
 8025POPC   PO433132  43.117   0.440   9.155
 8025POPC   GL133133  43.124   0.416   8.855
 8025POPC   GL233134  43.006   0.374   8.855
 8025POPC   C1A33135  43.128   0.470   8.555
 8025POPC   D2A33136  43.112   0.400   8.255
 8025POPC   C3A33137  43.094   0.413   7.955
 8025POPC   C4A33138  43.092   0.397   7.655
 8025POPC   C1B33139  42.869   0.323   8.555
 8025POPC   C2B33140  42.907   0.282   8.255
 8025POPC   C3B33141  42.898   0.286   7.955
 8025POPC   C4B33142  42.923   0.348   7.655
 8026POPC   NC333143   1.230  22.198   9.455
 8026POPC   PO433144   1.204  22.114   9.155
 8026POPC   GL133145   1.212  22.126   8.855
 8026POPC   GL233146   1.131  22.200   8.855
 8026POPC   C1A33147   1.199  22.199   8.555
 8026POPC   D2A33148   1.224  22.182   8.255
 8026POPC   C3A33149   1.180  22.205   7.955
 8026POPC   C4A33150   1.257  22.173   7.655
 8026POPC   C1B33151   0.936  22.265   8.555
 8026POPC   C2B33152   0.964  22.282   8.255
 8026POPC   C3B33153   0.943  22.249   7.955
 8026POPC   C4B33154   0.931  22.269   7.655
 8027POPC   NC333155  24.451  26.087   9.455
 8027POPC   PO433156  24.490  26.035   9.155
 8027POPC   GL133157  24.510  26.089   8.855
 8027POPC   GL233158  24.554  25.978   8.855
 8027POPC   C1A33159  24.444  26.061   8.555
 8027POPC   D2A33160  24.441  26.089   8.255
 8027POPC   C3A33161  24.460  26.055   7.955
 8027POPC   C4A33162  24.445  25.996   7.655
 8027POPC   C1B33163  24.669  25.893   8.555
 8027POPC   C2B33164  24.670  25.878   8.255
 8027POPC   C3B33165  24.631  25.907   7.955
 8027POPC   C4B33166  24.690  25.849   7.655
 8028POPC   NC333167   8.943  40.017   9.455
 8028POPC   PO433168   8.928  39.997   9.155
 8028POPC   GL133169   8.956  40.000   8.855
 8028POPC   GL233170   9.021  40.148   8.855
 8028POPC   C1A33171   8.979  39.990   8.555
 8028POPC   D2A33172   8.942  40.052   8.255
 8028POPC   C3A33173   8.927  40.032   7.955
 8028POPC   C4A33174   8.942  39.967   7.655
 8028POPC   C1B33175   9.110  40.220   8.555
 8028POPC   C2B33176   9.085  40.265   8.255
 8028POPC   C3B33177   9.065  40.189   7.955
 8028POPC   C4B33178   9.080  40.274   7.655
 8029POPC   NC333179  32.207  29.169   9.455
 8029POPC   PO433180  32.281  29.151   9.155
 8029POPC   GL133181  32.274  29.124   8.855
 8029POPC   GL233182  32.401  29.141   8.855
 8029POPC   C1A33183  32.210  29.174   8.555
 8029POPC   D2A33184  32.220  29.136   8.255
 8029POPC   C3A33185  32.230  29.132   7.955
 8029POPC   C4A33186  32.210  29.162   7.655
 8029POPC   C1B33187  32.433  29.098   8.555
 8029POPC   C2B33188  32.531  29.027   8.255
 8029POPC   C3B33189  32.473  29.028   7.955
 8029POPC   C4B33190  32.450  29.051   7.655
 8030POPC   NC333191  26.847  36.939   9.455
 8030POPC   PO433192  26.843  36.862   9.155
 8030POPC   GL133193  26.856  36.897   8.855
 8030POPC   GL233194  26.905  36.793   8.855
 8030POPC   C1A33195  26.861  36.872   8.555
 8030POPC   D2A33196  26.789  36.864   8.255
 8030POPC   C3A33197  26.866  36.952   7.955
 8030POPC   C4A33198  26.804  36.938   7.655
 8030POPC   C1B33199  27.006  36.719   8.555
 8030POPC   C2B33200  26.979  36.811   8.255
 8030POPC   C3B33201  27.017  36.809   7.955
 8030POPC   C4B33202  27.038  36.802   7.655
 8031POPC   NC333203  35.346  19.829   9.455
 8031POPC   PO433204  35.314  19.882   9.155
 8031POPC   GL133205  35.339  19.789   8.855
 8031POPC   GL233206  35.252  19.875   8.855
 8031POPC   C1A33207  35.309  19.815   8.555
 8031POPC   D2A33208  35.379  19.812   8.255
 8031POPC   C3A33209  35.361  19.813   7.955
 8031POPC   C4A33210  35.336  19.878   7.655
 8031POPC   C1B33211  35.111  19.863   8.555
 8031POPC   C2B33212  35.139  19.795   8.255
 8031POPC   C3B33213  35.151  19.806   7.955
 8031POPC   C4B33214  35.090  19.810   7.655
 8032POPC   NC333215  43.119   2.011   9.455
 8032POPC   PO433216  43.098   1.957   9.155
 8032POPC   GL133217  43.086   1.969   8.855
 8032POPC   GL233218  43.237   1.882   8.855
 8032POPC   C1A33219  43.075   2.014   8.555
 8032POPC   D2A33220  43.136   2.018   8.255
 8032POPC   C3A33221  43.156   2.004   7.955
 8032POPC   C4A33222  43.126   1.978   7.655
 8032POPC   C1B33223  43.329   1.781   8.555
 8032POPC   C2B33224  43.339   1.809   8.255
 8032POPC   C3B33225  43.284   1.819   7.955
 8032POPC   C4B33226  43.343   1.791   7.655
 8033POPC   NC333227  24.443  34.587   9.455
 8033POPC   PO433228  24.472  34.622   9.155
 8033POPC   GL133229  24.486  34.534   8.855
 8033POPC   GL233230  24.541  34.476   8.855
 8033POPC   C1A33231  24.526  34.543   8.555
 8033POPC   D2A33232  24.507  34.559   8.255
 8033POPC   C3A33233  24.492  34.601   7.955
 8033POPC   C4A33234  24.506  34.561   7.655
 8033POPC   C1B33235  24.576  34.373   8.555
 8033POPC   C2B33236  24.513  34.320   8.255
 8033POPC   C3B33237  24.580  34.287   7.955
 8033POPC   C4B33238  24.487  34.332   7.655
 8034POPC   NC333239  13.658  17.525   9.455
 8034POPC   PO433240  13.626  17.518   9.155
 8034POPC   GL133241  13.663  17.555   8.855
 8034POPC   GL233242  13.504  17.578   8.855
 8034POPC   C1A33243  13.598  17.518   8.555
 8034POPC   D2A33244  13.609  17.491   8.255
 8034POPC   C3A33245  13.607  17.527   7.955
 8034POPC   C4A33246  13.670  17.474   7.655
 8034POPC   C1B33247  13.393  17.634   8.555
 8034POPC   C2B33248  13.447  17.675   8.255
 8034POPC   C3B33249  13.433  17.704   7.955
 8034POPC   C4B33250  13.409  17.671   7.655
 8035POPC   NC333251  11.318  36.173   9.455
 8035POPC   PO433252  11.305  36.083   9.155
 8035POPC   GL133253  11.269  36.123   8.855
 8035POPC   GL233254  11.259  36.033   8.855
 8035POPC   C1A33255  11.331  36.169   8.555
 8035POPC   D2A33256  11.347  36.100   8.255
 8035POPC   C3A33257  11.284  36.111   7.955
 8035POPC   C4A33258  11.303  36.107   7.655
 8035POPC   C1B33259  11.315  35.907   8.555
 8035POPC   C2B33260  11.329  35.919   8.255
 8035POPC   C3B33261  11.321  35.919   7.955
 8035POPC   C4B33262  11.355  35.890   7.655
 8036POPC   NC333263   7.392  19.835   9.455
 8036POPC   PO433264   7.396  19.883   9.155
 8036POPC   GL133265   7.412  19.792   8.855
 8036POPC   GL233266   7.441  19.992   8.855
 8036POPC   C1A33267   7.397  19.853   8.555
 8036POPC   D2A33268   7.449  19.873   8.255
 8036POPC   C3A33269   7.424  19.850   7.955
 8036POPC   C4A33270   7.402  19.840   7.655
 8036POPC   C1B33271   7.489  20.065   8.555
 8036POPC   C2B33272   7.418  20.127   8.255
 8036POPC   C3B33273   7.474  20.040   7.955
 8036POPC   C4B33274   7.443  20.099   7.655
 8037POPC   NC333275  40.736  29.106   9.455
 8037POPC   PO433276  40.769  29.159   9.155
 8037POPC   GL133277  40.733  29.151   8.855
 8037POPC   GL233278  40.811  29.050   8.855
 8037POPC   C1A33279  40.825  29.172   8.555
 8037POPC   D2A33280  40.823  29.139   8.255
 8037POPC   C3A33281  40.758  29.186   7.955
 8037POPC   C4A33282  40.762  29.189   7.655
 8037POPC   C1B33283  40.747  28.871   8.555
 8037POPC   C2B33284  40.725  28.904   8.255
 8037POPC   C3B33285  40.719  28.883   7.955
 8037POPC   C4B33286  40.768  28.920   7.655
 8038POPC   NC333287   1.968  36.142   9.455
 8038POPC   PO433288   1.971  36.092   9.155
 8038POPC   GL133289   2.033  36.115   8.855
 8038POPC   GL233290   1.978  36.266   8.855
 8038POPC   C1A33291   2.014  36.119   8.555
 8038POPC   D2A33292   1.955  36.140   8.255
 8038POPC   C3A33293   2.001  36.172   7.955
 8038POPC   C4A33294   1.983  36.157   7.655
 8038POPC   C1B33295   1.987  36.371   8.555
 8038POPC   C2B33296   2.023  36.382   8.255
 8038POPC   C3B33297   2.034  36.372   7.955
 8038POPC   C4B33298   2.019  36.362   7.655
 8039POPC   NC333299  41.607  44.712   9.455
 8039POPC   PO433300  41.559  44.674   9.155
 8039POPC   GL133301  41.600  44.692   8.855
 8039POPC   GL233302  41.500  44.826   8.855
 8039POPC   C1A33303  41.605  44.685   8.555
 8039POPC   D2A33304  41.531  44.678   8.255
 8039POPC   C3A33305  41.547  44.693   7.955
 8039POPC   C4A33306  41.545  44.613   7.655
 8039POPC   C1B33307  41.446  44.869   8.555
 8039POPC   C2B33308  41.443  44.897   8.255
 8039POPC   C3B33309  41.415  44.925   7.955
 8039POPC   C4B33310  41.441  44.918   7.655
 8040POPC   NC333311  30.723  41.584   9.455
 8040POPC   PO433312  30.705  41.558   9.155
 8040POPC   GL133313  30.732  41.529   8.855
 8040POPC   GL233314  30.581  41.641   8.855
 8040POPC   C1A33315  30.722  41.524   8.555
 8040POPC   D2A33316  30.727  41.568   8.255
 8040POPC   C3A33317  30.668  41.583   7.955
 8040POPC   C4A33318  30.741  41.601   7.655
 8040POPC   C1B33319  30.549  41.750   8.555
 8040POPC   C2B33320  30.505  41.734   8.255
 8040POPC   C3B33321  30.518  41.723   7.955
 8040POPC   C4B33322  30.535  41.719   7.655
 8041POPC   NC333323  43.143  28.367   9.455
 8041POPC   PO433324  43.128  28.407   9.155
 8041POPC   GL133325  43.104  28.352   8.855
 8041POPC   GL233326  43.212  28.258   8.855
 8041POPC   C1A33327  43.132  28.374   8.555
 8041POPC   D2A33328  43.116  28.331   8.255
 8041POPC   C3A33329  43.065  28.350   7.955
 8041POPC   C4A33330  43.113  28.418   7.655
 8041POPC   C1B33331  43.212  28.155   8.555
 8041POPC   C2B33332  43.277  28.205   8.255
 8041POPC   C3B33333  43.266  28.173   7.955
 8041POPC   C4B33334  43.219  28.162   7.655
 8042POPC   NC333335  10.520  41.552   9.455
 8042POPC   PO433336  10.563  41.591   9.155
 8042POPC   GL133337  10.558  41.596   8.855
 8042POPC   GL233338  10.435  41.643   8.855
 8042POPC   C1A33339  10.548  41.607   8.555
 8042POPC   D2A33340  10.502  41.524   8.255
 8042POPC   C3A33341  10.531  41.534   7.955
 8042POPC   C4A33342  10.489  41.588   7.655
 8042POPC   C1B33343  10.351  41.810   8.555
 8042POPC   C2B33344  10.364  41.816   8.255
 8042POPC   C3B33345  10.428  41.746   7.955
 8042POPC   C4B33346  10.424  41.801   7.655
 8043POPC   NC333347  24.446  40.762   9.455
 8043POPC   PO433348  24.441  40.809   9.155
 8043POPC   GL133349  24.443  40.776   8.855
 8043POPC   GL233350  24.536  40.700   8.855
 8043POPC   C1A33351  24.460  40.828   8.555
 8043POPC   D2A33352  24.520  40.818   8.255
 8043POPC   C3A33353  24.531  40.755   7.955
 8043POPC   C4A33354  24.501  40.787   7.655
 8043POPC   C1B33355  24.600  40.527   8.555
 8043POPC   C2B33356  24.659  40.559   8.255
 8043POPC   C3B33357  24.626  40.553   7.955
 8043POPC   C4B33358  24.598  40.612   7.655
 8044POPC   NC333359   4.344  15.990   9.455
 8044POPC   PO433360   4.325  15.990   9.155
 8044POPC   GL133361   4.314  15.917   8.855
 8044POPC   GL233362   4.220  15.820   8.855
 8044POPC   C1A33363   4.340  15.993   8.555
 8044POPC   D2A33364   4.292  15.992   8.255
 8044POPC   C3A33365   4.298  15.956   7.955
 8044POPC   C4A33366   4.296  15.987   7.655
 8044POPC   C1B33367   4.184  15.719   8.555
 8044POPC   C2B33368   4.244  15.718   8.255
 8044POPC   C3B33369   4.195  15.751   7.955
 8044POPC   C4B33370   4.209  15.702   7.655
 8045POPC   NC333371   5.086  12.822   9.455
 8045POPC   PO433372   5.111  12.831   9.155
 8045POPC   GL133373   5.139  12.818   8.855
 8045POPC   GL233374   5.101  12.705   8.855
 8045POPC   C1A33375   5.084  12.887   8.555
 8045POPC   D2A33376   5.081  12.888   8.255
 8045POPC   C3A33377   5.045  12.866   7.955
 8045POPC   C4A33378   5.068  12.823   7.655
 8045POPC   C1B33379   5.019  12.574   8.555
 8045POPC   C2B33380   5.091  12.577   8.255
 8045POPC   C3B33381   5.081  12.585   7.955
 8045POPC   C4B33382   5.028  12.595   7.655
 8046POPC   NC333383  33.051  16.745   9.455
 8046POPC   PO433384  32.991  16.709   9.155
 8046POPC   GL133385  33.039  16.684   8.855
 8046POPC   GL233386  32.946  16.575   8.855
 8046POPC   C1A33387  33.043  16.774   8.555
 8046POPC   D2A33388  32.995  16.738   8.255
 8046POPC   C3A33389  32.989  16.690   7.955
 8046POPC   C4A33390  32.994  16.707   7.655
 8046POPC   C1B33391  32.975  16.513   8.555
 8046POPC   C2B33392  32.902  16.480   8.255
 8046POPC   C3B33393  32.975  16.454   7.955
 8046POPC   C4B33394  32.956  16.532   7.655
 8047POPC   NC333395   8.925  11.297   9.455
 8047POPC   PO433396   8.953  11.313   9.155
 8047POPC   GL133397   9.007  11.251   8.855
 8047POPC   GL233398   8.977  11.159   8.855
 8047POPC   C1A33399   8.931  11.260   8.555
 8047POPC   D2A33400   8.924  11.297   8.255
 8047POPC   C3A33401   9.010  11.256   7.955
 8047POPC   C4A33402   8.933  11.319   7.655
 8047POPC   C1B33403   9.027  11.085   8.555
 8047POPC   C2B33404   8.942  11.075   8.255
 8047POPC   C3B33405   8.983  11.057   7.955
 8047POPC   C4B33406   8.951  11.086   7.655
 8048POPC   NC333407   2.727   6.612   9.455
 8048POPC   PO433408   2.801   6.660   9.155
 8048POPC   GL133409   2.758   6.674   8.855
 8048POPC   GL233410   2.925   6.611   8.855
 8048POPC   C1A33411   2.731   6.686   8.555
 8048POPC   D2A33412   2.725   6.618   8.255
 8048POPC   C3A33413   2.729   6.637   7.955
 8048POPC   C4A33414   2.796   6.640   7.655
 8048POPC   C1B33415   2.979   6.528   8.555
 8048POPC   C2B33416   3.019   6.605   8.255
 8048POPC   C3B33417   3.040   6.541   7.955
 8048POPC   C4B33418   3.015   6.576   7.655
 8049POPC   NC333419  37.688   1.185   9.455
 8049POPC   PO433420  37.672   1.199   9.155
 8049POPC   GL133421  37.639   1.263   8.855
 8049POPC   GL233422  37.755   1.255   8.855
 8049POPC   C1A33423  37.645   1.226   8.555
 8049POPC   D2A33424  37.643   1.192   8.255
 8049POPC   C3A33425  37.636   1.223   7.955
 8049POPC   C4A33426  37.695   1.234   7.655
 8049POPC   C1B33427  37.863   1.411   8.555
 8049POPC   C2B33428  37.865   1.416   8.255
 8049POPC   C3B33429  37.838   1.340   7.955
 8049POPC   C4B33430  37.891   1.355   7.655
 8050POPC   NC333431  30.688   5.078   9.455
 8050POPC   PO433432  30.675   5.133   9.155
 8050POPC   GL133433  30.680   5.115   8.855
 8050POPC   GL233434  30.660   5.237   8.855
 8050POPC   C1A33435  30.650   5.138   8.555
 8050POPC   D2A33436  30.665   5.132   8.255
 8050POPC   C3A33437  30.653   5.078   7.955
 8050POPC   C4A33438  30.743   5.095   7.655
 8050POPC   C1B33439  30.559   5.325   8.555
 8050POPC   C2B33440  30.546   5.355   8.255
 8050POPC   C3B33441  30.620   5.279   7.955
 8050POPC   C4B33442  30.626   5.273   7.655
 8051POPC   NC333443   8.962   1.180   9.455
 8051POPC   PO433444   8.970   1.183   9.155
 8051POPC   GL133445   8.963   1.226   8.855
 8051POPC   GL233446   8.913   1.338   8.855
 8051POPC   C1A33447   9.006   1.173   8.555
 8051POPC   D2A33448   8.939   1.250   8.255
 8051POPC   C3A33449   8.933   1.242   7.955
 8051POPC   C4A33450   8.933   1.249   7.655
 8051POPC   C1B33451   8.839   1.385   8.555
 8051POPC   C2B33452   8.823   1.435   8.255
 8051POPC   C3B33453   8.870   1.418   7.955
 8051POPC   C4B33454   8.854   1.415   7.655
 8052POPC   NC333455  41.569  10.540   9.455
 8052POPC   PO433456  41.539  10.537   9.155
 8052POPC   GL133457  41.568  10.492   8.855
 8052POPC   GL233458  41.449  10.449   8.855
 8052POPC   C1A33459  41.526  10.478   8.555
 8052POPC   D2A33460  41.566  10.543   8.255
 8052POPC   C3A33461  41.545  10.496   7.955
 8052POPC   C4A33462  41.550  10.542   7.655
 8052POPC   C1B33463  41.322  10.431   8.555
 8052POPC   C2B33464  41.318  10.404   8.255
 8052POPC   C3B33465  41.381  10.408   7.955
 8052POPC   C4B33466  41.328  10.368   7.655
 8053POPC   NC333467  22.899  42.368   9.455
 8053POPC   PO433468  22.965  42.363   9.155
 8053POPC   GL133469  22.971  42.323   8.855
 8053POPC   GL233470  23.014  42.272   8.855
 8053POPC   C1A33471  22.918  42.381   8.555
 8053POPC   D2A33472  22.955  42.369   8.255
 8053POPC   C3A33473  22.918  42.323   7.955
 8053POPC   C4A33474  22.899  42.340   7.655
 8053POPC   C1B33475  23.057  42.140   8.555
 8053POPC   C2B33476  23.110  42.132   8.255
 8053POPC   C3B33477  23.063  42.151   7.955
 8053POPC   C4B33478  23.026  42.163   7.655
 8054POPC   NC333479  42.310  22.971   9.455
 8054POPC   PO433480  42.305  22.944   9.155
 8054POPC   GL133481  42.360  22.969   8.855
 8054POPC   GL233482  42.391  22.825   8.855
 8054POPC   C1A33483  42.363  22.893   8.555
 8054POPC   D2A33484  42.320  22.917   8.255
 8054POPC   C3A33485  42.291  22.891   7.955
 8054POPC   C4A33486  42.344  22.916   7.655
 8054POPC   C1B33487  42.497  22.740   8.555
 8054POPC   C2B33488  42.464  22.681   8.255
 8054POPC   C3B33489  42.423  22.678   7.955
 8054POPC   C4B33490  42.475  22.769   7.655
 8055POPC   NC333491   1.961  20.571   9.455
 8055POPC   PO433492   2.023  20.631   9.155
 8055POPC   GL133493   1.998  20.654   8.855
 8055POPC   GL233494   1.830  20.575   8.855
 8055POPC   C1A33495   1.952  20.628   8.555
 8055POPC   D2A33496   1.949  20.646   8.255
 8055POPC   C3A33497   1.995  20.569   7.955
 8055POPC   C4A33498   1.960  20.612   7.655
 8055POPC   C1B33499   1.784  20.526   8.555
 8055POPC   C2B33500   1.770  20.477   8.255
 8055POPC   C3B33501   1.730  20.465   7.955
 8055POPC   C4B33502   1.749  20.471   7.655
 8056POPC   NC333503  12.045   6.663   9.455
 8056POPC   PO433504  12.118   6.656   9.155
 8056POPC   GL133505  12.084   6.691   8.855
 8056POPC   GL233506  12.148   6.485   8.855
 8056POPC   C1A33507  12.050   6.687   8.555
 8056POPC   D2A33508  12.124   6.607   8.255
 8056POPC   C3A33509  12.039   6.692   7.955
 8056POPC   C4A33510  12.088   6.676   7.655
 8056POPC   C1B33511  12.145   6.421   8.555
 8056POPC   C2B33512  12.206   6.428   8.255
 8056POPC   C3B33513  12.140   6.417   7.955
 8056POPC   C4B33514  12.190   6.369   7.655
 8057POPC   NC333515   1.982  11.265   9.455
 8057POPC   PO433516   1.955  11.306   9.155
 8057POPC   GL133517   2.027  11.327   8.855
 8057POPC   GL233518   2.069  11.175   8.855
 8057POPC   C1A33519   2.030  11.288   8.555
 8057POPC   D2A33520   1.977  11.313   8.255
 8057POPC   C3A33521   2.030  11.260   7.955
 8057POPC   C4A33522   1.971  11.306   7.655
 8057POPC   C1B33523   2.144  11.148   8.555
 8057POPC   C2B33524   2.167  11.187   8.255
 8057POPC   C3B33525   2.225  11.141   7.955
 8057POPC   C4B33526   2.139  11.168   7.655
 8058POPC   NC333527   3.588  21.380   9.455
 8058POPC   PO433528   3.501  21.359   9.155
 8058POPC   GL133529   3.511  21.339   8.855
 8058POPC   GL233530   3.562  21.241   8.855
 8058POPC   C1A33531   3.528  21.388   8.555
 8058POPC   D2A33532   3.573  21.395   8.255
 8058POPC   C3A33533   3.569  21.337   7.955
 8058POPC   C4A33534   3.562  21.356   7.655
 8058POPC   C1B33535   3.532  21.144   8.555
 8058POPC   C2B33536   3.495  21.097   8.255
 8058POPC   C3B33537   3.552  21.170   7.955
 8058POPC   C4B33538   3.481  21.136   7.655
 8059POPC   NC333539   6.633  24.459   9.455
 8059POPC   PO433540   6.688  24.538   9.155
 8059POPC   GL133541   6.598  24.497   8.855
 8059POPC   GL233542   6.741  24.379   8.855
 8059POPC   C1A33543   6.615  24.503   8.555
 8059POPC   D2A33544   6.607  24.501   8.255
 8059POPC   C3A33545   6.684  24.518   7.955
 8059POPC   C4A33546   6.599  24.465   7.655
 8059POPC   C1B33547   6.812  24.322   8.555
 8059POPC   C2B33548   6.862  24.299   8.255
 8059POPC   C3B33549   6.848  24.378   7.955
 8059POPC   C4B33550   6.852  24.376   7.655
 8060POPC   NC333551   1.947  29.166   9.455
 8060POPC   PO433552   1.948  29.138   9.155
 8060POPC   GL133553   2.024  29.118   8.855
 8060POPC   GL233554   1.897  29.063   8.855
 8060POPC   C1A33555   2.034  29.161   8.555
 8060POPC   D2A33556   1.979  29.101   8.255
 8060POPC   C3A33557   1.969  29.135   7.955
 8060POPC   C4A33558   2.004  29.178   7.655
 8060POPC   C1B33559   1.810  28.928   8.555
 8060POPC   C2B33560   1.867  28.980   8.255
 8060POPC   C3B33561   1.872  28.932   7.955
 8060POPC   C4B33562   1.851  28.915   7.655
 8061POPC   NC333563  39.244  12.065   9.455
 8061POPC   PO433564  39.280  12.066   9.155
 8061POPC   GL133565  39.258  12.058   8.855
 8061POPC   GL233566  39.301  12.133   8.855
 8061POPC   C1A33567  39.181  12.088   8.555
 8061POPC   D2A33568  39.249  12.104   8.255
 8061POPC   C3A33569  39.203  12.063   7.955
 8061POPC   C4A33570  39.225  12.110   7.655
 8061POPC   C1B33571  39.468  12.163   8.555
 8061POPC   C2B33572  39.435  12.156   8.255
 8061POPC   C3B33573  39.501  12.123   7.955
 8061POPC   C4B33574  39.484  12.160   7.655
 8062POPC   NC333575  32.293  28.321   9.455
 8062POPC   PO433576  32.263  28.383   9.155
 8062POPC   GL133577  32.225  28.323   8.855
 8062POPC   GL233578  32.236  28.506   8.855
 8062POPC   C1A33579  32.275  28.390   8.555
 8062POPC   D2A33580  32.224  28.415   8.255
 8062POPC   C3A33581  32.229  28.414   7.955
 8062POPC   C4A33582  32.237  28.327   7.655
 8062POPC   C1B33583  32.214  28.618   8.555
 8062POPC   C2B33584  32.140  28.607   8.255
 8062POPC   C3B33585  32.163  28.569   7.955
 8062POPC   C4B33586  32.209  28.618   7.655
 8063POPC   NC333587   4.313  12.894   9.455
 8063POPC   PO433588   4.291  12.898   9.155
 8063POPC   GL133589   4.279  12.842   8.855
 8063POPC   GL233590   4.351  12.967   8.855
 8063POPC   C1A33591   4.301  12.803   8.555
 8063POPC   D2A33592   4.287  12.839   8.255
 8063POPC   C3A33593   4.360  12.836   7.955
 8063POPC   C4A33594   4.302  12.874   7.655
 8063POPC   C1B33595   4.431  13.058   8.555
 8063POPC   C2B33596   4.351  13.129   8.255
 8063POPC   C3B33597   4.391  13.081   7.955
 8063POPC   C4B33598   4.389  13.109   7.655
 8064POPC   NC333599  20.612  36.892   9.455
 8064POPC   PO433600  20.566  36.884   9.155
 8064POPC   GL133601  20.594  36.916   8.855
 8064POPC   GL233602  20.640  37.063   8.855
 8064POPC   C1A33603  20.660  36.941   8.555
 8064POPC   D2A33604  20.635  36.934   8.255
 8064POPC   C3A33605  20.619  36.881   7.955
 8064POPC   C4A33606  20.641  36.909   7.655
 8064POPC   C1B33607  20.638  37.107   8.555
 8064POPC   C2B33608  20.590  37.129   8.255
 8064POPC   C3B33609  20.619  37.106   7.955
 8064POPC   C4B33610  20.605  37.182   7.655
 8065POPC   NC333611  28.374  13.639   9.455
 8065POPC   PO433612  28.411  13.609   9.155
 8065POPC   GL133613  28.328  13.593   8.855
 8065POPC   GL233614  28.330  13.729   8.855
 8065POPC   C1A33615  28.331  13.611   8.555
 8065POPC   D2A33616  28.384  13.674   8.255
 8065POPC   C3A33617  28.319  13.599   7.955
 8065POPC   C4A33618  28.325  13.630   7.655
 8065POPC   C1B33619  28.384  13.861   8.555
 8065POPC   C2B33620  28.345  13.924   8.255
 8065POPC   C3B33621  28.359  13.844   7.955
 8065POPC   C4B33622  28.383  13.903   7.655
 8066POPC   NC333623  18.275  41.585   9.455
 8066POPC   PO433624  18.295  41.586   9.155
 8066POPC   GL133625  18.332  41.583   8.855
 8066POPC   GL233626  18.202  41.574   8.855
 8066POPC   C1A33627  18.256  41.535   8.555
 8066POPC   D2A33628  18.289  41.557   8.255
 8066POPC   C3A33629  18.276  41.585   7.955
 8066POPC   C4A33630  18.301  41.598   7.655
 8066POPC   C1B33631  17.991  41.665   8.555
 8066POPC   C2B33632  18.002  41.667   8.255
 8066POPC   C3B33633  18.072  41.570   7.955
 8066POPC   C4B33634  18.052  41.592   7.655
 8067POPC   NC333635  12.840  31.468   9.455
 8067POPC   PO433636  12.844  31.475   9.155
 8067POPC   GL133637  12.874  31.511   8.855
 8067POPC   GL233638  12.926  31.523   8.855
 8067POPC   C1A33639  12.881  31.445   8.555
 8067POPC   D2A33640  12.847  31.487   8.255
 8067POPC   C3A33641  12.896  31.514   7.955
 8067POPC   C4A33642  12.804  31.511   7.655
 8067POPC   C1B33643  13.098  31.658   8.555
 8067POPC   C2B33644  13.043  31.617   8.255
 8067POPC   C3B33645  13.093  31.650   7.955
 8067POPC   C4B33646  13.079  31.573   7.655
 8068POPC   NC333647  29.879  22.910   9.455
 8068POPC   PO433648  29.919  22.973   9.155
 8068POPC   GL133649  29.958  22.925   8.855
 8068POPC   GL233650  30.088  22.914   8.855
 8068POPC   C1A33651  29.888  22.974   8.555
 8068POPC   D2A33652  29.927  22.954   8.255
 8068POPC   C3A33653  29.891  22.985   7.955
 8068POPC   C4A33654  29.969  22.973   7.655
 8068POPC   C1B33655  30.173  22.873   8.555
 8068POPC   C2B33656  30.136  22.915   8.255
 8068POPC   C3B33657  30.198  22.888   7.955
 8068POPC   C4B33658  30.197  22.931   7.655
 8069POPC   NC333659  31.437  25.282   9.455
 8069POPC   PO433660  31.441  25.242   9.155
 8069POPC   GL133661  31.513  25.298   8.855
 8069POPC   GL233662  31.622  25.206   8.855
 8069POPC   C1A33663  31.451  25.303   8.555
 8069POPC   D2A33664  31.514  25.286   8.255
 8069POPC   C3A33665  31.471  25.231   7.955
 8069POPC   C4A33666  31.424  25.314   7.655
 8069POPC   C1B33667  31.748  25.191   8.555
 8069POPC   C2B33668  31.670  25.236   8.255
 8069POPC   C3B33669  31.715  25.236   7.955
 8069POPC   C4B33670  31.762  25.207   7.655
 8070POPC   NC333671  39.995  13.650   9.455
 8070POPC   PO433672  39.993  13.650   9.155
 8070POPC   GL133673  39.989  13.594   8.855
 8070POPC   GL233674  40.152  13.610   8.855
 8070POPC   C1A33675  39.986  13.581   8.555
 8070POPC   D2A33676  40.012  13.595   8.255
 8070POPC   C3A33677  40.031  13.672   7.955
 8070POPC   C4A33678  40.054  13.613   7.655
 8070POPC   C1B33679  40.276  13.708   8.555
 8070POPC   C2B33680  40.257  13.675   8.255
 8070POPC   C3B33681  40.238  13.708   7.955
 8070POPC   C4B33682  40.301  13.625   7.655
 8071POPC   NC333683  33.073  13.645   9.455
 8071POPC   PO433684  33.067  13.664   9.155
 8071POPC   GL133685  33.056  13.662   8.855
 8071POPC   GL233686  33.153  13.557   8.855
 8071POPC   C1A33687  33.035  13.606   8.555
 8071POPC   D2A33688  33.038  13.645   8.255
 8071POPC   C3A33689  33.004  13.587   7.955
 8071POPC   C4A33690  32.985  13.662   7.655
 8071POPC   C1B33691  33.219  13.485   8.555
 8071POPC   C2B33692  33.154  13.486   8.255
 8071POPC   C3B33693  33.164  13.439   7.955
 8071POPC   C4B33694  33.157  13.494   7.655
 8072POPC   NC333695  19.104  40.774   9.455
 8072POPC   PO433696  19.060  40.812   9.155
 8072POPC   GL133697  19.052  40.800   8.855
 8072POPC   GL233698  19.141  40.659   8.855
 8072POPC   C1A33699  19.051  40.753   8.555
 8072POPC   D2A33700  19.026  40.775   8.255
 8072POPC   C3A33701  19.071  40.739   7.955
 8072POPC   C4A33702  19.064  40.742   7.655
 8072POPC   C1B33703  19.153  40.550   8.555
 8072POPC   C2B33704  19.174  40.548   8.255
 8072POPC   C3B33705  19.170  40.519   7.955
 8072POPC   C4B33706  19.154  40.612   7.655
 8073POPC   NC333707   2.800  16.701   9.455
 8073POPC   PO433708   2.811  16.683   9.155
 8073POPC   GL133709   2.747  16.724   8.855
 8073POPC   GL233710   2.712  16.858   8.855
 8073POPC   C1A33711   2.747  16.725   8.555
 8073POPC   D2A33712   2.809  16.706   8.255
 8073POPC   C3A33713   2.740  16.681   7.955
 8073POPC   C4A33714   2.782  16.773   7.655
 8073POPC   C1B33715   2.680  16.905   8.555
 8073POPC   C2B33716   2.632  16.977   8.255
 8073POPC   C3B33717   2.609  16.971   7.955
 8073POPC   C4B33718   2.695  16.947   7.655
 8074POPC   NC333719   0.466  17.491   9.455
 8074POPC   PO433720   0.448  17.555   9.155
 8074POPC   GL133721   0.398  17.495   8.855
 8074POPC   GL233722   0.563  17.435   8.855
 8074POPC   C1A33723   0.447  17.476   8.555
 8074POPC   D2A33724   0.421  17.539   8.255
 8074POPC   C3A33725   0.451  17.515   7.955
 8074POPC   C4A33726   0.445  17.526   7.655
 8074POPC   C1B33727   0.599  17.326   8.555
 8074POPC   C2B33728   0.641  17.315   8.255
 8074POPC   C3B33729   0.587  17.368   7.955
 8074POPC   C4B33730   0.678  17.329   7.655
 8075POPC   NC333731  12.027   1.187   9.455
 8075POPC   PO433732  12.027   1.181   9.155
 8075POPC   GL133733  12.087   1.264   8.855
 8075POPC   GL233734  12.050   1.293   8.855
 8075POPC   C1A33735  12.101   1.179   8.555
 8075POPC   D2A33736  12.097   1.206   8.255
 8075POPC   C3A33737  12.070   1.213   7.955
 8075POPC   C4A33738  12.058   1.222   7.655
 8075POPC   C1B33739  12.104   1.496   8.555
 8075POPC   C2B33740  12.079   1.481   8.255
 8075POPC   C3B33741  12.102   1.508   7.955
 8075POPC   C4B33742  12.116   1.492   7.655
 8076POPC   NC333743  12.036   0.420   9.455
 8076POPC   PO433744  12.061   0.450   9.155
 8076POPC   GL133745  12.044   0.480   8.855
 8076POPC   GL233746  12.164   0.376   8.855
 8076POPC   C1A33747  12.028   0.484   8.555
 8076POPC   D2A33748  12.089   0.463   8.255
 8076POPC   C3A33749  12.032   0.473   7.955
 8076POPC   C4A33750  12.123   0.391   7.655
 8076POPC   C1B33751  12.241   0.270   8.555
 8076POPC   C2B33752  12.213   0.199   8.255
 8076POPC   C3B33753  12.248   0.192   7.955
 8076POPC   C4B33754  12.248   0.179   7.655
 8077POPC   NC333755  17.463  35.386   9.455
 8077POPC   PO433756  17.531  35.393   9.155
 8077POPC   GL133757  17.518  35.395   8.855
 8077POPC   GL233758  17.609  35.340   8.855
 8077POPC   C1A33759  17.541  35.385   8.555
 8077POPC   D2A33760  17.463  35.326   8.255
 8077POPC   C3A33761  17.557  35.373   7.955
 8077POPC   C4A33762  17.474  35.334   7.655
 8077POPC   C1B33763  17.791  35.389   8.555
 8077POPC   C2B33764  17.750  35.362   8.255
 8077POPC   C3B33765  17.720  35.372   7.955
 8077POPC   C4B33766  17.745  35.379   7.655
 8078POPC   NC333767   4.273  22.192   9.455
 8078POPC   PO433768   4.334  22.154   9.155
 8078POPC   GL133769   4.348  22.150   8.855
 8078POPC   GL233770   4.378  22.236   8.855
 8078POPC   C1A33771   4.316  22.178   8.555
 8078POPC   D2A33772   4.347  22.158   8.255
 8078POPC   C3A33773   4.332  22.134   7.955
 8078POPC   C4A33774   4.343  22.161   7.655
 8078POPC   C1B33775   4.345  22.436   8.555
 8078POPC   C2B33776   4.396  22.434   8.255
 8078POPC   C3B33777   4.359  22.369   7.955
 8078POPC   C4B33778   4.360  22.432   7.655
 8079POPC   NC333779  12.071   4.304   9.455
 8079POPC   PO433780  12.114   4.358   9.155
 8079POPC   GL133781  12.033   4.299   8.855
 8079POPC   GL233782  11.982   4.234   8.855
 8079POPC   C1A33783  12.124   4.342   8.555
 8079POPC   D2A33784  12.126   4.328   8.255
 8079POPC   C3A33785  12.057   4.293   7.955
 8079POPC   C4A33786  12.095   4.334   7.655
 8079POPC   C1B33787  11.858   4.169   8.555
 8079POPC   C2B33788  11.838   4.170   8.255
 8079POPC   C3B33789  11.930   4.200   7.955
 8079POPC   C4B33790  11.895   4.153   7.655
 8080POPC   NC333791   2.723  10.573   9.455
 8080POPC   PO433792   2.726  10.524   9.155
 8080POPC   GL133793   2.781  10.481   8.855
 8080POPC   GL233794   2.853  10.472   8.855
 8080POPC   C1A33795   2.803  10.490   8.555
 8080POPC   D2A33796   2.777  10.549   8.255
 8080POPC   C3A33797   2.738  10.521   7.955
 8080POPC   C4A33798   2.755  10.506   7.655
 8080POPC   C1B33799   2.982  10.515   8.555
 8080POPC   C2B33800   2.965  10.449   8.255
 8080POPC   C3B33801   3.031  10.486   7.955
 8080POPC   C4B33802   3.003  10.542   7.655
 8081POPC   NC333803  19.795  31.426   9.455
 8081POPC   PO433804  19.820  31.426   9.155
 8081POPC   GL133805  19.838  31.485   8.855
 8081POPC   GL233806  19.729  31.566   8.855
 8081POPC   C1A33807  19.875  31.487   8.555
 8081POPC   D2A33808  19.853  31.488   8.255
 8081POPC   C3A33809  19.817  31.509   7.955
 8081POPC   C4A33810  19.811  31.505   7.655
 8081POPC   C1B33811  19.710  31.719   8.555
 8081POPC   C2B33812  19.714  31.699   8.255
 8081POPC   C3B33813  19.669  31.693   7.955
 8081POPC   C4B33814  19.717  31.643   7.655
 8082POPC   NC333815  36.146  12.097   9.455
 8082POPC   PO433816  36.093  12.062   9.155
 8082POPC   GL133817  36.158  12.083   8.855
 8082POPC   GL233818  36.156  12.191   8.855
 8082POPC   C1A33819  36.089  12.032   8.555
 8082POPC   D2A33820  36.169  12.111   8.255
 8082POPC   C3A33821  36.086  12.083   7.955
 8082POPC   C4A33822  36.126  12.080   7.655
 8082POPC   C1B33823  36.324  12.229   8.555
 8082POPC   C2B33824  36.266  12.295   8.255
 8082POPC   C3B33825  36.256  12.258   7.955
 8082POPC   C4B33826  36.243  12.267   7.655
 8083POPC   NC333827  26.014  39.190   9.455
 8083POPC   PO433828  26.087  39.238   9.155
 8083POPC   GL133829  26.089  39.257   8.855
 8083POPC   GL233830  26.150  39.253   8.855
 8083POPC   C1A33831  26.049  39.187   8.555
 8083POPC   D2A33832  26.068  39.252   8.255
 8083POPC   C3A33833  26.034  39.205   7.955
 8083POPC   C4A33834  25.999  39.245   7.655
 8083POPC   C1B33835  26.271  39.365   8.555
 8083POPC   C2B33836  26.261  39.345   8.255
 8083POPC   C3B33837  26.299  39.379   7.955
 8083POPC   C4B33838  26.248  39.375   7.655
 8084POPC   NC333839  37.724  12.119   9.455
 8084POPC   PO433840  37.680  12.119   9.155
 8084POPC   GL133841  37.724  12.092   8.855
 8084POPC   GL233842  37.632  12.162   8.855
 8084POPC   C1A33843  37.697  12.068   8.555
 8084POPC   D2A33844  37.674  12.073   8.255
 8084POPC   C3A33845  37.650  12.057   7.955
 8084POPC   C4A33846  37.699  12.041   7.655
 8084POPC   C1B33847  37.592  12.313   8.555
 8084POPC   C2B33848  37.587  12.361   8.255
 8084POPC   C3B33849  37.667  12.328   7.955
 8084POPC   C4B33850  37.674  12.350   7.655
 8085POPC   NC333851  44.705   1.177   9.455
 8085POPC   PO433852  44.624   1.238   9.155
 8085POPC   GL133853  44.627   1.228   8.855
 8085POPC   GL233854  44.625   1.337   8.855
 8085POPC   C1A33855  44.709   1.263   8.555
 8085POPC   D2A33856  44.670   1.195   8.255
 8085POPC   C3A33857  44.668   1.213   7.955
 8085POPC   C4A33858  44.662   1.231   7.655
 8085POPC   C1B33859  44.689   1.444   8.555
 8085POPC   C2B33860  44.650   1.499   8.255
 8085POPC   C3B33861  44.655   1.455   7.955
 8085POPC   C4B33862  44.623   1.492   7.655
 8086POPC   NC333863  40.741   8.192   9.455
 8086POPC   PO433864  40.789   8.195   9.155
 8086POPC   GL133865  40.827   8.162   8.855
 8086POPC   GL233866  40.876   8.171   8.855
 8086POPC   C1A33867  40.734   8.244   8.555
 8086POPC   D2A33868  40.742   8.185   8.255
 8086POPC   C3A33869  40.759   8.225   7.955
 8086POPC   C4A33870  40.786   8.238   7.655
 8086POPC   C1B33871  41.039   8.197   8.555
 8086POPC   C2B33872  41.033   8.253   8.255
 8086POPC   C3B33873  41.053   8.197   7.955
 8086POPC   C4B33874  41.018   8.199   7.655
 8087POPC   NC333875  12.061  29.940   9.455
 8087POPC   PO433876  12.121  29.925   9.155
 8087POPC   GL133877  12.027  29.925   8.855
 8087POPC   GL233878  12.187  29.988   8.855
 8087POPC   C1A33879  12.121  29.943   8.555
 8087POPC   D2A33880  12.071  29.891   8.255
 8087POPC   C3A33881  12.093  29.915   7.955
 8087POPC   C4A33882  12.080  29.913   7.655
 8087POPC   C1B33883  12.242  30.137   8.555
 8087POPC   C2B33884  12.284  30.085   8.255
 8087POPC   C3B33885  12.221  30.111   7.955
 8087POPC   C4B33886  12.198  30.103   7.655
 8088POPC   NC333887  28.346   9.747   9.455
 8088POPC   PO433888  28.388   9.755   9.155
 8088POPC   GL133889  28.397   9.728   8.855
 8088POPC   GL233890  28.231   9.773   8.855
 8088POPC   C1A33891  28.405   9.741   8.555
 8088POPC   D2A33892  28.353   9.702   8.255
 8088POPC   C3A33893  28.361   9.736   7.955
 8088POPC   C4A33894  28.386   9.792   7.655
 8088POPC   C1B33895  28.154   9.816   8.555
 8088POPC   C2B33896  28.086   9.822   8.255
 8088POPC   C3B33897  28.086   9.773   7.955
 8088POPC   C4B33898  28.102   9.779   7.655
 8089POPC   NC333899   4.349  43.103   9.455
 8089POPC   PO433900   4.267  43.145   9.155
 8089POPC   GL133901   4.323  43.085   8.855
 8089POPC   GL233902   4.303  42.979   8.855
 8089POPC   C1A33903   4.302  43.087   8.555
 8089POPC   D2A33904   4.360  43.078   8.255
 8089POPC   C3A33905   4.367  43.079   7.955
 8089POPC   C4A33906   4.317  43.098   7.655
 8089POPC   C1B33907   4.253  42.852   8.555
 8089POPC   C2B33908   4.286  42.853   8.255
 8089POPC   C3B33909   4.244  42.866   7.955
 8089POPC   C4B33910   4.330  42.876   7.655
 8090POPC   NC333911  32.229  22.961   9.455
 8090POPC   PO433912  32.265  22.911   9.155
 8090POPC   GL133913  32.237  22.905   8.855
 8090POPC   GL233914  32.154  22.993   8.855
 8090POPC   C1A33915  32.206  22.907   8.555
 8090POPC   D2A33916  32.214  22.962   8.255
 8090POPC   C3A33917  32.253  22.898   7.955
 8090POPC   C4A33918  32.289  22.897   7.655
 8090POPC   C1B33919  32.108  23.100   8.555
 8090POPC   C2B33920  32.038  23.107   8.255
 8090POPC   C3B33921  32.095  23.139   7.955
 8090POPC   C4B33922  32.104  23.126   7.655
 8091POPC   NC333923  30.706  36.894   9.455
 8091POPC   PO433924  30.691  36.858   9.155
 8091POPC   GL133925  30.667  36.909   8.855
 8091POPC   GL233926  30.676  36.742   8.855
 8091POPC   C1A33927  30.731  36.871   8.555
 8091POPC   D2A33928  30.689  36.865   8.255
 8091POPC   C3A33929  30.686  36.916   7.955
 8091POPC   C4A33930  30.707  36.856   7.655
 8091POPC   C1B33931  30.645  36.700   8.555
 8091POPC   C2B33932  30.668  36.645   8.255
 8091POPC   C3B33933  30.639  36.710   7.955
 8091POPC   C4B33934  30.671  36.615   7.655
 8092POPC   NC333935  21.434  26.004   9.455
 8092POPC   PO433936  21.435  26.030   9.155
 8092POPC   GL133937  21.374  26.079   8.855
 8092POPC   GL233938  21.385  26.138   8.855
 8092POPC   C1A33939  21.386  26.008   8.555
 8092POPC   D2A33940  21.411  26.054   8.255
 8092POPC   C3A33941  21.407  26.042   7.955
 8092POPC   C4A33942  21.431  26.054   7.655
 8092POPC   C1B33943  21.260  26.280   8.555
 8092POPC   C2B33944  21.290  26.255   8.255
 8092POPC   C3B33945  21.343  26.314   7.955
 8092POPC   C4B33946  21.280  26.236   7.655
 8093POPC   NC333947  20.657  44.691   9.455
 8093POPC   PO433948  20.658  44.637   9.155
 8093POPC   GL133949  20.624  44.645   8.855
 8093POPC   GL233950  20.545  44.803   8.855
 8093POPC   C1A33951  20.639  44.706   8.555
 8093POPC   D2A33952  20.606  44.652   8.255
 8093POPC   C3A33953  20.563  44.678   7.955
 8093POPC   C4A33954  20.618  44.658   7.655
 8093POPC   C1B33955  20.553  44.931   8.555
 8093POPC   C2B33956  20.547  44.951   8.255
 8093POPC   C3B33957  20.616  44.924   7.955
 8093POPC   C4B33958  20.610  44.927   7.655
 8094POPC   NC333959  21.429  10.518   9.455
 8094POPC   PO433960  21.352  10.547   9.155
 8094POPC   GL133961  21.413  10.570   8.855
 8094POPC   GL233962  21.257  10.567   8.855
 8094POPC   C1A33963  21.379  10.523   8.555
 8094POPC   D2A33964  21.377  10.557   8.255
 8094POPC   C3A33965  21.363  10.555   7.955
 8094POPC   C4A33966  21.389  10.530   7.655
 8094POPC   C1B33967  21.114  10.510   8.555
 8094POPC   C2B33968  21.131  10.576   8.255
 8094POPC   C3B33969  21.165  10.512   7.955
 8094POPC   C4B33970  21.185  10.560   7.655
 8095POPC   NC333971   8.996   8.935   9.455
 8095POPC   PO433972   9.013   8.996   9.155
 8095POPC   GL133973   8.952   8.929   8.855
 8095POPC   GL233974   9.082   9.025   8.855
 8095POPC   C1A33975   9.000   8.934   8.555
 8095POPC   D2A33976   9.007   8.960   8.255
 8095POPC   C3A33977   8.948   8.978   7.955
 8095POPC   C4A33978   9.004   9.015   7.655
 8095POPC   C1B33979   9.151   9.102   8.555
 8095POPC   C2B33980   9.180   9.062   8.255
 8095POPC   C3B33981   9.172   9.143   7.955
 8095POPC   C4B33982   9.134   9.064   7.655
 8096POPC   NC333983  26.864  18.315   9.455
 8096POPC   PO433984  26.790  18.294   9.155
 8096POPC   GL133985  26.864  18.318   8.855
 8096POPC   GL233986  26.718  18.195   8.855
 8096POPC   C1A33987  26.834  18.237   8.555
 8096POPC   D2A33988  26.838  18.244   8.255
 8096POPC   C3A33989  26.804  18.312   7.955
 8096POPC   C4A33990  26.831  18.301   7.655
 8096POPC   C1B33991  26.582  18.150   8.555
 8096POPC   C2B33992  26.537  18.217   8.255
 8096POPC   C3B33993  26.565  18.146   7.955
 8096POPC   C4B33994  26.559  18.148   7.655
 8097POPC   NC333995  11.313  28.363   9.455
 8097POPC   PO433996  11.307  28.345   9.155
 8097POPC   GL133997  11.327  28.397   8.855
 8097POPC   GL233998  11.307  28.266   8.855
 8097POPC   C1A33999  11.293  28.404   8.555
 8097POPC   D2A34000  11.319  28.345   8.255
 8097POPC   C3A34001  11.347  28.401   7.955
 8097POPC   C4A34002  11.278  28.332   7.655
 8097POPC   C1B34003  11.329  28.145   8.555
 8097POPC   C2B34004  11.298  28.072   8.255
 8097POPC   C3B34005  11.316  28.127   7.955
 8097POPC   C4B34006  11.345  28.082   7.655
 8098POPC   NC334007  10.558  36.130   9.455
 8098POPC   PO434008  10.496  36.154   9.155
 8098POPC   GL134009  10.490  36.094   8.855
 8098POPC   GL234010  10.538  36.051   8.855
 8098POPC   C1A34011  10.497  36.085   8.555
 8098POPC   D2A34012  10.480  36.096   8.255
 8098POPC   C3A34013  10.550  36.100   7.955
 8098POPC   C4A34014  10.486  36.105   7.655
 8098POPC   C1B34015  10.454  35.835   8.555
 8098POPC   C2B34016  10.462  35.865   8.255
 8098POPC   C3B34017  10.524  35.849   7.955
 8098POPC   C4B34018  10.453  35.924   7.655
 8099POPC   NC334019  39.985  39.271   9.455
 8099POPC   PO434020  40.038  39.208   9.155
 8099POPC   GL134021  39.974  39.257   8.855
 8099POPC   GL234022  39.868  39.205   8.855
 8099POPC   C1A34023  40.029  39.192   8.555
 8099POPC   D2A34024  40.044  39.205   8.255
 8099POPC   C3A34025  39.993  39.255   7.955
 8099POPC   C4A34026  40.025  39.240   7.655
 8099POPC   C1B34027  39.806  39.084   8.555
 8099POPC   C2B34028  39.750  39.118   8.255
 8099POPC   C3B34029  39.759  39.079   7.955
 8099POPC   C4B34030  39.826  39.144   7.655
 8100POPC   NC334031   8.965  22.140   9.455
 8100POPC   PO434032   9.003  22.129   9.155
 8100POPC   GL134033   8.963  22.163   8.855
 8100POPC   GL234034   8.985  22.322   8.855
 8100POPC   C1A34035   9.014  22.139   8.555
 8100POPC   D2A34036   8.938  22.212   8.255
 8100POPC   C3A34037   8.946  22.189   7.955
 8100POPC   C4A34038   9.003  22.142   7.655
 8100POPC   C1B34039   9.018  22.449   8.555
 8100POPC   C2B34040   8.976  22.395   8.255
 8100POPC   C3B34041   9.037  22.450   7.955
 8100POPC   C4B34042   9.018  22.365   7.655
 8101POPC   NC334043  11.322  17.548   9.455
 8101POPC   PO434044  11.300  17.516   9.155
 8101POPC   GL134045  11.302  17.523   8.855
 8101POPC   GL234046  11.412  17.568   8.855
 8101POPC   C1A34047  11.298  17.487   8.555
 8101POPC   D2A34048  11.337  17.521   8.255
 8101POPC   C3A34049  11.262  17.493   7.955
 8101POPC   C4A34050  11.315  17.474   7.655
 8101POPC   C1B34051  11.572  17.492   8.555
 8101POPC   C2B34052  11.551  17.573   8.255
 8101POPC   C3B34053  11.550  17.579   7.955
 8101POPC   C4B34054  11.566  17.509   7.655
 8102POPC   NC334055  35.379  15.909   9.455
 8102POPC   PO434056  35.321  15.994   9.155
 8102POPC   GL134057  35.398  15.988   8.855
 8102POPC   GL234058  35.429  15.973   8.855
 8102POPC   C1A34059  35.343  15.984   8.555
 8102POPC   D2A34060  35.308  16.005   8.255
 8102POPC   C3A34061  35.325  15.939   7.955
 8102POPC   C4A34062  35.354  15.934   7.655
 8102POPC   C1B34063  35.630  15.957   8.555
 8102POPC   C2B34064  35.604  15.926   8.255
 8102POPC   C3B34065  35.597  15.874   7.955
 8102POPC   C4B34066  35.583  15.906   7.655
 8103POPC   NC334067   9.780  25.272   9.455
 8103POPC   PO434068   9.753  25.265   9.155
 8103POPC   GL134069   9.756  25.218   8.855
 8103POPC   GL234070   9.694  25.226   8.855
 8103POPC   C1A34071   9.770  25.216   8.555
 8103POPC   D2A34072   9.728  25.306   8.255
 8103POPC   C3A34073   9.754  25.286   7.955
 8103POPC   C4A34074   9.778  25.231   7.655
 8103POPC   C1B34075   9.588  25.088   8.555
 8103POPC   C2B34076   9.522  25.106   8.255
 8103POPC   C3B34077   9.605  25.092   7.955
 8103POPC   C4B34078   9.555  25.099   7.655
 8104POPC   NC334079  26.056  12.836   9.455
 8104POPC   PO434080  25.994  12.823   9.155
 8104POPC   GL134081  26.042  12.826   8.855
 8104POPC   GL234082  26.025  12.716   8.855
 8104POPC   C1A34083  26.048  12.821   8.555
 8104POPC   D2A34084  26.077  12.825   8.255
 8104POPC   C3A34085  26.078  12.856   7.955
 8104POPC   C4A34086  26.070  12.863   7.655
 8104POPC   C1B34087  25.986  12.639   8.555
 8104POPC   C2B34088  26.034  12.594   8.255
 8104POPC   C3B34089  26.043  12.644   7.955
 8104POPC   C4B34090  25.947  12.617   7.655
 8105POPC   NC334091   2.721  29.131   9.455
 8105POPC   PO434092   2.730  29.181   9.155
 8105POPC   GL134093   2.804  29.132   8.855
 8105POPC   GL234094   2.741  28.994   8.855
 8105POPC   C1A34095   2.795  29.101   8.555
 8105POPC   D2A34096   2.805  29.110   8.255
 8105POPC   C3A34097   2.753  29.129   7.955
 8105POPC   C4A34098   2.747  29.109   7.655
 8105POPC   C1B34099   2.796  28.856   8.555
 8105POPC   C2B34100   2.790  28.870   8.255
 8105POPC   C3B34101   2.788  28.904   7.955
 8105POPC   C4B34102   2.806  28.864   7.655
 8106POPC   NC334103   8.972  43.904   9.455
 8106POPC   PO434104   8.928  43.867   9.155
 8106POPC   GL134105   8.996  43.885   8.855
 8106POPC   GL234106   8.942  43.971   8.855
 8106POPC   C1A34107   8.933  43.901   8.555
 8106POPC   D2A34108   8.929  43.923   8.255
 8106POPC   C3A34109   8.960  43.902   7.955
 8106POPC   C4A34110   8.991  43.909   7.655
 8106POPC   C1B34111   8.859  44.134   8.555
 8106POPC   C2B34112   8.894  44.114   8.255
 8106POPC   C3B34113   8.826  44.123   7.955
 8106POPC   C4B34114   8.838  44.116   7.655
 8107POPC   NC334115  15.936  37.630   9.455
 8107POPC   PO434116  15.969  37.669   9.155
 8107POPC   GL134117  16.001  37.666   8.855
 8107POPC   GL234118  15.867  37.558   8.855
 8107POPC   C1A34119  15.951  37.649   8.555
 8107POPC   D2A34120  15.968  37.632   8.255
 8107POPC   C3A34121  15.930  37.659   7.955
 8107POPC   C4A34122  15.944  37.717   7.655
 8107POPC   C1B34123  15.789  37.450   8.555
 8107POPC   C2B34124  15.756  37.492   8.255
 8107POPC   C3B34125  15.819  37.473   7.955
 8107POPC   C4B34126  15.792  37.465   7.655
 8108POPC   NC334127  19.797  10.559   9.455
 8108POPC   PO434128  19.880  10.508   9.155
 8108POPC   GL134129  19.829  10.527   8.855
 8108POPC   GL234130  19.880  10.610   8.855
 8108POPC   C1A34131  19.801  10.561   8.555
 8108POPC   D2A34132  19.877  10.507   8.255
 8108POPC   C3A34133  19.821  10.509   7.955
 8108POPC   C4A34134  19.793  10.501   7.655
 8108POPC   C1B34135  20.015  10.778   8.555
 8108POPC   C2B34136  19.939  10.765   8.255
 8108POPC   C3B34137  19.953  10.741   7.955
 8108POPC   C4B34138  19.995  10.700   7.655
 8109POPC   NC334139  35.385   3.504   9.455
 8109POPC   PO434140  35.392   3.567   9.155
 8109POPC   GL134141  35.355   3.503   8.855
 8109POPC   GL234142  35.428   3.424   8.855
 8109POPC   C1A34143  35.375   3.574   8.555
 8109POPC   D2A34144  35.358   3.517   8.255
 8109POPC   C3A34145  35.311   3.501   7.955
 8109POPC   C4A34146  35.368   3.533   7.655
 8109POPC   C1B34147  35.494   3.279   8.555
 8109POPC   C2B34148  35.449   3.267   8.255
 8109POPC   C3B34149  35.471   3.334   7.955
 8109POPC   C4B34150  35.405   3.319   7.655
 8110POPC   NC334151  22.161  42.347   9.455
 8110POPC   PO434152  22.178  42.338   9.155
 8110POPC   GL134153  22.170  42.364   8.855
 8110POPC   GL234154  22.278  42.250   8.855
 8110POPC   C1A34155  22.143  42.322   8.555
 8110POPC   D2A34156  22.128  42.316   8.255
 8110POPC   C3A34157  22.112  42.326   7.955
 8110POPC   C4A34158  22.175  42.328   7.655
 8110POPC   C1B34159  22.417  42.239   8.555
 8110POPC   C2B34160  22.366  42.277   8.255
 8110POPC   C3B34161  22.434  42.213   7.955
 8110POPC   C4B34162  22.370  42.191   7.655
 8111POPC   NC334163  33.005  29.944   9.455
 8111POPC   PO434164  33.011  29.895   9.155
 8111POPC   GL134165  33.026  29.903   8.855
 8111POPC   GL234166  33.013  29.845   8.855
 8111POPC   C1A34167  33.072  29.925   8.555
 8111POPC   D2A34168  32.988  29.901   8.255
 8111POPC   C3A34169  33.008  29.907   7.955
 8111POPC   C4A34170  33.067  29.927   7.655
 8111POPC   C1B34171  33.027  29.668   8.555
 8111POPC   C2B34172  33.091  29.669   8.255
 8111POPC   C3B34173  33.009  29.633   7.955
 8111POPC   C4B34174  33.011  29.679   7.655
 8112POPC   NC334175  40.753  31.484   9.455
 8112POPC   PO434176  40.733  31.499   9.155
 8112POPC   GL134177  40.772  31.499   8.855
 8112POPC   GL234178  40.939  31.458   8.855
 8112POPC   C1A34179  40.798  31.468   8.555
 8112POPC   D2A34180  40.823  31.500   8.255
 8112POPC   C3A34181  40.798  31.491   7.955
 8112POPC   C4A34182  40.746  31.507   7.655
 8112POPC   C1B34183  40.987  31.494   8.555
 8112POPC   C2B34184  40.997  31.489   8.255
 8112POPC   C3B34185  41.053  31.483   7.955
 8112POPC   C4B34186  41.002  31.468   7.655
 8113POPC   NC334187  24.441  31.425   9.455
 8113POPC   PO434188  24.445  31.514   9.155
 8113POPC   GL134189  24.524  31.429   8.855
 8113POPC   GL234190  24.409  31.560   8.855
 8113POPC   C1A34191  24.519  31.441   8.555
 8113POPC   D2A34192  24.530  31.464   8.255
 8113POPC   C3A34193  24.522  31.502   7.955
 8113POPC   C4A34194  24.484  31.493   7.655
 8113POPC   C1B34195  24.208  31.571   8.555
 8113POPC   C2B34196  24.254  31.604   8.255
 8113POPC   C3B34197  24.256  31.535   7.955
 8113POPC   C4B34198  24.303  31.591   7.655
 8114POPC   NC334199  22.893  12.057   9.455
 8114POPC   PO434200  22.968  12.030   9.155
 8114POPC   GL134201  22.958  12.097   8.855
 8114POPC   GL234202  22.874  11.975   8.855
 8114POPC   C1A34203  22.974  12.121   8.555
 8114POPC   D2A34204  22.972  12.083   8.255
 8114POPC   C3A34205  22.920  12.089   7.955
 8114POPC   C4A34206  22.958  12.107   7.655
 8114POPC   C1B34207  22.871  11.884   8.555
 8114POPC   C2B34208  22.821  11.813   8.255
 8114POPC   C3B34209  22.832  11.854   7.955
 8114POPC   C4B34210  22.912  11.854   7.655
 8115POPC   NC334211  24.491  28.330   9.455
 8115POPC   PO434212  24.519  28.390   9.155
 8115POPC   GL134213  24.470  28.368   8.855
 8115POPC   GL234214  24.347  28.373   8.855
 8115POPC   C1A34215  24.449  28.321   8.555
 8115POPC   D2A34216  24.459  28.410   8.255
 8115POPC   C3A34217  24.448  28.333   7.955
 8115POPC   C4A34218  24.454  28.370   7.655
 8115POPC   C1B34219  24.223  28.310   8.555
 8115POPC   C2B34220  24.222  28.330   8.255
 8115POPC   C3B34221  24.214  28.267   7.955
 8115POPC   C4B34222  24.268  28.245   7.655
 8116POPC   NC334223   8.209  21.372   9.455
 8116POPC   PO434224   8.226  21.395   9.155
 8116POPC   GL134225   8.218  21.414   8.855
 8116POPC   GL234226   8.126  21.318   8.855
 8116POPC   C1A34227   8.179  21.426   8.555
 8116POPC   D2A34228   8.188  21.420   8.255
 8116POPC   C3A34229   8.188  21.361   7.955
 8116POPC   C4A34230   8.213  21.352   7.655
 8116POPC   C1B34231   8.078  21.195   8.555
 8116POPC   C2B34232   8.014  21.167   8.255
 8116POPC   C3B34233   8.050  21.200   7.955
 8116POPC   C4B34234   8.006  21.216   7.655
 8117POPC   NC334235   2.734  12.028   9.455
 8117POPC   PO434236   2.798  12.048   9.155
 8117POPC   GL134237   2.762  12.028   8.855
 8117POPC   GL234238   2.774  11.986   8.855
 8117POPC   C1A34239   2.729  12.111   8.555
 8117POPC   D2A34240   2.721  12.095   8.255
 8117POPC   C3A34241   2.768  12.064   7.955
 8117POPC   C4A34242   2.775  12.089   7.655
 8117POPC   C1B34243   2.730  11.795   8.555
 8117POPC   C2B34244   2.675  11.846   8.255
 8117POPC   C3B34245   2.692  11.832   7.955
 8117POPC   C4B34246   2.655  11.879   7.655
 8118POPC   NC334247   1.264  12.820   9.455
 8118POPC   PO434248   1.173  12.853   9.155
 8118POPC   GL134249   1.248  12.875   8.855
 8118POPC   GL234250   1.295  12.873   8.855
 8118POPC   C1A34251   1.222  12.816   8.555
 8118POPC   D2A34252   1.252  12.814   8.255
 8118POPC   C3A34253   1.259  12.879   7.955
 8118POPC   C4A34254   1.179  12.895   7.655
 8118POPC   C1B34255   1.420  12.861   8.555
 8118POPC   C2B34256   1.510  12.833   8.255
 8118POPC   C3B34257   1.479  12.807   7.955
 8118POPC   C4B34258   1.425  12.770   7.655
 8119POPC   NC334259  16.740  43.148   9.455
 8119POPC   PO434260  16.682  43.080   9.155
 8119POPC   GL134261  16.738  43.069   8.855
 8119POPC   GL234262  16.846  43.170   8.855
 8119POPC   C1A34263  16.727  43.127   8.555
 8119POPC   D2A34264  16.724  43.140   8.255
 8119POPC   C3A34265  16.712  43.128   7.955
 8119POPC   C4A34266  16.747  43.147   7.655
 8119POPC   C1B34267  16.861  43.301   8.555
 8119POPC   C2B34268  16.945  43.302   8.255
 8119POPC   C3B34269  16.880  43.339   7.955
 8119POPC   C4B34270  16.914  43.303   7.655
 8120POPC   NC334271  33.001  36.112   9.455
 8120POPC   PO434272  32.990  36.162   9.155
 8120POPC   GL134273  32.987  36.148   8.855
 8120POPC   GL234274  33.036  36.250   8.855
 8120POPC   C1A34275  33.044  36.143   8.555
 8120POPC   D2A34276  33.044  36.103   8.255
 8120POPC   C3A34277  33.019  36.144   7.955
 8120POPC   C4A34278  32.980  36.114   7.655
 8120POPC   C1B34279  33.094  36.418   8.555
 8120POPC   C2B34280  33.067  36.399   8.255
 8120POPC   C3B34281  33.137  36.338   7.955
 8120POPC   C4B34282  33.094  36.322   7.655
 8121POPC   NC334283  29.909   5.128   9.455
 8121POPC   PO434284  29.883   5.072   9.155
 8121POPC   GL134285  29.948   5.070   8.855
 8121POPC   GL234286  29.786   5.082   8.855
 8121POPC   C1A34287  29.954   5.071   8.555
 8121POPC   D2A34288  29.896   5.142   8.255
 8121POPC   C3A34289  29.945   5.072   7.955
 8121POPC   C4A34290  29.950   5.066   7.655
 8121POPC   C1B34291  29.712   5.139   8.555
 8121POPC   C2B34292  29.636   5.119   8.255
 8121POPC   C3B34293  29.648   5.154   7.955
 8121POPC   C4B34294  29.644   5.199   7.655
 8122POPC   NC334295  36.882  26.023   9.455
 8122POPC   PO434296  36.884  26.069   9.155
 8122POPC   GL134297  36.891  26.012   8.855
 8122POPC   GL234298  36.779  26.165   8.855
 8122POPC   C1A34299  36.910  26.017   8.555
 8122POPC   D2A34300  36.862  26.027   8.255
 8122POPC   C3A34301  36.870  26.089   7.955
 8122POPC   C4A34302  36.893  26.073   7.655
 8122POPC   C1B34303  36.736  26.176   8.555
 8122POPC   C2B34304  36.760  26.179   8.255
 8122POPC   C3B34305  36.754  26.239   7.955
 8122POPC   C4B34306  36.699  26.246   7.655
 8123POPC   NC334307  37.718  36.135   9.455
 8123POPC   PO434308  37.662  36.143   9.155
 8123POPC   GL134309  37.721  36.152   8.855
 8123POPC   GL234310  37.602  36.262   8.855
 8123POPC   C1A34311  37.705  36.172   8.555
 8123POPC   D2A34312  37.711  36.135   8.255
 8123POPC   C3A34313  37.685  36.110   7.955
 8123POPC   C4A34314  37.676  36.168   7.655
 8123POPC   C1B34315  37.483  36.281   8.555
 8123POPC   C2B34316  37.556  36.303   8.255
 8123POPC   C3B34317  37.554  36.273   7.955
 8123POPC   C4B34318  37.532  36.276   7.655
 8124POPC   NC334319  10.490  30.695   9.455
 8124POPC   PO434320  10.573  30.718   9.155
 8124POPC   GL134321  10.491  30.689   8.855
 8124POPC   GL234322  10.558  30.551   8.855
 8124POPC   C1A34323  10.489  30.648   8.555
 8124POPC   D2A34324  10.549  30.731   8.255
 8124POPC   C3A34325  10.546  30.714   7.955
 8124POPC   C4A34326  10.498  30.681   7.655
 8124POPC   C1B34327  10.705  30.499   8.555
 8124POPC   C2B34328  10.671  30.454   8.255
 8124POPC   C3B34329  10.704  30.502   7.955
 8124POPC   C4B34330  10.650  30.442   7.655
 8125POPC   NC334331   1.213  10.543   9.455
 8125POPC   PO434332   1.232  10.541   9.155
 8125POPC   GL134333   1.179  10.554   8.855
 8125POPC   GL234334   1.090  10.565   8.855
 8125POPC   C1A34335   1.241  10.499   8.555
 8125POPC   D2A34336   1.195  10.547   8.255
 8125POPC   C3A34337   1.187  10.506   7.955
 8125POPC   C4A34338   1.254  10.539   7.655
 8125POPC   C1B34339   0.986  10.627   8.555
 8125POPC   C2B34340   0.959  10.555   8.255
 8125POPC   C3B34341   1.018  10.612   7.955
 8125POPC   C4B34342   0.937  10.545   7.655
 8126POPC   NC334343  40.022  12.096   9.455
 8126POPC   PO434344  39.970  12.056   9.155
 8126POPC   GL134345  40.040  12.123   8.855
 8126POPC   GL234346  39.876  12.101   8.855
 8126POPC   C1A34347  40.014  12.084   8.555
 8126POPC   D2A34348  39.974  12.074   8.255
 8126POPC   C3A34349  40.042  12.043   7.955
 8126POPC   C4A34350  39.972  12.105   7.655
 8126POPC   C1B34351  39.755  12.035   8.555
 8126POPC   C2B34352  39.763  12.079   8.255
 8126POPC   C3B34353  39.807  12.078   7.955
 8126POPC   C4B34354  39.770  12.051   7.655
 8127POPC   NC334355  36.149  16.705   9.455
 8127POPC   PO434356  36.128  16.781   9.155
 8127POPC   GL134357  36.108  16.750   8.855
 8127POPC   GL234358  35.993  16.745   8.855
 8127POPC   C1A34359  36.103  16.719   8.555
 8127POPC   D2A34360  36.129  16.686   8.255
 8127POPC   C3A34361  36.129  16.684   7.955
 8127POPC   C4A34362  36.111  16.737   7.655
 8127POPC   C1B34363  35.856  16.863   8.555
 8127POPC   C2B34364  35.944  16.822   8.255
 8127POPC   C3B34365  35.924  16.809   7.955
 8127POPC   C4B34366  35.936  16.824   7.655
 8128POPC   NC334367   9.741  11.338   9.455
 8128POPC   PO434368   9.773  11.288   9.155
 8128POPC   GL134369   9.722  11.331   8.855
 8128POPC   GL234370   9.890  11.339   8.855
 8128POPC   C1A34371   9.714  11.325   8.555
 8128POPC   D2A34372   9.752  11.343   8.255
 8128POPC   C3A34373   9.710  11.344   7.955
 8128POPC   C4A34374   9.770  11.348   7.655
 8128POPC   C1B34375   9.969  11.362   8.555
 8128POPC   C2B34376   9.934  11.358   8.255
 8128POPC   C3B34377   9.981  11.373   7.955
 8128POPC   C4B34378  10.012  11.390   7.655
 8129POPC   NC334379  31.515  23.730   9.455
 8129POPC   PO434380  31.482  23.707   9.155
 8129POPC   GL134381  31.493  23.761   8.855
 8129POPC   GL234382  31.503  23.863   8.855
 8129POPC   C1A34383  31.503  23.755   8.555
 8129POPC   D2A34384  31.515  23.745   8.255
 8129POPC   C3A34385  31.463  23.688   7.955
 8129POPC   C4A34386  31.490  23.706   7.655
 8129POPC   C1B34387  31.542  24.001   8.555
 8129POPC   C2B34388  31.492  23.930   8.255
 8129POPC   C3B34389  31.561  23.944   7.955
 8129POPC   C4B34390  31.535  23.925   7.655
 8130POPC   NC334391   8.197   1.218   9.455
 8130POPC   PO434392   8.222   1.208   9.155
 8130POPC   GL134393   8.220   1.219   8.855
 8130POPC   GL234394   8.256   1.096   8.855
 8130POPC   C1A34395   8.229   1.211   8.555
 8130POPC   D2A34396   8.228   1.239   8.255
 8130POPC   C3A34397   8.190   1.174   7.955
 8130POPC   C4A34398   8.193   1.235   7.655
 8130POPC   C1B34399   8.384   1.071   8.555
 8130POPC   C2B34400   8.404   1.054   8.255
 8130POPC   C3B34401   8.338   1.025   7.955
 8130POPC   C4B34402   8.392   1.008   7.655
 8131POPC   NC334403  36.153  36.088   9.455
 8131POPC   PO434404  36.166  36.099   9.155
 8131POPC   GL134405  36.172  36.143   8.855
 8131POPC   GL234406  36.217  36.021   8.855
 8131POPC   C1A34407  36.128  36.164   8.555
 8131POPC   D2A34408  36.112  36.113   8.255
 8131POPC   C3A34409  36.144  36.162   7.955
 8131POPC   C4A34410  36.175  36.085   7.655
 8131POPC   C1B34411  36.380  36.054   8.555
 8131POPC   C2B34412  36.346  36.020   8.255
 8131POPC   C3B34413  36.390  35.977   7.955
 8131POPC   C4B34414  36.378  35.980   7.655
 8132POPC   NC334415  31.487  43.891   9.455
 8132POPC   PO434416  31.483  43.875   9.155
 8132POPC   GL134417  31.482  43.915   8.855
 8132POPC   GL234418  31.496  43.807   8.855
 8132POPC   C1A34419  31.444  43.856   8.555
 8132POPC   D2A34420  31.443  43.844   8.255
 8132POPC   C3A34421  31.464  43.918   7.955
 8132POPC   C4A34422  31.494  43.865   7.655
 8132POPC   C1B34423  31.497  43.656   8.555
 8132POPC   C2B34424  31.476  43.596   8.255
 8132POPC   C3B34425  31.485  43.617   7.955
 8132POPC   C4B34426  31.481  43.598   7.655
 8133POPC   NC334427  25.248  18.253   9.455
 8133POPC   PO434428  25.307  18.285   9.155
 8133POPC   GL134429  25.291  18.319   8.855
 8133POPC   GL234430  25.383  18.255   8.855
 8133POPC   C1A34431  25.239  18.238   8.555
 8133POPC   D2A34432  25.306  18.266   8.255
 8133POPC   C3A34433  25.258  18.238   7.955
 8133POPC   C4A34434  25.216  18.303   7.655
 8133POPC   C1B34435  25.538  18.250   8.555
 8133POPC   C2B34436  25.485  18.276   8.255
 8133POPC   C3B34437  25.552  18.264   7.955
 8133POPC   C4B34438  25.514  18.293   7.655
 8134POPC   NC334439  23.726  15.135   9.455
 8134POPC   PO434440  23.706  15.142   9.155
 8134POPC   GL134441  23.716  15.184   8.855
 8134POPC   GL234442  23.867  15.232   8.855
 8134POPC   C1A34443  23.740  15.150   8.555
 8134POPC   D2A34444  23.702  15.146   8.255
 8134POPC   C3A34445  23.665  15.206   7.955
 8134POPC   C4A34446  23.684  15.185   7.655
 8134POPC   C1B34447  23.957  15.251   8.555
 8134POPC   C2B34448  23.962  15.218   8.255
 8134POPC   C3B34449  23.999  15.261   7.955
 8134POPC   C4B34450  23.915  15.210   7.655
 8135POPC   NC334451  22.209  26.821   9.455
 8135POPC   PO434452  22.155  26.863   9.155
 8135POPC   GL134453  22.126  26.858   8.855
 8135POPC   GL234454  22.202  26.897   8.855
 8135POPC   C1A34455  22.118  26.774   8.555
 8135POPC   D2A34456  22.192  26.820   8.255
 8135POPC   C3A34457  22.122  26.849   7.955
 8135POPC   C4A34458  22.192  26.851   7.655
 8135POPC   C1B34459  22.260  27.015   8.555
 8135POPC   C2B34460  22.263  26.976   8.255
 8135POPC   C3B34461  22.302  27.027   7.955
 8135POPC   C4B34462  22.332  27.039   7.655
 8136POPC   NC334463   3.585  12.090   9.455
 8136POPC   PO434464   3.570  12.036   9.155
 8136POPC   GL134465   3.567  12.055   8.855
 8136POPC   GL234466   3.633  12.034   8.855
 8136POPC   C1A34467   3.568  12.092   8.555
 8136POPC   D2A34468   3.559  12.123   8.255
 8136POPC   C3A34469   3.494  12.047   7.955
 8136POPC   C4A34470   3.571  12.062   7.655
 8136POPC   C1B34471   3.771  12.075   8.555
 8136POPC   C2B34472   3.838  12.102   8.255
 8136POPC   C3B34473   3.776  12.066   7.955
 8136POPC   C4B34474   3.778  12.102   7.655
 8137POPC   NC334475  40.000  43.912   9.455
 8137POPC   PO434476  40.039  43.909   9.155
 8137POPC   GL134477  39.961  43.857   8.855
 8137POPC   GL234478  40.120  43.817   8.855
 8137POPC   C1A34479  39.983  43.905   8.555
 8137POPC   D2A34480  39.981  43.893   8.255
 8137POPC   C3A34481  40.055  43.905   7.955
 8137POPC   C4A34482  39.977  43.870   7.655
 8137POPC   C1B34483  40.196  43.711   8.555
 8137POPC   C2B34484  40.186  43.741   8.255
 8137POPC   C3B34485  40.205  43.761   7.955
 8137POPC   C4B34486  40.146  43.701   7.655
 8138POPC   NC334487  34.543  39.994   9.455
 8138POPC   PO434488  34.613  39.961   9.155
 8138POPC   GL134489  34.597  39.975   8.855
 8138POPC   GL234490  34.527  39.909   8.855
 8138POPC   C1A34491  34.561  40.056   8.555
 8138POPC   D2A34492  34.542  40.024   8.255
 8138POPC   C3A34493  34.572  39.977   7.955
 8138POPC   C4A34494  34.602  40.004   7.655
 8138POPC   C1B34495  34.477  39.727   8.555
 8138POPC   C2B34496  34.528  39.797   8.255
 8138POPC   C3B34497  34.489  39.758   7.955
 8138POPC   C4B34498  34.502  39.723   7.655
 8139POPC   NC334499  39.273   5.096   9.455
 8139POPC   PO434500  39.231   5.107   9.155
 8139POPC   GL134501  39.267   5.126   8.855
 8139POPC   GL234502  39.096   5.018   8.855
 8139POPC   C1A34503  39.194   5.072   8.555
 8139POPC   D2A34504  39.229   5.132   8.255
 8139POPC   C3A34505  39.258   5.059   7.955
 8139POPC   C4A34506  39.218   5.082   7.655
 8139POPC   C1B34507  39.004   4.996   8.555
 8139POPC   C2B34508  38.997   4.995   8.255
 8139POPC   C3B34509  39.036   5.035   7.955
 8139POPC   C4B34510  39.003   5.041   7.655
 8140POPC   NC334511  38.415  32.279   9.455
 8140POPC   PO434512  38.433  32.257   9.155
 8140POPC   GL134513  38.472  32.225   8.855
 8140POPC   GL234514  38.406  32.336   8.855
 8140POPC   C1A34515  38.458  32.221   8.555
 8140POPC   D2A34516  38.500  32.282   8.255
 8140POPC   C3A34517  38.478  32.225   7.955
 8140POPC   C4A34518  38.467  32.204   7.655
 8140POPC   C1B34519  38.384  32.435   8.555
 8140POPC   C2B34520  38.381  32.471   8.255
 8140POPC   C3B34521  38.406  32.460   7.955
 8140POPC   C4B34522  38.346  32.482   7.655
 8141POPC   NC334523  22.130  11.317   9.455
 8141POPC   PO434524  22.139  11.252   9.155
 8141POPC   GL134525  22.182  11.343   8.855
 8141POPC   GL234526  22.093  11.378   8.855
 8141POPC   C1A34527  22.198  11.314   8.555
 8141POPC   D2A34528  22.162  11.282   8.255
 8141POPC   C3A34529  22.199  11.312   7.955
 8141POPC   C4A34530  22.194  11.334   7.655
 8141POPC   C1B34531  21.993  11.477   8.555
 8141POPC   C2B34532  21.959  11.454   8.255
 8141POPC   C3B34533  22.028  11.485   7.955
 8141POPC   C4B34534  21.985  11.520   7.655
 8142POPC   NC334535  35.366   0.403   9.455
 8142POPC   PO434536  35.343   0.420   9.155
 8142POPC   GL134537  35.362   0.462   8.855
 8142POPC   GL234538  35.204   0.444   8.855
 8142POPC   C1A34539  35.305   0.485   8.555
 8142POPC   D2A34540  35.322   0.476   8.255
 8142POPC   C3A34541  35.378   0.482   7.955
 8142POPC   C4A34542  35.393   0.478   7.655
 8142POPC   C1B34543  35.108   0.470   8.555
 8142POPC   C2B34544  35.145   0.547   8.255
 8142POPC   C3B34545  35.152   0.544   7.955
 8142POPC   C4B34546  35.120   0.480   7.655
 8143POPC   NC334547  19.103  36.856   9.455
 8143POPC   PO434548  19.075  36.869   9.155
 8143POPC   GL134549  19.037  36.933   8.855
 8143POPC   GL234550  18.938  36.908   8.855
 8143POPC   C1A34551  19.032  36.875   8.555
 8143POPC   D2A34552  19.066  36.929   8.255
 8143POPC   C3A34553  19.037  36.915   7.955
 8143POPC   C4A34554  19.047  36.871   7.655
 8143POPC   C1B34555  18.833  36.847   8.555
 8143POPC   C2B34556  18.808  36.847   8.255
 8143POPC   C3B34557  18.851  36.819   7.955
 8143POPC   C4B34558  18.800  36.854   7.655
 8144POPC   NC334559  25.249   5.852   9.455
 8144POPC   PO434560  25.217   5.849   9.155
 8144POPC   GL134561  25.268   5.850   8.855
 8144POPC   GL234562  25.307   5.773   8.855
 8144POPC   C1A34563  25.234   5.837   8.555
 8144POPC   D2A34564  25.278   5.917   8.255
 8144POPC   C3A34565  25.269   5.902   7.955
 8144POPC   C4A34566  25.252   5.918   7.655
 8144POPC   C1B34567  25.468   5.711   8.555
 8144POPC   C2B34568  25.430   5.709   8.255
 8144POPC   C3B34569  25.452   5.670   7.955
 8144POPC   C4B34570  25.445   5.730   7.655
 8145POPC   NC334571  18.256   0.416   9.455
 8145POPC   PO434572  18.309   0.423   9.155
 8145POPC   GL134573  18.318   0.436   8.855
 8145POPC   GL234574  18.130   0.407   8.855
 8145POPC   C1A34575  18.288   0.399   8.555
 8145POPC   D2A34576  18.287   0.425   8.255
 8145POPC   C3A34577  18.307   0.473   7.955
 8145POPC   C4A34578  18.250   0.438   7.655
 8145POPC   C1B34579  18.019   0.334   8.555
 8145POPC   C2B34580  18.062   0.364   8.255
 8145POPC   C3B34581  18.036   0.402   7.955
 8145POPC   C4B34582  18.001   0.354   7.655
 8146POPC   NC334583  39.226   1.249   9.455
 8146POPC   PO434584  39.249   1.253   9.155
 8146POPC   GL134585  39.231   1.204   8.855
 8146POPC   GL234586  39.283   1.336   8.855
 8146POPC   C1A34587  39.224   1.198   8.555
 8146POPC   D2A34588  39.250   1.243   8.255
 8146POPC   C3A34589  39.190   1.185   7.955
 8146POPC   C4A34590  39.249   1.256   7.655
 8146POPC   C1B34591  39.378   1.378   8.555
 8146POPC   C2B34592  39.337   1.384   8.255
 8146POPC   C3B34593  39.424   1.396   7.955
 8146POPC   C4B34594  39.359   1.371   7.655
 8147POPC   NC334595  22.171  36.144   9.455
 8147POPC   PO434596  22.148  36.160   9.155
 8147POPC   GL134597  22.180  36.146   8.855
 8147POPC   GL234598  22.112  36.182   8.855
 8147POPC   C1A34599  22.142  36.128   8.555
 8147POPC   D2A34600  22.185  36.145   8.255
 8147POPC   C3A34601  22.154  36.100   7.955
 8147POPC   C4A34602  22.202  36.153   7.655
 8147POPC   C1B34603  21.960  36.288   8.555
 8147POPC   C2B34604  21.966  36.284   8.255
 8147POPC   C3B34605  22.018  36.310   7.955
 8147POPC   C4B34606  21.936  36.319   7.655
 8148POPC   NC334607  14.453  15.935   9.455
 8148POPC   PO434608  14.403  15.915   9.155
 8148POPC   GL134609  14.417  15.926   8.855
 8148POPC   GL234610  14.532  16.040   8.855
 8148POPC   C1A34611  14.421  15.914   8.555
 8148POPC   D2A34612  14.372  15.948   8.255
 8148POPC   C3A34613  14.361  15.988   7.955
 8148POPC   C4A34614  14.362  15.907   7.655
 8148POPC   C1B34615  14.587  16.128   8.555
 8148POPC   C2B34616  14.606  16.182   8.255
 8148POPC   C3B34617  14.553  16.152   7.955
 8148POPC   C4B34618  14.590  16.145   7.655
 8149POPC   NC334619   5.118  29.873   9.455
 8149POPC   PO434620   5.128  29.953   9.155
 8149POPC   GL134621   5.060  29.880   8.855
 8149POPC   GL234622   4.999  30.056   8.855
 8149POPC   C1A34623   5.078  29.887   8.555
 8149POPC   D2A34624   5.140  29.908   8.255
 8149POPC   C3A34625   5.056  29.921   7.955
 8149POPC   C4A34626   5.060  29.903   7.655
 8149POPC   C1B34627   4.922  30.119   8.555
 8149POPC   C2B34628   4.963  30.103   8.255
 8149POPC   C3B34629   4.885  30.107   7.955
 8149POPC   C4B34630   4.982  30.103   7.655
 8150POPC   NC334631  36.902  22.187   9.455
 8150POPC   PO434632  36.871  22.207   9.155
 8150POPC   GL134633  36.881  22.202   8.855
 8150POPC   GL234634  36.937  22.239   8.855
 8150POPC   C1A34635  36.863  22.172   8.555
 8150POPC   D2A34636  36.893  22.146   8.255
 8150POPC   C3A34637  36.895  22.172   7.955
 8150POPC   C4A34638  36.894  22.137   7.655
 8150POPC   C1B34639  36.998  22.394   8.555
 8150POPC   C2B34640  37.041  22.431   8.255
 8150POPC   C3B34641  37.043  22.398   7.955
 8150POPC   C4B34642  36.958  22.358   7.655
 8151POPC   NC334643  22.184   5.094   9.455
 8151POPC   PO434644  22.185   5.142   9.155
 8151POPC   GL134645  22.151   5.082   8.855
 8151POPC   GL234646  22.061   5.036   8.855
 8151POPC   C1A34647  22.200   5.105   8.555
 8151POPC   D2A34648  22.136   5.115   8.255
 8151POPC   C3A34649  22.148   5.141   7.955
 8151POPC   C4A34650  22.195   5.122   7.655
 8151POPC   C1B34651  21.925   4.994   8.555
 8151POPC   C2B34652  21.943   5.019   8.255
 8151POPC   C3B34653  21.905   4.999   7.955
 8151POPC   C4B34654  21.977   5.011   7.655
 8152POPC   NC334655  13.629  35.351   9.455
 8152POPC   PO434656  13.661  35.394   9.155
 8152POPC   GL134657  13.672  35.327   8.855
 8152POPC   GL234658  13.647  35.231   8.855
 8152POPC   C1A34659  13.590  35.347   8.555
 8152POPC   D2A34660  13.668  35.338   8.255
 8152POPC   C3A34661  13.625  35.316   7.955
 8152POPC   C4A34662  13.633  35.354   7.655
 8152POPC   C1B34663  13.790  35.093   8.555
 8152POPC   C2B34664  13.752  35.140   8.255
 8152POPC   C3B34665  13.730  35.088   7.955
 8152POPC   C4B34666  13.733  35.167   7.655
 8153POPC   NC334667  22.936  16.002   9.455
 8153POPC   PO434668  22.974  15.926   9.155
 8153POPC   GL134669  22.940  15.983   8.855
 8153POPC   GL234670  23.061  16.058   8.855
 8153POPC   C1A34671  22.898  15.908   8.555
 8153POPC   D2A34672  22.971  15.956   8.255
 8153POPC   C3A34673  22.954  15.960   7.955
 8153POPC   C4A34674  22.935  16.002   7.655
 8153POPC   C1B34675  23.103  16.115   8.555
 8153POPC   C2B34676  23.142  16.100   8.255
 8153POPC   C3B34677  23.065  16.188   7.955
 8153POPC   C4B34678  23.109  16.131   7.655
 8154POPC   NC334679  36.168  28.334   9.455
 8154POPC   PO434680  36.176  28.366   9.155
 8154POPC   GL134681  36.156  28.319   8.855
 8154POPC   GL234682  36.252  28.361   8.855
 8154POPC   C1A34683  36.177  28.381   8.555
 8154POPC   D2A34684  36.120  28.405   8.255
 8154POPC   C3A34685  36.099  28.383   7.955
 8154POPC   C4A34686  36.178  28.360   7.655
 8154POPC   C1B34687  36.420  28.319   8.555
 8154POPC   C2B34688  36.389  28.376   8.255
 8154POPC   C3B34689  36.346  28.350   7.955
 8154POPC   C4B34690  36.330  28.371   7.655
 8155POPC   NC334691  33.061  27.571   9.455
 8155POPC   PO434692  33.017  27.554   9.155
 8155POPC   GL134693  33.000  27.575   8.855
 8155POPC   GL234694  33.055  27.661   8.855
 8155POPC   C1A34695  32.982  27.595   8.555
 8155POPC   D2A34696  33.021  27.632   8.255
 8155POPC   C3A34697  32.994  27.580   7.955
 8155POPC   C4A34698  33.049  27.622   7.655
 8155POPC   C1B34699  33.108  27.802   8.555
 8155POPC   C2B34700  33.070  27.808   8.255
 8155POPC   C3B34701  33.082  27.846   7.955
 8155POPC   C4B34702  33.092  27.809   7.655
 8156POPC   NC334703  30.727  12.899   9.455
 8156POPC   PO434704  30.676  12.893   9.155
 8156POPC   GL134705  30.703  12.864   8.855
 8156POPC   GL234706  30.685  12.700   8.855
 8156POPC   C1A34707  30.704  12.843   8.555
 8156POPC   D2A34708  30.707  12.834   8.255
 8156POPC   C3A34709  30.741  12.820   7.955
 8156POPC   C4A34710  30.663  12.849   7.655
 8156POPC   C1B34711  30.605  12.610   8.555
 8156POPC   C2B34712  30.625  12.566   8.255
 8156POPC   C3B34713  30.648  12.657   7.955
 8156POPC   C4B34714  30.640  12.655   7.655
 8157POPC   NC334715   7.401  44.648   9.455
 8157POPC   PO434716   7.460  44.651   9.155
 8157POPC   GL134717   7.460  44.621   8.855
 8157POPC   GL234718   7.446  44.555   8.855
 8157POPC   C1A34719   7.406  44.627   8.555
 8157POPC   D2A34720   7.411  44.650   8.255
 8157POPC   C3A34721   7.416  44.621   7.955
 8157POPC   C4A34722   7.462  44.612   7.655
 8157POPC   C1B34723   7.357  44.386   8.555
 8157POPC   C2B34724   7.363  44.404   8.255
 8157POPC   C3B34725   7.400  44.419   7.955
 8157POPC   C4B34726   7.432  44.412   7.655
 8158POPC   NC334727  29.180  10.504   9.455
 8158POPC   PO434728  29.147  10.550   9.155
 8158POPC   GL134729  29.165  10.545   8.855
 8158POPC   GL234730  29.054  10.579   8.855
 8158POPC   C1A34731  29.141  10.499   8.555
 8158POPC   D2A34732  29.116  10.493   8.255
 8158POPC   C3A34733  29.127  10.497   7.955
 8158POPC   C4A34734  29.124  10.521   7.655
 8158POPC   C1B34735  28.906  10.644   8.555
 8158POPC   C2B34736  28.956  10.663   8.255
 8158POPC   C3B34737  28.965  10.652   7.955
 8158POPC   C4B34738  28.886  10.665   7.655
 8159POPC   NC334739   9.719  19.799   9.455
 8159POPC   PO434740   9.790  19.803   9.155
 8159POPC   GL134741   9.728  19.883   8.855
 8159POPC   GL234742   9.671  19.931   8.855
 8159POPC   C1A34743   9.707  19.792   8.555
 8159POPC   D2A34744   9.796  19.785   8.255
 8159POPC   C3A34745   9.772  19.811   7.955
 8159POPC   C4A34746   9.748  19.818   7.655
 8159POPC   C1B34747   9.661  20.103   8.555
 8159POPC   C2B34748   9.671  20.076   8.255
 8159POPC   C3B34749   9.688  20.050   7.955
 8159POPC   C4B34750   9.626  20.022   7.655
 8160POPC   NC334751  15.914  41.510   9.455
 8160POPC   PO434752  15.966  41.538   9.155
 8160POPC   GL134753  15.977  41.571   8.855
 8160POPC   GL234754  15.946  41.443   8.855
 8160POPC   C1A34755  15.947  41.524   8.555
 8160POPC   D2A34756  15.973  41.589   8.255
 8160POPC   C3A34757  15.996  41.567   7.955
 8160POPC   C4A34758  15.984  41.581   7.655
 8160POPC   C1B34759  15.863  41.275   8.555
 8160POPC   C2B34760  15.852  41.306   8.255
 8160POPC   C3B34761  15.911  41.300   7.955
 8160POPC   C4B34762  15.926  41.286   7.655
 8161POPC   NC334763  10.518  32.245   9.455
 8161POPC   PO434764  10.568  32.257   9.155
 8161POPC   GL134765  10.481  32.280   8.855
 8161POPC   GL234766  10.569  32.330   8.855
 8161POPC   C1A34767  10.537  32.218   8.555
 8161POPC   D2A34768  10.527  32.229   8.255
 8161POPC   C3A34769  10.505  32.252   7.955
 8161POPC   C4A34770  10.517  32.254   7.655
 8161POPC   C1B34771  10.578  32.523   8.555
 8161POPC   C2B34772  10.485  32.468   8.255
 8161POPC   C3B34773  10.498  32.536   7.955
 8161POPC   C4B34774  10.484  32.490   7.655
 8162POPC   NC334775   5.898  36.854   9.455
 8162POPC   PO434776   5.865  36.927   9.155
 8162POPC   GL134777   5.843  36.948   8.855
 8162POPC   GL234778   5.908  37.031   8.855
 8162POPC   C1A34779   5.824  36.856   8.555
 8162POPC   D2A34780   5.840  36.859   8.255
 8162POPC   C3A34781   5.873  36.856   7.955
 8162POPC   C4A34782   5.830  36.884   7.655
 8162POPC   C1B34783   6.056  37.077   8.555
 8162POPC   C2B34784   5.968  37.062   8.255
 8162POPC   C3B34785   5.973  37.122   7.955
 8162POPC   C4B34786   6.004  37.099   7.655
 8163POPC   NC334787   3.577  20.628   9.455
 8163POPC   PO434788   3.557  20.611   9.155
 8163POPC   GL134789   3.495  20.583   8.855
 8163POPC   GL234790   3.468  20.504   8.855
 8163POPC   C1A34791   3.561  20.619   8.555
 8163POPC   D2A34792   3.527  20.598   8.255
 8163POPC   C3A34793   3.590  20.577   7.955
 8163POPC   C4A34794   3.509  20.568   7.655
 8163POPC   C1B34795   3.417  20.358   8.555
 8163POPC   C2B34796   3.401  20.392   8.255
 8163POPC   C3B34797   3.443  20.404   7.955
 8163POPC   C4B34798   3.408  20.403   7.655
 8164POPC   NC334799  44.651  31.447   9.455
 8164POPC   PO434800  44.691  31.514   9.155
 8164POPC   GL134801  44.685  31.463   8.855
 8164POPC   GL234802  44.716  31.598   8.855
 8164POPC   C1A34803  44.695  31.474   8.555
 8164POPC   D2A34804  44.672  31.476   8.255
 8164POPC   C3A34805  44.682  31.495   7.955
 8164POPC   C4A34806  44.627  31.476   7.655
 8164POPC   C1B34807  44.791  31.729   8.555
 8164POPC   C2B34808  44.720  31.690   8.255
 8164POPC   C3B34809  44.780  31.688   7.955
 8164POPC   C4B34810  44.802  31.719   7.655
 8165POPC   NC334811  27.550  23.741   9.455
 8165POPC   PO434812  27.596  23.686   9.155
 8165POPC   GL134813  27.585  23.683   8.855
 8165POPC   GL234814  27.449  23.734   8.855
 8165POPC   C1A34815  27.596  23.729   8.555
 8165POPC   D2A34816  27.587  23.675   8.255
 8165POPC   C3A34817  27.584  23.725   7.955
 8165POPC   C4A34818  27.637  23.755   7.655
 8165POPC   C1B34819  27.363  23.802   8.555
 8165POPC   C2B34820  27.390  23.806   8.255
 8165POPC   C3B34821  27.319  23.775   7.955
 8165POPC   C4B34822  27.368  23.812   7.655
 8166POPC   NC334823  35.336   5.880   9.455
 8166POPC   PO434824  35.397   5.828   9.155
 8166POPC   GL134825  35.379   5.876   8.855
 8166POPC   GL234826  35.220   5.947   8.855
 8166POPC   C1A34827  35.343   5.906   8.555
 8166POPC   D2A34828  35.368   5.849   8.255
 8166POPC   C3A34829  35.383   5.866   7.955
 8166POPC   C4A34830  35.341   5.874   7.655
 8166POPC   C1B34831  35.187   6.065   8.555
 8166POPC   C2B34832  35.215   6.018   8.255
 8166POPC   C3B34833  35.222   6.088   7.955
 8166POPC   C4B34834  35.197   6.052   7.655
 8167POPC   NC334835  41.596  19.861   9.455
 8167POPC   PO434836  41.547  19.845   9.155
 8167POPC   GL134837  41.593  19.792   8.855
 8167POPC   GL234838  41.671  19.821   8.855
 8167POPC   C1A34839  41.544  19.861   8.555
 8167POPC   D2A34840  41.558  19.844   8.255
 8167POPC   C3A34841  41.578  19.845   7.955
 8167POPC   C4A34842  41.580  19.799   7.655
 8167POPC   C1B34843  41.776  19.749   8.555
 8167POPC   C2B34844  41.841  19.783   8.255
 8167POPC   C3B34845  41.769  19.816   7.955
 8167POPC   C4B34846  41.827  19.743   7.655
 8168POPC   NC334847  23.712  40.753   9.455
 8168POPC   PO434848  23.725  40.772   9.155
 8168POPC   GL134849  23.725  40.762   8.855
 8168POPC   GL234850  23.650  40.866   8.855
 8168POPC   C1A34851  23.698  40.750   8.555
 8168POPC   D2A34852  23.675  40.830   8.255
 8168POPC   C3A34853  23.691  40.773   7.955
 8168POPC   C4A34854  23.752  40.778   7.655
 8168POPC   C1B34855  23.485  40.910   8.555
 8168POPC   C2B34856  23.489  40.965   8.255
 8168POPC   C3B34857  23.471  40.884   7.955
 8168POPC   C4B34858  23.497  40.886   7.655
 8169POPC   NC334859  12.832  39.999   9.455
 8169POPC   PO434860  12.841  39.957   9.155
 8169POPC   GL134861  12.841  40.043   8.855
 8169POPC   GL234862  12.936  39.927   8.855
 8169POPC   C1A34863  12.814  40.026   8.555
 8169POPC   D2A34864  12.883  40.034   8.255
 8169POPC   C3A34865  12.895  40.011   7.955
 8169POPC   C4A34866  12.828  40.035   7.655
 8169POPC   C1B34867  13.088  39.929   8.555
 8169POPC   C2B34868  13.059  39.845   8.255
 8169POPC   C3B34869  13.066  39.938   7.955
 8169POPC   C4B34870  13.025  39.886   7.655
 8170POPC   NC334871  19.031  15.209   9.455
 8170POPC   PO434872  19.095  15.194   9.155
 8170POPC   GL134873  19.108  15.182   8.855
 8170POPC   GL234874  19.208  15.188   8.855
 8170POPC   C1A34875  19.085  15.224   8.555
 8170POPC   D2A34876  19.028  15.167   8.255
 8170POPC   C3A34877  19.098  15.169   7.955
 8170POPC   C4A34878  19.066  15.221   7.655
 8170POPC   C1B34879  19.354  15.225   8.555
 8170POPC   C2B34880  19.259  15.206   8.255
 8170POPC   C3B34881  19.334  15.192   7.955
 8170POPC   C4B34882  19.302  15.181   7.655
 8171POPC   NC334883  44.676   9.002   9.455
 8171POPC   PO434884  44.682   8.989   9.155
 8171POPC   GL134885  44.641   8.960   8.855
 8171POPC   GL234886  44.744   9.017   8.855
 8171POPC   C1A34887  44.691   8.972   8.555
 8171POPC   D2A34888  44.639   8.935   8.255
 8171POPC   C3A34889  44.661   8.963   7.955
 8171POPC   C4A34890  44.644   8.954   7.655
 8171POPC   C1B34891  44.862   9.054   8.555
 8171POPC   C2B34892  44.928   9.079   8.255
 8171POPC   C3B34893  44.851   9.066   7.955
 8171POPC   C4B34894  44.855   9.103   7.655
 8172POPC   NC334895  22.158  31.444   9.455
 8172POPC   PO434896  22.174  31.454   9.155
 8172POPC   GL134897  22.145  31.461   8.855
 8172POPC   GL234898  22.118  31.356   8.855
 8172POPC   C1A34899  22.160  31.469   8.555
 8172POPC   D2A34900  22.198  31.499   8.255
 8172POPC   C3A34901  22.205  31.463   7.955
 8172POPC   C4A34902  22.195  31.468   7.655
 8172POPC   C1B34903  22.018  31.250   8.555
 8172POPC   C2B34904  21.985  31.296   8.255
 8172POPC   C3B34905  21.959  31.336   7.955
 8172POPC   C4B34906  21.971  31.292   7.655
 8173POPC   NC334907  29.938  13.675   9.455
 8173POPC   PO434908  29.946  13.593   9.155
 8173POPC   GL134909  29.925  13.600   8.855
 8173POPC   GL234910  29.903  13.768   8.855
 8173POPC   C1A34911  29.930  13.592   8.555
 8173POPC   D2A34912  29.880  13.583   8.255
 8173POPC   C3A34913  29.899  13.651   7.955
 8173POPC   C4A34914  29.897  13.658   7.655
 8173POPC   C1B34915  29.848  13.838   8.555
 8173POPC   C2B34916  29.853  13.906   8.255
 8173POPC   C3B34917  29.782  13.845   7.955
 8173POPC   C4B34918  29.840  13.823   7.655
 8174POPC   NC334919   3.582  31.449   9.455
 8174POPC   PO434920   3.586  31.501   9.155
 8174POPC   GL134921   3.567  31.472   8.855
 8174POPC   GL234922   3.648  31.466   8.855
 8174POPC   C1A34923   3.586  31.503   8.555
 8174POPC   D2A34924   3.548  31.451   8.255
 8174POPC   C3A34925   3.543  31.446   7.955
 8174POPC   C4A34926   3.502  31.514   7.655
 8174POPC   C1B34927   3.787  31.438   8.555
 8174POPC   C2B34928   3.793  31.400   8.255
 8174POPC   C3B34929   3.749  31.410   7.955
 8174POPC   C4B34930   3.825  31.402   7.655
 8175POPC   NC334931  43.125   3.560   9.455
 8175POPC   PO434932  43.082   3.583   9.155
 8175POPC   GL134933  43.094   3.521   8.855
 8175POPC   GL234934  43.095   3.677   8.855
 8175POPC   C1A34935  43.118   3.526   8.555
 8175POPC   D2A34936  43.130   3.585   8.255
 8175POPC   C3A34937  43.131   3.527   7.955
 8175POPC   C4A34938  43.085   3.496   7.655
 8175POPC   C1B34939  43.009   3.827   8.555
 8175POPC   C2B34940  43.067   3.774   8.255
 8175POPC   C3B34941  43.091   3.808   7.955
 8175POPC   C4B34942  43.059   3.814   7.655
 8176POPC   NC334943   3.576  19.101   9.455
 8176POPC   PO434944   3.548  19.057   9.155
 8176POPC   GL134945   3.588  19.075   8.855
 8176POPC   GL234946   3.618  19.034   8.855
 8176POPC   C1A34947   3.574  19.093   8.555
 8176POPC   D2A34948   3.565  19.021   8.255
 8176POPC   C3A34949   3.499  19.078   7.955
 8176POPC   C4A34950   3.569  19.092   7.655
 8176POPC   C1B34951   3.757  19.104   8.555
 8176POPC   C2B34952   3.759  19.104   8.255
 8176POPC   C3B34953   3.750  19.114   7.955
 8176POPC   C4B34954   3.742  19.098   7.655
 8177POPC   NC334955  25.309  43.865   9.455
 8177POPC   PO434956  25.256  43.849   9.155
 8177POPC   GL134957  25.271  43.919   8.855
 8177POPC   GL234958  25.217  43.764   8.855
 8177POPC   C1A34959  25.300  43.885   8.555
 8177POPC   D2A34960  25.268  43.933   8.255
 8177POPC   C3A34961  25.303  43.847   7.955
 8177POPC   C4A34962  25.232  43.906   7.655
 8177POPC   C1B34963  25.114  43.695   8.555
 8177POPC   C2B34964  25.115  43.710   8.255
 8177POPC   C3B34965  25.056  43.686   7.955
 8177POPC   C4B34966  25.115  43.767   7.655
 8178POPC   NC334967  26.793  22.946   9.455
 8178POPC   PO434968  26.816  22.947   9.155
 8178POPC   GL134969  26.768  22.913   8.855
 8178POPC   GL234970  26.702  22.878   8.855
 8178POPC   C1A34971  26.833  22.958   8.555
 8178POPC   D2A34972  26.817  22.985   8.255
 8178POPC   C3A34973  26.825  22.974   7.955
 8178POPC   C4A34974  26.836  22.966   7.655
 8178POPC   C1B34975  26.655  22.752   8.555
 8178POPC   C2B34976  26.587  22.819   8.255
 8178POPC   C3B34977  26.659  22.827   7.955
 8178POPC   C4B34978  26.605  22.779   7.655
 8179POPC   NC334979  16.741  41.544   9.455
 8179POPC   PO434980  16.728  41.585   9.155
 8179POPC   GL134981  16.770  41.535   8.855
 8179POPC   GL234982  16.771  41.619   8.855
 8179POPC   C1A34983  16.708  41.587   8.555
 8179POPC   D2A34984  16.705  41.555   8.255
 8179POPC   C3A34985  16.758  41.599   7.955
 8179POPC   C4A34986  16.698  41.542   7.655
 8179POPC   C1B34987  16.878  41.806   8.555
 8179POPC   C2B34988  16.813  41.788   8.255
 8179POPC   C3B34989  16.883  41.791   7.955
 8179POPC   C4B34990  16.852  41.783   7.655
 8180POPC   NC334991  37.713  29.910   9.455
 8180POPC   PO434992  37.651  29.961   9.155
 8180POPC   GL134993  37.639  29.947   8.855
 8180POPC   GL234994  37.639  30.023   8.855
 8180POPC   C1A34995  37.691  29.969   8.555
 8180POPC   D2A34996  37.661  29.905   8.255
 8180POPC   C3A34997  37.711  29.955   7.955
 8180POPC   C4A34998  37.661  29.903   7.655
 8180POPC   C1B34999  37.694  30.189   8.555
 8180POPC   C2B35000  37.689  30.214   8.255
 8180POPC   C3B35001  37.677  30.182   7.955
 8180POPC   C4B35002  37.657  30.194   7.655
 8181POPC   NC335003  15.227  37.634   9.455
 8181POPC   PO435004  15.200  37.713   9.155
 8181POPC   GL135005  15.150  37.722   8.855
 8181POPC   GL235006  15.171  37.591   8.855
 8181POPC   C1A35007  15.199  37.688   8.555
 8181POPC   D2A35008  15.186  37.702   8.255
 8181POPC   C3A35009  15.147  37.728   7.955
 8181POPC   C4A35010  15.159  37.657   7.655
 8181POPC   C1B35011  15.220  37.412   8.555
 8181POPC   C2B35012  15.148  37.450   8.255
 8181POPC   C3B35013  15.161  37.414   7.955
 8181POPC   C4B35014  15.192  37.450   7.655
 8182POPC   NC335015  15.222  44.630   9.455
 8182POPC   PO435016  15.206  44.612   9.155
 8182POPC   GL135017  15.216  44.616   8.855
 8182POPC   GL235018  15.155  44.749   8.855
 8182POPC   C1A35019  15.142  44.631   8.555
 8182POPC   D2A35020  15.151  44.631   8.255
 8182POPC   C3A35021  15.165  44.627   7.955
 8182POPC   C4A35022  15.146  44.701   7.655
 8182POPC   C1B35023  15.195  44.934   8.555
 8182POPC   C2B35024  15.226  44.865   8.255
 8182POPC   C3B35025  15.176  44.927   7.955
 8182POPC   C4B35026  15.192  44.899   7.655
 8183POPC   NC335027  33.765   0.400   9.455
 8183POPC   PO435028  33.825   0.410   9.155
 8183POPC   GL135029  33.840   0.469   8.855
 8183POPC   GL235030  33.744   0.574   8.855
 8183POPC   C1A35031  33.783   0.434   8.555
 8183POPC   D2A35032  33.763   0.434   8.255
 8183POPC   C3A35033  33.752   0.425   7.955
 8183POPC   C4A35034  33.770   0.443   7.655
 8183POPC   C1B35035  33.745   0.662   8.555
 8183POPC   C2B35036  33.726   0.673   8.255
 8183POPC   C3B35037  33.673   0.717   7.955
 8183POPC   C4B35038  33.766   0.680   7.655
 8184POPC   NC335039  32.207  30.721   9.455
 8184POPC   PO435040  32.271  30.695   9.155
 8184POPC   GL135041  32.223  30.685   8.855
 8184POPC   GL235042  32.342  30.755   8.855
 8184POPC   C1A35043  32.202  30.673   8.555
 8184POPC   D2A35044  32.288  30.704   8.255
 8184POPC   C3A35045  32.236  30.691   7.955
 8184POPC   C4A35046  32.257  30.726   7.655
 8184POPC   C1B35047  32.502  30.797   8.555
 8184POPC   C2B35048  32.495  30.765   8.255
 8184POPC   C3B35049  32.465  30.834   7.955
 8184POPC   C4B35050  32.456  30.783   7.655
 8185POPC   NC335051  23.675  23.683   9.455
 8185POPC   PO435052  23.694  23.676   9.155
 8185POPC   GL135053  23.669  23.740   8.855
 8185POPC   GL235054  23.727  23.877   8.855
 8185POPC   C1A35055  23.754  23.749   8.555
 8185POPC   D2A35056  23.754  23.739   8.255
 8185POPC   C3A35057  23.721  23.738   7.955
 8185POPC   C4A35058  23.679  23.715   7.655
 8185POPC   C1B35059  23.636  23.907   8.555
 8185POPC   C2B35060  23.702  23.975   8.255
 8185POPC   C3B35061  23.655  23.907   7.955
 8185POPC   C4B35062  23.646  23.978   7.655
 8186POPC   NC335063  25.992  23.726   9.455
 8186POPC   PO435064  26.067  23.694   9.155
 8186POPC   GL135065  26.086  23.729   8.855
 8186POPC   GL235066  26.104  23.787   8.855
 8186POPC   C1A35067  26.052  23.690   8.555
 8186POPC   D2A35068  26.069  23.708   8.255
 8186POPC   C3A35069  26.012  23.697   7.955
 8186POPC   C4A35070  26.062  23.709   7.655
 8186POPC   C1B35071  26.115  23.944   8.555
 8186POPC   C2B35072  26.111  23.902   8.255
 8186POPC   C3B35073  26.164  23.961   7.955
 8186POPC   C4B35074  26.158  23.925   7.655
 8187POPC   NC335075   4.281  37.641   9.455
 8187POPC   PO435076   4.297  37.651   9.155
 8187POPC   GL135077   4.274  37.633   8.855
 8187POPC   GL235078   4.396  37.708   8.855
 8187POPC   C1A35079   4.330  37.686   8.555
 8187POPC   D2A35080   4.317  37.634   8.255
 8187POPC   C3A35081   4.342  37.662   7.955
 8187POPC   C4A35082   4.317  37.659   7.655
 8187POPC   C1B35083   4.587  37.750   8.555
 8187POPC   C2B35084   4.573  37.782   8.255
 8187POPC   C3B35085   4.527  37.722   7.955
 8187POPC   C4B35086   4.590  37.708   7.655
 8188POPC   NC335087   2.723  26.043   9.455
 8188POPC   PO435088   2.777  26.003   9.155
 8188POPC   GL135089   2.777  25.998   8.855
 8188POPC   GL235090   2.717  26.156   8.855
 8188POPC   C1A35091   2.775  26.001   8.555
 8188POPC   D2A35092   2.782  26.083   8.255
 8188POPC   C3A35093   2.773  26.051   7.955
 8188POPC   C4A35094   2.722  26.028   7.655
 8188POPC   C1B35095   2.619  26.215   8.555
 8188POPC   C2B35096   2.616  26.308   8.255
 8188POPC   C3B35097   2.644  26.303   7.955
 8188POPC   C4B35098   2.646  26.221   7.655
 8189POPC   NC335099  11.325   1.943   9.455
 8189POPC   PO435100  11.289   1.984   9.155
 8189POPC   GL135101  11.266   1.994   8.855
 8189POPC   GL235102  11.408   1.945   8.855
 8189POPC   C1A35103  11.298   1.949   8.555
 8189POPC   D2A35104  11.251   1.987   8.255
 8189POPC   C3A35105  11.283   1.958   7.955
 8189POPC   C4A35106  11.303   2.021   7.655
 8189POPC   C1B35107  11.581   1.991   8.555
 8189POPC   C2B35108  11.501   1.974   8.255
 8189POPC   C3B35109  11.509   1.930   7.955
 8189POPC   C4B35110  11.519   1.976   7.655
 8190POPC   NC335111  44.674  13.622   9.455
 8190POPC   PO435112  44.633  13.595   9.155
 8190POPC   GL135113  44.708  13.611   8.855
 8190POPC   GL235114  44.622  13.708   8.855
 8190POPC   C1A35115  44.704  13.585   8.555
 8190POPC   D2A35116  44.628  13.595   8.255
 8190POPC   C3A35117  44.650  13.595   7.955
 8190POPC   C4A35118  44.660  13.668   7.655
 8190POPC   C1B35119  44.699  13.866   8.555
 8190POPC   C2B35120  44.628  13.881   8.255
 8190POPC   C3B35121  44.661  13.902   7.955
 8190POPC   C4B35122  44.668  13.885   7.655
 8191POPC   NC335123   2.798  44.637   9.455
 8191POPC   PO435124   2.790  44.711   9.155
 8191POPC   GL135125   2.771  44.628   8.855
 8191POPC   GL235126   2.681  44.566   8.855
 8191POPC   C1A35127   2.724  44.666   8.555
 8191POPC   D2A35128   2.719  44.642   8.255
 8191POPC   C3A35129   2.801  44.639   7.955
 8191POPC   C4A35130   2.782  44.649   7.655
 8191POPC   C1B35131   2.632  44.526   8.555
 8191POPC   C2B35132   2.555  44.443   8.255
 8191POPC   C3B35133   2.613  44.501   7.955
 8191POPC   C4B35134   2.613  44.491   7.655
 8192POPC   NC335135  33.792  35.398   9.455
 8192POPC   PO435136  33.776  35.340   9.155
 8192POPC   GL135137  33.798  35.347   8.855
 8192POPC   GL235138  33.927  35.342   8.855
 8192POPC   C1A35139  33.822  35.380   8.555
 8192POPC   D2A35140  33.792  35.393   8.255
 8192POPC   C3A35141  33.798  35.335   7.955
 8192POPC   C4A35142  33.751  35.365   7.655
 8192POPC   C1B35143  34.063  35.264   8.555
 8192POPC   C2B35144  34.094  35.320   8.255
 8192POPC   C3B35145  34.089  35.313   7.955
 8192POPC   C4B35146  34.016  35.258   7.655
 8193POPC   NC335147  22.187   1.946   9.455
 8193POPC   PO435148  22.146   1.967   9.155
 8193POPC   GL135149  22.166   1.955   8.855
 8193POPC   GL235150  22.227   1.895   8.855
 8193POPC   C1A35151  22.170   1.975   8.555
 8193POPC   D2A35152  22.155   2.002   8.255
 8193POPC   C3A35153  22.123   2.005   7.955
 8193POPC   C4A35154  22.157   1.992   7.655
 8193POPC   C1B35155  22.210   1.710   8.555
 8193POPC   C2B35156  22.273   1.764   8.255
 8193POPC   C3B35157  22.298   1.762   7.955
 8193POPC   C4B35158  22.258   1.741   7.655
 8194POPC   NC335159   0.397   2.739   9.455
 8194POPC   PO435160   0.465   2.770   9.155
 8194POPC   GL135161   0.461   2.789   8.855
 8194POPC   GL235162   0.531   2.883   8.855
 8194POPC   C1A35163   0.483   2.731   8.555
 8194POPC   D2A35164   0.391   2.801   8.255
 8194POPC   C3A35165   0.483   2.765   7.955
 8194POPC   C4A35166   0.403   2.801   7.655
 8194POPC   C1B35167   0.512   3.018   8.555
 8194POPC   C2B35168   0.517   3.030   8.255
 8194POPC   C3B35169   0.581   2.966   7.955
 8194POPC   C4B35170   0.570   2.961   7.655
 8195POPC   NC335171  25.260  17.554   9.455
 8195POPC   PO435172  25.253  17.551   9.155
 8195POPC   GL135173  25.272  17.555   8.855
 8195POPC   GL235174  25.226  17.582   8.855
 8195POPC   C1A35175  25.253  17.509   8.555
 8195POPC   D2A35176  25.288  17.498   8.255
 8195POPC   C3A35177  25.271  17.530   7.955
 8195POPC   C4A35178  25.271  17.515   7.655
 8195POPC   C1B35179  25.170  17.717   8.555
 8195POPC   C2B35180  25.144  17.768   8.255
 8195POPC   C3B35181  25.147  17.698   7.955
 8195POPC   C4B35182  25.199  17.788   7.655
 8196POPC   NC335183   9.764   8.923   9.455
 8196POPC   PO435184   9.713   8.955   9.155
 8196POPC   GL135185   9.716   8.953   8.855
 8196POPC   GL235186   9.837   8.932   8.855
 8196POPC   C1A35187   9.720   9.007   8.555
 8196POPC   D2A35188   9.793   8.965   8.255
 8196POPC   C3A35189   9.751   9.007   7.955
 8196POPC   C4A35190   9.798   8.931   7.655
 8196POPC   C1B35191  10.036   9.007   8.555
 8196POPC   C2B35192   9.974   8.946   8.255
 8196POPC   C3B35193   9.983   8.988   7.955
 8196POPC   C4B35194  10.016   9.005   7.655
 8197POPC   NC335195  34.578  20.651   9.455
 8197POPC   PO435196  34.532  20.635   9.155
 8197POPC   GL135197  34.560  20.629   8.855
 8197POPC   GL235198  34.628  20.737   8.855
 8197POPC   C1A35199  34.540  20.569   8.555
 8197POPC   D2A35200  34.602  20.617   8.255
 8197POPC   C3A35201  34.559  20.653   7.955
 8197POPC   C4A35202  34.619  20.580   7.655
 8197POPC   C1B35203  34.718  20.838   8.555
 8197POPC   C2B35204  34.778  20.755   8.255
 8197POPC   C3B35205  34.720  20.817   7.955
 8197POPC   C4B35206  34.720  20.783   7.655
 8198POPC   NC335207  29.184  35.365   9.455
 8198POPC   PO435208  29.107  35.375   9.155
 8198POPC   GL135209  29.155  35.363   8.855
 8198POPC   GL235210  29.012  35.385   8.855
 8198POPC   C1A35211  29.140  35.340   8.555
 8198POPC   D2A35212  29.176  35.309   8.255
 8198POPC   C3A35213  29.153  35.350   7.955
 8198POPC   C4A35214  29.099  35.324   7.655
 8198POPC   C1B35215  28.929  35.453   8.555
 8198POPC   C2B35216  28.945  35.473   8.255
 8198POPC   C3B35217  28.968  35.463   7.955
 8198POPC   C4B35218  28.943  35.494   7.655
 8199POPC   NC335219   1.200  19.790   9.455
 8199POPC   PO435220   1.240  19.854   9.155
 8199POPC   GL135221   1.214  19.823   8.855
 8199POPC   GL235222   1.298  19.858   8.855
 8199POPC   C1A35223   1.255  19.877   8.555
 8199POPC   D2A35224   1.254  19.856   8.255
 8199POPC   C3A35225   1.232  19.808   7.955
 8199POPC   C4A35226   1.219  19.855   7.655
 8199POPC   C1B35227   1.405  19.917   8.555
 8199POPC   C2B35228   1.441  19.945   8.255
 8199POPC   C3B35229   1.422  19.922   7.955
 8199POPC   C4B35230   1.479  19.966   7.655
 8200POPC   NC335231  18.326  34.570   9.455
 8200POPC   PO435232  18.243  34.559   9.155
 8200POPC   GL135233  18.287  34.542   8.855
 8200POPC   GL235234  18.311  34.458   8.855
 8200POPC   C1A35235  18.251  34.622   8.555
 8200POPC   D2A35236  18.269  34.559   8.255
 8200POPC   C3A35237  18.270  34.557   7.955
 8200POPC   C4A35238  18.318  34.606   7.655
 8200POPC   C1B35239  18.352  34.372   8.555
 8200POPC   C2B35240  18.322  34.338   8.255
 8200POPC   C3B35241  18.401  34.316   7.955
 8200POPC   C4B35242  18.329  34.311   7.655
 8201POPC   NC335243  41.560  33.780   9.455
 8201POPC   PO435244  41.574  33.784   9.155
 8201POPC   GL135245  41.530  33.850   8.855
 8201POPC   GL235246  41.512  33.875   8.855
 8201POPC   C1A35247  41.578  33.771   8.555
 8201POPC   D2A35248  41.584  33.777   8.255
 8201POPC   C3A35249  41.602  33.766   7.955
 8201POPC   C4A35250  41.536  33.757   7.655
 8201POPC   C1B35251  41.566  34.046   8.555
 8201POPC   C2B35252  41.556  34.080   8.255
 8201POPC   C3B35253  41.503  34.095   7.955
 8201POPC   C4B35254  41.578  34.065   7.655
 8202POPC   NC335255  34.544  39.262   9.455
 8202POPC   PO435256  34.574  39.222   9.155
 8202POPC   GL135257  34.574  39.195   8.855
 8202POPC   GL235258  34.682  39.168   8.855
 8202POPC   C1A35259  34.530  39.187   8.555
 8202POPC   D2A35260  34.625  39.238   8.255
 8202POPC   C3A35261  34.546  39.218   7.955
 8202POPC   C4A35262  34.618  39.276   7.655
 8202POPC   C1B35263  34.814  39.079   8.555
 8202POPC   C2B35264  34.777  39.101   8.255
 8202POPC   C3B35265  34.772  39.062   7.955
 8202POPC   C4B35266  34.746  39.079   7.655
 8203POPC   NC335267  36.897  44.635   9.455
 8203POPC   PO435268  36.904  44.623   9.155
 8203POPC   GL135269  36.861  44.629   8.855
 8203POPC   GL235270  36.920  44.538   8.855
 8203POPC   C1A35271  36.948  44.693   8.555
 8203POPC   D2A35272  36.861  44.677   8.255
 8203POPC   C3A35273  36.919  44.703   7.955
 8203POPC   C4A35274  36.910  44.708   7.655
 8203POPC   C1B35275  36.869  44.450   8.555
 8203POPC   C2B35276  36.913  44.436   8.255
 8203POPC   C3B35277  36.847  44.434   7.955
 8203POPC   C4B35278  36.824  44.432   7.655
 8204POPC   NC335279  22.898  24.490   9.455
 8204POPC   PO435280  22.970  24.492   9.155
 8204POPC   GL135281  22.910  24.508   8.855
 8204POPC   GL235282  23.024  24.487   8.855
 8204POPC   C1A35283  22.906  24.490   8.555
 8204POPC   D2A35284  22.938  24.518   8.255
 8204POPC   C3A35285  22.896  24.502   7.955
 8204POPC   C4A35286  22.946  24.502   7.655
 8204POPC   C1B35287  23.215  24.459   8.555
 8204POPC   C2B35288  23.174  24.440   8.255
 8204POPC   C3B35289  23.159  24.420   7.955
 8204POPC   C4B35290  23.141  24.446   7.655
 8205POPC   NC335291   2.778  43.085   9.455
 8205POPC   PO435292   2.809  43.117   9.155
 8205POPC   GL135293   2.766  43.121   8.855
 8205POPC   GL235294   2.915  43.059   8.855
 8205POPC   C1A35295   2.785  43.068   8.555
 8205POPC   D2A35296   2.762  43.084   8.255
 8205POPC   C3A35297   2.795  43.145   7.955
 8205POPC   C4A35298   2.719  43.120   7.655
 8205POPC   C1B35299   3.023  42.996   8.555
 8205POPC   C2B35300   3.015  43.006   8.255
 8205POPC   C3B35301   3.030  43.002   7.955
 8205POPC   C4B35302   3.031  43.053   7.655
 8206POPC   NC335303  22.894  22.140   9.455
 8206POPC   PO435304  22.980  22.165   9.155
 8206POPC   GL135305  22.891  22.124   8.855
 8206POPC   GL235306  22.977  22.034   8.855
 8206POPC   C1A35307  22.933  22.114   8.555
 8206POPC   D2A35308  22.957  22.121   8.255
 8206POPC   C3A35309  22.983  22.146   7.955
 8206POPC   C4A35310  22.921  22.119   7.655
 8206POPC   C1B35311  22.971  21.970   8.555
 8206POPC   C2B35312  22.999  21.970   8.255
 8206POPC   C3B35313  23.031  21.937   7.955
 8206POPC   C4B35314  23.004  21.895   7.655
 8207POPC   NC335315  40.738  42.379   9.455
 8207POPC   PO435316  40.806  42.327   9.155
 8207POPC   GL135317  40.818  42.345   8.855
 8207POPC   GL235318  40.821  42.491   8.855
 8207POPC   C1A35319  40.739  42.336   8.555
 8207POPC   D2A35320  40.756  42.312   8.255
 8207POPC   C3A35321  40.800  42.302   7.955
 8207POPC   C4A35322  40.737  42.334   7.655
 8207POPC   C1B35323  40.827  42.547   8.555
 8207POPC   C2B35324  40.883  42.618   8.255
 8207POPC   C3B35325  40.808  42.552   7.955
 8207POPC   C4B35326  40.868  42.558   7.655
 8208POPC   NC335327   8.986  20.641   9.455
 8208POPC   PO435328   8.980  20.570   9.155
 8208POPC   GL135329   8.960  20.620   8.855
 8208POPC   GL235330   8.926  20.710   8.855
 8208POPC   C1A35331   8.991  20.574   8.555
 8208POPC   D2A35332   9.005  20.570   8.255
 8208POPC   C3A35333   8.980  20.612   7.955
 8208POPC   C4A35334   8.925  20.609   7.655
 8208POPC   C1B35335   8.898  20.866   8.555
 8208POPC   C2B35336   8.892  20.851   8.255
 8208POPC   C3B35337   8.902  20.899   7.955
 8208POPC   C4B35338   8.901  20.841   7.655
 8209POPC   NC335339  23.728  31.447   9.455
 8209POPC   PO435340  23.703  31.438   9.155
 8209POPC   GL135341  23.700  31.484   8.855
 8209POPC   GL235342  23.844  31.417   8.855
 8209POPC   C1A35343  23.723  31.427   8.555
 8209POPC   D2A35344  23.706  31.432   8.255
 8209POPC   C3A35345  23.687  31.430   7.955
 8209POPC   C4A35346  23.762  31.452   7.655
 8209POPC   C1B35347  23.970  31.420   8.555
 8209POPC   C2B35348  23.974  31.388   8.255
 8209POPC   C3B35349  23.986  31.372   7.955
 8209POPC   C4B35350  23.942  31.395   7.655
 8210POPC   NC335351  17.514  43.883   9.455
 8210POPC   PO435352  17.486  43.908   9.155
 8210POPC   GL135353  17.550  43.878   8.855
 8210POPC   GL235354  17.362  43.905   8.855
 8210POPC   C1A35355  17.521  43.846   8.555
 8210POPC   D2A35356  17.500  43.886   8.255
 8210POPC   C3A35357  17.550  43.934   7.955
 8210POPC   C4A35358  17.488  43.845   7.655
 8210POPC   C1B35359  17.302  43.899   8.555
 8210POPC   C2B35360  17.217  43.929   8.255
 8210POPC   C3B35361  17.231  43.887   7.955
 8210POPC   C4B35362  17.267  43.932   7.655
 8211POPC   NC335363  36.905  12.821   9.455
 8211POPC   PO435364  36.939  12.883   9.155
 8211POPC   GL135365  36.952  12.875   8.855
 8211POPC   GL235366  36.983  12.755   8.855
 8211POPC   C1A35367  36.934  12.811   8.555
 8211POPC   D2A35368  36.900  12.855   8.255
 8211POPC   C3A35369  36.938  12.852   7.955
 8211POPC   C4A35370  36.891  12.841   7.655
 8211POPC   C1B35371  36.984  12.641   8.555
 8211POPC   C2B35372  37.033  12.651   8.255
 8211POPC   C3B35373  36.986  12.604   7.955
 8211POPC   C4B35374  37.049  12.626   7.655
 8212POPC   NC335375  12.101  39.257   9.455
 8212POPC   PO435376  12.075  39.253   9.155
 8212POPC   GL135377  12.038  39.233   8.855
 8212POPC   GL235378  12.159  39.191   8.855
 8212POPC   C1A35379  12.077  39.251   8.555
 8212POPC   D2A35380  12.055  39.207   8.255
 8212POPC   C3A35381  12.096  39.194   7.955
 8212POPC   C4A35382  12.051  39.266   7.655
 8212POPC   C1B35383  12.364  39.169   8.555
 8212POPC   C2B35384  12.271  39.160   8.255
 8212POPC   C3B35385  12.333  39.207   7.955
 8212POPC   C4B35386  12.297  39.149   7.655
 8213POPC   NC335387   1.209  24.524   9.455
 8213POPC   PO435388   1.236  24.462   9.155
 8213POPC   GL135389   1.192  24.473   8.855
 8213POPC   GL235390   1.296  24.485   8.855
 8213POPC   C1A35391   1.250  24.471   8.555
 8213POPC   D2A35392   1.195  24.528   8.255
 8213POPC   C3A35393   1.243  24.464   7.955
 8213POPC   C4A35394   1.254  24.498   7.655
 8213POPC   C1B35395   1.444  24.375   8.555
 8213POPC   C2B35396   1.409  24.364   8.255
 8213POPC   C3B35397   1.459  24.362   7.955
 8213POPC   C4B35398   1.481  24.437   7.655
 8214POPC   NC335399   5.824  14.432   9.455
 8214POPC   PO435400   5.880  14.411   9.155
 8214POPC   GL135401   5.900  14.381   8.855
 8214POPC   GL235402   5.880  14.547   8.855
 8214POPC   C1A35403   5.881  14.370   8.555
 8214POPC   D2A35404   5.888  14.437   8.255
 8214POPC   C3A35405   5.918  14.364   7.955
 8214POPC   C4A35406   5.868  14.421   7.655
 8214POPC   C1B35407   5.801  14.639   8.555
 8214POPC   C2B35408   5.845  14.647   8.255
 8214POPC   C3B35409   5.839  14.669   7.955
 8214POPC   C4B35410   5.751  14.663   7.655
 8215POPC   NC335411  12.889  23.699   9.455
 8215POPC   PO435412  12.882  23.749   9.155
 8215POPC   GL135413  12.856  23.762   8.855
 8215POPC   GL235414  13.006  23.710   8.855
 8215POPC   C1A35415  12.827  23.692   8.555
 8215POPC   D2A35416  12.896  23.760   8.255
 8215POPC   C3A35417  12.899  23.673   7.955
 8215POPC   C4A35418  12.823  23.738   7.655
 8215POPC   C1B35419  13.077  23.587   8.555
 8215POPC   C2B35420  13.118  23.662   8.255
 8215POPC   C3B35421  13.104  23.619   7.955
 8215POPC   C4B35422  13.052  23.597   7.655
 8216POPC   NC335423  14.438  28.329   9.455
 8216POPC   PO435424  14.365  28.345   9.155
 8216POPC   GL135425  14.362  28.398   8.855
 8216POPC   GL235426  14.372  28.309   8.855
 8216POPC   C1A35427  14.376  28.394   8.555
 8216POPC   D2A35428  14.357  28.418   8.255
 8216POPC   C3A35429  14.452  28.376   7.955
 8216POPC   C4A35430  14.440  28.330   7.655
 8216POPC   C1B35431  14.259  28.160   8.555
 8216POPC   C2B35432  14.294  28.170   8.255
 8216POPC   C3B35433  14.300  28.176   7.955
 8216POPC   C4B35434  14.232  28.206   7.655
 8217POPC   NC335435  43.933  39.224   9.455
 8217POPC   PO435436  43.874  39.221   9.155
 8217POPC   GL135437  43.862  39.272   8.855
 8217POPC   GL235438  43.907  39.133   8.855
 8217POPC   C1A35439  43.921  39.256   8.555
 8217POPC   D2A35440  43.908  39.274   8.255
 8217POPC   C3A35441  43.865  39.260   7.955
 8217POPC   C4A35442  43.911  39.231   7.655
 8217POPC   C1B35443  43.989  39.012   8.555
 8217POPC   C2B35444  43.984  39.001   8.255
 8217POPC   C3B35445  44.016  38.985   7.955
 8217POPC   C4B35446  43.989  38.976   7.655
 8218POPC   NC335447  12.853   0.486   9.455
 8218POPC   PO435448  12.889   0.428   9.155
 8218POPC   GL135449  12.876   0.456   8.855
 8218POPC   GL235450  12.747   0.334   8.855
 8218POPC   C1A35451  12.892   0.443   8.555
 8218POPC   D2A35452  12.871   0.483   8.255
 8218POPC   C3A35453  12.858   0.478   7.955
 8218POPC   C4A35454  12.882   0.459   7.655
 8218POPC   C1B35455  12.613   0.304   8.555
 8218POPC   C2B35456  12.612   0.305   8.255
 8218POPC   C3B35457  12.646   0.341   7.955
 8218POPC   C4B35458  12.672   0.338   7.655
 8219POPC   NC335459  14.394  24.498   9.455
 8219POPC   PO435460  14.367  24.516   9.155
 8219POPC   GL135461  14.392  24.451   8.855
 8219POPC   GL235462  14.369  24.552   8.855
 8219POPC   C1A35463  14.419  24.467   8.555
 8219POPC   D2A35464  14.444  24.450   8.255
 8219POPC   C3A35465  14.438  24.458   7.955
 8219POPC   C4A35466  14.401  24.514   7.655
 8219POPC   C1B35467  14.285  24.657   8.555
 8219POPC   C2B35468  14.262  24.692   8.255
 8219POPC   C3B35469  14.252  24.715   7.955
 8219POPC   C4B35470  14.194  24.696   7.655
 8220POPC   NC335471  33.006  14.412   9.455
 8220POPC   PO435472  33.039  14.373   9.155
 8220POPC   GL135473  33.027  14.440   8.855
 8220POPC   GL235474  33.051  14.298   8.855
 8220POPC   C1A35475  32.984  14.381   8.555
 8220POPC   D2A35476  33.039  14.440   8.255
 8220POPC   C3A35477  32.976  14.402   7.955
 8220POPC   C4A35478  33.021  14.378   7.655
 8220POPC   C1B35479  32.948  14.148   8.555
 8220POPC   C2B35480  33.014  14.172   8.255
 8220POPC   C3B35481  32.990  14.113   7.955
 8220POPC   C4B35482  32.959  14.120   7.655
 8221POPC   NC335483  24.474  41.525   9.455
 8221POPC   PO435484  24.441  41.594   9.155
 8221POPC   GL135485  24.515  41.509   8.855
 8221POPC   GL235486  24.336  41.488   8.855
 8221POPC   C1A35487  24.481  41.565   8.555
 8221POPC   D2A35488  24.486  41.535   8.255
 8221POPC   C3A35489  24.535  41.529   7.955
 8221POPC   C4A35490  24.529  41.579   7.655
 8221POPC   C1B35491  24.295  41.444   8.555
 8221POPC   C2B35492  24.281  41.449   8.255
 8221POPC   C3B35493  24.259  41.409   7.955
 8221POPC   C4B35494  24.240  41.432   7.655
 8222POPC   NC335495  22.946  15.156   9.455
 8222POPC   PO435496  22.907  15.141   9.155
 8222POPC   GL135497  22.921  15.134   8.855
 8222POPC   GL235498  23.031  15.084   8.855
 8222POPC   C1A35499  22.922  15.141   8.555
 8222POPC   D2A35500  22.901  15.148   8.255
 8222POPC   C3A35501  22.966  15.208   7.955
 8222POPC   C4A35502  22.979  15.217   7.655
 8222POPC   C1B35503  23.040  14.936   8.555
 8222POPC   C2B35504  23.119  14.989   8.255
 8222POPC   C3B35505  23.090  14.958   7.955
 8222POPC   C4B35506  23.124  14.958   7.655
 8223POPC   NC335507  39.220   7.413   9.455
 8223POPC   PO435508  39.236   7.437   9.155
 8223POPC   GL135509  39.244   7.398   8.855
 8223POPC   GL235510  39.260   7.556   8.855
 8223POPC   C1A35511  39.280   7.395   8.555
 8223POPC   D2A35512  39.224   7.431   8.255
 8223POPC   C3A35513  39.248   7.452   7.955
 8223POPC   C4A35514  39.189   7.425   7.655
 8223POPC   C1B35515  39.374   7.689   8.555
 8223POPC   C2B35516  39.366   7.620   8.255
 8223POPC   C3B35517  39.357   7.686   7.955
 8223POPC   C4B35518  39.325   7.646   7.655
 8224POPC   NC335519  35.316  22.966   9.455
 8224POPC   PO435520  35.325  22.925   9.155
 8224POPC   GL135521  35.312  22.925   8.855
 8224POPC   GL235522  35.465  23.091   8.855
 8224POPC   C1A35523  35.373  22.908   8.555
 8224POPC   D2A35524  35.362  22.955   8.255
 8224POPC   C3A35525  35.386  22.958   7.955
 8224POPC   C4A35526  35.393  22.908   7.655
 8224POPC   C1B35527  35.486  23.124   8.555
 8224POPC   C2B35528  35.493  23.122   8.255
 8224POPC   C3B35529  35.519  23.180   7.955
 8224POPC   C4B35530  35.448  23.106   7.655
 8225POPC   NC335531  35.367  31.495   9.455
 8225POPC   PO435532  35.326  31.459   9.155
 8225POPC   GL135533  35.355  31.456   8.855
 8225POPC   GL235534  35.288  31.636   8.855
 8225POPC   C1A35535  35.377  31.430   8.555
 8225POPC   D2A35536  35.362  31.481   8.255
 8225POPC   C3A35537  35.373  31.476   7.955
 8225POPC   C4A35538  35.327  31.447   7.655
 8225POPC   C1B35539  35.259  31.694   8.555
 8225POPC   C2B35540  35.308  31.669   8.255
 8225POPC   C3B35541  35.343  31.697   7.955
 8225POPC   C4B35542  35.334  31.755   7.655
 8226POPC   NC335543  43.159  43.081   9.455
 8226POPC   PO435544  43.109  43.078   9.155
 8226POPC   GL135545  43.099  43.093   8.855
 8226POPC   GL235546  43.214  43.171   8.855
 8226POPC   C1A35547  43.099  43.153   8.555
 8226POPC   D2A35548  43.152  43.097   8.255
 8226POPC   C3A35549  43.094  43.092   7.955
 8226POPC   C4A35550  43.140  43.085   7.655
 8226POPC   C1B35551  43.326  43.143   8.555
 8226POPC   C2B35552  43.394  43.178   8.255
 8226POPC   C3B35553  43.388  43.179   7.955
 8226POPC   C4B35554  43.390  43.183   7.655
 8227POPC   NC335555  36.910  18.315   9.455
 8227POPC   PO435556  36.916  18.268   9.155
 8227POPC   GL135557  36.948  18.310   8.855
 8227POPC   GL235558  37.029  18.323   8.855
 8227POPC   C1A35559  36.921  18.246   8.555
 8227POPC   D2A35560  36.909  18.320   8.255
 8227POPC   C3A35561  36.863  18.304   7.955
 8227POPC   C4A35562  36.882  18.313   7.655
 8227POPC   C1B35563  37.110  18.374   8.555
 8227POPC   C2B35564  37.159  18.378   8.255
 8227POPC   C3B35565  37.117  18.413   7.955
 8227POPC   C4B35566  37.120  18.400   7.655
 8228POPC   NC335567   7.462  39.984   9.455
 8228POPC   PO435568   7.448  40.011   9.155
 8228POPC   GL135569   7.465  40.038   8.855
 8228POPC   GL235570   7.268  39.931   8.855
 8228POPC   C1A35571   7.438  39.979   8.555
 8228POPC   D2A35572   7.454  39.996   8.255
 8228POPC   C3A35573   7.374  39.999   7.955
 8228POPC   C4A35574   7.413  40.021   7.655
 8228POPC   C1B35575   7.232  39.842   8.555
 8228POPC   C2B35576   7.175  39.910   8.255
 8228POPC   C3B35577   7.231  39.849   7.955
 8228POPC   C4B35578   7.233  39.906   7.655
 8229POPC   NC335579   4.340  40.750   9.455
 8229POPC   PO435580   4.291  40.829   9.155
 8229POPC   GL135581   4.354  40.739   8.855
 8229POPC   GL235582   4.412  40.871   8.855
 8229POPC   C1A35583   4.313  40.781   8.555
 8229POPC   D2A35584   4.351  40.791   8.255
 8229POPC   C3A35585   4.337  40.761   7.955
 8229POPC   C4A35586   4.325  40.830   7.655
 8229POPC   C1B35587   4.538  40.927   8.555
 8229POPC   C2B35588   4.475  40.932   8.255
 8229POPC   C3B35589   4.499  40.928   7.955
 8229POPC   C4B35590   4.483  40.937   7.655
 8230POPC   NC335591  39.229  30.668   9.455
 8230POPC   PO435592  39.238  30.717   9.155
 8230POPC   GL135593  39.276  30.712   8.855
 8230POPC   GL235594  39.320  30.646   8.855
 8230POPC   C1A35595  39.219  30.706   8.555
 8230POPC   D2A35596  39.234  30.732   8.255
 8230POPC   C3A35597  39.199  30.674   7.955
 8230POPC   C4A35598  39.246  30.684   7.655
 8230POPC   C1B35599  39.463  30.543   8.555
 8230POPC   C2B35600  39.434  30.587   8.255
 8230POPC   C3B35601  39.427  30.614   7.955
 8230POPC   C4B35602  39.443  30.535   7.655
 8231POPC   NC335603  33.772  27.626   9.455
 8231POPC   PO435604  33.817  27.544   9.155
 8231POPC   GL135605  33.839  27.616   8.855
 8231POPC   GL235606  33.930  27.641   8.855
 8231POPC   C1A35607  33.804  27.607   8.555
 8231POPC   D2A35608  33.756  27.637   8.255
 8231POPC   C3A35609  33.766  27.609   7.955
 8231POPC   C4A35610  33.846  27.556   7.655
 8231POPC   C1B35611  33.981  27.781   8.555
 8231POPC   C2B35612  34.019  27.790   8.255
 8231POPC   C3B35613  34.000  27.744   7.955
 8231POPC   C4B35614  33.987  27.813   7.655
 8232POPC   NC335615  12.822  37.683   9.455
 8232POPC   PO435616  12.848  37.728   9.155
 8232POPC   GL135617  12.842  37.647   8.855
 8232POPC   GL235618  12.939  37.588   8.855
 8232POPC   C1A35619  12.853  37.648   8.555
 8232POPC   D2A35620  12.844  37.648   8.255
 8232POPC   C3A35621  12.880  37.669   7.955
 8232POPC   C4A35622  12.851  37.639   7.655
 8232POPC   C1B35623  13.008  37.449   8.555
 8232POPC   C2B35624  12.940  37.504   8.255
 8232POPC   C3B35625  12.931  37.412   7.955
 8232POPC   C4B35626  12.975  37.494   7.655
 8233POPC   NC335627   6.665  17.527   9.455
 8233POPC   PO435628   6.604  17.551   9.155
 8233POPC   GL135629   6.595  17.521   8.855
 8233POPC   GL235630   6.655  17.417   8.855
 8233POPC   C1A35631   6.654  17.468   8.555
 8233POPC   D2A35632   6.688  17.492   8.255
 8233POPC   C3A35633   6.653  17.526   7.955
 8233POPC   C4A35634   6.595  17.493   7.655
 8233POPC   C1B35635   6.608  17.284   8.555
 8233POPC   C2B35636   6.598  17.268   8.255
 8233POPC   C3B35637   6.667  17.284   7.955
 8233POPC   C4B35638   6.676  17.226   7.655
 8234POPC   NC335639  15.926   9.016   9.455
 8234POPC   PO435640  15.920   8.930   9.155
 8234POPC   GL135641  15.995   9.007   8.855
 8234POPC   GL235642  15.989   8.850   8.855
 8234POPC   C1A35643  15.932   8.956   8.555
 8234POPC   D2A35644  15.984   8.999   8.255
 8234POPC   C3A35645  15.931   8.980   7.955
 8234POPC   C4A35646  15.993   8.972   7.655
 8234POPC   C1B35647  16.002   8.758   8.555
 8234POPC   C2B35648  16.059   8.747   8.255
 8234POPC   C3B35649  16.079   8.697   7.955
 8234POPC   C4B35650  15.989   8.693   7.655
 8235POPC   NC335651  12.093  30.656   9.455
 8235POPC   PO435652  12.046  30.665   9.155
 8235POPC   GL135653  12.043  30.700   8.855
 8235POPC   GL235654  12.156  30.718   8.855
 8235POPC   C1A35655  12.125  30.665   8.555
 8235POPC   D2A35656  12.111  30.701   8.255
 8235POPC   C3A35657  12.066  30.713   7.955
 8235POPC   C4A35658  12.118  30.683   7.655
 8235POPC   C1B35659  12.287  30.779   8.555
 8235POPC   C2B35660  12.267  30.845   8.255
 8235POPC   C3B35661  12.284  30.824   7.955
 8235POPC   C4B35662  12.327  30.792   7.655
 8236POPC   NC335663   0.408  10.554   9.455
 8236POPC   PO435664   0.445  10.507   9.155
 8236POPC   GL135665   0.399  10.489   8.855
 8236POPC   GL235666   0.325  10.395   8.855
 8236POPC   C1A35667   0.457  10.508   8.555
 8236POPC   D2A35668   0.419  10.546   8.255
 8236POPC   C3A35669   0.475  10.567   7.955
 8236POPC   C4A35670   0.425  10.561   7.655
 8236POPC   C1B35671   0.270  10.336   8.555
 8236POPC   C2B35672   0.334  10.349   8.255
 8236POPC   C3B35673   0.315  10.293   7.955
 8236POPC   C4B35674   0.253  10.345   7.655
 8237POPC   NC335675  43.089  32.253   9.455
 8237POPC   PO435676  43.110  32.226   9.155
 8237POPC   GL135677  43.129  32.283   8.855
 8237POPC   GL235678  43.277  32.241   8.855
 8237POPC   C1A35679  43.102  32.262   8.555
 8237POPC   D2A35680  43.104  32.266   8.255
 8237POPC   C3A35681  43.125  32.289   7.955
 8237POPC   C4A35682  43.078  32.284   7.655
 8237POPC   C1B35683  43.313  32.253   8.555
 8237POPC   C2B35684  43.379  32.261   8.255
 8237POPC   C3B35685  43.328  32.190   7.955
 8237POPC   C4B35686  43.333  32.190   7.655
 8238POPC   NC335687  21.369   5.061   9.455
 8238POPC   PO435688  21.432   5.073   9.155
 8238POPC   GL135689  21.404   5.072   8.855
 8238POPC   GL235690  21.257   5.043   8.855
 8238POPC   C1A35691  21.354   5.077   8.555
 8238POPC   D2A35692  21.381   5.047   8.255
 8238POPC   C3A35693  21.353   5.131   7.955
 8238POPC   C4A35694  21.408   5.086   7.655
 8238POPC   C1B35695  21.171   4.933   8.555
 8238POPC   C2B35696  21.180   4.949   8.255
 8238POPC   C3B35697  21.222   4.893   7.955
 8238POPC   C4B35698  21.164   4.876   7.655
 8239POPC   NC335699  43.908  12.838   9.455
 8239POPC   PO435700  43.886  12.852   9.155
 8239POPC   GL135701  43.864  12.863   8.855
 8239POPC   GL235702  43.832  12.898   8.855
 8239POPC   C1A35703  43.908  12.820   8.555
 8239POPC   D2A35704  43.935  12.888   8.255
 8239POPC   C3A35705  43.895  12.888   7.955
 8239POPC   C4A35706  43.886  12.858   7.655
 8239POPC   C1B35707  43.649  13.040   8.555
 8239POPC   C2B35708  43.646  13.044   8.255
 8239POPC   C3B35709  43.736  13.001   7.955
 8239POPC   C4B35710  43.645  12.956   7.655
 8240POPC   NC335711   9.699  31.470   9.455
 8240POPC   PO435712   9.755  31.506   9.155
 8240POPC   GL135713   9.758  31.489   8.855
 8240POPC   GL235714   9.776  31.371   8.855
 8240POPC   C1A35715   9.757  31.435   8.555
 8240POPC   D2A35716   9.710  31.463   8.255
 8240POPC   C3A35717   9.760  31.463   7.955
 8240POPC   C4A35718   9.739  31.517   7.655
 8240POPC   C1B35719   9.777  31.196   8.555
 8240POPC   C2B35720   9.832  31.240   8.255
 8240POPC   C3B35721   9.846  31.212   7.955
 8240POPC   C4B35722   9.820  31.188   7.655
 8241POPC   NC335723  24.528  27.561   9.455
 8241POPC   PO435724  24.467  27.576   9.155
 8241POPC   GL135725  24.442  27.571   8.855
 8241POPC   GL235726  24.454  27.505   8.855
 8241POPC   C1A35727  24.509  27.598   8.555
 8241POPC   D2A35728  24.500  27.563   8.255
 8241POPC   C3A35729  24.496  27.586   7.955
 8241POPC   C4A35730  24.455  27.558   7.655
 8241POPC   C1B35731  24.482  27.348   8.555
 8241POPC   C2B35732  24.535  27.312   8.255
 8241POPC   C3B35733  24.501  27.302   7.955
 8241POPC   C4B35734  24.452  27.379   7.655
 8242POPC   NC335735  23.669  39.968   9.455
 8242POPC   PO435736  23.694  39.992   9.155
 8242POPC   GL135737  23.688  39.983   8.855
 8242POPC   GL235738  23.716  39.911   8.855
 8242POPC   C1A35739  23.676  40.023   8.555
 8242POPC   D2A35740  23.697  40.054   8.255
 8242POPC   C3A35741  23.714  39.973   7.955
 8242POPC   C4A35742  23.737  39.961   7.655
 8242POPC   C1B35743  23.774  39.789   8.555
 8242POPC   C2B35744  23.752  39.773   8.255
 8242POPC   C3B35745  23.777  39.770   7.955
 8242POPC   C4B35746  23.753  39.762   7.655
 8243POPC   NC335747   8.157   2.001   9.455
 8243POPC   PO435748   8.177   1.999   9.155
 8243POPC   GL135749   8.150   2.015   8.855
 8243POPC   GL235750   8.293   1.932   8.855
 8243POPC   C1A35751   8.228   2.019   8.555
 8243POPC   D2A35752   8.153   2.003   8.255
 8243POPC   C3A35753   8.200   1.989   7.955
 8243POPC   C4A35754   8.158   2.022   7.655
 8243POPC   C1B35755   8.366   1.893   8.555
 8243POPC   C2B35756   8.398   1.831   8.255
 8243POPC   C3B35757   8.425   1.902   7.955
 8243POPC   C4B35758   8.426   1.892   7.655
 8244POPC   NC335759   2.725  29.909   9.455
 8244POPC   PO435760   2.719  29.948   9.155
 8244POPC   GL135761   2.769  29.874   8.855
 8244POPC   GL235762   2.769  29.758   8.855
 8244POPC   C1A35763   2.757  29.947   8.555
 8244POPC   D2A35764   2.783  29.907   8.255
 8244POPC   C3A35765   2.755  29.940   7.955
 8244POPC   C4A35766   2.740  29.906   7.655
 8244POPC   C1B35767   2.808  29.632   8.555
 8244POPC   C2B35768   2.786  29.637   8.255
 8244POPC   C3B35769   2.769  29.697   7.955
 8244POPC   C4B35770   2.757  29.711   7.655
 8245POPC   NC335771   5.832   9.744   9.455
 8245POPC   PO435772   5.913   9.779   9.155
 8245POPC   GL135773   5.867   9.789   8.855
 8245POPC   GL235774   5.859   9.640   8.855
 8245POPC   C1A35775   5.892   9.765   8.555
 8245POPC   D2A35776   5.868   9.762   8.255
 8245POPC   C3A35777   5.828   9.726   7.955
 8245POPC   C4A35778   5.918   9.760   7.655
 8245POPC   C1B35779   5.844   9.531   8.555
 8245POPC   C2B35780   5.868   9.484   8.255
 8245POPC   C3B35781   5.833   9.512   7.955
 8245POPC   C4B35782   5.839   9.541   7.655
 8246POPC   NC335783  33.066  26.778   9.455
 8246POPC   PO435784  33.063  26.822   9.155
 8246POPC   GL135785  33.062  26.824   8.855
 8246POPC   GL235786  32.985  26.739   8.855
 8246POPC   C1A35787  33.054  26.809   8.555
 8246POPC   D2A35788  33.044  26.829   8.255
 8246POPC   C3A35789  33.056  26.826   7.955
 8246POPC   C4A35790  33.064  26.842   7.655
 8246POPC   C1B35791  32.838  26.622   8.555
 8246POPC   C2B35792  32.867  26.589   8.255
 8246POPC   C3B35793  32.815  26.619   7.955
 8246POPC   C4B35794  32.802  26.616   7.655
 8247POPC   NC335795  22.204  30.730   9.455
 8247POPC   PO435796  22.130  30.715   9.155
 8247POPC   GL135797  22.122  30.689   8.855
 8247POPC   GL235798  22.240  30.805   8.855
 8247POPC   C1A35799  22.193  30.659   8.555
 8247POPC   D2A35800  22.150  30.730   8.255
 8247POPC   C3A35801  22.158  30.657   7.955
 8247POPC   C4A35802  22.119  30.658   7.655
 8247POPC   C1B35803  22.251  30.885   8.555
 8247POPC   C2B35804  22.224  30.911   8.255
 8247POPC   C3B35805  22.215  30.967   7.955
 8247POPC   C4B35806  22.205  30.947   7.655
 8248POPC   NC335807  34.592  37.665   9.455
 8248POPC   PO435808  34.582  37.636   9.155
 8248POPC   GL135809  34.603  37.643   8.855
 8248POPC   GL235810  34.716  37.700   8.855
 8248POPC   C1A35811  34.583  37.718   8.555
 8248POPC   D2A35812  34.547  37.710   8.255
 8248POPC   C3A35813  34.549  37.685   7.955
 8248POPC   C4A35814  34.567  37.659   7.655
 8248POPC   C1B35815  34.784  37.730   8.555
 8248POPC   C2B35816  34.837  37.744   8.255
 8248POPC   C3B35817  34.784  37.824   7.955
 8248POPC   C4B35818  34.805  37.786   7.655
 8249POPC   NC335819  28.409  23.745   9.455
 8249POPC   PO435820  28.327  23.719   9.155
 8249POPC   GL135821  28.378  23.755   8.855
 8249POPC   GL235822  28.487  23.806   8.855
 8249POPC   C1A35823  28.412  23.755   8.555
 8249POPC   D2A35824  28.413  23.718   8.255
 8249POPC   C3A35825  28.339  23.666   7.955
 8249POPC   C4A35826  28.398  23.714   7.655
 8249POPC   C1B35827  28.483  23.965   8.555
 8249POPC   C2B35828  28.496  23.918   8.255
 8249POPC   C3B35829  28.550  23.880   7.955
 8249POPC   C4B35830  28.533  23.887   7.655
 8250POPC   NC335831  34.581   3.516   9.455
 8250POPC   PO435832  34.592   3.557   9.155
 8250POPC   GL135833  34.557   3.494   8.855
 8250POPC   GL235834  34.708   3.522   8.855
 8250POPC   C1A35835  34.549   3.529   8.555
 8250POPC   D2A35836  34.553   3.527   8.255
 8250POPC   C3A35837  34.537   3.547   7.955
 8250POPC   C4A35838  34.571   3.517   7.655
 8250POPC   C1B35839  34.836   3.629   8.555
 8250POPC   C2B35840  34.778   3.590   8.255
 8250POPC   C3B35841  34.771   3.596   7.955
 8250POPC   C4B35842  34.855   3.624   7.655
 8251POPC   NC335843  12.839   3.528   9.455
 8251POPC   PO435844  12.823   3.505   9.155
 8251POPC   GL135845  12.895   3.528   8.855
 8251POPC   GL235846  12.754   3.531   8.855
 8251POPC   C1A35847  12.827   3.537   8.555
 8251POPC   D2A35848  12.870   3.498   8.255
 8251POPC   C3A35849  12.889   3.536   7.955
 8251POPC   C4A35850  12.848   3.528   7.655
 8251POPC   C1B35851  12.596   3.570   8.555
 8251POPC   C2B35852  12.566   3.581   8.255
 8251POPC   C3B35853  12.562   3.563   7.955
 8251POPC   C4B35854  12.612   3.550   7.655
 8252POPC   NC335855   2.000   8.967   9.455
 8252POPC   PO435856   2.019   8.967   9.155
 8252POPC   GL135857   1.999   8.994   8.855
 8252POPC   GL235858   1.954   8.895   8.855
 8252POPC   C1A35859   1.957   8.941   8.555
 8252POPC   D2A35860   2.028   8.934   8.255
 8252POPC   C3A35861   2.007   8.984   7.955
 8252POPC   C4A35862   1.981   8.960   7.655
 8252POPC   C1B35863   1.967   8.711   8.555
 8252POPC   C2B35864   1.886   8.725   8.255
 8252POPC   C3B35865   1.888   8.712   7.955
 8252POPC   C4B35866   1.892   8.728   7.655
 8253POPC   NC335867  43.889   3.497   9.455
 8253POPC   PO435868  43.843   3.546   9.155
 8253POPC   GL135869  43.919   3.553   8.855
 8253POPC   GL235870  43.829   3.642   8.855
 8253POPC   C1A35871  43.908   3.564   8.555
 8253POPC   D2A35872  43.893   3.515   8.255
 8253POPC   C3A35873  43.839   3.506   7.955
 8253POPC   C4A35874  43.890   3.578   7.655
 8253POPC   C1B35875  43.655   3.674   8.555
 8253POPC   C2B35876  43.673   3.684   8.255
 8253POPC   C3B35877  43.643   3.696   7.955
 8253POPC   C4B35878  43.694   3.635   7.655
 8254POPC   NC335879   2.793   0.405   9.455
 8254POPC   PO435880   2.780   0.450   9.155
 8254POPC   GL135881   2.791   0.486   8.855
 8254POPC   GL235882   2.882   0.377   8.855
 8254POPC   C1A35883   2.787   0.424   8.555
 8254POPC   D2A35884   2.782   0.471   8.255
 8254POPC   C3A35885   2.741   0.487   7.955
 8254POPC   C4A35886   2.812   0.447   7.655
 8254POPC   C1B35887   3.023   0.420   8.555
 8254POPC   C2B35888   2.981   0.402   8.255
 8254POPC   C3B35889   3.028   0.400   7.955
 8254POPC   C4B35890   2.976   0.406   7.655
 8255POPC   NC335891  19.814   8.929   9.455
 8255POPC   PO435892  19.817   8.949   9.155
 8255POPC   GL135893  19.802   8.928   8.855
 8255POPC   GL235894  19.763   9.003   8.855
 8255POPC   C1A35895  19.797   8.963   8.555
 8255POPC   D2A35896  19.832   8.975   8.255
 8255POPC   C3A35897  19.858   8.990   7.955
 8255POPC   C4A35898  19.816   8.988   7.655
 8255POPC   C1B35899  19.571   9.146   8.555
 8255POPC   C2B35900  19.640   9.099   8.255
 8255POPC   C3B35901  19.645   9.051   7.955
 8255POPC   C4B35902  19.663   9.129   7.655
 8256POPC   NC335903  14.415  43.849   9.455
 8256POPC   PO435904  14.372  43.924   9.155
 8256POPC   GL135905  14.355  43.877   8.855
 8256POPC   GL235906  14.307  43.883   8.855
 8256POPC   C1A35907  14.373  43.854   8.555
 8256POPC   D2A35908  14.409  43.855   8.255
 8256POPC   C3A35909  14.401  43.877   7.955
 8256POPC   C4A35910  14.449  43.864   7.655
 8256POPC   C1B35911  14.205  43.818   8.555
 8256POPC   C2B35912  14.153  43.796   8.255
 8256POPC   C3B35913  14.164  43.840   7.955
 8256POPC   C4B35914  14.210  43.865   7.655
 8257POPC   NC335915  15.933  14.405   9.455
 8257POPC   PO435916  15.972  14.378   9.155
 8257POPC   GL135917  15.937  14.382   8.855
 8257POPC   GL235918  15.885  14.243   8.855
 8257POPC   C1A35919  15.927  14.453   8.555
 8257POPC   D2A35920  15.930  14.405   8.255
 8257POPC   C3A35921  15.979  14.426   7.955
 8257POPC   C4A35922  15.934  14.388   7.655
 8257POPC   C1B35923  15.906  14.204   8.555
 8257POPC   C2B35924  15.886  14.128   8.255
 8257POPC   C3B35925  15.825  14.172   7.955
 8257POPC   C4B35926  15.821  14.138   7.655
 8258POPC   NC335927  17.514  43.098   9.455
 8258POPC   PO435928  17.459  43.077   9.155
 8258POPC   GL135929  17.493  43.145   8.855
 8258POPC   GL235930  17.401  43.041   8.855
 8258POPC   C1A35931  17.505  43.102   8.555
 8258POPC   D2A35932  17.463  43.087   8.255
 8258POPC   C3A35933  17.537  43.103   7.955
 8258POPC   C4A35934  17.511  43.102   7.655
 8258POPC   C1B35935  17.280  42.958   8.555
 8258POPC   C2B35936  17.301  42.928   8.255
 8258POPC   C3B35937  17.283  42.956   7.955
 8258POPC   C4B35938  17.271  42.954   7.655
 8259POPC   NC335939  11.255  43.104   9.455
 8259POPC   PO435940  11.251  43.081   9.155
 8259POPC   GL135941  11.303  43.137   8.855
 8259POPC   GL235942  11.238  43.223   8.855
 8259POPC   C1A35943  11.277  43.065   8.555
 8259POPC   D2A35944  11.289  43.109   8.255
 8259POPC   C3A35945  11.325  43.061   7.955
 8259POPC   C4A35946  11.321  43.157   7.655
 8259POPC   C1B35947  11.199  43.302   8.555
 8259POPC   C2B35948  11.128  43.286   8.255
 8259POPC   C3B35949  11.194  43.303   7.955
 8259POPC   C4B35950  11.194  43.292   7.655
 8260POPC   NC335951  33.763  37.693   9.455
 8260POPC   PO435952  33.786  37.727   9.155
 8260POPC   GL135953  33.845  37.632   8.855
 8260POPC   GL235954  33.883  37.695   8.855
 8260POPC   C1A35955  33.774  37.630   8.555
 8260POPC   D2A35956  33.811  37.679   8.255
 8260POPC   C3A35957  33.755  37.713   7.955
 8260POPC   C4A35958  33.781  37.715   7.655
 8260POPC   C1B35959  34.028  37.705   8.555
 8260POPC   C2B35960  34.066  37.751   8.255
 8260POPC   C3B35961  34.047  37.742   7.955
 8260POPC   C4B35962  34.065  37.712   7.655
 8261POPC   NC335963  33.777  42.320   9.455
 8261POPC   PO435964  33.796  42.384   9.155
 8261POPC   GL135965  33.779  42.365   8.855
 8261POPC   GL235966  33.894  42.230   8.855
 8261POPC   C1A35967  33.841  42.378   8.555
 8261POPC   D2A35968  33.811  42.342   8.255
 8261POPC   C3A35969  33.793  42.331   7.955
 8261POPC   C4A35970  33.830  42.325   7.655
 8261POPC   C1B35971  33.993  42.154   8.555
 8261POPC   C2B35972  34.019  42.189   8.255
 8261POPC   C3B35973  34.038  42.143   7.955
 8261POPC   C4B35974  34.008  42.129   7.655
 8262POPC   NC335975  14.406   1.196   9.455
 8262POPC   PO435976  14.365   1.229   9.155
 8262POPC   GL135977  14.391   1.223   8.855
 8262POPC   GL235978  14.308   1.128   8.855
 8262POPC   C1A35979  14.415   1.248   8.555
 8262POPC   D2A35980  14.362   1.225   8.255
 8262POPC   C3A35981  14.397   1.263   7.955
 8262POPC   C4A35982  14.417   1.171   7.655
 8262POPC   C1B35983  14.231   1.064   8.555
 8262POPC   C2B35984  14.236   1.115   8.255
 8262POPC   C3B35985  14.180   1.105   7.955
 8262POPC   C4B35986  14.171   1.071   7.655
 8263POPC   NC335987  30.742  37.690   9.455
 8263POPC   PO435988  30.647  37.690   9.155
 8263POPC   GL135989  30.647  37.716   8.855
 8263POPC   GL235990  30.663  37.563   8.855
 8263POPC   C1A35991  30.727  37.714   8.555
 8263POPC   D2A35992  30.659  37.701   8.255
 8263POPC   C3A35993  30.710  37.666   7.955
 8263POPC   C4A35994  30.708  37.710   7.655
 8263POPC   C1B35995  30.552  37.483   8.555
 8263POPC   C2B35996  30.578  37.481   8.255
 8263POPC   C3B35997  30.576  37.423   7.955
 8263POPC   C4B35998  30.557  37.479   7.655
 8264POPC   NC335999  35.318  20.626   9.455
 8264POPC   PO436000  35.314  20.635   9.155
 8264POPC   GL136001  35.356  20.642   8.855
 8264POPC   GL236002  35.370  20.497   8.855
 8264POPC   C1A36003  35.338  20.614   8.555
 8264POPC   D2A36004  35.308  20.651   8.255
 8264POPC   C3A36005  35.383  20.637   7.955
 8264POPC   C4A36006  35.398  20.622   7.655
 8264POPC   C1B36007  35.505  20.373   8.555
 8264POPC   C2B36008  35.508  20.417   8.255
 8264POPC   C3B36009  35.471  20.366   7.955
 8264POPC   C4B36010  35.508  20.392   7.655
 8265POPC   NC336011  17.525  11.299   9.455
 8265POPC   PO436012  17.496  11.258   9.155
 8265POPC   GL136013  17.551  11.288   8.855
 8265POPC   GL236014  17.414  11.205   8.855
 8265POPC   C1A36015  17.481  11.346   8.555
 8265POPC   D2A36016  17.551  11.318   8.255
 8265POPC   C3A36017  17.499  11.269   7.955
 8265POPC   C4A36018  17.462  11.267   7.655
 8265POPC   C1B36019  17.412  11.037   8.555
 8265POPC   C2B36020  17.380  11.106   8.255
 8265POPC   C3B36021  17.419  11.085   7.955
 8265POPC   C4B36022  17.379  11.104   7.655
 8266POPC   NC336023  29.172  22.203   9.455
 8266POPC   PO436024  29.134  22.206   9.155
 8266POPC   GL136025  29.152  22.170   8.855
 8266POPC   GL236026  29.239  22.136   8.855
 8266POPC   C1A36027  29.151  22.182   8.555
 8266POPC   D2A36028  29.167  22.190   8.255
 8266POPC   C3A36029  29.181  22.136   7.955
 8266POPC   C4A36030  29.124  22.188   7.655
 8266POPC   C1B36031  29.344  22.088   8.555
 8266POPC   C2B36032  29.364  22.054   8.255
 8266POPC   C3B36033  29.392  22.066   7.955
 8266POPC   C4B36034  29.343  22.052   7.655
 8267POPC   NC336035  25.252  36.121   9.455
 8267POPC   PO436036  25.279  36.093   9.155
 8267POPC   GL136037  25.271  36.169   8.855
 8267POPC   GL236038  25.161  36.111   8.855
 8267POPC   C1A36039  25.225  36.168   8.555
 8267POPC   D2A36040  25.277  36.119   8.255
 8267POPC   C3A36041  25.293  36.123   7.955
 8267POPC   C4A36042  25.237  36.132   7.655
 8267POPC   C1B36043  25.031  36.091   8.555
 8267POPC   C2B36044  25.042  36.147   8.255
 8267POPC   C3B36045  24.997  36.139   7.955
 8267POPC   C4B36046  25.055  36.118   7.655
 8268POPC   NC336047  10.524  23.722   9.455
 8268POPC   PO436048  10.522  23.735   9.155
 8268POPC   GL136049  10.562  23.733   8.855
 8268POPC   GL236050  10.382  23.773   8.855
 8268POPC   C1A36051  10.490  23.690   8.555
 8268POPC   D2A36052  10.486  23.735   8.255
 8268POPC   C3A36053  10.526  23.741   7.955
 8268POPC   C4A36054  10.535  23.750   7.655
 8268POPC   C1B36055  10.292  23.824   8.555
 8268POPC   C2B36056  10.275  23.846   8.255
 8268POPC   C3B36057  10.349  23.846   7.955
 8268POPC   C4B36058  10.274  23.845   7.655
 8269POPC   NC336059  28.413  17.517   9.455
 8269POPC   PO436060  28.362  17.466   9.155
 8269POPC   GL136061  28.382  17.545   8.855
 8269POPC   GL236062  28.494  17.418   8.855
 8269POPC   C1A36063  28.414  17.473   8.555
 8269POPC   D2A36064  28.381  17.505   8.255
 8269POPC   C3A36065  28.324  17.496   7.955
 8269POPC   C4A36066  28.409  17.518   7.655
 8269POPC   C1B36067  28.563  17.371   8.555
 8269POPC   C2B36068  28.519  17.356   8.255
 8269POPC   C3B36069  28.551  17.289   7.955
 8269POPC   C4B36070  28.512  17.386   7.655
 8270POPC   NC336071  22.114  22.979   9.455
 8270POPC   PO436072  22.146  22.979   9.155
 8270POPC   GL136073  22.194  22.985   8.855
 8270POPC   GL236074  22.017  22.819   8.855
 8270POPC   C1A36075  22.178  22.913   8.555
 8270POPC   D2A36076  22.132  22.919   8.255
 8270POPC   C3A36077  22.118  22.931   7.955
 8270POPC   C4A36078  22.125  22.932   7.655
 8270POPC   C1B36079  21.919  22.815   8.555
 8270POPC   C2B36080  21.912  22.820   8.255
 8270POPC   C3B36081  22.002  22.760   7.955
 8270POPC   C4B36082  21.939  22.813   7.655
 8271POPC   NC336083  29.174   8.174   9.455
 8271POPC   PO436084  29.104   8.230   9.155
 8271POPC   GL136085  29.186   8.174   8.855
 8271POPC   GL236086  29.196   8.124   8.855
 8271POPC   C1A36087  29.102   8.153   8.555
 8271POPC   D2A36088  29.109   8.177   8.255
 8271POPC   C3A36089  29.114   8.194   7.955
 8271POPC   C4A36090  29.188   8.147   7.655
 8271POPC   C1B36091  29.276   8.007   8.555
 8271POPC   C2B36092  29.361   8.033   8.255
 8271POPC   C3B36093  29.366   7.974   7.955
 8271POPC   C4B36094  29.296   8.060   7.655
 8272POPC   NC336095  13.632  40.774   9.455
 8272POPC   PO436096  13.638  40.828   9.155
 8272POPC   GL136097  13.585  40.753   8.855
 8272POPC   GL236098  13.557  40.616   8.855
 8272POPC   C1A36099  13.674  40.734   8.555
 8272POPC   D2A36100  13.645  40.808   8.255
 8272POPC   C3A36101  13.593  40.831   7.955
 8272POPC   C4A36102  13.654  40.794   7.655
 8272POPC   C1B36103  13.574  40.517   8.555
 8272POPC   C2B36104  13.552  40.519   8.255
 8272POPC   C3B36105  13.549  40.525   7.955
 8272POPC   C4B36106  13.542  40.501   7.655
 8273POPC   NC336107  37.712  28.392   9.455
 8273POPC   PO436108  37.638  28.387   9.155
 8273POPC   GL136109  37.718  28.345   8.855
 8273POPC   GL236110  37.588  28.304   8.855
 8273POPC   C1A36111  37.672  28.399   8.555
 8273POPC   D2A36112  37.706  28.370   8.255
 8273POPC   C3A36113  37.718  28.402   7.955
 8273POPC   C4A36114  37.631  28.342   7.655
 8273POPC   C1B36115  37.543  28.158   8.555
 8273POPC   C2B36116  37.572  28.095   8.255
 8273POPC   C3B36117  37.535  28.152   7.955
 8273POPC   C4B36118  37.622  28.110   7.655
 8274POPC   NC336119  27.638  40.797   9.455
 8274POPC   PO436120  27.625  40.759   9.155
 8274POPC   GL136121  27.571  40.788   8.855
 8274POPC   GL236122  27.492  40.728   8.855
 8274POPC   C1A36123  27.545  40.746   8.555
 8274POPC   D2A36124  27.626  40.756   8.255
 8274POPC   C3A36125  27.601  40.817   7.955
 8274POPC   C4A36126  27.586  40.814   7.655
 8274POPC   C1B36127  27.403  40.568   8.555
 8274POPC   C2B36128  27.437  40.567   8.255
 8274POPC   C3B36129  27.472  40.613   7.955
 8274POPC   C4B36130  27.466  40.558   7.655
 8275POPC   NC336131  30.745  25.266   9.455
 8275POPC   PO436132  30.686  25.295   9.155
 8275POPC   GL136133  30.701  25.297   8.855
 8275POPC   GL236134  30.561  25.211   8.855
 8275POPC   C1A36135  30.648  25.314   8.555
 8275POPC   D2A36136  30.676  25.268   8.255
 8275POPC   C3A36137  30.661  25.291   7.955
 8275POPC   C4A36138  30.742  25.278   7.655
 8275POPC   C1B36139  30.439  25.275   8.555
 8275POPC   C2B36140  30.430  25.248   8.255
 8275POPC   C3B36141  30.428  25.214   7.955
 8275POPC   C4B36142  30.491  25.209   7.655
 8276POPC   NC336143   5.826  33.763   9.455
 8276POPC   PO436144   5.852  33.785   9.155
 8276POPC   GL136145   5.836  33.796   8.855
 8276POPC   GL236146   5.786  33.791   8.855
 8276POPC   C1A36147   5.865  33.830   8.555
 8276POPC   D2A36148   5.852  33.780   8.255
 8276POPC   C3A36149   5.851  33.808   7.955
 8276POPC   C4A36150   5.904  33.770   7.655
 8276POPC   C1B36151   5.603  33.874   8.555
 8276POPC   C2B36152   5.626  33.890   8.255
 8276POPC   C3B36153   5.642  33.902   7.955
 8276POPC   C4B36154   5.668  33.911   7.655
 8277POPC   NC336155  10.558   2.004   9.455
 8277POPC   PO436156  10.572   1.967   9.155
 8277POPC   GL136157  10.484   1.973   8.855
 8277POPC   GL236158  10.440   1.954   8.855
 8277POPC   C1A36159  10.559   2.005   8.555
 8277POPC   D2A36160  10.501   2.019   8.255
 8277POPC   C3A36161  10.492   2.015   7.955
 8277POPC   C4A36162  10.521   2.015   7.655
 8277POPC   C1B36163  10.282   1.811   8.555
 8277POPC   C2B36164  10.291   1.864   8.255
 8277POPC   C3B36165  10.285   1.889   7.955
 8277POPC   C4B36166  10.363   1.817   7.655
 8278POPC   NC336167  43.158  38.462   9.455
 8278POPC   PO436168  43.069  38.456   9.155
 8278POPC   GL136169  43.087  38.406   8.855
 8278POPC   GL236170  43.201  38.417   8.855
 8278POPC   C1A36171  43.068  38.447   8.555
 8278POPC   D2A36172  43.131  38.411   8.255
 8278POPC   C3A36173  43.144  38.438   7.955
 8278POPC   C4A36174  43.128  38.410   7.655
 8278POPC   C1B36175  43.254  38.329   8.555
 8278POPC   C2B36176  43.299  38.281   8.255
 8278POPC   C3B36177  43.333  38.285   7.955
 8278POPC   C4B36178  43.325  38.281   7.655
 8279POPC   NC336179   1.961  29.898   9.455
 8279POPC   PO436180   1.962  29.936   9.155
 8279POPC   GL136181   1.964  29.925   8.855
 8279POPC   GL236182   1.955  30.005   8.855
 8279POPC   C1A36183   2.008  29.941   8.555
 8279POPC   D2A36184   1.942  29.956   8.255
 8279POPC   C3A36185   2.019  29.915   7.955
 8279POPC   C4A36186   1.990  29.875   7.655
 8279POPC   C1B36187   1.900  30.113   8.555
 8279POPC   C2B36188   1.842  30.161   8.255
 8279POPC   C3B36189   1.914  30.166   7.955
 8279POPC   C4B36190   1.841  30.159   7.655
 8280POPC   NC336191   0.396  21.407   9.455
 8280POPC   PO436192   0.443  21.378   9.155
 8280POPC   GL136193   0.427  21.378   8.855
 8280POPC   GL236194   0.381  21.460   8.855
 8280POPC   C1A36195   0.484  21.399   8.555
 8280POPC   D2A36196   0.408  21.381   8.255
 8280POPC   C3A36197   0.459  21.404   7.955
 8280POPC   C4A36198   0.464  21.394   7.655
 8280POPC   C1B36199   0.280  21.622   8.555
 8280POPC   C2B36200   0.354  21.630   8.255
 8280POPC   C3B36201   0.285  21.580   7.955
 8280POPC   C4B36202   0.330  21.612   7.655
 8281POPC   NC336203  17.500  39.995   9.455
 8281POPC   PO436204  17.512  40.016   9.155
 8281POPC   GL136205  17.517  39.996   8.855
 8281POPC   GL236206  17.443  40.058   8.855
 8281POPC   C1A36207  17.497  40.005   8.555
 8281POPC   D2A36208  17.531  40.041   8.255
 8281POPC   C3A36209  17.481  40.021   7.955
 8281POPC   C4A36210  17.460  39.963   7.655
 8281POPC   C1B36211  17.340  40.184   8.555
 8281POPC   C2B36212  17.372  40.230   8.255
 8281POPC   C3B36213  17.314  40.235   7.955
 8281POPC   C4B36214  17.335  40.168   7.655
 8282POPC   NC336215  13.604  43.113   9.455
 8282POPC   PO436216  13.616  43.085   9.155
 8282POPC   GL136217  13.586  43.148   8.855
 8282POPC   GL236218  13.494  43.145   8.855
 8282POPC   C1A36219  13.582  43.151   8.555
 8282POPC   D2A36220  13.600  43.150   8.255
 8282POPC   C3A36221  13.604  43.109   7.955
 8282POPC   C4A36222  13.603  43.111   7.655
 8282POPC   C1B36223  13.399  43.239   8.555
 8282POPC   C2B36224  13.467  43.302   8.255
 8282POPC   C3B36225  13.400  43.231   7.955
 8282POPC   C4B36226  13.406  43.209   7.655
 8283POPC   NC336227  43.119  13.671   9.455
 8283POPC   PO436228  43.071  13.584   9.155
 8283POPC   GL136229  43.120  13.663   8.855
 8283POPC   GL236230  43.033  13.495   8.855
 8283POPC   C1A36231  43.081  13.662   8.555
 8283POPC   D2A36232  43.124  13.627   8.255
 8283POPC   C3A36233  43.084  13.663   7.955
 8283POPC   C4A36234  43.156  13.652   7.655
 8283POPC   C1B36235  42.949  13.380   8.555
 8283POPC   C2B36236  42.998  13.411   8.255
 8283POPC   C3B36237  43.036  13.388   7.955
 8283POPC   C4B36238  42.993  13.415   7.655
 8284POPC   NC336239  15.204  17.487   9.455
 8284POPC   PO436240  15.205  17.507   9.155
 8284POPC   GL136241  15.156  17.459   8.855
 8284POPC   GL236242  15.134  17.430   8.855
 8284POPC   C1A36243  15.202  17.531   8.555
 8284POPC   D2A36244  15.132  17.474   8.255
 8284POPC   C3A36245  15.151  17.547   7.955
 8284POPC   C4A36246  15.187  17.528   7.655
 8284POPC   C1B36247  15.154  17.288   8.555
 8284POPC   C2B36248  15.067  17.260   8.255
 8284POPC   C3B36249  15.148  17.253   7.955
 8284POPC   C4B36250  15.154  17.239   7.655
 8285POPC   NC336251  24.521  21.352   9.455
 8285POPC   PO436252  24.460  21.351   9.155
 8285POPC   GL136253  24.492  21.366   8.855
 8285POPC   GL236254  24.344  21.456   8.855
 8285POPC   C1A36255  24.442  21.358   8.555
 8285POPC   D2A36256  24.459  21.368   8.255
 8285POPC   C3A36257  24.515  21.350   7.955
 8285POPC   C4A36258  24.503  21.383   7.655
 8285POPC   C1B36259  24.254  21.452   8.555
 8285POPC   C2B36260  24.199  21.465   8.255
 8285POPC   C3B36261  24.297  21.462   7.955
 8285POPC   C4B36262  24.236  21.440   7.655
 8286POPC   NC336263  37.652  30.658   9.455
 8286POPC   PO436264  37.635  30.728   9.155
 8286POPC   GL136265  37.689  30.738   8.855
 8286POPC   GL236266  37.570  30.584   8.855
 8286POPC   C1A36267  37.711  30.710   8.555
 8286POPC   D2A36268  37.654  30.704   8.255
 8286POPC   C3A36269  37.657  30.721   7.955
 8286POPC   C4A36270  37.670  30.664   7.655
 8286POPC   C1B36271  37.507  30.515   8.555
 8286POPC   C2B36272  37.490  30.501   8.255
 8286POPC   C3B36273  37.475  30.507   7.955
 8286POPC   C4B36274  37.517  30.522   7.655
 8287POPC   NC336275  22.159  12.879   9.455
 8287POPC   PO436276  22.158  12.877   9.155
 8287POPC   GL136277  22.184  12.834   8.855
 8287POPC   GL236278  22.031  12.871   8.855
 8287POPC   C1A36279  22.202  12.855   8.555
 8287POPC   D2A36280  22.115  12.897   8.255
 8287POPC   C3A36281  22.201  12.810   7.955
 8287POPC   C4A36282  22.133  12.851   7.655
 8287POPC   C1B36283  21.900  12.967   8.555
 8287POPC   C2B36284  21.886  12.938   8.255
 8287POPC   C3B36285  21.915  12.884   7.955
 8287POPC   C4B36286  21.937  12.944   7.655
 8288POPC   NC336287  30.674  23.687   9.455
 8288POPC   PO436288  30.664  23.734   9.155
 8288POPC   GL136289  30.657  23.763   8.855
 8288POPC   GL236290  30.531  23.738   8.855
 8288POPC   C1A36291  30.715  23.749   8.555
 8288POPC   D2A36292  30.687  23.707   8.255
 8288POPC   C3A36293  30.651  23.747   7.955
 8288POPC   C4A36294  30.667  23.716   7.655
 8288POPC   C1B36295  30.477  23.775   8.555
 8288POPC   C2B36296  30.449  23.777   8.255
 8288POPC   C3B36297  30.414  23.812   7.955
 8288POPC   C4B36298  30.446  23.824   7.655
 8289POPC   NC336299   8.188   2.718   9.455
 8289POPC   PO436300   8.245   2.754   9.155
 8289POPC   GL136301   8.206   2.772   8.855
 8289POPC   GL236302   8.087   2.834   8.855
 8289POPC   C1A36303   8.177   2.770   8.555
 8289POPC   D2A36304   8.180   2.786   8.255
 8289POPC   C3A36305   8.205   2.781   7.955
 8289POPC   C4A36306   8.181   2.716   7.655
 8289POPC   C1B36307   8.026   2.993   8.555
 8289POPC   C2B36308   8.039   2.951   8.255
 8289POPC   C3B36309   8.036   3.026   7.955
 8289POPC   C4B36310   8.114   3.030   7.655
 8290POPC   NC336311  43.078   4.342   9.455
 8290POPC   PO436312  43.086   4.326   9.155
 8290POPC   GL136313  43.093   4.271   8.855
 8290POPC   GL236314  43.199   4.269   8.855
 8290POPC   C1A36315  43.147   4.328   8.555
 8290POPC   D2A36316  43.107   4.305   8.255
 8290POPC   C3A36317  43.082   4.359   7.955
 8290POPC   C4A36318  43.131   4.275   7.655
 8290POPC   C1B36319  43.286   4.245   8.555
 8290POPC   C2B36320  43.290   4.217   8.255
 8290POPC   C3B36321  43.376   4.228   7.955
 8290POPC   C4B36322  43.293   4.155   7.655
 8291POPC   NC336323  15.977   1.199   9.455
 8291POPC   PO436324  15.967   1.195   9.155
 8291POPC   GL136325  15.979   1.178   8.855
 8291POPC   GL236326  15.862   1.358   8.855
 8291POPC   C1A36327  16.004   1.174   8.555
 8291POPC   D2A36328  15.965   1.240   8.255
 8291POPC   C3A36329  15.999   1.186   7.955
 8291POPC   C4A36330  15.980   1.207   7.655
 8291POPC   C1B36331  15.778   1.389   8.555
 8291POPC   C2B36332  15.800   1.404   8.255
 8291POPC   C3B36333  15.812   1.452   7.955
 8291POPC   C4B36334  15.853   1.442   7.655
 8292POPC   NC336335  30.734  32.245   9.455
 8292POPC   PO436336  30.719  32.248   9.155
 8292POPC   GL136337  30.730  32.207   8.855
 8292POPC   GL236338  30.736  32.339   8.855
 8292POPC   C1A36339  30.712  32.281   8.555
 8292POPC   D2A36340  30.721  32.240   8.255
 8292POPC   C3A36341  30.713  32.288   7.955
 8292POPC   C4A36342  30.674  32.259   7.655
 8292POPC   C1B36343  30.825  32.446   8.555
 8292POPC   C2B36344  30.843  32.452   8.255
 8292POPC   C3B36345  30.770  32.450   7.955
 8292POPC   C4B36346  30.857  32.490   7.655
 8293POPC   NC336347   1.180  21.393   9.455
 8293POPC   PO436348   1.246  21.408   9.155
 8293POPC   GL136349   1.179  21.356   8.855
 8293POPC   GL236350   1.136  21.279   8.855
 8293POPC   C1A36351   1.231  21.389   8.555
 8293POPC   D2A36352   1.243  21.395   8.255
 8293POPC   C3A36353   1.200  21.407   7.955
 8293POPC   C4A36354   1.209  21.390   7.655
 8293POPC   C1B36355   1.074  21.185   8.555
 8293POPC   C2B36356   1.061  21.180   8.255
 8293POPC   C3B36357   1.075  21.144   7.955
 8293POPC   C4B36358   1.030  21.170   7.655
 8294POPC   NC336359  11.261   4.289   9.455
 8294POPC   PO436360  11.333   4.313   9.155
 8294POPC   GL136361  11.324   4.354   8.855
 8294POPC   GL236362  11.198   4.358   8.855
 8294POPC   C1A36363  11.275   4.298   8.555
 8294POPC   D2A36364  11.255   4.306   8.255
 8294POPC   C3A36365  11.303   4.322   7.955
 8294POPC   C4A36366  11.305   4.299   7.655
 8294POPC   C1B36367  11.019   4.349   8.555
 8294POPC   C2B36368  11.082   4.365   8.255
 8294POPC   C3B36369  11.024   4.404   7.955
 8294POPC   C4B36370  11.098   4.432   7.655
 8295POPC   NC336371   4.326  39.228   9.455
 8295POPC   PO436372   4.275  39.233   9.155
 8295POPC   GL136373   4.337  39.249   8.855
 8295POPC   GL236374   4.216  39.280   8.855
 8295POPC   C1A36375   4.319  39.205   8.555
 8295POPC   D2A36376   4.358  39.202   8.255
 8295POPC   C3A36377   4.326  39.255   7.955
 8295POPC   C4A36378   4.297  39.278   7.655
 8295POPC   C1B36379   4.082  39.414   8.555
 8295POPC   C2B36380   4.101  39.411   8.255
 8295POPC   C3B36381   4.107  39.345   7.955
 8295POPC   C4B36382   4.085  39.387   7.655
 8296POPC   NC336383  22.953  40.755   9.455
 8296POPC   PO436384  22.933  40.738   9.155
 8296POPC   GL136385  22.937  40.803   8.855
 8296POPC   GL236386  22.805  40.914   8.855
 8296POPC   C1A36387  22.985  40.742   8.555
 8296POPC   D2A36388  22.940  40.746   8.255
 8296POPC   C3A36389  22.920  40.751   7.955
 8296POPC   C4A36390  22.901  40.744   7.655
 8296POPC   C1B36391  22.739  40.904   8.555
 8296POPC   C2B36392  22.783  40.969   8.255
 8296POPC   C3B36393  22.739  40.993   7.955
 8296POPC   C4B36394  22.709  40.990   7.655
 8297POPC   NC336395  17.518  29.884   9.455
 8297POPC   PO436396  17.502  29.963   9.155
 8297POPC   GL136397  17.508  29.957   8.855
 8297POPC   GL236398  17.490  30.007   8.855
 8297POPC   C1A36399  17.535  29.911   8.555
 8297POPC   D2A36400  17.518  29.949   8.255
 8297POPC   C3A36401  17.528  29.965   7.955
 8297POPC   C4A36402  17.519  29.884   7.655
 8297POPC   C1B36403  17.421  30.099   8.555
 8297POPC   C2B36404  17.332  30.161   8.255
 8297POPC   C3B36405  17.381  30.092   7.955
 8297POPC   C4B36406  17.383  30.090   7.655
 8298POPC   NC336407  31.432  19.883   9.455
 8298POPC   PO436408  31.454  19.798   9.155
 8298POPC   GL136409  31.518  19.859   8.855
 8298POPC   GL236410  31.437  19.938   8.855
 8298POPC   C1A36411  31.479  19.810   8.555
 8298POPC   D2A36412  31.513  19.842   8.255
 8298POPC   C3A36413  31.477  19.865   7.955
 8298POPC   C4A36414  31.458  19.842   7.655
 8298POPC   C1B36415  31.300  20.034   8.555
 8298POPC   C2B36416  31.336  20.026   8.255
 8298POPC   C3B36417  31.334  20.021   7.955
 8298POPC   C4B36418  31.312  20.062   7.655
 8299POPC   NC336419  19.035  36.144   9.455
 8299POPC   PO436420  19.099  36.145   9.155
 8299POPC   GL136421  19.037  36.176   8.855
 8299POPC   GL236422  19.163  36.180   8.855
 8299POPC   C1A36423  19.072  36.120   8.555
 8299POPC   D2A36424  19.067  36.100   8.255
 8299POPC   C3A36425  19.066  36.157   7.955
 8299POPC   C4A36426  19.090  36.151   7.655
 8299POPC   C1B36427  19.324  36.267   8.555
 8299POPC   C2B36428  19.246  36.202   8.255
 8299POPC   C3B36429  19.263  36.255   7.955
 8299POPC   C4B36430  19.269  36.219   7.655
 8300POPC   NC336431  28.391  36.100   9.455
 8300POPC   PO436432  28.366  36.162   9.155
 8300POPC   GL136433  28.324  36.172   8.855
 8300POPC   GL236434  28.472  36.161   8.855
 8300POPC   C1A36435  28.394  36.154   8.555
 8300POPC   D2A36436  28.339  36.154   8.255
 8300POPC   C3A36437  28.347  36.159   7.955
 8300POPC   C4A36438  28.401  36.085   7.655
 8300POPC   C1B36439  28.596  36.261   8.555
 8300POPC   C2B36440  28.602  36.233   8.255
 8300POPC   C3B36441  28.632  36.248   7.955
 8300POPC   C4B36442  28.616  36.172   7.655
 8301POPC   NC336443  44.619   2.773   9.455
 8301POPC   PO436444  44.617   2.779   9.155
 8301POPC   GL136445  44.677   2.732   8.855
 8301POPC   GL236446  44.688   2.889   8.855
 8301POPC   C1A36447  44.701   2.751   8.555
 8301POPC   D2A36448  44.660   2.768   8.255
 8301POPC   C3A36449  44.673   2.726   7.955
 8301POPC   C4A36450  44.697   2.748   7.655
 8301POPC   C1B36451  44.619   3.014   8.555
 8301POPC   C2B36452  44.612   3.065   8.255
 8301POPC   C3B36453  44.689   2.968   7.955
 8301POPC   C4B36454  44.627   2.966   7.655
 8302POPC   NC336455  35.382  19.049   9.455
 8302POPC   PO436456  35.381  19.017   9.155
 8302POPC   GL136457  35.387  19.052   8.855
 8302POPC   GL236458  35.476  19.171   8.855
 8302POPC   C1A36459  35.342  19.033   8.555
 8302POPC   D2A36460  35.397  19.036   8.255
 8302POPC   C3A36461  35.397  19.104   7.955
 8302POPC   C4A36462  35.346  19.067   7.655
 8302POPC   C1B36463  35.537  19.195   8.555
 8302POPC   C2B36464  35.597  19.167   8.255
 8302POPC   C3B36465  35.592  19.143   7.955
 8302POPC   C4B36466  35.589  19.231   7.655
 8303POPC   NC336467  29.942  12.886   9.455
 8303POPC   PO436468  29.952  12.873   9.155
 8303POPC   GL136469  29.962  12.861   8.855
 8303POPC   GL236470  29.818  12.795   8.855
 8303POPC   C1A36471  29.954  12.893   8.555
 8303POPC   D2A36472  29.879  12.822   8.255
 8303POPC   C3A36473  29.882  12.874   7.955
 8303POPC   C4A36474  29.905  12.840   7.655
 8303POPC   C1B36475  29.661  12.729   8.555
 8303POPC   C2B36476  29.694  12.668   8.255
 8303POPC   C3B36477  29.707  12.754   7.955
 8303POPC   C4B36478  29.710  12.678   7.655
 8304POPC   NC336479   1.961   9.763   9.455
 8304POPC   PO436480   1.947   9.741   9.155
 8304POPC   GL136481   2.027   9.746   8.855
 8304POPC   GL236482   2.119   9.750   8.855
 8304POPC   C1A36483   1.997   9.704   8.555
 8304POPC   D2A36484   2.021   9.727   8.255
 8304POPC   C3A36485   1.970   9.755   7.955
 8304POPC   C4A36486   1.946   9.772   7.655
 8304POPC   C1B36487   2.233   9.695   8.555
 8304POPC   C2B36488   2.242   9.605   8.255
 8304POPC   C3B36489   2.172   9.667   7.955
 8304POPC   C4B36490   2.202   9.699   7.655
 8305POPC   NC336491  18.319  39.970   9.455
 8305POPC   PO436492  18.241  40.005   9.155
 8305POPC   GL136493  18.259  40.026   8.855
 8305POPC   GL236494  18.301  39.902   8.855
 8305POPC   C1A36495  18.267  40.044   8.555
 8305POPC   D2A36496  18.273  40.039   8.255
 8305POPC   C3A36497  18.284  39.975   7.955
 8305POPC   C4A36498  18.312  40.021   7.655
 8305POPC   C1B36499  18.372  39.762   8.555
 8305POPC   C2B36500  18.402  39.794   8.255
 8305POPC   C3B36501  18.341  39.795   7.955
 8305POPC   C4B36502  18.341  39.819   7.655
 8306POPC   NC336503  40.016   9.765   9.455
 8306POPC   PO436504  39.973   9.716   9.155
 8306POPC   GL136505  40.044   9.742   8.855
 8306POPC   GL236506  40.108   9.646   8.855
 8306POPC   C1A36507  40.010   9.796   8.555
 8306POPC   D2A36508  40.049   9.700   8.255
 8306POPC   C3A36509  40.005   9.705   7.955
 8306POPC   C4A36510  39.968   9.709   7.655
 8306POPC   C1B36511  40.240   9.607   8.555
 8306POPC   C2B36512  40.265   9.620   8.255
 8306POPC   C3B36513  40.181   9.604   7.955
 8306POPC   C4B36514  40.239   9.650   7.655
 8307POPC   NC336515  44.675   1.942   9.455
 8307POPC   PO436516  44.707   2.015   9.155
 8307POPC   GL136517  44.643   1.979   8.855
 8307POPC   GL236518  44.763   1.882   8.855
 8307POPC   C1A36519  44.667   1.971   8.555
 8307POPC   D2A36520  44.706   1.982   8.255
 8307POPC   C3A36521  44.619   1.994   7.955
 8307POPC   C4A36522  44.689   1.944   7.655
 8307POPC   C1B36523  44.881   1.821   8.555
 8307POPC   C2B36524  44.820   1.832   8.255
 8307POPC   C3B36525  44.872   1.762   7.955
 8307POPC   C4B36526  44.815   1.774   7.655
 8308POPC   NC336527  39.198  31.472   9.455
 8308POPC   PO436528  39.231  31.452   9.155
 8308POPC   GL136529  39.236  31.441   8.855
 8308POPC   GL236530  39.197  31.390   8.855
 8308POPC   C1A36531  39.261  31.520   8.555
 8308POPC   D2A36532  39.197  31.511   8.255
 8308POPC   C3A36533  39.277  31.424   7.955
 8308POPC   C4A36534  39.279  31.500   7.655
 8308POPC   C1B36535  39.096  31.294   8.555
 8308POPC   C2B36536  39.038  31.278   8.255
 8308POPC   C3B36537  39.114  31.247   7.955
 8308POPC   C4B36538  39.056  31.314   7.655
 8309POPC   NC336539  35.388  23.738   9.455
 8309POPC   PO436540  35.311  23.733   9.155
 8309POPC   GL136541  35.399  23.729   8.855
 8309POPC   GL236542  35.195  23.665   8.855
 8309POPC   C1A36543  35.383  23.665   8.555
 8309POPC   D2A36544  35.399  23.750   8.255
 8309POPC   C3A36545  35.328  23.667   7.955
 8309POPC   C4A36546  35.321  23.720   7.655
 8309POPC   C1B36547  35.156  23.664   8.555
 8309POPC   C2B36548  35.125  23.654   8.255
 8309POPC   C3B36549  35.127  23.620   7.955
 8309POPC   C4B36550  35.074  23.638   7.655
 8310POPC   NC336551  34.545  43.087   9.455
 8310POPC   PO436552  34.621  43.146   9.155
 8310POPC   GL136553  34.595  43.098   8.855
 8310POPC   GL236554  34.558  42.991   8.855
 8310POPC   C1A36555  34.601  43.098   8.555
 8310POPC   D2A36556  34.551  43.067   8.255
 8310POPC   C3A36557  34.573  43.130   7.955
 8310POPC   C4A36558  34.575  43.097   7.655
 8310POPC   C1B36559  34.540  42.822   8.555
 8310POPC   C2B36560  34.527  42.841   8.255
 8310POPC   C3B36561  34.557  42.903   7.955
 8310POPC   C4B36562  34.534  42.912   7.655
 8311POPC   NC336563  12.828  36.177   9.455
 8311POPC   PO436564  12.807  36.156   9.155
 8311POPC   GL136565  12.806  36.092   8.855
 8311POPC   GL236566  12.751  36.181   8.855
 8311POPC   C1A36567  12.834  36.126   8.555
 8311POPC   D2A36568  12.879  36.085   8.255
 8311POPC   C3A36569  12.837  36.103   7.955
 8311POPC   C4A36570  12.822  36.109   7.655
 8311POPC   C1B36571  12.628  36.175   8.555
 8311POPC   C2B36572  12.573  36.209   8.255
 8311POPC   C3B36573  12.612  36.240   7.955
 8311POPC   C4B36574  12.647  36.179   7.655
 8312POPC   NC336575  43.889   5.134   9.455
 8312POPC   PO436576  43.895   5.112   9.155
 8312POPC   GL136577  43.854   5.126   8.855
 8312POPC   GL236578  43.798   4.956   8.855
 8312POPC   C1A36579  43.899   5.138   8.555
 8312POPC   D2A36580  43.852   5.105   8.255
 8312POPC   C3A36581  43.890   5.103   7.955
 8312POPC   C4A36582  43.932   5.131   7.655
 8312POPC   C1B36583  43.763   4.871   8.555
 8312POPC   C2B36584  43.783   4.827   8.255
 8312POPC   C3B36585  43.779   4.909   7.955
 8312POPC   C4B36586  43.824   4.834   7.655
 8313POPC   NC336587  13.580  21.351   9.455
 8313POPC   PO436588  13.653  21.416   9.155
 8313POPC   GL136589  13.604  21.413   8.855
 8313POPC   GL236590  13.634  21.466   8.855
 8313POPC   C1A36591  13.663  21.404   8.555
 8313POPC   D2A36592  13.604  21.360   8.255
 8313POPC   C3A36593  13.635  21.425   7.955
 8313POPC   C4A36594  13.665  21.370   7.655
 8313POPC   C1B36595  13.670  21.660   8.555
 8313POPC   C2B36596  13.597  21.620   8.255
 8313POPC   C3B36597  13.605  21.653   7.955
 8313POPC   C4B36598  13.675  21.628   7.655
 8314POPC   NC336599  38.439  10.481   9.455
 8314POPC   PO436600  38.426  10.498   9.155
 8314POPC   GL136601  38.489  10.566   8.855
 8314POPC   GL236602  38.387  10.463   8.855
 8314POPC   C1A36603  38.416  10.499   8.555
 8314POPC   D2A36604  38.406  10.491   8.255
 8314POPC   C3A36605  38.444  10.510   7.955
 8314POPC   C4A36606  38.478  10.508   7.655
 8314POPC   C1B36607  38.237  10.436   8.555
 8314POPC   C2B36608  38.194  10.425   8.255
 8314POPC   C3B36609  38.225  10.411   7.955
 8314POPC   C4B36610  38.255  10.370   7.655
 8315POPC   NC336611  43.099  35.344   9.455
 8315POPC   PO436612  43.155  35.311   9.155
 8315POPC   GL136613  43.085  35.364   8.855
 8315POPC   GL236614  43.000  35.249   8.855
 8315POPC   C1A36615  43.156  35.347   8.555
 8315POPC   D2A36616  43.097  35.339   8.255
 8315POPC   C3A36617  43.091  35.367   7.955
 8315POPC   C4A36618  43.068  35.356   7.655
 8315POPC   C1B36619  42.933  35.174   8.555
 8315POPC   C2B36620  42.939  35.110   8.255
 8315POPC   C3B36621  42.933  35.115   7.955
 8315POPC   C4B36622  43.002  35.175   7.655
 8316POPC   NC336623   9.009   2.719   9.455
 8316POPC   PO436624   9.019   2.780   9.155
 8316POPC   GL136625   8.952   2.813   8.855
 8316POPC   GL236626   8.877   2.874   8.855
 8316POPC   C1A36627   9.004   2.742   8.555
 8316POPC   D2A36628   8.979   2.805   8.255
 8316POPC   C3A36629   9.002   2.757   7.955
 8316POPC   C4A36630   9.019   2.807   7.655
 8316POPC   C1B36631   8.741   2.943   8.555
 8316POPC   C2B36632   8.770   2.879   8.255
 8316POPC   C3B36633   8.778   2.933   7.955
 8316POPC   C4B36634   8.746   2.862   7.655
 8317POPC   NC336635  11.273  36.871   9.455
 8317POPC   PO436636  11.276  36.916   9.155
 8317POPC   GL136637  11.278  36.903   8.855
 8317POPC   GL236638  11.172  36.832   8.855
 8317POPC   C1A36639  11.350  36.859   8.555
 8317POPC   D2A36640  11.334  36.903   8.255
 8317POPC   C3A36641  11.345  36.948   7.955
 8317POPC   C4A36642  11.266  36.948   7.655
 8317POPC   C1B36643  11.147  36.741   8.555
 8317POPC   C2B36644  11.087  36.768   8.255
 8317POPC   C3B36645  11.091  36.760   7.955
 8317POPC   C4B36646  11.099  36.794   7.655
 8318POPC   NC336647   4.301   0.417   9.455
 8318POPC   PO436648   4.280   0.481   9.155
 8318POPC   GL136649   4.353   0.416   8.855
 8318POPC   GL236650   4.489   0.479   8.855
 8318POPC   C1A36651   4.326   0.414   8.555
 8318POPC   D2A36652   4.286   0.423   8.255
 8318POPC   C3A36653   4.362   0.408   7.955
 8318POPC   C4A36654   4.339   0.451   7.655
 8318POPC   C1B36655   4.596   0.502   8.555
 8318POPC   C2B36656   4.562   0.450   8.255
 8318POPC   C3B36657   4.554   0.430   7.955
 8318POPC   C4B36658   4.532   0.490   7.655
 8319POPC   NC336659  31.493  43.088   9.455
 8319POPC   PO436660  31.471  43.066   9.155
 8319POPC   GL136661  31.462  43.064   8.855
 8319POPC   GL236662  31.354  43.095   8.855
 8319POPC   C1A36663  31.440  43.079   8.555
 8319POPC   D2A36664  31.511  43.133   8.255
 8319POPC   C3A36665  31.503  43.093   7.955
 8319POPC   C4A36666  31.443  43.082   7.655
 8319POPC   C1B36667  31.208  43.060   8.555
 8319POPC   C2B36668  31.253  43.052   8.255
 8319POPC   C3B36669  31.201  43.059   7.955
 8319POPC   C4B36670  31.191  43.048   7.655
 8320POPC   NC336671  44.626   5.877   9.455
 8320POPC   PO436672  44.628   5.826   9.155
 8320POPC   GL136673  44.653   5.876   8.855
 8320POPC   GL236674  44.742   5.711   8.855
 8320POPC   C1A36675  44.675   5.821   8.555
 8320POPC   D2A36676  44.690   5.824   8.255
 8320POPC   C3A36677  44.668   5.855   7.955
 8320POPC   C4A36678  44.618   5.827   7.655
 8320POPC   C1B36679  44.815   5.625   8.555
 8320POPC   C2B36680  44.793   5.637   8.255
 8320POPC   C3B36681  44.801   5.627   7.955
 8320POPC   C4B36682  44.765   5.660   7.655
 8321POPC   NC336683  35.328  16.756   9.455
 8321POPC   PO436684  35.360  16.765   9.155
 8321POPC   GL136685  35.344  16.765   8.855
 8321POPC   GL236686  35.393  16.649   8.855
 8321POPC   C1A36687  35.384  16.685   8.555
 8321POPC   D2A36688  35.342  16.720   8.255
 8321POPC   C3A36689  35.397  16.752   7.955
 8321POPC   C4A36690  35.361  16.707   7.655
 8321POPC   C1B36691  35.503  16.521   8.555
 8321POPC   C2B36692  35.445  16.552   8.255
 8321POPC   C3B36693  35.405  16.545   7.955
 8321POPC   C4B36694  35.439  16.551   7.655
 8322POPC   NC336695   9.717  19.024   9.455
 8322POPC   PO436696   9.797  19.025   9.155
 8322POPC   GL136697   9.749  19.036   8.855
 8322POPC   GL236698   9.915  19.028   8.855
 8322POPC   C1A36699   9.755  19.038   8.555
 8322POPC   D2A36700   9.771  19.083   8.255
 8322POPC   C3A36701   9.741  19.099   7.955
 8322POPC   C4A36702   9.755  19.040   7.655
 8322POPC   C1B36703  10.025  19.007   8.555
 8322POPC   C2B36704   9.953  19.015   8.255
 8322POPC   C3B36705   9.956  19.054   7.955
 8322POPC   C4B36706   9.956  19.022   7.655
 8323POPC   NC336707  16.726   2.020   9.455
 8323POPC   PO436708  16.759   1.968   9.155
 8323POPC   GL136709  16.713   1.984   8.855
 8323POPC   GL236710  16.612   2.060   8.855
 8323POPC   C1A36711  16.755   2.035   8.555
 8323POPC   D2A36712  16.683   1.987   8.255
 8323POPC   C3A36713  16.694   1.975   7.955
 8323POPC   C4A36714  16.758   2.017   7.655
 8323POPC   C1B36715  16.621   2.211   8.555
 8323POPC   C2B36716  16.566   2.238   8.255
 8323POPC   C3B36717  16.553   2.219   7.955
 8323POPC   C4B36718  16.626   2.231   7.655
 8324POPC   NC336719  20.573  13.641   9.455
 8324POPC   PO436720  20.648  13.658   9.155
 8324POPC   GL136721  20.561  13.611   8.855
 8324POPC   GL236722  20.481  13.724   8.855
 8324POPC   C1A36723  20.609  13.644   8.555
 8324POPC   D2A36724  20.563  13.595   8.255
 8324POPC   C3A36725  20.571  13.658   7.955
 8324POPC   C4A36726  20.598  13.655   7.655
 8324POPC   C1B36727  20.412  13.683   8.555
 8324POPC   C2B36728  20.365  13.742   8.255
 8324POPC   C3B36729  20.370  13.724   7.955
 8324POPC   C4B36730  20.358  13.693   7.655
 8325POPC   NC336731  12.822  15.975   9.455
 8325POPC   PO436732  12.824  15.997   9.155
 8325POPC   GL136733  12.863  15.978   8.855
 8325POPC   GL236734  12.835  16.057   8.855
 8325POPC   C1A36735  12.817  15.951   8.555
 8325POPC   D2A36736  12.835  15.944   8.255
 8325POPC   C3A36737  12.844  15.973   7.955
 8325POPC   C4A36738  12.855  15.953   7.655
 8325POPC   C1B36739  12.830  16.229   8.555
 8325POPC   C2B36740  12.821  16.172   8.255
 8325POPC   C3B36741  12.885  16.200   7.955
 8325POPC   C4B36742  12.912  16.216   7.655
 8326POPC   NC336743  14.451  34.590   9.455
 8326POPC   PO436744  14.406  34.624   9.155
 8326POPC   GL136745  14.440  34.560   8.855
 8326POPC   GL236746  14.309  34.434   8.855
 8326POPC   C1A36747  14.433  34.604   8.555
 8326POPC   D2A36748  14.391  34.526   8.255
 8326POPC   C3A36749  14.411  34.625   7.955
 8326POPC   C4A36750  14.354  34.588   7.655
 8326POPC   C1B36751  14.273  34.355   8.555
 8326POPC   C2B36752  14.282  34.385   8.255
 8326POPC   C3B36753  14.293  34.347   7.955
 8326POPC   C4B36754  14.258  34.370   7.655
 8327POPC   NC336755  29.960  16.724   9.455
 8327POPC   PO436756  29.927  16.752   9.155
 8327POPC   GL136757  29.913  16.698   8.855
 8327POPC   GL236758  30.030  16.680   8.855
 8327POPC   C1A36759  29.961  16.763   8.555
 8327POPC   D2A36760  29.902  16.681   8.255
 8327POPC   C3A36761  29.902  16.740   7.955
 8327POPC   C4A36762  29.909  16.740   7.655
 8327POPC   C1B36763  30.047  16.516   8.555
 8327POPC   C2B36764  30.071  16.517   8.255
 8327POPC   C3B36765  30.130  16.554   7.955
 8327POPC   C4B36766  30.057  16.509   7.655
 8328POPC   NC336767   2.764  42.373   9.455
 8328POPC   PO436768   2.745  42.325   9.155
 8328POPC   GL136769   2.758  42.309   8.855
 8328POPC   GL236770   2.842  42.240   8.855
 8328POPC   C1A36771   2.745  42.287   8.555
 8328POPC   D2A36772   2.807  42.322   8.255
 8328POPC   C3A36773   2.792  42.299   7.955
 8328POPC   C4A36774   2.731  42.310   7.655
 8328POPC   C1B36775   2.999  42.218   8.555
 8328POPC   C2B36776   2.954  42.130   8.255
 8328POPC   C3B36777   2.935  42.142   7.955
 8328POPC   C4B36778   2.965  42.122   7.655
 8329POPC   NC336779  36.080  37.687   9.455
 8329POPC   PO436780  36.139  37.729   9.155
 8329POPC   GL136781  36.079  37.655   8.855
 8329POPC   GL236782  36.033  37.597   8.855
 8329POPC   C1A36783  36.093  37.711   8.555
 8329POPC   D2A36784  36.164  37.668   8.255
 8329POPC   C3A36785  36.106  37.655   7.955
 8329POPC   C4A36786  36.084  37.668   7.655
 8329POPC   C1B36787  35.972  37.419   8.555
 8329POPC   C2B36788  36.011  37.415   8.255
 8329POPC   C3B36789  36.040  37.473   7.955
 8329POPC   C4B36790  35.967  37.439   7.655
 8330POPC   NC336791  40.022  11.336   9.455
 8330POPC   PO436792  39.964  11.253   9.155
 8330POPC   GL136793  39.975  11.289   8.855
 8330POPC   GL236794  40.053  11.363   8.855
 8330POPC   C1A36795  39.995  11.311   8.555
 8330POPC   D2A36796  39.958  11.262   8.255
 8330POPC   C3A36797  40.011  11.254   7.955
 8330POPC   C4A36798  39.958  11.272   7.655
 8330POPC   C1B36799  40.184  11.482   8.555
 8330POPC   C2B36800  40.209  11.519   8.255
 8330POPC   C3B36801  40.139  11.515   7.955
 8330POPC   C4B36802  40.130  11.513   7.655
 8331POPC   NC336803  24.444  10.544   9.455
 8331POPC   PO436804  24.465  10.506   9.155
 8331POPC   GL136805  24.464  10.527   8.855
 8331POPC   GL236806  24.365  10.597   8.855
 8331POPC   C1A36807  24.456  10.547   8.555
 8331POPC   D2A36808  24.455  10.479   8.255
 8331POPC   C3A36809  24.459  10.555   7.955
 8331POPC   C4A36810  24.501  10.539   7.655
 8331POPC   C1B36811  24.272  10.557   8.555
 8331POPC   C2B36812  24.204  10.615   8.255
 8331POPC   C3B36813  24.228  10.544   7.955
 8331POPC   C4B36814  24.283  10.603   7.655
 8332POPC   NC336815  43.070  31.469   9.455
 8332POPC   PO436816  43.105  31.474   9.155
 8332POPC   GL136817  43.069  31.484   8.855
 8332POPC   GL236818  43.071  31.553   8.855
 8332POPC   C1A36819  43.141  31.519   8.555
 8332POPC   D2A36820  43.106  31.427   8.255
 8332POPC   C3A36821  43.137  31.433   7.955
 8332POPC   C4A36822  43.150  31.521   7.655
 8332POPC   C1B36823  42.901  31.665   8.555
 8332POPC   C2B36824  42.944  31.683   8.255
 8332POPC   C3B36825  42.994  31.633   7.955
 8332POPC   C4B36826  42.977  31.640   7.655
 8333POPC   NC336827  13.636  10.517   9.455
 8333POPC   PO436828  13.607  10.505   9.155
 8333POPC   GL136829  13.663  10.481   8.855
 8333POPC   GL236830  13.539  10.649   8.855
 8333POPC   C1A36831  13.601  10.508   8.555
 8333POPC   D2A36832  13.635  10.515   8.255
 8333POPC   C3A36833  13.627  10.554   7.955
 8333POPC   C4A36834  13.644  10.546   7.655
 8333POPC   C1B36835  13.466  10.715   8.555
 8333POPC   C2B36836  13.535  10.720   8.255
 8333POPC   C3B36837  13.499  10.729   7.955
 8333POPC   C4B36838  13.549  10.763   7.655
 8334POPC   NC336839   5.137  10.530   9.455
 8334POPC   PO436840   5.067  10.549   9.155
 8334POPC   GL136841   5.089  10.526   8.855
 8334POPC   GL236842   5.204  10.559   8.855
 8334POPC   C1A36843   5.050  10.496   8.555
 8334POPC   D2A36844   5.087  10.516   8.255
 8334POPC   C3A36845   5.050  10.565   7.955
 8334POPC   C4A36846   5.121  10.478   7.655
 8334POPC   C1B36847   5.374  10.549   8.555
 8334POPC   C2B36848   5.322  10.515   8.255
 8334POPC   C3B36849   5.366  10.496   7.955
 8334POPC   C4B36850   5.382  10.509   7.655
 8335POPC   NC336851  42.336  43.125   9.455
 8335POPC   PO436852  42.323  43.077   9.155
 8335POPC   GL136853  42.351  43.134   8.855
 8335POPC   GL236854  42.194  43.198   8.855
 8335POPC   C1A36855  42.362  43.124   8.555
 8335POPC   D2A36856  42.327  43.125   8.255
 8335POPC   C3A36857  42.326  43.111   7.955
 8335POPC   C4A36858  42.356  43.151   7.655
 8335POPC   C1B36859  42.050  43.238   8.555
 8335POPC   C2B36860  42.072  43.169   8.255
 8335POPC   C3B36861  42.131  43.221   7.955
 8335POPC   C4B36862  42.070  43.150   7.655
 8336POPC   NC336863  32.257  15.180   9.455
 8336POPC   PO436864  32.294  15.198   9.155
 8336POPC   GL136865  32.276  15.152   8.855
 8336POPC   GL236866  32.331  15.254   8.855
 8336POPC   C1A36867  32.278  15.206   8.555
 8336POPC   D2A36868  32.294  15.176   8.255
 8336POPC   C3A36869  32.290  15.175   7.955
 8336POPC   C4A36870  32.254  15.227   7.655
 8336POPC   C1B36871  32.375  15.457   8.555
 8336POPC   C2B36872  32.345  15.437   8.255
 8336POPC   C3B36873  32.367  15.434   7.955
 8336POPC   C4B36874  32.396  15.406   7.655
 8337POPC   NC336875  27.564  38.436   9.455
 8337POPC   PO436876  27.621  38.405   9.155
 8337POPC   GL136877  27.579  38.482   8.855
 8337POPC   GL236878  27.726  38.397   8.855
 8337POPC   C1A36879  27.596  38.452   8.555
 8337POPC   D2A36880  27.576  38.486   8.255
 8337POPC   C3A36881  27.612  38.465   7.955
 8337POPC   C4A36882  27.632  38.440   7.655
 8337POPC   C1B36883  27.885  38.380   8.555
 8337POPC   C2B36884  27.842  38.405   8.255
 8337POPC   C3B36885  27.809  38.437   7.955
 8337POPC   C4B36886  27.802  38.471   7.655
 8338POPC   NC336887  12.126  12.888   9.455
 8338POPC   PO436888  12.118  12.853   9.155
 8338POPC   GL136889  12.110  12.854   8.855
 8338POPC   GL236890  11.969  12.785   8.855
 8338POPC   C1A36891  12.067  12.819   8.555
 8338POPC   D2A36892  12.093  12.847   8.255
 8338POPC   C3A36893  12.085  12.837   7.955
 8338POPC   C4A36894  12.078  12.859   7.655
 8338POPC   C1B36895  11.950  12.687   8.555
 8338POPC   C2B36896  11.938  12.688   8.255
 8338POPC   C3B36897  11.949  12.598   7.955
 8338POPC   C4B36898  11.951  12.661   7.655
 8339POPC   NC336899  29.177  20.602   9.455
 8339POPC   PO436900  29.096  20.650   9.155
 8339POPC   GL136901  29.169  20.647   8.855
 8339POPC   GL236902  29.032  20.589   8.855
 8339POPC   C1A36903  29.182  20.615   8.555
 8339POPC   D2A36904  29.114  20.572   8.255
 8339POPC   C3A36905  29.134  20.588   7.955
 8339POPC   C4A36906  29.153  20.590   7.655
 8339POPC   C1B36907  28.896  20.521   8.555
 8339POPC   C2B36908  28.908  20.510   8.255
 8339POPC   C3B36909  28.946  20.503   7.955
 8339POPC   C4B36910  28.867  20.546   7.655
 8340POPC   NC336911  42.315  12.031   9.455
 8340POPC   PO436912  42.366  12.063   9.155
 8340POPC   GL136913  42.291  12.095   8.855
 8340POPC   GL236914  42.278  11.981   8.855
 8340POPC   C1A36915  42.319  12.082   8.555
 8340POPC   D2A36916  42.375  12.103   8.255
 8340POPC   C3A36917  42.379  12.061   7.955
 8340POPC   C4A36918  42.311  12.119   7.655
 8340POPC   C1B36919  42.238  11.811   8.555
 8340POPC   C2B36920  42.263  11.837   8.255
 8340POPC   C3B36921  42.219  11.859   7.955
 8340POPC   C4B36922  42.180  11.887   7.655
 8341POPC   NC336923  43.850   5.822   9.455
 8341POPC   PO436924  43.847   5.885   9.155
 8341POPC   GL136925  43.930   5.842   8.855
 8341POPC   GL236926  43.878   5.945   8.855
 8341POPC   C1A36927  43.849   5.854   8.555
 8341POPC   D2A36928  43.845   5.875   8.255
 8341POPC   C3A36929  43.936   5.819   7.955
 8341POPC   C4A36930  43.897   5.871   7.655
 8341POPC   C1B36931  43.913   6.073   8.555
 8341POPC   C2B36932  43.896   6.148   8.255
 8341POPC   C3B36933  43.885   6.097   7.955
 8341POPC   C4B36934  43.900   6.109   7.655
 8342POPC   NC336935   8.936  31.509   9.455
 8342POPC   PO436936   8.929  31.438   9.155
 8342POPC   GL136937   8.997  31.495   8.855
 8342POPC   GL236938   8.907  31.322   8.855
 8342POPC   C1A36939   8.991  31.513   8.555
 8342POPC   D2A36940   8.961  31.426   8.255
 8342POPC   C3A36941   8.951  31.424   7.955
 8342POPC   C4A36942   9.022  31.439   7.655
 8342POPC   C1B36943   8.849  31.245   8.555
 8342POPC   C2B36944   8.867  31.278   8.255
 8342POPC   C3B36945   8.929  31.219   7.955
 8342POPC   C4B36946   8.863  31.254   7.655
 8343POPC   NC336947  33.023   4.282   9.455
 8343POPC   PO436948  33.017   4.355   9.155
 8343POPC   GL136949  33.013   4.325   8.855
 8343POPC   GL236950  33.063   4.443   8.855
 8343POPC   C1A36951  33.021   4.339   8.555
 8343POPC   D2A36952  33.015   4.337   8.255
 8343POPC   C3A36953  33.005   4.318   7.955
 8343POPC   C4A36954  33.040   4.352   7.655
 8343POPC   C1B36955  33.106   4.552   8.555
 8343POPC   C2B36956  33.142   4.516   8.255
 8343POPC   C3B36957  33.147   4.555   7.955
 8343POPC   C4B36958  33.107   4.535   7.655
 8344POPC   NC336959  27.641  19.064   9.455
 8344POPC   PO436960  27.576  19.037   9.155
 8344POPC   GL136961  27.556  19.052   8.855
 8344POPC   GL236962  27.737  19.036   8.855
 8344POPC   C1A36963  27.594  19.043   8.555
 8344POPC   D2A36964  27.606  19.059   8.255
 8344POPC   C3A36965  27.558  19.058   7.955
 8344POPC   C4A36966  27.546  19.092   7.655
 8344POPC   C1B36967  27.817  19.012   8.555
 8344POPC   C2B36968  27.853  18.990   8.255
 8344POPC   C3B36969  27.834  19.015   7.955
 8344POPC   C4B36970  27.794  18.981   7.655
 8345POPC   NC336971  24.458  14.428   9.455
 8345POPC   PO436972  24.493  14.447   9.155
 8345POPC   GL136973  24.459  14.399   8.855
 8345POPC   GL236974  24.549  14.502   8.855
 8345POPC   C1A36975  24.490  14.362   8.555
 8345POPC   D2A36976  24.457  14.374   8.255
 8345POPC   C3A36977  24.529  14.401   7.955
 8345POPC   C4A36978  24.450  14.425   7.655
 8345POPC   C1B36979  24.693  14.579   8.555
 8345POPC   C2B36980  24.631  14.574   8.255
 8345POPC   C3B36981  24.704  14.569   7.955
 8345POPC   C4B36982  24.645  14.592   7.655
 8346POPC   NC336983  19.103  22.960   9.455
 8346POPC   PO436984  19.088  22.906   9.155
 8346POPC   GL136985  19.057  22.971   8.855
 8346POPC   GL236986  19.145  22.883   8.855
 8346POPC   C1A36987  19.062  22.964   8.555
 8346POPC   D2A36988  19.011  22.958   8.255
 8346POPC   C3A36989  19.054  22.909   7.955
 8346POPC   C4A36990  19.063  22.903   7.655
 8346POPC   C1B36991  19.257  22.780   8.555
 8346POPC   C2B36992  19.229  22.736   8.255
 8346POPC   C3B36993  19.278  22.806   7.955
 8346POPC   C4B36994  19.185  22.713   7.655
 8347POPC   NC336995  10.511  43.921   9.455
 8347POPC   PO436996  10.536  43.872   9.155
 8347POPC   GL136997  10.504  43.896   8.855
 8347POPC   GL236998  10.615  43.951   8.855
 8347POPC   C1A36999  10.513  43.932   8.555
 8347POPC   D2A37000  10.536  43.859   8.255
 8347POPC   C3A37001  10.485  43.841   7.955
 8347POPC   C4A37002  10.503  43.921   7.655
 8347POPC   C1B37003  10.722  44.063   8.555
 8347POPC   C2B37004  10.667  44.090   8.255
 8347POPC   C3B37005  10.679  44.077   7.955
 8347POPC   C4B37006  10.677  44.022   7.655
 8348POPC   NC337007  37.661  12.886   9.455
 8348POPC   PO437008  37.709  12.842   9.155
 8348POPC   GL137009  37.686  12.819   8.855
 8348POPC   GL237010  37.772  12.740   8.855
 8348POPC   C1A37011  37.634  12.842   8.555
 8348POPC   D2A37012  37.633  12.839   8.255
 8348POPC   C3A37013  37.645  12.827   7.955
 8348POPC   C4A37014  37.719  12.844   7.655
 8348POPC   C1B37015  37.913  12.655   8.555
 8348POPC   C2B37016  37.909  12.710   8.255
 8348POPC   C3B37017  37.851  12.665   7.955
 8348POPC   C4B37018  37.888  12.704   7.655
 8349POPC   NC337019  12.107  34.601   9.455
 8349POPC   PO437020  12.065  34.614   9.155
 8349POPC   GL137021  12.029  34.584   8.855
 8349POPC   GL237022  12.032  34.667   8.855
 8349POPC   C1A37023  12.043  34.581   8.555
 8349POPC   D2A37024  12.064  34.558   8.255
 8349POPC   C3A37025  12.046  34.611   7.955
 8349POPC   C4A37026  12.107  34.554   7.655
 8349POPC   C1B37027  12.029  34.831   8.555
 8349POPC   C2B37028  12.084  34.811   8.255
 8349POPC   C3B37029  12.085  34.871   7.955
 8349POPC   C4B37030  12.092  34.874   7.655
 8350POPC   NC337031  40.761   3.500   9.455
 8350POPC   PO437032  40.743   3.528   9.155
 8350POPC   GL137033  40.787   3.501   8.855
 8350POPC   GL237034  40.775   3.390   8.855
 8350POPC   C1A37035  40.794   3.555   8.555
 8350POPC   D2A37036  40.747   3.518   8.255
 8350POPC   C3A37037  40.810   3.505   7.955
 8350POPC   C4A37038  40.754   3.509   7.655
 8350POPC   C1B37039  40.785   3.279   8.555
 8350POPC   C2B37040  40.826   3.342   8.255
 8350POPC   C3B37041  40.807   3.335   7.955
 8350POPC   C4B37042  40.859   3.275   7.655
 8351POPC   NC337043  10.524  33.754   9.455
 8351POPC   PO437044  10.523  33.785   9.155
 8351POPC   GL137045  10.498  33.842   8.855
 8351POPC   GL237046  10.590  33.915   8.855
 8351POPC   C1A37047  10.546  33.793   8.555
 8351POPC   D2A37048  10.530  33.838   8.255
 8351POPC   C3A37049  10.569  33.831   7.955
 8351POPC   C4A37050  10.549  33.780   7.655
 8351POPC   C1B37051  10.588  34.000   8.555
 8351POPC   C2B37052  10.635  34.040   8.255
 8351POPC   C3B37053  10.627  34.061   7.955
 8351POPC   C4B37054  10.601  34.058   7.655
 8352POPC   NC337055   1.263  37.715   9.455
 8352POPC   PO437056   1.228  37.644   9.155
 8352POPC   GL137057   1.245  37.636   8.855
 8352POPC   GL237058   1.358  37.583   8.855
 8352POPC   C1A37059   1.205  37.637   8.555
 8352POPC   D2A37060   1.261  37.727   8.255
 8352POPC   C3A37061   1.185  37.702   7.955
 8352POPC   C4A37062   1.202  37.689   7.655
 8352POPC   C1B37063   1.453  37.537   8.555
 8352POPC   C2B37064   1.471  37.587   8.255
 8352POPC   C3B37065   1.423  37.561   7.955
 8352POPC   C4B37066   1.476  37.580   7.655
 8353POPC   NC337067   6.638  22.931   9.455
 8353POPC   PO437068   6.635  22.945   9.155
 8353POPC   GL137069   6.653  22.923   8.855
 8353POPC   GL237070   6.566  23.027   8.855
 8353POPC   C1A37071   6.693  22.908   8.555
 8353POPC   D2A37072   6.668  22.975   8.255
 8353POPC   C3A37073   6.654  22.941   7.955
 8353POPC   C4A37074   6.659  22.934   7.655
 8353POPC   C1B37075   6.505  23.150   8.555
 8353POPC   C2B37076   6.487  23.144   8.255
 8353POPC   C3B37077   6.536  23.132   7.955
 8353POPC   C4B37078   6.496  23.111   7.655
 8354POPC   NC337079  22.129   9.726   9.455
 8354POPC   PO437080  22.157   9.787   9.155
 8354POPC   GL137081  22.202   9.761   8.855
 8354POPC   GL237082  22.079   9.793   8.855
 8354POPC   C1A37083  22.139   9.721   8.555
 8354POPC   D2A37084  22.204   9.738   8.255
 8354POPC   C3A37085  22.134   9.714   7.955
 8354POPC   C4A37086  22.189   9.773   7.655
 8354POPC   C1B37087  21.904   9.870   8.555
 8354POPC   C2B37088  21.940   9.859   8.255
 8354POPC   C3B37089  21.898   9.867   7.955
 8354POPC   C4B37090  21.908   9.794   7.655
 8355POPC   NC337091  43.913  29.903   9.455
 8355POPC   PO437092  43.919  29.887   9.155
 8355POPC   GL137093  43.916  29.909   8.855
 8355POPC   GL237094  44.000  29.904   8.855
 8355POPC   C1A37095  43.865  29.968   8.555
 8355POPC   D2A37096  43.919  29.918   8.255
 8355POPC   C3A37097  43.910  29.925   7.955
 8355POPC   C4A37098  43.851  29.895   7.655
 8355POPC   C1B37099  44.118  29.915   8.555
 8355POPC   C2B37100  44.184  29.881   8.255
 8355POPC   C3B37101  44.134  29.907   7.955
 8355POPC   C4B37102  44.163  29.898   7.655
 8356POPC   NC337103  36.933  12.114   9.455
 8356POPC   PO437104  36.889  12.088   9.155
 8356POPC   GL137105  36.915  12.053   8.855
 8356POPC   GL237106  36.813  12.012   8.855
 8356POPC   C1A37107  36.880  12.052   8.555
 8356POPC   D2A37108  36.913  12.096   8.255
 8356POPC   C3A37109  36.924  12.099   7.955
 8356POPC   C4A37110  36.895  12.125   7.655
 8356POPC   C1B37111  36.708  11.915   8.555
 8356POPC   C2B37112  36.690  11.939   8.255
 8356POPC   C3B37113  36.658  11.986   7.955
 8356POPC   C4B37114  36.697  12.001   7.655
 8357POPC   NC337115  33.766  38.432   9.455
 8357POPC   PO437116  33.846  38.451   9.155
 8357POPC   GL137117  33.775  38.474   8.855
 8357POPC   GL237118  33.628  38.483   8.855
 8357POPC   C1A37119  33.850  38.439   8.555
 8357POPC   D2A37120  33.824  38.428   8.255
 8357POPC   C3A37121  33.782  38.454   7.955
 8357POPC   C4A37122  33.789  38.463   7.655
 8357POPC   C1B37123  33.507  38.446   8.555
 8357POPC   C2B37124  33.596  38.446   8.255
 8357POPC   C3B37125  33.577  38.483   7.955
 8357POPC   C4B37126  33.551  38.431   7.655
 8358POPC   NC337127  15.151  16.717   9.455
 8358POPC   PO437128  15.136  16.763   9.155
 8358POPC   GL137129  15.202  16.716   8.855
 8358POPC   GL237130  15.050  16.721   8.855
 8358POPC   C1A37131  15.211  16.781   8.555
 8358POPC   D2A37132  15.145  16.740   8.255
 8358POPC   C3A37133  15.211  16.779   7.955
 8358POPC   C4A37134  15.156  16.766   7.655
 8358POPC   C1B37135  14.931  16.737   8.555
 8358POPC   C2B37136  14.958  16.692   8.255
 8358POPC   C3B37137  14.898  16.719   7.955
 8358POPC   C4B37138  14.971  16.730   7.655
 8359POPC   NC337139  27.593  13.643   9.455
 8359POPC   PO437140  27.592  13.656   9.155
 8359POPC   GL137141  27.601  13.590   8.855
 8359POPC   GL237142  27.525  13.476   8.855
 8359POPC   C1A37143  27.572  13.643   8.555
 8359POPC   D2A37144  27.557  13.655   8.255
 8359POPC   C3A37145  27.558  13.608   7.955
 8359POPC   C4A37146  27.570  13.632   7.655
 8359POPC   C1B37147  27.450  13.425   8.555
 8359POPC   C2B37148  27.462  13.453   8.255
 8359POPC   C3B37149  27.460  13.379   7.955
 8359POPC   C4B37150  27.459  13.446   7.655
 8360POPC   NC337151  13.595  40.052   9.455
 8360POPC   PO437152  13.606  40.003   9.155
 8360POPC   GL137153  13.590  39.973   8.855
 8360POPC   GL237154  13.743  39.947   8.855
 8360POPC   C1A37155  13.597  39.990   8.555
 8360POPC   D2A37156  13.660  39.968   8.255
 8360POPC   C3A37157  13.637  40.057   7.955
 8360POPC   C4A37158  13.655  40.018   7.655
 8360POPC   C1B37159  13.865  39.916   8.555
 8360POPC   C2B37160  13.818  39.898   8.255
 8360POPC   C3B37161  13.894  39.948   7.955
 8360POPC   C4B37162  13.834  39.861   7.655
 8361POPC   NC337163  15.159  40.018   9.455
 8361POPC   PO437164  15.143  40.016   9.155
 8361POPC   GL137165  15.211  39.960   8.855
 8361POPC   GL237166  15.175  39.862   8.855
 8361POPC   C1A37167  15.181  40.005   8.555
 8361POPC   D2A37168  15.131  40.030   8.255
 8361POPC   C3A37169  15.199  40.054   7.955
 8361POPC   C4A37170  15.227  40.007   7.655
 8361POPC   C1B37171  15.191  39.763   8.555
 8361POPC   C2B37172  15.155  39.793   8.255
 8361POPC   C3B37173  15.114  39.716   7.955
 8361POPC   C4B37174  15.119  39.715   7.655
 8362POPC   NC337175  34.614   2.770   9.455
 8362POPC   PO437176  34.582   2.814   9.155
 8362POPC   GL137177  34.577   2.753   8.855
 8362POPC   GL237178  34.589   2.620   8.855
 8362POPC   C1A37179  34.579   2.735   8.555
 8362POPC   D2A37180  34.619   2.764   8.255
 8362POPC   C3A37181  34.611   2.800   7.955
 8362POPC   C4A37182  34.618   2.755   7.655
 8362POPC   C1B37183  34.614   2.493   8.555
 8362POPC   C2B37184  34.532   2.515   8.255
 8362POPC   C3B37185  34.534   2.483   7.955
 8362POPC   C4B37186  34.532   2.496   7.655
 8363POPC   NC337187  19.085  35.354   9.455
 8363POPC   PO437188  19.104  35.395   9.155
 8363POPC   GL137189  19.015  35.305   8.855
 8363POPC   GL237190  19.114  35.278   8.855
 8363POPC   C1A37191  19.090  35.335   8.555
 8363POPC   D2A37192  19.069  35.330   8.255
 8363POPC   C3A37193  19.018  35.336   7.955
 8363POPC   C4A37194  19.092  35.347   7.655
 8363POPC   C1B37195  19.304  35.168   8.555
 8363POPC   C2B37196  19.296  35.196   8.255
 8363POPC   C3B37197  19.222  35.252   7.955
 8363POPC   C4B37198  19.246  35.217   7.655
 8364POPC   NC337199   6.607  42.381   9.455
 8364POPC   PO437200   6.693  42.379   9.155
 8364POPC   GL137201   6.687  42.326   8.855
 8364POPC   GL237202   6.635  42.455   8.855
 8364POPC   C1A37203   6.689  42.374   8.555
 8364POPC   D2A37204   6.605  42.362   8.255
 8364POPC   C3A37205   6.689  42.310   7.955
 8364POPC   C4A37206   6.693  42.374   7.655
 8364POPC   C1B37207   6.638  42.607   8.555
 8364POPC   C2B37208   6.632  42.533   8.255
 8364POPC   C3B37209   6.570  42.586   7.955
 8364POPC   C4B37210   6.639  42.596   7.655
 8365POPC   NC337211   1.236  33.777   9.455
 8365POPC   PO437212   1.242  33.798   9.155
 8365POPC   GL137213   1.165  33.773   8.855
 8365POPC   GL237214   1.254  33.710   8.855
 8365POPC   C1A37215   1.202  33.790   8.555
 8365POPC   D2A37216   1.166  33.828   8.255
 8365POPC   C3A37217   1.194  33.771   7.955
 8365POPC   C4A37218   1.243  33.768   7.655
 8365POPC   C1B37219   1.356  33.649   8.555
 8365POPC   C2B37220   1.330  33.583   8.255
 8365POPC   C3B37221   1.345  33.588   7.955
 8365POPC   C4B37222   1.356  33.579   7.655
 8366POPC   NC337223  13.587  34.607   9.455
 8366POPC   PO437224  13.588  34.570   9.155
 8366POPC   GL137225  13.652  34.535   8.855
 8366POPC   GL237226  13.648  34.468   8.855
 8366POPC   C1A37227  13.618  34.551   8.555
 8366POPC   D2A37228  13.651  34.604   8.255
 8366POPC   C3A37229  13.607  34.581   7.955
 8366POPC   C4A37230  13.627  34.546   7.655
 8366POPC   C1B37231  13.581  34.370   8.555
 8366POPC   C2B37232  13.601  34.302   8.255
 8366POPC   C3B37233  13.652  34.281   7.955
 8366POPC   C4B37234  13.634  34.296   7.655
 8367POPC   NC337235  17.555  44.626   9.455
 8367POPC   PO437236  17.553  44.675   9.155
 8367POPC   GL137237  17.535  44.701   8.855
 8367POPC   GL237238  17.616  44.710   8.855
 8367POPC   C1A37239  17.477  44.690   8.555
 8367POPC   D2A37240  17.474  44.654   8.255
 8367POPC   C3A37241  17.473  44.641   7.955
 8367POPC   C4A37242  17.465  44.683   7.655
 8367POPC   C1B37243  17.761  44.716   8.555
 8367POPC   C2B37244  17.701  44.778   8.255
 8367POPC   C3B37245  17.762  44.750   7.955
 8367POPC   C4B37246  17.708  44.733   7.655
 8368POPC   NC337247  29.889  19.882   9.455
 8368POPC   PO437248  29.940  19.827   9.155
 8368POPC   GL137249  29.896  19.870   8.855
 8368POPC   GL237250  30.067  19.790   8.855
 8368POPC   C1A37251  29.902  19.847   8.555
 8368POPC   D2A37252  29.929  19.853   8.255
 8368POPC   C3A37253  29.960  19.847   7.955
 8368POPC   C4A37254  29.969  19.856   7.655
 8368POPC   C1B37255  30.093  19.702   8.555
 8368POPC   C2B37256  30.120  19.703   8.255
 8368POPC   C3B37257  30.171  19.681   7.955
 8368POPC   C4B37258  30.177  19.675   7.655
 8369POPC   NC337259   8.936  23.740   9.455
 8369POPC   PO437260   8.991  23.697   9.155
 8369POPC   GL137261   9.012  23.755   8.855
 8369POPC   GL237262   8.976  23.855   8.855
 8369POPC   C1A37263   8.981  23.759   8.555
 8369POPC   D2A37264   8.982  23.672   8.255
 8369POPC   C3A37265   8.995  23.726   7.955
 8369POPC   C4A37266   8.955  23.729   7.655
 8369POPC   C1B37267   8.896  23.903   8.555
 8369POPC   C2B37268   8.914  23.976   8.255
 8369POPC   C3B37269   8.886  23.975   7.955
 8369POPC   C4B37270   8.894  23.985   7.655
 8370POPC   NC337271  22.208  25.258   9.455
 8370POPC   PO437272  22.185  25.295   9.155
 8370POPC   GL137273  22.184  25.291   8.855
 8370POPC   GL237274  22.059  25.310   8.855
 8370POPC   C1A37275  22.204  25.256   8.555
 8370POPC   D2A37276  22.190  25.274   8.255
 8370POPC   C3A37277  22.167  25.312   7.955
 8370POPC   C4A37278  22.122  25.299   7.655
 8370POPC   C1B37279  21.949  25.403   8.555
 8370POPC   C2B37280  21.908  25.376   8.255
 8370POPC   C3B37281  21.960  25.359   7.955
 8370POPC   C4B37282  21.911  25.435   7.655
 8371POPC   NC337283  11.348   7.416   9.455
 8371POPC   PO437284  11.347   7.371   9.155
 8371POPC   GL137285  11.327   7.376   8.855
 8371POPC   GL237286  11.401   7.402   8.855
 8371POPC   C1A37287  11.338   7.404   8.555
 8371POPC   D2A37288  11.348   7.439   8.255
 8371POPC   C3A37289  11.306   7.397   7.955
 8371POPC   C4A37290  11.327   7.437   7.655
 8371POPC   C1B37291  11.518   7.516   8.555
 8371POPC   C2B37292  11.528   7.446   8.255
 8371POPC   C3B37293  11.499   7.518   7.955
 8371POPC   C4B37294  11.519   7.498   7.655
 8372POPC   NC337295  25.225  38.450   9.455
 8372POPC   PO437296  25.295  38.421   9.155
 8372POPC   GL137297  25.299  38.443   8.855
 8372POPC   GL237298  25.244  38.544   8.855
 8372POPC   C1A37299  25.311  38.504   8.555
 8372POPC   D2A37300  25.258  38.409   8.255
 8372POPC   C3A37301  25.271  38.407   7.955
 8372POPC   C4A37302  25.291  38.423   7.655
 8372POPC   C1B37303  25.264  38.700   8.555
 8372POPC   C2B37304  25.260  38.736   8.255
 8372POPC   C3B37305  25.264  38.714   7.955
 8372POPC   C4B37306  25.280  38.696   7.655
 8373POPC   NC337307  19.809   1.262   9.455
 8373POPC   PO437308  19.883   1.167   9.155
 8373POPC   GL137309  19.868   1.244   8.855
 8373POPC   GL237310  19.738   1.300   8.855
 8373POPC   C1A37311  19.883   1.188   8.555
 8373POPC   D2A37312  19.857   1.184   8.255
 8373POPC   C3A37313  19.862   1.176   7.955
 8373POPC   C4A37314  19.847   1.230   7.655
 8373POPC   C1B37315  19.559   1.268   8.555
 8373POPC   C2B37316  19.567   1.326   8.255
 8373POPC   C3B37317  19.565   1.324   7.955
 8373POPC   C4B37318  19.576   1.309   7.655
 8374POPC   NC337319  34.609  38.436   9.455
 8374POPC   PO437320  34.555  38.482   9.155
 8374POPC   GL137321  34.605  38.451   8.855
 8374POPC   GL237322  34.586  38.311   8.855
 8374POPC   C1A37323  34.583  38.438   8.555
 8374POPC   D2A37324  34.586  38.418   8.255
 8374POPC   C3A37325  34.531  38.477   7.955
 8374POPC   C4A37326  34.616  38.491   7.655
 8374POPC   C1B37327  34.488  38.229   8.555
 8374POPC   C2B37328  34.511  38.176   8.255
 8374POPC   C3B37329  34.504  38.216   7.955
 8374POPC   C4B37330  34.507  38.177   7.655
 8375POPC   NC337331  22.964  16.740   9.455
 8375POPC   PO437332  22.936  16.766   9.155
 8375POPC   GL137333  22.962  16.692   8.855
 8375POPC   GL237334  22.913  16.903   8.855
 8375POPC   C1A37335  22.925  16.741   8.555
 8375POPC   D2A37336  22.965  16.760   8.255
 8375POPC   C3A37337  22.950  16.768   7.955
 8375POPC   C4A37338  22.922  16.731   7.655
 8375POPC   C1B37339  22.953  16.987   8.555
 8375POPC   C2B37340  23.023  16.962   8.255
 8375POPC   C3B37341  22.932  16.973   7.955
 8375POPC   C4B37342  22.934  16.962   7.655
 8376POPC   NC337343   2.000  37.648   9.455
 8376POPC   PO437344   2.000  37.716   9.155
 8376POPC   GL137345   1.962  37.653   8.855
 8376POPC   GL237346   1.926  37.599   8.855
 8376POPC   C1A37347   1.986  37.662   8.555
 8376POPC   D2A37348   1.994  37.719   8.255
 8376POPC   C3A37349   2.029  37.726   7.955
 8376POPC   C4A37350   1.950  37.658   7.655
 8376POPC   C1B37351   1.917  37.436   8.555
 8376POPC   C2B37352   1.895  37.400   8.255
 8376POPC   C3B37353   1.910  37.470   7.955
 8376POPC   C4B37354   1.899  37.431   7.655
 8377POPC   NC337355  19.819  38.439   9.455
 8377POPC   PO437356  19.841  38.405   9.155
 8377POPC   GL137357  19.828  38.423   8.855
 8377POPC   GL237358  19.897  38.376   8.855
 8377POPC   C1A37359  19.840  38.477   8.555
 8377POPC   D2A37360  19.787  38.443   8.255
 8377POPC   C3A37361  19.881  38.500   7.955
 8377POPC   C4A37362  19.823  38.447   7.655
 8377POPC   C1B37363  19.979  38.217   8.555
 8377POPC   C2B37364  19.990  38.276   8.255
 8377POPC   C3B37365  20.006  38.252   7.955
 8377POPC   C4B37366  19.997  38.289   7.655
 8378POPC   NC337367   5.101   9.766   9.455
 8378POPC   PO437368   5.089   9.705   9.155
 8378POPC   GL137369   5.062   9.707   8.855
 8378POPC   GL237370   5.168   9.762   8.855
 8378POPC   C1A37371   5.086   9.724   8.555
 8378POPC   D2A37372   5.086   9.724   8.255
 8378POPC   C3A37373   5.092   9.767   7.955
 8378POPC   C4A37374   5.087   9.787   7.655
 8378POPC   C1B37375   5.296   9.734   8.555
 8378POPC   C2B37376   5.383   9.688   8.255
 8378POPC   C3B37377   5.338   9.690   7.955
 8378POPC   C4B37378   5.383   9.670   7.655
 8379POPC   NC337379  32.262  42.352   9.455
 8379POPC   PO437380  32.298  42.367   9.155
 8379POPC   GL137381  32.241  42.297   8.855
 8379POPC   GL237382  32.126  42.244   8.855
 8379POPC   C1A37383  32.271  42.371   8.555
 8379POPC   D2A37384  32.238  42.349   8.255
 8379POPC   C3A37385  32.217  42.310   7.955
 8379POPC   C4A37386  32.227  42.307   7.655
 8379POPC   C1B37387  32.117  42.106   8.555
 8379POPC   C2B37388  32.079  42.182   8.255
 8379POPC   C3B37389  32.088  42.126   7.955
 8379POPC   C4B37390  32.124  42.111   7.655
 8380POPC   NC337391  12.043  21.347   9.455
 8380POPC   PO437392  12.033  21.387   9.155
 8380POPC   GL137393  12.043  21.354   8.855
 8380POPC   GL237394  11.958  21.315   8.855
 8380POPC   C1A37395  12.056  21.421   8.555
 8380POPC   D2A37396  12.096  21.348   8.255
 8380POPC   C3A37397  12.049  21.413   7.955
 8380POPC   C4A37398  12.036  21.413   7.655
 8380POPC   C1B37399  11.889  21.147   8.555
 8380POPC   C2B37400  11.946  21.154   8.255
 8380POPC   C3B37401  11.962  21.217   7.955
 8380POPC   C4B37402  11.911  21.186   7.655
 8381POPC   NC337403  44.701   7.376   9.455
 8381POPC   PO437404  44.618   7.461   9.155
 8381POPC   GL137405  44.659   7.414   8.855
 8381POPC   GL237406  44.762   7.465   8.855
 8381POPC   C1A37407  44.645   7.412   8.555
 8381POPC   D2A37408  44.681   7.433   8.255
 8381POPC   C3A37409  44.627   7.393   7.955
 8381POPC   C4A37410  44.685   7.469   7.655
 8381POPC   C1B37411  44.868   7.458   8.555
 8381POPC   C2B37412  44.876   7.487   8.255
 8381POPC   C3B37413  44.947   7.467   7.955
 8381POPC   C4B37414  44.875   7.523   7.655
 8382POPC   NC337415   9.771  13.656   9.455
 8382POPC   PO437416   9.783  13.593   9.155
 8382POPC   GL137417   9.748  13.623   8.855
 8382POPC   GL237418   9.805  13.713   8.855
 8382POPC   C1A37419   9.705  13.622   8.555
 8382POPC   D2A37420   9.789  13.649   8.255
 8382POPC   C3A37421   9.730  13.589   7.955
 8382POPC   C4A37422   9.757  13.616   7.655
 8382POPC   C1B37423   9.918  13.744   8.555
 8382POPC   C2B37424   9.938  13.771   8.255
 8382POPC   C3B37425   9.962  13.742   7.955
 8382POPC   C4B37426   9.963  13.816   7.655
 8383POPC   NC337427  44.698   6.652   9.455
 8383POPC   PO437428  44.692   6.634   9.155
 8383POPC   GL137429  44.617   6.625   8.855
 8383POPC   GL237430  44.688   6.720   8.855
 8383POPC   C1A37431  44.651   6.614   8.555
 8383POPC   D2A37432  44.709   6.613   8.255
 8383POPC   C3A37433  44.615   6.689   7.955
 8383POPC   C4A37434  44.665   6.674   7.655
 8383POPC   C1B37435  44.724   6.871   8.555
 8383POPC   C2B37436  44.747   6.835   8.255
 8383POPC   C3B37437  44.720   6.897   7.955
 8383POPC   C4B37438  44.793   6.867   7.655
 8384POPC   NC337439  43.126  41.562   9.455
 8384POPC   PO437440  43.120  41.559   9.155
 8384POPC   GL137441  43.133  41.580   8.855
 8384POPC   GL237442  43.165  41.425   8.855
 8384POPC   C1A37443  43.076  41.542   8.555
 8384POPC   D2A37444  43.136  41.520   8.255
 8384POPC   C3A37445  43.105  41.560   7.955
 8384POPC   C4A37446  43.127  41.519   7.655
 8384POPC   C1B37447  43.316  41.405   8.555
 8384POPC   C2B37448  43.305  41.379   8.255
 8384POPC   C3B37449  43.249  41.352   7.955
 8384POPC   C4B37450  43.259  41.357   7.655
 8385POPC   NC337451  32.205  33.841   9.455
 8385POPC   PO437452  32.236  33.820   9.155
 8385POPC   GL137453  32.280  33.841   8.855
 8385POPC   GL237454  32.328  33.649   8.855
 8385POPC   C1A37455  32.256  33.779   8.555
 8385POPC   D2A37456  32.213  33.825   8.255
 8385POPC   C3A37457  32.245  33.779   7.955
 8385POPC   C4A37458  32.229  33.766   7.655
 8385POPC   C1B37459  32.420  33.618   8.555
 8385POPC   C2B37460  32.375  33.611   8.255
 8385POPC   C3B37461  32.426  33.618   7.955
 8385POPC   C4B37462  32.412  33.625   7.655
 8386POPC   NC337463  12.837  10.499   9.455
 8386POPC   PO437464  12.893  10.481   9.155
 8386POPC   GL137465  12.843  10.552   8.855
 8386POPC   GL237466  12.956  10.455   8.855
 8386POPC   C1A37467  12.809  10.514   8.555
 8386POPC   D2A37468  12.815  10.507   8.255
 8386POPC   C3A37469  12.812  10.527   7.955
 8386POPC   C4A37470  12.837  10.573   7.655
 8386POPC   C1B37471  13.041  10.423   8.555
 8386POPC   C2B37472  13.070  10.416   8.255
 8386POPC   C3B37473  13.052  10.345   7.955
 8386POPC   C4B37474  13.059  10.413   7.655
 8387POPC   NC337475  29.883  34.623   9.455
 8387POPC   PO437476  29.941  34.538   9.155
 8387POPC   GL137477  29.963  34.560   8.855
 8387POPC   GL237478  29.955  34.424   8.855
 8387POPC   C1A37479  29.887  34.531   8.555
 8387POPC   D2A37480  29.939  34.599   8.255
 8387POPC   C3A37481  29.957  34.589   7.955
 8387POPC   C4A37482  29.921  34.601   7.655
 8387POPC   C1B37483  29.968  34.366   8.555
 8387POPC   C2B37484  29.945  34.309   8.255
 8387POPC   C3B37485  29.947  34.323   7.955
 8387POPC   C4B37486  29.933  34.287   7.655
 8388POPC   NC337487  20.605  41.522   9.455
 8388POPC   PO437488  20.583  41.543   9.155
 8388POPC   GL137489  20.617  41.555   8.855
 8388POPC   GL237490  20.504  41.475   8.855
 8388POPC   C1A37491  20.594  41.566   8.555
 8388POPC   D2A37492  20.578  41.519   8.255
 8388POPC   C3A37493  20.627  41.547   7.955
 8388POPC   C4A37494  20.618  41.585   7.655
 8388POPC   C1B37495  20.441  41.362   8.555
 8388POPC   C2B37496  20.525  41.351   8.255
 8388POPC   C3B37497  20.524  41.367   7.955
 8388POPC   C4B37498  20.492  41.367   7.655
 8389POPC   NC337499  33.061  42.300   9.455
 8389POPC   PO437500  33.068  42.320   9.155
 8389POPC   GL137501  33.047  42.359   8.855
 8389POPC   GL237502  32.930  42.471   8.855
 8389POPC   C1A37503  33.066  42.309   8.555
 8389POPC   D2A37504  33.005  42.306   8.255
 8389POPC   C3A37505  33.027  42.313   7.955
 8389POPC   C4A37506  33.002  42.302   7.655
 8389POPC   C1B37507  32.874  42.498   8.555
 8389POPC   C2B37508  32.879  42.555   8.255
 8389POPC   C3B37509  32.839  42.508   7.955
 8389POPC   C4B37510  32.869  42.489   7.655
 8390POPC   NC337511   8.925  35.305   9.455
 8390POPC   PO437512   9.018  35.322   9.155
 8390POPC   GL137513   8.954  35.366   8.855
 8390POPC   GL237514   9.056  35.225   8.855
 8390POPC   C1A37515   8.997  35.358   8.555
 8390POPC   D2A37516   8.950  35.311   8.255
 8390POPC   C3A37517   8.989  35.390   7.955
 8390POPC   C4A37518   9.007  35.359   7.655
 8390POPC   C1B37519   9.100  35.187   8.555
 8390POPC   C2B37520   9.154  35.119   8.255
 8390POPC   C3B37521   9.174  35.161   7.955
 8390POPC   C4B37522   9.113  35.172   7.655
 8391POPC   NC337523  12.863   1.230   9.455
 8391POPC   PO437524  12.861   1.230   9.155
 8391POPC   GL137525  12.895   1.244   8.855
 8391POPC   GL237526  12.873   1.354   8.855
 8391POPC   C1A37527  12.804   1.182   8.555
 8391POPC   D2A37528  12.885   1.204   8.255
 8391POPC   C3A37529  12.878   1.184   7.955
 8391POPC   C4A37530  12.869   1.203   7.655
 8391POPC   C1B37531  12.754   1.433   8.555
 8391POPC   C2B37532  12.749   1.422   8.255
 8391POPC   C3B37533  12.812   1.452   7.955
 8391POPC   C4B37534  12.793   1.468   7.655
 8392POPC   NC337535  21.431  41.532   9.455
 8392POPC   PO437536  21.412  41.519   9.155
 8392POPC   GL137537  21.354  41.513   8.855
 8392POPC   GL237538  21.281  41.588   8.855
 8392POPC   C1A37539  21.390  41.536   8.555
 8392POPC   D2A37540  21.342  41.551   8.255
 8392POPC   C3A37541  21.362  41.566   7.955
 8392POPC   C4A37542  21.426  41.557   7.655
 8392POPC   C1B37543  21.162  41.549   8.555
 8392POPC   C2B37544  21.094  41.588   8.255
 8392POPC   C3B37545  21.145  41.591   7.955
 8392POPC   C4B37546  21.179  41.522   7.655
 8393POPC   NC337547  19.021  43.134   9.455
 8393POPC   PO437548  19.066  43.081   9.155
 8393POPC   GL137549  19.085  43.090   8.855
 8393POPC   GL237550  19.062  43.278   8.855
 8393POPC   C1A37551  19.048  43.100   8.555
 8393POPC   D2A37552  19.080  43.063   8.255
 8393POPC   C3A37553  19.037  43.096   7.955
 8393POPC   C4A37554  19.077  43.081   7.655
 8393POPC   C1B37555  19.079  43.359   8.555
 8393POPC   C2B37556  19.098  43.342   8.255
 8393POPC   C3B37557  19.083  43.344   7.955
 8393POPC   C4B37558  19.019  43.393   7.655
 8394POPC   NC337559  25.269  42.321   9.455
 8394POPC   PO437560  25.239  42.367   9.155
 8394POPC   GL137561  25.275  42.337   8.855
 8394POPC   GL237562  25.110  42.372   8.855
 8394POPC   C1A37563  25.267  42.340   8.555
 8394POPC   D2A37564  25.229  42.307   8.255
 8394POPC   C3A37565  25.261  42.379   7.955
 8394POPC   C4A37566  25.248  42.317   7.655
 8394POPC   C1B37567  25.058  42.469   8.555
 8394POPC   C2B37568  25.028  42.425   8.255
 8394POPC   C3B37569  25.011  42.506   7.955
 8394POPC   C4B37570  25.006  42.494   7.655
 8395POPC   NC337571   0.466  14.440   9.455
 8395POPC   PO437572   0.430  14.371   9.155
 8395POPC   GL137573   0.480  14.361   8.855
 8395POPC   GL237574   0.526  14.501   8.855
 8395POPC   C1A37575   0.395  14.356   8.555
 8395POPC   D2A37576   0.462  14.386   8.255
 8395POPC   C3A37577   0.410  14.377   7.955
 8395POPC   C4A37578   0.407  14.412   7.655
 8395POPC   C1B37579   0.634  14.489   8.555
 8395POPC   C2B37580   0.646  14.529   8.255
 8395POPC   C3B37581   0.657  14.521   7.955
 8395POPC   C4B37582   0.640  14.509   7.655
 8396POPC   NC337583  30.734  28.342   9.455
 8396POPC   PO437584  30.681  28.319   9.155
 8396POPC   GL137585  30.697  28.340   8.855
 8396POPC   GL237586  30.624  28.364   8.855
 8396POPC   C1A37587  30.676  28.408   8.555
 8396POPC   D2A37588  30.723  28.391   8.255
 8396POPC   C3A37589  30.722  28.404   7.955
 8396POPC   C4A37590  30.675  28.323   7.655
 8396POPC   C1B37591  30.446  28.311   8.555
 8396POPC   C2B37592  30.463  28.312   8.255
 8396POPC   C3B37593  30.478  28.269   7.955
 8396POPC   C4B37594  30.495  28.217   7.655
 8397POPC   NC337595  32.209  21.346   9.455
 8397POPC   PO437596  32.229  21.422   9.155
 8397POPC   GL137597  32.288  21.357   8.855
 8397POPC   GL237598  32.275  21.230   8.855
 8397POPC   C1A37599  32.242  21.383   8.555
 8397POPC   D2A37600  32.242  21.389   8.255
 8397POPC   C3A37601  32.291  21.389   7.955
 8397POPC   C4A37602  32.202  21.435   7.655
 8397POPC   C1B37603  32.236  21.100   8.555
 8397POPC   C2B37604  32.306  21.126   8.255
 8397POPC   C3B37605  32.239  21.133   7.955
 8397POPC   C4B37606  32.215  21.108   7.655
 8398POPC   NC337607   1.174  29.894   9.455
 8398POPC   PO437608   1.185  29.894   9.155
 8398POPC   GL137609   1.236  29.910   8.855
 8398POPC   GL237610   1.213  30.067   8.855
 8398POPC   C1A37611   1.229  29.912   8.555
 8398POPC   D2A37612   1.231  29.970   8.255
 8398POPC   C3A37613   1.213  29.929   7.955
 8398POPC   C4A37614   1.263  29.952   7.655
 8398POPC   C1B37615   1.333  30.184   8.555
 8398POPC   C2B37616   1.308  30.144   8.255
 8398POPC   C3B37617   1.337  30.157   7.955
 8398POPC   C4B37618   1.267  30.164   7.655
 8399POPC   NC337619  20.651  36.088   9.455
 8399POPC   PO437620  20.636  36.132   9.155
 8399POPC   GL137621  20.591  36.105   8.855
 8399POPC   GL237622  20.450  36.094   8.855
 8399POPC   C1A37623  20.618  36.127   8.555
 8399POPC   D2A37624  20.635  36.145   8.255
 8399POPC   C3A37625  20.563  36.106   7.955
 8399POPC   C4A37626  20.632  36.169   7.655
 8399POPC   C1B37627  20.408  36.140   8.555
 8399POPC   C2B37628  20.337  36.122   8.255
 8399POPC   C3B37629  20.327  36.102   7.955
 8399POPC   C4B37630  20.319  36.153   7.655
 8400POPC   NC337631  39.254   5.897   9.455
 8400POPC   PO437632  39.257   5.893   9.155
 8400POPC   GL137633  39.211   5.874   8.855
 8400POPC   GL237634  39.167   5.794   8.855
 8400POPC   C1A37635  39.266   5.911   8.555
 8400POPC   D2A37636  39.258   5.838   8.255
 8400POPC   C3A37637  39.186   5.899   7.955
 8400POPC   C4A37638  39.191   5.878   7.655
 8400POPC   C1B37639  39.015   5.736   8.555
 8400POPC   C2B37640  39.036   5.805   8.255
 8400POPC   C3B37641  39.007   5.714   7.955
 8400POPC   C4B37642  39.022   5.804   7.655
 8401POPC   NC337643  44.645   9.768   9.455
 8401POPC   PO437644  44.655   9.744   9.155
 8401POPC   GL137645  44.702   9.702   8.855
 8401POPC   GL237646  44.758   9.731   8.855
 8401POPC   C1A37647  44.692   9.794   8.555
 8401POPC   D2A37648  44.690   9.767   8.255
 8401POPC   C3A37649  44.680   9.738   7.955
 8401POPC   C4A37650  44.687   9.742   7.655
 8401POPC   C1B37651  44.871   9.698   8.555
 8401POPC   C2B37652  44.874   9.704   8.255
 8401POPC   C3B37653  44.922   9.774   7.955
 8401POPC   C4B37654  44.926   9.749   7.655
 8402POPC   NC337655  26.078  19.858   5.555
 8402POPC   PO437656  25.998  19.828   5.855
 8402POPC   GL137657  26.074  19.847   6.155
 8402POPC   GL237658  26.067  19.915   6.155
 8402POPC   C1A37659  26.084  19.878   6.455
 8402POPC   D2A37660  25.993  19.817   6.755
 8402POPC   C3A37661  26.016  19.836   7.055
 8402POPC   C4A37662  26.052  19.836   7.355
 8402POPC   C1B37663  26.115  20.079   6.455
 8402POPC   C2B37664  26.139  20.071   6.755
 8402POPC   C3B37665  26.092  20.031   7.055
 8402POPC   C4B37666  26.076  20.059   7.355
 8403POPC   NC337667  13.616   8.230   5.555
 8403POPC   PO437668  13.582   8.194   5.855
 8403POPC   GL137669  13.608   8.211   6.155
 8403POPC   GL237670  13.614   8.121   6.155
 8403POPC   C1A37671  13.595   8.158   6.455
 8403POPC   D2A37672  13.674   8.221   6.755
 8403POPC   C3A37673  13.664   8.155   7.055
 8403POPC   C4A37674  13.630   8.196   7.355
 8403POPC   C1B37675  13.551   8.006   6.455
 8403POPC   C2B37676  13.475   7.972   6.755
 8403POPC   C3B37677  13.495   7.997   7.055
 8403POPC   C4B37678  13.537   8.005   7.355
 8404POPC   NC337679  12.891   4.297   5.555
 8404POPC   PO437680  12.856   4.305   5.855
 8404POPC   GL137681  12.811   4.324   6.155
 8404POPC   GL237682  12.971   4.422   6.155
 8404POPC   C1A37683  12.861   4.340   6.455
 8404POPC   D2A37684  12.809   4.300   6.755
 8404POPC   C3A37685  12.839   4.295   7.055
 8404POPC   C4A37686  12.830   4.287   7.355
 8404POPC   C1B37687  13.083   4.409   6.455
 8404POPC   C2B37688  13.068   4.396   6.755
 8404POPC   C3B37689  13.034   4.476   7.055
 8404POPC   C4B37690  13.114   4.406   7.355
 8405POPC   NC337691  22.977   2.723   5.555
 8405POPC   PO437692  22.940   2.754   5.855
 8405POPC   GL137693  22.959   2.778   6.155
 8405POPC   GL237694  22.971   2.633   6.155
 8405POPC   C1A37695  22.929   2.807   6.455
 8405POPC   D2A37696  22.943   2.726   6.755
 8405POPC   C3A37697  22.952   2.803   7.055
 8405POPC   C4A37698  22.936   2.748   7.355
 8405POPC   C1B37699  22.937   2.545   6.455
 8405POPC   C2B37700  22.858   2.536   6.755
 8405POPC   C3B37701  22.882   2.519   7.055
 8405POPC   C4B37702  22.878   2.559   7.355
 8406POPC   NC337703  12.881  24.499   5.555
 8406POPC   PO437704  12.818  24.496   5.855
 8406POPC   GL137705  12.842  24.475   6.155
 8406POPC   GL237706  12.895  24.383   6.155
 8406POPC   C1A37707  12.825  24.449   6.455
 8406POPC   D2A37708  12.849  24.479   6.755
 8406POPC   C3A37709  12.892  24.454   7.055
 8406POPC   C4A37710  12.868  24.494   7.355
 8406POPC   C1B37711  12.922  24.224   6.455
 8406POPC   C2B37712  12.970  24.307   6.755
 8406POPC   C3B37713  12.953  24.243   7.055
 8406POPC   C4B37714  12.910  24.264   7.355
 8407POPC   NC337715  35.355  26.001   5.555
 8407POPC   PO437716  35.377  26.049   5.855
 8407POPC   GL137717  35.311  26.061   6.155
 8407POPC   GL237718  35.343  26.211   6.155
 8407POPC   C1A37719  35.395  26.011   6.455
 8407POPC   D2A37720  35.356  25.998   6.755
 8407POPC   C3A37721  35.332  26.061   7.055
 8407POPC   C4A37722  35.334  26.041   7.355
 8407POPC   C1B37723  35.356  26.271   6.455
 8407POPC   C2B37724  35.336  26.250   6.755
 8407POPC   C3B37725  35.340  26.325   7.055
 8407POPC   C4B37726  35.359  26.282   7.355
 8408POPC   NC337727  29.875  13.619   5.555
 8408POPC   PO437728  29.928  13.652   5.855
 8408POPC   GL137729  29.884  13.596   6.155
 8408POPC   GL237730  29.765  13.644   6.155
 8408POPC   C1A37731  29.933  13.584   6.455
 8408POPC   D2A37732  29.968  13.673   6.755
 8408POPC   C3A37733  29.901  13.609   7.055
 8408POPC   C4A37734  29.919  13.607   7.355
 8408POPC   C1B37735  29.666  13.531   6.455
 8408POPC   C2B37736  29.652  13.531   6.755
 8408POPC   C3B37737  29.637  13.574   7.055
 8408POPC   C4B37738  29.647  13.602   7.355
 8409POPC   NC337739  12.112  37.670   5.555
 8409POPC   PO437740  12.105  37.673   5.855
 8409POPC   GL137741  12.028  37.646   6.155
 8409POPC   GL237742  12.238  37.648   6.155
 8409POPC   C1A37743  12.049  37.639   6.455
 8409POPC   D2A37744  12.093  37.667   6.755
 8409POPC   C3A37745  12.105  37.707   7.055
 8409POPC   C4A37746  12.061  37.631   7.355
 8409POPC   C1B37747  12.373  37.676   6.455
 8409POPC   C2B37748  12.366  37.671   6.755
 8409POPC   C3B37749  12.340  37.760   7.055
 8409POPC   C4B37750  12.280  37.749   7.355
 8410POPC   NC337751  38.430   8.941   5.555
 8410POPC   PO437752  38.417   9.006   5.855
 8410POPC   GL137753  38.425   8.963   6.155
 8410POPC   GL237754  38.355   8.953   6.155
 8410POPC   C1A37755  38.496   8.964   6.455
 8410POPC   D2A37756  38.474   8.993   6.755
 8410POPC   C3A37757  38.445   9.012   7.055
 8410POPC   C4A37758  38.411   8.978   7.355
 8410POPC   C1B37759  38.233   8.879   6.455
 8410POPC   C2B37760  38.268   8.852   6.755
 8410POPC   C3B37761  38.272   8.809   7.055
 8410POPC   C4B37762  38.267   8.840   7.355
 8411POPC   NC337763  21.425  22.889   5.555
 8411POPC   PO437764  21.346  22.911   5.855
 8411POPC   GL137765  21.368  22.967   6.155
 8411POPC   GL237766  21.312  22.845   6.155
 8411POPC   C1A37767  21.340  22.926   6.455
 8411POPC   D2A37768  21.409  22.893   6.755
 8411POPC   C3A37769  21.391  22.937   7.055
 8411POPC   C4A37770  21.398  22.928   7.355
 8411POPC   C1B37771  21.257  22.723   6.455
 8411POPC   C2B37772  21.258  22.733   6.755
 8411POPC   C3B37773  21.250  22.736   7.055
 8411POPC   C4B37774  21.202  22.699   7.355
 8412POPC   NC337775   9.768  11.301   5.555
 8412POPC   PO437776   9.730  11.341   5.855
 8412POPC   GL137777   9.720  11.331   6.155
 8412POPC   GL237778   9.640  11.392   6.155
 8412POPC   C1A37779   9.798  11.313   6.455
 8412POPC   D2A37780   9.789  11.257   6.755
 8412POPC   C3A37781   9.775  11.342   7.055
 8412POPC   C4A37782   9.774  11.277   7.355
 8412POPC   C1B37783   9.484  11.449   6.455
 8412POPC   C2B37784   9.567  11.463   6.755
 8412POPC   C3B37785   9.575  11.421   7.055
 8412POPC   C4B37786   9.563  11.379   7.355
 8413POPC   NC337787  13.655  14.444   5.555
 8413POPC   PO437788  13.604  14.435   5.855
 8413POPC   GL137789  13.648  14.366   6.155
 8413POPC   GL237790  13.578  14.573   6.155
 8413POPC   C1A37791  13.598  14.391   6.455
 8413POPC   D2A37792  13.676  14.428   6.755
 8413POPC   C3A37793  13.616  14.379   7.055
 8413POPC   C4A37794  13.626  14.375   7.355
 8413POPC   C1B37795  13.550  14.683   6.455
 8413POPC   C2B37796  13.597  14.636   6.755
 8413POPC   C3B37797  13.640  14.680   7.055
 8413POPC   C4B37798  13.556  14.693   7.355
 8414POPC   NC337799  10.492  18.280   5.555
 8414POPC   PO437800  10.546  18.272   5.855
 8414POPC   GL137801  10.482  18.280   6.155
 8414POPC   GL237802  10.584  18.355   6.155
 8414POPC   C1A37803  10.520  18.293   6.455
 8414POPC   D2A37804  10.515  18.313   6.755
 8414POPC   C3A37805  10.517  18.265   7.055
 8414POPC   C4A37806  10.485  18.246   7.355
 8414POPC   C1B37807  10.761  18.390   6.455
 8414POPC   C2B37808  10.690  18.428   6.755
 8414POPC   C3B37809  10.700  18.470   7.055
 8414POPC   C4B37810  10.726  18.403   7.355
 8415POPC   NC337811  26.858  12.896   5.555
 8415POPC   PO437812  26.797  12.834   5.855
 8415POPC   GL137813  26.770  12.881   6.155
 8415POPC   GL237814  26.954  12.884   6.155
 8415POPC   C1A37815  26.838  12.846   6.455
 8415POPC   D2A37816  26.792  12.852   6.755
 8415POPC   C3A37817  26.832  12.834   7.055
 8415POPC   C4A37818  26.823  12.816   7.355
 8415POPC   C1B37819  26.980  13.025   6.455
 8415POPC   C2B37820  27.034  13.040   6.755
 8415POPC   C3B37821  26.997  13.036   7.055
 8415POPC   C4B37822  27.020  12.955   7.355
 8416POPC   NC337823  20.591  11.328   5.555
 8416POPC   PO437824  20.587  11.281   5.855
 8416POPC   GL137825  20.657  11.251   6.155
 8416POPC   GL237826  20.536  11.142   6.155
 8416POPC   C1A37827  20.642  11.308   6.455
 8416POPC   D2A37828  20.621  11.343   6.755
 8416POPC   C3A37829  20.643  11.301   7.055
 8416POPC   C4A37830  20.634  11.311   7.355
 8416POPC   C1B37831  20.529  11.053   6.455
 8416POPC   C2B37832  20.502  11.047   6.755
 8416POPC   C3B37833  20.506  11.015   7.055
 8416POPC   C4B37834  20.582  11.100   7.355
 8417POPC   NC337835  19.095  39.973   5.555
 8417POPC   PO437836  19.045  40.013   5.855
 8417POPC   GL137837  19.070  39.987   6.155
 8417POPC   GL237838  18.930  39.954   6.155
 8417POPC   C1A37839  19.092  40.000   6.455
 8417POPC   D2A37840  19.024  39.969   6.755
 8417POPC   C3A37841  19.106  40.049   7.055
 8417POPC   C4A37842  19.068  40.000   7.355
 8417POPC   C1B37843  18.773  39.958   6.455
 8417POPC   C2B37844  18.780  39.971   6.755
 8417POPC   C3B37845  18.820  39.973   7.055
 8417POPC   C4B37846  18.832  39.959   7.355
 8418POPC   NC337847   2.814  33.010   5.555
 8418POPC   PO437848   2.717  33.015   5.855
 8418POPC   GL137849   2.716  33.057   6.155
 8418POPC   GL237850   2.600  32.974   6.155
 8418POPC   C1A37851   2.786  33.010   6.455
 8418POPC   D2A37852   2.720  33.024   6.755
 8418POPC   C3A37853   2.736  33.024   7.055
 8418POPC   C4A37854   2.793  33.008   7.355
 8418POPC   C1B37855   2.479  32.985   6.455
 8418POPC   C2B37856   2.521  32.974   6.755
 8418POPC   C3B37857   2.530  32.998   7.055
 8418POPC   C4B37858   2.472  32.943   7.355
 8419POPC   NC337859  19.858  32.218   5.555
 8419POPC   PO437860  19.881  32.262   5.855
 8419POPC   GL137861  19.799  32.246   6.155
 8419POPC   GL237862  19.909  32.182   6.155
 8419POPC   C1A37863  19.804  32.250   6.455
 8419POPC   D2A37864  19.815  32.261   6.755
 8419POPC   C3A37865  19.861  32.204   7.055
 8419POPC   C4A37866  19.868  32.282   7.355
 8419POPC   C1B37867  20.096  32.167   6.455
 8419POPC   C2B37868  20.051  32.109   6.755
 8419POPC   C3B37869  20.035  32.099   7.055
 8419POPC   C4B37870  20.036  32.082   7.355
 8420POPC   NC337871   5.862  15.207   5.555
 8420POPC   PO437872   5.912  15.149   5.855
 8420POPC   GL137873   5.911  15.178   6.155
 8420POPC   GL237874   5.740  15.306   6.155
 8420POPC   C1A37875   5.865  15.197   6.455
 8420POPC   D2A37876   5.860  15.145   6.755
 8420POPC   C3A37877   5.908  15.150   7.055
 8420POPC   C4A37878   5.848  15.138   7.355
 8420POPC   C1B37879   5.721  15.393   6.455
 8420POPC   C2B37880   5.742  15.401   6.755
 8420POPC   C3B37881   5.731  15.375   7.055
 8420POPC   C4B37882   5.711  15.352   7.355
 8421POPC   NC337883  43.109   0.460   5.555
 8421POPC   PO437884  43.145   0.479   5.855
 8421POPC   GL137885  43.079   0.388   6.155
 8421POPC   GL237886  43.054   0.558   6.155
 8421POPC   C1A37887  43.137   0.444   6.455
 8421POPC   D2A37888  43.092   0.458   6.755
 8421POPC   C3A37889  43.112   0.468   7.055
 8421POPC   C4A37890  43.134   0.481   7.355
 8421POPC   C1B37891  42.933   0.571   6.455
 8421POPC   C2B37892  42.882   0.619   6.755
 8421POPC   C3B37893  42.945   0.593   7.055
 8421POPC   C4B37894  42.883   0.582   7.355
 8422POPC   NC337895  33.004  34.563   5.555
 8422POPC   PO437896  33.056  34.560   5.855
 8422POPC   GL137897  33.072  34.562   6.155
 8422POPC   GL237898  33.141  34.531   6.155
 8422POPC   C1A37899  33.027  34.571   6.455
 8422POPC   D2A37900  33.047  34.583   6.755
 8422POPC   C3A37901  33.062  34.568   7.055
 8422POPC   C4A37902  33.025  34.594   7.355
 8422POPC   C1B37903  33.246  34.429   6.455
 8422POPC   C2B37904  33.298  34.503   6.755
 8422POPC   C3B37905  33.222  34.444   7.055
 8422POPC   C4B37906  33.241  34.501   7.355
 8423POPC   NC337907  24.466   4.294   5.555
 8423POPC   PO437908  24.490   4.346   5.855
 8423POPC   GL137909  24.453   4.363   6.155
 8423POPC   GL237910  24.654   4.359   6.155
 8423POPC   C1A37911  24.528   4.331   6.455
 8423POPC   D2A37912  24.476   4.352   6.755
 8423POPC   C3A37913  24.471   4.343   7.055
 8423POPC   C4A37914  24.479   4.362   7.355
 8423POPC   C1B37915  24.686   4.421   6.455
 8423POPC   C2B37916  24.702   4.448   6.755
 8423POPC   C3B37917  24.698   4.377   7.055
 8423POPC   C4B37918  24.741   4.452   7.355
 8424POPC   NC337919  15.208   1.202   5.555
 8424POPC   PO437920  15.143   1.198   5.855
 8424POPC   GL137921  15.150   1.234   6.155
 8424POPC   GL237922  15.091   1.219   6.155
 8424POPC   C1A37923  15.226   1.175   6.455
 8424POPC   D2A37924  15.157   1.206   6.755
 8424POPC   C3A37925  15.183   1.243   7.055
 8424POPC   C4A37926  15.136   1.200   7.355
 8424POPC   C1B37927  14.934   1.301   6.455
 8424POPC   C2B37928  14.929   1.318   6.755
 8424POPC   C3B37929  14.895   1.289   7.055
 8424POPC   C4B37930  14.909   1.316   7.355
 8425POPC   NC337931  29.102  28.348   5.555
 8425POPC   PO437932  29.147  28.399   5.855
 8425POPC   GL137933  29.102  28.363   6.155
 8425POPC   GL237934  29.135  28.236   6.155
 8425POPC   C1A37935  29.159  28.373   6.455
 8425POPC   D2A37936  29.166  28.322   6.755
 8425POPC   C3A37937  29.153  28.389   7.055
 8425POPC   C4A37938  29.128  28.357   7.355
 8425POPC   C1B37939  29.133  28.126   6.455
 8425POPC   C2B37940  29.163  28.077   6.755
 8425POPC   C3B37941  29.156  28.073   7.055
 8425POPC   C4B37942  29.150  28.123   7.355
 8426POPC   NC337943  30.708  18.294   5.555
 8426POPC   PO437944  30.690  18.285   5.855
 8426POPC   GL137945  30.705  18.302   6.155
 8426POPC   GL237946  30.786  18.345   6.155
 8426POPC   C1A37947  30.700  18.253   6.455
 8426POPC   D2A37948  30.705  18.245   6.755
 8426POPC   C3A37949  30.737  18.288   7.055
 8426POPC   C4A37950  30.738  18.331   7.355
 8426POPC   C1B37951  30.850  18.492   6.455
 8426POPC   C2B37952  30.816  18.480   6.755
 8426POPC   C3B37953  30.872  18.520   7.055
 8426POPC   C4B37954  30.788  18.494   7.355
 8427POPC   NC337955   5.858  28.324   5.555
 8427POPC   PO437956   5.857  28.352   5.855
 8427POPC   GL137957   5.845  28.342   6.155
 8427POPC   GL237958   5.892  28.252   6.155
 8427POPC   C1A37959   5.844  28.401   6.455
 8427POPC   D2A37960   5.898  28.383   6.755
 8427POPC   C3A37961   5.872  28.338   7.055
 8427POPC   C4A37962   5.896  28.362   7.355
 8427POPC   C1B37963   5.811  28.166   6.455
 8427POPC   C2B37964   5.880  28.096   6.755
 8427POPC   C3B37965   5.866  28.102   7.055
 8427POPC   C4B37966   5.873  28.072   7.355
 8428POPC   NC337967  19.845  36.108   5.555
 8428POPC   PO437968  19.820  36.172   5.855
 8428POPC   GL137969  19.800  36.145   6.155
 8428POPC   GL237970  19.707  36.185   6.155
 8428POPC   C1A37971  19.806  36.084   6.455
 8428POPC   D2A37972  19.812  36.101   6.755
 8428POPC   C3A37973  19.837  36.152   7.055
 8428POPC   C4A37974  19.870  36.083   7.355
 8428POPC   C1B37975  19.615  36.256   6.455
 8428POPC   C2B37976  19.631  36.233   6.755
 8428POPC   C3B37977  19.579  36.200   7.055
 8428POPC   C4B37978  19.574  36.277   7.355
 8429POPC   NC337979  20.641  44.697   5.555
 8429POPC   PO437980  20.629  44.615   5.855
 8429POPC   GL137981  20.610  44.645   6.155
 8429POPC   GL237982  20.611  44.767   6.155
 8429POPC   C1A37983  20.632  44.708   6.455
 8429POPC   D2A37984  20.641  44.622   6.755
 8429POPC   C3A37985  20.636  44.623   7.055
 8429POPC   C4A37986  20.588  44.661   7.355
 8429POPC   C1B37987  20.677  44.872   6.455
 8429POPC   C2B37988  20.676  44.907   6.755
 8429POPC   C3B37989  20.659  44.880   7.055
 8429POPC   C4B37990  20.634  44.961   7.355
 8430POPC   NC337991  10.507  22.210   5.555
 8430POPC   PO437992  10.523  22.120   5.855
 8430POPC   GL137993  10.476  22.148   6.155
 8430POPC   GL237994  10.431  22.207   6.155
 8430POPC   C1A37995  10.530  22.129   6.455
 8430POPC   D2A37996  10.512  22.123   6.755
 8430POPC   C3A37997  10.518  22.123   7.055
 8430POPC   C4A37998  10.504  22.203   7.355
 8430POPC   C1B37999  10.357  22.343   6.455
 8430POPC   C2B38000  10.410  22.325   6.755
 8430POPC   C3B38001  10.327  22.400   7.055
 8430POPC   C4B38002  10.390  22.369   7.355
 8431POPC   NC338003  29.160  40.775   5.555
 8431POPC   PO438004  29.128  40.764   5.855
 8431POPC   GL138005  29.131  40.750   6.155
 8431POPC   GL238006  29.026  40.702   6.155
 8431POPC   C1A38007  29.180  40.831   6.455
 8431POPC   D2A38008  29.140  40.802   6.755
 8431POPC   C3A38009  29.182  40.770   7.055
 8431POPC   C4A38010  29.108  40.780   7.355
 8431POPC   C1B38011  28.998  40.621   6.455
 8431POPC   C2B38012  29.008  40.597   6.755
 8431POPC   C3B38013  28.950  40.592   7.055
 8431POPC   C4B38014  28.956  40.612   7.355
 8432POPC   NC338015  27.613  40.043   5.555
 8432POPC   PO438016  27.563  40.029   5.855
 8432POPC   GL138017  27.582  40.043   6.155
 8432POPC   GL238018  27.648  40.079   6.155
 8432POPC   C1A38019  27.621  40.044   6.455
 8432POPC   D2A38020  27.595  40.004   6.755
 8432POPC   C3A38021  27.566  40.024   7.055
 8432POPC   C4A38022  27.595  39.971   7.355
 8432POPC   C1B38023  27.774  40.187   6.455
 8432POPC   C2B38024  27.770  40.158   6.755
 8432POPC   C3B38025  27.821  40.219   7.055
 8432POPC   C4B38026  27.824  40.210   7.355
 8433POPC   NC338027  33.023  21.396   5.555
 8433POPC   PO438028  33.042  21.384   5.855
 8433POPC   GL138029  33.012  21.401   6.155
 8433POPC   GL238030  32.929  21.272   6.155
 8433POPC   C1A38031  32.979  21.415   6.455
 8433POPC   D2A38032  32.990  21.338   6.755
 8433POPC   C3A38033  33.051  21.378   7.055
 8433POPC   C4A38034  33.032  21.360   7.355
 8433POPC   C1B38035  32.833  21.278   6.455
 8433POPC   C2B38036  32.794  21.216   6.755
 8433POPC   C3B38037  32.785  21.271   7.055
 8433POPC   C4B38038  32.786  21.269   7.355
 8434POPC   NC338039  33.045  14.390   5.555
 8434POPC   PO438040  33.047  14.406   5.855
 8434POPC   GL138041  32.997  14.418   6.155
 8434POPC   GL238042  33.082  14.518   6.155
 8434POPC   C1A38043  33.032  14.446   6.455
 8434POPC   D2A38044  33.032  14.394   6.755
 8434POPC   C3A38045  33.004  14.435   7.055
 8434POPC   C4A38046  33.073  14.450   7.355
 8434POPC   C1B38047  33.182  14.650   6.455
 8434POPC   C2B38048  33.176  14.657   6.755
 8434POPC   C3B38049  33.141  14.602   7.055
 8434POPC   C4B38050  33.190  14.570   7.355
 8435POPC   NC338051  22.962  15.224   5.555
 8435POPC   PO438052  22.911  15.157   5.855
 8435POPC   GL138053  22.962  15.154   6.155
 8435POPC   GL238054  23.033  15.182   6.155
 8435POPC   C1A38055  22.936  15.185   6.455
 8435POPC   D2A38056  22.905  15.218   6.755
 8435POPC   C3A38057  22.940  15.208   7.055
 8435POPC   C4A38058  22.902  15.192   7.355
 8435POPC   C1B38059  23.142  15.307   6.455
 8435POPC   C2B38060  23.136  15.278   6.755
 8435POPC   C3B38061  23.195  15.233   7.055
 8435POPC   C4B38062  23.136  15.239   7.355
 8436POPC   NC338063  42.372  41.604   5.555
 8436POPC   PO438064  42.380  41.547   5.855
 8436POPC   GL138065  42.325  41.608   6.155
 8436POPC   GL238066  42.199  41.580   6.155
 8436POPC   C1A38067  42.332  41.547   6.455
 8436POPC   D2A38068  42.311  41.570   6.755
 8436POPC   C3A38069  42.349  41.522   7.055
 8436POPC   C4A38070  42.357  41.572   7.355
 8436POPC   C1B38071  42.042  41.528   6.455
 8436POPC   C2B38072  42.088  41.590   6.755
 8436POPC   C3B38073  42.067  41.566   7.055
 8436POPC   C4B38074  42.130  41.551   7.355
 8437POPC   NC338075  11.268  13.677   5.555
 8437POPC   PO438076  11.295  13.612   5.855
 8437POPC   GL138077  11.251  13.639   6.155
 8437POPC   GL238078  11.201  13.509   6.155
 8437POPC   C1A38079  11.282  13.595   6.455
 8437POPC   D2A38080  11.273  13.659   6.755
 8437POPC   C3A38081  11.305  13.624   7.055
 8437POPC   C4A38082  11.290  13.581   7.355
 8437POPC   C1B38083  11.219  13.382   6.455
 8437POPC   C2B38084  11.177  13.450   6.755
 8437POPC   C3B38085  11.228  13.384   7.055
 8437POPC   C4B38086  11.149  13.361   7.355
 8438POPC   NC338087  24.443  25.247   5.555
 8438POPC   PO438088  24.495  25.288   5.855
 8438POPC   GL138089  24.509  25.234   6.155
 8438POPC   GL238090  24.369  25.242   6.155
 8438POPC   C1A38091  24.453  25.244   6.455
 8438POPC   D2A38092  24.492  25.300   6.755
 8438POPC   C3A38093  24.445  25.224   7.055
 8438POPC   C4A38094  24.451  25.231   7.355
 8438POPC   C1B38095  24.308  25.143   6.455
 8438POPC   C2B38096  24.236  25.150   6.755
 8438POPC   C3B38097  24.265  25.116   7.055
 8438POPC   C4B38098  24.307  25.081   7.355
 8439POPC   NC338099  12.085   3.561   5.555
 8439POPC   PO438100  12.118   3.540   5.855
 8439POPC   GL138101  12.047   3.540   6.155
 8439POPC   GL238102  12.003   3.402   6.155
 8439POPC   C1A38103  12.061   3.503   6.455
 8439POPC   D2A38104  12.036   3.572   6.755
 8439POPC   C3A38105  12.040   3.563   7.055
 8439POPC   C4A38106  12.079   3.517   7.355
 8439POPC   C1B38107  11.964   3.349   6.455
 8439POPC   C2B38108  11.960   3.316   6.755
 8439POPC   C3B38109  11.919   3.331   7.055
 8439POPC   C4B38110  11.975   3.350   7.355
 8440POPC   NC338111   2.811  29.939   5.555
 8440POPC   PO438112   2.738  29.932   5.855
 8440POPC   GL138113   2.764  29.919   6.155
 8440POPC   GL238114   2.851  29.827   6.155
 8440POPC   C1A38115   2.726  29.879   6.455
 8440POPC   D2A38116   2.719  29.915   6.755
 8440POPC   C3A38117   2.803  29.881   7.055
 8440POPC   C4A38118   2.781  29.898   7.355
 8440POPC   C1B38119   2.905  29.714   6.455
 8440POPC   C2B38120   2.960  29.748   6.755
 8440POPC   C3B38121   2.932  29.718   7.055
 8440POPC   C4B38122   2.980  29.778   7.355
 8441POPC   NC338123  30.708  37.697   5.555
 8441POPC   PO438124  30.697  37.713   5.855
 8441POPC   GL138125  30.700  37.693   6.155
 8441POPC   GL238126  30.855  37.730   6.155
 8441POPC   C1A38127  30.706  37.725   6.455
 8441POPC   D2A38128  30.720  37.649   6.755
 8441POPC   C3A38129  30.654  37.693   7.055
 8441POPC   C4A38130  30.668  37.644   7.355
 8441POPC   C1B38131  30.969  37.669   6.455
 8441POPC   C2B38132  30.963  37.736   6.755
 8441POPC   C3B38133  30.993  37.716   7.055
 8441POPC   C4B38134  30.949  37.720   7.355
 8442POPC   NC338135  13.603   2.793   5.555
 8442POPC   PO438136  13.625   2.764   5.855
 8442POPC   GL138137  13.594   2.754   6.155
 8442POPC   GL238138  13.486   2.764   6.155
 8442POPC   C1A38139  13.662   2.737   6.455
 8442POPC   D2A38140  13.674   2.716   6.755
 8442POPC   C3A38141  13.584   2.757   7.055
 8442POPC   C4A38142  13.602   2.805   7.355
 8442POPC   C1B38143  13.377   2.856   6.455
 8442POPC   C2B38144  13.387   2.799   6.755
 8442POPC   C3B38145  13.352   2.790   7.055
 8442POPC   C4B38146  13.351   2.859   7.355
 8443POPC   NC338147   3.520  10.569   5.555
 8443POPC   PO438148   3.582  10.484   5.855
 8443POPC   GL138149   3.539  10.477   6.155
 8443POPC   GL238150   3.552  10.602   6.155
 8443POPC   C1A38151   3.506  10.528   6.455
 8443POPC   D2A38152   3.503  10.552   6.755
 8443POPC   C3A38153   3.576  10.522   7.055
 8443POPC   C4A38154   3.554  10.505   7.355
 8443POPC   C1B38155   3.532  10.786   6.455
 8443POPC   C2B38156   3.515  10.807   6.755
 8443POPC   C3B38157   3.566  10.771   7.055
 8443POPC   C4B38158   3.545  10.809   7.355
 8444POPC   NC338159  31.431  37.703   5.555
 8444POPC   PO438160  31.502  37.709   5.855
 8444POPC   GL138161  31.424  37.719   6.155
 8444POPC   GL238162  31.321  37.700   6.155
 8444POPC   C1A38163  31.516  37.719   6.455
 8444POPC   D2A38164  31.483  37.674   6.755
 8444POPC   C3A38165  31.489  37.716   7.055
 8444POPC   C4A38166  31.442  37.708   7.355
 8444POPC   C1B38167  31.182  37.725   6.455
 8444POPC   C2B38168  31.246  37.689   6.755
 8444POPC   C3B38169  31.201  37.703   7.055
 8444POPC   C4B38170  31.215  37.729   7.355
 8445POPC   NC338171   5.047  26.040   5.555
 8445POPC   PO438172   5.105  26.056   5.855
 8445POPC   GL138173   5.115  26.084   6.155
 8445POPC   GL238174   5.161  26.178   6.155
 8445POPC   C1A38175   5.068  26.032   6.455
 8445POPC   D2A38176   5.088  26.036   6.755
 8445POPC   C3A38177   5.062  26.027   7.055
 8445POPC   C4A38178   5.134  26.030   7.355
 8445POPC   C1B38179   5.286  26.269   6.455
 8445POPC   C2B38180   5.219  26.275   6.755
 8445POPC   C3B38181   5.236  26.198   7.055
 8445POPC   C4B38182   5.253  26.230   7.355
 8446POPC   NC338183  21.428  33.815   5.555
 8446POPC   PO438184  21.339  33.816   5.855
 8446POPC   GL138185  21.342  33.833   6.155
 8446POPC   GL238186  21.233  33.815   6.155
 8446POPC   C1A38187  21.393  33.812   6.455
 8446POPC   D2A38188  21.388  33.847   6.755
 8446POPC   C3A38189  21.363  33.797   7.055
 8446POPC   C4A38190  21.433  33.778   7.355
 8446POPC   C1B38191  21.154  33.849   6.455
 8446POPC   C2B38192  21.122  33.858   6.755
 8446POPC   C3B38193  21.115  33.906   7.055
 8446POPC   C4B38194  21.167  33.896   7.355
 8447POPC   NC338195  13.635  41.565   5.555
 8447POPC   PO438196  13.614  41.509   5.855
 8447POPC   GL138197  13.618  41.514   6.155
 8447POPC   GL238198  13.495  41.552   6.155
 8447POPC   C1A38199  13.632  41.593   6.455
 8447POPC   D2A38200  13.585  41.553   6.755
 8447POPC   C3A38201  13.582  41.560   7.055
 8447POPC   C4A38202  13.611  41.545   7.355
 8447POPC   C1B38203  13.386  41.572   6.455
 8447POPC   C2B38204  13.410  41.570   6.755
 8447POPC   C3B38205  13.375  41.586   7.055
 8447POPC   C4B38206  13.416  41.545   7.355
 8448POPC   NC338207  29.116  19.874   5.555
 8448POPC   PO438208  29.139  19.859   5.855
 8448POPC   GL138209  29.124  19.801   6.155
 8448POPC   GL238210  29.252  19.694   6.155
 8448POPC   C1A38211  29.126  19.865   6.455
 8448POPC   D2A38212  29.179  19.798   6.755
 8448POPC   C3A38213  29.095  19.813   7.055
 8448POPC   C4A38214  29.159  19.825   7.355
 8448POPC   C1B38215  29.304  19.586   6.455
 8448POPC   C2B38216  29.316  19.599   6.755
 8448POPC   C3B38217  29.270  19.630   7.055
 8448POPC   C4B38218  29.331  19.607   7.355
 8449POPC   NC338219  12.814  29.873   5.555
 8449POPC   PO438220  12.810  29.968   5.855
 8449POPC   GL138221  12.863  29.912   6.155
 8449POPC   GL238222  12.925  30.078   6.155
 8449POPC   C1A38223  12.803  29.896   6.455
 8449POPC   D2A38224  12.825  29.888   6.755
 8449POPC   C3A38225  12.833  29.873   7.055
 8449POPC   C4A38226  12.880  29.918   7.355
 8449POPC   C1B38227  12.941  30.164   6.455
 8449POPC   C2B38228  12.971  30.109   6.755
 8449POPC   C3B38229  12.895  30.195   7.055
 8449POPC   C4B38230  12.946  30.136   7.355
 8450POPC   NC338231  11.255  41.599   5.555
 8450POPC   PO438232  11.333  41.599   5.855
 8450POPC   GL138233  11.273  41.564   6.155
 8450POPC   GL238234  11.391  41.656   6.155
 8450POPC   C1A38235  11.340  41.542   6.455
 8450POPC   D2A38236  11.321  41.535   6.755
 8450POPC   C3A38237  11.324  41.521   7.055
 8450POPC   C4A38238  11.323  41.578   7.355
 8450POPC   C1B38239  11.385  41.831   6.455
 8450POPC   C2B38240  11.389  41.814   6.755
 8450POPC   C3B38241  11.376  41.774   7.055
 8450POPC   C4B38242  11.411  41.842   7.355
 8451POPC   NC338243   1.183  33.804   5.555
 8451POPC   PO438244   1.252  33.817   5.855
 8451POPC   GL138245   1.262  33.784   6.155
 8451POPC   GL238246   1.185  33.878   6.155
 8451POPC   C1A38247   1.230  33.826   6.455
 8451POPC   D2A38248   1.184  33.790   6.755
 8451POPC   C3A38249   1.262  33.823   7.055
 8451POPC   C4A38250   1.221  33.758   7.355
 8451POPC   C1B38251   1.160  34.089   6.455
 8451POPC   C2B38252   1.178  34.034   6.755
 8451POPC   C3B38253   1.126  34.039   7.055
 8451POPC   C4B38254   1.188  34.088   7.355
 8452POPC   NC338255  15.156  22.980   5.555
 8452POPC   PO438256  15.146  22.938   5.855
 8452POPC   GL138257  15.181  22.953   6.155
 8452POPC   GL238258  15.029  22.907   6.155
 8452POPC   C1A38259  15.190  22.950   6.455
 8452POPC   D2A38260  15.187  22.988   6.755
 8452POPC   C3A38261  15.205  22.954   7.055
 8452POPC   C4A38262  15.208  22.910   7.355
 8452POPC   C1B38263  14.887  22.935   6.455
 8452POPC   C2B38264  14.949  22.919   6.755
 8452POPC   C3B38265  14.912  22.955   7.055
 8452POPC   C4B38266  14.931  22.930   7.355
 8453POPC   NC338267  35.337   5.820   5.555
 8453POPC   PO438268  35.324   5.900   5.855
 8453POPC   GL138269  35.307   5.903   6.155
 8453POPC   GL238270  35.329   5.969   6.155
 8453POPC   C1A38271  35.313   5.909   6.455
 8453POPC   D2A38272  35.328   5.912   6.755
 8453POPC   C3A38273  35.355   5.901   7.055
 8453POPC   C4A38274  35.378   5.858   7.355
 8453POPC   C1B38275  35.194   6.114   6.455
 8453POPC   C2B38276  35.157   6.047   6.755
 8453POPC   C3B38277  35.187   6.094   7.055
 8453POPC   C4B38278  35.238   6.036   7.355
 8454POPC   NC338279  13.634  40.020   5.555
 8454POPC   PO438280  13.616  39.982   5.855
 8454POPC   GL138281  13.578  40.037   6.155
 8454POPC   GL238282  13.586  40.171   6.155
 8454POPC   C1A38283  13.669  40.036   6.455
 8454POPC   D2A38284  13.606  40.001   6.755
 8454POPC   C3A38285  13.637  40.057   7.055
 8454POPC   C4A38286  13.642  40.033   7.355
 8454POPC   C1B38287  13.564  40.260   6.455
 8454POPC   C2B38288  13.531  40.218   6.755
 8454POPC   C3B38289  13.553  40.252   7.055
 8454POPC   C4B38290  13.540  40.274   7.355
 8455POPC   NC338291  16.691  35.378   5.555
 8455POPC   PO438292  16.725  35.397   5.855
 8455POPC   GL138293  16.698  35.359   6.155
 8455POPC   GL238294  16.708  35.514   6.155
 8455POPC   C1A38295  16.773  35.380   6.455
 8455POPC   D2A38296  16.693  35.354   6.755
 8455POPC   C3A38297  16.770  35.323   7.055
 8455POPC   C4A38298  16.723  35.377   7.355
 8455POPC   C1B38299  16.743  35.587   6.455
 8455POPC   C2B38300  16.742  35.627   6.755
 8455POPC   C3B38301  16.758  35.580   7.055
 8455POPC   C4B38302  16.819  35.570   7.355
 8456POPC   NC338303  22.123  27.626   5.555
 8456POPC   PO438304  22.175  27.610   5.855
 8456POPC   GL138305  22.127  27.597   6.155
 8456POPC   GL238306  22.275  27.479   6.155
 8456POPC   C1A38307  22.122  27.597   6.455
 8456POPC   D2A38308  22.162  27.554   6.755
 8456POPC   C3A38309  22.207  27.545   7.055
 8456POPC   C4A38310  22.142  27.578   7.355
 8456POPC   C1B38311  22.377  27.457   6.455
 8456POPC   C2B38312  22.370  27.467   6.755
 8456POPC   C3B38313  22.406  27.440   7.055
 8456POPC   C4B38314  22.330  27.404   7.355
 8457POPC   NC338315  26.794  39.241   5.555
 8457POPC   PO438316  26.835  39.249   5.855
 8457POPC   GL138317  26.864  39.242   6.155
 8457POPC   GL238318  26.842  39.336   6.155
 8457POPC   C1A38319  26.862  39.189   6.455
 8457POPC   D2A38320  26.861  39.245   6.755
 8457POPC   C3A38321  26.832  39.267   7.055
 8457POPC   C4A38322  26.839  39.212   7.355
 8457POPC   C1B38323  26.916  39.412   6.455
 8457POPC   C2B38324  27.004  39.403   6.755
 8457POPC   C3B38325  26.941  39.404   7.055
 8457POPC   C4B38326  26.988  39.446   7.355
 8458POPC   NC338327  28.368  43.857   5.555
 8458POPC   PO438328  28.404  43.924   5.855
 8458POPC   GL138329  28.326  43.886   6.155
 8458POPC   GL238330  28.467  44.009   6.155
 8458POPC   C1A38331  28.344  43.933   6.455
 8458POPC   D2A38332  28.358  43.850   6.755
 8458POPC   C3A38333  28.391  43.923   7.055
 8458POPC   C4A38334  28.414  43.867   7.355
 8458POPC   C1B38335  28.469  44.051   6.455
 8458POPC   C2B38336  28.510  44.088   6.755
 8458POPC   C3B38337  28.555  44.043   7.055
 8458POPC   C4B38338  28.499  44.078   7.355
 8459POPC   NC338339  33.004  16.731   5.555
 8459POPC   PO438340  33.048  16.773   5.855
 8459POPC   GL138341  32.996  16.767   6.155
 8459POPC   GL238342  33.003  16.606   6.155
 8459POPC   C1A38343  33.057  16.723   6.455
 8459POPC   D2A38344  33.027  16.701   6.755
 8459POPC   C3A38345  33.025  16.767   7.055
 8459POPC   C4A38346  33.011  16.775   7.355
 8459POPC   C1B38347  32.856  16.497   6.455
 8459POPC   C2B38348  32.905  16.563   6.755
 8459POPC   C3B38349  32.869  16.519   7.055
 8459POPC   C4B38350  32.946  16.550   7.355
 8460POPC   NC338351  28.386   5.844   5.555
 8460POPC   PO438352  28.394   5.890   5.855
 8460POPC   GL138353  28.375   5.889   6.155
 8460POPC   GL238354  28.363   5.999   6.155
 8460POPC   C1A38355  28.328   5.871   6.455
 8460POPC   D2A38356  28.392   5.906   6.755
 8460POPC   C3A38357  28.364   5.854   7.055
 8460POPC   C4A38358  28.322   5.878   7.355
 8460POPC   C1B38359  28.318   6.125   6.455
 8460POPC   C2B38360  28.311   6.069   6.755
 8460POPC   C3B38361  28.279   6.137   7.055
 8460POPC   C4B38362  28.277   6.081   7.355
 8461POPC   NC338363   2.724  26.011   5.555
 8461POPC   PO438364   2.754  26.026   5.855
 8461POPC   GL138365   2.733  26.061   6.155
 8461POPC   GL238366   2.764  25.868   6.155
 8461POPC   C1A38367   2.794  26.085   6.455
 8461POPC   D2A38368   2.728  26.090   6.755
 8461POPC   C3A38369   2.807  26.079   7.055
 8461POPC   C4A38370   2.776  26.003   7.355
 8461POPC   C1B38371   2.789  25.819   6.455
 8461POPC   C2B38372   2.826  25.755   6.755
 8461POPC   C3B38373   2.751  25.742   7.055
 8461POPC   C4B38374   2.823  25.752   7.355
 8462POPC   NC338375  28.406  36.135   5.555
 8462POPC   PO438376  28.359  36.136   5.855
 8462POPC   GL138377  28.339  36.099   6.155
 8462POPC   GL238378  28.503  36.128   6.155
 8462POPC   C1A38379  28.387  36.089   6.455
 8462POPC   D2A38380  28.366  36.129   6.755
 8462POPC   C3A38381  28.356  36.092   7.055
 8462POPC   C4A38382  28.378  36.087   7.355
 8462POPC   C1B38383  28.616  36.191   6.455
 8462POPC   C2B38384  28.612  36.154   6.755
 8462POPC   C3B38385  28.606  36.188   7.055
 8462POPC   C4B38386  28.574  36.166   7.355
 8463POPC   NC338387  18.269  32.981   5.555
 8463POPC   PO438388  18.330  33.047   5.855
 8463POPC   GL138389  18.253  33.009   6.155
 8463POPC   GL238390  18.170  33.021   6.155
 8463POPC   C1A38391  18.261  33.053   6.455
 8463POPC   D2A38392  18.258  33.032   6.755
 8463POPC   C3A38393  18.242  33.018   7.055
 8463POPC   C4A38394  18.255  33.056   7.355
 8463POPC   C1B38395  18.056  33.091   6.455
 8463POPC   C2B38396  18.010  33.122   6.755
 8463POPC   C3B38397  18.016  33.040   7.055
 8463POPC   C4B38398  18.017  33.072   7.355
 8464POPC   NC338399   4.291   9.741   5.555
 8464POPC   PO438400   4.318   9.733   5.855
 8464POPC   GL138401   4.354   9.754   6.155
 8464POPC   GL238402   4.271   9.622   6.155
 8464POPC   C1A38403   4.281   9.777   6.455
 8464POPC   D2A38404   4.347   9.711   6.755
 8464POPC   C3A38405   4.290   9.788   7.055
 8464POPC   C4A38406   4.344   9.746   7.355
 8464POPC   C1B38407   4.219   9.473   6.455
 8464POPC   C2B38408   4.275   9.532   6.755
 8464POPC   C3B38409   4.244   9.502   7.055
 8464POPC   C4B38410   4.229   9.535   7.355
 8465POPC   NC338411  25.224   9.790   5.555
 8465POPC   PO438412  25.248   9.756   5.855
 8465POPC   GL138413  25.299   9.754   6.155
 8465POPC   GL238414  25.392   9.715   6.155
 8465POPC   C1A38415  25.271   9.739   6.455
 8465POPC   D2A38416  25.228   9.725   6.755
 8465POPC   C3A38417  25.278   9.756   7.055
 8465POPC   C4A38418  25.299   9.796   7.355
 8465POPC   C1B38419  25.492   9.547   6.455
 8465POPC   C2B38420  25.417   9.541   6.755
 8465POPC   C3B38421  25.497   9.612   7.055
 8465POPC   C4B38422  25.453   9.621   7.355
 8466POPC   NC338423  27.609  21.427   5.555
 8466POPC   PO438424  27.581  21.392   5.855
 8466POPC   GL138425  27.568  21.436   6.155
 8466POPC   GL238426  27.477  21.433   6.155
 8466POPC   C1A38427  27.588  21.431   6.455
 8466POPC   D2A38428  27.633  21.342   6.755
 8466POPC   C3A38429  27.628  21.425   7.055
 8466POPC   C4A38430  27.577  21.336   7.355
 8466POPC   C1B38431  27.301  21.391   6.455
 8466POPC   C2B38432  27.388  21.346   6.755
 8466POPC   C3B38433  27.304  21.367   7.055
 8466POPC   C4B38434  27.299  21.403   7.355
 8467POPC   NC338435  27.569  39.278   5.555
 8467POPC   PO438436  27.592  39.215   5.855
 8467POPC   GL138437  27.615  39.223   6.155
 8467POPC   GL238438  27.428  39.164   6.155
 8467POPC   C1A38439  27.553  39.196   6.455
 8467POPC   D2A38440  27.601  39.233   6.755
 8467POPC   C3A38441  27.629  39.272   7.055
 8467POPC   C4A38442  27.618  39.275   7.355
 8467POPC   C1B38443  27.391  39.186   6.455
 8467POPC   C2B38444  27.324  39.106   6.755
 8467POPC   C3B38445  27.357  39.110   7.055
 8467POPC   C4B38446  27.316  39.163   7.355
 8468POPC   NC338447  36.145  21.365   5.555
 8468POPC   PO438448  36.157  21.396   5.855
 8468POPC   GL138449  36.104  21.414   6.155
 8468POPC   GL238450  36.259  21.273   6.155
 8468POPC   C1A38451  36.086  21.392   6.455
 8468POPC   D2A38452  36.170  21.383   6.755
 8468POPC   C3A38453  36.141  21.408   7.055
 8468POPC   C4A38454  36.155  21.403   7.355
 8468POPC   C1B38455  36.305  21.209   6.455
 8468POPC   C2B38456  36.302  21.162   6.755
 8468POPC   C3B38457  36.288  21.170   7.055
 8468POPC   C4B38458  36.259  21.163   7.355
 8469POPC   NC338459   9.797  19.101   5.555
 8469POPC   PO438460   9.709  19.108   5.855
 8469POPC   GL138461   9.796  19.082   6.155
 8469POPC   GL238462   9.845  19.103   6.155
 8469POPC   C1A38463   9.784  19.039   6.455
 8469POPC   D2A38464   9.758  19.052   6.755
 8469POPC   C3A38465   9.787  19.081   7.055
 8469POPC   C4A38466   9.721  19.084   7.355
 8469POPC   C1B38467  10.013  19.059   6.455
 8469POPC   C2B38468   9.983  19.078   6.755
 8469POPC   C3B38469  10.009  19.132   7.055
 8469POPC   C4B38470   9.975  19.068   7.355
 8470POPC   NC338471  39.196  40.056   5.555
 8470POPC   PO438472  39.229  39.974   5.855
 8470POPC   GL138473  39.188  40.021   6.155
 8470POPC   GL238474  39.184  39.865   6.155
 8470POPC   C1A38475  39.209  40.010   6.455
 8470POPC   D2A38476  39.207  40.021   6.755
 8470POPC   C3A38477  39.221  40.010   7.055
 8470POPC   C4A38478  39.190  40.042   7.355
 8470POPC   C1B38479  39.160  39.752   6.455
 8470POPC   C2B38480  39.148  39.736   6.755
 8470POPC   C3B38481  39.137  39.723   7.055
 8470POPC   C4B38482  39.186  39.730   7.355
 8471POPC   NC338483  19.027  26.062   5.555
 8471POPC   PO438484  19.067  26.076   5.855
 8471POPC   GL138485  19.107  26.077   6.155
 8471POPC   GL238486  19.148  25.928   6.155
 8471POPC   C1A38487  19.097  26.075   6.455
 8471POPC   D2A38488  19.020  26.082   6.755
 8471POPC   C3A38489  19.084  26.051   7.055
 8471POPC   C4A38490  19.062  26.055   7.355
 8471POPC   C1B38491  19.234  25.849   6.455
 8471POPC   C2B38492  19.174  25.846   6.755
 8471POPC   C3B38493  19.171  25.815   7.055
 8471POPC   C4B38494  19.219  25.832   7.355
 8472POPC   NC338495   1.958  27.563   5.555
 8472POPC   PO438496   2.012  27.557   5.855
 8472POPC   GL138497   1.950  27.546   6.155
 8472POPC   GL238498   1.902  27.465   6.155
 8472POPC   C1A38499   1.965  27.636   6.455
 8472POPC   D2A38500   1.945  27.609   6.755
 8472POPC   C3A38501   1.959  27.625   7.055
 8472POPC   C4A38502   2.034  27.575   7.355
 8472POPC   C1B38503   1.776  27.448   6.455
 8472POPC   C2B38504   1.813  27.388   6.755
 8472POPC   C3B38505   1.799  27.413   7.055
 8472POPC   C4B38506   1.851  27.366   7.355
 8473POPC   NC338507  12.097  30.723   5.555
 8473POPC   PO438508  12.098  30.709   5.855
 8473POPC   GL138509  12.125  30.673   6.155
 8473POPC   GL238510  12.020  30.614   6.155
 8473POPC   C1A38511  12.116  30.658   6.455
 8473POPC   D2A38512  12.083  30.732   6.755
 8473POPC   C3A38513  12.061  30.741   7.055
 8473POPC   C4A38514  12.071  30.732   7.355
 8473POPC   C1B38515  11.994  30.432   6.455
 8473POPC   C2B38516  11.991  30.467   6.755
 8473POPC   C3B38517  12.013  30.435   7.055
 8473POPC   C4B38518  12.027  30.430   7.355
 8474POPC   NC338519  29.156  42.327   5.555
 8474POPC   PO438520  29.123  42.324   5.855
 8474POPC   GL138521  29.142  42.306   6.155
 8474POPC   GL238522  29.232  42.396   6.155
 8474POPC   C1A38523  29.132  42.359   6.455
 8474POPC   D2A38524  29.156  42.315   6.755
 8474POPC   C3A38525  29.176  42.335   7.055
 8474POPC   C4A38526  29.119  42.356   7.355
 8474POPC   C1B38527  29.222  42.563   6.455
 8474POPC   C2B38528  29.262  42.596   6.755
 8474POPC   C3B38529  29.226  42.541   7.055
 8474POPC   C4B38530  29.241  42.602   7.355
 8475POPC   NC338531  36.177  33.068   5.555
 8475POPC   PO438532  36.130  32.979   5.855
 8475POPC   GL138533  36.156  33.047   6.155
 8475POPC   GL238534  36.118  32.877   6.155
 8475POPC   C1A38535  36.174  33.009   6.455
 8475POPC   D2A38536  36.126  33.046   6.755
 8475POPC   C3A38537  36.156  32.984   7.055
 8475POPC   C4A38538  36.165  33.018   7.355
 8475POPC   C1B38539  36.111  32.738   6.455
 8475POPC   C2B38540  36.171  32.782   6.755
 8475POPC   C3B38541  36.124  32.766   7.055
 8475POPC   C4B38542  36.133  32.750   7.355
 8476POPC   NC338543  28.369  17.519   5.555
 8476POPC   PO438544  28.357  17.480   5.855
 8476POPC   GL138545  28.334  17.499   6.155
 8476POPC   GL238546  28.221  17.484   6.155
 8476POPC   C1A38547  28.398  17.511   6.455
 8476POPC   D2A38548  28.384  17.553   6.755
 8476POPC   C3A38549  28.408  17.494   7.055
 8476POPC   C4A38550  28.333  17.468   7.355
 8476POPC   C1B38551  28.105  17.592   6.455
 8476POPC   C2B38552  28.127  17.510   6.755
 8476POPC   C3B38553  28.114  17.592   7.055
 8476POPC   C4B38554  28.102  17.545   7.355
 8477POPC   NC338555   1.239  15.220   5.555
 8477POPC   PO438556   1.185  15.167   5.855
 8477POPC   GL138557   1.208  15.130   6.155
 8477POPC   GL238558   1.296  15.247   6.155
 8477POPC   C1A38559   1.249  15.142   6.455
 8477POPC   D2A38560   1.254  15.172   6.755
 8477POPC   C3A38561   1.173  15.175   7.055
 8477POPC   C4A38562   1.223  15.176   7.355
 8477POPC   C1B38563   1.422  15.276   6.455
 8477POPC   C2B38564   1.433  15.325   6.755
 8477POPC   C3B38565   1.440  15.305   7.055
 8477POPC   C4B38566   1.393  15.338   7.355
 8478POPC   NC338567  19.063  32.205   5.555
 8478POPC   PO438568  19.104  32.216   5.855
 8478POPC   GL138569  19.021  32.276   6.155
 8478POPC   GL238570  19.144  32.148   6.155
 8478POPC   C1A38571  19.100  32.272   6.455
 8478POPC   D2A38572  19.058  32.268   6.755
 8478POPC   C3A38573  19.042  32.200   7.055
 8478POPC   C4A38574  19.044  32.274   7.355
 8478POPC   C1B38575  19.137  32.056   6.455
 8478POPC   C2B38576  19.146  32.062   6.755
 8478POPC   C3B38577  19.186  32.075   7.055
 8478POPC   C4B38578  19.221  32.064   7.355
 8479POPC   NC338579  16.686  22.156   5.555
 8479POPC   PO438580  16.688  22.132   5.855
 8479POPC   GL138581  16.681  22.147   6.155
 8479POPC   GL238582  16.726  22.084   6.155
 8479POPC   C1A38583  16.694  22.131   6.455
 8479POPC   D2A38584  16.717  22.198   6.755
 8479POPC   C3A38585  16.720  22.157   7.055
 8479POPC   C4A38586  16.773  22.161   7.355
 8479POPC   C1B38587  16.810  21.965   6.455
 8479POPC   C2B38588  16.739  21.866   6.755
 8479POPC   C3B38589  16.763  21.911   7.055
 8479POPC   C4B38590  16.768  21.889   7.355
 8480POPC   NC338591  19.079  14.393   5.555
 8480POPC   PO438592  19.091  14.393   5.855
 8480POPC   GL138593  19.061  14.375   6.155
 8480POPC   GL238594  18.963  14.317   6.155
 8480POPC   C1A38595  19.093  14.452   6.455
 8480POPC   D2A38596  19.054  14.435   6.755
 8480POPC   C3A38597  19.048  14.359   7.055
 8480POPC   C4A38598  19.066  14.450   7.355
 8480POPC   C1B38599  18.925  14.216   6.455
 8480POPC   C2B38600  18.954  14.222   6.755
 8480POPC   C3B38601  18.926  14.216   7.055
 8480POPC   C4B38602  18.930  14.180   7.355
 8481POPC   NC338603   3.541  30.746   5.555
 8481POPC   PO438604   3.552  30.713   5.855
 8481POPC   GL138605   3.556  30.694   6.155
 8481POPC   GL238606   3.412  30.791   6.155
 8481POPC   C1A38607   3.517  30.690   6.455
 8481POPC   D2A38608   3.590  30.742   6.755
 8481POPC   C3A38609   3.556  30.709   7.055
 8481POPC   C4A38610   3.558  30.669   7.355
 8481POPC   C1B38611   3.391  30.808   6.455
 8481POPC   C2B38612   3.367  30.848   6.755
 8481POPC   C3B38613   3.324  30.819   7.055
 8481POPC   C4B38614   3.331  30.830   7.355
 8482POPC   NC338615  31.476  35.352   5.555
 8482POPC   PO438616  31.491  35.315   5.855
 8482POPC   GL138617  31.522  35.400   6.155
 8482POPC   GL238618  31.538  35.452   6.155
 8482POPC   C1A38619  31.476  35.322   6.455
 8482POPC   D2A38620  31.469  35.338   6.755
 8482POPC   C3A38621  31.434  35.400   7.055
 8482POPC   C4A38622  31.471  35.389   7.355
 8482POPC   C1B38623  31.610  35.531   6.455
 8482POPC   C2B38624  31.616  35.586   6.755
 8482POPC   C3B38625  31.565  35.519   7.055
 8482POPC   C4B38626  31.592  35.589   7.355
 8483POPC   NC338627  33.785  37.700   5.555
 8483POPC   PO438628  33.765  37.647   5.855
 8483POPC   GL138629  33.822  37.686   6.155
 8483POPC   GL238630  33.879  37.718   6.155
 8483POPC   C1A38631  33.779  37.692   6.455
 8483POPC   D2A38632  33.809  37.635   6.755
 8483POPC   C3A38633  33.766  37.637   7.055
 8483POPC   C4A38634  33.811  37.632   7.355
 8483POPC   C1B38635  34.043  37.838   6.455
 8483POPC   C2B38636  34.033  37.838   6.755
 8483POPC   C3B38637  33.986  37.823   7.055
 8483POPC   C4B38638  34.033  37.863   7.355
 8484POPC   NC338639  12.817  39.235   5.555
 8484POPC   PO438640  12.886  39.212   5.855
 8484POPC   GL138641  12.826  39.217   6.155
 8484POPC   GL238642  12.733  39.229   6.155
 8484POPC   C1A38643  12.839  39.202   6.455
 8484POPC   D2A38644  12.827  39.254   6.755
 8484POPC   C3A38645  12.875  39.280   7.055
 8484POPC   C4A38646  12.886  39.218   7.355
 8484POPC   C1B38647  12.649  39.219   6.455
 8484POPC   C2B38648  12.571  39.174   6.755
 8484POPC   C3B38649  12.575  39.200   7.055
 8484POPC   C4B38650  12.569  39.202   7.355
 8485POPC   NC338651  17.459  39.210   5.555
 8485POPC   PO438652  17.465  39.252   5.855
 8485POPC   GL138653  17.472  39.268   6.155
 8485POPC   GL238654  17.531  39.355   6.155
 8485POPC   C1A38655  17.553  39.235   6.455
 8485POPC   D2A38656  17.510  39.270   6.755
 8485POPC   C3A38657  17.518  39.190   7.055
 8485POPC   C4A38658  17.463  39.214   7.355
 8485POPC   C1B38659  17.503  39.516   6.455
 8485POPC   C2B38660  17.491  39.461   6.755
 8485POPC   C3B38661  17.457  39.518   7.055
 8485POPC   C4B38662  17.512  39.468   7.355
 8486POPC   NC338663  40.771  11.311   5.555
 8486POPC   PO438664  40.741  11.277   5.855
 8486POPC   GL138665  40.807  11.320   6.155
 8486POPC   GL238666  40.904  11.274   6.155
 8486POPC   C1A38667  40.768  11.266   6.455
 8486POPC   D2A38668  40.787  11.254   6.755
 8486POPC   C3A38669  40.742  11.341   7.055
 8486POPC   C4A38670  40.748  11.334   7.355
 8486POPC   C1B38671  41.006  11.187   6.455
 8486POPC   C2B38672  41.017  11.227   6.755
 8486POPC   C3B38673  41.000  11.220   7.055
 8486POPC   C4B38674  40.979  11.250   7.355
 8487POPC   NC338675  35.389  36.166   5.555
 8487POPC   PO438676  35.360  36.086   5.855
 8487POPC   GL138677  35.401  36.084   6.155
 8487POPC   GL238678  35.264  36.156   6.155
 8487POPC   C1A38679  35.310  36.159   6.455
 8487POPC   D2A38680  35.351  36.078   6.755
 8487POPC   C3A38681  35.391  36.165   7.055
 8487POPC   C4A38682  35.374  36.158   7.355
 8487POPC   C1B38683  35.107  36.296   6.455
 8487POPC   C2B38684  35.109  36.299   6.755
 8487POPC   C3B38685  35.110  36.233   7.055
 8487POPC   C4B38686  35.188  36.238   7.355
 8488POPC   NC338687  32.979  20.632   5.555
 8488POPC   PO438688  33.011  20.621   5.855
 8488POPC   GL138689  32.982  20.644   6.155
 8488POPC   GL238690  32.993  20.731   6.155
 8488POPC   C1A38691  32.983  20.657   6.455
 8488POPC   D2A38692  33.046  20.572   6.755
 8488POPC   C3A38693  33.026  20.651   7.055
 8488POPC   C4A38694  33.055  20.608   7.355
 8488POPC   C1B38695  33.033  20.902   6.455
 8488POPC   C2B38696  33.047  20.812   6.755
 8488POPC   C3B38697  32.993  20.904   7.055
 8488POPC   C4B38698  32.984  20.898   7.355
 8489POPC   NC338699  12.827   6.652   5.555
 8489POPC   PO438700  12.803   6.632   5.855
 8489POPC   GL138701  12.875   6.633   6.155
 8489POPC   GL238702  12.735   6.701   6.155
 8489POPC   C1A38703  12.836   6.618   6.455
 8489POPC   D2A38704  12.818   6.643   6.755
 8489POPC   C3A38705  12.885   6.668   7.055
 8489POPC   C4A38706  12.868   6.674   7.355
 8489POPC   C1B38707  12.604   6.801   6.455
 8489POPC   C2B38708  12.641   6.796   6.755
 8489POPC   C3B38709  12.663   6.788   7.055
 8489POPC   C4B38710  12.620   6.773   7.355
 8490POPC   NC338711  43.845   5.874   5.555
 8490POPC   PO438712  43.847   5.872   5.855
 8490POPC   GL138713  43.933   5.836   6.155
 8490POPC   GL238714  43.833   5.973   6.155
 8490POPC   C1A38715  43.890   5.857   6.455
 8490POPC   D2A38716  43.907   5.845   6.755
 8490POPC   C3A38717  43.880   5.836   7.055
 8490POPC   C4A38718  43.909   5.828   7.355
 8490POPC   C1B38719  43.731   6.029   6.455
 8490POPC   C2B38720  43.645   6.047   6.755
 8490POPC   C3B38721  43.693   6.069   7.055
 8490POPC   C4B38722  43.695   6.033   7.355
 8491POPC   NC338723  10.532  17.555   5.555
 8491POPC   PO438724  10.533  17.499   5.855
 8491POPC   GL138725  10.502  17.461   6.155
 8491POPC   GL238726  10.529  17.358   6.155
 8491POPC   C1A38727  10.529  17.518   6.455
 8491POPC   D2A38728  10.544  17.536   6.755
 8491POPC   C3A38729  10.572  17.496   7.055
 8491POPC   C4A38730  10.490  17.492   7.355
 8491POPC   C1B38731  10.535  17.260   6.455
 8491POPC   C2B38732  10.539  17.305   6.755
 8491POPC   C3B38733  10.556  17.295   7.055
 8491POPC   C4B38734  10.576  17.226   7.355
 8492POPC   NC338735  33.834   0.484   5.555
 8492POPC   PO438736  33.780   0.466   5.855
 8492POPC   GL138737  33.816   0.428   6.155
 8492POPC   GL238738  33.905   0.461   6.155
 8492POPC   C1A38739  33.819   0.392   6.455
 8492POPC   D2A38740  33.832   0.481   6.755
 8492POPC   C3A38741  33.832   0.456   7.055
 8492POPC   C4A38742  33.837   0.487   7.355
 8492POPC   C1B38743  34.075   0.498   6.455
 8492POPC   C2B38744  34.065   0.526   6.755
 8492POPC   C3B38745  34.022   0.498   7.055
 8492POPC   C4B38746  34.055   0.477   7.355
 8493POPC   NC338747  40.004  43.893   5.555
 8493POPC   PO438748  40.020  43.856   5.855
 8493POPC   GL138749  40.014  43.857   6.155
 8493POPC   GL238750  40.023  43.752   6.155
 8493POPC   C1A38751  40.047  43.910   6.455
 8493POPC   D2A38752  40.037  43.926   6.755
 8493POPC   C3A38753  40.044  43.895   7.055
 8493POPC   C4A38754  40.036  43.933   7.355
 8493POPC   C1B38755  40.048  43.618   6.455
 8493POPC   C2B38756  40.026  43.666   6.755
 8493POPC   C3B38757  40.057  43.587   7.055
 8493POPC   C4B38758  39.978  43.625   7.355
 8494POPC   NC338759  29.942  24.495   5.555
 8494POPC   PO438760  29.966  24.511   5.855
 8494POPC   GL138761  29.932  24.525   6.155
 8494POPC   GL238762  29.831  24.498   6.155
 8494POPC   C1A38763  29.871  24.515   6.455
 8494POPC   D2A38764  29.933  24.445   6.755
 8494POPC   C3A38765  29.969  24.486   7.055
 8494POPC   C4A38766  29.969  24.485   7.355
 8494POPC   C1B38767  29.666  24.442   6.455
 8494POPC   C2B38768  29.666  24.494   6.755
 8494POPC   C3B38769  29.674  24.455   7.055
 8494POPC   C4B38770  29.687  24.448   7.355
 8495POPC   NC338771   7.433  43.064   5.555
 8495POPC   PO438772   7.454  43.064   5.855
 8495POPC   GL138773   7.453  43.135   6.155
 8495POPC   GL238774   7.411  42.951   6.155
 8495POPC   C1A38775   7.438  43.077   6.455
 8495POPC   D2A38776   7.429  43.124   6.755
 8495POPC   C3A38777   7.381  43.130   7.055
 8495POPC   C4A38778   7.459  43.128   7.355
 8495POPC   C1B38779   7.334  42.869   6.455
 8495POPC   C2B38780   7.279  42.927   6.755
 8495POPC   C3B38781   7.323  42.909   7.055
 8495POPC   C4B38782   7.352  42.870   7.355
 8496POPC   NC338783  34.615  30.667   5.555
 8496POPC   PO438784  34.572  30.671   5.855
 8496POPC   GL138785  34.595  30.653   6.155
 8496POPC   GL238786  34.650  30.641   6.155
 8496POPC   C1A38787  34.573  30.647   6.455
 8496POPC   D2A38788  34.579  30.684   6.755
 8496POPC   C3A38789  34.563  30.710   7.055
 8496POPC   C4A38790  34.557  30.682   7.355
 8496POPC   C1B38791  34.725  30.500   6.455
 8496POPC   C2B38792  34.726  30.468   6.755
 8496POPC   C3B38793  34.726  30.472   7.055
 8496POPC   C4B38794  34.699  30.480   7.355
 8497POPC   NC338795   4.364   8.932   5.555
 8497POPC   PO438796   4.281   8.985   5.855
 8497POPC   GL138797   4.301   9.013   6.155
 8497POPC   GL238798   4.458   9.012   6.155
 8497POPC   C1A38799   4.315   8.992   6.455
 8497POPC   D2A38800   4.270   9.022   6.755
 8497POPC   C3A38801   4.359   8.933   7.055
 8497POPC   C4A38802   4.339   8.954   7.355
 8497POPC   C1B38803   4.534   9.119   6.455
 8497POPC   C2B38804   4.474   9.152   6.755
 8497POPC   C3B38805   4.549   9.166   7.055
 8497POPC   C4B38806   4.522   9.088   7.355
 8498POPC   NC338807   4.345  13.673   5.555
 8498POPC   PO438808   4.326  13.675   5.855
 8498POPC   GL138809   4.333  13.668   6.155
 8498POPC   GL238810   4.255  13.662   6.155
 8498POPC   C1A38811   4.298  13.671   6.455
 8498POPC   D2A38812   4.268  13.586   6.755
 8498POPC   C3A38813   4.359  13.596   7.055
 8498POPC   C4A38814   4.351  13.609   7.355
 8498POPC   C1B38815   4.090  13.815   6.455
 8498POPC   C2B38816   4.080  13.759   6.755
 8498POPC   C3B38817   4.101  13.778   7.055
 8498POPC   C4B38818   4.113  13.783   7.355
 8499POPC   NC338819  36.917   1.255   5.555
 8499POPC   PO438820  36.891   1.179   5.855
 8499POPC   GL138821  36.888   1.167   6.155
 8499POPC   GL238822  36.805   1.169   6.155
 8499POPC   C1A38823  36.948   1.244   6.455
 8499POPC   D2A38824  36.877   1.233   6.755
 8499POPC   C3A38825  36.859   1.197   7.055
 8499POPC   C4A38826  36.941   1.211   7.355
 8499POPC   C1B38827  36.715   1.082   6.455
 8499POPC   C2B38828  36.730   1.063   6.755
 8499POPC   C3B38829  36.686   1.031   7.055
 8499POPC   C4B38830  36.684   1.049   7.355
 8500POPC   NC338831   6.639  21.373   5.555
 8500POPC   PO438832   6.642  21.405   5.855
 8500POPC   GL138833   6.631  21.421   6.155
 8500POPC   GL238834   6.560  21.358   6.155
 8500POPC   C1A38835   6.650  21.348   6.455
 8500POPC   D2A38836   6.615  21.385   6.755
 8500POPC   C3A38837   6.598  21.366   7.055
 8500POPC   C4A38838   6.667  21.422   7.355
 8500POPC   C1B38839   6.484  21.232   6.455
 8500POPC   C2B38840   6.440  21.232   6.755
 8500POPC   C3B38841   6.480  21.233   7.055
 8500POPC   C4B38842   6.452  21.223   7.355
 8501POPC   NC338843  40.005  29.944   5.555
 8501POPC   PO438844  39.978  29.908   5.855
 8501POPC   GL138845  39.962  29.902   6.155
 8501POPC   GL238846  40.145  29.835   6.155
 8501POPC   C1A38847  39.959  29.933   6.455
 8501POPC   D2A38848  40.021  29.944   6.755
 8501POPC   C3A38849  39.997  29.883   7.055
 8501POPC   C4A38850  39.972  29.957   7.355
 8501POPC   C1B38851  40.201  29.833   6.455
 8501POPC   C2B38852  40.186  29.809   6.755
 8501POPC   C3B38853  40.282  29.819   7.055
 8501POPC   C4B38854  40.247  29.858   7.355
 8502POPC   NC338855  12.893  33.040   5.555
 8502POPC   PO438856  12.845  33.009   5.855
 8502POPC   GL138857  12.882  33.011   6.155
 8502POPC   GL238858  12.760  33.104   6.155
 8502POPC   C1A38859  12.817  32.982   6.455
 8502POPC   D2A38860  12.813  33.061   6.755
 8502POPC   C3A38861  12.805  32.977   7.055
 8502POPC   C4A38862  12.862  32.987   7.355
 8502POPC   C1B38863  12.710  33.200   6.455
 8502POPC   C2B38864  12.709  33.209   6.755
 8502POPC   C3B38865  12.645  33.155   7.055
 8502POPC   C4B38866  12.690  33.214   7.355
 8503POPC   NC338867   6.679  42.357   5.555
 8503POPC   PO438868   6.682  42.345   5.855
 8503POPC   GL138869   6.637  42.300   6.155
 8503POPC   GL238870   6.588  42.404   6.155
 8503POPC   C1A38871   6.610  42.331   6.455
 8503POPC   D2A38872   6.629  42.331   6.755
 8503POPC   C3A38873   6.597  42.350   7.055
 8503POPC   C4A38874   6.599  42.324   7.355
 8503POPC   C1B38875   6.512  42.536   6.455
 8503POPC   C2B38876   6.534  42.560   6.755
 8503POPC   C3B38877   6.481  42.535   7.055
 8503POPC   C4B38878   6.461  42.518   7.355
 8504POPC   NC338879  29.137  34.612   5.555
 8504POPC   PO438880  29.113  34.603   5.855
 8504POPC   GL138881  29.139  34.591   6.155
 8504POPC   GL238882  29.123  34.422   6.155
 8504POPC   C1A38883  29.190  34.590   6.455
 8504POPC   D2A38884  29.171  34.552   6.755
 8504POPC   C3A38885  29.137  34.539   7.055
 8504POPC   C4A38886  29.113  34.576   7.355
 8504POPC   C1B38887  29.120  34.364   6.455
 8504POPC   C2B38888  29.187  34.358   6.755
 8504POPC   C3B38889  29.202  34.306   7.055
 8504POPC   C4B38890  29.137  34.295   7.355
 8505POPC   NC338891   6.650   0.437   5.555
 8505POPC   PO438892   6.667   0.444   5.855
 8505POPC   GL138893   6.654   0.404   6.155
 8505POPC   GL238894   6.800   0.445   6.155
 8505POPC   C1A38895   6.627   0.482   6.455
 8505POPC   D2A38896   6.607   0.423   6.755
 8505POPC   C3A38897   6.624   0.481   7.055
 8505POPC   C4A38898   6.651   0.482   7.355
 8505POPC   C1B38899   6.885   0.347   6.455
 8505POPC   C2B38900   6.854   0.338   6.755
 8505POPC   C3B38901   6.883   0.402   7.055
 8505POPC   C4B38902   6.842   0.369   7.355
 8506POPC   NC338903  11.276   2.770   5.555
 8506POPC   PO438904  11.350   2.716   5.855
 8506POPC   GL138905  11.311   2.798   6.155
 8506POPC   GL238906  11.367   2.836   6.155
 8506POPC   C1A38907  11.272   2.785   6.455
 8506POPC   D2A38908  11.303   2.815   6.755
 8506POPC   C3A38909  11.310   2.800   7.055
 8506POPC   C4A38910  11.332   2.749   7.355
 8506POPC   C1B38911  11.455   2.887   6.455
 8506POPC   C2B38912  11.468   2.888   6.755
 8506POPC   C3B38913  11.531   2.943   7.055
 8506POPC   C4B38914  11.500   2.906   7.355
 8507POPC   NC338915  21.396  37.660   5.555
 8507POPC   PO438916  21.428  37.681   5.855
 8507POPC   GL138917  21.342  37.679   6.155
 8507POPC   GL238918  21.480  37.564   6.155
 8507POPC   C1A38919  21.380  37.636   6.455
 8507POPC   D2A38920  21.421  37.701   6.755
 8507POPC   C3A38921  21.392  37.711   7.055
 8507POPC   C4A38922  21.362  37.698   7.355
 8507POPC   C1B38923  21.605  37.492   6.455
 8507POPC   C2B38924  21.592  37.461   6.755
 8507POPC   C3B38925  21.609  37.458   7.055
 8507POPC   C4B38926  21.596  37.469   7.355
 8508POPC   NC338927  28.359  42.319   5.555
 8508POPC   PO438928  28.335  42.338   5.855
 8508POPC   GL138929  28.360  42.334   6.155
 8508POPC   GL238930  28.418  42.250   6.155
 8508POPC   C1A38931  28.367  42.303   6.455
 8508POPC   D2A38932  28.372  42.378   6.755
 8508POPC   C3A38933  28.395  42.313   7.055
 8508POPC   C4A38934  28.389  42.368   7.355
 8508POPC   C1B38935  28.552  42.143   6.455
 8508POPC   C2B38936  28.501  42.182   6.755
 8508POPC   C3B38937  28.538  42.162   7.055
 8508POPC   C4B38938  28.521  42.153   7.355
 8509POPC   NC338939  12.900  26.809   5.555
 8509POPC   PO438940  12.880  26.820   5.855
 8509POPC   GL138941  12.851  26.802   6.155
 8509POPC   GL238942  12.846  26.658   6.155
 8509POPC   C1A38943  12.832  26.797   6.455
 8509POPC   D2A38944  12.853  26.778   6.755
 8509POPC   C3A38945  12.849  26.809   7.055
 8509POPC   C4A38946  12.828  26.776   7.355
 8509POPC   C1B38947  12.818  26.552   6.455
 8509POPC   C2B38948  12.897  26.540   6.755
 8509POPC   C3B38949  12.820  26.572   7.055
 8509POPC   C4B38950  12.854  26.568   7.355
 8510POPC   NC338951  28.392  22.922   5.555
 8510POPC   PO438952  28.343  22.939   5.855
 8510POPC   GL138953  28.397  22.909   6.155
 8510POPC   GL238954  28.224  22.884   6.155
 8510POPC   C1A38955  28.417  22.960   6.455
 8510POPC   D2A38956  28.413  22.898   6.755
 8510POPC   C3A38957  28.362  22.973   7.055
 8510POPC   C4A38958  28.343  22.979   7.355
 8510POPC   C1B38959  28.133  22.918   6.455
 8510POPC   C2B38960  28.104  22.954   6.755
 8510POPC   C3B38961  28.110  22.931   7.055
 8510POPC   C4B38962  28.128  22.884   7.355
 8511POPC   NC338963   4.288  37.707   5.555
 8511POPC   PO438964   4.273  37.660   5.855
 8511POPC   GL138965   4.289  37.650   6.155
 8511POPC   GL238966   4.258  37.778   6.155
 8511POPC   C1A38967   4.289  37.706   6.455
 8511POPC   D2A38968   4.345  37.708   6.755
 8511POPC   C3A38969   4.362  37.682   7.055
 8511POPC   C4A38970   4.303  37.631   7.355
 8511POPC   C1B38971   4.316  37.914   6.455
 8511POPC   C2B38972   4.298  37.957   6.755
 8511POPC   C3B38973   4.261  37.917   7.055
 8511POPC   C4B38974   4.323  37.941   7.355
 8512POPC   NC338975   1.198   8.155   5.555
 8512POPC   PO438976   1.191   8.217   5.855
 8512POPC   GL138977   1.209   8.157   6.155
 8512POPC   GL238978   1.308   8.248   6.155
 8512POPC   C1A38979   1.184   8.204   6.455
 8512POPC   D2A38980   1.227   8.219   6.755
 8512POPC   C3A38981   1.199   8.183   7.055
 8512POPC   C4A38982   1.229   8.164   7.355
 8512POPC   C1B38983   1.426   8.353   6.455
 8512POPC   C2B38984   1.399   8.310   6.755
 8512POPC   C3B38985   1.411   8.318   7.055
 8512POPC   C4B38986   1.387   8.319   7.355
 8513POPC   NC338987  10.559  14.394   5.555
 8513POPC   PO438988  10.502  14.355   5.855
 8513POPC   GL138989  10.487  14.434   6.155
 8513POPC   GL238990  10.487  14.269   6.155
 8513POPC   C1A38991  10.482  14.430   6.455
 8513POPC   D2A38992  10.533  14.429   6.755
 8513POPC   C3A38993  10.539  14.436   7.055
 8513POPC   C4A38994  10.490  14.419   7.355
 8513POPC   C1B38995  10.473  14.154   6.455
 8513POPC   C2B38996  10.436  14.193   6.755
 8513POPC   C3B38997  10.488  14.109   7.055
 8513POPC   C4B38998  10.473  14.132   7.355
 8514POPC   NC338999  40.742  37.722   5.555
 8514POPC   PO439000  40.740  37.679   5.855
 8514POPC   GL139001  40.766  37.709   6.155
 8514POPC   GL239002  40.694  37.640   6.155
 8514POPC   C1A39003  40.825  37.696   6.455
 8514POPC   D2A39004  40.739  37.719   6.755
 8514POPC   C3A39005  40.773  37.684   7.055
 8514POPC   C4A39006  40.794  37.693   7.355
 8514POPC   C1B39007  40.574  37.537   6.455
 8514POPC   C2B39008  40.573  37.558   6.755
 8514POPC   C3B39009  40.541  37.598   7.055
 8514POPC   C4B39010  40.551  37.525   7.355
 8515POPC   NC339011  34.570  20.563   5.555
 8515POPC   PO439012  34.555  20.600   5.855
 8515POPC   GL139013  34.601  20.626   6.155
 8515POPC   GL239014  34.572  20.483   6.155
 8515POPC   C1A39015  34.586  20.659   6.455
 8515POPC   D2A39016  34.623  20.613   6.755
 8515POPC   C3A39017  34.529  20.617   7.055
 8515POPC   C4A39018  34.595  20.587   7.355
 8515POPC   C1B39019  34.522  20.408   6.455
 8515POPC   C2B39020  34.551  20.359   6.755
 8515POPC   C3B39021  34.507  20.351   7.055
 8515POPC   C4B39022  34.573  20.354   7.355
 8516POPC   NC339023  38.453   6.664   5.555
 8516POPC   PO439024  38.409   6.685   5.855
 8516POPC   GL139025  38.462   6.677   6.155
 8516POPC   GL239026  38.615   6.702   6.155
 8516POPC   C1A39027  38.449   6.606   6.455
 8516POPC   D2A39028  38.440   6.646   6.755
 8516POPC   C3A39029  38.490   6.673   7.055
 8516POPC   C4A39030  38.453   6.646   7.355
 8516POPC   C1B39031  38.709   6.706   6.455
 8516POPC   C2B39032  38.697   6.681   6.755
 8516POPC   C3B39033  38.718   6.705   7.055
 8516POPC   C4B39034  38.734   6.741   7.355
 8517POPC   NC339035  14.443  12.108   5.555
 8517POPC   PO439036  14.443  12.085   5.855
 8517POPC   GL139037  14.400  12.100   6.155
 8517POPC   GL239038  14.495  11.991   6.155
 8517POPC   C1A39039  14.418  12.069   6.455
 8517POPC   D2A39040  14.369  12.049   6.755
 8517POPC   C3A39041  14.358  12.026   7.055
 8517POPC   C4A39042  14.395  12.061   7.355
 8517POPC   C1B39043  14.624  12.043   6.455
 8517POPC   C2B39044  14.662  12.011   6.755
 8517POPC   C3B39045  14.663  12.021   7.055
 8517POPC   C4B39046  14.628  12.002   7.355
 8518POPC   NC339047  19.839   8.243   5.555
 8518POPC   PO439048  19.839   8.197   5.855
 8518POPC   GL139049  19.819   8.161   6.155
 8518POPC   GL239050  19.964   8.306   6.155
 8518POPC   C1A39051  19.803   8.224   6.455
 8518POPC   D2A39052  19.819   8.198   6.755
 8518POPC   C3A39053  19.843   8.199   7.055
 8518POPC   C4A39054  19.813   8.163   7.355
 8518POPC   C1B39055  20.058   8.395   6.455
 8518POPC   C2B39056  20.055   8.327   6.755
 8518POPC   C3B39057  20.035   8.414   7.055
 8518POPC   C4B39058  19.983   8.366   7.355
 8519POPC   NC339059  31.446  44.647   5.555
 8519POPC   PO439060  31.461  44.681   5.855
 8519POPC   GL139061  31.452  44.612   6.155
 8519POPC   GL239062  31.379  44.740   6.155
 8519POPC   C1A39063  31.444  44.620   6.455
 8519POPC   D2A39064  31.434  44.623   6.755
 8519POPC   C3A39065  31.442  44.625   7.055
 8519POPC   C4A39066  31.485  44.667   7.355
 8519POPC   C1B39067  31.363  44.886   6.455
 8519POPC   C2B39068  31.301  44.835   6.755
 8519POPC   C3B39069  31.313  44.871   7.055
 8519POPC   C4B39070  31.349  44.812   7.355
 8520POPC   NC339071  28.409  15.223   5.555
 8520POPC   PO439072  28.380  15.178   5.855
 8520POPC   GL139073  28.358  15.188   6.155
 8520POPC   GL239074  28.502  15.161   6.155
 8520POPC   C1A39075  28.383  15.155   6.455
 8520POPC   D2A39076  28.399  15.152   6.755
 8520POPC   C3A39077  28.402  15.163   7.055
 8520POPC   C4A39078  28.376  15.178   7.355
 8520POPC   C1B39079  28.586  15.028   6.455
 8520POPC   C2B39080  28.565  15.116   6.755
 8520POPC   C3B39081  28.618  15.074   7.055
 8520POPC   C4B39082  28.602  15.027   7.355
 8521POPC   NC339083  42.322  12.814   5.555
 8521POPC   PO439084  42.320  12.858   5.855
 8521POPC   GL139085  42.333  12.891   6.155
 8521POPC   GL239086  42.261  12.751   6.155
 8521POPC   C1A39087  42.334  12.837   6.455
 8521POPC   D2A39088  42.381  12.817   6.755
 8521POPC   C3A39089  42.299  12.840   7.055
 8521POPC   C4A39090  42.375  12.840   7.355
 8521POPC   C1B39091  42.219  12.693   6.455
 8521POPC   C2B39092  42.223  12.663   6.755
 8521POPC   C3B39093  42.211  12.616   7.055
 8521POPC   C4B39094  42.149  12.611   7.355
 8522POPC   NC339095   1.967   9.734   5.555
 8522POPC   PO439096   1.981   9.761   5.855
 8522POPC   GL139097   2.004   9.739   6.155
 8522POPC   GL239098   2.085   9.829   6.155
 8522POPC   C1A39099   1.975   9.791   6.455
 8522POPC   D2A39100   1.961   9.700   6.755
 8522POPC   C3A39101   2.011   9.710   7.055
 8522POPC   C4A39102   1.971   9.705   7.355
 8522POPC   C1B39103   2.197   9.864   6.455
 8522POPC   C2B39104   2.253   9.887   6.755
 8522POPC   C3B39105   2.201   9.860   7.055
 8522POPC   C4B39106   2.253   9.908   7.355
 8523POPC   NC339107  35.365  14.445   5.555
 8523POPC   PO439108  35.371  14.399   5.855
 8523POPC   GL139109  35.353  14.443   6.155
 8523POPC   GL239110  35.185  14.386   6.155
 8523POPC   C1A39111  35.393  14.452   6.455
 8523POPC   D2A39112  35.386  14.421   6.755
 8523POPC   C3A39113  35.331  14.443   7.055
 8523POPC   C4A39114  35.344  14.366   7.355
 8523POPC   C1B39115  35.107  14.427   6.455
 8523POPC   C2B39116  35.114  14.436   6.755
 8523POPC   C3B39117  35.082  14.401   7.055
 8523POPC   C4B39118  35.054  14.381   7.355
 8524POPC   NC339119  16.002  22.113   5.555
 8524POPC   PO439120  15.955  22.195   5.855
 8524POPC   GL139121  15.925  22.141   6.155
 8524POPC   GL239122  15.836  22.186   6.155
 8524POPC   C1A39123  15.964  22.138   6.455
 8524POPC   D2A39124  15.987  22.161   6.755
 8524POPC   C3A39125  15.966  22.112   7.055
 8524POPC   C4A39126  15.941  22.190   7.355
 8524POPC   C1B39127  15.745  22.157   6.455
 8524POPC   C2B39128  15.743  22.168   6.755
 8524POPC   C3B39129  15.740  22.154   7.055
 8524POPC   C4B39130  15.753  22.158   7.355
 8525POPC   NC339131  15.182   8.941   5.555
 8525POPC   PO439132  15.201   8.952   5.855
 8525POPC   GL139133  15.175   8.987   6.155
 8525POPC   GL239134  15.188   8.811   6.155
 8525POPC   C1A39135  15.173   8.924   6.455
 8525POPC   D2A39136  15.197   9.009   6.755
 8525POPC   C3A39137  15.205   8.947   7.055
 8525POPC   C4A39138  15.190   9.006   7.355
 8525POPC   C1B39139  15.090   8.687   6.455
 8525POPC   C2B39140  15.115   8.709   6.755
 8525POPC   C3B39141  15.145   8.686   7.055
 8525POPC   C4B39142  15.098   8.746   7.355
 8526POPC   NC339143   2.734  16.716   5.555
 8526POPC   PO439144   2.730  16.696   5.855
 8526POPC   GL139145   2.813  16.742   6.155
 8526POPC   GL239146   2.640  16.625   6.155
 8526POPC   C1A39147   2.727  16.773   6.455
 8526POPC   D2A39148   2.752  16.763   6.755
 8526POPC   C3A39149   2.803  16.718   7.055
 8526POPC   C4A39150   2.730  16.714   7.355
 8526POPC   C1B39151   2.503  16.627   6.455
 8526POPC   C2B39152   2.534  16.639   6.755
 8526POPC   C3B39153   2.549  16.574   7.055
 8526POPC   C4B39154   2.519  16.635   7.355
 8527POPC   NC339155   3.529  21.399   5.555
 8527POPC   PO439156   3.543  21.432   5.855
 8527POPC   GL139157   3.577  21.414   6.155
 8527POPC   GL239158   3.549  21.532   6.155
 8527POPC   C1A39159   3.583  21.359   6.455
 8527POPC   D2A39160   3.530  21.373   6.755
 8527POPC   C3A39161   3.562  21.418   7.055
 8527POPC   C4A39162   3.525  21.391   7.355
 8527POPC   C1B39163   3.494  21.640   6.455
 8527POPC   C2B39164   3.494  21.659   6.755
 8527POPC   C3B39165   3.550  21.633   7.055
 8527POPC   C4B39166   3.529  21.632   7.355
 8528POPC   NC339167  32.284  14.409   5.555
 8528POPC   PO439168  32.287  14.387   5.855
 8528POPC   GL139169  32.226  14.400   6.155
 8528POPC   GL239170  32.225  14.242   6.155
 8528POPC   C1A39171  32.214  14.358   6.455
 8528POPC   D2A39172  32.262  14.399   6.755
 8528POPC   C3A39173  32.280  14.423   7.055
 8528POPC   C4A39174  32.232  14.357   7.355
 8528POPC   C1B39175  32.179  14.140   6.455
 8528POPC   C2B39176  32.229  14.142   6.755
 8528POPC   C3B39177  32.205  14.169   7.055
 8528POPC   C4B39178  32.193  14.124   7.355
 8529POPC   NC339179  17.500  36.087   5.555
 8529POPC   PO439180  17.472  36.174   5.855
 8529POPC   GL139181  17.493  36.129   6.155
 8529POPC   GL239182  17.385  36.046   6.155
 8529POPC   C1A39183  17.465  36.078   6.455
 8529POPC   D2A39184  17.509  36.177   6.755
 8529POPC   C3A39185  17.516  36.150   7.055
 8529POPC   C4A39186  17.459  36.125   7.355
 8529POPC   C1B39187  17.308  35.937   6.455
 8529POPC   C2B39188  17.338  35.970   6.755
 8529POPC   C3B39189  17.388  35.943   7.055
 8529POPC   C4B39190  17.358  35.949   7.355
 8530POPC   NC339191  18.321  13.658   5.555
 8530POPC   PO439192  18.302  13.629   5.855
 8530POPC   GL139193  18.292  13.582   6.155
 8530POPC   GL239194  18.125  13.602   6.155
 8530POPC   C1A39195  18.260  13.669   6.455
 8530POPC   D2A39196  18.244  13.648   6.755
 8530POPC   C3A39197  18.271  13.626   7.055
 8530POPC   C4A39198  18.272  13.607   7.355
 8530POPC   C1B39199  18.085  13.710   6.455
 8530POPC   C2B39200  17.999  13.696   6.755
 8530POPC   C3B39201  18.066  13.669   7.055
 8530POPC   C4B39202  18.053  13.646   7.355
 8531POPC   NC339203  43.894   1.948   5.555
 8531POPC   PO439204  43.862   1.999   5.855
 8531POPC   GL139205  43.884   1.969   6.155
 8531POPC   GL239206  43.800   1.992   6.155
 8531POPC   C1A39207  43.870   2.033   6.455
 8531POPC   D2A39208  43.877   1.959   6.755
 8531POPC   C3A39209  43.865   1.968   7.055
 8531POPC   C4A39210  43.931   1.942   7.355
 8531POPC   C1B39211  43.636   2.111   6.455
 8531POPC   C2B39212  43.613   2.050   6.755
 8531POPC   C3B39213  43.617   2.030   7.055
 8531POPC   C4B39214  43.669   2.031   7.355
 8532POPC   NC339215  18.309  43.135   5.555
 8532POPC   PO439216  18.258  43.151   5.855
 8532POPC   GL139217  18.280  43.136   6.155
 8532POPC   GL239218  18.197  43.040   6.155
 8532POPC   C1A39219  18.306  43.068   6.455
 8532POPC   D2A39220  18.248  43.132   6.755
 8532POPC   C3A39221  18.280  43.103   7.055
 8532POPC   C4A39222  18.275  43.129   7.355
 8532POPC   C1B39223  18.192  42.866   6.455
 8532POPC   C2B39224  18.196  42.916   6.755
 8532POPC   C3B39225  18.184  42.930   7.055
 8532POPC   C4B39226  18.141  42.878   7.355
 8533POPC   NC339227  29.896  40.743   5.555
 8533POPC   PO439228  29.929  40.809   5.855
 8533POPC   GL139229  29.893  40.781   6.155
 8533POPC   GL239230  29.786  40.739   6.155
 8533POPC   C1A39231  29.946  40.802   6.455
 8533POPC   D2A39232  29.925  40.785   6.755
 8533POPC   C3A39233  29.923  40.763   7.055
 8533POPC   C4A39234  29.923  40.790   7.355
 8533POPC   C1B39235  29.623  40.769   6.455
 8533POPC   C2B39236  29.657  40.839   6.755
 8533POPC   C3B39237  29.708  40.798   7.055
 8533POPC   C4B39238  29.635  40.795   7.355
 8534POPC   NC339239  38.492  40.793   5.555
 8534POPC   PO439240  38.407  40.797   5.855
 8534POPC   GL139241  38.459  40.742   6.155
 8534POPC   GL239242  38.482  40.926   6.155
 8534POPC   C1A39243  38.415  40.753   6.455
 8534POPC   D2A39244  38.496  40.812   6.755
 8534POPC   C3A39245  38.495  40.779   7.055
 8534POPC   C4A39246  38.422  40.803   7.355
 8534POPC   C1B39247  38.478  41.026   6.455
 8534POPC   C2B39248  38.438  41.034   6.755
 8534POPC   C3B39249  38.393  40.983   7.055
 8534POPC   C4B39250  38.394  40.993   7.355
 8535POPC   NC339251  23.712  39.213   5.555
 8535POPC   PO439252  23.745  39.187   5.855
 8535POPC   GL139253  23.737  39.195   6.155
 8535POPC   GL239254  23.845  39.313   6.155
 8535POPC   C1A39255  23.687  39.223   6.455
 8535POPC   D2A39256  23.690  39.273   6.755
 8535POPC   C3A39257  23.706  39.279   7.055
 8535POPC   C4A39258  23.754  39.224   7.355
 8535POPC   C1B39259  23.991  39.340   6.455
 8535POPC   C2B39260  23.898  39.320   6.755
 8535POPC   C3B39261  23.905  39.299   7.055
 8535POPC   C4B39262  23.928  39.294   7.355
 8536POPC   NC339263  43.925  13.583   5.555
 8536POPC   PO439264  43.837  13.580   5.855
 8536POPC   GL139265  43.842  13.625   6.155
 8536POPC   GL239266  43.938  13.488   6.155
 8536POPC   C1A39267  43.930  13.668   6.455
 8536POPC   D2A39268  43.866  13.645   6.755
 8536POPC   C3A39269  43.885  13.668   7.055
 8536POPC   C4A39270  43.926  13.670   7.355
 8536POPC   C1B39271  44.028  13.423   6.455
 8536POPC   C2B39272  44.058  13.438   6.755
 8536POPC   C3B39273  44.097  13.445   7.055
 8536POPC   C4B39274  44.048  13.447   7.355
 8537POPC   NC339275  32.247  43.836   5.555
 8537POPC   PO439276  32.295  43.927   5.855
 8537POPC   GL139277  32.275  43.884   6.155
 8537POPC   GL239278  32.126  43.943   6.155
 8537POPC   C1A39279  32.277  43.845   6.455
 8537POPC   D2A39280  32.206  43.900   6.755
 8537POPC   C3A39281  32.204  43.902   7.055
 8537POPC   C4A39282  32.264  43.932   7.355
 8537POPC   C1B39283  32.065  44.081   6.455
 8537POPC   C2B39284  32.081  44.065   6.755
 8537POPC   C3B39285  32.101  44.114   7.055
 8537POPC   C4B39286  32.086  44.118   7.355
 8538POPC   NC339287   1.231  37.645   5.555
 8538POPC   PO439288   1.251  37.720   5.855
 8538POPC   GL139289   1.263  37.677   6.155
 8538POPC   GL239290   1.267  37.826   6.155
 8538POPC   C1A39291   1.222  37.681   6.455
 8538POPC   D2A39292   1.168  37.697   6.755
 8538POPC   C3A39293   1.199  37.697   7.055
 8538POPC   C4A39294   1.202  37.639   7.355
 8538POPC   C1B39295   1.269  37.919   6.455
 8538POPC   C2B39296   1.187  37.977   6.755
 8538POPC   C3B39297   1.186  37.928   7.055
 8538POPC   C4B39298   1.205  37.900   7.355
 8539POPC   NC339299  37.691   3.566   5.555
 8539POPC   PO439300  37.718   3.591   5.855
 8539POPC   GL139301  37.687   3.551   6.155
 8539POPC   GL239302  37.655   3.652   6.155
 8539POPC   C1A39303  37.702   3.514   6.455
 8539POPC   D2A39304  37.703   3.579   6.755
 8539POPC   C3A39305  37.671   3.583   7.055
 8539POPC   C4A39306  37.684   3.497   7.355
 8539POPC   C1B39307  37.532   3.774   6.455
 8539POPC   C2B39308  37.517   3.801   6.755
 8539POPC   C3B39309  37.573   3.738   7.055
 8539POPC   C4B39310  37.599   3.769   7.355
 8540POPC   NC339311   8.212  19.045   5.555
 8540POPC   PO439312   8.203  19.075   5.855
 8540POPC   GL139313   8.166  19.091   6.155
 8540POPC   GL239314   8.181  19.169   6.155
 8540POPC   C1A39315   8.208  19.021   6.455
 8540POPC   D2A39316   8.190  19.078   6.755
 8540POPC   C3A39317   8.156  19.018   7.055
 8540POPC   C4A39318   8.193  19.064   7.355
 8540POPC   C1B39319   8.080  19.276   6.455
 8540POPC   C2B39320   8.087  19.328   6.755
 8540POPC   C3B39321   8.101  19.347   7.055
 8540POPC   C4B39322   8.142  19.294   7.355
 8541POPC   NC339323  23.673  44.649   5.555
 8541POPC   PO439324  23.753  44.635   5.855
 8541POPC   GL139325  23.674  44.643   6.155
 8541POPC   GL239326  23.584  44.559   6.155
 8541POPC   C1A39327  23.732  44.709   6.455
 8541POPC   D2A39328  23.716  44.662   6.755
 8541POPC   C3A39329  23.731  44.646   7.055
 8541POPC   C4A39330  23.740  44.653   7.355
 8541POPC   C1B39331  23.492  44.457   6.455
 8541POPC   C2B39332  23.538  44.465   6.755
 8541POPC   C3B39333  23.532  44.503   7.055
 8541POPC   C4B39334  23.487  44.462   7.355
 8542POPC   NC339335  17.497  34.564   5.555
 8542POPC   PO439336  17.477  34.599   5.855
 8542POPC   GL139337  17.548  34.537   6.155
 8542POPC   GL239338  17.430  34.573   6.155
 8542POPC   C1A39339  17.476  34.594   6.455
 8542POPC   D2A39340  17.477  34.593   6.755
 8542POPC   C3A39341  17.539  34.530   7.055
 8542POPC   C4A39342  17.536  34.572   7.355
 8542POPC   C1B39343  17.317  34.690   6.455
 8542POPC   C2B39344  17.266  34.615   6.755
 8542POPC   C3B39345  17.231  34.616   7.055
 8542POPC   C4B39346  17.283  34.679   7.355
 8543POPC   NC339347  11.334  40.806   5.555
 8543POPC   PO439348  11.263  40.813   5.855
 8543POPC   GL139349  11.305  40.744   6.155
 8543POPC   GL239350  11.348  40.833   6.155
 8543POPC   C1A39351  11.269  40.801   6.455
 8543POPC   D2A39352  11.283  40.803   6.755
 8543POPC   C3A39353  11.341  40.754   7.055
 8543POPC   C4A39354  11.307  40.735   7.355
 8543POPC   C1B39355  11.515  40.954   6.455
 8543POPC   C2B39356  11.452  40.921   6.755
 8543POPC   C3B39357  11.482  40.930   7.055
 8543POPC   C4B39358  11.457  40.980   7.355
 8544POPC   NC339359  35.348  23.706   5.555
 8544POPC   PO439360  35.350  23.700   5.855
 8544POPC   GL139361  35.326  23.706   6.155
 8544POPC   GL239362  35.387  23.814   6.155
 8544POPC   C1A39363  35.303  23.701   6.455
 8544POPC   D2A39364  35.381  23.763   6.755
 8544POPC   C3A39365  35.387  23.703   7.055
 8544POPC   C4A39366  35.302  23.679   7.355
 8544POPC   C1B39367  35.501  23.911   6.455
 8544POPC   C2B39368  35.529  23.896   6.755
 8544POPC   C3B39369  35.440  23.881   7.055
 8544POPC   C4B39370  35.522  23.974   7.355
 8545POPC   NC339371  13.653  31.504   5.555
 8545POPC   PO439372  13.579  31.473   5.855
 8545POPC   GL139373  13.674  31.516   6.155
 8545POPC   GL239374  13.768  31.465   6.155
 8545POPC   C1A39375  13.617  31.451   6.455
 8545POPC   D2A39376  13.578  31.437   6.755
 8545POPC   C3A39377  13.657  31.495   7.055
 8545POPC   C4A39378  13.660  31.485   7.355
 8545POPC   C1B39379  13.823  31.406   6.455
 8545POPC   C2B39380  13.905  31.360   6.755
 8545POPC   C3B39381  13.846  31.421   7.055
 8545POPC   C4B39382  13.847  31.369   7.355
 8546POPC   NC339383   7.460  10.549   5.555
 8546POPC   PO439384   7.406  10.552   5.855
 8546POPC   GL139385   7.454  10.513   6.155
 8546POPC   GL239386   7.505  10.631   6.155
 8546POPC   C1A39387   7.372  10.572   6.455
 8546POPC   D2A39388   7.379  10.563   6.755
 8546POPC   C3A39389   7.456  10.558   7.055
 8546POPC   C4A39390   7.411  10.513   7.355
 8546POPC   C1B39391   7.579  10.738   6.455
 8546POPC   C2B39392   7.590  10.702   6.755
 8546POPC   C3B39393   7.547  10.685   7.055
 8546POPC   C4B39394   7.592  10.778   7.355
 8547POPC   NC339395   7.422  15.221   5.555
 8547POPC   PO439396   7.406  15.197   5.855
 8547POPC   GL139397   7.413  15.152   6.155
 8547POPC   GL239398   7.393  15.021   6.155
 8547POPC   C1A39399   7.393  15.215   6.455
 8547POPC   D2A39400   7.455  15.184   6.755
 8547POPC   C3A39401   7.440  15.211   7.055
 8547POPC   C4A39402   7.387  15.204   7.355
 8547POPC   C1B39403   7.346  14.974   6.455
 8547POPC   C2B39404   7.310  14.930   6.755
 8547POPC   C3B39405   7.397  14.908   7.055
 8547POPC   C4B39406   7.358  14.919   7.355
 8548POPC   NC339407   5.048  13.636   5.555
 8548POPC   PO439408   5.093  13.640   5.855
 8548POPC   GL139409   5.099  13.677   6.155
 8548POPC   GL239410   4.940  13.721   6.155
 8548POPC   C1A39411   5.140  13.599   6.455
 8548POPC   D2A39412   5.089  13.672   6.755
 8548POPC   C3A39413   5.075  13.618   7.055
 8548POPC   C4A39414   5.128  13.661   7.355
 8548POPC   C1B39415   4.874  13.719   6.455
 8548POPC   C2B39416   4.876  13.706   6.755
 8548POPC   C3B39417   4.822  13.733   7.055
 8548POPC   C4B39418   4.883  13.758   7.355
 8549POPC   NC339419  33.053  36.173   5.555
 8549POPC   PO439420  33.057  36.088   5.855
 8549POPC   GL139421  33.038  36.148   6.155
 8549POPC   GL239422  33.102  35.976   6.155
 8549POPC   C1A39423  33.039  36.146   6.455
 8549POPC   D2A39424  33.016  36.087   6.755
 8549POPC   C3A39425  33.024  36.150   7.055
 8549POPC   C4A39426  32.997  36.120   7.355
 8549POPC   C1B39427  33.133  35.901   6.455
 8549POPC   C2B39428  33.158  35.878   6.755
 8549POPC   C3B39429  33.081  35.898   7.055
 8549POPC   C4B39430  33.131  35.884   7.355
 8550POPC   NC339431   0.487  28.331   5.555
 8550POPC   PO439432   0.389  28.391   5.855
 8550POPC   GL139433   0.394  28.396   6.155
 8550POPC   GL239434   0.272  28.325   6.155
 8550POPC   C1A39435   0.409  28.387   6.455
 8550POPC   D2A39436   0.455  28.392   6.755
 8550POPC   C3A39437   0.432  28.321   7.055
 8550POPC   C4A39438   0.485  28.384   7.355
 8550POPC   C1B39439   0.206  28.326   6.455
 8550POPC   C2B39440   0.161  28.271   6.755
 8550POPC   C3B39441   0.206  28.242   7.055
 8550POPC   C4B39442   0.162  28.245   7.355
 8551POPC   NC339443  33.838  24.488   5.555
 8551POPC   PO439444  33.805  24.449   5.855
 8551POPC   GL139445  33.790  24.505   6.155
 8551POPC   GL239446  33.919  24.455   6.155
 8551POPC   C1A39447  33.758  24.497   6.455
 8551POPC   D2A39448  33.757  24.477   6.755
 8551POPC   C3A39449  33.782  24.497   7.055
 8551POPC   C4A39450  33.816  24.523   7.355
 8551POPC   C1B39451  33.979  24.379   6.455
 8551POPC   C2B39452  34.007  24.428   6.755
 8551POPC   C3B39453  33.978  24.360   7.055
 8551POPC   C4B39454  34.014  24.414   7.355
 8552POPC   NC339455  10.487  25.267   5.555
 8552POPC   PO439456  10.524  25.264   5.855
 8552POPC   GL139457  10.532  25.311   6.155
 8552POPC   GL239458  10.601  25.212   6.155
 8552POPC   C1A39459  10.505  25.299   6.455
 8552POPC   D2A39460  10.496  25.263   6.755
 8552POPC   C3A39461  10.560  25.251   7.055
 8552POPC   C4A39462  10.490  25.311   7.355
 8552POPC   C1B39463  10.696  25.132   6.455
 8552POPC   C2B39464  10.741  25.140   6.755
 8552POPC   C3B39465  10.685  25.072   7.055
 8552POPC   C4B39466  10.745  25.134   7.355
 8553POPC   NC339467  19.813  39.967   5.555
 8553POPC   PO439468  19.813  40.041   5.855
 8553POPC   GL139469  19.806  39.974   6.155
 8553POPC   GL239470  19.786  40.131   6.155
 8553POPC   C1A39471  19.796  40.011   6.455
 8553POPC   D2A39472  19.813  40.047   6.755
 8553POPC   C3A39473  19.863  40.000   7.055
 8553POPC   C4A39474  19.861  40.038   7.355
 8553POPC   C1B39475  19.619  40.175   6.455
 8553POPC   C2B39476  19.634  40.126   6.755
 8553POPC   C3B39477  19.611  40.208   7.055
 8553POPC   C4B39478  19.684  40.211   7.355
 8554POPC   NC339479  20.620  27.608   5.555
 8554POPC   PO439480  20.635  27.642   5.855
 8554POPC   GL139481  20.607  27.566   6.155
 8554POPC   GL239482  20.598  27.457   6.155
 8554POPC   C1A39483  20.563  27.637   6.455
 8554POPC   D2A39484  20.634  27.603   6.755
 8554POPC   C3A39485  20.652  27.545   7.055
 8554POPC   C4A39486  20.580  27.600   7.355
 8554POPC   C1B39487  20.663  27.351   6.455
 8554POPC   C2B39488  20.615  27.353   6.755
 8554POPC   C3B39489  20.616  27.328   7.055
 8554POPC   C4B39490  20.640  27.359   7.355
 8555POPC   NC339491  25.228  41.539   5.555
 8555POPC   PO439492  25.280  41.588   5.855
 8555POPC   GL139493  25.221  41.517   6.155
 8555POPC   GL239494  25.270  41.678   6.155
 8555POPC   C1A39495  25.242  41.592   6.455
 8555POPC   D2A39496  25.303  41.575   6.755
 8555POPC   C3A39497  25.271  41.578   7.055
 8555POPC   C4A39498  25.258  41.529   7.355
 8555POPC   C1B39499  25.392  41.749   6.455
 8555POPC   C2B39500  25.351  41.795   6.755
 8555POPC   C3B39501  25.326  41.776   7.055
 8555POPC   C4B39502  25.355  41.772   7.355
 8556POPC   NC339503  36.080  43.862   5.555
 8556POPC   PO439504  36.158  43.902   5.855
 8556POPC   GL139505  36.110  43.864   6.155
 8556POPC   GL239506  35.982  43.900   6.155
 8556POPC   C1A39507  36.123  43.918   6.455
 8556POPC   D2A39508  36.143  43.854   6.755
 8556POPC   C3A39509  36.113  43.903   7.055
 8556POPC   C4A39510  36.129  43.875   7.355
 8556POPC   C1B39511  35.918  43.940   6.455
 8556POPC   C2B39512  35.856  43.900   6.755
 8556POPC   C3B39513  35.843  43.867   7.055
 8556POPC   C4B39514  35.913  43.900   7.355
 8557POPC   NC339515   7.427  39.983   5.555
 8557POPC   PO439516   7.403  39.959   5.855
 8557POPC   GL139517   7.409  39.959   6.155
 8557POPC   GL239518   7.515  40.024   6.155
 8557POPC   C1A39519   7.433  40.001   6.455
 8557POPC   D2A39520   7.436  40.047   6.755
 8557POPC   C3A39521   7.462  39.958   7.055
 8557POPC   C4A39522   7.426  40.030   7.355
 8557POPC   C1B39523   7.629  40.055   6.455
 8557POPC   C2B39524   7.627  40.055   6.755
 8557POPC   C3B39525   7.632  40.105   7.055
 8557POPC   C4B39526   7.634  40.090   7.355
 8558POPC   NC339527  29.957  19.087   5.555
 8558POPC   PO439528  29.911  19.068   5.855
 8558POPC   GL139529  29.924  19.043   6.155
 8558POPC   GL239530  29.887  19.178   6.155
 8558POPC   C1A39531  29.919  19.029   6.455
 8558POPC   D2A39532  29.966  19.030   6.755
 8558POPC   C3A39533  29.916  19.053   7.055
 8558POPC   C4A39534  29.953  19.066   7.355
 8558POPC   C1B39535  29.943  19.336   6.455
 8558POPC   C2B39536  29.914  19.297   6.755
 8558POPC   C3B39537  29.959  19.309   7.055
 8558POPC   C4B39538  29.917  19.351   7.355
 8559POPC   NC339539  15.145  39.277   5.555
 8559POPC   PO439540  15.213  39.246   5.855
 8559POPC   GL139541  15.204  39.249   6.155
 8559POPC   GL239542  15.247  39.260   6.155
 8559POPC   C1A39543  15.165  39.264   6.455
 8559POPC   D2A39544  15.139  39.218   6.755
 8559POPC   C3A39545  15.153  39.265   7.055
 8559POPC   C4A39546  15.228  39.189   7.355
 8559POPC   C1B39547  15.417  39.359   6.455
 8559POPC   C2B39548  15.380  39.329   6.755
 8559POPC   C3B39549  15.441  39.328   7.055
 8559POPC   C4B39550  15.431  39.356   7.355
 8560POPC   NC339551  24.485  19.876   5.555
 8560POPC   PO439552  24.460  19.815   5.855
 8560POPC   GL139553  24.525  19.834   6.155
 8560POPC   GL239554  24.433  19.725   6.155
 8560POPC   C1A39555  24.509  19.841   6.455
 8560POPC   D2A39556  24.442  19.871   6.755
 8560POPC   C3A39557  24.489  19.877   7.055
 8560POPC   C4A39558  24.498  19.798   7.355
 8560POPC   C1B39559  24.267  19.701   6.455
 8560POPC   C2B39560  24.239  19.690   6.755
 8560POPC   C3B39561  24.276  19.671   7.055
 8560POPC   C4B39562  24.262  19.683   7.355
 8561POPC   NC339563  37.724  19.046   5.555
 8561POPC   PO439564  37.723  19.074   5.855
 8561POPC   GL139565  37.727  19.019   6.155
 8561POPC   GL239566  37.547  19.003   6.155
 8561POPC   C1A39567  37.696  19.046   6.455
 8561POPC   D2A39568  37.682  19.017   6.755
 8561POPC   C3A39569  37.671  19.009   7.055
 8561POPC   C4A39570  37.631  19.090   7.355
 8561POPC   C1B39571  37.470  18.909   6.455
 8561POPC   C2B39572  37.502  18.903   6.755
 8561POPC   C3B39573  37.555  18.897   7.055
 8561POPC   C4B39574  37.494  18.847   7.355
 8562POPC   NC339575   6.687  26.777   5.555
 8562POPC   PO439576   6.598  26.799   5.855
 8562POPC   GL139577   6.636  26.812   6.155
 8562POPC   GL239578   6.568  26.821   6.155
 8562POPC   C1A39579   6.673  26.865   6.455
 8562POPC   D2A39580   6.602  26.849   6.755
 8562POPC   C3A39581   6.634  26.810   7.055
 8562POPC   C4A39582   6.622  26.827   7.355
 8562POPC   C1B39583   6.367  26.868   6.455
 8562POPC   C2B39584   6.406  26.810   6.755
 8562POPC   C3B39585   6.445  26.797   7.055
 8562POPC   C4B39586   6.373  26.816   7.355
 8563POPC   NC339587  18.246  44.708   5.555
 8563POPC   PO439588  18.292  44.653   5.855
 8563POPC   GL139589  18.247  44.662   6.155
 8563POPC   GL239590  18.288  44.755   6.155
 8563POPC   C1A39591  18.279  44.669   6.455
 8563POPC   D2A39592  18.303  44.644   6.755
 8563POPC   C3A39593  18.240  44.687   7.055
 8563POPC   C4A39594  18.325  44.686   7.355
 8563POPC   C1B39595  18.356  44.902   6.455
 8563POPC   C2B39596  18.319  44.861   6.755
 8563POPC   C3B39597  18.302  44.923   7.055
 8563POPC   C4B39598  18.361  44.947   7.355
 8564POPC   NC339599  37.681  36.096   5.555
 8564POPC   PO439600  37.728  36.119   5.855
 8564POPC   GL139601  37.694  36.175   6.155
 8564POPC   GL239602  37.568  36.261   6.155
 8564POPC   C1A39603  37.663  36.126   6.455
 8564POPC   D2A39604  37.646  36.115   6.755
 8564POPC   C3A39605  37.657  36.084   7.055
 8564POPC   C4A39606  37.689  36.125   7.355
 8564POPC   C1B39607  37.541  36.303   6.455
 8564POPC   C2B39608  37.489  36.272   6.755
 8564POPC   C3B39609  37.527  36.258   7.055
 8564POPC   C4B39610  37.509  36.327   7.355
 8565POPC   NC339611  35.326   1.210   5.555
 8565POPC   PO439612  35.356   1.261   5.855
 8565POPC   GL139613  35.369   1.253   6.155
 8565POPC   GL239614  35.232   1.269   6.155
 8565POPC   C1A39615  35.341   1.231   6.455
 8565POPC   D2A39616  35.393   1.247   6.755
 8565POPC   C3A39617  35.326   1.252   7.055
 8565POPC   C4A39618  35.351   1.170   7.355
 8565POPC   C1B39619  35.201   1.387   6.455
 8565POPC   C2B39620  35.175   1.396   6.755
 8565POPC   C3B39621  35.110   1.323   7.055
 8565POPC   C4B39622  35.187   1.322   7.355
 8566POPC   NC339623   3.563   0.436   5.555
 8566POPC   PO439624   3.567   0.437   5.855
 8566POPC   GL139625   3.575   0.443   6.155
 8566POPC   GL239626   3.577   0.553   6.155
 8566POPC   C1A39627   3.578   0.456   6.455
 8566POPC   D2A39628   3.532   0.474   6.755
 8566POPC   C3A39629   3.579   0.416   7.055
 8566POPC   C4A39630   3.591   0.434   7.355
 8566POPC   C1B39631   3.634   0.666   6.455
 8566POPC   C2B39632   3.616   0.694   6.755
 8566POPC   C3B39633   3.553   0.663   7.055
 8566POPC   C4B39634   3.639   0.697   7.355
 8567POPC   NC339635  23.764  41.605   5.555
 8567POPC   PO439636  23.685  41.561   5.855
 8567POPC   GL139637  23.721  41.553   6.155
 8567POPC   GL239638  23.602  41.644   6.155
 8567POPC   C1A39639  23.718  41.533   6.455
 8567POPC   D2A39640  23.744  41.565   6.755
 8567POPC   C3A39641  23.673  41.596   7.055
 8567POPC   C4A39642  23.682  41.523   7.355
 8567POPC   C1B39643  23.558  41.794   6.455
 8567POPC   C2B39644  23.595  41.696   6.755
 8567POPC   C3B39645  23.593  41.721   7.055
 8567POPC   C4B39646  23.529  41.794   7.355
 8568POPC   NC339647  33.830  17.491   5.555
 8568POPC   PO439648  33.763  17.462   5.855
 8568POPC   GL139649  33.765  17.509   6.155
 8568POPC   GL239650  33.713  17.574   6.155
 8568POPC   C1A39651  33.756  17.459   6.455
 8568POPC   D2A39652  33.845  17.467   6.755
 8568POPC   C3A39653  33.804  17.488   7.055
 8568POPC   C4A39654  33.751  17.543   7.355
 8568POPC   C1B39655  33.545  17.562   6.455
 8568POPC   C2B39656  33.512  17.556   6.755
 8568POPC   C3B39657  33.561  17.609   7.055
 8568POPC   C4B39658  33.539  17.542   7.355
 8569POPC   NC339659   0.468  43.089   5.555
 8569POPC   PO439660   0.420  43.081   5.855
 8569POPC   GL139661   0.450  43.115   6.155
 8569POPC   GL239662   0.566  43.092   6.155
 8569POPC   C1A39663   0.424  43.073   6.455
 8569POPC   D2A39664   0.479  43.141   6.755
 8569POPC   C3A39665   0.426  43.111   7.055
 8569POPC   C4A39666   0.488  43.119   7.355
 8569POPC   C1B39667   0.655  43.040   6.455
 8569POPC   C2B39668   0.647  43.087   6.755
 8569POPC   C3B39669   0.643  43.075   7.055
 8569POPC   C4B39670   0.670  43.031   7.355
 8570POPC   NC339671   6.604  30.649   5.555
 8570POPC   PO439672   6.597  30.671   5.855
 8570POPC   GL139673   6.632  30.696   6.155
 8570POPC   GL239674   6.498  30.694   6.155
 8570POPC   C1A39675   6.653  30.721   6.455
 8570POPC   D2A39676   6.600  30.698   6.755
 8570POPC   C3A39677   6.664  30.674   7.055
 8570POPC   C4A39678   6.642  30.722   7.355
 8570POPC   C1B39679   6.393  30.740   6.455
 8570POPC   C2B39680   6.424  30.758   6.755
 8570POPC   C3B39681   6.425  30.830   7.055
 8570POPC   C4B39682   6.388  30.795   7.355
 8571POPC   NC339683  29.966  43.115   5.555
 8571POPC   PO439684  29.943  43.139   5.855
 8571POPC   GL139685  29.968  43.092   6.155
 8571POPC   GL239686  30.027  43.037   6.155
 8571POPC   C1A39687  29.933  43.073   6.455
 8571POPC   D2A39688  29.907  43.062   6.755
 8571POPC   C3A39689  29.896  43.065   7.055
 8571POPC   C4A39690  29.946  43.154   7.355
 8571POPC   C1B39691  30.056  42.956   6.455
 8571POPC   C2B39692  30.134  42.937   6.755
 8571POPC   C3B39693  30.135  42.951   7.055
 8571POPC   C4B39694  30.074  42.968   7.355
 8572POPC   NC339695  15.968  41.544   5.555
 8572POPC   PO439696  15.923  41.588   5.855
 8572POPC   GL139697  15.979  41.553   6.155
 8572POPC   GL239698  16.023  41.457   6.155
 8572POPC   C1A39699  16.000  41.520   6.455
 8572POPC   D2A39700  15.992  41.521   6.755
 8572POPC   C3A39701  15.923  41.600   7.055
 8572POPC   C4A39702  15.922  41.581   7.355
 8572POPC   C1B39703  16.041  41.334   6.455
 8572POPC   C2B39704  16.055  41.294   6.755
 8572POPC   C3B39705  16.048  41.285   7.055
 8572POPC   C4B39706  15.969  41.358   7.355
 8573POPC   NC339707  41.608  44.699   5.555
 8573POPC   PO439708  41.606  44.638   5.855
 8573POPC   GL139709  41.529  44.661   6.155
 8573POPC   GL239710  41.436  44.640   6.155
 8573POPC   C1A39711  41.519  44.666   6.455
 8573POPC   D2A39712  41.537  44.636   6.755
 8573POPC   C3A39713  41.556  44.678   7.055
 8573POPC   C4A39714  41.574  44.703   7.355
 8573POPC   C1B39715  41.328  44.708   6.455
 8573POPC   C2B39716  41.270  44.724   6.755
 8573POPC   C3B39717  41.339  44.683   7.055
 8573POPC   C4B39718  41.314  44.693   7.355
 8574POPC   NC339719  22.142  22.892   5.555
 8574POPC   PO439720  22.138  22.953   5.855
 8574POPC   GL139721  22.126  22.913   6.155
 8574POPC   GL239722  22.156  23.075   6.155
 8574POPC   C1A39723  22.143  22.923   6.455
 8574POPC   D2A39724  22.194  22.953   6.755
 8574POPC   C3A39725  22.138  22.930   7.055
 8574POPC   C4A39726  22.200  22.940   7.355
 8574POPC   C1B39727  22.263  23.165   6.455
 8574POPC   C2B39728  22.211  23.171   6.755
 8574POPC   C3B39729  22.253  23.169   7.055
 8574POPC   C4B39730  22.220  23.144   7.355
 8575POPC   NC339731  30.672   5.852   5.555
 8575POPC   PO439732  30.710   5.907   5.855
 8575POPC   GL139733  30.744   5.893   6.155
 8575POPC   GL239734  30.730   5.953   6.155
 8575POPC   C1A39735  30.705   5.859   6.455
 8575POPC   D2A39736  30.739   5.912   6.755
 8575POPC   C3A39737  30.672   5.899   7.055
 8575POPC   C4A39738  30.668   5.819   7.355
 8575POPC   C1B39739  30.756   6.107   6.455
 8575POPC   C2B39740  30.812   6.057   6.755
 8575POPC   C3B39741  30.807   6.141   7.055
 8575POPC   C4B39742  30.736   6.116   7.355
 8576POPC   NC339743  11.314  32.289   5.555
 8576POPC   PO439744  11.320  32.220   5.855
 8576POPC   GL139745  11.272  32.243   6.155
 8576POPC   GL239746  11.449  32.225   6.155
 8576POPC   C1A39747  11.261  32.213   6.455
 8576POPC   D2A39748  11.270  32.248   6.755
 8576POPC   C3A39749  11.283  32.209   7.055
 8576POPC   C4A39750  11.254  32.214   7.355
 8576POPC   C1B39751  11.584  32.171   6.455
 8576POPC   C2B39752  11.510  32.221   6.755
 8576POPC   C3B39753  11.523  32.192   7.055
 8576POPC   C4B39754  11.505  32.180   7.355
 8577POPC   NC339755   1.184  19.060   5.555
 8577POPC   PO439756   1.248  19.065   5.855
 8577POPC   GL139757   1.238  19.048   6.155
 8577POPC   GL239758   1.265  19.176   6.155
 8577POPC   C1A39759   1.188  19.103   6.455
 8577POPC   D2A39760   1.198  19.084   6.755
 8577POPC   C3A39761   1.215  19.052   7.055
 8577POPC   C4A39762   1.173  19.024   7.355
 8577POPC   C1B39763   1.305  19.300   6.455
 8577POPC   C2B39764   1.373  19.251   6.755
 8577POPC   C3B39765   1.290  19.326   7.055
 8577POPC   C4B39766   1.326  19.233   7.355
 8578POPC   NC339767  21.430  23.753   5.555
 8578POPC   PO439768  21.356  23.674   5.855
 8578POPC   GL139769  21.340  23.704   6.155
 8578POPC   GL239770  21.469  23.802   6.155
 8578POPC   C1A39771  21.347  23.673   6.455
 8578POPC   D2A39772  21.342  23.716   6.755
 8578POPC   C3A39773  21.425  23.702   7.055
 8578POPC   C4A39774  21.378  23.668   7.355
 8578POPC   C1B39775  21.616  23.882   6.455
 8578POPC   C2B39776  21.554  23.884   6.755
 8578POPC   C3B39777  21.563  23.826   7.055
 8578POPC   C4B39778  21.584  23.898   7.355
 8579POPC   NC339779  22.967  19.050   5.555
 8579POPC   PO439780  22.931  19.089   5.855
 8579POPC   GL139781  22.969  19.047   6.155
 8579POPC   GL239782  22.841  18.932   6.155
 8579POPC   C1A39783  22.924  19.029   6.455
 8579POPC   D2A39784  22.910  19.040   6.755
 8579POPC   C3A39785  22.918  19.062   7.055
 8579POPC   C4A39786  22.897  19.106   7.355
 8579POPC   C1B39787  22.714  18.948   6.455
 8579POPC   C2B39788  22.725  18.860   6.755
 8579POPC   C3B39789  22.764  18.905   7.055
 8579POPC   C4B39790  22.697  18.920   7.355
 8580POPC   NC339791  36.938   2.810   5.555
 8580POPC   PO439792  36.920   2.796   5.855
 8580POPC   GL139793  36.918   2.810   6.155
 8580POPC   GL239794  37.031   2.760   6.155
 8580POPC   C1A39795  36.899   2.760   6.455
 8580POPC   D2A39796  36.866   2.764   6.755
 8580POPC   C3A39797  36.953   2.811   7.055
 8580POPC   C4A39798  36.935   2.810   7.355
 8580POPC   C1B39799  37.099   2.696   6.455
 8580POPC   C2B39800  37.169   2.635   6.755
 8580POPC   C3B39801  37.118   2.653   7.055
 8580POPC   C4B39802  37.165   2.637   7.355
 8581POPC   NC339803  22.891  41.515   5.555
 8581POPC   PO439804  22.922  41.581   5.855
 8581POPC   GL139805  22.923  41.539   6.155
 8581POPC   GL239806  23.022  41.432   6.155
 8581POPC   C1A39807  22.983  41.591   6.455
 8581POPC   D2A39808  22.933  41.585   6.755
 8581POPC   C3A39809  22.909  41.525   7.055
 8581POPC   C4A39810  22.927  41.569   7.355
 8581POPC   C1B39811  23.072  41.380   6.455
 8581POPC   C2B39812  23.168  41.425   6.755
 8581POPC   C3B39813  23.097  41.394   7.055
 8581POPC   C4B39814  23.102  41.410   7.355
 8582POPC   NC339815  15.923  14.436   5.555
 8582POPC   PO439816  15.975  14.426   5.855
 8582POPC   GL139817  15.997  14.404   6.155
 8582POPC   GL239818  15.875  14.301   6.155
 8582POPC   C1A39819  15.993  14.424   6.455
 8582POPC   D2A39820  15.969  14.389   6.755
 8582POPC   C3A39821  15.982  14.359   7.055
 8582POPC   C4A39822  15.936  14.360   7.355
 8582POPC   C1B39823  15.773  14.232   6.455
 8582POPC   C2B39824  15.750  14.213   6.755
 8582POPC   C3B39825  15.772  14.310   7.055
 8582POPC   C4B39826  15.753  14.297   7.355
 8583POPC   NC339827  23.679  19.804   5.555
 8583POPC   PO439828  23.756  19.844   5.855
 8583POPC   GL139829  23.672  19.826   6.155
 8583POPC   GL239830  23.763  19.721   6.155
 8583POPC   C1A39831  23.736  19.815   6.455
 8583POPC   D2A39832  23.690  19.860   6.755
 8583POPC   C3A39833  23.670  19.792   7.055
 8583POPC   C4A39834  23.727  19.855   7.355
 8583POPC   C1B39835  23.871  19.631   6.455
 8583POPC   C2B39836  23.843  19.664   6.755
 8583POPC   C3B39837  23.833  19.641   7.055
 8583POPC   C4B39838  23.861  19.652   7.355
 8584POPC   NC339839  34.537  22.986   5.555
 8584POPC   PO439840  34.614  22.949   5.855
 8584POPC   GL139841  34.534  22.902   6.155
 8584POPC   GL239842  34.512  23.003   6.155
 8584POPC   C1A39843  34.572  22.985   6.455
 8584POPC   D2A39844  34.548  22.931   6.755
 8584POPC   C3A39845  34.602  22.943   7.055
 8584POPC   C4A39846  34.611  22.934   7.355
 8584POPC   C1B39847  34.380  23.079   6.455
 8584POPC   C2B39848  34.358  23.075   6.755
 8584POPC   C3B39849  34.414  23.032   7.055
 8584POPC   C4B39850  34.368  23.123   7.355
 8585POPC   NC339851   4.349  38.503   5.555
 8585POPC   PO439852   4.291  38.501   5.855
 8585POPC   GL139853   4.268  38.503   6.155
 8585POPC   GL239854   4.284  38.589   6.155
 8585POPC   C1A39855   4.355  38.502   6.455
 8585POPC   D2A39856   4.275  38.469   6.755
 8585POPC   C3A39857   4.363  38.462   7.055
 8585POPC   C4A39858   4.337  38.477   7.355
 8585POPC   C1B39859   4.329  38.696   6.455
 8585POPC   C2B39860   4.337  38.709   6.755
 8585POPC   C3B39861   4.332  38.672   7.055
 8585POPC   C4B39862   4.353  38.669   7.355
 8586POPC   NC339863  38.422  22.918   5.555
 8586POPC   PO439864  38.466  22.943   5.855
 8586POPC   GL139865  38.491  22.957   6.155
 8586POPC   GL239866  38.329  22.998   6.155
 8586POPC   C1A39867  38.448  22.910   6.455
 8586POPC   D2A39868  38.457  22.916   6.755
 8586POPC   C3A39869  38.407  22.950   7.055
 8586POPC   C4A39870  38.427  22.968   7.355
 8586POPC   C1B39871  38.238  23.072   6.455
 8586POPC   C2B39872  38.248  23.048   6.755
 8586POPC   C3B39873  38.183  23.039   7.055
 8586POPC   C4B39874  38.267  23.074   7.355
 8587POPC   NC339875   2.736  29.119   5.555
 8587POPC   PO439876   2.811  29.133   5.855
 8587POPC   GL139877   2.762  29.103   6.155
 8587POPC   GL239878   2.841  29.201   6.155
 8587POPC   C1A39879   2.735  29.113   6.455
 8587POPC   D2A39880   2.742  29.102   6.755
 8587POPC   C3A39881   2.777  29.165   7.055
 8587POPC   C4A39882   2.813  29.168   7.355
 8587POPC   C1B39883   2.885  29.328   6.455
 8587POPC   C2B39884   2.878  29.301   6.755
 8587POPC   C3B39885   2.912  29.318   7.055
 8587POPC   C4B39886   2.894  29.305   7.355
 8588POPC   NC339887  21.425  24.537   5.555
 8588POPC   PO439888  21.386  24.507   5.855
 8588POPC   GL139889  21.343  24.471   6.155
 8588POPC   GL239890  21.331  24.567   6.155
 8588POPC   C1A39891  21.402  24.457   6.455
 8588POPC   D2A39892  21.433  24.440   6.755
 8588POPC   C3A39893  21.357  24.539   7.055
 8588POPC   C4A39894  21.425  24.524   7.355
 8588POPC   C1B39895  21.322  24.744   6.455
 8588POPC   C2B39896  21.345  24.733   6.755
 8588POPC   C3B39897  21.345  24.736   7.055
 8588POPC   C4B39898  21.269  24.752   7.355
 8589POPC   NC339899  39.184  40.787   5.555
 8589POPC   PO439900  39.253  40.818   5.855
 8589POPC   GL139901  39.226  40.814   6.155
 8589POPC   GL239902  39.299  40.891   6.155
 8589POPC   C1A39903  39.249  40.826   6.455
 8589POPC   D2A39904  39.215  40.774   6.755
 8589POPC   C3A39905  39.205  40.823   7.055
 8589POPC   C4A39906  39.242  40.744   7.355
 8589POPC   C1B39907  39.401  40.958   6.455
 8589POPC   C2B39908  39.369  40.982   6.755
 8589POPC   C3B39909  39.387  41.013   7.055
 8589POPC   C4B39910  39.336  40.965   7.355
 8590POPC   NC339911  43.076   5.058   5.555
 8590POPC   PO439912  43.074   5.086   5.855
 8590POPC   GL139913  43.064   5.094   6.155
 8590POPC   GL239914  43.125   5.005   6.155
 8590POPC   C1A39915  43.084   5.043   6.455
 8590POPC   D2A39916  43.074   5.120   6.755
 8590POPC   C3A39917  43.074   5.121   7.055
 8590POPC   C4A39918  43.073   5.092   7.355
 8590POPC   C1B39919  43.267   4.848   6.455
 8590POPC   C2B39920  43.207   4.859   6.755
 8590POPC   C3B39921  43.212   4.903   7.055
 8590POPC   C4B39922  43.185   4.907   7.355
 8591POPC   NC339923  32.261   2.798   5.555
 8591POPC   PO439924  32.262   2.727   5.855
 8591POPC   GL139925  32.201   2.792   6.155
 8591POPC   GL239926  32.271   2.654   6.155
 8591POPC   C1A39927  32.281   2.791   6.455
 8591POPC   D2A39928  32.233   2.744   6.755
 8591POPC   C3A39929  32.297   2.737   7.055
 8591POPC   C4A39930  32.271   2.778   7.355
 8591POPC   C1B39931  32.382   2.564   6.455
 8591POPC   C2B39932  32.377   2.521   6.755
 8591POPC   C3B39933  32.365   2.552   7.055
 8591POPC   C4B39934  32.405   2.531   7.355
 8592POPC   NC339935   1.178   5.846   5.555
 8592POPC   PO439936   1.213   5.838   5.855
 8592POPC   GL139937   1.186   5.838   6.155
 8592POPC   GL239938   1.326   5.838   6.155
 8592POPC   C1A39939   1.242   5.877   6.455
 8592POPC   D2A39940   1.213   5.849   6.755
 8592POPC   C3A39941   1.169   5.867   7.055
 8592POPC   C4A39942   1.235   5.882   7.355
 8592POPC   C1B39943   1.448   5.801   6.455
 8592POPC   C2B39944   1.469   5.795   6.755
 8592POPC   C3B39945   1.409   5.759   7.055
 8592POPC   C4B39946   1.471   5.717   7.355
 8593POPC   NC339947  36.863  27.613   5.555
 8593POPC   PO439948  36.939  27.545   5.855
 8593POPC   GL139949  36.931  27.546   6.155
 8593POPC   GL239950  36.754  27.643   6.155
 8593POPC   C1A39951  36.905  27.564   6.455
 8593POPC   D2A39952  36.910  27.615   6.755
 8593POPC   C3A39953  36.952  27.625   7.055
 8593POPC   C4A39954  36.892  27.605   7.355
 8593POPC   C1B39955  36.688  27.626   6.455
 8593POPC   C2B39956  36.692  27.638   6.755
 8593POPC   C3B39957  36.657  27.658   7.055
 8593POPC   C4B39958  36.661  27.622   7.355
 8594POPC   NC339959  36.101  38.489   5.555
 8594POPC   PO439960  36.119  38.473   5.855
 8594POPC   GL139961  36.087  38.417   6.155
 8594POPC   GL239962  36.224  38.522   6.155
 8594POPC   C1A39963  36.170  38.469   6.455
 8594POPC   D2A39964  36.133  38.464   6.755
 8594POPC   C3A39965  36.122  38.442   7.055
 8594POPC   C4A39966  36.092  38.477   7.355
 8594POPC   C1B39967  36.391  38.464   6.455
 8594POPC   C2B39968  36.400  38.529   6.755
 8594POPC   C3B39969  36.390  38.489   7.055
 8594POPC   C4B39970  36.406  38.472   7.355
 8595POPC   NC339971  24.484  10.506   5.555
 8595POPC   PO439972  24.449  10.530   5.855
 8595POPC   GL139973  24.492  10.508   6.155
 8595POPC   GL239974  24.553  10.423   6.155
 8595POPC   C1A39975  24.464  10.568   6.455
 8595POPC   D2A39976  24.451  10.530   6.755
 8595POPC   C3A39977  24.510  10.481   7.055
 8595POPC   C4A39978  24.458  10.497   7.355
 8595POPC   C1B39979  24.677  10.363   6.455
 8595POPC   C2B39980  24.713  10.376   6.755
 8595POPC   C3B39981  24.685  10.364   7.055
 8595POPC   C4B39982  24.672  10.326   7.355
 8596POPC   NC339983  26.814  28.352   5.555
 8596POPC   PO439984  26.855  28.333   5.855
 8596POPC   GL139985  26.830  28.377   6.155
 8596POPC   GL239986  26.893  28.452   6.155
 8596POPC   C1A39987  26.863  28.361   6.455
 8596POPC   D2A39988  26.812  28.361   6.755
 8596POPC   C3A39989  26.808  28.338   7.055
 8596POPC   C4A39990  26.849  28.394   7.355
 8596POPC   C1B39991  27.016  28.528   6.455
 8596POPC   C2B39992  26.942  28.600   6.755
 8596POPC   C3B39993  27.003  28.574   7.055
 8596POPC   C4B39994  26.934  28.568   7.355
 8597POPC   NC339995   4.359  12.820   5.555
 8597POPC   PO439996   4.279  12.849   5.855
 8597POPC   GL139997   4.324  12.844   6.155
 8597POPC   GL239998   4.449  12.892   6.155
 8597POPC   C1A39999   4.353  12.888   6.455
 8597POPC   D2A40000   4.268  12.839   6.755
 8597POPC   C3A40001   4.280  12.860   7.055
 8597POPC   C4A40002   4.302  12.865   7.355
 8597POPC   C1B40003   4.599  12.834   6.455
 8597POPC   C2B40004   4.585  12.821   6.755
 8597POPC   C3B40005   4.551  12.874   7.055
 8597POPC   C4B40006   4.616  12.794   7.355
 8598POPC   NC340007   0.451  34.558   5.555
 8598POPC   PO440008   0.412  34.588   5.855
 8598POPC   GL140009   0.432  34.562   6.155
 8598POPC   GL240010   0.344  34.485   6.155
 8598POPC   C1A40011   0.467  34.548   6.455
 8598POPC   D2A40012   0.488  34.536   6.755
 8598POPC   C3A40013   0.459  34.549   7.055
 8598POPC   C4A40014   0.417  34.579   7.355
 8598POPC   C1B40015   0.191  34.455   6.455
 8598POPC   C2B40016   0.172  34.444   6.755
 8598POPC   C3B40017   0.245  34.418   7.055
 8598POPC   C4B40018   0.217  34.495   7.355
 8599POPC   NC340019  42.309   5.858   5.555
 8599POPC   PO440020  42.333   5.849   5.855
 8599POPC   GL140021  42.320   5.829   6.155
 8599POPC   GL240022  42.197   5.994   6.155
 8599POPC   C1A40023  42.384   5.822   6.455
 8599POPC   D2A40024  42.356   5.826   6.755
 8599POPC   C3A40025  42.329   5.876   7.055
 8599POPC   C4A40026  42.360   5.828   7.355
 8599POPC   C1B40027  42.115   6.058   6.455
 8599POPC   C2B40028  42.142   6.016   6.755
 8599POPC   C3B40029  42.192   6.024   7.055
 8599POPC   C4B40030  42.141   6.046   7.355
 8600POPC   NC340031  31.456  38.416   5.555
 8600POPC   PO440032  31.434  38.441   5.855
 8600POPC   GL140033  31.426  38.487   6.155
 8600POPC   GL240034  31.371  38.360   6.155
 8600POPC   C1A40035  31.436  38.450   6.455
 8600POPC   D2A40036  31.488  38.409   6.755
 8600POPC   C3A40037  31.459  38.499   7.055
 8600POPC   C4A40038  31.519  38.450   7.355
 8600POPC   C1B40039  31.366  38.210   6.455
 8600POPC   C2B40040  31.301  38.286   6.755
 8600POPC   C3B40041  31.314  38.272   7.055
 8600POPC   C4B40042  31.353  38.226   7.355
 8601POPC   NC340043   8.148  32.205   5.555
 8601POPC   PO440044   8.161  32.249   5.855
 8601POPC   GL140045   8.153  32.275   6.155
 8601POPC   GL240046   8.242  32.303   6.155
 8601POPC   C1A40047   8.182  32.214   6.455
 8601POPC   D2A40048   8.204  32.265   6.755
 8601POPC   C3A40049   8.161  32.238   7.055
 8601POPC   C4A40050   8.237  32.253   7.355
 8601POPC   C1B40051   8.306  32.417   6.455
 8601POPC   C2B40052   8.338  32.415   6.755
 8601POPC   C3B40053   8.372  32.471   7.055
 8601POPC   C4B40054   8.357  32.417   7.355
 8602POPC   NC340055  39.208  12.898   5.555
 8602POPC   PO440056  39.197  12.882   5.855
 8602POPC   GL140057  39.248  12.828   6.155
 8602POPC   GL240058  39.307  12.792   6.155
 8602POPC   C1A40059  39.252  12.861   6.455
 8602POPC   D2A40060  39.242  12.828   6.755
 8602POPC   C3A40061  39.201  12.852   7.055
 8602POPC   C4A40062  39.242  12.812   7.355
 8602POPC   C1B40063  39.515  12.775   6.455
 8602POPC   C2B40064  39.489  12.832   6.755
 8602POPC   C3B40065  39.434  12.820   7.055
 8602POPC   C4B40066  39.485  12.810   7.355
 8603POPC   NC340067  39.265  32.264   5.555
 8603POPC   PO440068  39.185  32.297   5.855
 8603POPC   GL140069  39.250  32.282   6.155
 8603POPC   GL240070  39.211  32.372   6.155
 8603POPC   C1A40071  39.210  32.230   6.455
 8603POPC   D2A40072  39.236  32.264   6.755
 8603POPC   C3A40073  39.242  32.201   7.055
 8603POPC   C4A40074  39.243  32.293   7.355
 8603POPC   C1B40075  39.130  32.457   6.455
 8603POPC   C2B40076  39.142  32.483   6.755
 8603POPC   C3B40077  39.131  32.533   7.055
 8603POPC   C4B40078  39.162  32.484   7.355
 8604POPC   NC340079   4.364  26.044   5.555
 8604POPC   PO440080   4.324  26.027   5.855
 8604POPC   GL140081   4.293  26.074   6.155
 8604POPC   GL240082   4.184  26.067   6.155
 8604POPC   C1A40083   4.295  26.084   6.455
 8604POPC   D2A40084   4.275  26.031   6.755
 8604POPC   C3A40085   4.358  26.070   7.055
 8604POPC   C4A40086   4.312  26.017   7.355
 8604POPC   C1B40087   4.064  26.010   6.455
 8604POPC   C2B40088   4.039  25.954   6.755
 8604POPC   C3B40089   4.111  25.982   7.055
 8604POPC   C4B40090   4.077  26.010   7.355
 8605POPC   NC340091  40.821  20.645   5.555
 8605POPC   PO440092  40.831  20.587   5.855
 8605POPC   GL140093  40.747  20.629   6.155
 8605POPC   GL240094  40.932  20.539   6.155
 8605POPC   C1A40095  40.744  20.563   6.455
 8605POPC   D2A40096  40.766  20.624   6.755
 8605POPC   C3A40097  40.805  20.591   7.055
 8605POPC   C4A40098  40.780  20.645   7.355
 8605POPC   C1B40099  41.016  20.479   6.455
 8605POPC   C2B40100  41.042  20.499   6.755
 8605POPC   C3B40101  40.975  20.516   7.055
 8605POPC   C4B40102  41.014  20.446   7.355
 8606POPC   NC340103   7.458  43.877   5.555
 8606POPC   PO440104   7.408  43.868   5.855
 8606POPC   GL140105   7.429  43.919   6.155
 8606POPC   GL240106   7.346  43.733   6.155
 8606POPC   C1A40107   7.389  43.893   6.455
 8606POPC   D2A40108   7.456  43.913   6.755
 8606POPC   C3A40109   7.435  43.878   7.055
 8606POPC   C4A40110   7.416  43.842   7.355
 8606POPC   C1B40111   7.299  43.623   6.455
 8606POPC   C2B40112   7.310  43.681   6.755
 8606POPC   C3B40113   7.379  43.691   7.055
 8606POPC   C4B40114   7.313  43.668   7.355
 8607POPC   NC340115  36.130  15.204   5.555
 8607POPC   PO440116  36.145  15.134   5.855
 8607POPC   GL140117  36.102  15.156   6.155
 8607POPC   GL240118  36.121  15.087   6.155
 8607POPC   C1A40119  36.127  15.182   6.455
 8607POPC   D2A40120  36.148  15.142   6.755
 8607POPC   C3A40121  36.175  15.177   7.055
 8607POPC   C4A40122  36.086  15.216   7.355
 8607POPC   C1B40123  36.076  14.930   6.455
 8607POPC   C2B40124  36.005  14.987   6.755
 8607POPC   C3B40125  36.031  14.897   7.055
 8607POPC   C4B40126  36.028  14.940   7.355
 8608POPC   NC340127   4.310  39.977   5.555
 8608POPC   PO440128   4.326  39.982   5.855
 8608POPC   GL140129   4.322  40.012   6.155
 8608POPC   GL240130   4.480  40.093   6.155
 8608POPC   C1A40131   4.332  40.026   6.455
 8608POPC   D2A40132   4.355  40.000   6.755
 8608POPC   C3A40133   4.273  39.969   7.055
 8608POPC   C4A40134   4.271  39.964   7.355
 8608POPC   C1B40135   4.558  40.097   6.455
 8608POPC   C2B40136   4.540  40.063   6.755
 8608POPC   C3B40137   4.506  40.057   7.055
 8608POPC   C4B40138   4.588  40.130   7.355
 8609POPC   NC340139  39.186   0.472   5.555
 8609POPC   PO440140  39.193   0.420   5.855
 8609POPC   GL140141  39.253   0.477   6.155
 8609POPC   GL240142  39.164   0.518   6.155
 8609POPC   C1A40143  39.192   0.404   6.455
 8609POPC   D2A40144  39.276   0.409   6.755
 8609POPC   C3A40145  39.255   0.442   7.055
 8609POPC   C4A40146  39.197   0.433   7.355
 8609POPC   C1B40147  39.039   0.648   6.455
 8609POPC   C2B40148  39.092   0.586   6.755
 8609POPC   C3B40149  39.075   0.656   7.055
 8609POPC   C4B40150  39.077   0.615   7.355
 8610POPC   NC340151  44.666  43.116   5.555
 8610POPC   PO440152  44.658  43.098   5.855
 8610POPC   GL140153  44.623  43.146   6.155
 8610POPC   GL240154  44.560  43.217   6.155
 8610POPC   C1A40155  44.654  43.064   6.455
 8610POPC   D2A40156  44.621  43.127   6.755
 8610POPC   C3A40157  44.668  43.136   7.055
 8610POPC   C4A40158  44.618  43.104   7.355
 8610POPC   C1B40159  44.445  43.230   6.455
 8610POPC   C2B40160  44.455  43.263   6.755
 8610POPC   C3B40161  44.439  43.275   7.055
 8610POPC   C4B40162  44.468  43.235   7.355
 8611POPC   NC340163   4.336   1.958   5.555
 8611POPC   PO440164   4.303   1.981   5.855
 8611POPC   GL140165   4.367   2.004   6.155
 8611POPC   GL240166   4.220   2.022   6.155
 8611POPC   C1A40167   4.348   2.008   6.455
 8611POPC   D2A40168   4.269   2.025   6.755
 8611POPC   C3A40169   4.339   2.013   7.055
 8611POPC   C4A40170   4.276   2.009   7.355
 8611POPC   C1B40171   4.038   2.002   6.455
 8611POPC   C2B40172   4.081   2.028   6.755
 8611POPC   C3B40173   4.102   1.971   7.055
 8611POPC   C4B40174   4.076   2.000   7.355
 8612POPC   NC340175  36.946  36.907   5.555
 8612POPC   PO440176  36.900  36.860   5.855
 8612POPC   GL140177  36.895  36.914   6.155
 8612POPC   GL240178  36.958  36.836   6.155
 8612POPC   C1A40179  36.892  36.862   6.455
 8612POPC   D2A40180  36.887  36.884   6.755
 8612POPC   C3A40181  36.872  36.872   7.055
 8612POPC   C4A40182  36.934  36.932   7.355
 8612POPC   C1B40183  37.001  36.638   6.455
 8612POPC   C2B40184  37.045  36.668   6.755
 8612POPC   C3B40185  36.968  36.721   7.055
 8612POPC   C4B40186  37.014  36.671   7.355
 8613POPC   NC340187  15.177  40.046   5.555
 8613POPC   PO440188  15.216  40.053   5.855
 8613POPC   GL140189  15.140  40.031   6.155
 8613POPC   GL240190  15.082  40.007   6.155
 8613POPC   C1A40191  15.152  40.016   6.455
 8613POPC   D2A40192  15.194  40.021   6.755
 8613POPC   C3A40193  15.220  40.022   7.055
 8613POPC   C4A40194  15.151  40.031   7.355
 8613POPC   C1B40195  14.943  39.894   6.455
 8613POPC   C2B40196  14.934  39.937   6.755
 8613POPC   C3B40197  14.991  39.966   7.055
 8613POPC   C4B40198  14.921  39.906   7.355
 8614POPC   NC340199  41.580  43.877   5.555
 8614POPC   PO440200  41.579  43.866   5.855
 8614POPC   GL140201  41.590  43.836   6.155
 8614POPC   GL240202  41.730  43.891   6.155
 8614POPC   C1A40203  41.560  43.855   6.455
 8614POPC   D2A40204  41.526  43.930   6.755
 8614POPC   C3A40205  41.566  43.932   7.055
 8614POPC   C4A40206  41.580  43.920   7.355
 8614POPC   C1B40207  41.829  43.906   6.455
 8614POPC   C2B40208  41.780  43.978   6.755
 8614POPC   C3B40209  41.783  43.894   7.055
 8614POPC   C4B40210  41.770  43.920   7.355
 8615POPC   NC340211  24.450   5.873   5.555
 8615POPC   PO440212  24.466   5.864   5.855
 8615POPC   GL140213  24.524   5.858   6.155
 8615POPC   GL240214  24.618   5.965   6.155
 8615POPC   C1A40215  24.526   5.829   6.455
 8615POPC   D2A40216  24.481   5.847   6.755
 8615POPC   C3A40217  24.474   5.907   7.055
 8615POPC   C4A40218  24.528   5.864   7.355
 8615POPC   C1B40219  24.672   5.965   6.455
 8615POPC   C2B40220  24.740   5.967   6.755
 8615POPC   C3B40221  24.730   6.005   7.055
 8615POPC   C4B40222  24.714   5.951   7.355
 8616POPC   NC340223  33.790  14.418   5.555
 8616POPC   PO440224  33.760  14.391   5.855
 8616POPC   GL140225  33.832  14.355   6.155
 8616POPC   GL240226  33.824  14.571   6.155
 8616POPC   C1A40227  33.791  14.398   6.455
 8616POPC   D2A40228  33.808  14.434   6.755
 8616POPC   C3A40229  33.841  14.400   7.055
 8616POPC   C4A40230  33.760  14.400   7.355
 8616POPC   C1B40231  33.836  14.624   6.455
 8616POPC   C2B40232  33.877  14.689   6.755
 8616POPC   C3B40233  33.778  14.641   7.055
 8616POPC   C4B40234  33.797  14.660   7.355
 8617POPC   NC340235   3.586  39.264   5.555
 8617POPC   PO440236   3.541  39.187   5.855
 8617POPC   GL140237   3.492  39.198   6.155
 8617POPC   GL240238   3.531  39.308   6.155
 8617POPC   C1A40239   3.494  39.236   6.455
 8617POPC   D2A40240   3.512  39.237   6.755
 8617POPC   C3A40241   3.495  39.195   7.055
 8617POPC   C4A40242   3.576  39.254   7.355
 8617POPC   C1B40243   3.597  39.488   6.455
 8617POPC   C2B40244   3.643  39.453   6.755
 8617POPC   C3B40245   3.585  39.500   7.055
 8617POPC   C4B40246   3.634  39.497   7.355
 8618POPC   NC340247   8.149  11.280   5.555
 8618POPC   PO440248   8.188  11.255   5.855
 8618POPC   GL140249   8.152  11.327   6.155
 8618POPC   GL240250   8.176  11.406   6.155
 8618POPC   C1A40251   8.232  11.287   6.455
 8618POPC   D2A40252   8.208  11.327   6.755
 8618POPC   C3A40253   8.194  11.277   7.055
 8618POPC   C4A40254   8.217  11.290   7.355
 8618POPC   C1B40255   8.197  11.550   6.455
 8618POPC   C2B40256   8.121  11.570   6.755
 8618POPC   C3B40257   8.113  11.585   7.055
 8618POPC   C4B40258   8.127  11.550   7.355
 8619POPC   NC340259  34.570  36.939   5.555
 8619POPC   PO440260  34.597  36.890   5.855
 8619POPC   GL140261  34.615  36.914   6.155
 8619POPC   GL240262  34.548  36.821   6.155
 8619POPC   C1A40263  34.551  36.894   6.455
 8619POPC   D2A40264  34.597  36.927   6.755
 8619POPC   C3A40265  34.542  36.907   7.055
 8619POPC   C4A40266  34.617  36.886   7.355
 8619POPC   C1B40267  34.625  36.657   6.455
 8619POPC   C2B40268  34.601  36.672   6.755
 8619POPC   C3B40269  34.574  36.659   7.055
 8619POPC   C4B40270  34.643  36.611   7.355
 8620POPC   NC340271  29.124  36.155   5.555
 8620POPC   PO440272  29.176  36.138   5.855
 8620POPC   GL140273  29.146  36.159   6.155
 8620POPC   GL240274  29.003  36.204   6.155
 8620POPC   C1A40275  29.119  36.129   6.455
 8620POPC   D2A40276  29.141  36.096   6.755
 8620POPC   C3A40277  29.181  36.159   7.055
 8620POPC   C4A40278  29.187  36.093   7.355
 8620POPC   C1B40279  28.958  36.198   6.455
 8620POPC   C2B40280  28.947  36.181   6.755
 8620POPC   C3B40281  28.936  36.262   7.055
 8620POPC   C4B40282  28.929  36.199   7.355
 8621POPC   NC340283   4.343  12.084   5.555
 8621POPC   PO440284   4.344  12.104   5.855
 8621POPC   GL140285   4.325  12.118   6.155
 8621POPC   GL240286   4.423  12.171   6.155
 8621POPC   C1A40287   4.281  12.068   6.455
 8621POPC   D2A40288   4.323  12.032   6.755
 8621POPC   C3A40289   4.271  12.060   7.055
 8621POPC   C4A40290   4.318  12.063   7.355
 8621POPC   C1B40291   4.476  12.251   6.455
 8621POPC   C2B40292   4.533  12.244   6.755
 8621POPC   C3B40293   4.468  12.197   7.055
 8621POPC   C4B40294   4.555  12.195   7.355
 8622POPC   NC340295  23.688  16.695   5.555
 8622POPC   PO440296  23.755  16.691   5.855
 8622POPC   GL140297  23.757  16.752   6.155
 8622POPC   GL240298  23.563  16.735   6.155
 8622POPC   C1A40299  23.678  16.728   6.455
 8622POPC   D2A40300  23.761  16.708   6.755
 8622POPC   C3A40301  23.716  16.718   7.055
 8622POPC   C4A40302  23.732  16.695   7.355
 8622POPC   C1B40303  23.431  16.655   6.455
 8622POPC   C2B40304  23.483  16.673   6.755
 8622POPC   C3B40305  23.489  16.636   7.055
 8622POPC   C4B40306  23.501  16.599   7.355
 8623POPC   NC340307  33.016  41.541   5.555
 8623POPC   PO440308  33.021  41.544   5.855
 8623POPC   GL140309  33.003  41.520   6.155
 8623POPC   GL240310  32.885  41.663   6.155
 8623POPC   C1A40311  33.021  41.524   6.455
 8623POPC   D2A40312  33.054  41.513   6.755
 8623POPC   C3A40313  33.064  41.547   7.055
 8623POPC   C4A40314  32.981  41.564   7.355
 8623POPC   C1B40315  32.768  41.730   6.455
 8623POPC   C2B40316  32.831  41.672   6.755
 8623POPC   C3B40317  32.761  41.705   7.055
 8623POPC   C4B40318  32.806  41.712   7.355
 8624POPC   NC340319  35.353  32.233   5.555
 8624POPC   PO440320  35.323  32.289   5.855
 8624POPC   GL140321  35.391  32.206   6.155
 8624POPC   GL240322  35.388  32.338   6.155
 8624POPC   C1A40323  35.397  32.257   6.455
 8624POPC   D2A40324  35.303  32.272   6.755
 8624POPC   C3A40325  35.350  32.224   7.055
 8624POPC   C4A40326  35.310  32.269   7.355
 8624POPC   C1B40327  35.387  32.536   6.455
 8624POPC   C2B40328  35.350  32.536   6.755
 8624POPC   C3B40329  35.341  32.491   7.055
 8624POPC   C4B40330  35.306  32.539   7.355
 8625POPC   NC340331  30.668  35.344   5.555
 8625POPC   PO440332  30.650  35.376   5.855
 8625POPC   GL140333  30.728  35.394   6.155
 8625POPC   GL240334  30.754  35.258   6.155
 8625POPC   C1A40335  30.716  35.348   6.455
 8625POPC   D2A40336  30.653  35.371   6.755
 8625POPC   C3A40337  30.724  35.360   7.055
 8625POPC   C4A40338  30.736  35.359   7.355
 8625POPC   C1B40339  30.851  35.098   6.455
 8625POPC   C2B40340  30.827  35.169   6.755
 8625POPC   C3B40341  30.773  35.136   7.055
 8625POPC   C4B40342  30.836  35.145   7.355
 8626POPC   NC340343   6.675  11.254   5.555
 8626POPC   PO440344   6.686  11.254   5.855
 8626POPC   GL140345   6.682  11.250   6.155
 8626POPC   GL240346   6.755  11.211   6.155
 8626POPC   C1A40347   6.595  11.345   6.455
 8626POPC   D2A40348   6.633  11.329   6.755
 8626POPC   C3A40349   6.679  11.309   7.055
 8626POPC   C4A40350   6.630  11.302   7.355
 8626POPC   C1B40351   6.830  11.158   6.455
 8626POPC   C2B40352   6.873  11.113   6.755
 8626POPC   C3B40353   6.784  11.180   7.055
 8626POPC   C4B40354   6.796  11.120   7.355
 8627POPC   NC340355  23.710  31.478   5.555
 8627POPC   PO440356  23.754  31.427   5.855
 8627POPC   GL140357  23.751  31.518   6.155
 8627POPC   GL240358  23.655  31.405   6.155
 8627POPC   C1A40359  23.755  31.516   6.455
 8627POPC   D2A40360  23.674  31.456   6.755
 8627POPC   C3A40361  23.727  31.442   7.055
 8627POPC   C4A40362  23.741  31.452   7.355
 8627POPC   C1B40363  23.530  31.266   6.455
 8627POPC   C2B40364  23.565  31.257   6.755
 8627POPC   C3B40365  23.595  31.262   7.055
 8627POPC   C4B40366  23.591  31.232   7.355
 8628POPC   NC340367  15.160  12.079   5.555
 8628POPC   PO440368  15.166  12.095   5.855
 8628POPC   GL140369  15.223  12.120   6.155
 8628POPC   GL240370  15.071  12.007   6.155
 8628POPC   C1A40371  15.190  12.120   6.455
 8628POPC   D2A40372  15.194  12.050   6.755
 8628POPC   C3A40373  15.172  12.092   7.055
 8628POPC   C4A40374  15.205  12.060   7.355
 8628POPC   C1B40375  14.889  12.011   6.455
 8628POPC   C2B40376  14.955  12.034   6.755
 8628POPC   C3B40377  14.941  12.052   7.055
 8628POPC   C4B40378  14.925  12.037   7.355
 8629POPC   NC340379  12.885  25.253   5.555
 8629POPC   PO440380  12.847  25.300   5.855
 8629POPC   GL140381  12.872  25.288   6.155
 8629POPC   GL240382  12.979  25.217   6.155
 8629POPC   C1A40383  12.828  25.284   6.455
 8629POPC   D2A40384  12.856  25.272   6.755
 8629POPC   C3A40385  12.846  25.225   7.055
 8629POPC   C4A40386  12.809  25.290   7.355
 8629POPC   C1B40387  13.094  25.121   6.455
 8629POPC   C2B40388  13.056  25.073   6.755
 8629POPC   C3B40389  13.042  25.171   7.055
 8629POPC   C4B40390  13.046  25.135   7.355
 8630POPC   NC340391  41.556   1.253   5.555
 8630POPC   PO440392  41.549   1.254   5.855
 8630POPC   GL140393  41.566   1.241   6.155
 8630POPC   GL240394  41.686   1.207   6.155
 8630POPC   C1A40395  41.559   1.249   6.455
 8630POPC   D2A40396  41.511   1.252   6.755
 8630POPC   C3A40397  41.602   1.181   7.055
 8630POPC   C4A40398  41.516   1.228   7.355
 8630POPC   C1B40399  41.756   1.197   6.455
 8630POPC   C2B40400  41.800   1.120   6.755
 8630POPC   C3B40401  41.825   1.116   7.055
 8630POPC   C4B40402  41.757   1.134   7.355
 8631POPC   NC340403  11.303  26.082   5.555
 8631POPC   PO440404  11.335  26.026   5.855
 8631POPC   GL140405  11.256  26.021   6.155
 8631POPC   GL240406  11.428  26.143   6.155
 8631POPC   C1A40407  11.346  26.021   6.455
 8631POPC   D2A40408  11.290  26.077   6.755
 8631POPC   C3A40409  11.319  26.001   7.055
 8631POPC   C4A40410  11.274  25.996   7.355
 8631POPC   C1B40411  11.471  26.272   6.455
 8631POPC   C2B40412  11.501  26.276   6.755
 8631POPC   C3B40413  11.454  26.229   7.055
 8631POPC   C4B40414  11.419  26.273   7.355
 8632POPC   NC340415   1.251  13.588   5.555
 8632POPC   PO440416   1.217  13.648   5.855
 8632POPC   GL140417   1.247  13.601   6.155
 8632POPC   GL240418   1.135  13.575   6.155
 8632POPC   C1A40419   1.233  13.632   6.455
 8632POPC   D2A40420   1.206  13.626   6.755
 8632POPC   C3A40421   1.195  13.584   7.055
 8632POPC   C4A40422   1.263  13.606   7.355
 8632POPC   C1B40423   1.010  13.625   6.455
 8632POPC   C2B40424   0.970  13.568   6.755
 8632POPC   C3B40425   0.967  13.627   7.055
 8632POPC   C4B40426   0.936  13.596   7.355
 8633POPC   NC340427  26.057  39.233   5.555
 8633POPC   PO440428  26.017  39.254   5.855
 8633POPC   GL140429  26.064  39.239   6.155
 8633POPC   GL240430  26.076  39.310   6.155
 8633POPC   C1A40431  26.082  39.187   6.455
 8633POPC   D2A40432  26.091  39.224   6.755
 8633POPC   C3A40433  26.071  39.210   7.055
 8633POPC   C4A40434  26.079  39.268   7.355
 8633POPC   C1B40435  26.213  39.472   6.455
 8633POPC   C2B40436  26.215  39.461   6.755
 8633POPC   C3B40437  26.176  39.404   7.055
 8633POPC   C4B40438  26.233  39.467   7.355
 8634POPC   NC340439  40.024  10.574   5.555
 8634POPC   PO440440  40.046  10.526   5.855
 8634POPC   GL140441  39.988  10.533   6.155
 8634POPC   GL240442  39.933  10.616   6.155
 8634POPC   C1A40443  40.032  10.553   6.455
 8634POPC   D2A40444  40.005  10.524   6.755
 8634POPC   C3A40445  39.985  10.522   7.055
 8634POPC   C4A40446  40.020  10.567   7.355
 8634POPC   C1B40447  39.883  10.757   6.455
 8634POPC   C2B40448  39.933  10.785   6.755
 8634POPC   C3B40449  39.871  10.718   7.055
 8634POPC   C4B40450  39.947  10.733   7.355
 8635POPC   NC340451  13.659   1.213   5.555
 8635POPC   PO440452  13.630   1.193   5.855
 8635POPC   GL140453  13.600   1.198   6.155
 8635POPC   GL240454  13.690   1.134   6.155
 8635POPC   C1A40455  13.584   1.170   6.455
 8635POPC   D2A40456  13.640   1.218   6.755
 8635POPC   C3A40457  13.611   1.178   7.055
 8635POPC   C4A40458  13.611   1.254   7.355
 8635POPC   C1B40459  13.766   1.039   6.455
 8635POPC   C2B40460  13.702   1.030   6.755
 8635POPC   C3B40461  13.708   0.982   7.055
 8635POPC   C4B40462  13.722   1.009   7.355
 8636POPC   NC340463  20.659  33.831   5.555
 8636POPC   PO440464  20.562  33.822   5.855
 8636POPC   GL140465  20.580  33.808   6.155
 8636POPC   GL240466  20.684  33.646   6.155
 8636POPC   C1A40467  20.656  33.755   6.455
 8636POPC   D2A40468  20.638  33.772   6.755
 8636POPC   C3A40469  20.641  33.842   7.055
 8636POPC   C4A40470  20.607  33.786   7.355
 8636POPC   C1B40471  20.638  33.532   6.455
 8636POPC   C2B40472  20.696  33.567   6.755
 8636POPC   C3B40473  20.681  33.578   7.055
 8636POPC   C4B40474  20.624  33.508   7.355
 8637POPC   NC340475  33.797  20.629   5.555
 8637POPC   PO440476  33.755  20.610   5.855
 8637POPC   GL140477  33.824  20.623   6.155
 8637POPC   GL240478  33.905  20.710   6.155
 8637POPC   C1A40479  33.781  20.604   6.455
 8637POPC   D2A40480  33.848  20.657   6.755
 8637POPC   C3A40481  33.820  20.610   7.055
 8637POPC   C4A40482  33.798  20.635   7.355
 8637POPC   C1B40483  33.996  20.832   6.455
 8637POPC   C2B40484  33.954  20.760   6.755
 8637POPC   C3B40485  34.004  20.826   7.055
 8637POPC   C4B40486  33.963  20.828   7.355
 8638POPC   NC340487  22.143   2.014   5.555
 8638POPC   PO440488  22.121   2.033   5.855
 8638POPC   GL140489  22.195   2.000   6.155
 8638POPC   GL240490  22.104   2.043   6.155
 8638POPC   C1A40491  22.206   2.032   6.455
 8638POPC   D2A40492  22.194   2.019   6.755
 8638POPC   C3A40493  22.145   2.011   7.055
 8638POPC   C4A40494  22.208   2.036   7.355
 8638POPC   C1B40495  21.986   2.176   6.455
 8638POPC   C2B40496  21.979   2.212   6.755
 8638POPC   C3B40497  21.963   2.174   7.055
 8638POPC   C4B40498  21.994   2.125   7.355
 8639POPC   NC340499   1.236  22.890   5.555
 8639POPC   PO440500   1.195  22.923   5.855
 8639POPC   GL140501   1.254  22.941   6.155
 8639POPC   GL240502   1.189  22.855   6.155
 8639POPC   C1A40503   1.253  22.922   6.455
 8639POPC   D2A40504   1.243  22.889   6.755
 8639POPC   C3A40505   1.247  22.921   7.055
 8639POPC   C4A40506   1.242  22.903   7.355
 8639POPC   C1B40507   1.168  22.708   6.455
 8639POPC   C2B40508   1.226  22.724   6.755
 8639POPC   C3B40509   1.159  22.718   7.055
 8639POPC   C4B40510   1.192  22.640   7.355
 8640POPC   NC340511  16.757  15.996   5.555
 8640POPC   PO440512  16.780  15.990   5.855
 8640POPC   GL140513  16.746  15.913   6.155
 8640POPC   GL240514  16.683  15.802   6.155
 8640POPC   C1A40515  16.753  15.947   6.455
 8640POPC   D2A40516  16.767  15.920   6.755
 8640POPC   C3A40517  16.765  15.988   7.055
 8640POPC   C4A40518  16.748  15.977   7.355
 8640POPC   C1B40519  16.636  15.731   6.455
 8640POPC   C2B40520  16.640  15.772   6.755
 8640POPC   C3B40521  16.652  15.680   7.055
 8640POPC   C4B40522  16.600  15.761   7.355
 8641POPC   NC340523  36.880  12.026   5.555
 8641POPC   PO440524  36.893  12.090   5.855
 8641POPC   GL140525  36.881  12.029   6.155
 8641POPC   GL240526  36.935  12.206   6.155
 8641POPC   C1A40527  36.910  12.075   6.455
 8641POPC   D2A40528  36.854  12.036   6.755
 8641POPC   C3A40529  36.874  12.094   7.055
 8641POPC   C4A40530  36.916  12.120   7.355
 8641POPC   C1B40531  37.024  12.274   6.455
 8641POPC   C2B40532  37.001  12.315   6.755
 8641POPC   C3B40533  36.990  12.298   7.055
 8641POPC   C4B40534  37.060  12.251   7.355
 8642POPC   NC340535  14.370  10.524   5.555
 8642POPC   PO440536  14.406  10.513   5.855
 8642POPC   GL140537  14.390  10.477   6.155
 8642POPC   GL240538  14.310  10.645   6.155
 8642POPC   C1A40539  14.442  10.539   6.455
 8642POPC   D2A40540  14.430  10.561   6.755
 8642POPC   C3A40541  14.449  10.571   7.055
 8642POPC   C4A40542  14.387  10.477   7.355
 8642POPC   C1B40543  14.272  10.707   6.455
 8642POPC   C2B40544  14.196  10.655   6.755
 8642POPC   C3B40545  14.241  10.736   7.055
 8642POPC   C4B40546  14.204  10.706   7.355
 8643POPC   NC340547   1.165  18.305   5.555
 8643POPC   PO440548   1.178  18.239   5.855
 8643POPC   GL140549   1.253  18.235   6.155
 8643POPC   GL240550   1.152  18.180   6.155
 8643POPC   C1A40551   1.169  18.326   6.455
 8643POPC   D2A40552   1.193  18.329   6.755
 8643POPC   C3A40553   1.263  18.305   7.055
 8643POPC   C4A40554   1.236  18.288   7.355
 8643POPC   C1B40555   1.000  18.156   6.455
 8643POPC   C2B40556   1.012  18.158   6.755
 8643POPC   C3B40557   1.011  18.196   7.055
 8643POPC   C4B40558   1.000  18.159   7.355
 8644POPC   NC340559   6.633  43.126   5.555
 8644POPC   PO440560   6.623  43.156   5.855
 8644POPC   GL140561   6.601  43.114   6.155
 8644POPC   GL240562   6.631  42.955   6.155
 8644POPC   C1A40563   6.595  43.101   6.455
 8644POPC   D2A40564   6.677  43.061   6.755
 8644POPC   C3A40565   6.677  43.131   7.055
 8644POPC   C4A40566   6.624  43.089   7.355
 8644POPC   C1B40567   6.663  42.862   6.455
 8644POPC   C2B40568   6.673  42.875   6.755
 8644POPC   C3B40569   6.651  42.845   7.055
 8644POPC   C4B40570   6.656  42.835   7.355
 8645POPC   NC340571  31.468  32.209   5.555
 8645POPC   PO440572  31.471  32.200   5.855
 8645POPC   GL140573  31.452  32.286   6.155
 8645POPC   GL240574  31.410  32.107   6.155
 8645POPC   C1A40575  31.467  32.219   6.455
 8645POPC   D2A40576  31.444  32.258   6.755
 8645POPC   C3A40577  31.516  32.243   7.055
 8645POPC   C4A40578  31.428  32.278   7.355
 8645POPC   C1B40579  31.364  32.060   6.455
 8645POPC   C2B40580  31.320  32.047   6.755
 8645POPC   C3B40581  31.354  32.057   7.055
 8645POPC   C4B40582  31.280  32.024   7.355
 8646POPC   NC340583   2.799  38.431   5.555
 8646POPC   PO440584   2.811  38.452   5.855
 8646POPC   GL140585   2.772  38.451   6.155
 8646POPC   GL240586   2.742  38.283   6.155
 8646POPC   C1A40587   2.730  38.422   6.455
 8646POPC   D2A40588   2.733  38.482   6.755
 8646POPC   C3A40589   2.805  38.445   7.055
 8646POPC   C4A40590   2.764  38.463   7.355
 8646POPC   C1B40591   2.814  38.244   6.455
 8646POPC   C2B40592   2.813  38.210   6.755
 8646POPC   C3B40593   2.807  38.241   7.055
 8646POPC   C4B40594   2.860  38.178   7.355
 8647POPC   NC340595   8.174  33.761   5.555
 8647POPC   PO440596   8.209  33.783   5.855
 8647POPC   GL140597   8.244  33.803   6.155
 8647POPC   GL240598   8.117  33.901   6.155
 8647POPC   C1A40599   8.169  33.809   6.455
 8647POPC   D2A40600   8.180  33.764   6.755
 8647POPC   C3A40601   8.230  33.808   7.055
 8647POPC   C4A40602   8.227  33.814   7.355
 8647POPC   C1B40603   8.046  33.925   6.455
 8647POPC   C2B40604   8.026  33.983   6.755
 8647POPC   C3B40605   8.049  33.971   7.055
 8647POPC   C4B40606   7.974  33.965   7.355
 8648POPC   NC340607  19.042  42.314   5.555
 8648POPC   PO440608  19.029  42.354   5.855
 8648POPC   GL140609  19.088  42.291   6.155
 8648POPC   GL240610  19.009  42.179   6.155
 8648POPC   C1A40611  19.089  42.333   6.455
 8648POPC   D2A40612  19.071  42.302   6.755
 8648POPC   C3A40613  19.042  42.326   7.055
 8648POPC   C4A40614  19.046  42.294   7.355
 8648POPC   C1B40615  18.998  42.121   6.455
 8648POPC   C2B40616  19.006  42.115   6.755
 8648POPC   C3B40617  18.998  42.097   7.055
 8648POPC   C4B40618  19.033  42.105   7.355
 8649POPC   NC340619  28.362   8.947   5.555
 8649POPC   PO440620  28.328   8.930   5.855
 8649POPC   GL140621  28.344   8.955   6.155
 8649POPC   GL240622  28.386   8.892   6.155
 8649POPC   C1A40623  28.378   9.004   6.455
 8649POPC   D2A40624  28.341   8.978   6.755
 8649POPC   C3A40625  28.332   8.958   7.055
 8649POPC   C4A40626  28.403   8.930   7.355
 8649POPC   C1B40627  28.415   8.739   6.455
 8649POPC   C2B40628  28.385   8.743   6.755
 8649POPC   C3B40629  28.427   8.767   7.055
 8649POPC   C4B40630  28.402   8.753   7.355
 8650POPC   NC340631  14.400  14.437   5.555
 8650POPC   PO440632  14.371  14.437   5.855
 8650POPC   GL140633  14.408  14.366   6.155
 8650POPC   GL240634  14.468  14.504   6.155
 8650POPC   C1A40635  14.392  14.383   6.455
 8650POPC   D2A40636  14.430  14.417   6.755
 8650POPC   C3A40637  14.372  14.387   7.055
 8650POPC   C4A40638  14.354  14.443   7.355
 8650POPC   C1B40639  14.585  14.616   6.455
 8650POPC   C2B40640  14.527  14.615   6.755
 8650POPC   C3B40641  14.524  14.604   7.055
 8650POPC   C4B40642  14.538  14.644   7.355
 8651POPC   NC340643  43.905  12.832   5.555
 8651POPC   PO440644  43.915  12.803   5.855
 8651POPC   GL140645  43.928  12.875   6.155
 8651POPC   GL240646  43.723  12.836   6.155
 8651POPC   C1A40647  43.916  12.880   6.455
 8651POPC   D2A40648  43.924  12.808   6.755
 8651POPC   C3A40649  43.902  12.847   7.055
 8651POPC   C4A40650  43.873  12.849   7.355
 8651POPC   C1B40651  43.653  12.812   6.455
 8651POPC   C2B40652  43.680  12.803   6.755
 8651POPC   C3B40653  43.626  12.847   7.055
 8651POPC   C4B40654  43.658  12.860   7.355
 8652POPC   NC340655  19.013   5.854   5.555
 8652POPC   PO440656  19.064   5.835   5.855
 8652POPC   GL140657  19.064   5.868   6.155
 8652POPC   GL240658  18.929   5.838   6.155
 8652POPC   C1A40659  19.020   5.881   6.455
 8652POPC   D2A40660  19.081   5.841   6.755
 8652POPC   C3A40661  19.047   5.873   7.055
 8652POPC   C4A40662  19.098   5.836   7.355
 8652POPC   C1B40663  18.845   5.821   6.455
 8652POPC   C2B40664  18.766   5.908   6.755
 8652POPC   C3B40665  18.835   5.837   7.055
 8652POPC   C4B40666  18.787   5.824   7.355
 8653POPC   NC340667  22.160   5.888   5.555
 8653POPC   PO440668  22.166   5.866   5.855
 8653POPC   GL140669  22.114   5.875   6.155
 8653POPC   GL240670  22.217   5.892   6.155
 8653POPC   C1A40671  22.168   5.869   6.455
 8653POPC   D2A40672  22.141   5.880   6.755
 8653POPC   C3A40673  22.113   5.876   7.055
 8653POPC   C4A40674  22.134   5.826   7.355
 8653POPC   C1B40675  22.361   5.967   6.455
 8653POPC   C2B40676  22.373   6.051   6.755
 8653POPC   C3B40677  22.400   5.999   7.055
 8653POPC   C4B40678  22.407   5.970   7.355
 8654POPC   NC340679   5.844  31.431   5.555
 8654POPC   PO440680   5.820  31.483   5.855
 8654POPC   GL140681   5.837  31.437   6.155
 8654POPC   GL240682   5.947  31.407   6.155
 8654POPC   C1A40683   5.908  31.443   6.455
 8654POPC   D2A40684   5.898  31.512   6.755
 8654POPC   C3A40685   5.839  31.441   7.055
 8654POPC   C4A40686   5.898  31.476   7.355
 8654POPC   C1B40687   6.093  31.286   6.455
 8654POPC   C2B40688   6.040  31.335   6.755
 8654POPC   C3B40689   6.057  31.382   7.055
 8654POPC   C4B40690   6.061  31.357   7.355
 8655POPC   NC340691   5.891  29.138   5.555
 8655POPC   PO440692   5.860  29.157   5.855
 8655POPC   GL140693   5.865  29.152   6.155
 8655POPC   GL240694   6.022  29.069   6.155
 8655POPC   C1A40695   5.870  29.129   6.455
 8655POPC   D2A40696   5.856  29.128   6.755
 8655POPC   C3A40697   5.905  29.188   7.055
 8655POPC   C4A40698   5.917  29.146   7.355
 8655POPC   C1B40699   6.136  29.013   6.455
 8655POPC   C2B40700   6.086  29.013   6.755
 8655POPC   C3B40701   6.072  29.035   7.055
 8655POPC   C4B40702   6.102  29.037   7.355
 8656POPC   NC340703   3.504  26.025   5.555
 8656POPC   PO440704   3.526  26.082   5.855
 8656POPC   GL140705   3.558  26.051   6.155
 8656POPC   GL240706   3.656  26.076   6.155
 8656POPC   C1A40707   3.586  26.033   6.455
 8656POPC   D2A40708   3.568  26.075   6.755
 8656POPC   C3A40709   3.534  25.996   7.055
 8656POPC   C4A40710   3.540  25.996   7.355
 8656POPC   C1B40711   3.763  26.002   6.455
 8656POPC   C2B40712   3.770  26.045   6.755
 8656POPC   C3B40713   3.780  25.967   7.055
 8656POPC   C4B40714   3.828  26.019   7.355
 8657POPC   NC340715  37.639   6.693   5.555
 8657POPC   PO440716  37.686   6.608   5.855
 8657POPC   GL140717  37.718   6.668   6.155
 8657POPC   GL240718  37.650   6.752   6.155
 8657POPC   C1A40719  37.658   6.687   6.455
 8657POPC   D2A40720  37.691   6.632   6.755
 8657POPC   C3A40721  37.660   6.694   7.055
 8657POPC   C4A40722  37.699   6.612   7.355
 8657POPC   C1B40723  37.714   6.865   6.455
 8657POPC   C2B40724  37.665   6.934   6.755
 8657POPC   C3B40725  37.737   6.938   7.055
 8657POPC   C4B40726  37.700   6.918   7.355
 8658POPC   NC340727  29.161  18.303   5.555
 8658POPC   PO440728  29.162  18.312   5.855
 8658POPC   GL140729  29.112  18.241   6.155
 8658POPC   GL240730  29.193  18.183   6.155
 8658POPC   C1A40731  29.160  18.271   6.455
 8658POPC   D2A40732  29.143  18.322   6.755
 8658POPC   C3A40733  29.179  18.331   7.055
 8658POPC   C4A40734  29.162  18.253   7.355
 8658POPC   C1B40735  29.297  18.126   6.455
 8658POPC   C2B40736  29.351  18.112   6.755
 8658POPC   C3B40737  29.347  18.159   7.055
 8658POPC   C4B40738  29.365  18.087   7.355
 8659POPC   NC340739  40.749  40.043   5.555
 8659POPC   PO440740  40.735  40.016   5.855
 8659POPC   GL140741  40.793  40.040   6.155
 8659POPC   GL240742  40.717  40.092   6.155
 8659POPC   C1A40743  40.734  39.998   6.455
 8659POPC   D2A40744  40.814  40.018   6.755
 8659POPC   C3A40745  40.827  40.036   7.055
 8659POPC   C4A40746  40.791  39.957   7.355
 8659POPC   C1B40747  40.615  40.201   6.455
 8659POPC   C2B40748  40.620  40.147   6.755
 8659POPC   C3B40749  40.593  40.116   7.055
 8659POPC   C4B40750  40.541  40.131   7.355
 8660POPC   NC340751   8.924  30.665   5.555
 8660POPC   PO440752   9.015  30.700   5.855
 8660POPC   GL140753   8.975  30.658   6.155
 8660POPC   GL240754   8.869  30.654   6.155
 8660POPC   C1A40755   9.014  30.648   6.455
 8660POPC   D2A40756   8.991  30.723   6.755
 8660POPC   C3A40757   8.936  30.653   7.055
 8660POPC   C4A40758   9.003  30.655   7.355
 8660POPC   C1B40759   8.747  30.679   6.455
 8660POPC   C2B40760   8.695  30.705   6.755
 8660POPC   C3B40761   8.693  30.672   7.055
 8660POPC   C4B40762   8.738  30.686   7.355
 8661POPC   NC340763  19.792  43.108   5.555
 8661POPC   PO440764  19.856  43.158   5.855
 8661POPC   GL140765  19.803  43.115   6.155
 8661POPC   GL240766  19.903  43.018   6.155
 8661POPC   C1A40767  19.880  43.086   6.455
 8661POPC   D2A40768  19.854  43.127   6.755
 8661POPC   C3A40769  19.788  43.080   7.055
 8661POPC   C4A40770  19.788  43.073   7.355
 8661POPC   C1B40771  19.909  42.853   6.455
 8661POPC   C2B40772  19.930  42.905   6.755
 8661POPC   C3B40773  19.904  42.885   7.055
 8661POPC   C4B40774  19.904  42.866   7.355
 8662POPC   NC340775  26.026  35.389   5.555
 8662POPC   PO440776  26.009  35.313   5.855
 8662POPC   GL140777  26.036  35.317   6.155
 8662POPC   GL240778  25.983  35.453   6.155
 8662POPC   C1A40779  26.034  35.321   6.455
 8662POPC   D2A40780  26.019  35.397   6.755
 8662POPC   C3A40781  25.994  35.348   7.055
 8662POPC   C4A40782  26.039  35.371   7.355
 8662POPC   C1B40783  25.923  35.598   6.455
 8662POPC   C2B40784  26.005  35.624   6.755
 8662POPC   C3B40785  25.959  35.565   7.055
 8662POPC   C4B40786  26.008  35.560   7.355
 8663POPC   NC340787  34.543  31.459   5.555
 8663POPC   PO440788  34.619  31.475   5.855
 8663POPC   GL140789  34.556  31.520   6.155
 8663POPC   GL240790  34.453  31.445   6.155
 8663POPC   C1A40791  34.595  31.446   6.455
 8663POPC   D2A40792  34.566  31.452   6.755
 8663POPC   C3A40793  34.575  31.503   7.055
 8663POPC   C4A40794  34.612  31.469   7.355
 8663POPC   C1B40795  34.344  31.367   6.455
 8663POPC   C2B40796  34.357  31.303   6.755
 8663POPC   C3B40797  34.341  31.327   7.055
 8663POPC   C4B40798  34.392  31.295   7.355
 8664POPC   NC340799  12.070  43.082   5.555
 8664POPC   PO440800  12.030  43.098   5.855
 8664POPC   GL140801  12.026  43.134   6.155
 8664POPC   GL240802  12.101  43.197   6.155
 8664POPC   C1A40803  12.071  43.107   6.455
 8664POPC   D2A40804  12.042  43.133   6.755
 8664POPC   C3A40805  12.124  43.061   7.055
 8664POPC   C4A40806  12.099  43.137   7.355
 8664POPC   C1B40807  12.067  43.319   6.455
 8664POPC   C2B40808  12.004  43.365   6.755
 8664POPC   C3B40809  12.083  43.316   7.055
 8664POPC   C4B40810  12.016  43.407   7.355
 8665POPC   NC340811   6.691  12.083   5.555
 8665POPC   PO440812   6.654  12.103   5.855
 8665POPC   GL140813   6.687  12.067   6.155
 8665POPC   GL240814   6.804  12.106   6.155
 8665POPC   C1A40815   6.665  12.029   6.455
 8665POPC   D2A40816   6.660  12.115   6.755
 8665POPC   C3A40817   6.678  12.098   7.055
 8665POPC   C4A40818   6.626  12.027   7.355
 8665POPC   C1B40819   6.887  12.157   6.455
 8665POPC   C2B40820   6.873  12.116   6.755
 8665POPC   C3B40821   6.869  12.111   7.055
 8665POPC   C4B40822   6.872  12.159   7.355
 8666POPC   NC340823  44.681  15.192   5.555
 8666POPC   PO440824  44.650  15.198   5.855
 8666POPC   GL140825  44.654  15.176   6.155
 8666POPC   GL240826  44.659  15.286   6.155
 8666POPC   C1A40827  44.619  15.229   6.455
 8666POPC   D2A40828  44.676  15.188   6.755
 8666POPC   C3A40829  44.674  15.140   7.055
 8666POPC   C4A40830  44.685  15.141   7.355
 8666POPC   C1B40831  44.610  15.386   6.455
 8666POPC   C2B40832  44.614  15.429   6.755
 8666POPC   C3B40833  44.622  15.454   7.055
 8666POPC   C4B40834  44.588  15.426   7.355
 8667POPC   NC340835  19.863  33.045   5.555
 8667POPC   PO440836  19.823  33.014   5.855
 8667POPC   GL140837  19.855  33.007   6.155
 8667POPC   GL240838  19.711  32.965   6.155
 8667POPC   C1A40839  19.830  32.999   6.455
 8667POPC   D2A40840  19.820  33.034   6.755
 8667POPC   C3A40841  19.808  33.047   7.055
 8667POPC   C4A40842  19.817  32.987   7.355
 8667POPC   C1B40843  19.630  32.829   6.455
 8667POPC   C2B40844  19.638  32.852   6.755
 8667POPC   C3B40845  19.663  32.846   7.055
 8667POPC   C4B40846  19.657  32.798   7.355
 8668POPC   NC340847  21.411  33.000   5.555
 8668POPC   PO440848  21.362  33.025   5.855
 8668POPC   GL140849  21.372  33.010   6.155
 8668POPC   GL240850  21.516  33.068   6.155
 8668POPC   C1A40851  21.434  33.047   6.455
 8668POPC   D2A40852  21.373  33.046   6.755
 8668POPC   C3A40853  21.399  33.012   7.055
 8668POPC   C4A40854  21.352  33.021   7.355
 8668POPC   C1B40855  21.660  33.043   6.455
 8668POPC   C2B40856  21.594  33.062   6.755
 8668POPC   C3B40857  21.580  33.108   7.055
 8668POPC   C4B40858  21.646  33.117   7.355
 8669POPC   NC340859  36.893  43.871   5.555
 8669POPC   PO440860  36.880  43.927   5.855
 8669POPC   GL140861  36.868  43.863   6.155
 8669POPC   GL240862  36.778  43.813   6.155
 8669POPC   C1A40863  36.882  43.901   6.455
 8669POPC   D2A40864  36.913  43.910   6.755
 8669POPC   C3A40865  36.934  43.891   7.055
 8669POPC   C4A40866  36.902  43.888   7.355
 8669POPC   C1B40867  36.750  43.667   6.455
 8669POPC   C2B40868  36.711  43.686   6.755
 8669POPC   C3B40869  36.773  43.724   7.055
 8669POPC   C4B40870  36.744  43.712   7.355
 8670POPC   NC340871  14.360  25.261   5.555
 8670POPC   PO440872  14.414  25.308   5.855
 8670POPC   GL140873  14.437  25.261   6.155
 8670POPC   GL240874  14.342  25.377   6.155
 8670POPC   C1A40875  14.441  25.286   6.455
 8670POPC   D2A40876  14.378  25.304   6.755
 8670POPC   C3A40877  14.389  25.294   7.055
 8670POPC   C4A40878  14.422  25.224   7.355
 8670POPC   C1B40879  14.270  25.468   6.455
 8670POPC   C2B40880  14.340  25.514   6.755
 8670POPC   C3B40881  14.328  25.502   7.055
 8670POPC   C4B40882  14.350  25.537   7.355
 8671POPC   NC340883   6.654  16.709   5.555
 8671POPC   PO440884   6.689  16.712   5.855
 8671POPC   GL140885   6.685  16.713   6.155
 8671POPC   GL240886   6.513  16.693   6.155
 8671POPC   C1A40887   6.684  16.745   6.455
 8671POPC   D2A40888   6.617  16.707   6.755
 8671POPC   C3A40889   6.641  16.745   7.055
 8671POPC   C4A40890   6.612  16.735   7.355
 8671POPC   C1B40891   6.366  16.730   6.455
 8671POPC   C2B40892   6.412  16.728   6.755
 8671POPC   C3B40893   6.368  16.671   7.055
 8671POPC   C4B40894   6.382  16.670   7.355
 8672POPC   NC340895  38.469  15.149   5.555
 8672POPC   PO440896  38.433  15.159   5.855
 8672POPC   GL140897  38.470  15.202   6.155
 8672POPC   GL240898  38.489  15.038   6.155
 8672POPC   C1A40899  38.429  15.181   6.455
 8672POPC   D2A40900  38.464  15.180   6.755
 8672POPC   C3A40901  38.417  15.221   7.055
 8672POPC   C4A40902  38.414  15.214   7.355
 8672POPC   C1B40903  38.480  14.916   6.455
 8672POPC   C2B40904  38.489  14.973   6.755
 8672POPC   C3B40905  38.539  14.907   7.055
 8672POPC   C4B40906  38.472  14.887   7.355
 8673POPC   NC340907   3.564  44.623   5.555
 8673POPC   PO440908   3.522  44.648   5.855
 8673POPC   GL140909   3.517  44.624   6.155
 8673POPC   GL240910   3.598  44.805   6.155
 8673POPC   C1A40911   3.546  44.660   6.455
 8673POPC   D2A40912   3.556  44.659   6.755
 8673POPC   C3A40913   3.574  44.674   7.055
 8673POPC   C4A40914   3.566  44.689   7.355
 8673POPC   C1B40915   3.596  44.899   6.455
 8673POPC   C2B40916   3.553  44.877   6.755
 8673POPC   C3B40917   3.619  44.933   7.055
 8673POPC   C4B40918   3.596  44.923   7.355
 8674POPC   NC340919   9.783  35.353   5.555
 8674POPC   PO440920   9.719  35.309   5.855
 8674POPC   GL140921   9.719  35.306   6.155
 8674POPC   GL240922   9.797  35.273   6.155
 8674POPC   C1A40923   9.788  35.387   6.455
 8674POPC   D2A40924   9.791  35.324   6.755
 8674POPC   C3A40925   9.717  35.335   7.055
 8674POPC   C4A40926   9.733  35.349   7.355
 8674POPC   C1B40927   9.821  35.125   6.455
 8674POPC   C2B40928   9.814  35.160   6.755
 8674POPC   C3B40929   9.867  35.159   7.055
 8674POPC   C4B40930   9.840  35.108   7.355
 8675POPC   NC340931  44.627  22.184   5.555
 8675POPC   PO440932  44.671  22.194   5.855
 8675POPC   GL140933  44.619  22.179   6.155
 8675POPC   GL240934  44.591  22.329   6.155
 8675POPC   C1A40935  44.614  22.163   6.455
 8675POPC   D2A40936  44.660  22.143   6.755
 8675POPC   C3A40937  44.629  22.125   7.055
 8675POPC   C4A40938  44.670  22.200   7.355
 8675POPC   C1B40939  44.592  22.407   6.455
 8675POPC   C2B40940  44.630  22.412   6.755
 8675POPC   C3B40941  44.653  22.420   7.055
 8675POPC   C4B40942  44.644  22.425   7.355
 8676POPC   NC340943  26.009  42.331   5.555
 8676POPC   PO440944  26.028  42.307   5.855
 8676POPC   GL140945  26.091  42.347   6.155
 8676POPC   GL240946  25.979  42.438   6.155
 8676POPC   C1A40947  26.078  42.314   6.455
 8676POPC   D2A40948  26.047  42.375   6.755
 8676POPC   C3A40949  26.015  42.374   7.055
 8676POPC   C4A40950  26.040  42.372   7.355
 8676POPC   C1B40951  25.915  42.612   6.455
 8676POPC   C2B40952  25.986  42.599   6.755
 8676POPC   C3B40953  25.972  42.568   7.055
 8676POPC   C4B40954  25.979  42.615   7.355
 8677POPC   NC340955  16.772  36.942   5.555
 8677POPC   PO440956  16.737  36.905   5.855
 8677POPC   GL140957  16.768  36.869   6.155
 8677POPC   GL240958  16.750  36.767   6.155
 8677POPC   C1A40959  16.707  36.888   6.455
 8677POPC   D2A40960  16.730  36.860   6.755
 8677POPC   C3A40961  16.685  36.922   7.055
 8677POPC   C4A40962  16.682  36.854   7.355
 8677POPC   C1B40963  16.737  36.670   6.455
 8677POPC   C2B40964  16.704  36.685   6.755
 8677POPC   C3B40965  16.740  36.689   7.055
 8677POPC   C4B40966  16.738  36.643   7.355
 8678POPC   NC340967  43.903  25.228   5.555
 8678POPC   PO440968  43.920  25.249   5.855
 8678POPC   GL140969  43.852  25.264   6.155
 8678POPC   GL240970  43.875  25.109   6.155
 8678POPC   C1A40971  43.877  25.248   6.455
 8678POPC   D2A40972  43.912  25.280   6.755
 8678POPC   C3A40973  43.894  25.220   7.055
 8678POPC   C4A40974  43.891  25.314   7.355
 8678POPC   C1B40975  43.963  24.985   6.455
 8678POPC   C2B40976  43.940  25.046   6.755
 8678POPC   C3B40977  43.968  25.032   7.055
 8678POPC   C4B40978  43.930  25.022   7.355
 8679POPC   NC340979   5.894  12.873   5.555
 8679POPC   PO440980   5.857  12.844   5.855
 8679POPC   GL140981   5.913  12.816   6.155
 8679POPC   GL240982   5.853  12.954   6.155
 8679POPC   C1A40983   5.881  12.825   6.455
 8679POPC   D2A40984   5.842  12.860   6.755
 8679POPC   C3A40985   5.877  12.813   7.055
 8679POPC   C4A40986   5.856  12.877   7.355
 8679POPC   C1B40987   5.856  13.101   6.455
 8679POPC   C2B40988   5.924  13.134   6.755
 8679POPC   C3B40989   5.934  13.119   7.055
 8679POPC   C4B40990   5.901  13.080   7.355
 8680POPC   NC340991  18.276  11.252   5.555
 8680POPC   PO440992  18.296  11.317   5.855
 8680POPC   GL140993  18.238  11.261   6.155
 8680POPC   GL240994  18.121  11.292   6.155
 8680POPC   C1A40995  18.313  11.306   6.455
 8680POPC   D2A40996  18.289  11.347   6.755
 8680POPC   C3A40997  18.307  11.310   7.055
 8680POPC   C4A40998  18.314  11.341   7.355
 8680POPC   C1B40999  18.044  11.257   6.455
 8680POPC   C2B41000  18.005  11.266   6.755
 8680POPC   C3B41001  18.002  11.324   7.055
 8680POPC   C4B41002  17.996  11.253   7.355
 8681POPC   NC341003   9.021  24.490   5.555
 8681POPC   PO441004   8.997  24.462   5.855
 8681POPC   GL141005   8.992  24.455   6.155
 8681POPC   GL241006   8.971  24.349   6.155
 8681POPC   C1A41007   8.923  24.483   6.455
 8681POPC   D2A41008   8.961  24.501   6.755
 8681POPC   C3A41009   8.950  24.534   7.055
 8681POPC   C4A41010   8.958  24.514   7.355
 8681POPC   C1B41011   8.989  24.267   6.455
 8681POPC   C2B41012   8.951  24.276   6.755
 8681POPC   C3B41013   9.037  24.257   7.055
 8681POPC   C4B41014   8.966  24.286   7.355
 8682POPC   NC341015  40.819   7.418   5.555
 8682POPC   PO441016  40.760   7.469   5.855
 8682POPC   GL141017  40.778   7.376   6.155
 8682POPC   GL241018  40.792   7.531   6.155
 8682POPC   C1A41019  40.751   7.449   6.455
 8682POPC   D2A41020  40.793   7.431   6.755
 8682POPC   C3A41021  40.769   7.396   7.055
 8682POPC   C4A41022  40.791   7.432   7.355
 8682POPC   C1B41023  40.732   7.676   6.455
 8682POPC   C2B41024  40.671   7.657   6.755
 8682POPC   C3B41025  40.663   7.648   7.055
 8682POPC   C4B41026  40.656   7.616   7.355
 8683POPC   NC341027   8.937  27.581   5.555
 8683POPC   PO441028   8.952  27.633   5.855
 8683POPC   GL141029   8.986  27.561   6.155
 8683POPC   GL241030   9.012  27.469   6.155
 8683POPC   C1A41031   8.975  27.593   6.455
 8683POPC   D2A41032   8.964  27.617   6.755
 8683POPC   C3A41033   9.013  27.581   7.055
 8683POPC   C4A41034   8.972  27.590   7.355
 8683POPC   C1B41035   8.995  27.365   6.455
 8683POPC   C2B41036   9.063  27.326   6.755
 8683POPC   C3B41037   9.075  27.393   7.055
 8683POPC   C4B41038   9.079  27.306   7.355
 8684POPC   NC341039   5.088  39.185   5.555
 8684POPC   PO441040   5.048  39.250   5.855
 8684POPC   GL141041   5.121  39.219   6.155
 8684POPC   GL241042   5.220  39.219   6.155
 8684POPC   C1A41043   5.109  39.238   6.455
 8684POPC   D2A41044   5.072  39.224   6.755
 8684POPC   C3A41045   5.120  39.233   7.055
 8684POPC   C4A41046   5.058  39.243   7.355
 8684POPC   C1B41047   5.363  39.246   6.455
 8684POPC   C2B41048   5.339  39.201   6.755
 8684POPC   C3B41049   5.318  39.209   7.055
 8684POPC   C4B41050   5.387  39.251   7.355
 8685POPC   NC341051   5.075   1.963   5.555
 8685POPC   PO441052   5.141   1.978   5.855
 8685POPC   GL141053   5.122   2.039   6.155
 8685POPC   GL241054   5.264   1.975   6.155
 8685POPC   C1A41055   5.075   1.989   6.455
 8685POPC   D2A41056   5.103   2.037   6.755
 8685POPC   C3A41057   5.063   1.994   7.055
 8685POPC   C4A41058   5.132   1.951   7.355
 8685POPC   C1B41059   5.298   1.991   6.455
 8685POPC   C2B41060   5.388   2.028   6.755
 8685POPC   C3B41061   5.389   1.983   7.055
 8685POPC   C4B41062   5.320   2.000   7.355
 8686POPC   NC341063   2.728   3.514   5.555
 8686POPC   PO441064   2.804   3.564   5.855
 8686POPC   GL141065   2.783   3.572   6.155
 8686POPC   GL241066   2.869   3.422   6.155
 8686POPC   C1A41067   2.746   3.498   6.455
 8686POPC   D2A41068   2.734   3.551   6.755
 8686POPC   C3A41069   2.780   3.513   7.055
 8686POPC   C4A41070   2.747   3.552   7.355
 8686POPC   C1B41071   2.978   3.394   6.455
 8686POPC   C2B41072   2.987   3.402   6.755
 8686POPC   C3B41073   2.922   3.328   7.055
 8686POPC   C4B41074   2.900   3.341   7.355
 8687POPC   NC341075  33.791  22.140   5.555
 8687POPC   PO441076  33.786  22.194   5.855
 8687POPC   GL141077  33.785  22.135   6.155
 8687POPC   GL241078  33.766  22.057   6.155
 8687POPC   C1A41079  33.756  22.131   6.455
 8687POPC   D2A41080  33.765  22.180   6.755
 8687POPC   C3A41081  33.766  22.171   7.055
 8687POPC   C4A41082  33.779  22.179   7.355
 8687POPC   C1B41083  33.757  21.878   6.455
 8687POPC   C2B41084  33.747  21.903   6.755
 8687POPC   C3B41085  33.707  21.884   7.055
 8687POPC   C4B41086  33.781  21.874   7.355
 8688POPC   NC341087   5.910   1.961   5.555
 8688POPC   PO441088   5.871   1.979   5.855
 8688POPC   GL141089   5.875   1.957   6.155
 8688POPC   GL241090   5.909   1.853   6.155
 8688POPC   C1A41091   5.825   1.964   6.455
 8688POPC   D2A41092   5.901   1.978   6.755
 8688POPC   C3A41093   5.856   1.960   7.055
 8688POPC   C4A41094   5.873   1.955   7.355
 8688POPC   C1B41095   5.843   1.775   6.455
 8688POPC   C2B41096   5.873   1.736   6.755
 8688POPC   C3B41097   5.860   1.701   7.055
 8688POPC   C4B41098   5.866   1.762   7.355
 8689POPC   NC341099  38.468  42.370   5.555
 8689POPC   PO441100  38.473  42.357   5.855
 8689POPC   GL141101  38.467  42.307   6.155
 8689POPC   GL241102  38.395  42.203   6.155
 8689POPC   C1A41103  38.480  42.367   6.455
 8689POPC   D2A41104  38.487  42.305   6.755
 8689POPC   C3A41105  38.477  42.287   7.055
 8689POPC   C4A41106  38.446  42.368   7.355
 8689POPC   C1B41107  38.286  42.069   6.455
 8689POPC   C2B41108  38.321  42.114   6.755
 8689POPC   C3B41109  38.333  42.066   7.055
 8689POPC   C4B41110  38.321  42.138   7.355
 8690POPC   NC341111  12.057  33.850   5.555
 8690POPC   PO441112  12.074  33.836   5.855
 8690POPC   GL141113  12.063  33.820   6.155
 8690POPC   GL241114  11.989  33.881   6.155
 8690POPC   C1A41115  12.052  33.779   6.455
 8690POPC   D2A41116  12.058  33.790   6.755
 8690POPC   C3A41117  12.119  33.822   7.055
 8690POPC   C4A41118  12.038  33.760   7.355
 8690POPC   C1B41119  11.858  33.911   6.455
 8690POPC   C2B41120  11.828  33.944   6.755
 8690POPC   C3B41121  11.828  33.934   7.055
 8690POPC   C4B41122  11.900  33.932   7.355
 8691POPC   NC341123   0.462  38.459   5.555
 8691POPC   PO441124   0.458  38.449   5.855
 8691POPC   GL141125   0.424  38.466   6.155
 8691POPC   GL241126   0.367  38.382   6.155
 8691POPC   C1A41127   0.421  38.439   6.455
 8691POPC   D2A41128   0.469  38.412   6.755
 8691POPC   C3A41129   0.465  38.483   7.055
 8691POPC   C4A41130   0.468  38.475   7.355
 8691POPC   C1B41131   0.393  38.241   6.455
 8691POPC   C2B41132   0.393  38.212   6.755
 8691POPC   C3B41133   0.384  38.209   7.055
 8691POPC   C4B41134   0.309  38.198   7.355
 8692POPC   NC341135  14.380  12.897   5.555
 8692POPC   PO441136  14.424  12.823   5.855
 8692POPC   GL141137  14.396  12.850   6.155
 8692POPC   GL241138  14.461  13.013   6.155
 8692POPC   C1A41139  14.416  12.805   6.455
 8692POPC   D2A41140  14.430  12.827   6.755
 8692POPC   C3A41141  14.419  12.846   7.055
 8692POPC   C4A41142  14.432  12.847   7.355
 8692POPC   C1B41143  14.508  13.029   6.455
 8692POPC   C2B41144  14.528  13.066   6.755
 8692POPC   C3B41145  14.534  13.077   7.055
 8692POPC   C4B41146  14.504  13.065   7.355
 8693POPC   NC341147  22.918  25.235   5.555
 8693POPC   PO441148  22.943  25.292   5.855
 8693POPC   GL141149  22.896  25.281   6.155
 8693POPC   GL241150  23.002  25.191   6.155
 8693POPC   C1A41151  22.904  25.216   6.455
 8693POPC   D2A41152  22.938  25.314   6.755
 8693POPC   C3A41153  22.975  25.305   7.055
 8693POPC   C4A41154  22.929  25.288   7.355
 8693POPC   C1B41155  23.054  25.070   6.455
 8693POPC   C2B41156  23.091  25.045   6.755
 8693POPC   C3B41157  23.065  25.057   7.055
 8693POPC   C4B41158  23.045  25.096   7.355
 8694POPC   NC341159   9.767  30.650   5.555
 8694POPC   PO441160   9.730  30.686   5.855
 8694POPC   GL141161   9.769  30.686   6.155
 8694POPC   GL241162   9.820  30.749   6.155
 8694POPC   C1A41163   9.760  30.673   6.455
 8694POPC   D2A41164   9.745  30.685   6.755
 8694POPC   C3A41165   9.723  30.664   7.055
 8694POPC   C4A41166   9.720  30.737   7.355
 8694POPC   C1B41167   9.901  30.903   6.455
 8694POPC   C2B41168   9.936  30.866   6.755
 8694POPC   C3B41169   9.947  30.858   7.055
 8694POPC   C4B41170   9.936  30.909   7.355
 8695POPC   NC341171  34.575  21.359   5.555
 8695POPC   PO441172  34.608  21.400   5.855
 8695POPC   GL141173  34.577  21.356   6.155
 8695POPC   GL241174  34.449  21.427   6.155
 8695POPC   C1A41175  34.553  21.360   6.455
 8695POPC   D2A41176  34.539  21.403   6.755
 8695POPC   C3A41177  34.614  21.393   7.055
 8695POPC   C4A41178  34.620  21.390   7.355
 8695POPC   C1B41179  34.409  21.541   6.455
 8695POPC   C2B41180  34.399  21.490   6.755
 8695POPC   C3B41181  34.338  21.536   7.055
 8695POPC   C4B41182  34.370  21.473   7.355
 8696POPC   NC341183   8.168  31.472   5.555
 8696POPC   PO441184   8.168  31.473   5.855
 8696POPC   GL141185   8.188  31.471   6.155
 8696POPC   GL241186   8.107  31.404   6.155
 8696POPC   C1A41187   8.246  31.460   6.455
 8696POPC   D2A41188   8.194  31.443   6.755
 8696POPC   C3A41189   8.246  31.478   7.055
 8696POPC   C4A41190   8.179  31.494   7.355
 8696POPC   C1B41191   8.066  31.265   6.455
 8696POPC   C2B41192   8.117  31.241   6.755
 8696POPC   C3B41193   8.047  31.241   7.055
 8696POPC   C4B41194   8.065  31.237   7.355
 8697POPC   NC341195   5.128  43.845   5.555
 8697POPC   PO441196   5.095  43.890   5.855
 8697POPC   GL141197   5.105  43.897   6.155
 8697POPC   GL241198   5.027  44.022   6.155
 8697POPC   C1A41199   5.052  43.926   6.455
 8697POPC   D2A41200   5.077  43.899   6.755
 8697POPC   C3A41201   5.075  43.879   7.055
 8697POPC   C4A41202   5.122  43.855   7.355
 8697POPC   C1B41203   5.015  44.171   6.455
 8697POPC   C2B41204   5.002  44.165   6.755
 8697POPC   C3B41205   5.086  44.116   7.055
 8697POPC   C4B41206   4.995  44.140   7.355
 8698POPC   NC341207  12.093  19.023   5.555
 8698POPC   PO441208  12.103  19.076   5.855
 8698POPC   GL141209  12.037  19.011   6.155
 8698POPC   GL241210  11.955  19.012   6.155
 8698POPC   C1A41211  12.093  19.009   6.455
 8698POPC   D2A41212  12.075  19.048   6.755
 8698POPC   C3A41213  12.067  19.029   7.055
 8698POPC   C4A41214  12.041  19.079   7.355
 8698POPC   C1B41215  11.829  18.976   6.455
 8698POPC   C2B41216  11.824  18.988   6.755
 8698POPC   C3B41217  11.807  18.914   7.055
 8698POPC   C4B41218  11.844  18.947   7.355
 8699POPC   NC341219  40.806   9.785   5.555
 8699POPC   PO441220  40.736   9.747   5.855
 8699POPC   GL141221  40.802   9.740   6.155
 8699POPC   GL241222  40.894   9.671   6.155
 8699POPC   C1A41223  40.739   9.741   6.455
 8699POPC   D2A41224  40.800   9.729   6.755
 8699POPC   C3A41225  40.746   9.798   7.055
 8699POPC   C4A41226  40.746   9.715   7.355
 8699POPC   C1B41227  41.002   9.659   6.455
 8699POPC   C2B41228  40.995   9.606   6.755
 8699POPC   C3B41229  41.037   9.602   7.055
 8699POPC   C4B41230  41.033   9.625   7.355
 8700POPC   NC341231  37.680  13.598   5.555
 8700POPC   PO441232  37.720  13.664   5.855
 8700POPC   GL141233  37.705  13.655   6.155
 8700POPC   GL241234  37.802  13.538   6.155
 8700POPC   C1A41235  37.683  13.649   6.455
 8700POPC   D2A41236  37.709  13.645   6.755
 8700POPC   C3A41237  37.638  13.675   7.055
 8700POPC   C4A41238  37.633  13.615   7.355
 8700POPC   C1B41239  37.896  13.531   6.455
 8700POPC   C2B41240  37.950  13.579   6.755
 8700POPC   C3B41241  37.897  13.592   7.055
 8700POPC   C4B41242  37.955  13.569   7.355
 8701POPC   NC341243   1.961  33.052   5.555
 8701POPC   PO441244   2.033  33.031   5.855
 8701POPC   GL141245   2.037  32.979   6.155
 8701POPC   GL241246   2.066  33.143   6.155
 8701POPC   C1A41247   1.987  32.980   6.455
 8701POPC   D2A41248   1.952  33.059   6.755
 8701POPC   C3A41249   1.976  33.014   7.055
 8701POPC   C4A41250   2.002  33.002   7.355
 8701POPC   C1B41251   2.087  33.250   6.455
 8701POPC   C2B41252   2.052  33.301   6.755
 8701POPC   C3B41253   2.079  33.232   7.055
 8701POPC   C4B41254   2.134  33.257   7.355
 8702POPC   NC341255  17.472  43.926   5.555
 8702POPC   PO441256  17.552  43.867   5.855
 8702POPC   GL141257  17.478  43.931   6.155
 8702POPC   GL241258  17.424  43.852   6.155
 8702POPC   C1A41259  17.521  43.894   6.455
 8702POPC   D2A41260  17.514  43.851   6.755
 8702POPC   C3A41261  17.468  43.869   7.055
 8702POPC   C4A41262  17.535  43.902   7.355
 8702POPC   C1B41263  17.291  43.894   6.455
 8702POPC   C2B41264  17.283  43.844   6.755
 8702POPC   C3B41265  17.244  43.862   7.055
 8702POPC   C4B41266  17.259  43.902   7.355
 8703POPC   NC341267  12.854   5.853   5.555
 8703POPC   PO441268  12.862   5.913   5.855
 8703POPC   GL141269  12.893   5.883   6.155
 8703POPC   GL241270  12.744   5.792   6.155
 8703POPC   C1A41271  12.863   5.897   6.455
 8703POPC   D2A41272  12.857   5.834   6.755
 8703POPC   C3A41273  12.901   5.887   7.055
 8703POPC   C4A41274  12.862   5.850   7.355
 8703POPC   C1B41275  12.614   5.749   6.455
 8703POPC   C2B41276  12.575   5.808   6.755
 8703POPC   C3B41277  12.663   5.779   7.055
 8703POPC   C4B41278  12.648   5.747   7.355
 8704POPC   NC341279  29.883  26.860   5.555
 8704POPC   PO441280  29.945  26.794   5.855
 8704POPC   GL141281  29.906  26.853   6.155
 8704POPC   GL241282  29.984  26.898   6.155
 8704POPC   C1A41283  29.952  26.779   6.455
 8704POPC   D2A41284  29.959  26.802   6.755
 8704POPC   C3A41285  29.920  26.866   7.055
 8704POPC   C4A41286  29.966  26.849   7.355
 8704POPC   C1B41287  30.055  27.073   6.455
 8704POPC   C2B41288  30.001  27.018   6.755
 8704POPC   C3B41289  30.056  27.001   7.055
 8704POPC   C4B41290  30.017  27.060   7.355
 8705POPC   NC341291  38.405  34.548   5.555
 8705POPC   PO441292  38.500  34.552   5.855
 8705POPC   GL141293  38.412  34.587   6.155
 8705POPC   GL241294  38.476  34.680   6.155
 8705POPC   C1A41295  38.459  34.564   6.455
 8705POPC   D2A41296  38.406  34.603   6.755
 8705POPC   C3A41297  38.466  34.603   7.055
 8705POPC   C4A41298  38.439  34.572   7.355
 8705POPC   C1B41299  38.405  34.799   6.455
 8705POPC   C2B41300  38.425  34.843   6.755
 8705POPC   C3B41301  38.459  34.856   7.055
 8705POPC   C4B41302  38.460  34.783   7.355
 8706POPC   NC341303  26.816  21.401   5.555
 8706POPC   PO441304  26.774  21.413   5.855
 8706POPC   GL141305  26.817  21.385   6.155
 8706POPC   GL241306  26.790  21.265   6.155
 8706POPC   C1A41307  26.779  21.395   6.455
 8706POPC   D2A41308  26.802  21.413   6.755
 8706POPC   C3A41309  26.849  21.390   7.055
 8706POPC   C4A41310  26.826  21.352   7.355
 8706POPC   C1B41311  26.806  21.104   6.455
 8706POPC   C2B41312  26.819  21.132   6.755
 8706POPC   C3B41313  26.804  21.100   7.055
 8706POPC   C4B41314  26.844  21.133   7.355
 8707POPC   NC341315  15.991  11.273   5.555
 8707POPC   PO441316  15.992  11.338   5.855
 8707POPC   GL141317  15.914  11.284   6.155
 8707POPC   GL241318  16.080  11.265   6.155
 8707POPC   C1A41319  15.962  11.302   6.455
 8707POPC   D2A41320  15.917  11.285   6.755
 8707POPC   C3A41321  15.951  11.250   7.055
 8707POPC   C4A41322  16.000  11.290   7.355
 8707POPC   C1B41323  16.175  11.133   6.455
 8707POPC   C2B41324  16.126  11.153   6.755
 8707POPC   C3B41325  16.175  11.130   7.055
 8707POPC   C4B41326  16.115  11.124   7.355
 8708POPC   NC341327   3.508  43.118   5.555
 8708POPC   PO441328   3.506  43.122   5.855
 8708POPC   GL141329   3.558  43.064   6.155
 8708POPC   GL241330   3.649  43.142   6.155
 8708POPC   C1A41331   3.565  43.096   6.455
 8708POPC   D2A41332   3.533  43.158   6.755
 8708POPC   C3A41333   3.531  43.100   7.055
 8708POPC   C4A41334   3.569  43.080   7.355
 8708POPC   C1B41335   3.836  43.110   6.455
 8708POPC   C2B41336   3.817  43.045   6.755
 8708POPC   C3B41337   3.785  43.091   7.055
 8708POPC   C4B41338   3.825  43.145   7.355
 8709POPC   NC341339  29.167  20.595   5.555
 8709POPC   PO441340  29.179  20.628   5.855
 8709POPC   GL141341  29.130  20.610   6.155
 8709POPC   GL241342  29.148  20.749   6.155
 8709POPC   C1A41343  29.171  20.610   6.455
 8709POPC   D2A41344  29.184  20.593   6.755
 8709POPC   C3A41345  29.165  20.601   7.055
 8709POPC   C4A41346  29.166  20.564   7.355
 8709POPC   C1B41347  29.109  20.830   6.455
 8709POPC   C2B41348  29.097  20.877   6.755
 8709POPC   C3B41349  29.102  20.808   7.055
 8709POPC   C4B41350  29.100  20.840   7.355
 8710POPC   NC341351  12.897  11.262   5.555
 8710POPC   PO441352  12.813  11.331   5.855
 8710POPC   GL141353  12.897  11.311   6.155
 8710POPC   GL241354  12.806  11.143   6.155
 8710POPC   C1A41355  12.826  11.314   6.455
 8710POPC   D2A41356  12.894  11.311   6.755
 8710POPC   C3A41357  12.804  11.310   7.055
 8710POPC   C4A41358  12.820  11.276   7.355
 8710POPC   C1B41359  12.796  11.058   6.455
 8710POPC   C2B41360  12.790  11.010   6.755
 8710POPC   C3B41361  12.751  11.012   7.055
 8710POPC   C4B41362  12.742  11.016   7.355
 8711POPC   NC341363  33.837  33.754   5.555
 8711POPC   PO441364  33.793  33.813   5.855
 8711POPC   GL141365  33.818  33.762   6.155
 8711POPC   GL241366  33.785  33.908   6.155
 8711POPC   C1A41367  33.829  33.818   6.455
 8711POPC   D2A41368  33.773  33.780   6.755
 8711POPC   C3A41369  33.845  33.768   7.055
 8711POPC   C4A41370  33.818  33.823   7.355
 8711POPC   C1B41371  33.782  34.039   6.455
 8711POPC   C2B41372  33.759  34.080   6.755
 8711POPC   C3B41373  33.810  34.097   7.055
 8711POPC   C4B41374  33.840  34.009   7.355
 8712POPC   NC341375  36.135   5.069   5.555
 8712POPC   PO441376  36.101   5.142   5.855
 8712POPC   GL141377  36.083   5.068   6.155
 8712POPC   GL241378  35.962   5.080   6.155
 8712POPC   C1A41379  36.086   5.131   6.455
 8712POPC   D2A41380  36.097   5.120   6.755
 8712POPC   C3A41381  36.144   5.044   7.055
 8712POPC   C4A41382  36.117   5.125   7.355
 8712POPC   C1B41383  35.929   5.078   6.455
 8712POPC   C2B41384  35.899   5.076   6.755
 8712POPC   C3B41385  35.897   5.033   7.055
 8712POPC   C4B41386  35.834   5.048   7.355
 8713POPC   NC341387  29.880  33.769   5.555
 8713POPC   PO441388  29.923  33.762   5.855
 8713POPC   GL141389  29.946  33.756   6.155
 8713POPC   GL241390  29.962  33.887   6.155
 8713POPC   C1A41391  29.898  33.816   6.455
 8713POPC   D2A41392  29.943  33.810   6.755
 8713POPC   C3A41393  29.945  33.843   7.055
 8713POPC   C4A41394  29.950  33.756   7.355
 8713POPC   C1B41395  29.975  34.027   6.455
 8713POPC   C2B41396  30.048  34.059   6.755
 8713POPC   C3B41397  29.998  34.016   7.055
 8713POPC   C4B41398  30.059  34.070   7.355
 8714POPC   NC341399  36.168  29.871   5.555
 8714POPC   PO441400  36.169  29.909   5.855
 8714POPC   GL141401  36.171  29.946   6.155
 8714POPC   GL241402  36.174  30.065   6.155
 8714POPC   C1A41403  36.132  29.898   6.455
 8714POPC   D2A41404  36.156  29.917   6.755
 8714POPC   C3A41405  36.127  29.932   7.055
 8714POPC   C4A41406  36.117  29.939   7.355
 8714POPC   C1B41407  36.109  30.189   6.455
 8714POPC   C2B41408  36.160  30.185   6.755
 8714POPC   C3B41409  36.121  30.144   7.055
 8714POPC   C4B41410  36.178  30.219   7.355
 8715POPC   NC341411  44.669  33.045   5.555
 8715POPC   PO441412  44.695  33.051   5.855
 8715POPC   GL141413  44.647  32.977   6.155
 8715POPC   GL241414  44.674  33.124   6.155
 8715POPC   C1A41415  44.626  33.050   6.455
 8715POPC   D2A41416  44.661  33.049   6.755
 8715POPC   C3A41417  44.683  33.056   7.055
 8715POPC   C4A41418  44.694  33.052   7.355
 8715POPC   C1B41419  44.754  33.208   6.455
 8715POPC   C2B41420  44.824  33.224   6.755
 8715POPC   C3B41421  44.802  33.254   7.055
 8715POPC   C4B41422  44.769  33.218   7.355
 8716POPC   NC341423  26.768  16.696   5.555
 8716POPC   PO441424  26.837  16.750   5.855
 8716POPC   GL141425  26.840  16.744   6.155
 8716POPC   GL241426  26.729  16.795   6.155
 8716POPC   C1A41427  26.865  16.780   6.455
 8716POPC   D2A41428  26.846  16.748   6.755
 8716POPC   C3A41429  26.782  16.725   7.055
 8716POPC   C4A41430  26.854  16.691   7.355
 8716POPC   C1B41431  26.599  16.837   6.455
 8716POPC   C2B41432  26.644  16.922   6.755
 8716POPC   C3B41433  26.654  16.914   7.055
 8716POPC   C4B41434  26.641  16.840   7.355
 8717POPC   NC341435  34.604  18.264   5.555
 8717POPC   PO441436  34.595  18.238   5.855
 8717POPC   GL141437  34.581  18.246   6.155
 8717POPC   GL241438  34.516  18.127   6.155
 8717POPC   C1A41439  34.529  18.297   6.455
 8717POPC   D2A41440  34.610  18.317   6.755
 8717POPC   C3A41441  34.591  18.317   7.055
 8717POPC   C4A41442  34.545  18.330   7.355
 8717POPC   C1B41443  34.526  18.041   6.455
 8717POPC   C2B41444  34.576  18.038   6.755
 8717POPC   C3B41445  34.568  17.988   7.055
 8717POPC   C4B41446  34.501  18.008   7.355
 8718POPC   NC341447   8.957   8.165   5.555
 8718POPC   PO441448   8.990   8.233   5.855
 8718POPC   GL141449   8.977   8.247   6.155
 8718POPC   GL241450   9.046   8.305   6.155
 8718POPC   C1A41451   8.962   8.164   6.455
 8718POPC   D2A41452   8.951   8.153   6.755
 8718POPC   C3A41453   8.931   8.161   7.055
 8718POPC   C4A41454   8.988   8.176   7.355
 8718POPC   C1B41455   9.127   8.362   6.455
 8718POPC   C2B41456   9.137   8.357   6.755
 8718POPC   C3B41457   9.100   8.400   7.055
 8718POPC   C4B41458   9.071   8.368   7.355
 8719POPC   NC341459  29.180  33.791   5.555
 8719POPC   PO441460  29.113  33.760   5.855
 8719POPC   GL141461  29.104  33.807   6.155
 8719POPC   GL241462  29.013  33.746   6.155
 8719POPC   C1A41463  29.193  33.763   6.455
 8719POPC   D2A41464  29.114  33.803   6.755
 8719POPC   C3A41465  29.136  33.752   7.055
 8719POPC   C4A41466  29.150  33.773   7.355
 8719POPC   C1B41467  28.893  33.700   6.455
 8719POPC   C2B41468  28.939  33.698   6.755
 8719POPC   C3B41469  28.978  33.667   7.055
 8719POPC   C4B41470  28.975  33.663   7.355
 8720POPC   NC341471  39.998  13.655   5.555
 8720POPC   PO441472  39.991  13.657   5.855
 8720POPC   GL141473  40.055  13.641   6.155
 8720POPC   GL241474  39.883  13.755   6.155
 8720POPC   C1A41475  40.024  13.640   6.455
 8720POPC   D2A41476  40.046  13.655   6.755
 8720POPC   C3A41477  39.982  13.642   7.055
 8720POPC   C4A41478  39.967  13.653   7.355
 8720POPC   C1B41479  39.848  13.819   6.455
 8720POPC   C2B41480  39.848  13.780   6.755
 8720POPC   C3B41481  39.853  13.840   7.055
 8720POPC   C4B41482  39.834  13.844   7.355
 8721POPC   NC341483   1.966  36.872   5.555
 8721POPC   PO441484   1.954  36.883   5.855
 8721POPC   GL141485   2.015  36.860   6.155
 8721POPC   GL241486   1.961  37.042   6.155
 8721POPC   C1A41487   1.974  36.914   6.455
 8721POPC   D2A41488   1.999  36.874   6.755
 8721POPC   C3A41489   1.985  36.866   7.055
 8721POPC   C4A41490   1.942  36.912   7.355
 8721POPC   C1B41491   2.004  37.136   6.455
 8721POPC   C2B41492   1.987  37.164   6.755
 8721POPC   C3B41493   2.031  37.176   7.055
 8721POPC   C4B41494   2.018  37.123   7.355
 8722POPC   NC341495  19.875  44.706   5.555
 8722POPC   PO441496  19.830  44.658   5.855
 8722POPC   GL141497  19.812  44.648   6.155
 8722POPC   GL241498  19.817  44.573   6.155
 8722POPC   C1A41499  19.836  44.665   6.455
 8722POPC   D2A41500  19.804  44.695   6.755
 8722POPC   C3A41501  19.790  44.648   7.055
 8722POPC   C4A41502  19.842  44.618   7.355
 8722POPC   C1B41503  19.850  44.401   6.455
 8722POPC   C2B41504  19.859  44.390   6.755
 8722POPC   C3B41505  19.804  44.412   7.055
 8722POPC   C4B41506  19.793  44.458   7.355
 8723POPC   NC341507   2.719  12.890   5.555
 8723POPC   PO441508   2.811  12.835   5.855
 8723POPC   GL141509   2.802  12.873   6.155
 8723POPC   GL241510   2.906  12.724   6.155
 8723POPC   C1A41511   2.744  12.886   6.455
 8723POPC   D2A41512   2.753  12.872   6.755
 8723POPC   C3A41513   2.720  12.819   7.055
 8723POPC   C4A41514   2.813  12.811   7.355
 8723POPC   C1B41515   2.957  12.638   6.455
 8723POPC   C2B41516   2.978  12.672   6.755
 8723POPC   C3B41517   2.907  12.679   7.055
 8723POPC   C4B41518   2.918  12.704   7.355
 8724POPC   NC341519  34.621  32.227   5.555
 8724POPC   PO441520  34.579  32.264   5.855
 8724POPC   GL141521  34.619  32.297   6.155
 8724POPC   GL241522  34.663  32.358   6.155
 8724POPC   C1A41523  34.597  32.245   6.455
 8724POPC   D2A41524  34.595  32.228   6.755
 8724POPC   C3A41525  34.625  32.235   7.055
 8724POPC   C4A41526  34.533  32.246   7.355
 8724POPC   C1B41527  34.727  32.415   6.455
 8724POPC   C2B41528  34.724  32.410   6.755
 8724POPC   C3B41529  34.755  32.471   7.055
 8724POPC   C4B41530  34.704  32.471   7.355
 8725POPC   NC341531  32.259  31.447   5.555
 8725POPC   PO441532  32.279  31.423   5.855
 8725POPC   GL141533  32.294  31.456   6.155
 8725POPC   GL241534  32.302  31.370   6.155
 8725POPC   C1A41535  32.199  31.488   6.455
 8725POPC   D2A41536  32.272  31.437   6.755
 8725POPC   C3A41537  32.294  31.481   7.055
 8725POPC   C4A41538  32.232  31.483   7.355
 8725POPC   C1B41539  32.324  31.275   6.455
 8725POPC   C2B41540  32.354  31.297   6.755
 8725POPC   C3B41541  32.341  31.284   7.055
 8725POPC   C4B41542  32.354  31.212   7.355
 8726POPC   NC341543  26.025  13.601   5.555
 8726POPC   PO441544  26.018  13.676   5.855
 8726POPC   GL141545  26.085  13.619   6.155
 8726POPC   GL241546  26.170  13.588   6.155
 8726POPC   C1A41547  26.079  13.623   6.455
 8726POPC   D2A41548  26.085  13.618   6.755
 8726POPC   C3A41549  26.048  13.602   7.055
 8726POPC   C4A41550  26.003  13.596   7.355
 8726POPC   C1B41551  26.232  13.430   6.455
 8726POPC   C2B41552  26.182  13.465   6.755
 8726POPC   C3B41553  26.246  13.408   7.055
 8726POPC   C4B41554  26.226  13.413   7.355
 8727POPC   NC341555  29.911  19.825   5.555
 8727POPC   PO441556  29.897  19.837   5.855
 8727POPC   GL141557  29.926  19.803   6.155
 8727POPC   GL241558  29.823  19.702   6.155
 8727POPC   C1A41559  29.917  19.879   6.455
 8727POPC   D2A41560  29.962  19.797   6.755
 8727POPC   C3A41561  29.915  19.866   7.055
 8727POPC   C4A41562  29.907  19.811   7.355
 8727POPC   C1B41563  29.774  19.601   6.455
 8727POPC   C2B41564  29.751  19.580   6.755
 8727POPC   C3B41565  29.809  19.645   7.055
 8727POPC   C4B41566  29.768  19.607   7.355
 8728POPC   NC341567  36.166  19.838   5.555
 8728POPC   PO441568  36.138  19.867   5.855
 8728POPC   GL141569  36.153  19.845   6.155
 8728POPC   GL241570  36.040  19.699   6.155
 8728POPC   C1A41571  36.149  19.837   6.455
 8728POPC   D2A41572  36.153  19.791   6.755
 8728POPC   C3A41573  36.175  19.819   7.055
 8728POPC   C4A41574  36.124  19.846   7.355
 8728POPC   C1B41575  35.978  19.647   6.455
 8728POPC   C2B41576  35.966  19.651   6.755
 8728POPC   C3B41577  35.961  19.665   7.055
 8728POPC   C4B41578  36.020  19.613   7.355
 8729POPC   NC341579   4.302  28.332   5.555
 8729POPC   PO441580   4.330  28.328   5.855
 8729POPC   GL141581   4.267  28.353   6.155
 8729POPC   GL241582   4.308  28.247   6.155
 8729POPC   C1A41583   4.290  28.345   6.455
 8729POPC   D2A41584   4.345  28.386   6.755
 8729POPC   C3A41585   4.307  28.337   7.055
 8729POPC   C4A41586   4.357  28.354   7.355
 8729POPC   C1B41587   4.190  28.136   6.455
 8729POPC   C2B41588   4.191  28.096   6.755
 8729POPC   C3B41589   4.199  28.132   7.055
 8729POPC   C4B41590   4.181  28.189   7.355
 8730POPC   NC341591   6.677  31.450   5.555
 8730POPC   PO441592   6.607  31.475   5.855
 8730POPC   GL141593   6.656  31.435   6.155
 8730POPC   GL241594   6.782  31.432   6.155
 8730POPC   C1A41595   6.674  31.477   6.455
 8730POPC   D2A41596   6.684  31.483   6.755
 8730POPC   C3A41597   6.624  31.503   7.055
 8730POPC   C4A41598   6.680  31.447   7.355
 8730POPC   C1B41599   6.850  31.446   6.455
 8730POPC   C2B41600   6.851  31.490   6.755
 8730POPC   C3B41601   6.857  31.523   7.055
 8730POPC   C4B41602   6.847  31.452   7.355
 8731POPC   NC341603  23.695   5.873   5.555
 8731POPC   PO441604  23.763   5.884   5.855
 8731POPC   GL141605  23.690   5.886   6.155
 8731POPC   GL241606  23.651   5.760   6.155
 8731POPC   C1A41607  23.675   5.841   6.455
 8731POPC   D2A41608  23.693   5.821   6.755
 8731POPC   C3A41609  23.682   5.918   7.055
 8731POPC   C4A41610  23.760   5.828   7.355
 8731POPC   C1B41611  23.479   5.707   6.455
 8731POPC   C2B41612  23.530   5.755   6.755
 8731POPC   C3B41613  23.448   5.732   7.055
 8731POPC   C4B41614  23.464   5.775   7.355
 8732POPC   NC341615   0.403   6.647   5.555
 8732POPC   PO441616   0.487   6.689   5.855
 8732POPC   GL141617   0.460   6.627   6.155
 8732POPC   GL241618   0.281   6.652   6.155
 8732POPC   C1A41619   0.448   6.614   6.455
 8732POPC   D2A41620   0.448   6.617   6.755
 8732POPC   C3A41621   0.477   6.681   7.055
 8732POPC   C4A41622   0.418   6.635   7.355
 8732POPC   C1B41623   0.160   6.699   6.455
 8732POPC   C2B41624   0.158   6.772   6.755
 8732POPC   C3B41625   0.243   6.750   7.055
 8732POPC   C4B41626   0.199   6.683   7.355
 8733POPC   NC341627  17.523  40.002   5.555
 8733POPC   PO441628  17.518  40.024   5.855
 8733POPC   GL141629  17.464  39.995   6.155
 8733POPC   GL241630  17.387  40.038   6.155
 8733POPC   C1A41631  17.554  39.959   6.455
 8733POPC   D2A41632  17.534  39.960   6.755
 8733POPC   C3A41633  17.472  40.041   7.055
 8733POPC   C4A41634  17.507  39.971   7.355
 8733POPC   C1B41635  17.300  40.050   6.455
 8733POPC   C2B41636  17.222  40.101   6.755
 8733POPC   C3B41637  17.257  40.089   7.055
 8733POPC   C4B41638  17.248  40.018   7.355
 8734POPC   NC341639  30.722  44.687   5.555
 8734POPC   PO441640  30.740  44.666   5.855
 8734POPC   GL141641  30.740  44.634   6.155
 8734POPC   GL241642  30.564  44.621   6.155
 8734POPC   C1A41643  30.656  44.638   6.455
 8734POPC   D2A41644  30.695  44.635   6.755
 8734POPC   C3A41645  30.693  44.695   7.055
 8734POPC   C4A41646  30.739  44.620   7.355
 8734POPC   C1B41647  30.549  44.461   6.455
 8734POPC   C2B41648  30.529  44.460   6.755
 8734POPC   C3B41649  30.477  44.548   7.055
 8734POPC   C4B41650  30.464  44.533   7.355
 8735POPC   NC341651  12.894   2.762   5.555
 8735POPC   PO441652  12.807   2.721   5.855
 8735POPC   GL141653  12.868   2.815   6.155
 8735POPC   GL241654  13.001   2.767   6.155
 8735POPC   C1A41655  12.864   2.759   6.455
 8735POPC   D2A41656  12.827   2.735   6.755
 8735POPC   C3A41657  12.837   2.789   7.055
 8735POPC   C4A41658  12.870   2.794   7.355
 8735POPC   C1B41659  13.089   2.718   6.455
 8735POPC   C2B41660  13.057   2.733   6.755
 8735POPC   C3B41661  13.136   2.715   7.055
 8735POPC   C4B41662  13.127   2.754   7.355
 8736POPC   NC341663  26.062  26.866   5.555
 8736POPC   PO441664  26.076  26.830   5.855
 8736POPC   GL141665  26.068  26.850   6.155
 8736POPC   GL241666  26.093  26.883   6.155
 8736POPC   C1A41667  26.066  26.797   6.455
 8736POPC   D2A41668  26.067  26.843   6.755
 8736POPC   C3A41669  26.008  26.852   7.055
 8736POPC   C4A41670  26.008  26.834   7.355
 8736POPC   C1B41671  26.233  26.994   6.455
 8736POPC   C2B41672  26.211  26.965   6.755
 8736POPC   C3B41673  26.194  26.991   7.055
 8736POPC   C4B41674  26.234  26.988   7.355
 8737POPC   NC341675   8.975  19.872   5.555
 8737POPC   PO441676   9.017  19.801   5.855
 8737POPC   GL141677   8.994  19.786   6.155
 8737POPC   GL241678   8.876  19.861   6.155
 8737POPC   C1A41679   8.975  19.817   6.455
 8737POPC   D2A41680   8.948  19.873   6.755
 8737POPC   C3A41681   8.979  19.880   7.055
 8737POPC   C4A41682   8.929  19.860   7.355
 8737POPC   C1B41683   8.674  19.857   6.455
 8737POPC   C2B41684   8.717  19.895   6.755
 8737POPC   C3B41685   8.735  19.797   7.055
 8737POPC   C4B41686   8.690  19.874   7.355
 8738POPC   NC341687   1.262  29.882   5.555
 8738POPC   PO441688   1.206  29.938   5.855
 8738POPC   GL141689   1.209  29.872   6.155
 8738POPC   GL241690   1.102  29.952   6.155
 8738POPC   C1A41691   1.236  29.950   6.455
 8738POPC   D2A41692   1.225  29.880   6.755
 8738POPC   C3A41693   1.199  29.948   7.055
 8738POPC   C4A41694   1.219  29.958   7.355
 8738POPC   C1B41695   0.980  29.986   6.455
 8738POPC   C2B41696   1.006  30.049   6.755
 8738POPC   C3B41697   0.942  30.009   7.055
 8738POPC   C4B41698   0.990  30.030   7.355
 8739POPC   NC341699  35.336   4.268   5.555
 8739POPC   PO441700  35.354   4.335   5.855
 8739POPC   GL141701  35.308   4.287   6.155
 8739POPC   GL241702  35.223   4.420   6.155
 8739POPC   C1A41703  35.386   4.311   6.455
 8739POPC   D2A41704  35.304   4.328   6.755
 8739POPC   C3A41705  35.337   4.318   7.055
 8739POPC   C4A41706  35.316   4.334   7.355
 8739POPC   C1B41707  35.212   4.534   6.455
 8739POPC   C2B41708  35.197   4.494   6.755
 8739POPC   C3B41709  35.174   4.462   7.055
 8739POPC   C4B41710  35.196   4.527   7.355
 8740POPC   NC341711  13.644  39.241   5.555
 8740POPC   PO441712  13.661  39.263   5.855
 8740POPC   GL141713  13.589  39.235   6.155
 8740POPC   GL241714  13.766  39.211   6.155
 8740POPC   C1A41715  13.665  39.194   6.455
 8740POPC   D2A41716  13.640  39.261   6.755
 8740POPC   C3A41717  13.651  39.235   7.055
 8740POPC   C4A41718  13.618  39.181   7.355
 8740POPC   C1B41719  13.889  39.166   6.455
 8740POPC   C2B41720  13.848  39.151   6.755
 8740POPC   C3B41721  13.809  39.127   7.055
 8740POPC   C4B41722  13.894  39.120   7.355
 8741POPC   NC341723  14.451  36.946   5.555
 8741POPC   PO441724  14.380  36.854   5.855
 8741POPC   GL141725  14.416  36.950   6.155
 8741POPC   GL241726  14.340  36.867   6.155
 8741POPC   C1A41727  14.379  36.862   6.455
 8741POPC   D2A41728  14.386  36.941   6.755
 8741POPC   C3A41729  14.404  36.879   7.055
 8741POPC   C4A41730  14.436  36.857   7.355
 8741POPC   C1B41731  14.154  36.808   6.455
 8741POPC   C2B41732  14.234  36.742   6.755
 8741POPC   C3B41733  14.139  36.819   7.055
 8741POPC   C4B41734  14.235  36.787   7.355
 8742POPC   NC341735  24.465  15.218   5.555
 8742POPC   PO441736  24.497  15.228   5.855
 8742POPC   GL141737  24.468  15.171   6.155
 8742POPC   GL241738  24.560  15.100   6.155
 8742POPC   C1A41739  24.488  15.187   6.455
 8742POPC   D2A41740  24.461  15.219   6.755
 8742POPC   C3A41741  24.539  15.173   7.055
 8742POPC   C4A41742  24.531  15.172   7.355
 8742POPC   C1B41743  24.544  14.909   6.455
 8742POPC   C2B41744  24.592  14.909   6.755
 8742POPC   C3B41745  24.571  14.988   7.055
 8742POPC   C4B41746  24.573  14.916   7.355
 8743POPC   NC341747  16.744  10.556   5.555
 8743POPC   PO441748  16.696  10.489   5.855
 8743POPC   GL141749  16.752  10.554   6.155
 8743POPC   GL241750  16.812  10.652   6.155
 8743POPC   C1A41751  16.732  10.530   6.455
 8743POPC   D2A41752  16.762  10.475   6.755
 8743POPC   C3A41753  16.740  10.515   7.055
 8743POPC   C4A41754  16.739  10.489   7.355
 8743POPC   C1B41755  16.857  10.668   6.455
 8743POPC   C2B41756  16.928  10.745   6.755
 8743POPC   C3B41757  16.935  10.731   7.055
 8743POPC   C4B41758  16.944  10.670   7.355
 8744POPC   NC341759  29.944   5.864   5.555
 8744POPC   PO441760  29.900   5.842   5.855
 8744POPC   GL141761  29.955   5.875   6.155
 8744POPC   GL241762  29.955   6.011   6.155
 8744POPC   C1A41763  29.961   5.864   6.455
 8744POPC   D2A41764  29.942   5.914   6.755
 8744POPC   C3A41765  29.942   5.832   7.055
 8744POPC   C4A41766  29.943   5.843   7.355
 8744POPC   C1B41767  30.008   6.113   6.455
 8744POPC   C2B41768  30.044   6.118   6.755
 8744POPC   C3B41769  30.038   6.045   7.055
 8744POPC   C4B41770  30.027   6.033   7.355
 8745POPC   NC341771   8.151   2.011   5.555
 8745POPC   PO441772   8.200   1.993   5.855
 8745POPC   GL141773   8.198   2.029   6.155
 8745POPC   GL241774   8.109   1.971   6.155
 8745POPC   C1A41775   8.179   1.983   6.455
 8745POPC   D2A41776   8.199   1.983   6.755
 8745POPC   C3A41777   8.193   2.010   7.055
 8745POPC   C4A41778   8.151   2.028   7.355
 8745POPC   C1B41779   8.000   1.928   6.455
 8745POPC   C2B41780   7.950   1.927   6.755
 8745POPC   C3B41781   7.978   1.927   7.055
 8745POPC   C4B41782   8.000   1.975   7.355
 8746POPC   NC341783  22.191  23.679   5.555
 8746POPC   PO441784  22.208  23.757   5.855
 8746POPC   GL141785  22.169  23.698   6.155
 8746POPC   GL241786  22.207  23.609   6.155
 8746POPC   C1A41787  22.200  23.685   6.455
 8746POPC   D2A41788  22.191  23.666   6.755
 8746POPC   C3A41789  22.130  23.728   7.055
 8746POPC   C4A41790  22.116  23.754   7.355
 8746POPC   C1B41791  22.247  23.513   6.455
 8746POPC   C2B41792  22.311  23.502   6.755
 8746POPC   C3B41793  22.250  23.466   7.055
 8746POPC   C4B41794  22.331  23.486   7.355
 8747POPC   NC341795  39.276  13.603   5.555
 8747POPC   PO441796  39.202  13.581   5.855
 8747POPC   GL141797  39.235  13.588   6.155
 8747POPC   GL241798  39.230  13.506   6.155
 8747POPC   C1A41799  39.264  13.587   6.455
 8747POPC   D2A41800  39.245  13.655   6.755
 8747POPC   C3A41801  39.252  13.619   7.055
 8747POPC   C4A41802  39.190  13.613   7.355
 8747POPC   C1B41803  39.323  13.396   6.455
 8747POPC   C2B41804  39.285  13.343   6.755
 8747POPC   C3B41805  39.284  13.386   7.055
 8747POPC   C4B41806  39.269  13.390   7.355
 8748POPC   NC341807   9.780   9.790   5.555
 8748POPC   PO441808   9.736   9.790   5.855
 8748POPC   GL141809   9.748   9.794   6.155
 8748POPC   GL241810   9.887   9.686   6.155
 8748POPC   C1A41811   9.769   9.700   6.455
 8748POPC   D2A41812   9.776   9.767   6.755
 8748POPC   C3A41813   9.794   9.782   7.055
 8748POPC   C4A41814   9.738   9.745   7.355
 8748POPC   C1B41815   9.909   9.602   6.455
 8748POPC   C2B41816  10.001   9.635   6.755
 8748POPC   C3B41817  10.002   9.632   7.055
 8748POPC   C4B41818   9.909   9.591   7.355
 8749POPC   NC341819   7.452  41.537   5.555
 8749POPC   PO441820   7.410  41.603   5.855
 8749POPC   GL141821   7.457  41.563   6.155
 8749POPC   GL241822   7.360  41.667   6.155
 8749POPC   C1A41823   7.431  41.597   6.455
 8749POPC   D2A41824   7.433  41.578   6.755
 8749POPC   C3A41825   7.372  41.606   7.055
 8749POPC   C4A41826   7.387  41.517   7.355
 8749POPC   C1B41827   7.273  41.761   6.455
 8749POPC   C2B41828   7.303  41.738   6.755
 8749POPC   C3B41829   7.283  41.789   7.055
 8749POPC   C4B41830   7.298  41.772   7.355
 8750POPC   NC341831  38.467  23.696   5.555
 8750POPC   PO441832  38.408  23.735   5.855
 8750POPC   GL141833  38.479  23.710   6.155
 8750POPC   GL241834  38.595  23.772   6.155
 8750POPC   C1A41835  38.422  23.665   6.455
 8750POPC   D2A41836  38.493  23.711   6.755
 8750POPC   C3A41837  38.505  23.664   7.055
 8750POPC   C4A41838  38.498  23.677   7.355
 8750POPC   C1B41839  38.722  23.819   6.455
 8750POPC   C2B41840  38.666  23.835   6.755
 8750POPC   C3B41841  38.736  23.788   7.055
 8750POPC   C4B41842  38.706  23.820   7.355
 8751POPC   NC341843  24.478  11.297   5.555
 8751POPC   PO441844  24.480  11.325   5.855
 8751POPC   GL141845  24.532  11.291   6.155
 8751POPC   GL241846  24.475  11.401   6.155
 8751POPC   C1A41847  24.513  11.342   6.455
 8751POPC   D2A41848  24.521  11.277   6.755
 8751POPC   C3A41849  24.476  11.346   7.055
 8751POPC   C4A41850  24.509  11.284   7.355
 8751POPC   C1B41851  24.441  11.586   6.455
 8751POPC   C2B41852  24.444  11.540   6.755
 8751POPC   C3B41853  24.524  11.528   7.055
 8751POPC   C4B41854  24.454  11.505   7.355
 8752POPC   NC341855  19.034  36.915   5.555
 8752POPC   PO441856  19.055  36.946   5.855
 8752POPC   GL141857  19.086  36.874   6.155
 8752POPC   GL241858  19.001  37.047   6.155
 8752POPC   C1A41859  19.096  36.866   6.455
 8752POPC   D2A41860  19.106  36.915   6.755
 8752POPC   C3A41861  19.009  36.860   7.055
 8752POPC   C4A41862  19.034  36.871   7.355
 8752POPC   C1B41863  18.903  37.088   6.455
 8752POPC   C2B41864  18.942  37.079   6.755
 8752POPC   C3B41865  18.933  37.155   7.055
 8752POPC   C4B41866  18.889  37.091   7.355
 8753POPC   NC341867  31.443  12.822   5.555
 8753POPC   PO441868  31.486  12.823   5.855
 8753POPC   GL141869  31.478  12.883   6.155
 8753POPC   GL241870  31.479  12.957   6.155
 8753POPC   C1A41871  31.461  12.854   6.455
 8753POPC   D2A41872  31.495  12.894   6.755
 8753POPC   C3A41873  31.489  12.808   7.055
 8753POPC   C4A41874  31.425  12.899   7.355
 8753POPC   C1B41875  31.444  13.063   6.455
 8753POPC   C2B41876  31.411  13.139   6.755
 8753POPC   C3B41877  31.399  13.115   7.055
 8753POPC   C4B41878  31.445  13.100   7.355
 8754POPC   NC341879   2.749  34.561   5.555
 8754POPC   PO441880   2.727  34.527   5.855
 8754POPC   GL141881   2.757  34.587   6.155
 8754POPC   GL241882   2.904  34.613   6.155
 8754POPC   C1A41883   2.798  34.565   6.455
 8754POPC   D2A41884   2.789  34.594   6.755
 8754POPC   C3A41885   2.729  34.541   7.055
 8754POPC   C4A41886   2.739  34.564   7.355
 8754POPC   C1B41887   2.966  34.606   6.455
 8754POPC   C2B41888   3.025  34.686   6.755
 8754POPC   C3B41889   3.010  34.690   7.055
 8754POPC   C4B41890   2.968  34.653   7.355
 8755POPC   NC341891   1.207  20.604   5.555
 8755POPC   PO441892   1.167  20.654   5.855
 8755POPC   GL141893   1.222  20.579   6.155
 8755POPC   GL241894   1.172  20.466   6.155
 8755POPC   C1A41895   1.230  20.645   6.455
 8755POPC   D2A41896   1.241  20.634   6.755
 8755POPC   C3A41897   1.216  20.651   7.055
 8755POPC   C4A41898   1.189  20.621   7.355
 8755POPC   C1B41899   1.099  20.371   6.455
 8755POPC   C2B41900   1.047  20.429   6.755
 8755POPC   C3B41901   1.043  20.388   7.055
 8755POPC   C4B41902   1.128  20.431   7.355
 8756POPC   NC341903  11.269   1.261   5.555
 8756POPC   PO441904  11.278   1.177   5.855
 8756POPC   GL141905  11.336   1.247   6.155
 8756POPC   GL241906  11.335   1.063   6.155
 8756POPC   C1A41907  11.295   1.175   6.455
 8756POPC   D2A41908  11.295   1.193   6.755
 8756POPC   C3A41909  11.278   1.246   7.055
 8756POPC   C4A41910  11.277   1.262   7.355
 8756POPC   C1B41911  11.343   0.990   6.455
 8756POPC   C2B41912  11.309   1.000   6.755
 8756POPC   C3B41913  11.269   0.957   7.055
 8756POPC   C4B41914  11.284   0.971   7.355
 8757POPC   NC341915  22.895  29.938   5.555
 8757POPC   PO441916  22.965  29.899   5.855
 8757POPC   GL141917  22.892  29.942   6.155
 8757POPC   GL241918  22.948  30.050   6.155
 8757POPC   C1A41919  22.893  29.937   6.455
 8757POPC   D2A41920  22.961  29.960   6.755
 8757POPC   C3A41921  22.976  29.878   7.055
 8757POPC   C4A41922  22.942  29.952   7.355
 8757POPC   C1B41923  23.033  30.137   6.455
 8757POPC   C2B41924  22.971  30.149   6.755
 8757POPC   C3B41925  23.017  30.196   7.055
 8757POPC   C4B41926  22.984  30.109   7.355
 8758POPC   NC341927   1.197  23.729   5.555
 8758POPC   PO441928   1.260  23.743   5.855
 8758POPC   GL141929   1.231  23.706   6.155
 8758POPC   GL241930   1.380  23.717   6.155
 8758POPC   C1A41931   1.250  23.681   6.455
 8758POPC   D2A41932   1.240  23.734   6.755
 8758POPC   C3A41933   1.193  23.716   7.055
 8758POPC   C4A41934   1.172  23.696   7.355
 8758POPC   C1B41935   1.454  23.828   6.455
 8758POPC   C2B41936   1.438  23.791   6.755
 8758POPC   C3B41937   1.426  23.802   7.055
 8758POPC   C4B41938   1.420  23.793   7.355
 8759POPC   NC341939   3.562   8.153   5.555
 8759POPC   PO441940   3.552   8.240   5.855
 8759POPC   GL141941   3.524   8.154   6.155
 8759POPC   GL241942   3.410   8.180   6.155
 8759POPC   C1A41943   3.548   8.187   6.455
 8759POPC   D2A41944   3.543   8.237   6.755
 8759POPC   C3A41945   3.546   8.242   7.055
 8759POPC   C4A41946   3.512   8.193   7.355
 8759POPC   C1B41947   3.330   8.172   6.455
 8759POPC   C2B41948   3.340   8.150   6.755
 8759POPC   C3B41949   3.282   8.246   7.055
 8759POPC   C4B41950   3.335   8.164   7.355
 8760POPC   NC341951  43.892  33.040   5.555
 8760POPC   PO441952  43.898  33.003   5.855
 8760POPC   GL141953  43.928  32.982   6.155
 8760POPC   GL241954  43.933  33.199   6.155
 8760POPC   C1A41955  43.845  32.997   6.455
 8760POPC   D2A41956  43.917  33.012   6.755
 8760POPC   C3A41957  43.900  32.992   7.055
 8760POPC   C4A41958  43.880  33.061   7.355
 8760POPC   C1B41959  43.932  33.306   6.455
 8760POPC   C2B41960  43.915  33.267   6.755
 8760POPC   C3B41961  43.865  33.227   7.055
 8760POPC   C4B41962  43.880  33.275   7.355
 8761POPC   NC341963  33.774   5.112   5.555
 8761POPC   PO441964  33.756   5.070   5.855
 8761POPC   GL141965  33.771   5.109   6.155
 8761POPC   GL241966  33.646   5.061   6.155
 8761POPC   C1A41967  33.754   5.119   6.455
 8761POPC   D2A41968  33.837   5.100   6.755
 8761POPC   C3A41969  33.763   5.061   7.055
 8761POPC   C4A41970  33.804   5.066   7.355
 8761POPC   C1B41971  33.555   5.021   6.455
 8761POPC   C2B41972  33.594   4.964   6.755
 8761POPC   C3B41973  33.534   4.936   7.055
 8761POPC   C4B41974  33.624   5.024   7.355
 8762POPC   NC341975  13.643  29.957   5.555
 8762POPC   PO441976  13.639  29.903   5.855
 8762POPC   GL141977  13.650  29.916   6.155
 8762POPC   GL241978  13.474  29.895   6.155
 8762POPC   C1A41979  13.666  29.954   6.455
 8762POPC   D2A41980  13.664  29.952   6.755
 8762POPC   C3A41981  13.639  29.926   7.055
 8762POPC   C4A41982  13.596  29.873   7.355
 8762POPC   C1B41983  13.408  29.890   6.455
 8762POPC   C2B41984  13.328  29.884   6.755
 8762POPC   C3B41985  13.336  29.912   7.055
 8762POPC   C4B41986  13.368  29.948   7.355
 8763POPC   NC341987   8.924  22.185   5.555
 8763POPC   PO441988   8.945  22.188   5.855
 8763POPC   GL141989   8.962  22.118   6.155
 8763POPC   GL241990   8.863  22.214   6.155
 8763POPC   C1A41991   8.934  22.179   6.455
 8763POPC   D2A41992   9.002  22.128   6.755
 8763POPC   C3A41993   8.943  22.179   7.055
 8763POPC   C4A41994   8.957  22.200   7.355
 8763POPC   C1B41995   8.828  22.387   6.455
 8763POPC   C2B41996   8.797  22.396   6.755
 8763POPC   C3B41997   8.809  22.319   7.055
 8763POPC   C4B41998   8.796  22.378   7.355
 8764POPC   NC341999   5.887  37.670   5.555
 8764POPC   PO442000   5.865  37.651   5.855
 8764POPC   GL142001   5.833  37.677   6.155
 8764POPC   GL242002   5.800  37.741   6.155
 8764POPC   C1A42003   5.825  37.671   6.455
 8764POPC   D2A42004   5.841  37.703   6.755
 8764POPC   C3A42005   5.904  37.650   7.055
 8764POPC   C4A42006   5.865  37.715   7.355
 8764POPC   C1B42007   5.666  37.853   6.455
 8764POPC   C2B42008   5.665  37.854   6.755
 8764POPC   C3B42009   5.667  37.801   7.055
 8764POPC   C4B42010   5.680  37.803   7.355
 8765POPC   NC342011  41.534   3.515   5.555
 8765POPC   PO442012  41.541   3.574   5.855
 8765POPC   GL142013  41.556   3.537   6.155
 8765POPC   GL242014  41.530   3.458   6.155
 8765POPC   C1A42015  41.586   3.492   6.455
 8765POPC   D2A42016  41.589   3.570   6.755
 8765POPC   C3A42017  41.528   3.529   7.055
 8765POPC   C4A42018  41.530   3.547   7.355
 8765POPC   C1B42019  41.440   3.364   6.455
 8765POPC   C2B42020  41.452   3.340   6.755
 8765POPC   C3B42021  41.384   3.302   7.055
 8765POPC   C4B42022  41.447   3.321   7.355
 8766POPC   NC342023  29.874  37.717   5.555
 8766POPC   PO442024  29.874  37.657   5.855
 8766POPC   GL142025  29.933  37.685   6.155
 8766POPC   GL242026  30.072  37.604   6.155
 8766POPC   C1A42027  29.888  37.693   6.455
 8766POPC   D2A42028  29.968  37.659   6.755
 8766POPC   C3A42029  29.888  37.721   7.055
 8766POPC   C4A42030  29.946  37.649   7.355
 8766POPC   C1B42031  30.175  37.577   6.455
 8766POPC   C2B42032  30.152  37.541   6.755
 8766POPC   C3B42033  30.191  37.565   7.055
 8766POPC   C4B42034  30.130  37.593   7.355
 8767POPC   NC342035  34.583  24.526   5.555
 8767POPC   PO442036  34.578  24.443   5.855
 8767POPC   GL142037  34.554  24.504   6.155
 8767POPC   GL242038  34.431  24.483   6.155
 8767POPC   C1A42039  34.589  24.490   6.455
 8767POPC   D2A42040  34.569  24.478   6.755
 8767POPC   C3A42041  34.539  24.458   7.055
 8767POPC   C4A42042  34.557  24.486   7.355
 8767POPC   C1B42043  34.318  24.492   6.455
 8767POPC   C2B42044  34.323  24.539   6.755
 8767POPC   C3B42045  34.350  24.460   7.055
 8767POPC   C4B42046  34.372  24.547   7.355
 8768POPC   NC342047  19.061  25.276   5.555
 8768POPC   PO442048  19.104  25.222   5.855
 8768POPC   GL142049  19.012  25.282   6.155
 8768POPC   GL242050  18.990  25.185   6.155
 8768POPC   C1A42051  19.067  25.293   6.455
 8768POPC   D2A42052  19.106  25.298   6.755
 8768POPC   C3A42053  19.032  25.309   7.055
 8768POPC   C4A42054  19.025  25.272   7.355
 8768POPC   C1B42055  18.878  25.092   6.455
 8768POPC   C2B42056  18.863  25.088   6.755
 8768POPC   C3B42057  18.878  25.132   7.055
 8768POPC   C4B42058  18.846  25.154   7.355
 8769POPC   NC342059  15.182  19.824   5.555
 8769POPC   PO442060  15.155  19.787   5.855
 8769POPC   GL142061  15.146  19.868   6.155
 8769POPC   GL242062  15.243  19.747   6.155
 8769POPC   C1A42063  15.206  19.852   6.455
 8769POPC   D2A42064  15.201  19.804   6.755
 8769POPC   C3A42065  15.174  19.786   7.055
 8769POPC   C4A42066  15.160  19.850   7.355
 8769POPC   C1B42067  15.245  19.620   6.455
 8769POPC   C2B42068  15.178  19.625   6.755
 8769POPC   C3B42069  15.185  19.558   7.055
 8769POPC   C4B42070  15.175  19.590   7.355
 8770POPC   NC342071  12.096  40.033   5.555
 8770POPC   PO442072  12.093  39.964   5.855
 8770POPC   GL142073  12.096  40.000   6.155
 8770POPC   GL242074  11.975  40.157   6.155
 8770POPC   C1A42075  12.067  40.002   6.455
 8770POPC   D2A42076  12.077  40.018   6.755
 8770POPC   C3A42077  12.036  39.962   7.055
 8770POPC   C4A42078  12.121  39.975   7.355
 8770POPC   C1B42079  11.950  40.224   6.455
 8770POPC   C2B42080  11.910  40.234   6.755
 8770POPC   C3B42081  11.963  40.169   7.055
 8770POPC   C4B42082  11.963  40.213   7.355
 8771POPC   NC342083  23.711  14.369   5.555
 8771POPC   PO442084  23.672  14.406   5.855
 8771POPC   GL142085  23.671  14.451   6.155
 8771POPC   GL242086  23.613  14.368   6.155
 8771POPC   C1A42087  23.679  14.417   6.455
 8771POPC   D2A42088  23.727  14.450   6.755
 8771POPC   C3A42089  23.683  14.423   7.055
 8771POPC   C4A42090  23.720  14.364   7.355
 8771POPC   C1B42091  23.504  14.299   6.455
 8771POPC   C2B42092  23.513  14.310   6.755
 8771POPC   C3B42093  23.449  14.309   7.055
 8771POPC   C4B42094  23.495  14.309   7.355
 8772POPC   NC342095  22.956  17.524   5.555
 8772POPC   PO442096  22.901  17.530   5.855
 8772POPC   GL142097  22.962  17.519   6.155
 8772POPC   GL242098  22.892  17.366   6.155
 8772POPC   C1A42099  22.955  17.481   6.455
 8772POPC   D2A42100  22.980  17.517   6.755
 8772POPC   C3A42101  22.896  17.459   7.055
 8772POPC   C4A42102  22.962  17.463   7.355
 8772POPC   C1B42103  22.886  17.269   6.455
 8772POPC   C2B42104  22.829  17.219   6.755
 8772POPC   C3B42105  22.912  17.232   7.055
 8772POPC   C4B42106  22.865  17.303   7.355
 8773POPC   NC342107   3.509  22.964   5.555
 8773POPC   PO442108   3.590  22.908   5.855
 8773POPC   GL142109   3.576  22.906   6.155
 8773POPC   GL242110   3.506  23.099   6.155
 8773POPC   C1A42111   3.543  22.975   6.455
 8773POPC   D2A42112   3.516  22.912   6.755
 8773POPC   C3A42113   3.492  22.981   7.055
 8773POPC   C4A42114   3.570  22.917   7.355
 8773POPC   C1B42115   3.516  23.150   6.455
 8773POPC   C2B42116   3.508  23.163   6.755
 8773POPC   C3B42117   3.488  23.128   7.055
 8773POPC   C4B42118   3.490  23.213   7.355
 8774POPC   NC342119   7.418  32.235   5.555
 8774POPC   PO442120   7.471  32.229   5.855
 8774POPC   GL142121   7.401  32.285   6.155
 8774POPC   GL242122   7.521  32.294   6.155
 8774POPC   C1A42123   7.383  32.211   6.455
 8774POPC   D2A42124   7.420  32.281   6.755
 8774POPC   C3A42125   7.470  32.227   7.055
 8774POPC   C4A42126   7.407  32.216   7.355
 8774POPC   C1B42127   7.612  32.374   6.455
 8774POPC   C2B42128   7.654  32.346   6.755
 8774POPC   C3B42129   7.600  32.427   7.055
 8774POPC   C4B42130   7.611  32.406   7.355
 8775POPC   NC342131  14.439   1.185   5.555
 8775POPC   PO442132  14.407   1.192   5.855
 8775POPC   GL142133  14.382   1.209   6.155
 8775POPC   GL242134  14.499   1.329   6.155
 8775POPC   C1A42135  14.404   1.262   6.455
 8775POPC   D2A42136  14.434   1.192   6.755
 8775POPC   C3A42137  14.397   1.248   7.055
 8775POPC   C4A42138  14.370   1.167   7.355
 8775POPC   C1B42139  14.534   1.359   6.455
 8775POPC   C2B42140  14.538   1.436   6.755
 8775POPC   C3B42141  14.605   1.434   7.055
 8775POPC   C4B42142  14.566   1.422   7.355
 8776POPC   NC342143  12.125  42.294   5.555
 8776POPC   PO442144  12.102  42.375   5.855
 8776POPC   GL142145  12.097  42.314   6.155
 8776POPC   GL242146  12.231  42.354   6.155
 8776POPC   C1A42147  12.071  42.318   6.455
 8776POPC   D2A42148  12.109  42.340   6.755
 8776POPC   C3A42149  12.039  42.332   7.055
 8776POPC   C4A42150  12.120  42.379   7.355
 8776POPC   C1B42151  12.252  42.493   6.455
 8776POPC   C2B42152  12.304  42.480   6.755
 8776POPC   C3B42153  12.253  42.457   7.055
 8776POPC   C4B42154  12.331  42.427   7.355
 8777POPC   NC342155  12.031  11.326   5.555
 8777POPC   PO442156  12.046  11.268   5.855
 8777POPC   GL142157  12.113  11.306   6.155
 8777POPC   GL242158  12.108  11.185   6.155
 8777POPC   C1A42159  12.061  11.288   6.455
 8777POPC   D2A42160  12.068  11.338   6.755
 8777POPC   C3A42161  12.086  11.312   7.055
 8777POPC   C4A42162  12.041  11.253   7.355
 8777POPC   C1B42163  12.226  11.110   6.455
 8777POPC   C2B42164  12.213  11.067   6.755
 8777POPC   C3B42165  12.184  11.050   7.055
 8777POPC   C4B42166  12.225  11.052   7.355
 8778POPC   NC342167  29.930  12.104   5.555
 8778POPC   PO442168  29.929  12.101   5.855
 8778POPC   GL142169  29.931  12.121   6.155
 8778POPC   GL242170  29.999  12.065   6.155
 8778POPC   C1A42171  29.894  12.073   6.455
 8778POPC   D2A42172  29.919  12.026   6.755
 8778POPC   C3A42173  29.919  12.115   7.055
 8778POPC   C4A42174  29.937  12.028   7.355
 8778POPC   C1B42175  30.159  12.051   6.455
 8778POPC   C2B42176  30.123  11.990   6.755
 8778POPC   C3B42177  30.161  11.986   7.055
 8778POPC   C4B42178  30.208  12.028   7.355
 8779POPC   NC342179  20.634  30.713   5.555
 8779POPC   PO442180  20.564  30.647   5.855
 8779POPC   GL142181  20.582  30.723   6.155
 8779POPC   GL242182  20.715  30.825   6.155
 8779POPC   C1A42183  20.578  30.732   6.455
 8779POPC   D2A42184  20.627  30.736   6.755
 8779POPC   C3A42185  20.650  30.652   7.055
 8779POPC   C4A42186  20.605  30.699   7.355
 8779POPC   C1B42187  20.772  30.891   6.455
 8779POPC   C2B42188  20.740  30.894   6.755
 8779POPC   C3B42189  20.795  30.929   7.055
 8779POPC   C4B42190  20.746  30.884   7.355
 8780POPC   NC342191  10.555  15.191   5.555
 8780POPC   PO442192  10.551  15.209   5.855
 8780POPC   GL142193  10.478  15.133   6.155
 8780POPC   GL242194  10.661  15.254   6.155
 8780POPC   C1A42195  10.500  15.218   6.455
 8780POPC   D2A42196  10.557  15.181   6.755
 8780POPC   C3A42197  10.559  15.189   7.055
 8780POPC   C4A42198  10.528  15.172   7.355
 8780POPC   C1B42199  10.782  15.260   6.455
 8780POPC   C2B42200  10.717  15.301   6.755
 8780POPC   C3B42201  10.748  15.214   7.055
 8780POPC   C4B42202  10.809  15.262   7.355
 8781POPC   NC342203  29.940  35.306   5.555
 8781POPC   PO442204  29.871  35.397   5.855
 8781POPC   GL142205  29.969  35.329   6.155
 8781POPC   GL242206  29.972  35.272   6.155
 8781POPC   C1A42207  29.888  35.394   6.455
 8781POPC   D2A42208  29.939  35.387   6.755
 8781POPC   C3A42209  29.945  35.359   7.055
 8781POPC   C4A42210  29.904  35.307   7.355
 8781POPC   C1B42211  30.123  35.207   6.455
 8781POPC   C2B42212  30.136  35.191   6.755
 8781POPC   C3B42213  30.124  35.210   7.055
 8781POPC   C4B42214  30.129  35.183   7.355
 8782POPC   NC342215   1.262  19.794   5.555
 8782POPC   PO442216   1.192  19.828   5.855
 8782POPC   GL142217   1.214  19.831   6.155
 8782POPC   GL242218   1.116  19.848   6.155
 8782POPC   C1A42219   1.213  19.797   6.455
 8782POPC   D2A42220   1.258  19.864   6.755
 8782POPC   C3A42221   1.222  19.831   7.055
 8782POPC   C4A42222   1.247  19.810   7.355
 8782POPC   C1B42223   1.006  19.854   6.455
 8782POPC   C2B42224   0.948  19.920   6.755
 8782POPC   C3B42225   0.950  19.893   7.055
 8782POPC   C4B42226   0.958  19.854   7.355
 8783POPC   NC342227  39.218  12.053   5.555
 8783POPC   PO442228  39.182  12.122   5.855
 8783POPC   GL142229  39.251  12.042   6.155
 8783POPC   GL242230  39.343  12.096   6.155
 8783POPC   C1A42231  39.244  12.097   6.455
 8783POPC   D2A42232  39.220  12.036   6.755
 8783POPC   C3A42233  39.195  12.098   7.055
 8783POPC   C4A42234  39.247  12.045   7.355
 8783POPC   C1B42235  39.511  12.154   6.455
 8783POPC   C2B42236  39.520  12.147   6.755
 8783POPC   C3B42237  39.504  12.112   7.055
 8783POPC   C4B42238  39.517  12.175   7.355
 8784POPC   NC342239   1.998  29.163   5.555
 8784POPC   PO442240   1.992  29.178   5.855
 8784POPC   GL142241   1.983  29.161   6.155
 8784POPC   GL242242   1.865  29.207   6.155
 8784POPC   C1A42243   1.942  29.191   6.455
 8784POPC   D2A42244   1.944  29.191   6.755
 8784POPC   C3A42245   1.973  29.150   7.055
 8784POPC   C4A42246   1.985  29.171   7.355
 8784POPC   C1B42247   1.767  29.229   6.455
 8784POPC   C2B42248   1.766  29.172   6.755
 8784POPC   C3B42249   1.780  29.166   7.055
 8784POPC   C4B42250   1.756  29.203   7.355
 8785POPC   NC342251  40.789   4.306   5.555
 8785POPC   PO442252  40.814   4.281   5.855
 8785POPC   GL142253  40.818   4.346   6.155
 8785POPC   GL242254  40.818   4.394   6.155
 8785POPC   C1A42255  40.735   4.306   6.455
 8785POPC   D2A42256  40.746   4.354   6.755
 8785POPC   C3A42257  40.791   4.296   7.055
 8785POPC   C4A42258  40.774   4.310   7.355
 8785POPC   C1B42259  40.810   4.552   6.455
 8785POPC   C2B42260  40.839   4.608   6.755
 8785POPC   C3B42261  40.850   4.539   7.055
 8785POPC   C4B42262  40.803   4.608   7.355
 8786POPC   NC342263  24.477  22.138   5.555
 8786POPC   PO442264  24.486  22.116   5.855
 8786POPC   GL142265  24.496  22.158   6.155
 8786POPC   GL242266  24.616  22.224   6.155
 8786POPC   C1A42267  24.447  22.176   6.455
 8786POPC   D2A42268  24.515  22.204   6.755
 8786POPC   C3A42269  24.505  22.155   7.055
 8786POPC   C4A42270  24.525  22.163   7.355
 8786POPC   C1B42271  24.736  22.253   6.455
 8786POPC   C2B42272  24.707  22.316   6.755
 8786POPC   C3B42273  24.710  22.236   7.055
 8786POPC   C4B42274  24.714  22.285   7.355
 8787POPC   NC342275   0.421  44.691   5.555
 8787POPC   PO442276   0.427  44.697   5.855
 8787POPC   GL142277   0.455  44.685   6.155
 8787POPC   GL242278   0.476  44.742   6.155
 8787POPC   C1A42279   0.486  44.613   6.455
 8787POPC   D2A42280   0.401  44.710   6.755
 8787POPC   C3A42281   0.389  44.649   7.055
 8787POPC   C4A42282   0.468  44.695   7.355
 8787POPC   C1B42283   0.561  44.828   6.455
 8787POPC   C2B42284   0.590  44.867   6.755
 8787POPC   C3B42285   0.551  44.838   7.055
 8787POPC   C4B42286   0.615  44.833   7.355
 8788POPC   NC342287  16.730  15.139   5.555
 8788POPC   PO442288  16.726  15.200   5.855
 8788POPC   GL142289  16.713  15.148   6.155
 8788POPC   GL242290  16.744  15.054   6.155
 8788POPC   C1A42291  16.748  15.159   6.455
 8788POPC   D2A42292  16.752  15.179   6.755
 8788POPC   C3A42293  16.716  15.138   7.055
 8788POPC   C4A42294  16.765  15.181   7.355
 8788POPC   C1B42295  16.634  14.903   6.455
 8788POPC   C2B42296  16.702  14.957   6.755
 8788POPC   C3B42297  16.707  14.889   7.055
 8788POPC   C4B42298  16.673  14.896   7.355
 8789POPC   NC342299   0.417  30.725   5.555
 8789POPC   PO442300   0.486  30.690   5.855
 8789POPC   GL142301   0.476  30.739   6.155
 8789POPC   GL242302   0.541  30.659   6.155
 8789POPC   C1A42303   0.393  30.680   6.455
 8789POPC   D2A42304   0.422  30.670   6.755
 8789POPC   C3A42305   0.392  30.665   7.055
 8789POPC   C4A42306   0.445  30.729   7.355
 8789POPC   C1B42307   0.734  30.710   6.455
 8789POPC   C2B42308   0.686  30.735   6.755
 8789POPC   C3B42309   0.666  30.673   7.055
 8789POPC   C4B42310   0.718  30.677   7.355
 8790POPC   NC342311  20.633  33.018   5.555
 8790POPC   PO442312  20.582  33.059   5.855
 8790POPC   GL142313  20.592  33.062   6.155
 8790POPC   GL242314  20.691  33.024   6.155
 8790POPC   C1A42315  20.651  33.028   6.455
 8790POPC   D2A42316  20.602  32.993   6.755
 8790POPC   C3A42317  20.634  32.980   7.055
 8790POPC   C4A42318  20.578  33.039   7.355
 8790POPC   C1B42319  20.886  32.972   6.455
 8790POPC   C2B42320  20.818  33.003   6.755
 8790POPC   C3B42321  20.834  32.991   7.055
 8790POPC   C4B42322  20.819  33.004   7.355
 8791POPC   NC342323  40.791   5.094   5.555
 8791POPC   PO442324  40.811   5.085   5.855
 8791POPC   GL142325  40.769   5.115   6.155
 8791POPC   GL242326  40.640   5.025   6.155
 8791POPC   C1A42327  40.759   5.133   6.455
 8791POPC   D2A42328  40.775   5.115   6.755
 8791POPC   C3A42329  40.746   5.068   7.055
 8791POPC   C4A42330  40.828   5.115   7.355
 8791POPC   C1B42331  40.591   5.010   6.455
 8791POPC   C2B42332  40.546   5.005   6.755
 8791POPC   C3B42333  40.541   4.928   7.055
 8791POPC   C4B42334  40.532   4.986   7.355
 8792POPC   NC342335  31.467  22.116   5.555
 8792POPC   PO442336  31.520  22.172   5.855
 8792POPC   GL142337  31.459  22.190   6.155
 8792POPC   GL242338  31.640  22.152   6.155
 8792POPC   C1A42339  31.470  22.212   6.455
 8792POPC   D2A42340  31.441  22.152   6.755
 8792POPC   C3A42341  31.489  22.181   7.055
 8792POPC   C4A42342  31.477  22.114   7.355
 8792POPC   C1B42343  31.752  22.129   6.455
 8792POPC   C2B42344  31.674  22.134   6.755
 8792POPC   C3B42345  31.708  22.173   7.055
 8792POPC   C4B42346  31.697  22.145   7.355
 8793POPC   NC342347   9.004  17.489   5.555
 8793POPC   PO442348   8.966  17.515   5.855
 8793POPC   GL142349   9.009  17.537   6.155
 8793POPC   GL242350   9.124  17.524   6.155
 8793POPC   C1A42351   8.972  17.471   6.455
 8793POPC   D2A42352   8.986  17.459   6.755
 8793POPC   C3A42353   8.935  17.458   7.055
 8793POPC   C4A42354   8.974  17.554   7.355
 8793POPC   C1B42355   9.244  17.427   6.455
 8793POPC   C2B42356   9.216  17.513   6.755
 8793POPC   C3B42357   9.177  17.509   7.055
 8793POPC   C4B42358   9.229  17.468   7.355
 8794POPC   NC342359   5.874  40.830   5.555
 8794POPC   PO442360   5.888  40.753   5.855
 8794POPC   GL142361   5.829  40.790   6.155
 8794POPC   GL242362   5.958  40.676   6.155
 8794POPC   C1A42363   5.836  40.750   6.455
 8794POPC   D2A42364   5.888  40.763   6.755
 8794POPC   C3A42365   5.902  40.746   7.055
 8794POPC   C4A42366   5.894  40.770   7.355
 8794POPC   C1B42367   6.042  40.589   6.455
 8794POPC   C2B42368   5.998  40.561   6.755
 8794POPC   C3B42369   6.010  40.642   7.055
 8794POPC   C4B42370   6.048  40.607   7.355
 8795POPC   NC342371  12.066  10.494   5.555
 8795POPC   PO442372  12.062  10.572   5.855
 8795POPC   GL142373  12.044  10.523   6.155
 8795POPC   GL242374  12.194  10.422   6.155
 8795POPC   C1A42375  12.048  10.511   6.455
 8795POPC   D2A42376  12.116  10.495   6.755
 8795POPC   C3A42377  12.116  10.528   7.055
 8795POPC   C4A42378  12.072  10.495   7.355
 8795POPC   C1B42379  12.283  10.319   6.455
 8795POPC   C2B42380  12.245  10.307   6.755
 8795POPC   C3B42381  12.232  10.316   7.055
 8795POPC   C4B42382  12.297  10.334   7.355
 8796POPC   NC342383  35.320   0.436   5.555
 8796POPC   PO442384  35.322   0.411   5.855
 8796POPC   GL142385  35.368   0.468   6.155
 8796POPC   GL242386  35.372   0.535   6.155
 8796POPC   C1A42387  35.350   0.479   6.455
 8796POPC   D2A42388  35.325   0.457   6.755
 8796POPC   C3A42389  35.390   0.435   7.055
 8796POPC   C4A42390  35.384   0.406   7.355
 8796POPC   C1B42391  35.397   0.652   6.455
 8796POPC   C2B42392  35.427   0.666   6.755
 8796POPC   C3B42393  35.463   0.667   7.055
 8796POPC   C4B42394  35.443   0.692   7.355
 8797POPC   NC342395  28.400  27.581   5.555
 8797POPC   PO442396  28.402  27.555   5.855
 8797POPC   GL142397  28.415  27.608   6.155
 8797POPC   GL242398  28.230  27.513   6.155
 8797POPC   C1A42399  28.409  27.568   6.455
 8797POPC   D2A42400  28.338  27.615   6.755
 8797POPC   C3A42401  28.331  27.545   7.055
 8797POPC   C4A42402  28.390  27.632   7.355
 8797POPC   C1B42403  28.177  27.379   6.455
 8797POPC   C2B42404  28.192  27.383   6.755
 8797POPC   C3B42405  28.183  27.478   7.055
 8797POPC   C4B42406  28.184  27.443   7.355
 8798POPC   NC342407  34.565  35.327   5.555
 8798POPC   PO442408  34.611  35.361   5.855
 8798POPC   GL142409  34.613  35.336   6.155
 8798POPC   GL242410  34.620  35.219   6.155
 8798POPC   C1A42411  34.603  35.339   6.455
 8798POPC   D2A42412  34.542  35.341   6.755
 8798POPC   C3A42413  34.557  35.325   7.055
 8798POPC   C4A42414  34.579  35.399   7.355
 8798POPC   C1B42415  34.583  35.132   6.455
 8798POPC   C2B42416  34.614  35.147   6.755
 8798POPC   C3B42417  34.558  35.129   7.055
 8798POPC   C4B42418  34.580  35.063   7.355
 8799POPC   NC342419  15.144   9.781   5.555
 8799POPC   PO442420  15.165   9.773   5.855
 8799POPC   GL142421  15.155   9.719   6.155
 8799POPC   GL242422  15.297   9.699   6.155
 8799POPC   C1A42423  15.193   9.754   6.455
 8799POPC   D2A42424  15.188   9.792   6.755
 8799POPC   C3A42425  15.164   9.786   7.055
 8799POPC   C4A42426  15.170   9.789   7.355
 8799POPC   C1B42427  15.423   9.725   6.455
 8799POPC   C2B42428  15.465   9.763   6.755
 8799POPC   C3B42429  15.432   9.755   7.055
 8799POPC   C4B42430  15.392   9.761   7.355
 8800POPC   NC342431  36.911  43.122   5.555
 8800POPC   PO442432  36.904  43.118   5.855
 8800POPC   GL142433  36.868  43.111   6.155
 8800POPC   GL242434  36.847  42.982   6.155
 8800POPC   C1A42435  36.934  43.153   6.455
 8800POPC   D2A42436  36.879  43.097   6.755
 8800POPC   C3A42437  36.914  43.115   7.055
 8800POPC   C4A42438  36.878  43.117   7.355
 8800POPC   C1B42439  36.699  42.918   6.455
 8800POPC   C2B42440  36.796  42.937   6.755
 8800POPC   C3B42441  36.767  42.952   7.055
 8800POPC   C4B42442  36.714  42.909   7.355
 8801POPC   NC342443  19.851  11.251   5.555
 8801POPC   PO442444  19.873  11.326   5.855
 8801POPC   GL142445  19.862  11.310   6.155
 8801POPC   GL242446  19.894  11.411   6.155
 8801POPC   C1A42447  19.789  11.274   6.455
 8801POPC   D2A42448  19.875  11.331   6.755
 8801POPC   C3A42449  19.874  11.311   7.055
 8801POPC   C4A42450  19.825  11.341   7.355
 8801POPC   C1B42451  19.887  11.589   6.455
 8801POPC   C2B42452  19.869  11.498   6.755
 8801POPC   C3B42453  19.849  11.498   7.055
 8801POPC   C4B42454  19.886  11.500   7.355
 8802POPC   NC342455  28.393  23.712   5.555
 8802POPC   PO442456  28.405  23.742   5.855
 8802POPC   GL142457  28.332  23.666   6.155
 8802POPC   GL242458  28.413  23.587   6.155
 8802POPC   C1A42459  28.404  23.676   6.455
 8802POPC   D2A42460  28.346  23.691   6.755
 8802POPC   C3A42461  28.333  23.671   7.055
 8802POPC   C4A42462  28.324  23.748   7.355
 8802POPC   C1B42463  28.378  23.507   6.455
 8802POPC   C2B42464  28.343  23.499   6.755
 8802POPC   C3B42465  28.381  23.477   7.055
 8802POPC   C4B42466  28.390  23.498   7.355
 8803POPC   NC342467   0.477   8.243   5.555
 8803POPC   PO442468   0.458   8.161   5.855
 8803POPC   GL142469   0.407   8.204   6.155
 8803POPC   GL242470   0.484   8.309   6.155
 8803POPC   C1A42471   0.425   8.212   6.455
 8803POPC   D2A42472   0.438   8.155   6.755
 8803POPC   C3A42473   0.434   8.180   7.055
 8803POPC   C4A42474   0.427   8.195   7.355
 8803POPC   C1B42475   0.444   8.453   6.455
 8803POPC   C2B42476   0.455   8.406   6.755
 8803POPC   C3B42477   0.434   8.460   7.055
 8803POPC   C4B42478   0.505   8.477   7.355
 8804POPC   NC342479  33.785  26.842   5.555
 8804POPC   PO442480  33.821  26.843   5.855
 8804POPC   GL142481  33.838  26.861   6.155
 8804POPC   GL242482  33.880  26.925   6.155
 8804POPC   C1A42483  33.783  26.775   6.455
 8804POPC   D2A42484  33.781  26.786   6.755
 8804POPC   C3A42485  33.787  26.832   7.055
 8804POPC   C4A42486  33.800  26.841   7.355
 8804POPC   C1B42487  33.973  27.011   6.455
 8804POPC   C2B42488  33.974  26.989   6.755
 8804POPC   C3B42489  33.923  27.020   7.055
 8804POPC   C4B42490  33.962  26.989   7.355
 8805POPC   NC342491  42.313  42.286   5.555
 8805POPC   PO442492  42.348  42.337   5.855
 8805POPC   GL142493  42.324  42.302   6.155
 8805POPC   GL242494  42.418  42.356   6.155
 8805POPC   C1A42495  42.335  42.371   6.455
 8805POPC   D2A42496  42.311  42.325   6.755
 8805POPC   C3A42497  42.329  42.377   7.055
 8805POPC   C4A42498  42.330  42.355   7.355
 8805POPC   C1B42499  42.595  42.333   6.455
 8805POPC   C2B42500  42.572  42.332   6.755
 8805POPC   C3B42501  42.571  42.287   7.055
 8805POPC   C4B42502  42.611  42.250   7.355
 8806POPC   NC342503  29.901  25.272   5.555
 8806POPC   PO442504  29.878  25.313   5.855
 8806POPC   GL142505  29.920  25.218   6.155
 8806POPC   GL242506  29.837  25.196   6.155
 8806POPC   C1A42507  29.923  25.225   6.455
 8806POPC   D2A42508  29.878  25.253   6.755
 8806POPC   C3A42509  29.890  25.234   7.055
 8806POPC   C4A42510  29.890  25.296   7.355
 8806POPC   C1B42511  29.715  25.051   6.455
 8806POPC   C2B42512  29.749  25.082   6.755
 8806POPC   C3B42513  29.729  25.053   7.055
 8806POPC   C4B42514  29.690  25.078   7.355
 8807POPC   NC342515   6.656  19.843   5.555
 8807POPC   PO442516   6.644  19.856   5.855
 8807POPC   GL142517   6.679  19.855   6.155
 8807POPC   GL242518   6.685  19.951   6.155
 8807POPC   C1A42519   6.609  19.839   6.455
 8807POPC   D2A42520   6.660  19.879   6.755
 8807POPC   C3A42521   6.691  19.815   7.055
 8807POPC   C4A42522   6.675  19.789   7.355
 8807POPC   C1B42523   6.767  20.091   6.455
 8807POPC   C2B42524   6.772  20.098   6.755
 8807POPC   C3B42525   6.763  20.039   7.055
 8807POPC   C4B42526   6.821  20.036   7.355
 8808POPC   NC342527  29.157  25.308   5.555
 8808POPC   PO442528  29.095  25.292   5.855
 8808POPC   GL142529  29.181  25.296   6.155
 8808POPC   GL242530  29.066  25.394   6.155
 8808POPC   C1A42531  29.114  25.231   6.455
 8808POPC   D2A42532  29.168  25.279   6.755
 8808POPC   C3A42533  29.153  25.263   7.055
 8808POPC   C4A42534  29.142  25.304   7.355
 8808POPC   C1B42535  29.023  25.500   6.455
 8808POPC   C2B42536  29.021  25.541   6.755
 8808POPC   C3B42537  29.061  25.543   7.055
 8808POPC   C4B42538  29.047  25.526   7.355
 8809POPC   NC342539  22.179  39.213   5.555
 8809POPC   PO442540  22.173  39.257   5.855
 8809POPC   GL142541  22.161  39.183   6.155
 8809POPC   GL242542  22.314  39.266   6.155
 8809POPC   C1A42543  22.186  39.184   6.455
 8809POPC   D2A42544  22.176  39.200   6.755
 8809POPC   C3A42545  22.176  39.183   7.055
 8809POPC   C4A42546  22.147  39.245   7.355
 8809POPC   C1B42547  22.349  39.390   6.455
 8809POPC   C2B42548  22.339  39.382   6.755
 8809POPC   C3B42549  22.416  39.333   7.055
 8809POPC   C4B42550  22.416  39.336   7.355
 8810POPC   NC342551  19.013   0.463   5.555
 8810POPC   PO442552  19.053   0.467   5.855
 8810POPC   GL142553  19.064   0.431   6.155
 8810POPC   GL242554  19.039   0.288   6.155
 8810POPC   C1A42555  19.044   0.398   6.455
 8810POPC   D2A42556  19.041   0.435   6.755
 8810POPC   C3A42557  19.076   0.465   7.055
 8810POPC   C4A42558  19.049   0.461   7.355
 8810POPC   C1B42559  18.964   0.221   6.455
 8810POPC   C2B42560  18.988   0.216   6.755
 8810POPC   C3B42561  18.983   0.162   7.055
 8810POPC   C4B42562  18.953   0.179   7.355
 8811POPC   NC342563  22.918   9.731   5.555
 8811POPC   PO442564  22.934   9.717   5.855
 8811POPC   GL142565  22.979   9.780   6.155
 8811POPC   GL242566  23.068   9.775   6.155
 8811POPC   C1A42567  22.966   9.723   6.455
 8811POPC   D2A42568  22.940   9.791   6.755
 8811POPC   C3A42569  22.958   9.714   7.055
 8811POPC   C4A42570  22.927   9.774   7.355
 8811POPC   C1B42571  23.215   9.709   6.455
 8811POPC   C2B42572  23.138   9.722   6.755
 8811POPC   C3B42573  23.204   9.700   7.055
 8811POPC   C4B42574  23.164   9.754   7.355
 8812POPC   NC342575   5.898  33.072   5.555
 8812POPC   PO442576   5.824  33.060   5.855
 8812POPC   GL142577   5.850  33.002   6.155
 8812POPC   GL242578   5.817  33.083   6.155
 8812POPC   C1A42579   5.838  33.002   6.455
 8812POPC   D2A42580   5.845  33.023   6.755
 8812POPC   C3A42581   5.853  33.008   7.055
 8812POPC   C4A42582   5.864  33.057   7.355
 8812POPC   C1B42583   5.748  33.196   6.455
 8812POPC   C2B42584   5.778  33.235   6.755
 8812POPC   C3B42585   5.691  33.185   7.055
 8812POPC   C4B42586   5.718  33.203   7.355
 8813POPC   NC342587   1.952  26.836   5.555
 8813POPC   PO442588   2.035  26.840   5.855
 8813POPC   GL142589   1.979  26.841   6.155
 8813POPC   GL242590   1.872  26.894   6.155
 8813POPC   C1A42591   1.981  26.847   6.455
 8813POPC   D2A42592   1.991  26.819   6.755
 8813POPC   C3A42593   2.002  26.851   7.055
 8813POPC   C4A42594   1.981  26.817   7.355
 8813POPC   C1B42595   1.755  26.941   6.455
 8813POPC   C2B42596   1.824  26.942   6.755
 8813POPC   C3B42597   1.819  26.950   7.055
 8813POPC   C4B42598   1.749  26.953   7.355
 8814POPC   NC342599   1.250  11.323   5.555
 8814POPC   PO442600   1.170  11.256   5.855
 8814POPC   GL142601   1.250  11.341   6.155
 8814POPC   GL242602   1.339  11.397   6.155
 8814POPC   C1A42603   1.212  11.257   6.455
 8814POPC   D2A42604   1.242  11.267   6.755
 8814POPC   C3A42605   1.181  11.307   7.055
 8814POPC   C4A42606   1.245  11.276   7.355
 8814POPC   C1B42607   1.419  11.394   6.455
 8814POPC   C2B42608   1.411  11.417   6.755
 8814POPC   C3B42609   1.456  11.458   7.055
 8814POPC   C4B42610   1.420  11.403   7.355
 8815POPC   NC342611  27.617  14.437   5.555
 8815POPC   PO442612  27.621  14.452   5.855
 8815POPC   GL142613  27.615  14.390   6.155
 8815POPC   GL242614  27.530  14.269   6.155
 8815POPC   C1A42615  27.633  14.410   6.455
 8815POPC   D2A42616  27.583  14.434   6.755
 8815POPC   C3A42617  27.614  14.428   7.055
 8815POPC   C4A42618  27.544  14.370   7.355
 8815POPC   C1B42619  27.458  14.221   6.455
 8815POPC   C2B42620  27.416  14.236   6.755
 8815POPC   C3B42621  27.445  14.247   7.055
 8815POPC   C4B42622  27.390  14.247   7.355
 8816POPC   NC342623  29.908  42.324   5.555
 8816POPC   PO442624  29.900  42.365   5.855
 8816POPC   GL142625  29.873  42.285   6.155
 8816POPC   GL242626  29.996  42.306   6.155
 8816POPC   C1A42627  29.964  42.338   6.455
 8816POPC   D2A42628  29.941  42.298   6.755
 8816POPC   C3A42629  29.881  42.310   7.055
 8816POPC   C4A42630  29.919  42.285   7.355
 8816POPC   C1B42631  30.154  42.224   6.455
 8816POPC   C2B42632  30.134  42.228   6.755
 8816POPC   C3B42633  30.087  42.146   7.055
 8816POPC   C4B42634  30.109  42.207   7.355
 8817POPC   NC342635  25.262  18.254   5.555
 8817POPC   PO442636  25.231  18.270   5.855
 8817POPC   GL142637  25.240  18.316   6.155
 8817POPC   GL242638  25.364  18.349   6.155
 8817POPC   C1A42639  25.297  18.286   6.455
 8817POPC   D2A42640  25.311  18.272   6.755
 8817POPC   C3A42641  25.279  18.312   7.055
 8817POPC   C4A42642  25.283  18.306   7.355
 8817POPC   C1B42643  25.446  18.387   6.455
 8817POPC   C2B42644  25.473  18.465   6.755
 8817POPC   C3B42645  25.519  18.390   7.055
 8817POPC   C4B42646  25.469  18.477   7.355
 8818POPC   NC342647  24.448  40.778   5.555
 8818POPC   PO442648  24.457  40.751   5.855
 8818POPC   GL142649  24.508  40.824   6.155
 8818POPC   GL242650  24.632  40.762   6.155
 8818POPC   C1A42651  24.533  40.771   6.455
 8818POPC   D2A42652  24.477  40.801   6.755
 8818POPC   C3A42653  24.460  40.795   7.055
 8818POPC   C4A42654  24.521  40.770   7.355
 8818POPC   C1B42655  24.745  40.752   6.455
 8818POPC   C2B42656  24.759  40.804   6.755
 8818POPC   C3B42657  24.698  40.793   7.055
 8818POPC   C4B42658  24.730  40.795   7.355
 8819POPC   NC342659   4.316  29.889   5.555
 8819POPC   PO442660   4.302  29.885   5.855
 8819POPC   GL142661   4.365  29.916   6.155
 8819POPC   GL242662   4.334  29.810   6.155
 8819POPC   C1A42663   4.334  29.949   6.455
 8819POPC   D2A42664   4.334  29.923   6.755
 8819POPC   C3A42665   4.299  29.911   7.055
 8819POPC   C4A42666   4.310  29.885   7.355
 8819POPC   C1B42667   4.427  29.729   6.455
 8819POPC   C2B42668   4.370  29.662   6.755
 8819POPC   C3B42669   4.384  29.682   7.055
 8819POPC   C4B42670   4.417  29.694   7.355
 8820POPC   NC342671  26.046   8.954   5.555
 8820POPC   PO442672  26.042   8.994   5.855
 8820POPC   GL142673  25.994   8.991   6.155
 8820POPC   GL242674  26.141   8.953   6.155
 8820POPC   C1A42675  26.048   8.937   6.455
 8820POPC   D2A42676  26.023   8.948   6.755
 8820POPC   C3A42677  26.070   8.926   7.055
 8820POPC   C4A42678  26.049   8.960   7.355
 8820POPC   C1B42679  26.278   8.964   6.455
 8820POPC   C2B42680  26.323   8.885   6.755
 8820POPC   C3B42681  26.254   8.954   7.055
 8820POPC   C4B42682  26.320   8.904   7.355
 8821POPC   NC342683  36.137  30.709   5.555
 8821POPC   PO442684  36.115  30.651   5.855
 8821POPC   GL142685  36.105  30.654   6.155
 8821POPC   GL242686  36.130  30.817   6.155
 8821POPC   C1A42687  36.144  30.746   6.455
 8821POPC   D2A42688  36.165  30.711   6.755
 8821POPC   C3A42689  36.117  30.668   7.055
 8821POPC   C4A42690  36.175  30.660   7.355
 8821POPC   C1B42691  36.005  30.966   6.455
 8821POPC   C2B42692  36.083  30.894   6.755
 8821POPC   C3B42693  36.014  30.983   7.055
 8821POPC   C4B42694  35.999  30.896   7.355
 8822POPC   NC342695   5.051  12.818   5.555
 8822POPC   PO442696   5.094  12.895   5.855
 8822POPC   GL142697   5.052  12.895   6.155
 8822POPC   GL242698   4.977  12.779   6.155
 8822POPC   C1A42699   5.088  12.843   6.455
 8822POPC   D2A42700   5.060  12.880   6.755
 8822POPC   C3A42701   5.073  12.890   7.055
 8822POPC   C4A42702   5.090  12.879   7.355
 8822POPC   C1B42703   4.907  12.798   6.455
 8822POPC   C2B42704   4.879  12.757   6.755
 8822POPC   C3B42705   4.842  12.738   7.055
 8822POPC   C4B42706   4.908  12.723   7.355
 8823POPC   NC342707  43.116   2.756   5.555
 8823POPC   PO442708  43.148   2.783   5.855
 8823POPC   GL142709  43.123   2.724   6.155
 8823POPC   GL242710  43.202   2.922   6.155
 8823POPC   C1A42711  43.100   2.763   6.455
 8823POPC   D2A42712  43.070   2.804   6.755
 8823POPC   C3A42713  43.149   2.772   7.055
 8823POPC   C4A42714  43.150   2.722   7.355
 8823POPC   C1B42715  43.216   3.009   6.455
 8823POPC   C2B42716  43.195   2.949   6.755
 8823POPC   C3B42717  43.190   2.953   7.055
 8823POPC   C4B42718  43.252   2.991   7.355
 8824POPC   NC342719  25.254   8.202   5.555
 8824POPC   PO442720  25.262   8.181   5.855
 8824POPC   GL142721  25.258   8.150   6.155
 8824POPC   GL242722  25.288   8.074   6.155
 8824POPC   C1A42723  25.257   8.170   6.455
 8824POPC   D2A42724  25.302   8.235   6.755
 8824POPC   C3A42725  25.295   8.220   7.055
 8824POPC   C4A42726  25.286   8.215   7.355
 8824POPC   C1B42727  25.365   7.968   6.455
 8824POPC   C2B42728  25.354   7.935   6.755
 8824POPC   C3B42729  25.377   7.949   7.055
 8824POPC   C4B42730  25.331   7.965   7.355
 8825POPC   NC342731  33.038   2.765   5.555
 8825POPC   PO442732  33.024   2.735   5.855
 8825POPC   GL142733  33.011   2.800   6.155
 8825POPC   GL242734  33.005   2.664   6.155
 8825POPC   C1A42735  32.976   2.781   6.455
 8825POPC   D2A42736  33.038   2.804   6.755
 8825POPC   C3A42737  33.065   2.748   7.055
 8825POPC   C4A42738  32.993   2.792   7.355
 8825POPC   C1B42739  32.865   2.535   6.455
 8825POPC   C2B42740  32.845   2.548   6.755
 8825POPC   C3B42741  32.922   2.535   7.055
 8825POPC   C4B42742  32.902   2.559   7.355
 8826POPC   NC342743  44.646  30.687   5.555
 8826POPC   PO442744  44.697  30.725   5.855
 8826POPC   GL142745  44.711  30.716   6.155
 8826POPC   GL242746  44.517  30.795   6.155
 8826POPC   C1A42747  44.658  30.736   6.455
 8826POPC   D2A42748  44.634  30.689   6.755
 8826POPC   C3A42749  44.635  30.691   7.055
 8826POPC   C4A42750  44.631  30.686   7.355
 8826POPC   C1B42751  44.432  30.783   6.455
 8826POPC   C2B42752  44.442  30.800   6.755
 8826POPC   C3B42753  44.394  30.766   7.055
 8826POPC   C4B42754  44.474  30.841   7.355
 8827POPC   NC342755  32.203  19.852   5.555
 8827POPC   PO442756  32.240  19.832   5.855
 8827POPC   GL142757  32.286  19.812   6.155
 8827POPC   GL242758  32.278  19.945   6.155
 8827POPC   C1A42759  32.245  19.870   6.455
 8827POPC   D2A42760  32.258  19.836   6.755
 8827POPC   C3A42761  32.273  19.804   7.055
 8827POPC   C4A42762  32.260  19.798   7.355
 8827POPC   C1B42763  32.294  20.099   6.455
 8827POPC   C2B42764  32.298  20.070   6.755
 8827POPC   C3B42765  32.226  20.045   7.055
 8827POPC   C4B42766  32.225  20.112   7.355
 8828POPC   NC342767  16.685  44.615   5.555
 8828POPC   PO442768  16.751  44.701   5.855
 8828POPC   GL142769  16.735  44.651   6.155
 8828POPC   GL242770  16.626  44.670   6.155
 8828POPC   C1A42771  16.751  44.678   6.455
 8828POPC   D2A42772  16.763  44.666   6.755
 8828POPC   C3A42773  16.684  44.678   7.055
 8828POPC   C4A42774  16.738  44.666   7.355
 8828POPC   C1B42775  16.501  44.706   6.455
 8828POPC   C2B42776  16.492  44.767   6.755
 8828POPC   C3B42777  16.498  44.757   7.055
 8828POPC   C4B42778  16.446  44.723   7.355
 8829POPC   NC342779  15.185   2.004   5.555
 8829POPC   PO442780  15.159   2.033   5.855
 8829POPC   GL142781  15.177   1.981   6.155
 8829POPC   GL242782  15.319   2.013   6.155
 8829POPC   C1A42783  15.221   1.971   6.455
 8829POPC   D2A42784  15.165   1.946   6.755
 8829POPC   C3A42785  15.152   2.026   7.055
 8829POPC   C4A42786  15.155   1.976   7.355
 8829POPC   C1B42787  15.427   1.940   6.455
 8829POPC   C2B42788  15.398   1.997   6.755
 8829POPC   C3B42789  15.398   1.928   7.055
 8829POPC   C4B42790  15.471   1.939   7.355
 8830POPC   NC342791  44.641   7.387   5.555
 8830POPC   PO442792  44.622   7.400   5.855
 8830POPC   GL142793  44.638   7.391   6.155
 8830POPC   GL242794  44.595   7.318   6.155
 8830POPC   C1A42795  44.616   7.448   6.455
 8830POPC   D2A42796  44.673   7.419   6.755
 8830POPC   C3A42797  44.698   7.460   7.055
 8830POPC   C4A42798  44.665   7.438   7.355
 8830POPC   C1B42799  44.504   7.247   6.455
 8830POPC   C2B42800  44.501   7.224   6.755
 8830POPC   C3B42801  44.454   7.231   7.055
 8830POPC   C4B42802  44.465   7.228   7.355
 8831POPC   NC342803   5.833  15.996   5.555
 8831POPC   PO442804   5.852  15.986   5.855
 8831POPC   GL142805   5.845  15.946   6.155
 8831POPC   GL242806   5.818  16.077   6.155
 8831POPC   C1A42807   5.910  15.934   6.455
 8831POPC   D2A42808   5.912  15.968   6.755
 8831POPC   C3A42809   5.862  15.918   7.055
 8831POPC   C4A42810   5.864  15.912   7.355
 8831POPC   C1B42811   5.719  16.109   6.455
 8831POPC   C2B42812   5.692  16.097   6.755
 8831POPC   C3B42813   5.708  16.146   7.055
 8831POPC   C4B42814   5.678  16.092   7.355
 8832POPC   NC342815   5.058  44.635   5.555
 8832POPC   PO442816   5.136  44.626   5.855
 8832POPC   GL142817   5.142  44.614   6.155
 8832POPC   GL242818   5.157  44.770   6.155
 8832POPC   C1A42819   5.117  44.686   6.455
 8832POPC   D2A42820   5.085  44.669   6.755
 8832POPC   C3A42821   5.084  44.663   7.055
 8832POPC   C4A42822   5.136  44.689   7.355
 8832POPC   C1B42823   5.170  44.896   6.455
 8832POPC   C2B42824   5.216  44.839   6.755
 8832POPC   C3B42825   5.218  44.925   7.055
 8832POPC   C4B42826   5.250  44.856   7.355
 8833POPC   NC342827  21.381   2.032   5.555
 8833POPC   PO442828  21.405   1.957   5.855
 8833POPC   GL142829  21.357   1.973   6.155
 8833POPC   GL242830  21.236   2.090   6.155
 8833POPC   C1A42831  21.396   1.990   6.455
 8833POPC   D2A42832  21.434   2.009   6.755
 8833POPC   C3A42833  21.370   2.007   7.055
 8833POPC   C4A42834  21.357   1.950   7.355
 8833POPC   C1B42835  21.169   2.170   6.455
 8833POPC   C2B42836  21.173   2.120   6.755
 8833POPC   C3B42837  21.207   2.113   7.055
 8833POPC   C4B42838  21.209   2.104   7.355
 8834POPC   NC342839  37.634  20.653   5.555
 8834POPC   PO442840  37.636  20.618   5.855
 8834POPC   GL142841  37.653  20.625   6.155
 8834POPC   GL242842  37.559  20.729   6.155
 8834POPC   C1A42843  37.679  20.578   6.455
 8834POPC   D2A42844  37.715  20.613   6.755
 8834POPC   C3A42845  37.650  20.607   7.055
 8834POPC   C4A42846  37.690  20.594   7.355
 8834POPC   C1B42847  37.477  20.755   6.455
 8834POPC   C2B42848  37.495  20.779   6.755
 8834POPC   C3B42849  37.479  20.803   7.055
 8834POPC   C4B42850  37.471  20.756   7.355
 8835POPC   NC342851  43.123  28.413   5.555
 8835POPC   PO442852  43.112  28.417   5.855
 8835POPC   GL142853  43.102  28.335   6.155
 8835POPC   GL242854  43.233  28.347   6.155
 8835POPC   C1A42855  43.147  28.417   6.455
 8835POPC   D2A42856  43.157  28.330   6.755
 8835POPC   C3A42857  43.128  28.399   7.055
 8835POPC   C4A42858  43.087  28.339   7.355
 8835POPC   C1B42859  43.371  28.254   6.455
 8835POPC   C2B42860  43.324  28.257   6.755
 8835POPC   C3B42861  43.325  28.280   7.055
 8835POPC   C4B42862  43.376  28.293   7.355
 8836POPC   NC342863   5.093  37.643   5.555
 8836POPC   PO442864   5.110  37.706   5.855
 8836POPC   GL142865   5.103  37.654   6.155
 8836POPC   GL242866   4.995  37.635   6.155
 8836POPC   C1A42867   5.126  37.638   6.455
 8836POPC   D2A42868   5.137  37.639   6.755
 8836POPC   C3A42869   5.097  37.724   7.055
 8836POPC   C4A42870   5.140  37.661   7.355
 8836POPC   C1B42871   4.902  37.600   6.455
 8836POPC   C2B42872   4.897  37.536   6.755
 8836POPC   C3B42873   4.881  37.547   7.055
 8836POPC   C4B42874   4.889  37.581   7.355
 8837POPC   NC342875  20.580   3.498   5.555
 8837POPC   PO442876  20.653   3.523   5.855
 8837POPC   GL142877  20.576   3.587   6.155
 8837POPC   GL242878  20.645   3.651   6.155
 8837POPC   C1A42879  20.655   3.531   6.455
 8837POPC   D2A42880  20.574   3.562   6.755
 8837POPC   C3A42881  20.620   3.566   7.055
 8837POPC   C4A42882  20.616   3.568   7.355
 8837POPC   C1B42883  20.668   3.802   6.455
 8837POPC   C2B42884  20.661   3.772   6.755
 8837POPC   C3B42885  20.635   3.765   7.055
 8837POPC   C4B42886  20.636   3.823   7.355
 8838POPC   NC342887   8.979  32.277   5.555
 8838POPC   PO442888   8.970  32.269   5.855
 8838POPC   GL142889   9.019  32.262   6.155
 8838POPC   GL242890   8.981  32.361   6.155
 8838POPC   C1A42891   8.979  32.295   6.455
 8838POPC   D2A42892   9.010  32.232   6.755
 8838POPC   C3A42893   9.002  32.267   7.055
 8838POPC   C4A42894   9.012  32.226   7.355
 8838POPC   C1B42895   8.955  32.504   6.455
 8838POPC   C2B42896   8.939  32.525   6.755
 8838POPC   C3B42897   8.923  32.502   7.055
 8838POPC   C4B42898   8.921  32.524   7.355
 8839POPC   NC342899  12.125   0.411   5.555
 8839POPC   PO442900  12.057   0.443   5.855
 8839POPC   GL142901  12.046   0.434   6.155
 8839POPC   GL242902  12.212   0.373   6.155
 8839POPC   C1A42903  12.109   0.467   6.455
 8839POPC   D2A42904  12.032   0.391   6.755
 8839POPC   C3A42905  12.037   0.478   7.055
 8839POPC   C4A42906  12.112   0.394   7.355
 8839POPC   C1B42907  12.330   0.408   6.455
 8839POPC   C2B42908  12.319   0.371   6.755
 8839POPC   C3B42909  12.299   0.337   7.055
 8839POPC   C4B42910  12.351   0.364   7.355
 8840POPC   NC342911  26.016  24.448   5.555
 8840POPC   PO442912  26.000  24.480   5.855
 8840POPC   GL142913  26.046  24.502   6.155
 8840POPC   GL242914  25.946  24.481   6.155
 8840POPC   C1A42915  26.050  24.477   6.455
 8840POPC   D2A42916  26.060  24.525   6.755
 8840POPC   C3A42917  26.085  24.511   7.055
 8840POPC   C4A42918  26.058  24.529   7.355
 8840POPC   C1B42919  25.790  24.569   6.455
 8840POPC   C2B42920  25.823  24.579   6.755
 8840POPC   C3B42921  25.807  24.546   7.055
 8840POPC   C4B42922  25.843  24.515   7.355
 8841POPC   NC342923  41.542  19.882   5.555
 8841POPC   PO442924  41.546  19.836   5.855
 8841POPC   GL142925  41.528  19.829   6.155
 8841POPC   GL242926  41.595  19.680   6.155
 8841POPC   C1A42927  41.603  19.866   6.455
 8841POPC   D2A42928  41.593  19.812   6.755
 8841POPC   C3A42929  41.544  19.877   7.055
 8841POPC   C4A42930  41.567  19.854   7.355
 8841POPC   C1B42931  41.724  19.652   6.455
 8841POPC   C2B42932  41.678  19.596   6.755
 8841POPC   C3B42933  41.670  19.645   7.055
 8841POPC   C4B42934  41.655  19.644   7.355
 8842POPC   NC342935   6.634   8.217   5.555
 8842POPC   PO442936   6.622   8.201   5.855
 8842POPC   GL142937   6.673   8.192   6.155
 8842POPC   GL242938   6.608   8.361   6.155
 8842POPC   C1A42939   6.616   8.233   6.455
 8842POPC   D2A42940   6.624   8.232   6.755
 8842POPC   C3A42941   6.634   8.181   7.055
 8842POPC   C4A42942   6.616   8.212   7.355
 8842POPC   C1B42943   6.595   8.479   6.455
 8842POPC   C2B42944   6.592   8.389   6.755
 8842POPC   C3B42945   6.596   8.437   7.055
 8842POPC   C4B42946   6.539   8.478   7.355
 8843POPC   NC342947  26.772  22.174   5.555
 8843POPC   PO442948  26.778  22.147   5.855
 8843POPC   GL142949  26.811  22.172   6.155
 8843POPC   GL242950  26.854  22.259   6.155
 8843POPC   C1A42951  26.837  22.168   6.455
 8843POPC   D2A42952  26.825  22.204   6.755
 8843POPC   C3A42953  26.769  22.178   7.055
 8843POPC   C4A42954  26.818  22.140   7.355
 8843POPC   C1B42955  26.778  22.407   6.455
 8843POPC   C2B42956  26.832  22.416   6.755
 8843POPC   C3B42957  26.793  22.453   7.055
 8843POPC   C4B42958  26.807  22.403   7.355
 8844POPC   NC342959  23.745  22.933   5.555
 8844POPC   PO442960  23.669  22.958   5.855
 8844POPC   GL142961  23.736  22.901   6.155
 8844POPC   GL242962  23.790  23.019   6.155
 8844POPC   C1A42963  23.756  22.898   6.455
 8844POPC   D2A42964  23.761  22.923   6.755
 8844POPC   C3A42965  23.748  22.937   7.055
 8844POPC   C4A42966  23.687  22.905   7.355
 8844POPC   C1B42967  23.965  23.066   6.455
 8844POPC   C2B42968  23.930  23.025   6.755
 8844POPC   C3B42969  23.947  23.028   7.055
 8844POPC   C4B42970  23.966  22.991   7.355
 8845POPC   NC342971   4.337  16.699   5.555
 8845POPC   PO442972   4.293  16.747   5.855
 8845POPC   GL142973   4.273  16.731   6.155
 8845POPC   GL242974   4.210  16.714   6.155
 8845POPC   C1A42975   4.330  16.691   6.455
 8845POPC   D2A42976   4.303  16.717   6.755
 8845POPC   C3A42977   4.305  16.781   7.055
 8845POPC   C4A42978   4.269  16.746   7.355
 8845POPC   C1B42979   4.035  16.810   6.455
 8845POPC   C2B42980   4.073  16.778   6.755
 8845POPC   C3B42981   4.044  16.761   7.055
 8845POPC   C4B42982   4.078  16.816   7.355
 8846POPC   NC342983  23.675  43.844   5.555
 8846POPC   PO442984  23.670  43.925   5.855
 8846POPC   GL142985  23.757  43.903   6.155
 8846POPC   GL242986  23.667  43.764   6.155
 8846POPC   C1A42987  23.742  43.838   6.455
 8846POPC   D2A42988  23.668  43.838   6.755
 8846POPC   C3A42989  23.752  43.934   7.055
 8846POPC   C4A42990  23.711  43.928   7.355
 8846POPC   C1B42991  23.542  43.664   6.455
 8846POPC   C2B42992  23.575  43.651   6.755
 8846POPC   C3B42993  23.576  43.712   7.055
 8846POPC   C4B42994  23.566  43.678   7.355
 8847POPC   NC342995  40.015  43.098   5.555
 8847POPC   PO442996  39.965  43.129   5.855
 8847POPC   GL142997  39.968  43.064   6.155
 8847POPC   GL242998  39.961  43.225   6.155
 8847POPC   C1A42999  40.006  43.119   6.455
 8847POPC   D2A43000  40.052  43.078   6.755
 8847POPC   C3A43001  39.971  43.134   7.055
 8847POPC   C4A43002  40.027  43.159   7.355
 8847POPC   C1B43003  39.970  43.374   6.455
 8847POPC   C2B43004  40.018  43.361   6.755
 8847POPC   C3B43005  39.985  43.341   7.055
 8847POPC   C4B43006  40.014  43.316   7.355
 8848POPC   NC343007  33.769   1.991   5.555
 8848POPC   PO443008  33.844   1.965   5.855
 8848POPC   GL143009  33.751   1.994   6.155
 8848POPC   GL243010  33.906   2.103   6.155
 8848POPC   C1A43011  33.809   2.027   6.455
 8848POPC   D2A43012  33.821   1.941   6.755
 8848POPC   C3A43013  33.845   2.020   7.055
 8848POPC   C4A43014  33.819   1.971   7.355
 8848POPC   C1B43015  33.866   2.170   6.455
 8848POPC   C2B43016  33.915   2.227   6.755
 8848POPC   C3B43017  33.870   2.230   7.055
 8848POPC   C4B43018  33.934   2.177   7.355
 8849POPC   NC343019  31.451  40.744   5.555
 8849POPC   PO443020  31.510  40.830   5.855
 8849POPC   GL143021  31.437  40.747   6.155
 8849POPC   GL243022  31.511  40.623   6.155
 8849POPC   C1A43023  31.426  40.814   6.455
 8849POPC   D2A43024  31.475  40.788   6.755
 8849POPC   C3A43025  31.463  40.786   7.055
 8849POPC   C4A43026  31.448  40.741   7.355
 8849POPC   C1B43027  31.594  40.547   6.455
 8849POPC   C2B43028  31.564  40.605   6.755
 8849POPC   C3B43029  31.582  40.576   7.055
 8849POPC   C4B43030  31.566  40.560   7.355
 8850POPC   NC343031   7.422  17.463   5.555
 8850POPC   PO443032   7.385  17.538   5.855
 8850POPC   GL143033   7.457  17.495   6.155
 8850POPC   GL243034   7.523  17.551   6.155
 8850POPC   C1A43035   7.399  17.491   6.455
 8850POPC   D2A43036   7.382  17.530   6.755
 8850POPC   C3A43037   7.391  17.520   7.055
 8850POPC   C4A43038   7.425  17.515   7.355
 8850POPC   C1B43039   7.650  17.601   6.455
 8850POPC   C2B43040   7.677  17.618   6.755
 8850POPC   C3B43041   7.671  17.643   7.055
 8850POPC   C4B43042   7.614  17.637   7.355
 8851POPC   NC343043  36.136  28.343   5.555
 8851POPC   PO443044  36.110  28.414   5.855
 8851POPC   GL143045  36.147  28.355   6.155
 8851POPC   GL243046  36.095  28.283   6.155
 8851POPC   C1A43047  36.119  28.391   6.455
 8851POPC   D2A43048  36.144  28.352   6.755
 8851POPC   C3A43049  36.135  28.328   7.055
 8851POPC   C4A43050  36.170  28.369   7.355
 8851POPC   C1B43051  36.008  28.218   6.455
 8851POPC   C2B43052  36.023  28.159   6.755
 8851POPC   C3B43053  35.972  28.207   7.055
 8851POPC   C4B43054  35.939  28.139   7.355
 8852POPC   NC343055  12.842  12.064   5.555
 8852POPC   PO443056  12.815  12.071   5.855
 8852POPC   GL143057  12.823  12.070   6.155
 8852POPC   GL243058  12.916  12.029   6.155
 8852POPC   C1A43059  12.812  12.108   6.455
 8852POPC   D2A43060  12.893  12.026   6.755
 8852POPC   C3A43061  12.866  12.029   7.055
 8852POPC   C4A43062  12.864  12.076   7.355
 8852POPC   C1B43063  13.024  11.855   6.455
 8852POPC   C2B43064  13.020  11.923   6.755
 8852POPC   C3B43065  12.991  11.878   7.055
 8852POPC   C4B43066  13.028  11.863   7.355
 8853POPC   NC343067  16.759  37.696   5.555
 8853POPC   PO443068  16.726  37.653   5.855
 8853POPC   GL143069  16.705  37.631   6.155
 8853POPC   GL243070  16.849  37.774   6.155
 8853POPC   C1A43071  16.719  37.693   6.455
 8853POPC   D2A43072  16.738  37.728   6.755
 8853POPC   C3A43073  16.711  37.713   7.055
 8853POPC   C4A43074  16.736  37.663   7.355
 8853POPC   C1B43075  16.964  37.801   6.455
 8853POPC   C2B43076  16.991  37.759   6.755
 8853POPC   C3B43077  16.959  37.771   7.055
 8853POPC   C4B43078  16.996  37.766   7.355
 8854POPC   NC343079  17.507  33.068   5.555
 8854POPC   PO443080  17.458  32.993   5.855
 8854POPC   GL143081  17.505  33.050   6.155
 8854POPC   GL243082  17.472  32.863   6.155
 8854POPC   C1A43083  17.463  33.005   6.455
 8854POPC   D2A43084  17.457  33.067   6.755
 8854POPC   C3A43085  17.534  33.048   7.055
 8854POPC   C4A43086  17.466  33.049   7.355
 8854POPC   C1B43087  17.407  32.754   6.455
 8854POPC   C2B43088  17.434  32.757   6.755
 8854POPC   C3B43089  17.375  32.755   7.055
 8854POPC   C4B43090  17.390  32.826   7.355
 8855POPC   NC343091   5.119  33.795   5.555
 8855POPC   PO443092   5.100  33.759   5.855
 8855POPC   GL143093   5.045  33.798   6.155
 8855POPC   GL243094   5.201  33.863   6.155
 8855POPC   C1A43095   5.142  33.801   6.455
 8855POPC   D2A43096   5.049  33.836   6.755
 8855POPC   C3A43097   5.073  33.836   7.055
 8855POPC   C4A43098   5.084  33.830   7.355
 8855POPC   C1B43099   5.193  33.988   6.455
 8855POPC   C2B43100   5.185  34.028   6.755
 8855POPC   C3B43101   5.279  34.010   7.055
 8855POPC   C4B43102   5.224  34.051   7.355
 8856POPC   NC343103  35.331  28.323   5.555
 8856POPC   PO443104  35.303  28.353   5.855
 8856POPC   GL143105  35.345  28.336   6.155
 8856POPC   GL243106  35.431  28.293   6.155
 8856POPC   C1A43107  35.319  28.329   6.455
 8856POPC   D2A43108  35.401  28.413   6.755
 8856POPC   C3A43109  35.391  28.395   7.055
 8856POPC   C4A43110  35.313  28.385   7.355
 8856POPC   C1B43111  35.518  28.261   6.455
 8856POPC   C2B43112  35.598  28.256   6.755
 8856POPC   C3B43113  35.522  28.187   7.055
 8856POPC   C4B43114  35.572  28.259   7.355
 8857POPC   NC343115  12.804  18.331   5.555
 8857POPC   PO443116  12.878  18.274   5.855
 8857POPC   GL143117  12.862  18.272   6.155
 8857POPC   GL243118  12.956  18.188   6.155
 8857POPC   C1A43119  12.891  18.249   6.455
 8857POPC   D2A43120  12.814  18.293   6.755
 8857POPC   C3A43121  12.829  18.266   7.055
 8857POPC   C4A43122  12.899  18.238   7.355
 8857POPC   C1B43123  13.064  18.066   6.455
 8857POPC   C2B43124  13.061  18.114   6.755
 8857POPC   C3B43125  13.074  18.129   7.055
 8857POPC   C4B43126  13.060  18.124   7.355
 8858POPC   NC343127   5.861  16.765   5.555
 8858POPC   PO443128   5.873  16.769   5.855
 8858POPC   GL143129   5.908  16.705   6.155
 8858POPC   GL243130   5.779  16.621   6.155
 8858POPC   C1A43131   5.890  16.682   6.455
 8858POPC   D2A43132   5.881  16.780   6.755
 8858POPC   C3A43133   5.849  16.682   7.055
 8858POPC   C4A43134   5.899  16.754   7.355
 8858POPC   C1B43135   5.824  16.536   6.455
 8858POPC   C2B43136   5.737  16.448   6.755
 8858POPC   C3B43137   5.779  16.468   7.055
 8858POPC   C4B43138   5.781  16.452   7.355
 8859POPC   NC343139  28.351  34.542   5.555
 8859POPC   PO443140  28.412  34.565   5.855
 8859POPC   GL143141  28.349  34.573   6.155
 8859POPC   GL243142  28.482  34.685   6.155
 8859POPC   C1A43143  28.373  34.618   6.455
 8859POPC   D2A43144  28.340  34.573   6.755
 8859POPC   C3A43145  28.327  34.609   7.055
 8859POPC   C4A43146  28.410  34.614   7.355
 8859POPC   C1B43147  28.505  34.740   6.455
 8859POPC   C2B43148  28.504  34.738   6.755
 8859POPC   C3B43149  28.532  34.790   7.055
 8859POPC   C4B43150  28.566  34.812   7.355
 8860POPC   NC343151  40.808  43.069   5.555
 8860POPC   PO443152  40.773  43.152   5.855
 8860POPC   GL143153  40.797  43.109   6.155
 8860POPC   GL243154  40.638  43.143   6.155
 8860POPC   C1A43155  40.789  43.105   6.455
 8860POPC   D2A43156  40.756  43.132   6.755
 8860POPC   C3A43157  40.801  43.160   7.055
 8860POPC   C4A43158  40.748  43.139   7.355
 8860POPC   C1B43159  40.557  43.136   6.455
 8860POPC   C2B43160  40.583  43.113   6.755
 8860POPC   C3B43161  40.544  43.104   7.055
 8860POPC   C4B43162  40.556  43.101   7.355
 8861POPC   NC343163  32.288   5.119   5.555
 8861POPC   PO443164  32.229   5.070   5.855
 8861POPC   GL143165  32.251   5.062   6.155
 8861POPC   GL243166  32.297   4.959   6.155
 8861POPC   C1A43167  32.297   5.124   6.455
 8861POPC   D2A43168  32.260   5.045   6.755
 8861POPC   C3A43169  32.200   5.074   7.055
 8861POPC   C4A43170  32.204   5.102   7.355
 8861POPC   C1B43171  32.267   4.825   6.455
 8861POPC   C2B43172  32.203   4.889   6.755
 8861POPC   C3B43173  32.206   4.818   7.055
 8861POPC   C4B43174  32.259   4.869   7.355
 8862POPC   NC343175  12.052  21.338   5.555
 8862POPC   PO443176  12.077  21.412   5.855
 8862POPC   GL143177  12.088  21.408   6.155
 8862POPC   GL243178  12.058  21.225   6.155
 8862POPC   C1A43179  12.044  21.399   6.455
 8862POPC   D2A43180  12.038  21.353   6.755
 8862POPC   C3A43181  12.097  21.383   7.055
 8862POPC   C4A43182  12.122  21.339   7.355
 8862POPC   C1B43183  12.009  21.111   6.455
 8862POPC   C2B43184  11.998  21.184   6.755
 8862POPC   C3B43185  12.067  21.177   7.055
 8862POPC   C4B43186  12.019  21.170   7.355
 8863POPC   NC343187  36.940  19.878   5.555
 8863POPC   PO443188  36.918  19.825   5.855
 8863POPC   GL143189  36.906  19.814   6.155
 8863POPC   GL243190  36.976  19.971   6.155
 8863POPC   C1A43191  36.932  19.841   6.455
 8863POPC   D2A43192  36.939  19.791   6.755
 8863POPC   C3A43193  36.879  19.789   7.055
 8863POPC   C4A43194  36.891  19.856   7.355
 8863POPC   C1B43195  37.066  20.016   6.455
 8863POPC   C2B43196  37.081  20.014   6.755
 8863POPC   C3B43197  37.007  20.011   7.055
 8863POPC   C4B43198  37.016  20.024   7.355
 8864POPC   NC343199  16.773  12.126   5.555
 8864POPC   PO443200  16.724  12.066   5.855
 8864POPC   GL143201  16.774  12.048   6.155
 8864POPC   GL243202  16.856  12.123   6.155
 8864POPC   C1A43203  16.773  12.122   6.455
 8864POPC   D2A43204  16.707  12.041   6.755
 8864POPC   C3A43205  16.732  12.056   7.055
 8864POPC   C4A43206  16.703  12.104   7.355
 8864POPC   C1B43207  16.926  12.197   6.455
 8864POPC   C2B43208  16.965  12.190   6.755
 8864POPC   C3B43209  16.948  12.240   7.055
 8864POPC   C4B43210  16.971  12.253   7.355
 8865POPC   NC343211  23.707  38.408   5.555
 8865POPC   PO443212  23.707  38.447   5.855
 8865POPC   GL143213  23.669  38.495   6.155
 8865POPC   GL243214  23.728  38.326   6.155
 8865POPC   C1A43215  23.698  38.430   6.455
 8865POPC   D2A43216  23.684  38.444   6.755
 8865POPC   C3A43217  23.720  38.477   7.055
 8865POPC   C4A43218  23.693  38.406   7.355
 8865POPC   C1B43219  23.698  38.217   6.455
 8865POPC   C2B43220  23.681  38.181   6.755
 8865POPC   C3B43221  23.607  38.222   7.055
 8865POPC   C4B43222  23.621  38.235   7.355
 8866POPC   NC343223  24.452  16.712   5.555
 8866POPC   PO443224  24.446  16.730   5.855
 8866POPC   GL143225  24.507  16.722   6.155
 8866POPC   GL243226  24.531  16.663   6.155
 8866POPC   C1A43227  24.520  16.720   6.455
 8866POPC   D2A43228  24.485  16.710   6.755
 8866POPC   C3A43229  24.493  16.682   7.055
 8866POPC   C4A43230  24.534  16.744   7.355
 8866POPC   C1B43231  24.625  16.534   6.455
 8866POPC   C2B43232  24.673  16.537   6.755
 8866POPC   C3B43233  24.671  16.577   7.055
 8866POPC   C4B43234  24.652  16.498   7.355
 8867POPC   NC343235   3.513  32.249   5.555
 8867POPC   PO443236   3.511  32.262   5.855
 8867POPC   GL143237   3.538  32.202   6.155
 8867POPC   GL243238   3.619  32.337   6.155
 8867POPC   C1A43239   3.567  32.267   6.455
 8867POPC   D2A43240   3.568  32.259   6.755
 8867POPC   C3A43241   3.520  32.227   7.055
 8867POPC   C4A43242   3.533  32.223   7.355
 8867POPC   C1B43243   3.717  32.453   6.455
 8867POPC   C2B43244   3.758  32.394   6.755
 8867POPC   C3B43245   3.753  32.416   7.055
 8867POPC   C4B43246   3.704  32.389   7.355
 8868POPC   NC343247   1.169  40.762   5.555
 8868POPC   PO443248   1.196  40.825   5.855
 8868POPC   GL143249   1.253  40.828   6.155
 8868POPC   GL243250   1.318  40.717   6.155
 8868POPC   C1A43251   1.175  40.748   6.455
 8868POPC   D2A43252   1.169  40.821   6.755
 8868POPC   C3A43253   1.202  40.828   7.055
 8868POPC   C4A43254   1.246  40.815   7.355
 8868POPC   C1B43255   1.409  40.574   6.455
 8868POPC   C2B43256   1.427  40.617   6.755
 8868POPC   C3B43257   1.413  40.598   7.055
 8868POPC   C4B43258   1.371  40.627   7.355
 8869POPC   NC343259  43.122   6.600   5.555
 8869POPC   PO443260  43.136   6.640   5.855
 8869POPC   GL143261  43.124   6.656   6.155
 8869POPC   GL243262  43.046   6.536   6.155
 8869POPC   C1A43263  43.115   6.607   6.455
 8869POPC   D2A43264  43.146   6.675   6.755
 8869POPC   C3A43265  43.155   6.641   7.055
 8869POPC   C4A43266  43.071   6.597   7.355
 8869POPC   C1B43267  42.953   6.524   6.455
 8869POPC   C2B43268  42.934   6.459   6.755
 8869POPC   C3B43269  42.955   6.493   7.055
 8869POPC   C4B43270  42.888   6.542   7.355
 8870POPC   NC343271  30.688  14.371   5.555
 8870POPC   PO443272  30.663  14.398   5.855
 8870POPC   GL143273  30.691  14.379   6.155
 8870POPC   GL243274  30.727  14.264   6.155
 8870POPC   C1A43275  30.692  14.436   6.455
 8870POPC   D2A43276  30.661  14.394   6.755
 8870POPC   C3A43277  30.680  14.442   7.055
 8870POPC   C4A43278  30.726  14.400   7.355
 8870POPC   C1B43279  30.776  14.157   6.455
 8870POPC   C2B43280  30.698  14.205   6.755
 8870POPC   C3B43281  30.698  14.186   7.055
 8870POPC   C4B43282  30.747  14.191   7.355
 8871POPC   NC343283  39.988  21.368   5.555
 8871POPC   PO443284  39.974  21.372   5.855
 8871POPC   GL143285  40.044  21.378   6.155
 8871POPC   GL243286  40.142  21.391   6.155
 8871POPC   C1A43287  39.958  21.405   6.455
 8871POPC   D2A43288  40.030  21.387   6.755
 8871POPC   C3A43289  39.971  21.348   7.055
 8871POPC   C4A43290  39.965  21.379   7.355
 8871POPC   C1B43291  40.261  21.458   6.455
 8871POPC   C2B43292  40.226  21.432   6.755
 8871POPC   C3B43293  40.211  21.428   7.055
 8871POPC   C4B43294  40.232  21.478   7.355
 8872POPC   NC343295   0.411   1.958   5.555
 8872POPC   PO443296   0.437   2.024   5.855
 8872POPC   GL143297   0.390   1.994   6.155
 8872POPC   GL243298   0.530   1.871   6.155
 8872POPC   C1A43299   0.442   1.995   6.455
 8872POPC   D2A43300   0.480   2.032   6.755
 8872POPC   C3A43301   0.414   2.025   7.055
 8872POPC   C4A43302   0.449   2.000   7.355
 8872POPC   C1B43303   0.562   1.770   6.455
 8872POPC   C2B43304   0.616   1.816   6.755
 8872POPC   C3B43305   0.549   1.762   7.055
 8872POPC   C4B43306   0.618   1.782   7.355
 8873POPC   NC343307  34.601  39.253   5.555
 8873POPC   PO443308  34.579  39.236   5.855
 8873POPC   GL143309  34.544  39.184   6.155
 8873POPC   GL243310  34.595  39.374   6.155
 8873POPC   C1A43311  34.578  39.191   6.455
 8873POPC   D2A43312  34.546  39.232   6.755
 8873POPC   C3A43313  34.543  39.215   7.055
 8873POPC   C4A43314  34.529  39.256   7.355
 8873POPC   C1B43315  34.592  39.462   6.455
 8873POPC   C2B43316  34.609  39.441   6.755
 8873POPC   C3B43317  34.551  39.481   7.055
 8873POPC   C4B43318  34.522  39.440   7.355
 8874POPC   NC343319  24.452  26.789   5.555
 8874POPC   PO443320  24.471  26.861   5.855
 8874POPC   GL143321  24.483  26.821   6.155
 8874POPC   GL243322  24.603  26.896   6.155
 8874POPC   C1A43323  24.471  26.798   6.455
 8874POPC   D2A43324  24.450  26.807   6.755
 8874POPC   C3A43325  24.440  26.805   7.055
 8874POPC   C4A43326  24.500  26.832   7.355
 8874POPC   C1B43327  24.648  26.972   6.455
 8874POPC   C2B43328  24.725  26.975   6.755
 8874POPC   C3B43329  24.684  26.983   7.055
 8874POPC   C4B43330  24.647  26.947   7.355
 8875POPC   NC343331   9.020  19.028   5.555
 8875POPC   PO443332   9.003  19.094   5.855
 8875POPC   GL143333   9.008  19.048   6.155
 8875POPC   GL243334   9.055  18.965   6.155
 8875POPC   C1A43335   8.970  19.042   6.455
 8875POPC   D2A43336   8.952  19.085   6.755
 8875POPC   C3A43337   9.009  19.038   7.055
 8875POPC   C4A43338   8.939  19.068   7.355
 8875POPC   C1B43339   9.062  18.840   6.455
 8875POPC   C2B43340   9.068  18.841   6.755
 8875POPC   C3B43341   9.043  18.838   7.055
 8875POPC   C4B43342   9.031  18.822   7.355
 8876POPC   NC343343  36.929  18.294   5.555
 8876POPC   PO443344  36.903  18.251   5.855
 8876POPC   GL143345  36.932  18.266   6.155
 8876POPC   GL243346  36.866  18.378   6.155
 8876POPC   C1A43347  36.867  18.252   6.455
 8876POPC   D2A43348  36.869  18.247   6.755
 8876POPC   C3A43349  36.873  18.324   7.055
 8876POPC   C4A43350  36.894  18.317   7.355
 8876POPC   C1B43351  36.800  18.520   6.455
 8876POPC   C2B43352  36.779  18.515   6.755
 8876POPC   C3B43353  36.776  18.529   7.055
 8876POPC   C4B43354  36.750  18.514   7.355
 8877POPC   NC343355  38.499  20.638   5.555
 8877POPC   PO443356  38.410  20.636   5.855
 8877POPC   GL143357  38.428  20.655   6.155
 8877POPC   GL243358  38.309  20.592   6.155
 8877POPC   C1A43359  38.482  20.566   6.455
 8877POPC   D2A43360  38.481  20.612   6.755
 8877POPC   C3A43361  38.459  20.646   7.055
 8877POPC   C4A43362  38.432  20.563   7.355
 8877POPC   C1B43363  38.208  20.472   6.455
 8877POPC   C2B43364  38.199  20.556   6.755
 8877POPC   C3B43365  38.203  20.517   7.055
 8877POPC   C4B43366  38.248  20.560   7.355
 8878POPC   NC343367  44.617  38.415   5.555
 8878POPC   PO443368  44.703  38.443   5.855
 8878POPC   GL143369  44.670  38.450   6.155
 8878POPC   GL243370  44.806  38.412   6.155
 8878POPC   C1A43371  44.673  38.484   6.455
 8878POPC   D2A43372  44.645  38.449   6.755
 8878POPC   C3A43373  44.634  38.484   7.055
 8878POPC   C4A43374  44.683  38.435   7.355
 8878POPC   C1B43375  44.887  38.324   6.455
 8878POPC   C2B43376  44.825  38.354   6.755
 8878POPC   C3B43377  44.834  38.336   7.055
 8878POPC   C4B43378  44.912  38.318   7.355
 8879POPC   NC343379  31.435  33.782   5.555
 8879POPC   PO443380  31.460  33.772   5.855
 8879POPC   GL143381  31.442  33.821   6.155
 8879POPC   GL243382  31.422  33.718   6.155
 8879POPC   C1A43383  31.473  33.756   6.455
 8879POPC   D2A43384  31.424  33.827   6.755
 8879POPC   C3A43385  31.471  33.809   7.055
 8879POPC   C4A43386  31.470  33.793   7.355
 8879POPC   C1B43387  31.407  33.575   6.455
 8879POPC   C2B43388  31.409  33.545   6.755
 8879POPC   C3B43389  31.457  33.514   7.055
 8879POPC   C4B43390  31.461  33.509   7.355
 8880POPC   NC343391   4.272  40.762   5.555
 8880POPC   PO443392   4.364  40.734   5.855
 8880POPC   GL143393   4.362  40.743   6.155
 8880POPC   GL243394   4.226  40.854   6.155
 8880POPC   C1A43395   4.301  40.826   6.455
 8880POPC   D2A43396   4.269  40.808   6.755
 8880POPC   C3A43397   4.347  40.790   7.055
 8880POPC   C4A43398   4.276  40.752   7.355
 8880POPC   C1B43399   4.198  41.043   6.455
 8880POPC   C2B43400   4.245  40.965   6.755
 8880POPC   C3B43401   4.205  41.023   7.055
 8880POPC   C4B43402   4.246  40.963   7.355
 8881POPC   NC343403  11.335  29.120   5.555
 8881POPC   PO443404  11.288  29.130   5.855
 8881POPC   GL143405  11.278  29.186   6.155
 8881POPC   GL243406  11.287  29.252   6.155
 8881POPC   C1A43407  11.329  29.180   6.455
 8881POPC   D2A43408  11.265  29.114   6.755
 8881POPC   C3A43409  11.335  29.117   7.055
 8881POPC   C4A43410  11.323  29.143   7.355
 8881POPC   C1B43411  11.278  29.343   6.455
 8881POPC   C2B43412  11.220  29.372   6.755
 8881POPC   C3B43413  11.215  29.378   7.055
 8881POPC   C4B43414  11.297  29.438   7.355
 8882POPC   NC343415   1.175   1.240   5.555
 8882POPC   PO443416   1.181   1.197   5.855
 8882POPC   GL143417   1.191   1.204   6.155
 8882POPC   GL243418   1.206   1.071   6.155
 8882POPC   C1A43419   1.217   1.174   6.455
 8882POPC   D2A43420   1.254   1.187   6.755
 8882POPC   C3A43421   1.209   1.175   7.055
 8882POPC   C4A43422   1.225   1.237   7.355
 8882POPC   C1B43423   1.274   0.971   6.455
 8882POPC   C2B43424   1.321   0.939   6.755
 8882POPC   C3B43425   1.297   0.998   7.055
 8882POPC   C4B43426   1.303   0.957   7.355
 8883POPC   NC343427  32.981   3.513   5.555
 8883POPC   PO443428  33.040   3.514   5.855
 8883POPC   GL143429  33.028   3.580   6.155
 8883POPC   GL243430  32.948   3.485   6.155
 8883POPC   C1A43431  33.065   3.516   6.455
 8883POPC   D2A43432  33.049   3.585   6.755
 8883POPC   C3A43433  33.020   3.551   7.055
 8883POPC   C4A43434  32.975   3.572   7.355
 8883POPC   C1B43435  32.818   3.328   6.455
 8883POPC   C2B43436  32.815   3.416   6.755
 8883POPC   C3B43437  32.855   3.414   7.055
 8883POPC   C4B43438  32.792   3.392   7.355
 8884POPC   NC343439  26.770  24.496   5.555
 8884POPC   PO443440  26.849  24.489   5.855
 8884POPC   GL143441  26.806  24.507   6.155
 8884POPC   GL243442  26.894  24.482   6.155
 8884POPC   C1A43443  26.812  24.441   6.455
 8884POPC   D2A43444  26.841  24.497   6.755
 8884POPC   C3A43445  26.860  24.517   7.055
 8884POPC   C4A43446  26.805  24.484   7.355
 8884POPC   C1B43447  27.064  24.456   6.455
 8884POPC   C2B43448  27.096  24.450   6.755
 8884POPC   C3B43449  27.101  24.504   7.055
 8884POPC   C4B43450  27.022  24.498   7.355
 8885POPC   NC343451   8.980  16.681   5.555
 8885POPC   PO443452   8.983  16.684   5.855
 8885POPC   GL143453   8.977  16.706   6.155
 8885POPC   GL243454   9.081  16.646   6.155
 8885POPC   C1A43455   8.946  16.750   6.455
 8885POPC   D2A43456   8.930  16.781   6.755
 8885POPC   C3A43457   9.008  16.732   7.055
 8885POPC   C4A43458   8.988  16.771   7.355
 8885POPC   C1B43459   9.132  16.553   6.455
 8885POPC   C2B43460   9.124  16.555   6.755
 8885POPC   C3B43461   9.200  16.553   7.055
 8885POPC   C4B43462   9.114  16.542   7.355
 8886POPC   NC343463  14.354  36.141   5.555
 8886POPC   PO443464  14.440  36.095   5.855
 8886POPC   GL143465  14.416  36.097   6.155
 8886POPC   GL243466  14.345  35.961   6.155
 8886POPC   C1A43467  14.425  36.174   6.455
 8886POPC   D2A43468  14.434  36.083   6.755
 8886POPC   C3A43469  14.375  36.080   7.055
 8886POPC   C4A43470  14.430  36.177   7.355
 8886POPC   C1B43471  14.361  35.879   6.455
 8886POPC   C2B43472  14.387  35.879   6.755
 8886POPC   C3B43473  14.361  35.829   7.055
 8886POPC   C4B43474  14.354  35.884   7.355
 8887POPC   NC343475  27.587  12.828   5.555
 8887POPC   PO443476  27.620  12.876   5.855
 8887POPC   GL143477  27.598  12.856   6.155
 8887POPC   GL243478  27.697  12.883   6.155
 8887POPC   C1A43479  27.588  12.844   6.455
 8887POPC   D2A43480  27.627  12.821   6.755
 8887POPC   C3A43481  27.547  12.857   7.055
 8887POPC   C4A43482  27.623  12.879   7.355
 8887POPC   C1B43483  27.841  12.876   6.455
 8887POPC   C2B43484  27.852  12.827   6.755
 8887POPC   C3B43485  27.829  12.826   7.055
 8887POPC   C4B43486  27.827  12.833   7.355
 8888POPC   NC343487  26.781  17.518   5.555
 8888POPC   PO443488  26.858  17.497   5.855
 8888POPC   GL143489  26.860  17.477   6.155
 8888POPC   GL243490  26.850  17.674   6.155
 8888POPC   C1A43491  26.841  17.503   6.455
 8888POPC   D2A43492  26.769  17.541   6.755
 8888POPC   C3A43493  26.808  17.489   7.055
 8888POPC   C4A43494  26.862  17.541   7.355
 8888POPC   C1B43495  26.846  17.711   6.455
 8888POPC   C2B43496  26.853  17.793   6.755
 8888POPC   C3B43497  26.851  17.756   7.055
 8888POPC   C4B43498  26.795  17.795   7.355
 8889POPC   NC343499  15.179  11.276   5.555
 8889POPC   PO443500  15.156  11.336   5.855
 8889POPC   GL143501  15.169  11.332   6.155
 8889POPC   GL243502  15.174  11.132   6.155
 8889POPC   C1A43503  15.202  11.285   6.455
 8889POPC   D2A43504  15.153  11.280   6.755
 8889POPC   C3A43505  15.171  11.333   7.055
 8889POPC   C4A43506  15.177  11.325   7.355
 8889POPC   C1B43507  15.281  11.080   6.455
 8889POPC   C2B43508  15.249  11.028   6.755
 8889POPC   C3B43509  15.217  11.042   7.055
 8889POPC   C4B43510  15.289  11.084   7.355
 8890POPC   NC343511  26.787  35.350   5.555
 8890POPC   PO443512  26.768  35.336   5.855
 8890POPC   GL143513  26.832  35.329   6.155
 8890POPC   GL243514  26.694  35.479   6.155
 8890POPC   C1A43515  26.825  35.319   6.455
 8890POPC   D2A43516  26.768  35.310   6.755
 8890POPC   C3A43517  26.849  35.322   7.055
 8890POPC   C4A43518  26.788  35.353   7.355
 8890POPC   C1B43519  26.678  35.540   6.455
 8890POPC   C2B43520  26.681  35.538   6.755
 8890POPC   C3B43521  26.665  35.528   7.055
 8890POPC   C4B43522  26.662  35.577   7.355
 8891POPC   NC343523  27.618  26.036   5.555
 8891POPC   PO443524  27.625  26.038   5.855
 8891POPC   GL143525  27.641  25.997   6.155
 8891POPC   GL243526  27.565  26.128   6.155
 8891POPC   C1A43527  27.627  26.091   6.455
 8891POPC   D2A43528  27.604  26.025   6.755
 8891POPC   C3A43529  27.595  26.009   7.055
 8891POPC   C4A43530  27.583  26.028   7.355
 8891POPC   C1B43531  27.579  26.306   6.455
 8891POPC   C2B43532  27.604  26.329   6.755
 8891POPC   C3B43533  27.590  26.311   7.055
 8891POPC   C4B43534  27.578  26.310   7.355
 8892POPC   NC343535   2.003  17.541   5.555
 8892POPC   PO443536   2.037  17.538   5.855
 8892POPC   GL143537   1.967  17.498   6.155
 8892POPC   GL243538   2.107  17.581   6.155
 8892POPC   C1A43539   2.016  17.463   6.455
 8892POPC   D2A43540   1.977  17.479   6.755
 8892POPC   C3A43541   1.975  17.531   7.055
 8892POPC   C4A43542   1.986  17.528   7.355
 8892POPC   C1B43543   2.205  17.582   6.455
 8892POPC   C2B43544   2.201  17.579   6.755
 8892POPC   C3B43545   2.205  17.510   7.055
 8892POPC   C4B43546   2.239  17.534   7.355
 8893POPC   NC343547  18.325  32.276   5.555
 8893POPC   PO443548  18.305  32.199   5.855
 8893POPC   GL143549  18.332  32.213   6.155
 8893POPC   GL243550  18.333  32.169   6.155
 8893POPC   C1A43551  18.238  32.241   6.455
 8893POPC   D2A43552  18.327  32.232   6.755
 8893POPC   C3A43553  18.324  32.289   7.055
 8893POPC   C4A43554  18.309  32.286   7.355
 8893POPC   C1B43555  18.353  32.020   6.455
 8893POPC   C2B43556  18.348  32.040   6.755
 8893POPC   C3B43557  18.331  32.052   7.055
 8893POPC   C4B43558  18.398  32.007   7.355
 8894POPC   NC343559   4.314  33.802   5.555
 8894POPC   PO443560   4.327  33.822   5.855
 8894POPC   GL143561   4.330  33.771   6.155
 8894POPC   GL243562   4.231  33.932   6.155
 8894POPC   C1A43563   4.289  33.786   6.455
 8894POPC   D2A43564   4.273  33.805   6.755
 8894POPC   C3A43565   4.339  33.776   7.055
 8894POPC   C4A43566   4.309  33.785   7.355
 8894POPC   C1B43567   4.192  34.007   6.455
 8894POPC   C2B43568   4.238  34.054   6.755
 8894POPC   C3B43569   4.225  34.040   7.055
 8894POPC   C4B43570   4.188  34.017   7.355
 8895POPC   NC343571  22.132  15.168   5.555
 8895POPC   PO443572  22.146  15.217   5.855
 8895POPC   GL143573  22.148  15.223   6.155
 8895POPC   GL243574  22.002  15.116   6.155
 8895POPC   C1A43575  22.185  15.194   6.455
 8895POPC   D2A43576  22.129  15.169   6.755
 8895POPC   C3A43577  22.184  15.142   7.055
 8895POPC   C4A43578  22.140  15.216   7.355
 8895POPC   C1B43579  21.927  15.151   6.455
 8895POPC   C2B43580  21.884  15.188   6.755
 8895POPC   C3B43581  21.903  15.097   7.055
 8895POPC   C4B43582  21.909  15.156   7.355
 8896POPC   NC343583  35.311  16.692   5.555
 8896POPC   PO443584  35.372  16.711   5.855
 8896POPC   GL143585  35.370  16.724   6.155
 8896POPC   GL243586  35.277  16.787   6.155
 8896POPC   C1A43587  35.325  16.763   6.455
 8896POPC   D2A43588  35.377  16.780   6.755
 8896POPC   C3A43589  35.330  16.683   7.055
 8896POPC   C4A43590  35.350  16.682   7.355
 8896POPC   C1B43591  35.123  16.739   6.455
 8896POPC   C2B43592  35.086  16.741   6.755
 8896POPC   C3B43593  35.075  16.734   7.055
 8896POPC   C4B43594  35.069  16.780   7.355
 8897POPC   NC343595  42.363   1.169   5.555
 8897POPC   PO443596  42.368   1.203   5.855
 8897POPC   GL143597  42.352   1.255   6.155
 8897POPC   GL243598  42.338   1.364   6.155
 8897POPC   C1A43599  42.293   1.258   6.455
 8897POPC   D2A43600  42.353   1.185   6.755
 8897POPC   C3A43601  42.337   1.201   7.055
 8897POPC   C4A43602  42.361   1.242   7.355
 8897POPC   C1B43603  42.415   1.408   6.455
 8897POPC   C2B43604  42.438   1.498   6.755
 8897POPC   C3B43605  42.414   1.409   7.055
 8897POPC   C4B43606  42.363   1.494   7.355
 8898POPC   NC343607  12.122  35.395   5.555
 8898POPC   PO443608  12.035  35.382   5.855
 8898POPC   GL143609  12.086  35.393   6.155
 8898POPC   GL243610  12.122  35.284   6.155
 8898POPC   C1A43611  12.111  35.322   6.455
 8898POPC   D2A43612  12.094  35.342   6.755
 8898POPC   C3A43613  12.096  35.311   7.055
 8898POPC   C4A43614  12.123  35.362   7.355
 8898POPC   C1B43615  12.168  35.150   6.455
 8898POPC   C2B43616  12.175  35.136   6.755
 8898POPC   C3B43617  12.191  35.147   7.055
 8898POPC   C4B43618  12.241  35.143   7.355
 8899POPC   NC343619  26.015  12.871   5.555
 8899POPC   PO443620  26.074  12.856   5.855
 8899POPC   GL143621  26.066  12.878   6.155
 8899POPC   GL243622  26.092  12.925   6.155
 8899POPC   C1A43623  26.072  12.841   6.455
 8899POPC   D2A43624  26.025  12.837   6.755
 8899POPC   C3A43625  26.029  12.876   7.055
 8899POPC   C4A43626  26.028  12.860   7.355
 8899POPC   C1B43627  26.188  13.061   6.455
 8899POPC   C2B43628  26.194  13.008   6.755
 8899POPC   C3B43629  26.250  13.009   7.055
 8899POPC   C4B43630  26.246  13.029   7.355
 8900POPC   NC343631  40.015  12.085   5.555
 8900POPC   PO443632  40.016  12.105   5.855
 8900POPC   GL143633  40.019  12.039   6.155
 8900POPC   GL243634  39.991  11.953   6.155
 8900POPC   C1A43635  40.016  12.046   6.455
 8900POPC   D2A43636  40.048  12.101   6.755
 8900POPC   C3A43637  40.026  12.085   7.055
 8900POPC   C4A43638  39.989  12.116   7.355
 8900POPC   C1B43639  39.888  11.890   6.455
 8900POPC   C2B43640  39.880  11.809   6.755
 8900POPC   C3B43641  39.877  11.817   7.055
 8900POPC   C4B43642  39.879  11.836   7.355
 8901POPC   NC343643  44.652   2.808   5.555
 8901POPC   PO443644  44.689   2.758   5.855
 8901POPC   GL143645  44.653   2.794   6.155
 8901POPC   GL243646  44.582   2.863   6.155
 8901POPC   C1A43647  44.686   2.768   6.455
 8901POPC   D2A43648  44.645   2.786   6.755
 8901POPC   C3A43649  44.646   2.782   7.055
 8901POPC   C4A43650  44.674   2.809   7.355
 8901POPC   C1B43651  44.579   2.952   6.455
 8901POPC   C2B43652  44.540   2.979   6.755
 8901POPC   C3B43653  44.553   2.948   7.055
 8901POPC   C4B43654  44.575   2.990   7.355
 8902POPC   NC343655  26.817  42.353   5.555
 8902POPC   PO443656  26.824  42.340   5.855
 8902POPC   GL143657  26.783  42.286   6.155
 8902POPC   GL243658  26.823  42.452   6.155
 8902POPC   C1A43659  26.821  42.342   6.455
 8902POPC   D2A43660  26.782  42.341   6.755
 8902POPC   C3A43661  26.844  42.354   7.055
 8902POPC   C4A43662  26.768  42.360   7.355
 8902POPC   C1B43663  26.831  42.557   6.455
 8902POPC   C2B43664  26.877  42.563   6.755
 8902POPC   C3B43665  26.813  42.594   7.055
 8902POPC   C4B43666  26.859  42.594   7.355
 8903POPC   NC343667  15.152  34.595   5.555
 8903POPC   PO443668  15.196  34.559   5.855
 8903POPC   GL143669  15.199  34.564   6.155
 8903POPC   GL243670  15.023  34.570   6.155
 8903POPC   C1A43671  15.216  34.619   6.455
 8903POPC   D2A43672  15.183  34.580   6.755
 8903POPC   C3A43673  15.150  34.527   7.055
 8903POPC   C4A43674  15.188  34.619   7.355
 8903POPC   C1B43675  14.962  34.539   6.455
 8903POPC   C2B43676  14.911  34.516   6.755
 8903POPC   C3B43677  14.937  34.542   7.055
 8903POPC   C4B43678  14.904  34.600   7.355
 8904POPC   NC343679  33.837  41.579   5.555
 8904POPC   PO443680  33.763  41.588   5.855
 8904POPC   GL143681  33.828  41.543   6.155
 8904POPC   GL243682  33.675  41.621   6.155
 8904POPC   C1A43683  33.750  41.585   6.455
 8904POPC   D2A43684  33.836  41.533   6.755
 8904POPC   C3A43685  33.786  41.534   7.055
 8904POPC   C4A43686  33.760  41.515   7.355
 8904POPC   C1B43687  33.596  41.685   6.455
 8904POPC   C2B43688  33.565  41.669   6.755
 8904POPC   C3B43689  33.567  41.748   7.055
 8904POPC   C4B43690  33.562  41.691   7.355
 8905POPC   NC343691  35.358  29.164   5.555
 8905POPC   PO443692  35.379  29.134   5.855
 8905POPC   GL143693  35.309  29.133   6.155
 8905POPC   GL243694  35.301  29.238   6.155
 8905POPC   C1A43695  35.321  29.161   6.455
 8905POPC   D2A43696  35.384  29.095   6.755
 8905POPC   C3A43697  35.355  29.103   7.055
 8905POPC   C4A43698  35.386  29.168   7.355
 8905POPC   C1B43699  35.301  29.442   6.455
 8905POPC   C2B43700  35.362  29.443   6.755
 8905POPC   C3B43701  35.351  29.438   7.055
 8905POPC   C4B43702  35.359  29.424   7.355
 8906POPC   NC343703   9.767  37.635   5.555
 8906POPC   PO443704   9.714  37.649   5.855
 8906POPC   GL143705   9.709  37.652   6.155
 8906POPC   GL243706   9.694  37.577   6.155
 8906POPC   C1A43707   9.725  37.668   6.455
 8906POPC   D2A43708   9.717  37.711   6.755
 8906POPC   C3A43709   9.774  37.645   7.055
 8906POPC   C4A43710   9.746  37.631   7.355
 8906POPC   C1B43711   9.683  37.471   6.455
 8906POPC   C2B43712   9.628  37.409   6.755
 8906POPC   C3B43713   9.678  37.467   7.055
 8906POPC   C4B43714   9.713  37.439   7.355
 8907POPC   NC343715  29.162  17.500   5.555
 8907POPC   PO443716  29.190  17.469   5.855
 8907POPC   GL143717  29.187  17.509   6.155
 8907POPC   GL243718  29.197  17.352   6.155
 8907POPC   C1A43719  29.164  17.540   6.455
 8907POPC   D2A43720  29.097  17.470   6.755
 8907POPC   C3A43721  29.133  17.486   7.055
 8907POPC   C4A43722  29.134  17.492   7.355
 8907POPC   C1B43723  29.223  17.262   6.455
 8907POPC   C2B43724  29.165  17.219   6.755
 8907POPC   C3B43725  29.189  17.259   7.055
 8907POPC   C4B43726  29.178  17.295   7.355
 8908POPC   NC343727   8.193  32.988   5.555
 8908POPC   PO443728   8.230  33.062   5.855
 8908POPC   GL143729   8.218  33.058   6.155
 8908POPC   GL243730   8.214  32.910   6.155
 8908POPC   C1A43731   8.225  33.065   6.455
 8908POPC   D2A43732   8.163  32.991   6.755
 8908POPC   C3A43733   8.189  33.018   7.055
 8908POPC   C4A43734   8.168  33.038   7.355
 8908POPC   C1B43735   8.310  32.809   6.455
 8908POPC   C2B43736   8.305  32.852   6.755
 8908POPC   C3B43737   8.329  32.767   7.055
 8908POPC   C4B43738   8.279  32.819   7.355
 8909POPC   NC343739  31.518  43.113   5.555
 8909POPC   PO443740  31.516  43.152   5.855
 8909POPC   GL143741  31.518  43.086   6.155
 8909POPC   GL243742  31.522  42.939   6.155
 8909POPC   C1A43743  31.462  43.074   6.455
 8909POPC   D2A43744  31.445  43.072   6.755
 8909POPC   C3A43745  31.463  43.128   7.055
 8909POPC   C4A43746  31.452  43.074   7.355
 8909POPC   C1B43747  31.472  42.897   6.455
 8909POPC   C2B43748  31.480  42.825   6.755
 8909POPC   C3B43749  31.446  42.843   7.055
 8909POPC   C4B43750  31.444  42.857   7.355
 8910POPC   NC343751  30.736  20.646   5.555
 8910POPC   PO443752  30.741  20.565   5.855
 8910POPC   GL143753  30.741  20.586   6.155
 8910POPC   GL243754  30.608  20.611   6.155
 8910POPC   C1A43755  30.725  20.602   6.455
 8910POPC   D2A43756  30.710  20.564   6.755
 8910POPC   C3A43757  30.689  20.596   7.055
 8910POPC   C4A43758  30.681  20.619   7.355
 8910POPC   C1B43759  30.480  20.526   6.455
 8910POPC   C2B43760  30.470  20.502   6.755
 8910POPC   C3B43761  30.434  20.534   7.055
 8910POPC   C4B43762  30.479  20.559   7.355
 8911POPC   NC343763  31.430  12.112   5.555
 8911POPC   PO443764  31.458  12.064   5.855
 8911POPC   GL143765  31.501  12.094   6.155
 8911POPC   GL243766  31.353  12.119   6.155
 8911POPC   C1A43767  31.500  12.123   6.455
 8911POPC   D2A43768  31.457  12.084   6.755
 8911POPC   C3A43769  31.448  12.124   7.055
 8911POPC   C4A43770  31.499  12.079   7.355
 8911POPC   C1B43771  31.274  12.164   6.455
 8911POPC   C2B43772  31.259  12.190   6.755
 8911POPC   C3B43773  31.234  12.250   7.055
 8911POPC   C4B43774  31.216  12.251   7.355
 8912POPC   NC343775   1.973   5.123   5.555
 8912POPC   PO443776   1.978   5.079   5.855
 8912POPC   GL143777   2.028   5.093   6.155
 8912POPC   GL243778   2.112   5.073   6.155
 8912POPC   C1A43779   2.018   5.077   6.455
 8912POPC   D2A43780   1.955   5.090   6.755
 8912POPC   C3A43781   2.029   5.072   7.055
 8912POPC   C4A43782   1.946   5.074   7.355
 8912POPC   C1B43783   2.233   5.064   6.455
 8912POPC   C2B43784   2.204   5.041   6.755
 8912POPC   C3B43785   2.235   5.040   7.055
 8912POPC   C4B43786   2.251   5.005   7.355
 8913POPC   NC343787  32.274  12.845   5.555
 8913POPC   PO443788  32.263  12.844   5.855
 8913POPC   GL143789  32.282  12.828   6.155
 8913POPC   GL243790  32.206  12.968   6.155
 8913POPC   C1A43791  32.212  12.810   6.455
 8913POPC   D2A43792  32.249  12.816   6.755
 8913POPC   C3A43793  32.285  12.858   7.055
 8913POPC   C4A43794  32.241  12.821   7.355
 8913POPC   C1B43795  32.230  13.108   6.455
 8913POPC   C2B43796  32.184  13.127   6.755
 8913POPC   C3B43797  32.204  13.133   7.055
 8913POPC   C4B43798  32.253  13.133   7.355
 8914POPC   NC343799  36.145   2.760   5.555
 8914POPC   PO443800  36.099   2.745   5.855
 8914POPC   GL143801  36.083   2.755   6.155
 8914POPC   GL243802  36.107   2.673   6.155
 8914POPC   C1A43803  36.132   2.796   6.455
 8914POPC   D2A43804  36.096   2.733   6.755
 8914POPC   C3A43805  36.142   2.720   7.055
 8914POPC   C4A43806  36.114   2.735   7.355
 8914POPC   C1B43807  36.120   2.558   6.455
 8914POPC   C2B43808  36.111   2.496   6.755
 8914POPC   C3B43809  36.168   2.491   7.055
 8914POPC   C4B43810  36.088   2.555   7.355
 8915POPC   NC343811  41.604   5.136   5.555
 8915POPC   PO443812  41.548   5.086   5.855
 8915POPC   GL143813  41.514   5.097   6.155
 8915POPC   GL243814  41.532   5.244   6.155
 8915POPC   C1A43815  41.541   5.076   6.455
 8915POPC   D2A43816  41.512   5.053   6.755
 8915POPC   C3A43817  41.541   5.086   7.055
 8915POPC   C4A43818  41.599   5.134   7.355
 8915POPC   C1B43819  41.503   5.346   6.455
 8915POPC   C2B43820  41.470   5.312   6.755
 8915POPC   C3B43821  41.508   5.328   7.055
 8915POPC   C4B43822  41.419   5.358   7.355
 8916POPC   NC343823  33.838  30.730   5.555
 8916POPC   PO443824  33.801  30.689   5.855
 8916POPC   GL143825  33.782  30.689   6.155
 8916POPC   GL243826  33.896  30.629   6.155
 8916POPC   C1A43827  33.832  30.731   6.455
 8916POPC   D2A43828  33.773  30.726   6.755
 8916POPC   C3A43829  33.755  30.697   7.055
 8916POPC   C4A43830  33.850  30.655   7.355
 8916POPC   C1B43831  34.021  30.613   6.455
 8916POPC   C2B43832  34.030  30.635   6.755
 8916POPC   C3B43833  34.008  30.561   7.055
 8916POPC   C4B43834  34.000  30.558   7.355
 8917POPC   NC343835  12.833  10.570   5.555
 8917POPC   PO443836  12.895  10.482   5.855
 8917POPC   GL143837  12.812  10.502   6.155
 8917POPC   GL243838  12.908  10.634   6.155
 8917POPC   C1A43839  12.842  10.542   6.455
 8917POPC   D2A43840  12.883  10.518   6.755
 8917POPC   C3A43841  12.876  10.567   7.055
 8917POPC   C4A43842  12.895  10.502   7.355
 8917POPC   C1B43843  12.944  10.724   6.455
 8917POPC   C2B43844  12.932  10.813   6.755
 8917POPC   C3B43845  12.881  10.792   7.055
 8917POPC   C4B43846  12.940  10.785   7.355
 8918POPC   NC343847  12.089  36.898   5.555
 8918POPC   PO443848  12.083  36.880   5.855
 8918POPC   GL143849  12.058  36.896   6.155
 8918POPC   GL243850  12.025  37.005   6.155
 8918POPC   C1A43851  12.090  36.897   6.455
 8918POPC   D2A43852  12.068  36.932   6.755
 8918POPC   C3A43853  12.057  36.943   7.055
 8918POPC   C4A43854  12.063  36.895   7.355
 8918POPC   C1B43855  11.943  37.142   6.455
 8918POPC   C2B43856  11.901  37.144   6.755
 8918POPC   C3B43857  11.984  37.145   7.055
 8918POPC   C4B43858  11.904  37.150   7.355
 8919POPC   NC343859  44.631  21.371   5.555
 8919POPC   PO443860  44.633  21.346   5.855
 8919POPC   GL143861  44.630  21.356   6.155
 8919POPC   GL243862  44.716  21.498   6.155
 8919POPC   C1A43863  44.643  21.378   6.455
 8919POPC   D2A43864  44.643  21.350   6.755
 8919POPC   C3A43865  44.701  21.345   7.055
 8919POPC   C4A43866  44.646  21.345   7.355
 8919POPC   C1B43867  44.694  21.615   6.455
 8919POPC   C2B43868  44.691  21.671   6.755
 8919POPC   C3B43869  44.655  21.586   7.055
 8919POPC   C4B43870  44.705  21.589   7.355
 8920POPC   NC343871  39.233  22.116   5.555
 8920POPC   PO443872  39.272  22.122   5.855
 8920POPC   GL143873  39.242  22.192   6.155
 8920POPC   GL243874  39.329  22.044   6.155
 8920POPC   C1A43875  39.203  22.195   6.455
 8920POPC   D2A43876  39.279  22.138   6.755
 8920POPC   C3A43877  39.194  22.136   7.055
 8920POPC   C4A43878  39.193  22.206   7.355
 8920POPC   C1B43879  39.414  21.986   6.455
 8920POPC   C2B43880  39.437  21.978   6.755
 8920POPC   C3B43881  39.452  21.974   7.055
 8920POPC   C4B43882  39.394  22.005   7.355
 8921POPC   NC343883  16.725  16.767   5.555
 8921POPC   PO443884  16.770  16.696   5.855
 8921POPC   GL143885  16.726  16.694   6.155
 8921POPC   GL243886  16.664  16.824   6.155
 8921POPC   C1A43887  16.752  16.694   6.455
 8921POPC   D2A43888  16.779  16.731   6.755
 8921POPC   C3A43889  16.763  16.700   7.055
 8921POPC   C4A43890  16.763  16.704   7.355
 8921POPC   C1B43891  16.542  16.860   6.455
 8921POPC   C2B43892  16.487  16.902   6.755
 8921POPC   C3B43893  16.530  16.852   7.055
 8921POPC   C4B43894  16.539  16.855   7.355
 8922POPC   NC343895  29.157  36.920   5.555
 8922POPC   PO443896  29.100  36.872   5.855
 8922POPC   GL143897  29.157  36.904   6.155
 8922POPC   GL243898  29.092  37.002   6.155
 8922POPC   C1A43899  29.184  36.863   6.455
 8922POPC   D2A43900  29.141  36.909   6.755
 8922POPC   C3A43901  29.105  36.906   7.055
 8922POPC   C4A43902  29.133  36.914   7.355
 8922POPC   C1B43903  28.917  37.067   6.455
 8922POPC   C2B43904  28.919  37.090   6.755
 8922POPC   C3B43905  28.980  37.094   7.055
 8922POPC   C4B43906  28.924  37.023   7.355
 8923POPC   NC343907  28.390  22.142   5.555
 8923POPC   PO443908  28.332  22.120   5.855
 8923POPC   GL143909  28.333  22.150   6.155
 8923POPC   GL243910  28.326  22.060   6.155
 8923POPC   C1A43911  28.327  22.173   6.455
 8923POPC   D2A43912  28.341  22.181   6.755
 8923POPC   C3A43913  28.328  22.204   7.055
 8923POPC   C4A43914  28.371  22.119   7.355
 8923POPC   C1B43915  28.329  21.950   6.455
 8923POPC   C2B43916  28.327  21.920   6.755
 8923POPC   C3B43917  28.310  21.922   7.055
 8923POPC   C4B43918  28.342  21.931   7.355
 8924POPC   NC343919   4.284  24.538   5.555
 8924POPC   PO443920   4.286  24.530   5.855
 8924POPC   GL143921   4.324  24.477   6.155
 8924POPC   GL243922   4.272  24.340   6.155
 8924POPC   C1A43923   4.332  24.480   6.455
 8924POPC   D2A43924   4.359  24.484   6.755
 8924POPC   C3A43925   4.277  24.480   7.055
 8924POPC   C4A43926   4.276  24.498   7.355
 8924POPC   C1B43927   4.149  24.313   6.455
 8924POPC   C2B43928   4.176  24.308   6.755
 8924POPC   C3B43929   4.196  24.228   7.055
 8924POPC   C4B43930   4.221  24.304   7.355
 8925POPC   NC343931   5.852   2.718   5.555
 8925POPC   PO443932   5.914   2.758   5.855
 8925POPC   GL143933   5.864   2.731   6.155
 8925POPC   GL243934   5.928   2.708   6.155
 8925POPC   C1A43935   5.903   2.752   6.455
 8925POPC   D2A43936   5.887   2.716   6.755
 8925POPC   C3A43937   5.886   2.813   7.055
 8925POPC   C4A43938   5.878   2.725   7.355
 8925POPC   C1B43939   6.096   2.607   6.455
 8925POPC   C2B43940   6.052   2.571   6.755
 8925POPC   C3B43941   6.105   2.570   7.055
 8925POPC   C4B43942   6.106   2.571   7.355
 8926POPC   NC343943  22.975   2.016   5.555
 8926POPC   PO443944  22.979   2.009   5.855
 8926POPC   GL143945  22.898   1.945   6.155
 8926POPC   GL243946  22.863   2.101   6.155
 8926POPC   C1A43947  22.906   1.971   6.455
 8926POPC   D2A43948  22.980   1.956   6.755
 8926POPC   C3A43949  22.986   1.941   7.055
 8926POPC   C4A43950  22.942   2.015   7.355
 8926POPC   C1B43951  22.809   2.187   6.455
 8926POPC   C2B43952  22.836   2.227   6.755
 8926POPC   C3B43953  22.768   2.248   7.055
 8926POPC   C4B43954  22.795   2.213   7.355
 8927POPC   NC343955  33.043  30.691   5.555
 8927POPC   PO443956  33.027  30.679   5.855
 8927POPC   GL143957  33.029  30.647   6.155
 8927POPC   GL243958  32.969  30.773   6.155
 8927POPC   C1A43959  33.037  30.727   6.455
 8927POPC   D2A43960  32.996  30.689   6.755
 8927POPC   C3A43961  33.056  30.686   7.055
 8927POPC   C4A43962  32.999  30.719   7.355
 8927POPC   C1B43963  33.018  30.920   6.455
 8927POPC   C2B43964  32.962  30.902   6.755
 8927POPC   C3B43965  32.995  30.896   7.055
 8927POPC   C4B43966  32.941  30.982   7.355
 8928POPC   NC343967  32.235  24.456   5.555
 8928POPC   PO443968  32.268  24.521   5.855
 8928POPC   GL143969  32.208  24.498   6.155
 8928POPC   GL243970  32.367  24.490   6.155
 8928POPC   C1A43971  32.214  24.502   6.455
 8928POPC   D2A43972  32.275  24.526   6.755
 8928POPC   C3A43973  32.297  24.491   7.055
 8928POPC   C4A43974  32.217  24.528   7.355
 8928POPC   C1B43975  32.514  24.578   6.455
 8928POPC   C2B43976  32.537  24.529   6.755
 8928POPC   C3B43977  32.481  24.495   7.055
 8928POPC   C4B43978  32.455  24.530   7.355
 8929POPC   NC343979  39.265   5.849   5.555
 8929POPC   PO443980  39.204   5.866   5.855
 8929POPC   GL143981  39.181   5.915   6.155
 8929POPC   GL243982  39.253   5.753   6.155
 8929POPC   C1A43983  39.237   5.911   6.455
 8929POPC   D2A43984  39.195   5.845   6.755
 8929POPC   C3A43985  39.245   5.840   7.055
 8929POPC   C4A43986  39.266   5.902   7.355
 8929POPC   C1B43987  39.270   5.642   6.455
 8929POPC   C2B43988  39.291   5.584   6.755
 8929POPC   C3B43989  39.304   5.587   7.055
 8929POPC   C4B43990  39.320   5.647   7.355
 8930POPC   NC343991  28.416  19.832   5.555
 8930POPC   PO443992  28.382  19.825   5.855
 8930POPC   GL143993  28.358  19.859   6.155
 8930POPC   GL243994  28.438  19.760   6.155
 8930POPC   C1A43995  28.331  19.811   6.455
 8930POPC   D2A43996  28.413  19.789   6.755
 8930POPC   C3A43997  28.371  19.811   7.055
 8930POPC   C4A43998  28.391  19.845   7.355
 8930POPC   C1B43999  28.581  19.724   6.455
 8930POPC   C2B44000  28.546  19.724   6.755
 8930POPC   C3B44001  28.558  19.703   7.055
 8930POPC   C4B44002  28.594  19.745   7.355
 8931POPC   NC344003  19.030   3.587   5.555
 8931POPC   PO444004  19.093   3.563   5.855
 8931POPC   GL144005  19.049   3.500   6.155
 8931POPC   GL244006  18.948   3.458   6.155
 8931POPC   C1A44007  19.013   3.582   6.455
 8931POPC   D2A44008  19.071   3.531   6.755
 8931POPC   C3A44009  19.040   3.530   7.055
 8931POPC   C4A44010  19.078   3.564   7.355
 8931POPC   C1B44011  18.831   3.377   6.455
 8931POPC   C2B44012  18.879   3.394   6.755
 8931POPC   C3B44013  18.907   3.369   7.055
 8931POPC   C4B44014  18.894   3.350   7.355
 8932POPC   NC344015  29.968  39.965   5.555
 8932POPC   PO444016  29.957  39.992   5.855
 8932POPC   GL144017  29.910  40.043   6.155
 8932POPC   GL244018  30.066  40.060   6.155
 8932POPC   C1A44019  29.928  40.027   6.455
 8932POPC   D2A44020  29.941  39.980   6.755
 8932POPC   C3A44021  29.940  40.040   7.055
 8932POPC   C4A44022  29.936  40.031   7.355
 8932POPC   C1B44023  30.175  40.131   6.455
 8932POPC   C2B44024  30.141  40.152   6.755
 8932POPC   C3B44025  30.092  40.150   7.055
 8932POPC   C4B44026  30.116  40.136   7.355
 8933POPC   NC344027  37.709  14.358   5.555
 8933POPC   PO444028  37.677  14.432   5.855
 8933POPC   GL144029  37.704  14.415   6.155
 8933POPC   GL244030  37.680  14.304   6.155
 8933POPC   C1A44031  37.677  14.418   6.455
 8933POPC   D2A44032  37.705  14.425   6.755
 8933POPC   C3A44033  37.677  14.429   7.055
 8933POPC   C4A44034  37.717  14.382   7.355
 8933POPC   C1B44035  37.767  14.160   6.455
 8933POPC   C2B44036  37.762  14.167   6.755
 8933POPC   C3B44037  37.712  14.122   7.055
 8933POPC   C4B44038  37.726  14.182   7.355
 8934POPC   NC344039  37.680  33.019   5.555
 8934POPC   PO444040  37.675  33.034   5.855
 8934POPC   GL144041  37.642  32.976   6.155
 8934POPC   GL244042  37.601  32.949   6.155
 8934POPC   C1A44043  37.711  33.055   6.455
 8934POPC   D2A44044  37.656  33.023   6.755
 8934POPC   C3A44045  37.690  33.004   7.055
 8934POPC   C4A44046  37.651  33.023   7.355
 8934POPC   C1B44047  37.569  32.828   6.455
 8934POPC   C2B44048  37.574  32.810   6.755
 8934POPC   C3B44049  37.634  32.788   7.055
 8934POPC   C4B44050  37.655  32.736   7.355
 8935POPC   NC344051  34.548  43.141   5.555
 8935POPC   PO444052  34.563  43.155   5.855
 8935POPC   GL144053  34.562  43.083   6.155
 8935POPC   GL244054  34.699  42.980   6.155
 8935POPC   C1A44055  34.564  43.116   6.455
 8935POPC   D2A44056  34.552  43.122   6.755
 8935POPC   C3A44057  34.618  43.116   7.055
 8935POPC   C4A44058  34.578  43.154   7.355
 8935POPC   C1B44059  34.730  42.959   6.455
 8935POPC   C2B44060  34.721  42.964   6.755
 8935POPC   C3B44061  34.709  42.903   7.055
 8935POPC   C4B44062  34.749  42.886   7.355
 8936POPC   NC344063  22.900  12.083   5.555
 8936POPC   PO444064  22.968  12.047   5.855
 8936POPC   GL144065  22.914  12.071   6.155
 8936POPC   GL244066  23.065  12.101   6.155
 8936POPC   C1A44067  22.901  12.027   6.455
 8936POPC   D2A44068  22.950  12.030   6.755
 8936POPC   C3A44069  22.950  12.055   7.055
 8936POPC   C4A44070  22.972  12.055   7.355
 8936POPC   C1B44071  23.122  12.204   6.455
 8936POPC   C2B44072  23.145  12.200   6.755
 8936POPC   C3B44073  23.159  12.167   7.055
 8936POPC   C4B44074  23.147  12.128   7.355
 8937POPC   NC344075  32.244  16.688   5.555
 8937POPC   PO444076  32.283  16.709   5.855
 8937POPC   GL144077  32.245  16.721   6.155
 8937POPC   GL244078  32.255  16.594   6.155
 8937POPC   C1A44079  32.245  16.705   6.455
 8937POPC   D2A44080  32.254  16.730   6.755
 8937POPC   C3A44081  32.246  16.697   7.055
 8937POPC   C4A44082  32.234  16.775   7.355
 8937POPC   C1B44083  32.186  16.500   6.455
 8937POPC   C2B44084  32.188  16.521   6.755
 8937POPC   C3B44085  32.186  16.496   7.055
 8937POPC   C4B44086  32.139  16.454   7.355
 8938POPC   NC344087   2.022  39.238   5.555
 8938POPC   PO444088   1.949  39.205   5.855
 8938POPC   GL144089   1.981  39.186   6.155
 8938POPC   GL244090   1.874  39.265   6.155
 8938POPC   C1A44091   1.970  39.228   6.455
 8938POPC   D2A44092   1.972  39.186   6.755
 8938POPC   C3A44093   2.002  39.274   7.055
 8938POPC   C4A44094   1.950  39.181   7.355
 8938POPC   C1B44095   1.764  39.303   6.455
 8938POPC   C2B44096   1.736  39.348   6.755
 8938POPC   C3B44097   1.730  39.324   7.055
 8938POPC   C4B44098   1.801  39.346   7.355
 8939POPC   NC344099  15.158  31.480   5.555
 8939POPC   PO444100  15.187  31.478   5.855
 8939POPC   GL144101  15.170  31.458   6.155
 8939POPC   GL244102  15.237  31.439   6.155
 8939POPC   C1A44103  15.154  31.519   6.455
 8939POPC   D2A44104  15.183  31.495   6.755
 8939POPC   C3A44105  15.149  31.493   7.055
 8939POPC   C4A44106  15.163  31.462   7.355
 8939POPC   C1B44107  15.429  31.367   6.455
 8939POPC   C2B44108  15.389  31.322   6.755
 8939POPC   C3B44109  15.336  31.297   7.055
 8939POPC   C4B44110  15.386  31.283   7.355
 8940POPC   NC344111   8.228   1.236   5.555
 8940POPC   PO444112   8.201   1.187   5.855
 8940POPC   GL144113   8.231   1.188   6.155
 8940POPC   GL244114   8.246   1.058   6.155
 8940POPC   C1A44115   8.237   1.182   6.455
 8940POPC   D2A44116   8.205   1.255   6.755
 8940POPC   C3A44117   8.160   1.188   7.055
 8940POPC   C4A44118   8.239   1.230   7.355
 8940POPC   C1B44119   8.196   0.925   6.455
 8940POPC   C2B44120   8.183   0.950   6.755
 8940POPC   C3B44121   8.238   1.003   7.055
 8940POPC   C4B44122   8.225   0.994   7.355
 8941POPC   NC344123  33.752  11.340   5.555
 8941POPC   PO444124  33.790  11.339   5.855
 8941POPC   GL144125  33.815  11.284   6.155
 8941POPC   GL244126  33.873  11.251   6.155
 8941POPC   C1A44127  33.836  11.335   6.455
 8941POPC   D2A44128  33.754  11.331   6.755
 8941POPC   C3A44129  33.810  11.333   7.055
 8941POPC   C4A44130  33.820  11.307   7.355
 8941POPC   C1B44131  34.038  11.223   6.455
 8941POPC   C2B44132  34.080  11.200   6.755
 8941POPC   C3B44133  34.088  11.246   7.055
 8941POPC   C4B44134  33.997  11.214   7.355
 8942POPC   NC344135  28.408  40.045   5.555
 8942POPC   PO444136  28.408  39.978   5.855
 8942POPC   GL144137  28.417  40.035   6.155
 8942POPC   GL244138  28.429  40.095   6.155
 8942POPC   C1A44139  28.404  40.004   6.455
 8942POPC   D2A44140  28.418  39.976   6.755
 8942POPC   C3A44141  28.387  39.984   7.055
 8942POPC   C4A44142  28.358  39.985   7.355
 8942POPC   C1B44143  28.494  40.272   6.455
 8942POPC   C2B44144  28.441  40.246   6.755
 8942POPC   C3B44145  28.435  40.232   7.055
 8942POPC   C4B44146  28.469  40.281   7.355
 8943POPC   NC344147  16.776   4.296   5.555
 8943POPC   PO444148  16.748   4.334   5.855
 8943POPC   GL144149  16.699   4.329   6.155
 8943POPC   GL244150  16.881   4.252   6.155
 8943POPC   C1A44151  16.722   4.319   6.455
 8943POPC   D2A44152  16.779   4.274   6.755
 8943POPC   C3A44153  16.700   4.338   7.055
 8943POPC   C4A44154  16.684   4.332   7.355
 8943POPC   C1B44155  16.974   4.210   6.455
 8943POPC   C2B44156  16.961   4.261   6.755
 8943POPC   C3B44157  17.002   4.229   7.055
 8943POPC   C4B44158  16.977   4.238   7.355
 8944POPC   NC344159  36.911  30.745   5.555
 8944POPC   PO444160  36.860  30.657   5.855
 8944POPC   GL144161  36.877  30.735   6.155
 8944POPC   GL244162  36.939  30.870   6.155
 8944POPC   C1A44163  36.878  30.717   6.455
 8944POPC   D2A44164  36.909  30.690   6.755
 8944POPC   C3A44165  36.938  30.744   7.055
 8944POPC   C4A44166  36.920  30.683   7.355
 8944POPC   C1B44167  36.899  30.916   6.455
 8944POPC   C2B44168  36.867  30.900   6.755
 8944POPC   C3B44169  36.928  30.994   7.055
 8944POPC   C4B44170  36.897  30.952   7.355
 8945POPC   NC344171   7.453  29.951   5.555
 8945POPC   PO444172   7.468  29.926   5.855
 8945POPC   GL144173   7.394  29.914   6.155
 8945POPC   GL244174   7.525  30.002   6.155
 8945POPC   C1A44175   7.467  29.920   6.455
 8945POPC   D2A44176   7.383  29.918   6.755
 8945POPC   C3A44177   7.398  29.909   7.055
 8945POPC   C4A44178   7.382  29.915   7.355
 8945POPC   C1B44179   7.668  30.042   6.455
 8945POPC   C2B44180   7.654  30.036   6.755
 8945POPC   C3B44181   7.679  30.041   7.055
 8945POPC   C4B44182   7.607  30.004   7.355
 8946POPC   NC344183  36.160   1.967   5.555
 8946POPC   PO444184  36.129   2.025   5.855
 8946POPC   GL144185  36.100   2.034   6.155
 8946POPC   GL244186  36.156   1.847   6.155
 8946POPC   C1A44187  36.105   1.946   6.455
 8946POPC   D2A44188  36.122   1.992   6.755
 8946POPC   C3A44189  36.153   2.013   7.055
 8946POPC   C4A44190  36.160   1.990   7.355
 8946POPC   C1B44191  36.195   1.716   6.455
 8946POPC   C2B44192  36.198   1.793   6.755
 8946POPC   C3B44193  36.175   1.727   7.055
 8946POPC   C4B44194  36.225   1.733   7.355
 8947POPC   NC344195  19.813   7.403   5.555
 8947POPC   PO444196  19.843   7.395   5.855
 8947POPC   GL144197  19.789   7.422   6.155
 8947POPC   GL244198  19.883   7.251   6.155
 8947POPC   C1A44199  19.811   7.444   6.455
 8947POPC   D2A44200  19.880   7.380   6.755
 8947POPC   C3A44201  19.822   7.391   7.055
 8947POPC   C4A44202  19.807   7.449   7.355
 8947POPC   C1B44203  19.881   7.155   6.455
 8947POPC   C2B44204  19.897   7.171   6.755
 8947POPC   C3B44205  19.820   7.156   7.055
 8947POPC   C4B44206  19.855   7.139   7.355
 8948POPC   NC344207  17.491  13.594   5.555
 8948POPC   PO444208  17.507  13.659   5.855
 8948POPC   GL144209  17.539  13.596   6.155
 8948POPC   GL244210  17.485  13.488   6.155
 8948POPC   C1A44211  17.463  13.654   6.455
 8948POPC   D2A44212  17.478  13.612   6.755
 8948POPC   C3A44213  17.509  13.627   7.055
 8948POPC   C4A44214  17.506  13.655   7.355
 8948POPC   C1B44215  17.476  13.427   6.455
 8948POPC   C2B44216  17.411  13.346   6.755
 8948POPC   C3B44217  17.457  13.358   7.055
 8948POPC   C4B44218  17.421  13.361   7.355
 8949POPC   NC344219  38.449  28.385   5.555
 8949POPC   PO444220  38.452  28.323   5.855
 8949POPC   GL144221  38.475  28.399   6.155
 8949POPC   GL244222  38.426  28.198   6.155
 8949POPC   C1A44223  38.449  28.418   6.455
 8949POPC   D2A44224  38.447  28.399   6.755
 8949POPC   C3A44225  38.484  28.367   7.055
 8949POPC   C4A44226  38.434  28.370   7.355
 8949POPC   C1B44227  38.410  28.132   6.455
 8949POPC   C2B44228  38.376  28.098   6.755
 8949POPC   C3B44229  38.406  28.122   7.055
 8949POPC   C4B44230  38.409  28.158   7.355
 8950POPC   NC344231   4.356  26.785   5.555
 8950POPC   PO444232   4.328  26.775   5.855
 8950POPC   GL144233   4.335  26.810   6.155
 8950POPC   GL244234   4.152  26.767   6.155
 8950POPC   C1A44235   4.365  26.840   6.455
 8950POPC   D2A44236   4.327  26.826   6.755
 8950POPC   C3A44237   4.333  26.845   7.055
 8950POPC   C4A44238   4.357  26.799   7.355
 8950POPC   C1B44239   4.086  26.803   6.455
 8950POPC   C2B44240   4.034  26.760   6.755
 8950POPC   C3B44241   4.039  26.800   7.055
 8950POPC   C4B44242   4.052  26.719   7.355
 8951POPC   NC344243   8.154  29.930   5.555
 8951POPC   PO444244   8.234  29.918   5.855
 8951POPC   GL144245   8.169  29.900   6.155
 8951POPC   GL244246   8.274  30.031   6.155
 8951POPC   C1A44247   8.218  29.951   6.455
 8951POPC   D2A44248   8.182  29.948   6.755
 8951POPC   C3A44249   8.169  29.960   7.055
 8951POPC   C4A44250   8.170  29.892   7.355
 8951POPC   C1B44251   8.416  30.082   6.455
 8951POPC   C2B44252   8.355  30.018   6.755
 8951POPC   C3B44253   8.442  30.078   7.055
 8951POPC   C4B44254   8.371  30.071   7.355
 8952POPC   NC344255  26.063  22.966   5.555
 8952POPC   PO444256  26.074  22.908   5.855
 8952POPC   GL144257  26.066  22.895   6.155
 8952POPC   GL244258  26.084  22.850   6.155
 8952POPC   C1A44259  26.003  22.980   6.455
 8952POPC   D2A44260  26.056  22.955   6.755
 8952POPC   C3A44261  26.085  22.894   7.055
 8952POPC   C4A44262  26.005  22.913   7.355
 8952POPC   C1B44263  26.147  22.750   6.455
 8952POPC   C2B44264  26.108  22.694   6.755
 8952POPC   C3B44265  26.149  22.756   7.055
 8952POPC   C4B44266  26.181  22.703   7.355
 8953POPC   NC344267  10.482  42.324   5.555
 8953POPC   PO444268  10.504  42.299   5.855
 8953POPC   GL144269  10.532  42.352   6.155
 8953POPC   GL244270  10.603  42.328   6.155
 8953POPC   C1A44271  10.516  42.337   6.455
 8953POPC   D2A44272  10.543  42.384   6.755
 8953POPC   C3A44273  10.546  42.287   7.055
 8953POPC   C4A44274  10.476  42.342   7.355
 8953POPC   C1B44275  10.728  42.368   6.455
 8953POPC   C2B44276  10.784  42.415   6.755
 8953POPC   C3B44277  10.773  42.383   7.055
 8953POPC   C4B44278  10.778  42.322   7.355
 8954POPC   NC344279  31.475  43.875   5.555
 8954POPC   PO444280  31.465  43.856   5.855
 8954POPC   GL144281  31.461  43.862   6.155
 8954POPC   GL244282  31.394  43.855   6.155
 8954POPC   C1A44283  31.479  43.883   6.455
 8954POPC   D2A44284  31.454  43.895   6.755
 8954POPC   C3A44285  31.520  43.843   7.055
 8954POPC   C4A44286  31.443  43.863   7.355
 8954POPC   C1B44287  31.225  43.806   6.455
 8954POPC   C2B44288  31.234  43.853   6.755
 8954POPC   C3B44289  31.281  43.780   7.055
 8954POPC   C4B44290  31.275  43.829   7.355
 8955POPC   NC344291  29.901  29.146   5.555
 8955POPC   PO444292  29.959  29.166   5.855
 8955POPC   GL144293  29.946  29.121   6.155
 8955POPC   GL244294  29.886  29.301   6.155
 8955POPC   C1A44295  29.905  29.140   6.455
 8955POPC   D2A44296  29.970  29.177   6.755
 8955POPC   C3A44297  29.965  29.152   7.055
 8955POPC   C4A44298  29.918  29.163   7.355
 8955POPC   C1B44299  29.902  29.357   6.455
 8955POPC   C2B44300  29.828  29.388   6.755
 8955POPC   C3B44301  29.820  29.378   7.055
 8955POPC   C4B44302  29.858  29.357   7.355
 8956POPC   NC344303   5.077  18.288   5.555
 8956POPC   PO444304   5.124  18.286   5.855
 8956POPC   GL144305   5.085  18.237   6.155
 8956POPC   GL244306   5.143  18.394   6.155
 8956POPC   C1A44307   5.055  18.313   6.455
 8956POPC   D2A44308   5.113  18.245   6.755
 8956POPC   C3A44309   5.117  18.261   7.055
 8956POPC   C4A44310   5.117  18.317   7.355
 8956POPC   C1B44311   5.249  18.418   6.455
 8956POPC   C2B44312   5.226  18.504   6.755
 8956POPC   C3B44313   5.274  18.470   7.055
 8956POPC   C4B44314   5.307  18.432   7.355
 8957POPC   NC344315  36.148   4.292   5.555
 8957POPC   PO444316  36.115   4.275   5.855
 8957POPC   GL144317  36.152   4.317   6.155
 8957POPC   GL244318  36.268   4.302   6.155
 8957POPC   C1A44319  36.144   4.340   6.455
 8957POPC   D2A44320  36.129   4.289   6.755
 8957POPC   C3A44321  36.102   4.342   7.055
 8957POPC   C4A44322  36.087   4.326   7.355
 8957POPC   C1B44323  36.335   4.212   6.455
 8957POPC   C2B44324  36.408   4.187   6.755
 8957POPC   C3B44325  36.316   4.188   7.055
 8957POPC   C4B44326  36.401   4.198   7.355
 8958POPC   NC344327  16.682   0.408   5.555
 8958POPC   PO444328  16.690   0.449   5.855
 8958POPC   GL144329  16.752   0.409   6.155
 8958POPC   GL244330  16.886   0.456   6.155
 8958POPC   C1A44331  16.751   0.409   6.455
 8958POPC   D2A44332  16.714   0.480   6.755
 8958POPC   C3A44333  16.717   0.452   7.055
 8958POPC   C4A44334  16.687   0.469   7.355
 8958POPC   C1B44335  17.001   0.544   6.455
 8958POPC   C2B44336  16.979   0.477   6.755
 8958POPC   C3B44337  17.007   0.482   7.055
 8958POPC   C4B44338  16.943   0.500   7.355
 8959POPC   NC344339  11.332  26.785   5.555
 8959POPC   PO444340  11.277  26.788   5.855
 8959POPC   GL144341  11.266  26.858   6.155
 8959POPC   GL244342  11.283  26.663   6.155
 8959POPC   C1A44343  11.347  26.852   6.455
 8959POPC   D2A44344  11.319  26.777   6.755
 8959POPC   C3A44345  11.340  26.783   7.055
 8959POPC   C4A44346  11.251  26.815   7.355
 8959POPC   C1B44347  11.303  26.529   6.455
 8959POPC   C2B44348  11.274  26.573   6.755
 8959POPC   C3B44349  11.339  26.522   7.055
 8959POPC   C4B44350  11.362  26.557   7.355
 8960POPC   NC344351  30.746  40.031   5.555
 8960POPC   PO444352  30.682  39.962   5.855
 8960POPC   GL144353  30.664  39.996   6.155
 8960POPC   GL244354  30.676  40.074   6.155
 8960POPC   C1A44355  30.702  40.040   6.455
 8960POPC   D2A44356  30.725  40.008   6.755
 8960POPC   C3A44357  30.738  40.026   7.055
 8960POPC   C4A44358  30.742  40.045   7.355
 8960POPC   C1B44359  30.567  40.207   6.455
 8960POPC   C2B44360  30.559  40.277   6.755
 8960POPC   C3B44361  30.600  40.220   7.055
 8960POPC   C4B44362  30.563  40.185   7.355
 8961POPC   NC344363  21.353  12.069   5.555
 8961POPC   PO444364  21.345  12.079   5.855
 8961POPC   GL144365  21.418  12.114   6.155
 8961POPC   GL244366  21.282  12.116   6.155
 8961POPC   C1A44367  21.435  12.083   6.455
 8961POPC   D2A44368  21.393  12.054   6.755
 8961POPC   C3A44369  21.373  12.086   7.055
 8961POPC   C4A44370  21.361  12.027   7.355
 8961POPC   C1B44371  21.110  12.081   6.455
 8961POPC   C2B44372  21.092  12.144   6.755
 8961POPC   C3B44373  21.126  12.113   7.055
 8961POPC   C4B44374  21.169  12.132   7.355
 8962POPC   NC344375  12.073  40.808   5.555
 8962POPC   PO444376  12.088  40.770   5.855
 8962POPC   GL144377  12.048  40.785   6.155
 8962POPC   GL244378  12.132  40.846   6.155
 8962POPC   C1A44379  12.055  40.758   6.455
 8962POPC   D2A44380  12.084  40.786   6.755
 8962POPC   C3A44381  12.078  40.773   7.055
 8962POPC   C4A44382  12.041  40.779   7.355
 8962POPC   C1B44383  12.216  40.964   6.455
 8962POPC   C2B44384  12.292  40.987   6.755
 8962POPC   C3B44385  12.195  40.929   7.055
 8962POPC   C4B44386  12.257  40.966   7.355
 8963POPC   NC344387  42.305  15.194   5.555
 8963POPC   PO444388  42.335  15.228   5.855
 8963POPC   GL144389  42.384  15.164   6.155
 8963POPC   GL244390  42.330  15.300   6.155
 8963POPC   C1A44391  42.312  15.214   6.455
 8963POPC   D2A44392  42.366  15.204   6.755
 8963POPC   C3A44393  42.286  15.191   7.055
 8963POPC   C4A44394  42.371  15.206   7.355
 8963POPC   C1B44395  42.433  15.448   6.455
 8963POPC   C2B44396  42.453  15.399   6.755
 8963POPC   C3B44397  42.423  15.372   7.055
 8963POPC   C4B44398  42.418  15.426   7.355
 8964POPC   NC344399  20.629  37.705   5.555
 8964POPC   PO444400  20.581  37.632   5.855
 8964POPC   GL144401  20.639  37.711   6.155
 8964POPC   GL244402  20.712  37.747   6.155
 8964POPC   C1A44403  20.563  37.715   6.455
 8964POPC   D2A44404  20.629  37.709   6.755
 8964POPC   C3A44405  20.620  37.713   7.055
 8964POPC   C4A44406  20.652  37.646   7.355
 8964POPC   C1B44407  20.701  37.918   6.455
 8964POPC   C2B44408  20.679  37.886   6.755
 8964POPC   C3B44409  20.711  37.866   7.055
 8964POPC   C4B44410  20.751  37.872   7.355
 8965POPC   NC344411  33.055  32.297   5.555
 8965POPC   PO444412  33.022  32.288   5.855
 8965POPC   GL144413  33.057  32.290   6.155
 8965POPC   GL244414  33.126  32.224   6.155
 8965POPC   C1A44415  33.052  32.219   6.455
 8965POPC   D2A44416  33.045  32.261   6.755
 8965POPC   C3A44417  33.059  32.236   7.055
 8965POPC   C4A44418  33.066  32.209   7.355
 8965POPC   C1B44419  33.253  32.179   6.455
 8965POPC   C2B44420  33.286  32.195   6.755
 8965POPC   C3B44421  33.240  32.228   7.055
 8965POPC   C4B44422  33.257  32.179   7.355
 8966POPC   NC344423   8.163  35.386   5.555
 8966POPC   PO444424   8.238  35.352   5.855
 8966POPC   GL144425   8.230  35.323   6.155
 8966POPC   GL244426   8.285  35.492   6.155
 8966POPC   C1A44427   8.215  35.321   6.455
 8966POPC   D2A44428   8.162  35.368   6.755
 8966POPC   C3A44429   8.165  35.304   7.055
 8966POPC   C4A44430   8.244  35.327   7.355
 8966POPC   C1B44431   8.346  35.527   6.455
 8966POPC   C2B44432   8.281  35.599   6.755
 8966POPC   C3B44433   8.347  35.595   7.055
 8966POPC   C4B44434   8.280  35.625   7.355
 8967POPC   NC344435  21.414   6.612   5.555
 8967POPC   PO444436  21.358   6.663   5.855
 8967POPC   GL144437  21.394   6.599   6.155
 8967POPC   GL244438  21.349   6.478   6.155
 8967POPC   C1A44439  21.422   6.627   6.455
 8967POPC   D2A44440  21.415   6.680   6.755
 8967POPC   C3A44441  21.389   6.605   7.055
 8967POPC   C4A44442  21.369   6.672   7.355
 8967POPC   C1B44443  21.381   6.347   6.455
 8967POPC   C2B44444  21.410   6.360   6.755
 8967POPC   C3B44445  21.425   6.347   7.055
 8967POPC   C4B44446  21.454   6.427   7.355
 8968POPC   NC344447  13.609  12.110   5.555
 8968POPC   PO444448  13.615  12.044   5.855
 8968POPC   GL144449  13.674  12.106   6.155
 8968POPC   GL244450  13.717  12.171   6.155
 8968POPC   C1A44451  13.581  12.125   6.455
 8968POPC   D2A44452  13.602  12.040   6.755
 8968POPC   C3A44453  13.588  12.039   7.055
 8968POPC   C4A44454  13.586  12.120   7.355
 8968POPC   C1B44455  13.810  12.209   6.455
 8968POPC   C2B44456  13.887  12.200   6.755
 8968POPC   C3B44457  13.872  12.174   7.055
 8968POPC   C4B44458  13.831  12.158   7.355
 8969POPC   NC344459   1.999  30.727   5.555
 8969POPC   PO444460   1.998  30.683   5.855
 8969POPC   GL144461   2.032  30.667   6.155
 8969POPC   GL244462   1.947  30.619   6.155
 8969POPC   C1A44463   2.030  30.671   6.455
 8969POPC   D2A44464   2.005  30.666   6.755
 8969POPC   C3A44465   1.992  30.702   7.055
 8969POPC   C4A44466   1.956  30.662   7.355
 8969POPC   C1B44467   1.910  30.432   6.455
 8969POPC   C2B44468   1.872  30.444   6.755
 8969POPC   C3B44469   1.860  30.465   7.055
 8969POPC   C4B44470   1.899  30.508   7.355
 8970POPC   NC344471  26.087  20.602   5.555
 8970POPC   PO444472  26.002  20.634   5.855
 8970POPC   GL144473  26.037  20.594   6.155
 8970POPC   GL244474  25.991  20.751   6.155
 8970POPC   C1A44475  26.041  20.643   6.455
 8970POPC   D2A44476  26.013  20.591   6.755
 8970POPC   C3A44477  26.081  20.602   7.055
 8970POPC   C4A44478  26.035  20.602   7.355
 8970POPC   C1B44479  25.919  20.776   6.455
 8970POPC   C2B44480  25.858  20.807   6.755
 8970POPC   C3B44481  25.929  20.798   7.055
 8970POPC   C4B44482  25.917  20.826   7.355
 8971POPC   NC344483  30.681  12.880   5.555
 8971POPC   PO444484  30.712  12.808   5.855
 8971POPC   GL144485  30.740  12.809   6.155
 8971POPC   GL244486  30.765  12.783   6.155
 8971POPC   C1A44487  30.657  12.862   6.455
 8971POPC   D2A44488  30.731  12.827   6.755
 8971POPC   C3A44489  30.712  12.845   7.055
 8971POPC   C4A44490  30.666  12.831   7.355
 8971POPC   C1B44491  30.957  12.723   6.455
 8971POPC   C2B44492  30.914  12.776   6.755
 8971POPC   C3B44493  30.944  12.762   7.055
 8971POPC   C4B44494  30.944  12.785   7.355
 8972POPC   NC344495  43.160  32.273   5.555
 8972POPC   PO444496  43.130  32.250   5.855
 8972POPC   GL144497  43.079  32.252   6.155
 8972POPC   GL244498  42.939  32.223   6.155
 8972POPC   C1A44499  43.081  32.255   6.455
 8972POPC   D2A44500  43.078  32.272   6.755
 8972POPC   C3A44501  43.152  32.274   7.055
 8972POPC   C4A44502  43.145  32.219   7.355
 8972POPC   C1B44503  42.911  32.333   6.455
 8972POPC   C2B44504  42.881  32.295   6.755
 8972POPC   C3B44505  42.827  32.254   7.055
 8972POPC   C4B44506  42.867  32.243   7.355
 8973POPC   NC344507   9.720  27.571   5.555
 8973POPC   PO444508   9.731  27.622   5.855
 8973POPC   GL144509   9.792  27.576   6.155
 8973POPC   GL244510   9.672  27.556   6.155
 8973POPC   C1A44511   9.755  27.569   6.455
 8973POPC   D2A44512   9.774  27.617   6.755
 8973POPC   C3A44513   9.735  27.618   7.055
 8973POPC   C4A44514   9.763  27.558   7.355
 8973POPC   C1B44515   9.523  27.581   6.455
 8973POPC   C2B44516   9.527  27.526   6.755
 8973POPC   C3B44517   9.507  27.557   7.055
 8973POPC   C4B44518   9.480  27.533   7.355
 8974POPC   NC344519  26.795  18.246   5.555
 8974POPC   PO444520  26.776  18.287   5.855
 8974POPC   GL144521  26.840  18.277   6.155
 8974POPC   GL244522  26.765  18.126   6.155
 8974POPC   C1A44523  26.860  18.284   6.455
 8974POPC   D2A44524  26.844  18.250   6.755
 8974POPC   C3A44525  26.776  18.287   7.055
 8974POPC   C4A44526  26.812  18.311   7.355
 8974POPC   C1B44527  26.741  18.058   6.455
 8974POPC   C2B44528  26.754  18.079   6.755
 8974POPC   C3B44529  26.786  18.029   7.055
 8974POPC   C4B44530  26.723  18.035   7.355
 8975POPC   NC344531   3.552  33.836   5.555
 8975POPC   PO444532   3.536  33.782   5.855
 8975POPC   GL144533   3.536  33.804   6.155
 8975POPC   GL244534   3.694  33.778   6.155
 8975POPC   C1A44535   3.545  33.848   6.455
 8975POPC   D2A44536   3.589  33.819   6.755
 8975POPC   C3A44537   3.588  33.849   7.055
 8975POPC   C4A44538   3.527  33.804   7.355
 8975POPC   C1B44539   3.758  33.718   6.455
 8975POPC   C2B44540   3.759  33.671   6.755
 8975POPC   C3B44541   3.740  33.679   7.055
 8975POPC   C4B44542   3.801  33.733   7.355
 8976POPC   NC344543  22.144  38.415   5.555
 8976POPC   PO444544  22.177  38.449   5.855
 8976POPC   GL144545  22.191  38.441   6.155
 8976POPC   GL244546  22.173  38.607   6.155
 8976POPC   C1A44547  22.195  38.473   6.455
 8976POPC   D2A44548  22.198  38.488   6.755
 8976POPC   C3A44549  22.179  38.483   7.055
 8976POPC   C4A44550  22.205  38.426   7.355
 8976POPC   C1B44551  22.156  38.681   6.455
 8976POPC   C2B44552  22.194  38.726   6.755
 8976POPC   C3B44553  22.162  38.691   7.055
 8976POPC   C4B44554  22.196  38.660   7.355
 8977POPC   NC344555   3.505  11.338   5.555
 8977POPC   PO444556   3.506  11.252   5.855
 8977POPC   GL144557   3.527  11.295   6.155
 8977POPC   GL244558   3.674  11.379   6.155
 8977POPC   C1A44559   3.586  11.273   6.455
 8977POPC   D2A44560   3.509  11.330   6.755
 8977POPC   C3A44561   3.509  11.326   7.055
 8977POPC   C4A44562   3.526  11.346   7.355
 8977POPC   C1B44563   3.790  11.420   6.455
 8977POPC   C2B44564   3.783  11.372   6.755
 8977POPC   C3B44565   3.790  11.425   7.055
 8977POPC   C4B44566   3.775  11.362   7.355
 8978POPC   NC344567  29.894   1.965   5.555
 8978POPC   PO444568  29.958   1.951   5.855
 8978POPC   GL144569  29.910   1.998   6.155
 8978POPC   GL244570  29.929   2.156   6.155
 8978POPC   C1A44571  29.879   2.025   6.455
 8978POPC   D2A44572  29.957   2.020   6.755
 8978POPC   C3A44573  29.872   2.002   7.055
 8978POPC   C4A44574  29.906   1.975   7.355
 8978POPC   C1B44575  29.888   2.194   6.455
 8978POPC   C2B44576  29.860   2.187   6.755
 8978POPC   C3B44577  29.850   2.210   7.055
 8978POPC   C4B44578  29.868   2.212   7.355
 8979POPC   NC344579  33.776  42.381   5.555
 8979POPC   PO444580  33.831  42.369   5.855
 8979POPC   GL144581  33.821  42.312   6.155
 8979POPC   GL244582  33.730  42.335   6.155
 8979POPC   C1A44583  33.778  42.368   6.455
 8979POPC   D2A44584  33.783  42.384   6.755
 8979POPC   C3A44585  33.835  42.368   7.055
 8979POPC   C4A44586  33.849  42.307   7.355
 8979POPC   C1B44587  33.596  42.260   6.455
 8979POPC   C2B44588  33.522  42.239   6.755
 8979POPC   C3B44589  33.556  42.226   7.055
 8979POPC   C4B44590  33.524  42.228   7.355
 8980POPC   NC344591   3.512  28.372   5.555
 8980POPC   PO444592   3.537  28.394   5.855
 8980POPC   GL144593   3.552  28.346   6.155
 8980POPC   GL244594   3.609  28.414   6.155
 8980POPC   C1A44595   3.505  28.364   6.455
 8980POPC   D2A44596   3.536  28.387   6.755
 8980POPC   C3A44597   3.540  28.352   7.055
 8980POPC   C4A44598   3.548  28.324   7.355
 8980POPC   C1B44599   3.727  28.455   6.455
 8980POPC   C2B44600   3.750  28.480   6.755
 8980POPC   C3B44601   3.790  28.518   7.055
 8980POPC   C4B44602   3.816  28.487   7.355
 8981POPC   NC344603  15.954  15.971   5.555
 8981POPC   PO444604  15.996  15.993   5.855
 8981POPC   GL144605  15.925  15.932   6.155
 8981POPC   GL244606  16.062  15.939   6.155
 8981POPC   C1A44607  15.955  15.915   6.455
 8981POPC   D2A44608  15.945  15.954   6.755
 8981POPC   C3A44609  15.963  15.953   7.055
 8981POPC   C4A44610  16.002  15.963   7.355
 8981POPC   C1B44611  16.238  15.892   6.455
 8981POPC   C2B44612  16.225  15.851   6.755
 8981POPC   C3B44613  16.247  15.875   7.055
 8981POPC   C4B44614  16.186  15.935   7.355
 8982POPC   NC344615  10.553  22.929   5.555
 8982POPC   PO444616  10.532  22.975   5.855
 8982POPC   GL144617  10.539  22.912   6.155
 8982POPC   GL244618  10.399  23.033   6.155
 8982POPC   C1A44619  10.557  22.945   6.455
 8982POPC   D2A44620  10.559  22.939   6.755
 8982POPC   C3A44621  10.489  22.918   7.055
 8982POPC   C4A44622  10.504  22.961   7.355
 8982POPC   C1B44623  10.329  23.079   6.455
 8982POPC   C2B44624  10.320  23.068   6.755
 8982POPC   C3B44625  10.270  23.069   7.055
 8982POPC   C4B44626  10.340  23.050   7.355
 8983POPC   NC344627  40.825   9.001   5.555
 8983POPC   PO444628  40.793   8.982   5.855
 8983POPC   GL144629  40.799   8.938   6.155
 8983POPC   GL244630  40.792   9.110   6.155
 8983POPC   C1A44631  40.750   8.990   6.455
 8983POPC   D2A44632  40.808   8.999   6.755
 8983POPC   C3A44633  40.741   9.000   7.055
 8983POPC   C4A44634  40.785   8.992   7.355
 8983POPC   C1B44635  40.848   9.195   6.455
 8983POPC   C2B44636  40.859   9.260   6.755
 8983POPC   C3B44637  40.826   9.228   7.055
 8983POPC   C4B44638  40.846   9.182   7.355
 8984POPC   NC344639   1.248   6.627   5.555
 8984POPC   PO444640   1.200   6.681   5.855
 8984POPC   GL144641   1.253   6.605   6.155
 8984POPC   GL244642   1.169   6.710   6.155
 8984POPC   C1A44643   1.238   6.694   6.455
 8984POPC   D2A44644   1.235   6.617   6.755
 8984POPC   C3A44645   1.167   6.601   7.055
 8984POPC   C4A44646   1.177   6.673   7.355
 8984POPC   C1B44647   1.086   6.862   6.455
 8984POPC   C2B44648   1.142   6.834   6.755
 8984POPC   C3B44649   1.138   6.916   7.055
 8984POPC   C4B44650   1.090   6.907   7.355
 8985POPC   NC344651  15.142  16.750   5.555
 8985POPC   PO444652  15.201  16.718   5.855
 8985POPC   GL144653  15.187  16.741   6.155
 8985POPC   GL244654  15.150  16.591   6.155
 8985POPC   C1A44655  15.219  16.701   6.455
 8985POPC   D2A44656  15.170  16.738   6.755
 8985POPC   C3A44657  15.191  16.716   7.055
 8985POPC   C4A44658  15.133  16.710   7.355
 8985POPC   C1B44659  15.127  16.449   6.455
 8985POPC   C2B44660  15.075  16.468   6.755
 8985POPC   C3B44661  15.073  16.495   7.055
 8985POPC   C4B44662  15.082  16.502   7.355
 8986POPC   NC344663  33.009  12.842   5.555
 8986POPC   PO444664  33.049  12.860   5.855
 8986POPC   GL144665  32.995  12.880   6.155
 8986POPC   GL244666  32.985  12.729   6.155
 8986POPC   C1A44667  32.984  12.871   6.455
 8986POPC   D2A44668  33.006  12.863   6.755
 8986POPC   C3A44669  33.000  12.841   7.055
 8986POPC   C4A44670  33.051  12.893   7.355
 8986POPC   C1B44671  32.999  12.653   6.455
 8986POPC   C2B44672  33.001  12.616   6.755
 8986POPC   C3B44673  32.995  12.591   7.055
 8986POPC   C4B44674  33.009  12.642   7.355
 8987POPC   NC344675  22.975  37.639   5.555
 8987POPC   PO444676  22.969  37.642   5.855
 8987POPC   GL144677  22.896  37.634   6.155
 8987POPC   GL244678  22.937  37.556   6.155
 8987POPC   C1A44679  22.978  37.676   6.455
 8987POPC   D2A44680  22.888  37.682   6.755
 8987POPC   C3A44681  22.892  37.666   7.055
 8987POPC   C4A44682  22.898  37.630   7.355
 8987POPC   C1B44683  22.906  37.421   6.455
 8987POPC   C2B44684  22.974  37.440   6.755
 8987POPC   C3B44685  22.953  37.413   7.055
 8987POPC   C4B44686  22.981  37.445   7.355
 8988POPC   NC344687   5.055  26.847   5.555
 8988POPC   PO444688   5.142  26.810   5.855
 8988POPC   GL144689   5.055  26.849   6.155
 8988POPC   GL244690   4.984  26.852   6.155
 8988POPC   C1A44691   5.089  26.779   6.455
 8988POPC   D2A44692   5.057  26.798   6.755
 8988POPC   C3A44693   5.052  26.867   7.055
 8988POPC   C4A44694   5.115  26.835   7.355
 8988POPC   C1B44695   4.889  26.951   6.455
 8988POPC   C2B44696   4.895  26.924   6.755
 8988POPC   C3B44697   4.838  26.905   7.055
 8988POPC   C4B44698   4.834  26.953   7.355
 8989POPC   NC344699  43.936  42.292   5.555
 8989POPC   PO444700  43.863  42.364   5.855
 8989POPC   GL144701  43.879  42.330   6.155
 8989POPC   GL244702  44.014  42.286   6.155
 8989POPC   C1A44703  43.888  42.315   6.455
 8989POPC   D2A44704  43.915  42.321   6.755
 8989POPC   C3A44705  43.855  42.322   7.055
 8989POPC   C4A44706  43.867  42.326   7.355
 8989POPC   C1B44707  44.033  42.202   6.455
 8989POPC   C2B44708  44.121  42.180   6.755
 8989POPC   C3B44709  44.027  42.133   7.055
 8989POPC   C4B44710  44.119  42.180   7.355
 8990POPC   NC344711  21.391  13.674   5.555
 8990POPC   PO444712  21.388  13.579   5.855
 8990POPC   GL144713  21.376  13.617   6.155
 8990POPC   GL244714  21.456  13.516   6.155
 8990POPC   C1A44715  21.391  13.635   6.455
 8990POPC   D2A44716  21.343  13.580   6.755
 8990POPC   C3A44717  21.404  13.584   7.055
 8990POPC   C4A44718  21.424  13.611   7.355
 8990POPC   C1B44719  21.438  13.369   6.455
 8990POPC   C2B44720  21.525  13.403   6.755
 8990POPC   C3B44721  21.485  13.381   7.055
 8990POPC   C4B44722  21.466  13.398   7.355
 8991POPC   NC344723  25.254  21.381   5.555
 8991POPC   PO444724  25.279  21.415   5.855
 8991POPC   GL144725  25.262  21.356   6.155
 8991POPC   GL244726  25.185  21.394   6.155
 8991POPC   C1A44727  25.299  21.406   6.455
 8991POPC   D2A44728  25.279  21.348   6.755
 8991POPC   C3A44729  25.219  21.378   7.055
 8991POPC   C4A44730  25.313  21.411   7.355
 8991POPC   C1B44731  24.981  21.302   6.455
 8991POPC   C2B44732  25.038  21.306   6.755
 8991POPC   C3B44733  25.009  21.373   7.055
 8991POPC   C4B44734  25.036  21.311   7.355
 8992POPC   NC344735  22.908  33.038   5.555
 8992POPC   PO444736  22.929  33.019   5.855
 8992POPC   GL144737  22.936  33.008   6.155
 8992POPC   GL244738  23.029  32.977   6.155
 8992POPC   C1A44739  22.974  33.063   6.455
 8992POPC   D2A44740  22.949  33.013   6.755
 8992POPC   C3A44741  22.927  33.034   7.055
 8992POPC   C4A44742  22.915  32.991   7.355
 8992POPC   C1B44743  23.185  32.882   6.455
 8992POPC   C2B44744  23.148  32.886   6.755
 8992POPC   C3B44745  23.190  32.853   7.055
 8992POPC   C4B44746  23.098  32.879   7.355
 8993POPC   NC344747  43.067  44.699   5.555
 8993POPC   PO444748  43.138  44.623   5.855
 8993POPC   GL144749  43.080  44.670   6.155
 8993POPC   GL244750  43.080  44.570   6.155
 8993POPC   C1A44751  43.115  44.679   6.455
 8993POPC   D2A44752  43.150  44.711   6.755
 8993POPC   C3A44753  43.081  44.685   7.055
 8993POPC   C4A44754  43.064  44.642   7.355
 8993POPC   C1B44755  43.044  44.377   6.455
 8993POPC   C2B44756  43.055  44.376   6.755
 8993POPC   C3B44757  43.116  44.444   7.055
 8993POPC   C4B44758  43.075  44.372   7.355
 8994POPC   NC344759  23.693  35.377   5.555
 8994POPC   PO444760  23.706  35.353   5.855
 8994POPC   GL144761  23.746  35.318   6.155
 8994POPC   GL244762  23.666  35.209   6.155
 8994POPC   C1A44763  23.709  35.390   6.455
 8994POPC   D2A44764  23.729  35.376   6.755
 8994POPC   C3A44765  23.747  35.368   7.055
 8994POPC   C4A44766  23.700  35.372   7.355
 8994POPC   C1B44767  23.680  35.122   6.455
 8994POPC   C2B44768  23.672  35.120   6.755
 8994POPC   C3B44769  23.625  35.117   7.055
 8994POPC   C4B44770  23.636  35.104   7.355
 8995POPC   NC344771  17.462  43.076   5.555
 8995POPC   PO444772  17.546  43.082   5.855
 8995POPC   GL144773  17.480  43.145   6.155
 8995POPC   GL244774  17.541  43.240   6.155
 8995POPC   C1A44775  17.519  43.153   6.455
 8995POPC   D2A44776  17.492  43.086   6.755
 8995POPC   C3A44777  17.526  43.089   7.055
 8995POPC   C4A44778  17.516  43.083   7.355
 8995POPC   C1B44779  17.558  43.365   6.455
 8995POPC   C2B44780  17.542  43.334   6.755
 8995POPC   C3B44781  17.518  43.336   7.055
 8995POPC   C4B44782  17.575  43.347   7.355
 8996POPC   NC344783   6.669  27.552   5.555
 8996POPC   PO444784   6.639  27.565   5.855
 8996POPC   GL144785   6.662  27.634   6.155
 8996POPC   GL244786   6.569  27.623   6.155
 8996POPC   C1A44787   6.670  27.584   6.455
 8996POPC   D2A44788   6.612  27.594   6.755
 8996POPC   C3A44789   6.682  27.637   7.055
 8996POPC   C4A44790   6.609  27.583   7.355
 8996POPC   C1B44791   6.424  27.637   6.455
 8996POPC   C2B44792   6.438  27.620   6.755
 8996POPC   C3B44793   6.409  27.689   7.055
 8996POPC   C4B44794   6.408  27.612   7.355
 8997POPC   NC344795   2.782  15.976   5.555
 8997POPC   PO444796   2.780  15.909   5.855
 8997POPC   GL144797   2.758  16.003   6.155
 8997POPC   GL244798   2.775  15.833   6.155
 8997POPC   C1A44799   2.812  15.907   6.455
 8997POPC   D2A44800   2.721  15.965   6.755
 8997POPC   C3A44801   2.739  15.991   7.055
 8997POPC   C4A44802   2.752  15.976   7.355
 8997POPC   C1B44803   2.802  15.662   6.455
 8997POPC   C2B44804   2.815  15.661   6.755
 8997POPC   C3B44805   2.797  15.712   7.055
 8997POPC   C4B44806   2.804  15.683   7.355
 8998POPC   NC344807  18.293  23.694   5.555
 8998POPC   PO444808  18.258  23.695   5.855
 8998POPC   GL144809  18.318  23.695   6.155
 8998POPC   GL244810  18.307  23.797   6.155
 8998POPC   C1A44811  18.308  23.666   6.455
 8998POPC   D2A44812  18.233  23.716   6.755
 8998POPC   C3A44813  18.275  23.664   7.055
 8998POPC   C4A44814  18.242  23.685   7.355
 8998POPC   C1B44815  18.220  23.951   6.455
 8998POPC   C2B44816  18.259  23.952   6.755
 8998POPC   C3B44817  18.287  23.959   7.055
 8998POPC   C4B44818  18.226  23.939   7.355
 8999POPC   NC344819  15.221  35.367   5.555
 8999POPC   PO444820  15.155  35.392   5.855
 8999POPC   GL144821  15.178  35.317   6.155
 8999POPC   GL244822  15.171  35.513   6.155
 8999POPC   C1A44823  15.227  35.320   6.455
 8999POPC   D2A44824  15.160  35.392   6.755
 8999POPC   C3A44825  15.189  35.355   7.055
 8999POPC   C4A44826  15.177  35.344   7.355
 8999POPC   C1B44827  15.074  35.586   6.455
 8999POPC   C2B44828  15.099  35.567   6.755
 8999POPC   C3B44829  15.065  35.571   7.055
 8999POPC   C4B44830  15.130  35.600   7.355
 9000POPC   NC344831  13.627  35.398   5.555
 9000POPC   PO444832  13.671  35.331   5.855
 9000POPC   GL144833  13.635  35.348   6.155
 9000POPC   GL244834  13.567  35.296   6.155
 9000POPC   C1A44835  13.651  35.308   6.455
 9000POPC   D2A44836  13.588  35.313   6.755
 9000POPC   C3A44837  13.618  35.370   7.055
 9000POPC   C4A44838  13.581  35.317   7.355
 9000POPC   C1B44839  13.460  35.222   6.455
 9000POPC   C2B44840  13.425  35.186   6.755
 9000POPC   C3B44841  13.444  35.205   7.055
 9000POPC   C4B44842  13.414  35.221   7.355
 9001POPC   NC344843  25.256  36.168   5.555
 9001POPC   PO444844  25.242  36.099   5.855
 9001POPC   GL144845  25.300  36.168   6.155
 9001POPC   GL244846  25.112  36.139   6.155
 9001POPC   C1A44847  25.244  36.085   6.455
 9001POPC   D2A44848  25.248  36.106   6.755
 9001POPC   C3A44849  25.312  36.089   7.055
 9001POPC   C4A44850  25.224  36.152   7.355
 9001POPC   C1B44851  25.034  36.228   6.455
 9001POPC   C2B44852  24.990  36.209   6.755
 9001POPC   C3B44853  25.062  36.235   7.055
 9001POPC   C4B44854  25.009  36.227   7.355
 9002POPC   NC344855  31.460  11.279   5.555
 9002POPC   PO444856  31.438  11.254   5.855
 9002POPC   GL144857  31.454  11.341   6.155
 9002POPC   GL244858  31.522  11.219   6.155
 9002POPC   C1A44859  31.476  11.320   6.455
 9002POPC   D2A44860  31.476  11.339   6.755
 9002POPC   C3A44861  31.446  11.299   7.055
 9002POPC   C4A44862  31.455  11.326   7.355
 9002POPC   C1B44863  31.648  11.113   6.455
 9002POPC   C2B44864  31.608  11.109   6.755
 9002POPC   C3B44865  31.630  11.131   7.055
 9002POPC   C4B44866  31.603  11.131   7.355
 9003POPC   NC344867  23.708  22.148   5.555
 9003POPC   PO444868  23.733  22.203   5.855
 9003POPC   GL144869  23.669  22.159   6.155
 9003POPC   GL244870  23.704  22.026   6.155
 9003POPC   C1A44871  23.676  22.196   6.455
 9003POPC   D2A44872  23.705  22.202   6.755
 9003POPC   C3A44873  23.744  22.199   7.055
 9003POPC   C4A44874  23.698  22.144   7.355
 9003POPC   C1B44875  23.599  21.878   6.455
 9003POPC   C2B44876  23.642  21.956   6.755
 9003POPC   C3B44877  23.657  21.927   7.055
 9003POPC   C4B44878  23.682  21.948   7.355
 9004POPC   NC344879   1.196  16.688   5.555
 9004POPC   PO444880   1.226  16.766   5.855
 9004POPC   GL144881   1.212  16.757   6.155
 9004POPC   GL244882   1.290  16.734   6.155
 9004POPC   C1A44883   1.250  16.725   6.455
 9004POPC   D2A44884   1.238  16.709   6.755
 9004POPC   C3A44885   1.246  16.718   7.055
 9004POPC   C4A44886   1.194  16.699   7.355
 9004POPC   C1B44887   1.478  16.859   6.455
 9004POPC   C2B44888   1.496  16.838   6.755
 9004POPC   C3B44889   1.419  16.787   7.055
 9004POPC   C4B44890   1.428  16.810   7.355
 9005POPC   NC344891  38.469   5.046   5.555
 9005POPC   PO444892  38.412   5.054   5.855
 9005POPC   GL144893  38.471   5.100   6.155
 9005POPC   GL244894  38.399   5.228   6.155
 9005POPC   C1A44895  38.415   5.106   6.455
 9005POPC   D2A44896  38.495   5.062   6.755
 9005POPC   C3A44897  38.434   5.134   7.055
 9005POPC   C4A44898  38.431   5.090   7.355
 9005POPC   C1B44899  38.313   5.264   6.455
 9005POPC   C2B44900  38.269   5.259   6.755
 9005POPC   C3B44901  38.314   5.302   7.055
 9005POPC   C4B44902  38.298   5.283   7.355
 9006POPC   NC344903  19.037  44.707   5.555
 9006POPC   PO444904  19.062  44.675   5.855
 9006POPC   GL144905  19.085  44.640   6.155
 9006POPC   GL244906  19.204  44.633   6.155
 9006POPC   C1A44907  19.044  44.680   6.455
 9006POPC   D2A44908  19.107  44.666   6.755
 9006POPC   C3A44909  19.046  44.633   7.055
 9006POPC   C4A44910  19.012  44.646   7.355
 9006POPC   C1B44911  19.314  44.717   6.455
 9006POPC   C2B44912  19.274  44.737   6.755
 9006POPC   C3B44913  19.332  44.651   7.055
 9006POPC   C4B44914  19.349  44.683   7.355
 9007POPC   NC344915   8.984   9.732   5.555
 9007POPC   PO444916   8.938   9.705   5.855
 9007POPC   GL144917   8.958   9.707   6.155
 9007POPC   GL244918   8.892   9.676   6.155
 9007POPC   C1A44919   9.007   9.761   6.455
 9007POPC   D2A44920   9.020   9.703   6.755
 9007POPC   C3A44921   8.968   9.709   7.055
 9007POPC   C4A44922   8.962   9.734   7.355
 9007POPC   C1B44923   8.881   9.519   6.455
 9007POPC   C2B44924   8.878   9.510   6.755
 9007POPC   C3B44925   8.958   9.519   7.055
 9007POPC   C4B44926   8.921   9.549   7.355
 9008POPC   NC344927  33.066  40.748   5.555
 9008POPC   PO444928  32.998  40.773   5.855
 9008POPC   GL144929  32.986  40.797   6.155
 9008POPC   GL244930  32.923  40.898   6.155
 9008POPC   C1A44931  33.045  40.792   6.455
 9008POPC   D2A44932  32.984  40.799   6.755
 9008POPC   C3A44933  32.989  40.747   7.055
 9008POPC   C4A44934  33.063  40.755   7.355
 9008POPC   C1B44935  32.775  40.928   6.455
 9008POPC   C2B44936  32.839  40.894   6.755
 9008POPC   C3B44937  32.766  40.884   7.055
 9008POPC   C4B44938  32.797  40.901   7.355
 9009POPC   NC344939   9.012  14.362   5.555
 9009POPC   PO444940   8.923  14.402   5.855
 9009POPC   GL144941   9.015  14.452   6.155
 9009POPC   GL244942   8.887  14.375   6.155
 9009POPC   C1A44943   8.938  14.407   6.455
 9009POPC   D2A44944   8.929  14.383   6.755
 9009POPC   C3A44945   8.961  14.426   7.055
 9009POPC   C4A44946   9.021  14.361   7.355
 9009POPC   C1B44947   8.685  14.452   6.455
 9009POPC   C2B44948   8.695  14.422   6.755
 9009POPC   C3B44949   8.755  14.484   7.055
 9009POPC   C4B44950   8.775  14.471   7.355
 9010POPC   NC344951  23.746  37.696   5.555
 9010POPC   PO444952  23.750  37.687   5.855
 9010POPC   GL144953  23.720  37.701   6.155
 9010POPC   GL244954  23.814  37.588   6.155
 9010POPC   C1A44955  23.683  37.712   6.455
 9010POPC   D2A44956  23.724  37.699   6.755
 9010POPC   C3A44957  23.721  37.697   7.055
 9010POPC   C4A44958  23.757  37.720   7.355
 9010POPC   C1B44959  23.903  37.528   6.455
 9010POPC   C2B44960  23.918  37.576   6.755
 9010POPC   C3B44961  23.985  37.583   7.055
 9010POPC   C4B44962  23.906  37.614   7.355
 9011POPC   NC344963  29.152  13.595   5.555
 9011POPC   PO444964  29.097  13.614   5.855
 9011POPC   GL144965  29.169  13.637   6.155
 9011POPC   GL244966  29.166  13.741   6.155
 9011POPC   C1A44967  29.188  13.612   6.455
 9011POPC   D2A44968  29.128  13.580   6.755
 9011POPC   C3A44969  29.191  13.603   7.055
 9011POPC   C4A44970  29.124  13.657   7.355
 9011POPC   C1B44971  29.157  13.869   6.455
 9011POPC   C2B44972  29.114  13.926   6.755
 9011POPC   C3B44973  29.096  13.891   7.055
 9011POPC   C4B44974  29.126  13.886   7.355
 9012POPC   NC344975   8.930  43.896   5.555
 9012POPC   PO444976   8.937  43.856   5.855
 9012POPC   GL144977   9.017  43.848   6.155
 9012POPC   GL244978   9.130  43.972   6.155
 9012POPC   C1A44979   9.007  43.874   6.455
 9012POPC   D2A44980   8.974  43.907   6.755
 9012POPC   C3A44981   8.980  43.838   7.055
 9012POPC   C4A44982   8.976  43.916   7.355
 9012POPC   C1B44983   9.216  43.941   6.455
 9012POPC   C2B44984   9.217  43.942   6.755
 9012POPC   C3B44985   9.225  43.941   7.055
 9012POPC   C4B44986   9.184  44.008   7.355
 9013POPC   NC344987  40.783  42.290   5.555
 9013POPC   PO444988  40.832  42.374   5.855
 9013POPC   GL144989  40.803  42.344   6.155
 9013POPC   GL244990  40.778  42.179   6.155
 9013POPC   C1A44991  40.809  42.336   6.455
 9013POPC   D2A44992  40.748  42.304   6.755
 9013POPC   C3A44993  40.797  42.337   7.055
 9013POPC   C4A44994  40.817  42.309   7.355
 9013POPC   C1B44995  40.721  42.147   6.455
 9013POPC   C2B44996  40.679  42.083   6.755
 9013POPC   C3B44997  40.648  42.149   7.055
 9013POPC   C4B44998  40.726  42.125   7.355
 9014POPC   NC344999  43.893  43.924   5.555
 9014POPC   PO445000  43.884  43.906   5.855
 9014POPC   GL145001  43.867  43.879   6.155
 9014POPC   GL245002  43.771  44.014   6.155
 9014POPC   C1A45003  43.930  43.934   6.455
 9014POPC   D2A45004  43.838  43.841   6.755
 9014POPC   C3A45005  43.865  43.839   7.055
 9014POPC   C4A45006  43.863  43.871   7.355
 9014POPC   C1B45007  43.683  44.018   6.455
 9014POPC   C2B45008  43.705  44.079   6.755
 9014POPC   C3B45009  43.727  44.018   7.055
 9014POPC   C4B45010  43.726  44.009   7.355
 9015POPC   NC345011  17.537  22.912   5.555
 9015POPC   PO445012  17.483  22.965   5.855
 9015POPC   GL145013  17.551  22.900   6.155
 9015POPC   GL245014  17.671  22.948   6.155
 9015POPC   C1A45015  17.488  22.923   6.455
 9015POPC   D2A45016  17.527  22.895   6.755
 9015POPC   C3A45017  17.506  22.912   7.055
 9015POPC   C4A45018  17.525  22.906   7.355
 9015POPC   C1B45019  17.729  22.873   6.455
 9015POPC   C2B45020  17.705  22.916   6.755
 9015POPC   C3B45021  17.756  22.902   7.055
 9015POPC   C4B45022  17.790  22.912   7.355
 9016POPC   NC345023  13.650  43.842   5.555
 9016POPC   PO445024  13.579  43.886   5.855
 9016POPC   GL145025  13.655  43.875   6.155
 9016POPC   GL245026  13.459  43.931   6.155
 9016POPC   C1A45027  13.660  43.888   6.455
 9016POPC   D2A45028  13.602  43.912   6.755
 9016POPC   C3A45029  13.605  43.845   7.055
 9016POPC   C4A45030  13.591  43.846   7.355
 9016POPC   C1B45031  13.384  43.867   6.455
 9016POPC   C2B45032  13.392  43.885   6.755
 9016POPC   C3B45033  13.350  43.923   7.055
 9016POPC   C4B45034  13.412  43.934   7.355
 9017POPC   NC345035  29.896   4.322   5.555
 9017POPC   PO445036  29.922   4.319   5.855
 9017POPC   GL145037  29.928   4.348   6.155
 9017POPC   GL245038  29.772   4.400   6.155
 9017POPC   C1A45039  29.912   4.327   6.455
 9017POPC   D2A45040  29.947   4.356   6.755
 9017POPC   C3A45041  29.965   4.333   7.055
 9017POPC   C4A45042  29.888   4.272   7.355
 9017POPC   C1B45043  29.684   4.374   6.455
 9017POPC   C2B45044  29.729   4.441   6.755
 9017POPC   C3B45045  29.678   4.393   7.055
 9017POPC   C4B45046  29.699   4.402   7.355
 9018POPC   NC345047  15.195  18.260   5.555
 9018POPC   PO445048  15.194  18.306   5.855
 9018POPC   GL145049  15.172  18.260   6.155
 9018POPC   GL245050  15.077  18.219   6.155
 9018POPC   C1A45051  15.198  18.262   6.455
 9018POPC   D2A45052  15.210  18.315   6.755
 9018POPC   C3A45053  15.163  18.272   7.055
 9018POPC   C4A45054  15.180  18.246   7.355
 9018POPC   C1B45055  14.928  18.194   6.455
 9018POPC   C2B45056  14.924  18.243   6.755
 9018POPC   C3B45057  14.958  18.269   7.055
 9018POPC   C4B45058  14.983  18.258   7.355
 9019POPC   NC345059  10.495  34.573   5.555
 9019POPC   PO445060  10.525  34.562   5.855
 9019POPC   GL145061  10.476  34.568   6.155
 9019POPC   GL245062  10.439  34.479   6.155
 9019POPC   C1A45063  10.568  34.614   6.455
 9019POPC   D2A45064  10.552  34.604   6.755
 9019POPC   C3A45065  10.492  34.620   7.055
 9019POPC   C4A45066  10.532  34.557   7.355
 9019POPC   C1B45067  10.307  34.435   6.455
 9019POPC   C2B45068  10.305  34.454   6.755
 9019POPC   C3B45069  10.299  34.399   7.055
 9019POPC   C4B45070  10.339  34.458   7.355
 9020POPC   NC345071  27.580  34.553   5.555
 9020POPC   PO445072  27.568  34.560   5.855
 9020POPC   GL145073  27.604  34.609   6.155
 9020POPC   GL245074  27.620  34.448   6.155
 9020POPC   C1A45075  27.632  34.562   6.455
 9020POPC   D2A45076  27.580  34.616   6.755
 9020POPC   C3A45077  27.562  34.552   7.055
 9020POPC   C4A45078  27.569  34.541   7.355
 9020POPC   C1B45079  27.669  34.375   6.455
 9020POPC   C2B45080  27.614  34.333   6.755
 9020POPC   C3B45081  27.641  34.364   7.055
 9020POPC   C4B45082  27.597  34.279   7.355
 9021POPC   NC345083  36.895  38.467   5.555
 9021POPC   PO445084  36.895  38.496   5.855
 9021POPC   GL145085  36.884  38.501   6.155
 9021POPC   GL245086  36.916  38.613   6.155
 9021POPC   C1A45087  36.937  38.416   6.455
 9021POPC   D2A45088  36.900  38.496   6.755
 9021POPC   C3A45089  36.922  38.423   7.055
 9021POPC   C4A45090  36.910  38.470   7.355
 9021POPC   C1B45091  36.923  38.665   6.455
 9021POPC   C2B45092  36.914  38.669   6.755
 9021POPC   C3B45093  36.945  38.718   7.055
 9021POPC   C4B45094  36.908  38.698   7.355
 9022POPC   NC345095  29.165  16.746   5.555
 9022POPC   PO445096  29.105  16.747   5.855
 9022POPC   GL145097  29.104  16.772   6.155
 9022POPC   GL245098  29.240  16.766   6.155
 9022POPC   C1A45099  29.118  16.694   6.455
 9022POPC   D2A45100  29.103  16.684   6.755
 9022POPC   C3A45101  29.130  16.773   7.055
 9022POPC   C4A45102  29.155  16.779   7.355
 9022POPC   C1B45103  29.441  16.752   6.455
 9022POPC   C2B45104  29.361  16.673   6.755
 9022POPC   C3B45105  29.353  16.707   7.055
 9022POPC   C4B45106  29.443  16.766   7.355
 9023POPC   NC345107  16.730  13.613   5.555
 9023POPC   PO445108  16.712  13.656   5.855
 9023POPC   GL145109  16.716  13.593   6.155
 9023POPC   GL245110  16.723  13.707   6.155
 9023POPC   C1A45111  16.689  13.591   6.455
 9023POPC   D2A45112  16.752  13.585   6.755
 9023POPC   C3A45113  16.683  13.673   7.055
 9023POPC   C4A45114  16.692  13.644   7.355
 9023POPC   C1B45115  16.702  13.832   6.455
 9023POPC   C2B45116  16.743  13.902   6.755
 9023POPC   C3B45117  16.730  13.838   7.055
 9023POPC   C4B45118  16.731  13.840   7.355
 9024POPC   NC345119  15.951  13.666   5.555
 9024POPC   PO445120  15.926  13.669   5.855
 9024POPC   GL145121  15.959  13.615   6.155
 9024POPC   GL245122  16.063  13.524   6.155
 9024POPC   C1A45123  15.938  13.590   6.455
 9024POPC   D2A45124  15.934  13.675   6.755
 9024POPC   C3A45125  15.964  13.645   7.055
 9024POPC   C4A45126  15.980  13.629   7.355
 9024POPC   C1B45127  16.169  13.444   6.455
 9024POPC   C2B45128  16.130  13.440   6.755
 9024POPC   C3B45129  16.172  13.435   7.055
 9024POPC   C4B45130  16.191  13.499   7.355
 9025POPC   NC345131  37.694  42.320   5.555
 9025POPC   PO445132  37.698  42.363   5.855
 9025POPC   GL145133  37.698  42.361   6.155
 9025POPC   GL245134  37.633  42.442   6.155
 9025POPC   C1A45135  37.686  42.356   6.455
 9025POPC   D2A45136  37.669  42.364   6.755
 9025POPC   C3A45137  37.718  42.383   7.055
 9025POPC   C4A45138  37.723  42.333   7.355
 9025POPC   C1B45139  37.648  42.604   6.455
 9025POPC   C2B45140  37.706  42.626   6.755
 9025POPC   C3B45141  37.643  42.614   7.055
 9025POPC   C4B45142  37.623  42.632   7.355
 9026POPC   NC345143  14.369   8.243   5.555
 9026POPC   PO445144  14.421   8.227   5.855
 9026POPC   GL145145  14.425   8.149   6.155
 9026POPC   GL245146  14.411   8.281   6.155
 9026POPC   C1A45147  14.356   8.155   6.455
 9026POPC   D2A45148  14.395   8.217   6.755
 9026POPC   C3A45149  14.373   8.178   7.055
 9026POPC   C4A45150  14.380   8.192   7.355
 9026POPC   C1B45151  14.476   8.439   6.455
 9026POPC   C2B45152  14.501   8.422   6.755
 9026POPC   C3B45153  14.512   8.465   7.055
 9026POPC   C4B45154  14.476   8.418   7.355
 9027POPC   NC345155  38.485   3.527   5.555
 9027POPC   PO445156  38.436   3.520   5.855
 9027POPC   GL145157  38.439   3.504   6.155
 9027POPC   GL245158  38.362   3.510   6.155
 9027POPC   C1A45159  38.409   3.557   6.455
 9027POPC   D2A45160  38.433   3.492   6.755
 9027POPC   C3A45161  38.466   3.542   7.055
 9027POPC   C4A45162  38.484   3.543   7.355
 9027POPC   C1B45163  38.227   3.397   6.455
 9027POPC   C2B45164  38.266   3.400   6.755
 9027POPC   C3B45165  38.211   3.429   7.055
 9027POPC   C4B45166  38.283   3.388   7.355
 9028POPC   NC345167   1.196  38.485   5.555
 9028POPC   PO445168   1.171  38.455   5.855
 9028POPC   GL145169   1.186  38.464   6.155
 9028POPC   GL245170   1.302  38.360   6.155
 9028POPC   C1A45171   1.234  38.480   6.455
 9028POPC   D2A45172   1.203  38.459   6.755
 9028POPC   C3A45173   1.239  38.428   7.055
 9028POPC   C4A45174   1.218  38.408   7.355
 9028POPC   C1B45175   1.455  38.362   6.455
 9028POPC   C2B45176   1.471  38.373   6.755
 9028POPC   C3B45177   1.399  38.353   7.055
 9028POPC   C4B45178   1.494  38.382   7.355
 9029POPC   NC345179  31.517  14.373   5.555
 9029POPC   PO445180  31.518  14.393   5.855
 9029POPC   GL145181  31.424  14.436   6.155
 9029POPC   GL245182  31.455  14.262   6.155
 9029POPC   C1A45183  31.463  14.402   6.455
 9029POPC   D2A45184  31.474  14.451   6.755
 9029POPC   C3A45185  31.447  14.384   7.055
 9029POPC   C4A45186  31.425  14.425   7.355
 9029POPC   C1B45187  31.515  14.179   6.455
 9029POPC   C2B45188  31.505  14.130   6.755
 9029POPC   C3B45189  31.485  14.172   7.055
 9029POPC   C4B45190  31.559  14.199   7.355
 9030POPC   NC345191   3.547  17.487   5.555
 9030POPC   PO445192   3.571  17.492   5.855
 9030POPC   GL145193   3.521  17.497   6.155
 9030POPC   GL245194   3.559  17.429   6.155
 9030POPC   C1A45195   3.573  17.546   6.455
 9030POPC   D2A45196   3.590  17.483   6.755
 9030POPC   C3A45197   3.544  17.490   7.055
 9030POPC   C4A45198   3.504  17.544   7.355
 9030POPC   C1B45199   3.583  17.222   6.455
 9030POPC   C2B45200   3.616  17.258   6.755
 9030POPC   C3B45201   3.550  17.232   7.055
 9030POPC   C4B45202   3.553  17.222   7.355
 9031POPC   NC345203  38.440  12.042   5.555
 9031POPC   PO445204  38.418  12.044   5.855
 9031POPC   GL145205  38.489  12.095   6.155
 9031POPC   GL245206  38.390  11.981   6.155
 9031POPC   C1A45207  38.406  12.076   6.455
 9031POPC   D2A45208  38.438  12.050   6.755
 9031POPC   C3A45209  38.425  12.039   7.055
 9031POPC   C4A45210  38.467  12.096   7.355
 9031POPC   C1B45211  38.216  11.917   6.455
 9031POPC   C2B45212  38.235  11.971   6.755
 9031POPC   C3B45213  38.252  11.879   7.055
 9031POPC   C4B45214  38.271  11.944   7.355
 9032POPC   NC345215  24.488  21.406   5.555
 9032POPC   PO445216  24.443  21.416   5.855
 9032POPC   GL145217  24.520  21.377   6.155
 9032POPC   GL245218  24.581  21.338   6.155
 9032POPC   C1A45219  24.466  21.354   6.455
 9032POPC   D2A45220  24.480  21.435   6.755
 9032POPC   C3A45221  24.502  21.369   7.055
 9032POPC   C4A45222  24.514  21.376   7.355
 9032POPC   C1B45223  24.689  21.265   6.455
 9032POPC   C2B45224  24.714  21.223   6.755
 9032POPC   C3B45225  24.725  21.239   7.055
 9032POPC   C4B45226  24.647  21.252   7.355
 9033POPC   NC345227  37.661   4.275   5.555
 9033POPC   PO445228  37.651   4.351   5.855
 9033POPC   GL145229  37.654   4.303   6.155
 9033POPC   GL245230  37.585   4.428   6.155
 9033POPC   C1A45231  37.687   4.298   6.455
 9033POPC   D2A45232  37.728   4.271   6.755
 9033POPC   C3A45233  37.702   4.280   7.055
 9033POPC   C4A45234  37.723   4.320   7.355
 9033POPC   C1B45235  37.565   4.471   6.455
 9033POPC   C2B45236  37.570   4.528   6.755
 9033POPC   C3B45237  37.497   4.502   7.055
 9033POPC   C4B45238  37.544   4.558   7.355
 9034POPC   NC345239  31.473  42.352   5.555
 9034POPC   PO445240  31.518  42.363   5.855
 9034POPC   GL145241  31.469  42.378   6.155
 9034POPC   GL245242  31.436  42.459   6.155
 9034POPC   C1A45243  31.489  42.321   6.455
 9034POPC   D2A45244  31.467  42.330   6.755
 9034POPC   C3A45245  31.439  42.319   7.055
 9034POPC   C4A45246  31.487  42.300   7.355
 9034POPC   C1B45247  31.323  42.524   6.455
 9034POPC   C2B45248  31.349  42.492   6.755
 9034POPC   C3B45249  31.346  42.552   7.055
 9034POPC   C4B45250  31.339  42.575   7.355
 9035POPC   NC345251  10.487  36.151   5.555
 9035POPC   PO445252  10.516  36.151   5.855
 9035POPC   GL145253  10.489  36.104   6.155
 9035POPC   GL245254  10.658  36.093   6.155
 9035POPC   C1A45255  10.544  36.103   6.455
 9035POPC   D2A45256  10.531  36.166   6.755
 9035POPC   C3A45257  10.574  36.123   7.055
 9035POPC   C4A45258  10.500  36.112   7.355
 9035POPC   C1B45259  10.798  36.050   6.455
 9035POPC   C2B45260  10.751  36.098   6.755
 9035POPC   C3B45261  10.750  36.100   7.055
 9035POPC   C4B45262  10.744  36.070   7.355
 9036POPC   NC345263   5.888   1.254   5.555
 9036POPC   PO445264   5.853   1.226   5.855
 9036POPC   GL145265   5.893   1.194   6.155
 9036POPC   GL245266   5.788   1.279   6.155
 9036POPC   C1A45267   5.898   1.172   6.455
 9036POPC   D2A45268   5.872   1.230   6.755
 9036POPC   C3A45269   5.848   1.172   7.055
 9036POPC   C4A45270   5.896   1.260   7.355
 9036POPC   C1B45271   5.757   1.414   6.455
 9036POPC   C2B45272   5.710   1.406   6.755
 9036POPC   C3B45273   5.731   1.390   7.055
 9036POPC   C4B45274   5.742   1.406   7.355
 9037POPC   NC345275   8.161  26.074   5.555
 9037POPC   PO445276   8.241  25.997   5.855
 9037POPC   GL145277   8.247  26.025   6.155
 9037POPC   GL245278   8.295  25.916   6.155
 9037POPC   C1A45279   8.190  26.024   6.455
 9037POPC   D2A45280   8.213  26.000   6.755
 9037POPC   C3A45281   8.150  25.999   7.055
 9037POPC   C4A45282   8.169  26.078   7.355
 9037POPC   C1B45283   8.300  25.812   6.455
 9037POPC   C2B45284   8.369  25.813   6.755
 9037POPC   C3B45285   8.305  25.841   7.055
 9037POPC   C4B45286   8.304  25.858   7.355
 9038POPC   NC345287  27.597  36.150   5.555
 9038POPC   PO445288  27.642  36.172   5.855
 9038POPC   GL145289  27.580  36.176   6.155
 9038POPC   GL245290  27.470  36.014   6.155
 9038POPC   C1A45291  27.561  36.160   6.455
 9038POPC   D2A45292  27.637  36.165   6.755
 9038POPC   C3A45293  27.573  36.132   7.055
 9038POPC   C4A45294  27.610  36.175   7.355
 9038POPC   C1B45295  27.427  35.917   6.455
 9038POPC   C2B45296  27.376  35.983   6.755
 9038POPC   C3B45297  27.467  35.967   7.055
 9038POPC   C4B45298  27.459  35.902   7.355
 9039POPC   NC345299  32.213  36.157   5.555
 9039POPC   PO445300  32.296  36.175   5.855
 9039POPC   GL145301  32.205  36.128   6.155
 9039POPC   GL245302  32.195  36.004   6.155
 9039POPC   C1A45303  32.201  36.082   6.455
 9039POPC   D2A45304  32.295  36.079   6.755
 9039POPC   C3A45305  32.203  36.107   7.055
 9039POPC   C4A45306  32.292  36.170   7.355
 9039POPC   C1B45307  32.270  35.872   6.455
 9039POPC   C2B45308  32.266  35.866   6.755
 9039POPC   C3B45309  32.267  35.840   7.055
 9039POPC   C4B45310  32.279  35.838   7.355
 9040POPC   NC345311  39.233   1.970   5.555
 9040POPC   PO445312  39.210   2.025   5.855
 9040POPC   GL145313  39.223   1.951   6.155
 9040POPC   GL245314  39.241   2.095   6.155
 9040POPC   C1A45315  39.237   1.961   6.455
 9040POPC   D2A45316  39.183   2.010   6.755
 9040POPC   C3A45317  39.222   2.034   7.055
 9040POPC   C4A45318  39.279   2.035   7.355
 9040POPC   C1B45319  39.199   2.178   6.455
 9040POPC   C2B45320  39.186   2.264   6.755
 9040POPC   C3B45321  39.144   2.254   7.055
 9040POPC   C4B45322  39.190   2.207   7.355
 9041POPC   NC345323  19.029  11.318   5.555
 9041POPC   PO445324  19.029  11.338   5.855
 9041POPC   GL145325  19.090  11.297   6.155
 9041POPC   GL245326  18.912  11.293   6.155
 9041POPC   C1A45327  19.088  11.324   6.455
 9041POPC   D2A45328  19.010  11.344   6.755
 9041POPC   C3A45329  19.051  11.326   7.055
 9041POPC   C4A45330  19.103  11.284   7.355
 9041POPC   C1B45331  18.833  11.383   6.455
 9041POPC   C2B45332  18.810  11.396   6.755
 9041POPC   C3B45333  18.817  11.327   7.055
 9041POPC   C4B45334  18.839  11.344   7.355
 9042POPC   NC345335  11.282  11.338   5.555
 9042POPC   PO445336  11.320  11.346   5.855
 9042POPC   GL145337  11.299  11.294   6.155
 9042POPC   GL245338  11.206  11.167   6.155
 9042POPC   C1A45339  11.271  11.257   6.455
 9042POPC   D2A45340  11.273  11.332   6.755
 9042POPC   C3A45341  11.308  11.252   7.055
 9042POPC   C4A45342  11.268  11.338   7.355
 9042POPC   C1B45343  11.177  11.101   6.455
 9042POPC   C2B45344  11.081  11.093   6.755
 9042POPC   C3B45345  11.172  11.084   7.055
 9042POPC   C4B45346  11.081  11.101   7.355
 9043POPC   NC345347  28.325  21.386   5.555
 9043POPC   PO445348  28.340  21.345   5.855
 9043POPC   GL145349  28.371  21.359   6.155
 9043POPC   GL245350  28.277  21.351   6.155
 9043POPC   C1A45351  28.330  21.347   6.455
 9043POPC   D2A45352  28.362  21.374   6.755
 9043POPC   C3A45353  28.343  21.400   7.055
 9043POPC   C4A45354  28.360  21.346   7.355
 9043POPC   C1B45355  28.145  21.223   6.455
 9043POPC   C2B45356  28.177  21.230   6.755
 9043POPC   C3B45357  28.104  21.309   7.055
 9043POPC   C4B45358  28.152  21.236   7.355
 9044POPC   NC345359  22.980  40.046   5.555
 9044POPC   PO445360  22.954  39.973   5.855
 9044POPC   GL145361  22.925  39.974   6.155
 9044POPC   GL245362  23.059  40.017   6.155
 9044POPC   C1A45363  22.970  40.009   6.455
 9044POPC   D2A45364  22.911  40.041   6.755
 9044POPC   C3A45365  22.901  39.986   7.055
 9044POPC   C4A45366  22.968  40.010   7.355
 9044POPC   C1B45367  23.232  40.042   6.455
 9044POPC   C2B45368  23.223  40.044   6.755
 9044POPC   C3B45369  23.138  40.024   7.055
 9044POPC   C4B45370  23.199  40.032   7.355
 9045POPC   NC345371  44.652   5.114   5.555
 9045POPC   PO445372  44.618   5.054   5.855
 9045POPC   GL145373  44.649   5.141   6.155
 9045POPC   GL245374  44.741   5.143   6.155
 9045POPC   C1A45375  44.679   5.046   6.455
 9045POPC   D2A45376  44.704   5.143   6.755
 9045POPC   C3A45377  44.674   5.092   7.055
 9045POPC   C4A45378  44.711   5.090   7.355
 9045POPC   C1B45379  44.894   5.176   6.455
 9045POPC   C2B45380  44.889   5.177   6.755
 9045POPC   C3B45381  44.920   5.209   7.055
 9045POPC   C4B45382  44.928   5.174   7.355
 9046POPC   NC345383   2.761  31.457   5.555
 9046POPC   PO445384   2.757  31.452   5.855
 9046POPC   GL145385   2.730  31.468   6.155
 9046POPC   GL245386   2.673  31.498   6.155
 9046POPC   C1A45387   2.768  31.495   6.455
 9046POPC   D2A45388   2.766  31.426   6.755
 9046POPC   C3A45389   2.733  31.445   7.055
 9046POPC   C4A45390   2.799  31.510   7.355
 9046POPC   C1B45391   2.575  31.580   6.455
 9046POPC   C2B45392   2.508  31.553   6.755
 9046POPC   C3B45393   2.568  31.562   7.055
 9046POPC   C4B45394   2.518  31.562   7.355
 9047POPC   NC345395   2.764  25.245   5.555
 9047POPC   PO445396   2.717  25.264   5.855
 9047POPC   GL145397   2.762  25.277   6.155
 9047POPC   GL245398   2.897  25.287   6.155
 9047POPC   C1A45399   2.718  25.299   6.455
 9047POPC   D2A45400   2.779  25.240   6.755
 9047POPC   C3A45401   2.736  25.216   7.055
 9047POPC   C4A45402   2.801  25.252   7.355
 9047POPC   C1B45403   2.964  25.383   6.455
 9047POPC   C2B45404   2.980  25.316   6.755
 9047POPC   C3B45405   3.016  25.316   7.055
 9047POPC   C4B45406   3.019  25.362   7.355
 9048POPC   NC345407   7.410  38.446   5.555
 9048POPC   PO445408   7.390  38.495   5.855
 9048POPC   GL145409   7.448  38.478   6.155
 9048POPC   GL245410   7.471  38.532   6.155
 9048POPC   C1A45411   7.450  38.432   6.455
 9048POPC   D2A45412   7.449  38.451   6.755
 9048POPC   C3A45413   7.467  38.498   7.055
 9048POPC   C4A45414   7.398  38.447   7.355
 9048POPC   C1B45415   7.474  38.704   6.455
 9048POPC   C2B45416   7.480  38.730   6.755
 9048POPC   C3B45417   7.460  38.750   7.055
 9048POPC   C4B45418   7.489  38.668   7.355
 9049POPC   NC345419   4.295  35.303   5.555
 9049POPC   PO445420   4.302  35.318   5.855
 9049POPC   GL145421   4.283  35.349   6.155
 9049POPC   GL245422   4.294  35.461   6.155
 9049POPC   C1A45423   4.270  35.333   6.455
 9049POPC   D2A45424   4.345  35.315   6.755
 9049POPC   C3A45425   4.343  35.375   7.055
 9049POPC   C4A45426   4.358  35.389   7.355
 9049POPC   C1B45427   4.390  35.636   6.455
 9049POPC   C2B45428   4.321  35.638   6.755
 9049POPC   C3B45429   4.334  35.635   7.055
 9049POPC   C4B45430   4.350  35.580   7.355
 9050POPC   NC345431  15.958  43.852   5.555
 9050POPC   PO445432  15.922  43.872   5.855
 9050POPC   GL145433  15.998  43.850   6.155
 9050POPC   GL245434  16.090  43.848   6.155
 9050POPC   C1A45435  15.914  43.868   6.455
 9050POPC   D2A45436  15.960  43.911   6.755
 9050POPC   C3A45437  15.909  43.869   7.055
 9050POPC   C4A45438  15.975  43.925   7.355
 9050POPC   C1B45439  16.239  43.875   6.455
 9050POPC   C2B45440  16.168  43.907   6.755
 9050POPC   C3B45441  16.225  43.839   7.055
 9050POPC   C4B45442  16.154  43.861   7.355
 9051POPC   NC345443  31.489   5.060   5.555
 9051POPC   PO445444  31.464   5.095   5.855
 9051POPC   GL145445  31.433   5.091   6.155
 9051POPC   GL245446  31.399   5.212   6.155
 9051POPC   C1A45447  31.431   5.120   6.455
 9051POPC   D2A45448  31.442   5.058   6.755
 9051POPC   C3A45449  31.475   5.086   7.055
 9051POPC   C4A45450  31.477   5.125   7.355
 9051POPC   C1B45451  31.357   5.317   6.455
 9051POPC   C2B45452  31.334   5.311   6.755
 9051POPC   C3B45453  31.397   5.280   7.055
 9051POPC   C4B45454  31.386   5.341   7.355
 9052POPC   NC345455  19.847  31.423   5.555
 9052POPC   PO445456  19.828  31.423   5.855
 9052POPC   GL145457  19.785  31.512   6.155
 9052POPC   GL245458  19.803  31.365   6.155
 9052POPC   C1A45459  19.882  31.441   6.455
 9052POPC   D2A45460  19.803  31.437   6.755
 9052POPC   C3A45461  19.831  31.426   7.055
 9052POPC   C4A45462  19.863  31.517   7.355
 9052POPC   C1B45463  19.691  31.215   6.455
 9052POPC   C2B45464  19.728  31.261   6.755
 9052POPC   C3B45465  19.741  31.231   7.055
 9052POPC   C4B45466  19.712  31.223   7.355
 9053POPC   NC345467  11.342  28.352   5.555
 9053POPC   PO445468  11.256  28.406   5.855
 9053POPC   GL145469  11.331  28.343   6.155
 9053POPC   GL245470  11.347  28.212   6.155
 9053POPC   C1A45471  11.269  28.372   6.455
 9053POPC   D2A45472  11.339  28.341   6.755
 9053POPC   C3A45473  11.320  28.353   7.055
 9053POPC   C4A45474  11.331  28.403   7.355
 9053POPC   C1B45475  11.463  28.129   6.455
 9053POPC   C2B45476  11.444  28.114   6.755
 9053POPC   C3B45477  11.465  28.183   7.055
 9053POPC   C4B45478  11.467  28.137   7.355
 9054POPC   NC345479  24.494  43.883   5.555
 9054POPC   PO445480  24.479  43.874   5.855
 9054POPC   GL145481  24.480  43.842   6.155
 9054POPC   GL245482  24.444  43.989   6.155
 9054POPC   C1A45483  24.508  43.873   6.455
 9054POPC   D2A45484  24.502  43.923   6.755
 9054POPC   C3A45485  24.530  43.912   7.055
 9054POPC   C4A45486  24.465  43.885   7.355
 9054POPC   C1B45487  24.425  44.123   6.455
 9054POPC   C2B45488  24.425  44.153   6.755
 9054POPC   C3B45489  24.442  44.177   7.055
 9054POPC   C4B45490  24.402  44.103   7.355
 9055POPC   NC345491   9.713  40.794   5.555
 9055POPC   PO445492   9.786  40.800   5.855
 9055POPC   GL145493   9.708  40.775   6.155
 9055POPC   GL245494   9.815  40.732   6.155
 9055POPC   C1A45495   9.715  40.764   6.455
 9055POPC   D2A45496   9.788  40.782   6.755
 9055POPC   C3A45497   9.761  40.749   7.055
 9055POPC   C4A45498   9.705  40.823   7.355
 9055POPC   C1B45499   9.934  40.642   6.455
 9055POPC   C2B45500   9.991  40.734   6.755
 9055POPC   C3B45501   9.963  40.656   7.055
 9055POPC   C4B45502  10.030  40.687   7.355
 9056POPC   NC345503  24.530   8.995   5.555
 9056POPC   PO445504  24.491   8.931   5.855
 9056POPC   GL145505  24.499   9.020   6.155
 9056POPC   GL245506  24.645   8.939   6.155
 9056POPC   C1A45507  24.538   8.965   6.455
 9056POPC   D2A45508  24.504   9.018   6.755
 9056POPC   C3A45509  24.495   8.970   7.055
 9056POPC   C4A45510  24.471   8.945   7.355
 9056POPC   C1B45511  24.682   8.846   6.455
 9056POPC   C2B45512  24.672   8.900   6.755
 9056POPC   C3B45513  24.680   8.869   7.055
 9056POPC   C4B45514  24.728   8.867   7.355
 9057POPC   NC345515  20.620   4.355   5.555
 9057POPC   PO445516  20.572   4.352   5.855
 9057POPC   GL145517  20.584   4.290   6.155
 9057POPC   GL245518  20.642   4.237   6.155
 9057POPC   C1A45519  20.570   4.276   6.455
 9057POPC   D2A45520  20.653   4.329   6.755
 9057POPC   C3A45521  20.645   4.289   7.055
 9057POPC   C4A45522  20.574   4.296   7.355
 9057POPC   C1B45523  20.681   4.060   6.455
 9057POPC   C2B45524  20.639   4.089   6.755
 9057POPC   C3B45525  20.611   4.059   7.055
 9057POPC   C4B45526  20.649   4.064   7.355
 9058POPC   NC345527  34.580  38.415   5.555
 9058POPC   PO445528  34.564  38.499   5.855
 9058POPC   GL145529  34.597  38.503   6.155
 9058POPC   GL245530  34.570  38.358   6.155
 9058POPC   C1A45531  34.539  38.503   6.455
 9058POPC   D2A45532  34.529  38.422   6.755
 9058POPC   C3A45533  34.526  38.411   7.055
 9058POPC   C4A45534  34.539  38.475   7.355
 9058POPC   C1B45535  34.620  38.225   6.455
 9058POPC   C2B45536  34.622  38.253   6.755
 9058POPC   C3B45537  34.619  38.211   7.055
 9058POPC   C4B45538  34.625  38.226   7.355
 9059POPC   NC345539  31.509  39.995   5.555
 9059POPC   PO445540  31.473  40.035   5.855
 9059POPC   GL145541  31.435  39.996   6.155
 9059POPC   GL245542  31.393  39.850   6.155
 9059POPC   C1A45543  31.434  39.965   6.455
 9059POPC   D2A45544  31.468  39.968   6.755
 9059POPC   C3A45545  31.443  39.959   7.055
 9059POPC   C4A45546  31.444  40.037   7.355
 9059POPC   C1B45547  31.314  39.826   6.455
 9059POPC   C2B45548  31.405  39.782   6.755
 9059POPC   C3B45549  31.401  39.790   7.055
 9059POPC   C4B45550  31.369  39.794   7.355
 9060POPC   NC345551   1.217  26.084   5.555
 9060POPC   PO445552   1.262  26.079   5.855
 9060POPC   GL145553   1.264  26.005   6.155
 9060POPC   GL245554   1.066  25.937   6.155
 9060POPC   C1A45555   1.240  26.047   6.455
 9060POPC   D2A45556   1.250  26.012   6.755
 9060POPC   C3A45557   1.187  26.031   7.055
 9060POPC   C4A45558   1.190  26.051   7.355
 9060POPC   C1B45559   0.986  25.944   6.455
 9060POPC   C2B45560   0.959  25.939   6.755
 9060POPC   C3B45561   1.016  25.869   7.055
 9060POPC   C4B45562   0.985  25.912   7.355
 9061POPC   NC345563  29.921  44.685   5.555
 9061POPC   PO445564  29.970  44.614   5.855
 9061POPC   GL145565  29.929  44.616   6.155
 9061POPC   GL245566  29.764  44.641   6.155
 9061POPC   C1A45567  29.940  44.614   6.455
 9061POPC   D2A45568  29.892  44.711   6.755
 9061POPC   C3A45569  29.962  44.639   7.055
 9061POPC   C4A45570  29.900  44.647   7.355
 9061POPC   C1B45571  29.692  44.718   6.455
 9061POPC   C2B45572  29.707  44.683   6.755
 9061POPC   C3B45573  29.623  44.684   7.055
 9061POPC   C4B45574  29.631  44.712   7.355
 9062POPC   NC345575   3.524   4.300   5.555
 9062POPC   PO445576   3.526   4.318   5.855
 9062POPC   GL145577   3.534   4.301   6.155
 9062POPC   GL245578   3.517   4.382   6.155
 9062POPC   C1A45579   3.520   4.299   6.455
 9062POPC   D2A45580   3.569   4.303   6.755
 9062POPC   C3A45581   3.521   4.292   7.055
 9062POPC   C4A45582   3.514   4.272   7.355
 9062POPC   C1B45583   3.408   4.554   6.455
 9062POPC   C2B45584   3.391   4.548   6.755
 9062POPC   C3B45585   3.413   4.531   7.055
 9062POPC   C4B45586   3.393   4.509   7.355
 9063POPC   NC345587  19.025  33.845   5.555
 9063POPC   PO445588  19.040  33.770   5.855
 9063POPC   GL145589  19.063  33.781   6.155
 9063POPC   GL245590  19.081  33.730   6.155
 9063POPC   C1A45591  19.023  33.826   6.455
 9063POPC   D2A45592  19.035  33.788   6.755
 9063POPC   C3A45593  19.086  33.800   7.055
 9063POPC   C4A45594  19.061  33.807   7.355
 9063POPC   C1B45595  19.169  33.551   6.455
 9063POPC   C2B45596  19.219  33.618   6.755
 9063POPC   C3B45597  19.184  33.565   7.055
 9063POPC   C4B45598  19.154  33.570   7.355
 9064POPC   NC345599  37.656  41.590   5.555
 9064POPC   PO445600  37.643  41.574   5.855
 9064POPC   GL145601  37.663  41.535   6.155
 9064POPC   GL245602  37.576  41.698   6.155
 9064POPC   C1A45603  37.727  41.598   6.455
 9064POPC   D2A45604  37.706  41.569   6.755
 9064POPC   C3A45605  37.701  41.525   7.055
 9064POPC   C4A45606  37.696  41.574   7.355
 9064POPC   C1B45607  37.482  41.795   6.455
 9064POPC   C2B45608  37.503  41.721   6.755
 9064POPC   C3B45609  37.485  41.754   7.055
 9064POPC   C4B45610  37.489  41.796   7.355
 9065POPC   NC345611  36.118  37.665   5.555
 9065POPC   PO445612  36.145  37.637   5.855
 9065POPC   GL145613  36.137  37.679   6.155
 9065POPC   GL245614  36.092  37.535   6.155
 9065POPC   C1A45615  36.104  37.657   6.455
 9065POPC   D2A45616  36.099  37.639   6.755
 9065POPC   C3A45617  36.097  37.677   7.055
 9065POPC   C4A45618  36.138  37.679   7.355
 9065POPC   C1B45619  36.000  37.449   6.455
 9065POPC   C2B45620  36.034  37.406   6.755
 9065POPC   C3B45621  36.008  37.416   7.055
 9065POPC   C4B45622  36.055  37.408   7.355
 9066POPC   NC345623  12.876  42.296   5.555
 9066POPC   PO445624  12.888  42.375   5.855
 9066POPC   GL145625  12.900  42.293   6.155
 9066POPC   GL245626  12.740  42.341   6.155
 9066POPC   C1A45627  12.814  42.335   6.455
 9066POPC   D2A45628  12.874  42.323   6.755
 9066POPC   C3A45629  12.867  42.324   7.055
 9066POPC   C4A45630  12.814  42.351   7.355
 9066POPC   C1B45631  12.601  42.285   6.455
 9066POPC   C2B45632  12.648  42.355   6.755
 9066POPC   C3B45633  12.628  42.326   7.055
 9066POPC   C4B45634  12.586  42.383   7.355
 9067POPC   NC345635  19.830   9.747   5.555
 9067POPC   PO445636  19.790   9.791   5.855
 9067POPC   GL145637  19.810   9.700   6.155
 9067POPC   GL245638  19.738   9.659   6.155
 9067POPC   C1A45639  19.809   9.711   6.455
 9067POPC   D2A45640  19.860   9.754   6.755
 9067POPC   C3A45641  19.785   9.743   7.055
 9067POPC   C4A45642  19.833   9.792   7.355
 9067POPC   C1B45643  19.733   9.519   6.455
 9067POPC   C2B45644  19.710   9.553   6.755
 9067POPC   C3B45645  19.680   9.528   7.055
 9067POPC   C4B45646  19.682   9.485   7.355
 9068POPC   NC345647   3.524  29.921   5.555
 9068POPC   PO445648   3.516  29.966   5.855
 9068POPC   GL145649   3.498  29.953   6.155
 9068POPC   GL245650   3.473  29.955   6.155
 9068POPC   C1A45651   3.577  29.903   6.455
 9068POPC   D2A45652   3.589  29.925   6.755
 9068POPC   C3A45653   3.543  29.921   7.055
 9068POPC   C4A45654   3.566  29.902   7.355
 9068POPC   C1B45655   3.282  29.974   6.455
 9068POPC   C2B45656   3.327  30.042   6.755
 9068POPC   C3B45657   3.263  29.995   7.055
 9068POPC   C4B45658   3.321  30.050   7.355
 9069POPC   NC345659  15.958  16.760   5.555
 9069POPC   PO445660  16.001  16.760   5.855
 9069POPC   GL145661  15.992  16.718   6.155
 9069POPC   GL245662  15.952  16.891   6.155
 9069POPC   C1A45663  15.924  16.709   6.455
 9069POPC   D2A45664  15.990  16.728   6.755
 9069POPC   C3A45665  15.999  16.732   7.055
 9069POPC   C4A45666  15.909  16.740   7.355
 9069POPC   C1B45667  16.000  16.989   6.455
 9069POPC   C2B45668  15.927  16.985   6.755
 9069POPC   C3B45669  15.955  16.968   7.055
 9069POPC   C4B45670  15.939  16.994   7.355
 9070POPC   NC345671   5.847  21.389   5.555
 9070POPC   PO445672   5.821  21.340   5.855
 9070POPC   GL145673   5.858  21.420   6.155
 9070POPC   GL245674   5.741  21.431   6.155
 9070POPC   C1A45675   5.830  21.424   6.455
 9070POPC   D2A45676   5.857  21.357   6.755
 9070POPC   C3A45677   5.897  21.417   7.055
 9070POPC   C4A45678   5.873  21.342   7.355
 9070POPC   C1B45679   5.663  21.452   6.455
 9070POPC   C2B45680   5.634  21.414   6.755
 9070POPC   C3B45681   5.592  21.424   7.055
 9070POPC   C4B45682   5.665  21.468   7.355
 9071POPC   NC345683  31.487  23.680   5.555
 9071POPC   PO445684  31.449  23.708   5.855
 9071POPC   GL145685  31.506  23.760   6.155
 9071POPC   GL245686  31.494  23.867   6.155
 9071POPC   C1A45687  31.467  23.708   6.455
 9071POPC   D2A45688  31.439  23.720   6.755
 9071POPC   C3A45689  31.453  23.697   7.055
 9071POPC   C4A45690  31.448  23.714   7.355
 9071POPC   C1B45691  31.453  24.011   6.455
 9071POPC   C2B45692  31.457  24.008   6.755
 9071POPC   C3B45693  31.550  23.989   7.055
 9071POPC   C4B45694  31.474  23.931   7.355
 9072POPC   NC345695  26.854   7.445   5.555
 9072POPC   PO445696  26.791   7.438   5.855
 9072POPC   GL145697  26.854   7.420   6.155
 9072POPC   GL245698  26.746   7.497   6.155
 9072POPC   C1A45699  26.830   7.396   6.455
 9072POPC   D2A45700  26.864   7.468   6.755
 9072POPC   C3A45701  26.772   7.467   7.055
 9072POPC   C4A45702  26.863   7.395   7.355
 9072POPC   C1B45703  26.765   7.686   6.455
 9072POPC   C2B45704  26.734   7.713   6.755
 9072POPC   C3B45705  26.767   7.644   7.055
 9072POPC   C4B45706  26.744   7.660   7.355
 9073POPC   NC345707  19.812  10.513   5.555
 9073POPC   PO445708  19.838  10.570   5.855
 9073POPC   GL145709  19.825  10.530   6.155
 9073POPC   GL245710  19.717  10.600   6.155
 9073POPC   C1A45711  19.845  10.503   6.455
 9073POPC   D2A45712  19.860  10.511   6.755
 9073POPC   C3A45713  19.859  10.485   7.055
 9073POPC   C4A45714  19.814  10.531   7.355
 9073POPC   C1B45715  19.643  10.639   6.455
 9073POPC   C2B45716  19.623  10.679   6.755
 9073POPC   C3B45717  19.593  10.661   7.055
 9073POPC   C4B45718  19.604  10.628   7.355
 9074POPC   NC345719  13.580  34.548   5.555
 9074POPC   PO445720  13.633  34.606   5.855
 9074POPC   GL145721  13.602  34.610   6.155
 9074POPC   GL245722  13.478  34.644   6.155
 9074POPC   C1A45723  13.619  34.608   6.455
 9074POPC   D2A45724  13.599  34.592   6.755
 9074POPC   C3A45725  13.654  34.557   7.055
 9074POPC   C4A45726  13.583  34.576   7.355
 9074POPC   C1B45727  13.440  34.633   6.455
 9074POPC   C2B45728  13.381  34.630   6.755
 9074POPC   C3B45729  13.351  34.668   7.055
 9074POPC   C4B45730  13.434  34.678   7.355
 9075POPC   NC345731  32.241  32.231   5.555
 9075POPC   PO445732  32.280  32.246   5.855
 9075POPC   GL145733  32.289  32.292   6.155
 9075POPC   GL245734  32.189  32.355   6.155
 9075POPC   C1A45735  32.229  32.285   6.455
 9075POPC   D2A45736  32.212  32.211   6.755
 9075POPC   C3A45737  32.290  32.265   7.055
 9075POPC   C4A45738  32.241  32.260   7.355
 9075POPC   C1B45739  32.086  32.386   6.455
 9075POPC   C2B45740  32.067  32.378   6.755
 9075POPC   C3B45741  32.045  32.400   7.055
 9075POPC   C4B45742  32.010  32.358   7.355
 9076POPC   NC345743  44.709  36.879   5.555
 9076POPC   PO445744  44.613  36.912   5.855
 9076POPC   GL145745  44.693  36.881   6.155
 9076POPC   GL245746  44.537  36.995   6.155
 9076POPC   C1A45747  44.622  36.887   6.455
 9076POPC   D2A45748  44.622  36.895   6.755
 9076POPC   C3A45749  44.705  36.883   7.055
 9076POPC   C4A45750  44.656  36.870   7.355
 9076POPC   C1B45751  44.482  37.030   6.455
 9076POPC   C2B45752  44.426  37.013   6.755
 9076POPC   C3B45753  44.446  37.036   7.055
 9076POPC   C4B45754  44.463  37.086   7.355
 9077POPC   NC345755  33.830  35.385   5.555
 9077POPC   PO445756  33.832  35.307   5.855
 9077POPC   GL145757  33.806  35.347   6.155
 9077POPC   GL245758  33.793  35.203   6.155
 9077POPC   C1A45759  33.750  35.316   6.455
 9077POPC   D2A45760  33.848  35.364   6.755
 9077POPC   C3A45761  33.820  35.330   7.055
 9077POPC   C4A45762  33.762  35.351   7.355
 9077POPC   C1B45763  33.725  35.120   6.455
 9077POPC   C2B45764  33.798  35.089   6.755
 9077POPC   C3B45765  33.731  35.128   7.055
 9077POPC   C4B45766  33.751  35.076   7.355
 9078POPC   NC345767  31.499  15.172   5.555
 9078POPC   PO445768  31.520  15.212   5.855
 9078POPC   GL145769  31.455  15.154   6.155
 9078POPC   GL245770  31.474  15.027   6.155
 9078POPC   C1A45771  31.434  15.216   6.455
 9078POPC   D2A45772  31.507  15.165   6.755
 9078POPC   C3A45773  31.491  15.194   7.055
 9078POPC   C4A45774  31.495  15.225   7.355
 9078POPC   C1B45775  31.420  14.983   6.455
 9078POPC   C2B45776  31.446  14.941   6.755
 9078POPC   C3B45777  31.437  14.950   7.055
 9078POPC   C4B45778  31.443  14.986   7.355
 9079POPC   NC345779  36.128   3.510   5.555
 9079POPC   PO445780  36.166   3.553   5.855
 9079POPC   GL145781  36.098   3.576   6.155
 9079POPC   GL245782  36.291   3.579   6.155
 9079POPC   C1A45783  36.143   3.529   6.455
 9079POPC   D2A45784  36.117   3.508   6.755
 9079POPC   C3A45785  36.161   3.588   7.055
 9079POPC   C4A45786  36.131   3.513   7.355
 9079POPC   C1B45787  36.378   3.607   6.455
 9079POPC   C2B45788  36.382   3.619   6.755
 9079POPC   C3B45789  36.355   3.655   7.055
 9079POPC   C4B45790  36.412   3.644   7.355
 9080POPC   NC345791  29.108   5.855   5.555
 9080POPC   PO445792  29.097   5.832   5.855
 9080POPC   GL145793  29.120   5.840   6.155
 9080POPC   GL245794  29.297   5.892   6.155
 9080POPC   C1A45795  29.166   5.852   6.455
 9080POPC   D2A45796  29.168   5.889   6.755
 9080POPC   C3A45797  29.134   5.904   7.055
 9080POPC   C4A45798  29.116   5.833   7.355
 9080POPC   C1B45799  29.345   5.887   6.455
 9080POPC   C2B45800  29.363   5.973   6.755
 9080POPC   C3B45801  29.347   5.894   7.055
 9080POPC   C4B45802  29.366   5.968   7.355
 9081POPC   NC345803  16.722   1.218   5.555
 9081POPC   PO445804  16.720   1.227   5.855
 9081POPC   GL145805  16.758   1.181   6.155
 9081POPC   GL245806  16.892   1.241   6.155
 9081POPC   C1A45807  16.762   1.240   6.455
 9081POPC   D2A45808  16.705   1.192   6.755
 9081POPC   C3A45809  16.691   1.252   7.055
 9081POPC   C4A45810  16.774   1.219   7.355
 9081POPC   C1B45811  16.965   1.331   6.455
 9081POPC   C2B45812  16.991   1.288   6.755
 9081POPC   C3B45813  16.943   1.280   7.055
 9081POPC   C4B45814  17.010   1.317   7.355
 9082POPC   NC345815  22.963  42.371   5.555
 9082POPC   PO445816  22.960  42.382   5.855
 9082POPC   GL145817  22.915  42.372   6.155
 9082POPC   GL245818  22.853  42.468   6.155
 9082POPC   C1A45819  22.968  42.357   6.455
 9082POPC   D2A45820  22.964  42.311   6.755
 9082POPC   C3A45821  22.892  42.364   7.055
 9082POPC   C4A45822  22.923  42.308   7.355
 9082POPC   C1B45823  22.849  42.508   6.455
 9082POPC   C2B45824  22.825  42.559   6.755
 9082POPC   C3B45825  22.773  42.523   7.055
 9082POPC   C4B45826  22.841  42.552   7.355
 9083POPC   NC345827  30.745  29.162   5.555
 9083POPC   PO445828  30.655  29.188   5.855
 9083POPC   GL145829  30.736  29.161   6.155
 9083POPC   GL245830  30.622  29.251   6.155
 9083POPC   C1A45831  30.679  29.097   6.455
 9083POPC   D2A45832  30.705  29.122   6.755
 9083POPC   C3A45833  30.680  29.109   7.055
 9083POPC   C4A45834  30.697  29.170   7.355
 9083POPC   C1B45835  30.473  29.288   6.455
 9083POPC   C2B45836  30.448  29.288   6.755
 9083POPC   C3B45837  30.530  29.263   7.055
 9083POPC   C4B45838  30.518  29.272   7.355
 9084POPC   NC345839   8.193  18.329   5.555
 9084POPC   PO445840   8.157  18.261   5.855
 9084POPC   GL145841   8.174  18.258   6.155
 9084POPC   GL245842   8.193  18.393   6.155
 9084POPC   C1A45843   8.244  18.311   6.455
 9084POPC   D2A45844   8.192  18.281   6.755
 9084POPC   C3A45845   8.200  18.254   7.055
 9084POPC   C4A45846   8.241  18.243   7.355
 9084POPC   C1B45847   8.206  18.526   6.455
 9084POPC   C2B45848   8.270  18.553   6.755
 9084POPC   C3B45849   8.240  18.506   7.055
 9084POPC   C4B45850   8.262  18.490   7.355
 9085POPC   NC345851   8.990  38.482   5.555
 9085POPC   PO445852   9.021  38.493   5.855
 9085POPC   GL145853   8.963  38.472   6.155
 9085POPC   GL245854   8.868  38.587   6.155
 9085POPC   C1A45855   8.992  38.458   6.455
 9085POPC   D2A45856   8.998  38.483   6.755
 9085POPC   C3A45857   8.966  38.443   7.055
 9085POPC   C4A45858   9.010  38.455   7.355
 9085POPC   C1B45859   8.808  38.614   6.455
 9085POPC   C2B45860   8.760  38.636   6.755
 9085POPC   C3B45861   8.786  38.645   7.055
 9085POPC   C4B45862   8.835  38.596   7.355
 9086POPC   NC345863  33.000  19.056   5.555
 9086POPC   PO445864  32.996  19.051   5.855
 9086POPC   GL145865  33.052  19.058   6.155
 9086POPC   GL245866  32.973  19.205   6.155
 9086POPC   C1A45867  33.035  19.042   6.455
 9086POPC   D2A45868  33.002  19.035   6.755
 9086POPC   C3A45869  33.003  19.030   7.055
 9086POPC   C4A45870  33.062  19.060   7.355
 9086POPC   C1B45871  32.926  19.290   6.455
 9086POPC   C2B45872  32.992  19.258   6.755
 9086POPC   C3B45873  32.948  19.267   7.055
 9086POPC   C4B45874  32.908  19.347   7.355
 9087POPC   NC345875  14.443   0.415   5.555
 9087POPC   PO445876  14.441   0.450   5.855
 9087POPC   GL145877  14.413   0.408   6.155
 9087POPC   GL245878  14.380   0.558   6.155
 9087POPC   C1A45879  14.453   0.442   6.455
 9087POPC   D2A45880  14.385   0.473   6.755
 9087POPC   C3A45881  14.406   0.407   7.055
 9087POPC   C4A45882  14.420   0.459   7.355
 9087POPC   C1B45883  14.353   0.649   6.455
 9087POPC   C2B45884  14.294   0.624   6.755
 9087POPC   C3B45885  14.305   0.669   7.055
 9087POPC   C4B45886  14.291   0.634   7.355
 9088POPC   NC345887   8.234  44.645   5.555
 9088POPC   PO445888   8.198  44.658   5.855
 9088POPC   GL145889   8.218  44.679   6.155
 9088POPC   GL245890   8.103  44.728   6.155
 9088POPC   C1A45891   8.186  44.640   6.455
 9088POPC   D2A45892   8.153  44.661   6.755
 9088POPC   C3A45893   8.213  44.692   7.055
 9088POPC   C4A45894   8.245  44.698   7.355
 9088POPC   C1B45895   8.073  44.900   6.455
 9088POPC   C2B45896   8.064  44.867   6.755
 9088POPC   C3B45897   8.067  44.894   7.055
 9088POPC   C4B45898   8.094  44.867   7.355
 9089POPC   NC345899   1.961  29.967   5.555
 9089POPC   PO445900   2.005  29.903   5.855
 9089POPC   GL145901   1.954  29.921   6.155
 9089POPC   GL245902   1.916  30.024   6.155
 9089POPC   C1A45903   1.956  29.964   6.455
 9089POPC   D2A45904   1.972  29.899   6.755
 9089POPC   C3A45905   1.957  29.923   7.055
 9089POPC   C4A45906   1.978  29.932   7.355
 9089POPC   C1B45907   1.779  30.048   6.455
 9089POPC   C2B45908   1.777  30.120   6.755
 9089POPC   C3B45909   1.750  30.051   7.055
 9089POPC   C4B45910   1.832  30.096   7.355
 9090POPC   NC345911  29.128  41.531   5.555
 9090POPC   PO445912  29.168  41.529   5.855
 9090POPC   GL145913  29.161  41.540   6.155
 9090POPC   GL245914  29.094  41.629   6.155
 9090POPC   C1A45915  29.183  41.586   6.455
 9090POPC   D2A45916  29.118  41.529   6.755
 9090POPC   C3A45917  29.190  41.578   7.055
 9090POPC   C4A45918  29.104  41.553   7.355
 9090POPC   C1B45919  29.020  41.762   6.455
 9090POPC   C2B45920  29.012  41.739   6.755
 9090POPC   C3B45921  29.035  41.789   7.055
 9090POPC   C4B45922  28.978  41.813   7.355
 9091POPC   NC345923  37.689  11.347   5.555
 9091POPC   PO445924  37.686  11.305   5.855
 9091POPC   GL145925  37.682  11.256   6.155
 9091POPC   GL245926  37.685  11.213   6.155
 9091POPC   C1A45927  37.639  11.321   6.455
 9091POPC   D2A45928  37.639  11.330   6.755
 9091POPC   C3A45929  37.690  11.328   7.055
 9091POPC   C4A45930  37.702  11.253   7.355
 9091POPC   C1B45931  37.655  11.013   6.455
 9091POPC   C2B45932  37.630  11.103   6.755
 9091POPC   C3B45933  37.603  11.088   7.055
 9091POPC   C4B45934  37.638  11.103   7.355
 9092POPC   NC345935   6.673  14.450   5.555
 9092POPC   PO445936   6.654  14.361   5.855
 9092POPC   GL145937   6.595  14.354   6.155
 9092POPC   GL245938   6.537  14.375   6.155
 9092POPC   C1A45939   6.633  14.427   6.455
 9092POPC   D2A45940   6.671  14.445   6.755
 9092POPC   C3A45941   6.624  14.359   7.055
 9092POPC   C4A45942   6.673  14.420   7.355
 9092POPC   C1B45943   6.441  14.391   6.455
 9092POPC   C2B45944   6.420  14.425   6.755
 9092POPC   C3B45945   6.377  14.414   7.055
 9092POPC   C4B45946   6.392  14.375   7.355
 9093POPC   NC345947  11.306  12.812   5.555
 9093POPC   PO445948  11.324  12.831   5.855
 9093POPC   GL145949  11.277  12.850   6.155
 9093POPC   GL245950  11.392  12.831   6.155
 9093POPC   C1A45951  11.258  12.850   6.455
 9093POPC   D2A45952  11.260  12.805   6.755
 9093POPC   C3A45953  11.341  12.833   7.055
 9093POPC   C4A45954  11.279  12.826   7.355
 9093POPC   C1B45955  11.556  12.797   6.455
 9093POPC   C2B45956  11.573  12.774   6.755
 9093POPC   C3B45957  11.537  12.775   7.055
 9093POPC   C4B45958  11.537  12.744   7.355
 9094POPC   NC345959  36.138  40.038   5.555
 9094POPC   PO445960  36.159  40.000   5.855
 9094POPC   GL145961  36.111  39.968   6.155
 9094POPC   GL245962  36.233  40.000   6.155
 9094POPC   C1A45963  36.175  40.055   6.455
 9094POPC   D2A45964  36.106  39.986   6.755
 9094POPC   C3A45965  36.135  39.984   7.055
 9094POPC   C4A45966  36.151  40.005   7.355
 9094POPC   C1B45967  36.392  39.879   6.455
 9094POPC   C2B45968  36.386  39.911   6.755
 9094POPC   C3B45969  36.390  39.886   7.055
 9094POPC   C4B45970  36.334  39.891   7.355
 9095POPC   NC345971  12.106  33.030   5.555
 9095POPC   PO445972  12.069  33.063   5.855
 9095POPC   GL145973  12.113  33.001   6.155
 9095POPC   GL245974  11.990  33.131   6.155
 9095POPC   C1A45975  12.073  33.046   6.455
 9095POPC   D2A45976  12.090  33.039   6.755
 9095POPC   C3A45977  12.033  32.984   7.055
 9095POPC   C4A45978  12.086  33.011   7.355
 9095POPC   C1B45979  11.957  33.234   6.455
 9095POPC   C2B45980  11.996  33.301   6.755
 9095POPC   C3B45981  11.925  33.274   7.055
 9095POPC   C4B45982  12.007  33.238   7.355
 9096POPC   NC345983  29.917  28.345   5.555
 9096POPC   PO445984  29.903  28.330   5.855
 9096POPC   GL145985  29.872  28.381   6.155
 9096POPC   GL245986  29.806  28.408   6.155
 9096POPC   C1A45987  29.921  28.387   6.455
 9096POPC   D2A45988  29.917  28.361   6.755
 9096POPC   C3A45989  29.931  28.361   7.055
 9096POPC   C4A45990  29.958  28.336   7.355
 9096POPC   C1B45991  29.674  28.507   6.455
 9096POPC   C2B45992  29.660  28.478   6.755
 9096POPC   C3B45993  29.692  28.499   7.055
 9096POPC   C4B45994  29.660  28.463   7.355
 9097POPC   NC345995  18.281  39.963   5.555
 9097POPC   PO445996  18.325  40.045   5.855
 9097POPC   GL145997  18.294  40.049   6.155
 9097POPC   GL245998  18.134  40.002   6.155
 9097POPC   C1A45999  18.282  40.003   6.455
 9097POPC   D2A46000  18.296  40.017   6.755
 9097POPC   C3A46001  18.288  40.042   7.055
 9097POPC   C4A46002  18.245  39.990   7.355
 9097POPC   C1B46003  18.065  39.996   6.455
 9097POPC   C2B46004  18.042  40.039   6.755
 9097POPC   C3B46005  18.014  40.063   7.055
 9097POPC   C4B46006  17.994  40.002   7.355
 9098POPC   NC346007  15.918  40.761   5.555
 9098POPC   PO446008  15.959  40.792   5.855
 9098POPC   GL146009  15.906  40.754   6.155
 9098POPC   GL246010  16.009  40.659   6.155
 9098POPC   C1A46011  15.925  40.771   6.455
 9098POPC   D2A46012  15.997  40.811   6.755
 9098POPC   C3A46013  15.985  40.766   7.055
 9098POPC   C4A46014  15.950  40.807   7.355
 9098POPC   C1B46015  16.149  40.638   6.455
 9098POPC   C2B46016  16.092  40.655   6.755
 9098POPC   C3B46017  16.163  40.599   7.055
 9098POPC   C4B46018  16.177  40.635   7.355
 9099POPC   NC346019  33.762  32.229   5.555
 9099POPC   PO446020  33.846  32.215   5.855
 9099POPC   GL146021  33.777  32.214   6.155
 9099POPC   GL246022  33.820  32.089   6.155
 9099POPC   C1A46023  33.818  32.275   6.455
 9099POPC   D2A46024  33.804  32.277   6.755
 9099POPC   C3A46025  33.839  32.256   7.055
 9099POPC   C4A46026  33.837  32.214   7.355
 9099POPC   C1B46027  33.758  32.017   6.455
 9099POPC   C2B46028  33.760  31.994   6.755
 9099POPC   C3B46029  33.729  32.028   7.055
 9099POPC   C4B46030  33.733  32.035   7.355
 9100POPC   NC346031  35.355   3.586   5.555
 9100POPC   PO446032  35.332   3.553   5.855
 9100POPC   GL146033  35.401   3.523   6.155
 9100POPC   GL246034  35.294   3.477   6.155
 9100POPC   C1A46035  35.318   3.560   6.455
 9100POPC   D2A46036  35.372   3.586   6.755
 9100POPC   C3A46037  35.352   3.531   7.055
 9100POPC   C4A46038  35.402   3.505   7.355
 9100POPC   C1B46039  35.146   3.401   6.455
 9100POPC   C2B46040  35.110   3.445   6.755
 9100POPC   C3B46041  35.158   3.420   7.055
 9100POPC   C4B46042  35.154   3.430   7.355
 9101POPC   NC346043  10.525  33.821   5.555
 9101POPC   PO446044  10.475  33.791   5.855
 9101POPC   GL146045  10.540  33.820   6.155
 9101POPC   GL246046  10.534  33.660   6.155
 9101POPC   C1A46047  10.555  33.849   6.455
 9101POPC   D2A46048  10.481  33.837   6.755
 9101POPC   C3A46049  10.514  33.775   7.055
 9101POPC   C4A46050  10.483  33.775   7.355
 9101POPC   C1B46051  10.466  33.541   6.455
 9101POPC   C2B46052  10.464  33.601   6.755
 9101POPC   C3B46053  10.477  33.572   7.055
 9101POPC   C4B46054  10.503  33.525   7.355
 9102POPC   NC346055  44.619  39.228   5.555
 9102POPC   PO446056  44.643  39.258   5.855
 9102POPC   GL146057  44.637  39.249   6.155
 9102POPC   GL246058  44.768  39.301   6.155
 9102POPC   C1A46059  44.667  39.192   6.455
 9102POPC   D2A46060  44.630  39.184   6.755
 9102POPC   C3A46061  44.676  39.213   7.055
 9102POPC   C4A46062  44.698  39.195   7.355
 9102POPC   C1B46063  44.902  39.416   6.455
 9102POPC   C2B46064  44.878  39.379   6.755
 9102POPC   C3B46065  44.824  39.416   7.055
 9102POPC   C4B46066  44.865  39.380   7.355
 9103POPC   NC346067   9.783  26.055   5.555
 9103POPC   PO446068   9.718  26.044   5.855
 9103POPC   GL146069   9.770  26.087   6.155
 9103POPC   GL246070   9.749  26.126   6.155
 9103POPC   C1A46071   9.727  26.051   6.455
 9103POPC   D2A46072   9.707  25.994   6.755
 9103POPC   C3A46073   9.726  25.992   7.055
 9103POPC   C4A46074   9.754  26.061   7.355
 9103POPC   C1B46075   9.809  26.300   6.455
 9103POPC   C2B46076   9.790  26.280   6.755
 9103POPC   C3B46077   9.799  26.309   7.055
 9103POPC   C4B46078   9.733  26.324   7.355
 9104POPC   NC346079  20.601   0.457   5.555
 9104POPC   PO446080  20.630   0.389   5.855
 9104POPC   GL146081  20.573   0.428   6.155
 9104POPC   GL246082  20.498   0.363   6.155
 9104POPC   C1A46083  20.606   0.393   6.455
 9104POPC   D2A46084  20.576   0.468   6.755
 9104POPC   C3A46085  20.608   0.397   7.055
 9104POPC   C4A46086  20.591   0.469   7.355
 9104POPC   C1B46087  20.456   0.221   6.455
 9104POPC   C2B46088  20.504   0.257   6.755
 9104POPC   C3B46089  20.500   0.217   7.055
 9104POPC   C4B46090  20.531   0.182   7.355
 9105POPC   NC346091   9.753  43.861   5.555
 9105POPC   PO446092   9.765  43.898   5.855
 9105POPC   GL146093   9.731  43.918   6.155
 9105POPC   GL246094   9.884  43.844   6.155
 9105POPC   C1A46095   9.797  43.923   6.455
 9105POPC   D2A46096   9.777  43.854   6.755
 9105POPC   C3A46097   9.754  43.918   7.055
 9105POPC   C4A46098   9.724  43.911   7.355
 9105POPC   C1B46099   9.987  43.744   6.455
 9105POPC   C2B46100   9.946  43.757   6.755
 9105POPC   C3B46101   9.935  43.753   7.055
 9105POPC   C4B46102   9.887  43.741   7.355
 9106POPC   NC346103  15.191  19.019   5.555
 9106POPC   PO446104  15.207  19.070   5.855
 9106POPC   GL146105  15.194  19.083   6.155
 9106POPC   GL246106  15.215  19.138   6.155
 9106POPC   C1A46107  15.154  19.080   6.455
 9106POPC   D2A46108  15.206  19.084   6.755
 9106POPC   C3A46109  15.199  19.091   7.055
 9106POPC   C4A46110  15.154  19.042   7.355
 9106POPC   C1B46111  15.190  19.334   6.455
 9106POPC   C2B46112  15.161  19.354   6.755
 9106POPC   C3B46113  15.177  19.325   7.055
 9106POPC   C4B46114  15.208  19.335   7.355
 9107POPC   NC346115  36.902  20.597   5.555
 9107POPC   PO446116  36.928  20.645   5.855
 9107POPC   GL146117  36.912  20.599   6.155
 9107POPC   GL246118  36.896  20.707   6.155
 9107POPC   C1A46119  36.869  20.653   6.455
 9107POPC   D2A46120  36.895  20.617   6.755
 9107POPC   C3A46121  36.892  20.651   7.055
 9107POPC   C4A46122  36.861  20.562   7.355
 9107POPC   C1B46123  36.865  20.905   6.455
 9107POPC   C2B46124  36.934  20.811   6.755
 9107POPC   C3B46125  36.870  20.876   7.055
 9107POPC   C4B46126  36.909  20.880   7.355
 9108POPC   NC346127  13.613  15.937   5.555
 9108POPC   PO446128  13.594  16.004   5.855
 9108POPC   GL146129  13.628  16.002   6.155
 9108POPC   GL246130  13.468  15.911   6.155
 9108POPC   C1A46131  13.618  15.963   6.455
 9108POPC   D2A46132  13.606  15.917   6.755
 9108POPC   C3A46133  13.622  15.932   7.055
 9108POPC   C4A46134  13.586  15.999   7.355
 9108POPC   C1B46135  13.413  15.911   6.455
 9108POPC   C2B46136  13.428  15.887   6.755
 9108POPC   C3B46137  13.331  15.913   7.055
 9108POPC   C4B46138  13.421  15.877   7.355
 9109POPC   NC346139  23.664  34.534   5.555
 9109POPC   PO446140  23.754  34.540   5.855
 9109POPC   GL146141  23.680  34.552   6.155
 9109POPC   GL246142  23.594  34.509   6.155
 9109POPC   C1A46143  23.757  34.531   6.455
 9109POPC   D2A46144  23.731  34.537   6.755
 9109POPC   C3A46145  23.687  34.556   7.055
 9109POPC   C4A46146  23.763  34.575   7.355
 9109POPC   C1B46147  23.504  34.433   6.455
 9109POPC   C2B46148  23.435  34.492   6.755
 9109POPC   C3B46149  23.519  34.457   7.055
 9109POPC   C4B46150  23.528  34.445   7.355
 9110POPC   NC346151  31.432   4.349   5.555
 9110POPC   PO446152  31.479   4.360   5.855
 9110POPC   GL146153  31.470   4.310   6.155
 9110POPC   GL246154  31.587   4.457   6.155
 9110POPC   C1A46155  31.480   4.347   6.455
 9110POPC   D2A46156  31.496   4.340   6.755
 9110POPC   C3A46157  31.468   4.310   7.055
 9110POPC   C4A46158  31.463   4.342   7.355
 9110POPC   C1B46159  31.668   4.513   6.455
 9110POPC   C2B46160  31.657   4.547   6.755
 9110POPC   C3B46161  31.655   4.519   7.055
 9110POPC   C4B46162  31.607   4.464   7.355
 9111POPC   NC346163  30.712  31.442   5.555
 9111POPC   PO446164  30.706  31.468   5.855
 9111POPC   GL146165  30.721  31.424   6.155
 9111POPC   GL246166  30.649  31.528   6.155
 9111POPC   C1A46167  30.661  31.498   6.455
 9111POPC   D2A46168  30.693  31.445   6.755
 9111POPC   C3A46169  30.705  31.505   7.055
 9111POPC   C4A46170  30.672  31.521   7.355
 9111POPC   C1B46171  30.547  31.643   6.455
 9111POPC   C2B46172  30.563  31.629   6.755
 9111POPC   C3B46173  30.573  31.661   7.055
 9111POPC   C4B46174  30.540  31.620   7.355
 9112POPC   NC346175  35.316  43.148   5.555
 9112POPC   PO446176  35.395  43.130   5.855
 9112POPC   GL146177  35.394  43.130   6.155
 9112POPC   GL246178  35.271  43.016   6.155
 9112POPC   C1A46179  35.400  43.159   6.455
 9112POPC   D2A46180  35.372  43.091   6.755
 9112POPC   C3A46181  35.347  43.160   7.055
 9112POPC   C4A46182  35.364  43.160   7.355
 9112POPC   C1B46183  35.114  42.977   6.455
 9112POPC   C2B46184  35.105  43.045   6.755
 9112POPC   C3B46185  35.098  43.037   7.055
 9112POPC   C4B46186  35.089  43.021   7.355
 9113POPC   NC346187   3.495  36.171   5.555
 9113POPC   PO446188   3.555  36.154   5.855
 9113POPC   GL146189   3.528  36.103   6.155
 9113POPC   GL246190   3.415  36.184   6.155
 9113POPC   C1A46191   3.512  36.129   6.455
 9113POPC   D2A46192   3.540  36.176   6.755
 9113POPC   C3A46193   3.494  36.102   7.055
 9113POPC   C4A46194   3.503  36.090   7.355
 9113POPC   C1B46195   3.349  36.220   6.455
 9113POPC   C2B46196   3.317  36.179   6.755
 9113POPC   C3B46197   3.321  36.199   7.055
 9113POPC   C4B46198   3.260  36.162   7.355
 9114POPC   NC346199  36.871   0.392   5.555
 9114POPC   PO446200  36.904   0.465   5.855
 9114POPC   GL146201  36.854   0.402   6.155
 9114POPC   GL246202  36.997   0.431   6.155
 9114POPC   C1A46203  36.922   0.455   6.455
 9114POPC   D2A46204  36.881   0.438   6.755
 9114POPC   C3A46205  36.903   0.453   7.055
 9114POPC   C4A46206  36.868   0.443   7.355
 9114POPC   C1B46207  37.118   0.495   6.455
 9114POPC   C2B46208  37.183   0.459   6.755
 9114POPC   C3B46209  37.109   0.514   7.055
 9114POPC   C4B46210  37.106   0.543   7.355
 9115POPC   NC346211  41.558  12.049   5.555
 9115POPC   PO446212  41.541  12.062   5.855
 9115POPC   GL146213  41.544  12.109   6.155
 9115POPC   GL246214  41.435  12.194   6.155
 9115POPC   C1A46215  41.527  12.118   6.455
 9115POPC   D2A46216  41.543  12.104   6.755
 9115POPC   C3A46217  41.542  12.123   7.055
 9115POPC   C4A46218  41.581  12.081   7.355
 9115POPC   C1B46219  41.343  12.249   6.455
 9115POPC   C2B46220  41.392  12.233   6.755
 9115POPC   C3B46221  41.328  12.216   7.055
 9115POPC   C4B46222  41.380  12.241   7.355
 9116POPC   NC346223   6.671  17.486   5.555
 9116POPC   PO446224   6.620  17.555   5.855
 9116POPC   GL146225   6.608  17.497   6.155
 9116POPC   GL246226   6.576  17.371   6.155
 9116POPC   C1A46227   6.638  17.526   6.455
 9116POPC   D2A46228   6.631  17.468   6.755
 9116POPC   C3A46229   6.600  17.482   7.055
 9116POPC   C4A46230   6.651  17.527   7.355
 9116POPC   C1B46231   6.600  17.214   6.455
 9116POPC   C2B46232   6.570  17.253   6.755
 9116POPC   C3B46233   6.596  17.221   7.055
 9116POPC   C4B46234   6.562  17.233   7.355
 9117POPC   NC346235  15.183  42.353   5.555
 9117POPC   PO446236  15.216  42.309   5.855
 9117POPC   GL146237  15.218  42.290   6.155
 9117POPC   GL246238  15.155  42.211   6.155
 9117POPC   C1A46239  15.195  42.345   6.455
 9117POPC   D2A46240  15.162  42.318   6.755
 9117POPC   C3A46241  15.146  42.296   7.055
 9117POPC   C4A46242  15.193  42.300   7.355
 9117POPC   C1B46243  15.054  42.148   6.455
 9117POPC   C2B46244  15.034  42.074   6.755
 9117POPC   C3B46245  15.107  42.150   7.055
 9117POPC   C4B46246  15.037  42.064   7.355
 9118POPC   NC346247  11.258  29.962   5.555
 9118POPC   PO446248  11.270  29.915   5.855
 9118POPC   GL146249  11.332  29.911   6.155
 9118POPC   GL246250  11.186  29.995   6.155
 9118POPC   C1A46251  11.302  29.908   6.455
 9118POPC   D2A46252  11.264  29.896   6.755
 9118POPC   C3A46253  11.323  29.890   7.055
 9118POPC   C4A46254  11.300  29.893   7.355
 9118POPC   C1B46255  11.096  30.084   6.455
 9118POPC   C2B46256  11.116  29.994   6.755
 9118POPC   C3B46257  11.053  30.071   7.055
 9118POPC   C4B46258  11.113  30.025   7.355
 9119POPC   NC346259  12.823   3.587   5.555
 9119POPC   PO446260  12.894   3.537   5.855
 9119POPC   GL146261  12.807   3.496   6.155
 9119POPC   GL246262  12.768   3.571   6.155
 9119POPC   C1A46263  12.842   3.591   6.455
 9119POPC   D2A46264  12.825   3.556   6.755
 9119POPC   C3A46265  12.843   3.557   7.055
 9119POPC   C4A46266  12.867   3.547   7.355
 9119POPC   C1B46267  12.603   3.689   6.455
 9119POPC   C2B46268  12.636   3.612   6.755
 9119POPC   C3B46269  12.662   3.650   7.055
 9119POPC   C4B46270  12.579   3.663   7.355
 9120POPC   NC346271  19.082  15.176   5.555
 9120POPC   PO446272  19.105  15.200   5.855
 9120POPC   GL146273  19.090  15.159   6.155
 9120POPC   GL246274  19.132  15.332   6.155
 9120POPC   C1A46275  19.081  15.135   6.455
 9120POPC   D2A46276  19.044  15.173   6.755
 9120POPC   C3A46277  19.013  15.177   7.055
 9120POPC   C4A46278  19.061  15.215   7.355
 9120POPC   C1B46279  19.161  15.405   6.455
 9120POPC   C2B46280  19.130  15.444   6.755
 9120POPC   C3B46281  19.146  15.408   7.055
 9120POPC   C4B46282  19.138  15.408   7.355
 9121POPC   NC346283  12.893  19.830   5.555
 9121POPC   PO446284  12.827  19.838   5.855
 9121POPC   GL146285  12.809  19.812   6.155
 9121POPC   GL246286  12.754  19.965   6.155
 9121POPC   C1A46287  12.883  19.857   6.455
 9121POPC   D2A46288  12.820  19.821   6.755
 9121POPC   C3A46289  12.824  19.826   7.055
 9121POPC   C4A46290  12.863  19.786   7.355
 9121POPC   C1B46291  12.689  20.027   6.455
 9121POPC   C2B46292  12.714  19.989   6.755
 9121POPC   C3B46293  12.657  20.061   7.055
 9121POPC   C4B46294  12.647  20.066   7.355
 9122POPC   NC346295  11.255  27.613   5.555
 9122POPC   PO446296  11.276  27.638   5.855
 9122POPC   GL146297  11.294  27.592   6.155
 9122POPC   GL246298  11.427  27.477   6.155
 9122POPC   C1A46299  11.269  27.626   6.455
 9122POPC   D2A46300  11.270  27.549   6.755
 9122POPC   C3A46301  11.325  27.640   7.055
 9122POPC   C4A46302  11.258  27.553   7.355
 9122POPC   C1B46303  11.503  27.397   6.455
 9122POPC   C2B46304  11.432  27.369   6.755
 9122POPC   C3B46305  11.479  27.393   7.055
 9122POPC   C4B46306  11.426  27.439   7.355
 9123POPC   NC346307   1.992  32.226   5.555
 9123POPC   PO446308   1.945  32.222   5.855
 9123POPC   GL146309   1.996  32.256   6.155
 9123POPC   GL246310   2.048  32.338   6.155
 9123POPC   C1A46311   1.952  32.246   6.455
 9123POPC   D2A46312   1.944  32.283   6.755
 9123POPC   C3A46313   1.956  32.244   7.055
 9123POPC   C4A46314   1.953  32.227   7.355
 9123POPC   C1B46315   2.032  32.474   6.455
 9123POPC   C2B46316   2.114  32.446   6.755
 9123POPC   C3B46317   2.109  32.471   7.055
 9123POPC   C4B46318   2.020  32.459   7.355
 9124POPC   NC346319  12.886  32.237   5.555
 9124POPC   PO446320  12.823  32.255   5.855
 9124POPC   GL146321  12.866  32.283   6.155
 9124POPC   GL246322  12.715  32.258   6.155
 9124POPC   C1A46323  12.861  32.235   6.455
 9124POPC   D2A46324  12.866  32.237   6.755
 9124POPC   C3A46325  12.897  32.236   7.055
 9124POPC   C4A46326  12.845  32.199   7.355
 9124POPC   C1B46327  12.581  32.211   6.455
 9124POPC   C2B46328  12.609  32.175   6.755
 9124POPC   C3B46329  12.610  32.162   7.055
 9124POPC   C4B46330  12.629  32.148   7.355
 9125POPC   NC346331  31.457  26.044   5.555
 9125POPC   PO446332  31.511  26.074   5.855
 9125POPC   GL146333  31.489  26.051   6.155
 9125POPC   GL246334  31.303  26.055   6.155
 9125POPC   C1A46335  31.494  26.037   6.455
 9125POPC   D2A46336  31.457  26.084   6.755
 9125POPC   C3A46337  31.429  26.071   7.055
 9125POPC   C4A46338  31.516  26.036   7.355
 9125POPC   C1B46339  31.198  26.006   6.455
 9125POPC   C2B46340  31.223  26.066   6.755
 9125POPC   C3B46341  31.269  26.037   7.055
 9125POPC   C4B46342  31.210  26.053   7.355
 9126POPC   NC346343  36.858  12.808   5.555
 9126POPC   PO446344  36.943  12.835   5.855
 9126POPC   GL146345  36.855  12.820   6.155
 9126POPC   GL246346  36.807  12.945   6.155
 9126POPC   C1A46347  36.870  12.804   6.455
 9126POPC   D2A46348  36.857  12.895   6.755
 9126POPC   C3A46349  36.855  12.802   7.055
 9126POPC   C4A46350  36.894  12.816   7.355
 9126POPC   C1B46351  36.782  13.094   6.455
 9126POPC   C2B46352  36.711  13.080   6.755
 9126POPC   C3B46353  36.789  13.016   7.055
 9126POPC   C4B46354  36.748  13.061   7.355
 9127POPC   NC346355  21.360  15.221   5.555
 9127POPC   PO446356  21.368  15.178   5.855
 9127POPC   GL146357  21.336  15.213   6.155
 9127POPC   GL246358  21.535  15.186   6.155
 9127POPC   C1A46359  21.397  15.161   6.455
 9127POPC   D2A46360  21.381  15.138   6.755
 9127POPC   C3A46361  21.360  15.176   7.055
 9127POPC   C4A46362  21.376  15.210   7.355
 9127POPC   C1B46363  21.650  15.200   6.455
 9127POPC   C2B46364  21.673  15.192   6.755
 9127POPC   C3B46365  21.596  15.229   7.055
 9127POPC   C4B46366  21.604  15.189   7.355
 9128POPC   NC346367   7.441  13.647   5.555
 9128POPC   PO446368   7.399  13.641   5.855
 9128POPC   GL146369   7.376  13.633   6.155
 9128POPC   GL246370   7.330  13.693   6.155
 9128POPC   C1A46371   7.468  13.677   6.455
 9128POPC   D2A46372   7.415  13.671   6.755
 9128POPC   C3A46373   7.444  13.602   7.055
 9128POPC   C4A46374   7.441  13.640   7.355
 9128POPC   C1B46375   7.198  13.764   6.455
 9128POPC   C2B46376   7.276  13.807   6.755
 9128POPC   C3B46377   7.279  13.775   7.055
 9128POPC   C4B46378   7.236  13.803   7.355
 9129POPC   NC346379  29.960  22.888   5.555
 9129POPC   PO446380  29.911  22.984   5.855
 9129POPC   GL146381  29.954  22.950   6.155
 9129POPC   GL246382  29.861  22.856   6.155
 9129POPC   C1A46383  29.969  22.927   6.455
 9129POPC   D2A46384  29.954  22.894   6.755
 9129POPC   C3A46385  29.952  22.917   7.055
 9129POPC   C4A46386  29.889  22.945   7.355
 9129POPC   C1B46387  29.807  22.744   6.455
 9129POPC   C2B46388  29.801  22.693   6.755
 9129POPC   C3B46389  29.830  22.684   7.055
 9129POPC   C4B46390  29.792  22.765   7.355
 9130POPC   NC346391   4.270  19.023   5.555
 9130POPC   PO446392   4.277  19.029   5.855
 9130POPC   GL146393   4.280  19.061   6.155
 9130POPC   GL246394   4.297  18.936   6.155
 9130POPC   C1A46395   4.269  19.053   6.455
 9130POPC   D2A46396   4.272  19.019   6.755
 9130POPC   C3A46397   4.367  19.013   7.055
 9130POPC   C4A46398   4.282  19.047   7.355
 9130POPC   C1B46399   4.381  18.864   6.455
 9130POPC   C2B46400   4.414  18.863   6.755
 9130POPC   C3B46401   4.407  18.778   7.055
 9130POPC   C4B46402   4.367  18.855   7.355
 9131POPC   NC346403  37.692   5.075   5.555
 9131POPC   PO446404  37.681   5.101   5.855
 9131POPC   GL146405  37.690   5.084   6.155
 9131POPC   GL246406  37.686   5.252   6.155
 9131POPC   C1A46407  37.656   5.112   6.455
 9131POPC   D2A46408  37.706   5.057   6.755
 9131POPC   C3A46409  37.699   5.072   7.055
 9131POPC   C4A46410  37.705   5.121   7.355
 9131POPC   C1B46411  37.593   5.344   6.455
 9131POPC   C2B46412  37.608   5.348   6.755
 9131POPC   C3B46413  37.642   5.325   7.055
 9131POPC   C4B46414  37.592   5.331   7.355
 9132POPC   NC346415  34.552  13.578   5.555
 9132POPC   PO446416  34.604  13.641   5.855
 9132POPC   GL146417  34.561  13.640   6.155
 9132POPC   GL246418  34.465  13.542   6.155
 9132POPC   C1A46419  34.549  13.620   6.455
 9132POPC   D2A46420  34.533  13.602   6.755
 9132POPC   C3A46421  34.557  13.644   7.055
 9132POPC   C4A46422  34.573  13.656   7.355
 9132POPC   C1B46423  34.378  13.557   6.455
 9132POPC   C2B46424  34.381  13.547   6.755
 9132POPC   C3B46425  34.351  13.543   7.055
 9132POPC   C4B46426  34.327  13.574   7.355
 9133POPC   NC346427  18.309  27.635   5.555
 9133POPC   PO446428  18.239  27.575   5.855
 9133POPC   GL146429  18.235  27.544   6.155
 9133POPC   GL246430  18.394  27.553   6.155
 9133POPC   C1A46431  18.276  27.544   6.455
 9133POPC   D2A46432  18.322  27.563   6.755
 9133POPC   C3A46433  18.273  27.562   7.055
 9133POPC   C4A46434  18.322  27.558   7.355
 9133POPC   C1B46435  18.534  27.479   6.455
 9133POPC   C2B46436  18.513  27.550   6.755
 9133POPC   C3B46437  18.473  27.467   7.055
 9133POPC   C4B46438  18.518  27.562   7.355
 9134POPC   NC346439  14.435  22.964   5.555
 9134POPC   PO446440  14.387  22.913   5.855
 9134POPC   GL146441  14.398  22.909   6.155
 9134POPC   GL246442  14.347  22.776   6.155
 9134POPC   C1A46443  14.383  22.942   6.455
 9134POPC   D2A46444  14.386  22.907   6.755
 9134POPC   C3A46445  14.365  22.986   7.055
 9134POPC   C4A46446  14.399  22.922   7.355
 9134POPC   C1B46447  14.322  22.688   6.455
 9134POPC   C2B46448  14.324  22.723   6.755
 9134POPC   C3B46449  14.303  22.727   7.055
 9134POPC   C4B46450  14.267  22.751   7.355
 9135POPC   NC346451  16.701  36.092   5.555
 9135POPC   PO446452  16.706  36.114   5.855
 9135POPC   GL146453  16.703  36.161   6.155
 9135POPC   GL246454  16.863  36.147   6.155
 9135POPC   C1A46455  16.726  36.140   6.455
 9135POPC   D2A46456  16.765  36.092   6.755
 9135POPC   C3A46457  16.693  36.173   7.055
 9135POPC   C4A46458  16.708  36.114   7.355
 9135POPC   C1B46459  16.990  36.177   6.455
 9135POPC   C2B46460  16.969  36.259   6.755
 9135POPC   C3B46461  16.965  36.215   7.055
 9135POPC   C4B46462  16.993  36.176   7.355
 9136POPC   NC346463  21.435  27.637   5.555
 9136POPC   PO446464  21.418  27.583   5.855
 9136POPC   GL146465  21.415  27.572   6.155
 9136POPC   GL246466  21.481  27.584   6.155
 9136POPC   C1A46467  21.409  27.637   6.455
 9136POPC   D2A46468  21.385  27.579   6.755
 9136POPC   C3A46469  21.339  27.553   7.055
 9136POPC   C4A46470  21.362  27.607   7.355
 9136POPC   C1B46471  21.620  27.483   6.455
 9136POPC   C2B46472  21.598  27.492   6.755
 9136POPC   C3B46473  21.670  27.517   7.055
 9136POPC   C4B46474  21.601  27.467   7.355
 9137POPC   NC346475  13.592   9.756   5.555
 9137POPC   PO446476  13.672   9.756   5.855
 9137POPC   GL146477  13.630   9.707   6.155
 9137POPC   GL246478  13.749   9.863   6.155
 9137POPC   C1A46479  13.677   9.732   6.455
 9137POPC   D2A46480  13.676   9.704   6.755
 9137POPC   C3A46481  13.630   9.781   7.055
 9137POPC   C4A46482  13.677   9.710   7.355
 9137POPC   C1B46483  13.873   9.865   6.455
 9137POPC   C2B46484  13.877   9.861   6.755
 9137POPC   C3B46485  13.882   9.918   7.055
 9137POPC   C4B46486  13.789   9.870   7.355
 9138POPC   NC346487   1.179  34.574   5.555
 9138POPC   PO446488   1.226  34.596   5.855
 9138POPC   GL146489   1.252  34.526   6.155
 9138POPC   GL246490   1.256  34.430   6.155
 9138POPC   C1A46491   1.233  34.539   6.455
 9138POPC   D2A46492   1.234  34.613   6.755
 9138POPC   C3A46493   1.206  34.544   7.055
 9138POPC   C4A46494   1.184  34.542   7.355
 9138POPC   C1B46495   1.239  34.305   6.455
 9138POPC   C2B46496   1.241  34.362   6.755
 9138POPC   C3B46497   1.308  34.357   7.055
 9138POPC   C4B46498   1.297  34.366   7.355
 9139POPC   NC346499  25.285  19.863   5.555
 9139POPC   PO446500  25.256  19.803   5.855
 9139POPC   GL146501  25.276  19.810   6.155
 9139POPC   GL246502  25.348  19.760   6.155
 9139POPC   C1A46503  25.273  19.868   6.455
 9139POPC   D2A46504  25.248  19.881   6.755
 9139POPC   C3A46505  25.281  19.802   7.055
 9139POPC   C4A46506  25.273  19.872   7.355
 9139POPC   C1B46507  25.473  19.712   6.455
 9139POPC   C2B46508  25.500  19.684   6.755
 9139POPC   C3B46509  25.464  19.748   7.055
 9139POPC   C4B46510  25.449  19.732   7.355
 9140POPC   NC346511  36.865  40.007   5.555
 9140POPC   PO446512  36.952  40.013   5.855
 9140POPC   GL146513  36.907  40.012   6.155
 9140POPC   GL246514  36.857  40.136   6.155
 9140POPC   C1A46515  36.895  39.985   6.455
 9140POPC   D2A46516  36.870  40.052   6.755
 9140POPC   C3A46517  36.855  40.051   7.055
 9140POPC   C4A46518  36.916  39.975   7.355
 9140POPC   C1B46519  36.766  40.198   6.455
 9140POPC   C2B46520  36.815  40.254   6.755
 9140POPC   C3B46521  36.828  40.232   7.055
 9140POPC   C4B46522  36.766  40.206   7.355
 9141POPC   NC346523   3.591  12.045   5.555
 9141POPC   PO446524   3.534  12.073   5.855
 9141POPC   GL146525   3.588  12.085   6.155
 9141POPC   GL246526   3.434  11.928   6.155
 9141POPC   C1A46527   3.507  12.051   6.455
 9141POPC   D2A46528   3.521  12.115   6.755
 9141POPC   C3A46529   3.517  12.031   7.055
 9141POPC   C4A46530   3.552  12.064   7.355
 9141POPC   C1B46531   3.463  11.861   6.455
 9141POPC   C2B46532   3.406  11.852   6.755
 9141POPC   C3B46533   3.412  11.854   7.055
 9141POPC   C4B46534   3.423  11.849   7.355
 9142POPC   NC346535   2.722  18.293   5.555
 9142POPC   PO446536   2.800  18.253   5.855
 9142POPC   GL146537   2.762  18.312   6.155
 9142POPC   GL246538   2.644  18.197   6.155
 9142POPC   C1A46539   2.806  18.269   6.455
 9142POPC   D2A46540   2.729  18.291   6.755
 9142POPC   C3A46541   2.804  18.256   7.055
 9142POPC   C4A46542   2.810  18.248   7.355
 9142POPC   C1B46543   2.575  18.168   6.455
 9142POPC   C2B46544   2.614  18.111   6.755
 9142POPC   C3B46545   2.576  18.153   7.055
 9142POPC   C4B46546   2.543  18.111   7.355
 9143POPC   NC346547  43.106  12.118   5.555
 9143POPC   PO446548  43.096  12.029   5.855
 9143POPC   GL146549  43.098  12.067   6.155
 9143POPC   GL246550  43.150  11.921   6.155
 9143POPC   C1A46551  43.092  12.088   6.455
 9143POPC   D2A46552  43.135  12.036   6.755
 9143POPC   C3A46553  43.104  12.088   7.055
 9143POPC   C4A46554  43.137  12.082   7.355
 9143POPC   C1B46555  43.197  11.851   6.455
 9143POPC   C2B46556  43.198  11.886   6.755
 9143POPC   C3B46557  43.211  11.893   7.055
 9143POPC   C4B46558  43.236  11.896   7.355
 9144POPC   NC346559  34.593  26.023   5.555
 9144POPC   PO446560  34.557  26.020   5.855
 9144POPC   GL146561  34.606  25.996   6.155
 9144POPC   GL246562  34.628  25.891   6.155
 9144POPC   C1A46563  34.568  26.023   6.455
 9144POPC   D2A46564  34.530  26.055   6.755
 9144POPC   C3A46565  34.573  26.088   7.055
 9144POPC   C4A46566  34.597  26.050   7.355
 9144POPC   C1B46567  34.601  25.750   6.455
 9144POPC   C2B46568  34.608  25.807   6.755
 9144POPC   C3B46569  34.583  25.781   7.055
 9144POPC   C4B46570  34.623  25.754   7.355
 9145POPC   NC346571  22.145  41.523   5.555
 9145POPC   PO446572  22.192  41.558   5.855
 9145POPC   GL146573  22.174  41.533   6.155
 9145POPC   GL246574  22.227  41.703   6.155
 9145POPC   C1A46575  22.168  41.567   6.455
 9145POPC   D2A46576  22.206  41.604   6.755
 9145POPC   C3A46577  22.198  41.548   7.055
 9145POPC   C4A46578  22.140  41.519   7.355
 9145POPC   C1B46579  22.295  41.754   6.455
 9145POPC   C2B46580  22.326  41.726   6.755
 9145POPC   C3B46581  22.281  41.796   7.055
 9145POPC   C4B46582  22.330  41.773   7.355
 9146POPC   NC346583  32.257  43.083   5.555
 9146POPC   PO446584  32.225  43.070   5.855
 9146POPC   GL146585  32.219  43.144   6.155
 9146POPC   GL246586  32.381  43.082   6.155
 9146POPC   C1A46587  32.205  43.066   6.455
 9146POPC   D2A46588  32.223  43.120   6.755
 9146POPC   C3A46589  32.261  43.128   7.055
 9146POPC   C4A46590  32.283  43.152   7.355
 9146POPC   C1B46591  32.475  43.060   6.455
 9146POPC   C2B46592  32.491  43.047   6.755
 9146POPC   C3B46593  32.467  43.034   7.055
 9146POPC   C4B46594  32.479  43.037   7.355
 9147POPC   NC346595  22.897   6.666   5.555
 9147POPC   PO446596  22.945   6.666   5.855
 9147POPC   GL146597  22.921   6.612   6.155
 9147POPC   GL246598  22.922   6.528   6.155
 9147POPC   C1A46599  22.939   6.654   6.455
 9147POPC   D2A46600  22.889   6.648   6.755
 9147POPC   C3A46601  22.969   6.643   7.055
 9147POPC   C4A46602  22.925   6.673   7.355
 9147POPC   C1B46603  22.906   6.405   6.455
 9147POPC   C2B46604  22.950   6.385   6.755
 9147POPC   C3B46605  22.968   6.412   7.055
 9147POPC   C4B46606  22.913   6.405   7.355
 9148POPC   NC346607   6.660  40.783   5.555
 9148POPC   PO446608   6.612  40.779   5.855
 9148POPC   GL146609   6.677  40.801   6.155
 9148POPC   GL246610   6.719  40.765   6.155
 9148POPC   C1A46611   6.601  40.813   6.455
 9148POPC   D2A46612   6.652  40.773   6.755
 9148POPC   C3A46613   6.598  40.770   7.055
 9148POPC   C4A46614   6.690  40.810   7.355
 9148POPC   C1B46615   6.937  40.691   6.455
 9148POPC   C2B46616   6.846  40.701   6.755
 9148POPC   C3B46617   6.855  40.749   7.055
 9148POPC   C4B46618   6.875  40.701   7.355
 9149POPC   NC346619  29.953  26.050   5.555
 9149POPC   PO446620  29.966  26.000   5.855
 9149POPC   GL146621  29.924  26.003   6.155
 9149POPC   GL246622  29.990  26.087   6.155
 9149POPC   C1A46623  29.887  26.013   6.455
 9149POPC   D2A46624  29.951  26.007   6.755
 9149POPC   C3A46625  29.940  26.001   7.055
 9149POPC   C4A46626  29.907  25.998   7.355
 9149POPC   C1B46627  30.196  26.152   6.455
 9149POPC   C2B46628  30.134  26.087   6.755
 9149POPC   C3B46629  30.156  26.148   7.055
 9149POPC   C4B46630  30.199  26.160   7.355
 9150POPC   NC346631  38.450  26.048   5.555
 9150POPC   PO446632  38.452  26.042   5.855
 9150POPC   GL146633  38.428  26.033   6.155
 9150POPC   GL246634  38.476  25.940   6.155
 9150POPC   C1A46635  38.485  26.046   6.455
 9150POPC   D2A46636  38.437  26.030   6.755
 9150POPC   C3A46637  38.469  26.018   7.055
 9150POPC   C4A46638  38.479  26.007   7.355
 9150POPC   C1B46639  38.489  25.774   6.455
 9150POPC   C2B46640  38.465  25.767   6.755
 9150POPC   C3B46641  38.449  25.830   7.055
 9150POPC   C4B46642  38.412  25.827   7.355
 9151POPC   NC346643  22.947  12.896   5.555
 9151POPC   PO446644  22.894  12.821   5.855
 9151POPC   GL146645  22.931  12.848   6.155
 9151POPC   GL246646  22.793  12.826   6.155
 9151POPC   C1A46647  22.949  12.862   6.455
 9151POPC   D2A46648  22.900  12.866   6.755
 9151POPC   C3A46649  22.917  12.866   7.055
 9151POPC   C4A46650  22.946  12.866   7.355
 9151POPC   C1B46651  22.678  12.829   6.455
 9151POPC   C2B46652  22.658  12.883   6.755
 9151POPC   C3B46653  22.707  12.811   7.055
 9151POPC   C4B46654  22.653  12.811   7.355
 9152POPC   NC346655  25.269  10.493   5.555
 9152POPC   PO446656  25.259  10.524   5.855
 9152POPC   GL146657  25.240  10.478   6.155
 9152POPC   GL246658  25.171  10.625   6.155
 9152POPC   C1A46659  25.253  10.482   6.455
 9152POPC   D2A46660  25.267  10.574   6.755
 9152POPC   C3A46661  25.224  10.550   7.055
 9152POPC   C4A46662  25.285  10.556   7.355
 9152POPC   C1B46663  25.124  10.698   6.455
 9152POPC   C2B46664  25.082  10.681   6.755
 9152POPC   C3B46665  25.080  10.691   7.055
 9152POPC   C4B46666  25.100  10.743   7.355
 9153POPC   NC346667  36.951  32.268   5.555
 9153POPC   PO446668  36.917  32.248   5.855
 9153POPC   GL146669  36.910  32.253   6.155
 9153POPC   GL246670  36.818  32.193   6.155
 9153POPC   C1A46671  36.920  32.261   6.455
 9153POPC   D2A46672  36.920  32.239   6.755
 9153POPC   C3A46673  36.926  32.286   7.055
 9153POPC   C4A46674  36.890  32.286   7.355
 9153POPC   C1B46675  36.634  32.222   6.455
 9153POPC   C2B46676  36.625  32.179   6.755
 9153POPC   C3B46677  36.697  32.255   7.055
 9153POPC   C4B46678  36.641  32.218   7.355
 9154POPC   NC346679  26.854  20.613   5.555
 9154POPC   PO446680  26.791  20.639   5.855
 9154POPC   GL146681  26.771  20.584   6.155
 9154POPC   GL246682  26.845  20.741   6.155
 9154POPC   C1A46683  26.847  20.566   6.455
 9154POPC   D2A46684  26.771  20.604   6.755
 9154POPC   C3A46685  26.790  20.592   7.055
 9154POPC   C4A46686  26.771  20.638   7.355
 9154POPC   C1B46687  26.799  20.854   6.455
 9154POPC   C2B46688  26.810  20.890   6.755
 9154POPC   C3B46689  26.825  20.894   7.055
 9154POPC   C4B46690  26.740  20.866   7.355
 9155POPC   NC346691  33.022  26.040   5.555
 9155POPC   PO446692  33.012  26.020   5.855
 9155POPC   GL146693  33.022  26.069   6.155
 9155POPC   GL246694  33.081  26.164   6.155
 9155POPC   C1A46695  33.042  26.073   6.455
 9155POPC   D2A46696  32.978  26.002   6.755
 9155POPC   C3A46697  33.033  26.034   7.055
 9155POPC   C4A46698  32.995  26.087   7.355
 9155POPC   C1B46699  33.096  26.318   6.455
 9155POPC   C2B46700  33.162  26.280   6.755
 9155POPC   C3B46701  33.087  26.228   7.055
 9155POPC   C4B46702  33.114  26.300   7.355
 9156POPC   NC346703   5.109  11.299   5.555
 9156POPC   PO446704   5.134  11.284   5.855
 9156POPC   GL146705   5.064  11.300   6.155
 9156POPC   GL246706   4.947  11.370   6.155
 9156POPC   C1A46707   5.137  11.316   6.455
 9156POPC   D2A46708   5.075  11.312   6.755
 9156POPC   C3A46709   5.096  11.281   7.055
 9156POPC   C4A46710   5.075  11.310   7.355
 9156POPC   C1B46711   4.868  11.410   6.455
 9156POPC   C2B46712   4.893  11.331   6.755
 9156POPC   C3B46713   4.851  11.331   7.055
 9156POPC   C4B46714   4.849  11.361   7.355
 9157POPC   NC346715   1.178  39.962   5.555
 9157POPC   PO446716   1.170  39.987   5.855
 9157POPC   GL146717   1.222  40.031   6.155
 9157POPC   GL246718   1.303  40.127   6.155
 9157POPC   C1A46719   1.205  40.000   6.455
 9157POPC   D2A46720   1.262  40.044   6.755
 9157POPC   C3A46721   1.254  40.028   7.055
 9157POPC   C4A46722   1.245  40.045   7.355
 9157POPC   C1B46723   1.341  40.235   6.455
 9157POPC   C2B46724   1.384  40.155   6.755
 9157POPC   C3B46725   1.350  40.239   7.055
 9157POPC   C4B46726   1.405  40.178   7.355
 9158POPC   NC346727  10.476  27.588   5.555
 9158POPC   PO446728  10.541  27.547   5.855
 9158POPC   GL146729  10.504  27.569   6.155
 9158POPC   GL246730  10.407  27.643   6.155
 9158POPC   C1A46731  10.528  27.552   6.455
 9158POPC   D2A46732  10.536  27.566   6.755
 9158POPC   C3A46733  10.477  27.587   7.055
 9158POPC   C4A46734  10.562  27.616   7.355
 9158POPC   C1B46735  10.252  27.666   6.455
 9158POPC   C2B46736  10.301  27.698   6.755
 9158POPC   C3B46737  10.261  27.686   7.055
 9158POPC   C4B46738  10.241  27.680   7.355
 9159POPC   NC346739   2.741  44.673   5.555
 9159POPC   PO446740   2.790  44.666   5.855
 9159POPC   GL146741   2.757  44.618   6.155
 9159POPC   GL246742   2.770  44.545   6.155
 9159POPC   C1A46743   2.784  44.670   6.455
 9159POPC   D2A46744   2.812  44.656   6.755
 9159POPC   C3A46745   2.760  44.655   7.055
 9159POPC   C4A46746   2.776  44.652   7.355
 9159POPC   C1B46747   2.747  44.431   6.455
 9159POPC   C2B46748   2.724  44.417   6.755
 9159POPC   C3B46749   2.750  44.445   7.055
 9159POPC   C4B46750   2.711  44.437   7.355
 9160POPC   NC346751   0.453  29.149   5.555
 9160POPC   PO446752   0.418  29.110   5.855
 9160POPC   GL146753   0.425  29.119   6.155
 9160POPC   GL246754   0.378  29.034   6.155
 9160POPC   C1A46755   0.399  29.179   6.455
 9160POPC   D2A46756   0.477  29.111   6.755
 9160POPC   C3A46757   0.401  29.184   7.055
 9160POPC   C4A46758   0.405  29.126   7.355
 9160POPC   C1B46759   0.246  28.954   6.455
 9160POPC   C2B46760   0.254  28.908   6.755
 9160POPC   C3B46761   0.295  28.949   7.055
 9160POPC   C4B46762   0.281  28.920   7.355
 9161POPC   NC346763  30.672  38.460   5.555
 9161POPC   PO446764  30.668  38.484   5.855
 9161POPC   GL146765  30.741  38.422   6.155
 9161POPC   GL246766  30.595  38.530   6.155
 9161POPC   C1A46767  30.701  38.430   6.455
 9161POPC   D2A46768  30.734  38.448   6.755
 9161POPC   C3A46769  30.656  38.459   7.055
 9161POPC   C4A46770  30.723  38.467   7.355
 9161POPC   C1B46771  30.452  38.621   6.455
 9161POPC   C2B46772  30.490  38.604   6.755
 9161POPC   C3B46773  30.504  38.570   7.055
 9161POPC   C4B46774  30.430  38.614   7.355
 9162POPC   NC346775  44.626  40.826   5.555
 9162POPC   PO446776  44.616  40.806   5.855
 9162POPC   GL146777  44.659  40.743   6.155
 9162POPC   GL246778  44.776  40.668   6.155
 9162POPC   C1A46779  44.618  40.823   6.455
 9162POPC   D2A46780  44.620  40.758   6.755
 9162POPC   C3A46781  44.645  40.736   7.055
 9162POPC   C4A46782  44.698  40.827   7.355
 9162POPC   C1B46783  44.770  40.540   6.455
 9162POPC   C2B46784  44.806  40.600   6.755
 9162POPC   C3B46785  44.810  40.553   7.055
 9162POPC   C4B46786  44.771  40.577   7.355
 9163POPC   NC346787  34.535  16.771   5.555
 9163POPC   PO446788  34.570  16.742   5.855
 9163POPC   GL146789  34.592  16.697   6.155
 9163POPC   GL246790  34.471  16.796   6.155
 9163POPC   C1A46791  34.586  16.753   6.455
 9163POPC   D2A46792  34.535  16.690   6.755
 9163POPC   C3A46793  34.618  16.703   7.055
 9163POPC   C4A46794  34.538  16.704   7.355
 9163POPC   C1B46795  34.351  16.827   6.455
 9163POPC   C2B46796  34.369  16.886   6.755
 9163POPC   C3B46797  34.374  16.861   7.055
 9163POPC   C4B46798  34.389  16.830   7.355
 9164POPC   NC346799   4.312  22.936   5.555
 9164POPC   PO446800   4.302  22.898   5.855
 9164POPC   GL146801   4.328  22.949   6.155
 9164POPC   GL246802   4.163  23.025   6.155
 9164POPC   C1A46803   4.296  22.901   6.455
 9164POPC   D2A46804   4.309  22.938   6.755
 9164POPC   C3A46805   4.346  22.987   7.055
 9164POPC   C4A46806   4.365  22.983   7.355
 9164POPC   C1B46807   4.083  23.025   6.455
 9164POPC   C2B46808   4.056  23.030   6.755
 9164POPC   C3B46809   4.115  22.981   7.055
 9164POPC   C4B46810   4.070  23.008   7.355
 9165POPC   NC346811  15.905  10.524   5.555
 9165POPC   PO446812  15.915  10.516   5.855
 9165POPC   GL146813  15.973  10.511   6.155
 9165POPC   GL246814  15.876  10.508   6.155
 9165POPC   C1A46815  15.917  10.488   6.455
 9165POPC   D2A46816  15.984  10.483   6.755
 9165POPC   C3A46817  15.917  10.499   7.055
 9165POPC   C4A46818  15.957  10.493   7.355
 9165POPC   C1B46819  15.666  10.432   6.455
 9165POPC   C2B46820  15.746  10.509   6.755
 9165POPC   C3B46821  15.695  10.436   7.055
 9165POPC   C4B46822  15.735  10.511   7.355
 9166POPC   NC346823  40.774  43.837   5.555
 9166POPC   PO446824  40.735  43.907   5.855
 9166POPC   GL146825  40.791  43.853   6.155
 9166POPC   GL246826  40.774  44.055   6.155
 9166POPC   C1A46827  40.759  43.921   6.455
 9166POPC   D2A46828  40.737  43.868   6.755
 9166POPC   C3A46829  40.757  43.867   7.055
 9166POPC   C4A46830  40.798  43.855   7.355
 9166POPC   C1B46831  40.836  44.177   6.455
 9166POPC   C2B46832  40.841  44.099   6.755
 9166POPC   C3B46833  40.851  44.099   7.055
 9166POPC   C4B46834  40.839  44.106   7.355
 9167POPC   NC346835  35.393  42.322   5.555
 9167POPC   PO446836  35.399  42.303   5.855
 9167POPC   GL146837  35.352  42.341   6.155
 9167POPC   GL246838  35.451  42.275   6.155
 9167POPC   C1A46839  35.400  42.295   6.455
 9167POPC   D2A46840  35.384  42.296   6.755
 9167POPC   C3A46841  35.368  42.383   7.055
 9167POPC   C4A46842  35.388  42.285   7.355
 9167POPC   C1B46843  35.523  42.108   6.455
 9167POPC   C2B46844  35.572  42.134   6.755
 9167POPC   C3B46845  35.560  42.131   7.055
 9167POPC   C4B46846  35.532  42.170   7.355
 9168POPC   NC346847  43.865  30.703   5.555
 9168POPC   PO446848  43.860  30.673   5.855
 9168POPC   GL146849  43.928  30.683   6.155
 9168POPC   GL246850  43.847  30.839   6.155
 9168POPC   C1A46851  43.844  30.746   6.455
 9168POPC   D2A46852  43.904  30.716   6.755
 9168POPC   C3A46853  43.896  30.740   7.055
 9168POPC   C4A46854  43.885  30.721   7.355
 9168POPC   C1B46855  43.790  30.964   6.455
 9168POPC   C2B46856  43.844  30.977   6.755
 9168POPC   C3B46857  43.882  30.971   7.055
 9168POPC   C4B46858  43.796  30.948   7.355
 9169POPC   NC346859  24.519  43.159   5.555
 9169POPC   PO446860  24.538  43.126   5.855
 9169POPC   GL146861  24.520  43.137   6.155
 9169POPC   GL246862  24.586  43.124   6.155
 9169POPC   C1A46863  24.454  43.066   6.455
 9169POPC   D2A46864  24.499  43.117   6.755
 9169POPC   C3A46865  24.520  43.074   7.055
 9169POPC   C4A46866  24.474  43.142   7.355
 9169POPC   C1B46867  24.719  43.089   6.455
 9169POPC   C2B46868  24.770  43.091   6.755
 9169POPC   C3B46869  24.735  43.053   7.055
 9169POPC   C4B46870  24.738  43.041   7.355
 9170POPC   NC346871  26.089  14.415   5.555
 9170POPC   PO446872  26.009  14.449   5.855
 9170POPC   GL146873  26.035  14.361   6.155
 9170POPC   GL246874  25.942  14.354   6.155
 9170POPC   C1A46875  26.091  14.360   6.455
 9170POPC   D2A46876  26.038  14.429   6.755
 9170POPC   C3A46877  26.057  14.414   7.055
 9170POPC   C4A46878  26.039  14.451   7.355
 9170POPC   C1B46879  25.837  14.371   6.455
 9170POPC   C2B46880  25.796  14.364   6.755
 9170POPC   C3B46881  25.802  14.383   7.055
 9170POPC   C4B46882  25.829  14.333   7.355
 9171POPC   NC346883  36.167  39.248   5.555
 9171POPC   PO446884  36.156  39.240   5.855
 9171POPC   GL146885  36.112  39.247   6.155
 9171POPC   GL246886  36.227  39.180   6.155
 9171POPC   C1A46887  36.169  39.255   6.455
 9171POPC   D2A46888  36.142  39.197   6.755
 9171POPC   C3A46889  36.135  39.214   7.055
 9171POPC   C4A46890  36.108  39.279   7.355
 9171POPC   C1B46891  36.383  39.172   6.455
 9171POPC   C2B46892  36.387  39.264   6.755
 9171POPC   C3B46893  36.423  39.192   7.055
 9171POPC   C4B46894  36.330  39.250   7.355
 9172POPC   NC346895  14.364  33.059   5.555
 9172POPC   PO446896  14.392  33.025   5.855
 9172POPC   GL146897  14.427  32.999   6.155
 9172POPC   GL246898  14.461  33.151   6.155
 9172POPC   C1A46899  14.428  32.985   6.455
 9172POPC   D2A46900  14.358  33.039   6.755
 9172POPC   C3A46901  14.360  33.030   7.055
 9172POPC   C4A46902  14.448  33.018   7.355
 9172POPC   C1B46903  14.393  33.243   6.455
 9172POPC   C2B46904  14.380  33.226   6.755
 9172POPC   C3B46905  14.470  33.307   7.055
 9172POPC   C4B46906  14.447  33.299   7.355
 9173POPC   NC346907  20.621  43.913   5.555
 9173POPC   PO446908  20.575  43.922   5.855
 9173POPC   GL146909  20.578  43.854   6.155
 9173POPC   GL246910  20.724  44.002   6.155
 9173POPC   C1A46911  20.648  43.883   6.455
 9173POPC   D2A46912  20.637  43.922   6.755
 9173POPC   C3A46913  20.571  43.868   7.055
 9173POPC   C4A46914  20.621  43.934   7.355
 9173POPC   C1B46915  20.775  44.063   6.455
 9173POPC   C2B46916  20.781  44.027   6.755
 9173POPC   C3B46917  20.773  44.062   7.055
 9173POPC   C4B46918  20.831  44.075   7.355
 9174POPC   NC346919   6.656  29.131   5.555
 9174POPC   PO446920   6.620  29.193   5.855
 9174POPC   GL146921   6.629  29.157   6.155
 9174POPC   GL246922   6.548  29.029   6.155
 9174POPC   C1A46923   6.643  29.166   6.455
 9174POPC   D2A46924   6.653  29.104   6.755
 9174POPC   C3A46925   6.688  29.157   7.055
 9174POPC   C4A46926   6.602  29.153   7.355
 9174POPC   C1B46927   6.416  29.010   6.455
 9174POPC   C2B46928   6.407  28.948   6.755
 9174POPC   C3B46929   6.414  28.955   7.055
 9174POPC   C4B46930   6.469  29.020   7.355
 9175POPC   NC346931  39.264  37.693   5.555
 9175POPC   PO446932  39.273  37.648   5.855
 9175POPC   GL146933  39.251  37.662   6.155
 9175POPC   GL246934  39.316  37.715   6.155
 9175POPC   C1A46935  39.201  37.717   6.455
 9175POPC   D2A46936  39.234  37.669   6.755
 9175POPC   C3A46937  39.251  37.647   7.055
 9175POPC   C4A46938  39.222  37.710   7.355
 9175POPC   C1B46939  39.433  37.793   6.455
 9175POPC   C2B46940  39.438  37.735   6.755
 9175POPC   C3B46941  39.438  37.748   7.055
 9175POPC   C4B46942  39.453  37.718   7.355
 9176POPC   NC346943  17.477  23.714   5.555
 9176POPC   PO446944  17.506  23.686   5.855
 9176POPC   GL146945  17.464  23.749   6.155
 9176POPC   GL246946  17.469  23.816   6.155
 9176POPC   C1A46947  17.525  23.681   6.455
 9176POPC   D2A46948  17.457  23.750   6.755
 9176POPC   C3A46949  17.516  23.734   7.055
 9176POPC   C4A46950  17.510  23.715   7.355
 9176POPC   C1B46951  17.427  23.994   6.455
 9176POPC   C2B46952  17.419  24.007   6.755
 9176POPC   C3B46953  17.499  23.977   7.055
 9176POPC   C4B46954  17.483  23.985   7.355
 9177POPC   NC346955   2.812  39.273   5.555
 9177POPC   PO446956   2.744  39.189   5.855
 9177POPC   GL146957   2.718  39.218   6.155
 9177POPC   GL246958   2.906  39.163   6.155
 9177POPC   C1A46959   2.757  39.265   6.455
 9177POPC   D2A46960   2.749  39.270   6.755
 9177POPC   C3A46961   2.778  39.184   7.055
 9177POPC   C4A46962   2.722  39.236   7.355
 9177POPC   C1B46963   2.992  39.174   6.455
 9177POPC   C2B46964   2.992  39.184   6.755
 9177POPC   C3B46965   2.994  39.212   7.055
 9177POPC   C4B46966   3.036  39.141   7.355
 9178POPC   NC346967  11.340   8.966   5.555
 9178POPC   PO446968  11.274   8.965   5.855
 9178POPC   GL146969  11.348   9.004   6.155
 9178POPC   GL246970  11.300   8.820   6.155
 9178POPC   C1A46971  11.259   8.970   6.455
 9178POPC   D2A46972  11.341   8.969   6.755
 9178POPC   C3A46973  11.278   8.948   7.055
 9178POPC   C4A46974  11.312   9.022   7.355
 9178POPC   C1B46975  11.235   8.744   6.455
 9178POPC   C2B46976  11.272   8.700   6.755
 9178POPC   C3B46977  11.191   8.731   7.055
 9178POPC   C4B46978  11.223   8.692   7.355
 9179POPC   NC346979  15.188  30.650   5.555
 9179POPC   PO446980  15.227  30.649   5.855
 9179POPC   GL146981  15.215  30.711   6.155
 9179POPC   GL246982  15.155  30.853   6.155
 9179POPC   C1A46983  15.200  30.699   6.455
 9179POPC   D2A46984  15.131  30.702   6.755
 9179POPC   C3A46985  15.166  30.746   7.055
 9179POPC   C4A46986  15.194  30.648   7.355
 9179POPC   C1B46987  15.149  30.972   6.455
 9179POPC   C2B46988  15.190  30.908   6.755
 9179POPC   C3B46989  15.168  30.938   7.055
 9179POPC   C4B46990  15.137  30.963   7.355
 9180POPC   NC346991  14.427  19.012   5.555
 9180POPC   PO446992  14.381  19.095   5.855
 9180POPC   GL146993  14.383  19.100   6.155
 9180POPC   GL246994  14.345  19.160   6.155
 9180POPC   C1A46995  14.415  19.076   6.455
 9180POPC   D2A46996  14.364  19.072   6.755
 9180POPC   C3A46997  14.371  19.053   7.055
 9180POPC   C4A46998  14.436  19.095   7.355
 9180POPC   C1B46999  14.326  19.278   6.455
 9180POPC   C2B47000  14.330  19.280   6.755
 9180POPC   C3B47001  14.279  19.331   7.055
 9180POPC   C4B47002  14.358  19.336   7.355
 9181POPC   NC347003  16.689  38.461   5.555
 9181POPC   PO447004  16.778  38.453   5.855
 9181POPC   GL147005  16.768  38.426   6.155
 9181POPC   GL247006  16.566  38.420   6.155
 9181POPC   C1A47007  16.744  38.462   6.455
 9181POPC   D2A47008  16.705  38.455   6.755
 9181POPC   C3A47009  16.695  38.446   7.055
 9181POPC   C4A47010  16.687  38.406   7.355
 9181POPC   C1B47011  16.466  38.429   6.455
 9181POPC   C2B47012  16.529  38.433   6.755
 9181POPC   C3B47013  16.448  38.423   7.055
 9181POPC   C4B47014  16.497  38.455   7.355
 9182POPC   NC347015  22.894  35.304   5.555
 9182POPC   PO447016  22.973  35.326   5.855
 9182POPC   GL147017  22.888  35.394   6.155
 9182POPC   GL247018  23.048  35.255   6.155
 9182POPC   C1A47019  22.964  35.318   6.455
 9182POPC   D2A47020  22.981  35.315   6.755
 9182POPC   C3A47021  22.955  35.315   7.055
 9182POPC   C4A47022  22.922  35.303   7.355
 9182POPC   C1B47023  23.104  35.255   6.455
 9182POPC   C2B47024  23.184  35.236   6.755
 9182POPC   C3B47025  23.175  35.259   7.055
 9182POPC   C4B47026  23.172  35.260   7.355
 9183POPC   NC347027  36.168  19.031   5.555
 9183POPC   PO447028  36.095  19.069   5.855
 9183POPC   GL147029  36.175  19.045   6.155
 9183POPC   GL247030  36.059  18.944   6.155
 9183POPC   C1A47031  36.176  19.058   6.455
 9183POPC   D2A47032  36.130  19.039   6.755
 9183POPC   C3A47033  36.138  19.065   7.055
 9183POPC   C4A47034  36.095  19.053   7.355
 9183POPC   C1B47035  36.011  18.799   6.455
 9183POPC   C2B47036  35.993  18.824   6.755
 9183POPC   C3B47037  35.973  18.808   7.055
 9183POPC   C4B47038  36.007  18.835   7.355
 9184POPC   NC347039  19.805  15.225   5.555
 9184POPC   PO447040  19.826  15.216   5.855
 9184POPC   GL147041  19.824  15.209   6.155
 9184POPC   GL247042  19.880  15.135   6.155
 9184POPC   C1A47043  19.870  15.212   6.455
 9184POPC   D2A47044  19.866  15.175   6.755
 9184POPC   C3A47045  19.842  15.218   7.055
 9184POPC   C4A47046  19.859  15.135   7.355
 9184POPC   C1B47047  20.002  15.053   6.455
 9184POPC   C2B47048  19.984  14.972   6.755
 9184POPC   C3B47049  19.975  15.052   7.055
 9184POPC   C4B47050  20.014  15.005   7.355
 9185POPC   NC347051  36.109  26.010   5.555
 9185POPC   PO447052  36.170  26.054   5.855
 9185POPC   GL147053  36.176  25.993   6.155
 9185POPC   GL247054  36.182  26.093   6.155
 9185POPC   C1A47055  36.152  26.005   6.455
 9185POPC   D2A47056  36.098  26.019   6.755
 9185POPC   C3A47057  36.113  26.031   7.055
 9185POPC   C4A47058  36.147  26.004   7.355
 9185POPC   C1B47059  36.236  26.268   6.455
 9185POPC   C2B47060  36.279  26.213   6.755
 9185POPC   C3B47061  36.327  26.246   7.055
 9185POPC   C4B47062  36.310  26.200   7.355
 9186POPC   NC347063  35.387  38.477   5.555
 9186POPC   PO447064  35.323  38.477   5.855
 9186POPC   GL147065  35.356  38.476   6.155
 9186POPC   GL247066  35.424  38.583   6.155
 9186POPC   C1A47067  35.396  38.414   6.455
 9186POPC   D2A47068  35.401  38.422   6.755
 9186POPC   C3A47069  35.321  38.497   7.055
 9186POPC   C4A47070  35.313  38.406   7.355
 9186POPC   C1B47071  35.430  38.676   6.455
 9186POPC   C2B47072  35.444  38.733   6.755
 9186POPC   C3B47073  35.421  38.671   7.055
 9186POPC   C4B47074  35.454  38.722   7.355
 9187POPC   NC347075  41.547  30.723   5.555
 9187POPC   PO447076  41.575  30.691   5.855
 9187POPC   GL147077  41.568  30.718   6.155
 9187POPC   GL247078  41.462  30.726   6.155
 9187POPC   C1A47079  41.509  30.667   6.455
 9187POPC   D2A47080  41.564  30.690   6.755
 9187POPC   C3A47081  41.553  30.689   7.055
 9187POPC   C4A47082  41.600  30.715   7.355
 9187POPC   C1B47083  41.265  30.740   6.455
 9187POPC   C2B47084  41.309  30.668   6.755
 9187POPC   C3B47085  41.290  30.741   7.055
 9187POPC   C4B47086  41.296  30.707   7.355
 9188POPC   NC347087   9.773  17.542   5.555
 9188POPC   PO447088   9.781  17.525   5.855
 9188POPC   GL147089   9.714  17.480   6.155
 9188POPC   GL247090   9.898  17.553   6.155
 9188POPC   C1A47091   9.710  17.479   6.455
 9188POPC   D2A47092   9.782  17.516   6.755
 9188POPC   C3A47093   9.747  17.465   7.055
 9188POPC   C4A47094   9.720  17.534   7.355
 9188POPC   C1B47095   9.988  17.507   6.455
 9188POPC   C2B47096  10.003  17.533   6.755
 9188POPC   C3B47097   9.960  17.523   7.055
 9188POPC   C4B47098  10.009  17.484   7.355
 9189POPC   NC347099  26.031  10.541   5.555
 9189POPC   PO447100  26.075  10.527   5.855
 9189POPC   GL147101  26.001  10.568   6.155
 9189POPC   GL247102  26.144  10.653   6.155
 9189POPC   C1A47103  26.060  10.504   6.455
 9189POPC   D2A47104  26.067  10.531   6.755
 9189POPC   C3A47105  25.994  10.517   7.055
 9189POPC   C4A47106  26.076  10.565   7.355
 9189POPC   C1B47107  26.160  10.699   6.455
 9189POPC   C2B47108  26.171  10.742   6.755
 9189POPC   C3B47109  26.211  10.701   7.055
 9189POPC   C4B47110  26.172  10.783   7.355
 9190POPC   NC347111   5.064  28.366   5.555
 9190POPC   PO447112   5.079  28.333   5.855
 9190POPC   GL147113   5.076  28.416   6.155
 9190POPC   GL247114   5.189  28.275   6.155
 9190POPC   C1A47115   5.084  28.329   6.455
 9190POPC   D2A47116   5.123  28.357   6.755
 9190POPC   C3A47117   5.048  28.328   7.055
 9190POPC   C4A47118   5.049  28.401   7.355
 9190POPC   C1B47119   5.313  28.223   6.455
 9190POPC   C2B47120   5.252  28.173   6.755
 9190POPC   C3B47121   5.321  28.254   7.055
 9190POPC   C4B47122   5.290  28.206   7.355
 9191POPC   NC347123  26.787  12.062   5.555
 9191POPC   PO447124  26.811  12.091   5.855
 9191POPC   GL147125  26.778  12.043   6.155
 9191POPC   GL247126  26.896  12.151   6.155
 9191POPC   C1A47127  26.800  12.034   6.455
 9191POPC   D2A47128  26.854  12.106   6.755
 9191POPC   C3A47129  26.802  12.095   7.055
 9191POPC   C4A47130  26.783  12.118   7.355
 9191POPC   C1B47131  27.035  12.130   6.455
 9191POPC   C2B47132  27.065  12.192   6.755
 9191POPC   C3B47133  27.069  12.131   7.055
 9191POPC   C4B47134  27.046  12.166   7.355
 9192POPC   NC347135  44.691  14.429   5.555
 9192POPC   PO447136  44.652  14.376   5.855
 9192POPC   GL147137  44.642  14.407   6.155
 9192POPC   GL247138  44.749  14.282   6.155
 9192POPC   C1A47139  44.644  14.395   6.455
 9192POPC   D2A47140  44.689  14.387   6.755
 9192POPC   C3A47141  44.630  14.355   7.055
 9192POPC   C4A47142  44.665  14.379   7.355
 9192POPC   C1B47143  44.730  14.127   6.455
 9192POPC   C2B47144  44.729  14.134   6.755
 9192POPC   C3B47145  44.700  14.140   7.055
 9192POPC   C4B47146  44.727  14.119   7.355
 9193POPC   NC347147  14.416  38.500   5.555
 9193POPC   PO447148  14.419  38.482   5.855
 9193POPC   GL147149  14.403  38.438   6.155
 9193POPC   GL247150  14.359  38.605   6.155
 9193POPC   C1A47151  14.364  38.504   6.455
 9193POPC   D2A47152  14.404  38.488   6.755
 9193POPC   C3A47153  14.369  38.498   7.055
 9193POPC   C4A47154  14.364  38.459   7.355
 9193POPC   C1B47155  14.261  38.657   6.455
 9193POPC   C2B47156  14.238  38.675   6.755
 9193POPC   C3B47157  14.281  38.671   7.055
 9193POPC   C4B47158  14.323  38.636   7.355
 9194POPC   NC347159  20.630  28.380   5.555
 9194POPC   PO447160  20.577  28.326   5.855
 9194POPC   GL147161  20.610  28.323   6.155
 9194POPC   GL247162  20.737  28.319   6.155
 9194POPC   C1A47163  20.649  28.331   6.455
 9194POPC   D2A47164  20.571  28.343   6.755
 9194POPC   C3A47165  20.577  28.358   7.055
 9194POPC   C4A47166  20.578  28.350   7.355
 9194POPC   C1B47167  20.902  28.348   6.455
 9194POPC   C2B47168  20.897  28.305   6.755
 9194POPC   C3B47169  20.849  28.299   7.055
 9194POPC   C4B47170  20.902  28.260   7.355
 9195POPC   NC347171   0.426   0.399   5.555
 9195POPC   PO447172   0.406   0.428   5.855
 9195POPC   GL147173   0.423   0.457   6.155
 9195POPC   GL247174   0.514   0.459   6.155
 9195POPC   C1A47175   0.473   0.397   6.455
 9195POPC   D2A47176   0.447   0.442   6.755
 9195POPC   C3A47177   0.463   0.477   7.055
 9195POPC   C4A47178   0.436   0.485   7.355
 9195POPC   C1B47179   0.681   0.475   6.455
 9195POPC   C2B47180   0.698   0.521   6.755
 9195POPC   C3B47181   0.650   0.446   7.055
 9195POPC   C4B47182   0.637   0.442   7.355
 9196POPC   NC347183  22.897   8.942   5.555
 9196POPC   PO447184  22.899   8.969   5.855
 9196POPC   GL147185  22.936   8.923   6.155
 9196POPC   GL247186  22.844   8.927   6.155
 9196POPC   C1A47187  22.915   8.988   6.455
 9196POPC   D2A47188  22.979   8.973   6.755
 9196POPC   C3A47189  22.937   8.928   7.055
 9196POPC   C4A47190  22.972   8.949   7.355
 9196POPC   C1B47191  22.685   8.844   6.455
 9196POPC   C2B47192  22.696   8.863   6.755
 9196POPC   C3B47193  22.696   8.892   7.055
 9196POPC   C4B47194  22.737   8.898   7.355
 9197POPC   NC347195   2.000   4.356   5.555
 9197POPC   PO447196   1.948   4.355   5.855
 9197POPC   GL147197   1.965   4.365   6.155
 9197POPC   GL247198   2.049   4.422   6.155
 9197POPC   C1A47199   1.958   4.300   6.455
 9197POPC   D2A47200   1.942   4.273   6.755
 9197POPC   C3A47201   1.953   4.284   7.055
 9197POPC   C4A47202   1.957   4.274   7.355
 9197POPC   C1B47203   2.134   4.484   6.455
 9197POPC   C2B47204   2.149   4.436   6.755
 9197POPC   C3B47205   2.195   4.499   7.055
 9197POPC   C4B47206   2.229   4.428   7.355
 9198POPC   NC347207  31.428  36.119   5.555
 9198POPC   PO447208  31.440  36.168   5.855
 9198POPC   GL147209  31.428  36.097   6.155
 9198POPC   GL247210  31.645  36.172   6.155
 9198POPC   C1A47211  31.479  36.132   6.455
 9198POPC   D2A47212  31.439  36.147   6.755
 9198POPC   C3A47213  31.513  36.139   7.055
 9198POPC   C4A47214  31.511  36.130   7.355
 9198POPC   C1B47215  31.760  36.200   6.455
 9198POPC   C2B47216  31.671  36.173   6.755
 9198POPC   C3B47217  31.765  36.193   7.055
 9198POPC   C4B47218  31.749  36.163   7.355
 9199POPC   NC347219  21.374  22.155   5.555
 9199POPC   PO447220  21.423  22.187   5.855
 9199POPC   GL147221  21.395  22.191   6.155
 9199POPC   GL247222  21.468  22.285   6.155
 9199POPC   C1A47223  21.366  22.141   6.455
 9199POPC   D2A47224  21.359  22.155   6.755
 9199POPC   C3A47225  21.359  22.204   7.055
 9199POPC   C4A47226  21.423  22.140   7.355
 9199POPC   C1B47227  21.597  22.334   6.455
 9199POPC   C2B47228  21.571  22.305   6.755
 9199POPC   C3B47229  21.536  22.361   7.055
 9199POPC   C4B47230  21.536  22.343   7.355
 9200POPC   NC347231  18.258   1.257   5.555
 9200POPC   PO447232  18.285   1.181   5.855
 9200POPC   GL147233  18.326   1.249   6.155
 9200POPC   GL247234  18.209   1.247   6.155
 9200POPC   C1A47235  18.300   1.198   6.455
 9200POPC   D2A47236  18.240   1.225   6.755
 9200POPC   C3A47237  18.246   1.238   7.055
 9200POPC   C4A47238  18.274   1.168   7.355
 9200POPC   C1B47239  18.028   1.315   6.455
 9200POPC   C2B47240  18.051   1.276   6.755
 9200POPC   C3B47241  18.048   1.302   7.055
 9200POPC   C4B47242  18.027   1.320   7.355
 9201POPC   NC347243  38.468  38.424   5.555
 9201POPC   PO447244  38.435  38.471   5.855
 9201POPC   GL147245  38.409  38.439   6.155
 9201POPC   GL247246  38.557  38.367   6.155
 9201POPC   C1A47247  38.444  38.480   6.455
 9201POPC   D2A47248  38.464  38.456   6.755
 9201POPC   C3A47249  38.490  38.433   7.055
 9201POPC   C4A47250  38.417  38.470   7.355
 9201POPC   C1B47251  38.527  38.233   6.455
 9201POPC   C2B47252  38.523  38.244   6.755
 9201POPC   C3B47253  38.539  38.233   7.055
 9201POPC   C4B47254  38.600  38.212   7.355
 9202POPC   NC347255  22.912  36.129   5.555
 9202POPC   PO447256  22.962  36.078   5.855
 9202POPC   GL147257  22.970  36.115   6.155
 9202POPC   GL247258  23.002  36.272   6.155
 9202POPC   C1A47259  22.907  36.094   6.455
 9202POPC   D2A47260  22.947  36.103   6.755
 9202POPC   C3A47261  22.970  36.159   7.055
 9202POPC   C4A47262  22.906  36.087   7.355
 9202POPC   C1B47263  23.051  36.393   6.455
 9202POPC   C2B47264  23.038  36.388   6.755
 9202POPC   C3B47265  23.061  36.416   7.055
 9202POPC   C4B47266  22.992  36.341   7.355
 9203POPC   NC347267  11.315  12.057   5.555
 9203POPC   PO447268  11.303  12.048   5.855
 9203POPC   GL147269  11.344  12.092   6.155
 9203POPC   GL247270  11.343  11.949   6.155
 9203POPC   C1A47271  11.312  12.034   6.455
 9203POPC   D2A47272  11.278  12.079   6.755
 9203POPC   C3A47273  11.263  12.090   7.055
 9203POPC   C4A47274  11.275  12.100   7.355
 9203POPC   C1B47275  11.392  11.825   6.455
 9203POPC   C2B47276  11.390  11.820   6.755
 9203POPC   C3B47277  11.448  11.904   7.055
 9203POPC   C4B47278  11.447  11.823   7.355
 9204POPC   NC347279  36.085  42.338   5.555
 9204POPC   PO447280  36.085  42.326   5.855
 9204POPC   GL147281  36.087  42.305   6.155
 9204POPC   GL247282  36.096  42.246   6.155
 9204POPC   C1A47283  36.141  42.298   6.455
 9204POPC   D2A47284  36.132  42.327   6.755
 9204POPC   C3A47285  36.100  42.380   7.055
 9204POPC   C4A47286  36.081  42.372   7.355
 9204POPC   C1B47287  36.022  42.079   6.455
 9204POPC   C2B47288  35.994  42.118   6.755
 9204POPC   C3B47289  36.065  42.055   7.055
 9204POPC   C4B47290  35.991  42.066   7.355
 9205POPC   NC347291   1.943   6.667   5.555
 9205POPC   PO447292   1.960   6.670   5.855
 9205POPC   GL147293   2.001   6.608   6.155
 9205POPC   GL247294   1.902   6.608   6.155
 9205POPC   C1A47295   1.953   6.657   6.455
 9205POPC   D2A47296   2.018   6.657   6.755
 9205POPC   C3A47297   2.026   6.649   7.055
 9205POPC   C4A47298   2.037   6.690   7.355
 9205POPC   C1B47299   1.736   6.654   6.455
 9205POPC   C2B47300   1.781   6.681   6.755
 9205POPC   C3B47301   1.713   6.673   7.055
 9205POPC   C4B47302   1.726   6.688   7.355
 9206POPC   NC347303   2.034  15.204   5.555
 9206POPC   PO447304   1.979  15.189   5.855
 9206POPC   GL147305   2.009  15.216   6.155
 9206POPC   GL247306   1.982  15.049   6.155
 9206POPC   C1A47307   1.973  15.207   6.455
 9206POPC   D2A47308   1.996  15.140   6.755
 9206POPC   C3A47309   1.986  15.201   7.055
 9206POPC   C4A47310   2.031  15.183   7.355
 9206POPC   C1B47311   1.901  14.997   6.455
 9206POPC   C2B47312   1.905  14.990   6.755
 9206POPC   C3B47313   1.875  14.987   7.055
 9206POPC   C4B47314   1.943  14.912   7.355
 9207POPC   NC347315   5.115  23.665   5.555
 9207POPC   PO447316   5.047  23.698   5.855
 9207POPC   GL147317   5.075  23.732   6.155
 9207POPC   GL247318   5.074  23.839   6.155
 9207POPC   C1A47319   5.052  23.728   6.455
 9207POPC   D2A47320   5.065  23.750   6.755
 9207POPC   C3A47321   5.112  23.716   7.055
 9207POPC   C4A47322   5.087  23.749   7.355
 9207POPC   C1B47323   4.973  23.964   6.455
 9207POPC   C2B47324   4.948  23.930   6.755
 9207POPC   C3B47325   5.003  23.927   7.055
 9207POPC   C4B47326   4.920  23.883   7.355
 9208POPC   NC347327  32.213  15.150   5.555
 9208POPC   PO447328  32.278  15.217   5.855
 9208POPC   GL147329  32.257  15.154   6.155
 9208POPC   GL247330  32.365  15.187   6.155
 9208POPC   C1A47331  32.201  15.156   6.455
 9208POPC   D2A47332  32.265  15.184   6.755
 9208POPC   C3A47333  32.224  15.212   7.055
 9208POPC   C4A47334  32.292  15.217   7.355
 9208POPC   C1B47335  32.474  15.093   6.455
 9208POPC   C2B47336  32.498  15.098   6.755
 9208POPC   C3B47337  32.492  15.105   7.055
 9208POPC   C4B47338  32.534  15.097   7.355
 9209POPC   NC347339  13.674  44.699   5.555
 9209POPC   PO447340  13.604  44.614   5.855
 9209POPC   GL147341  13.582  44.642   6.155
 9209POPC   GL247342  13.453  44.682   6.155
 9209POPC   C1A47343  13.592  44.692   6.455
 9209POPC   D2A47344  13.665  44.678   6.755
 9209POPC   C3A47345  13.673  44.636   7.055
 9209POPC   C4A47346  13.657  44.700   7.355
 9209POPC   C1B47347  13.424  44.667   6.455
 9209POPC   C2B47348  13.384  44.632   6.755
 9209POPC   C3B47349  13.342  44.639   7.055
 9209POPC   C4B47350  13.402  44.659   7.355
 9210POPC   NC347351   1.165  22.127   5.555
 9210POPC   PO447352   1.243  22.129   5.855
 9210POPC   GL147353   1.167  22.157   6.155
 9210POPC   GL247354   1.091  22.144   6.155
 9210POPC   C1A47355   1.202  22.112   6.455
 9210POPC   D2A47356   1.236  22.198   6.755
 9210POPC   C3A47357   1.251  22.155   7.055
 9210POPC   C4A47358   1.262  22.147   7.355
 9210POPC   C1B47359   1.008  22.177   6.455
 9210POPC   C2B47360   0.955  22.140   6.755
 9210POPC   C3B47361   1.003  22.193   7.055
 9210POPC   C4B47362   0.937  22.139   7.355
 9211POPC   NC347363   9.787  43.157   5.555
 9211POPC   PO447364   9.709  43.142   5.855
 9211POPC   GL147365   9.742  43.096   6.155
 9211POPC   GL247366   9.646  43.124   6.155
 9211POPC   C1A47367   9.752  43.132   6.455
 9211POPC   D2A47368   9.704  43.125   6.755
 9211POPC   C3A47369   9.719  43.129   7.055
 9211POPC   C4A47370   9.716  43.083   7.355
 9211POPC   C1B47371   9.494  43.120   6.455
 9211POPC   C2B47372   9.538  43.054   6.755
 9211POPC   C3B47373   9.455  43.107   7.055
 9211POPC   C4B47374   9.522  43.061   7.355
 9212POPC   NC347375  28.343  36.937   5.555
 9212POPC   PO447376  28.380  36.917   5.855
 9212POPC   GL147377  28.403  36.925   6.155
 9212POPC   GL247378  28.467  36.767   6.155
 9212POPC   C1A47379  28.378  36.886   6.455
 9212POPC   D2A47380  28.330  36.918   6.755
 9212POPC   C3A47381  28.341  36.934   7.055
 9212POPC   C4A47382  28.380  36.894   7.355
 9212POPC   C1B47383  28.518  36.695   6.455
 9212POPC   C2B47384  28.520  36.763   6.755
 9212POPC   C3B47385  28.523  36.687   7.055
 9212POPC   C4B47386  28.574  36.766   7.355
 9213POPC   NC347387   0.445  27.610   5.555
 9213POPC   PO447388   0.474  27.592   5.855
 9213POPC   GL147389   0.479  27.580   6.155
 9213POPC   GL247390   0.307  27.641   6.155
 9213POPC   C1A47391   0.487  27.560   6.455
 9213POPC   D2A47392   0.466  27.552   6.755
 9213POPC   C3A47393   0.442  27.585   7.055
 9213POPC   C4A47394   0.440  27.635   7.355
 9213POPC   C1B47395   0.153  27.597   6.455
 9213POPC   C2B47396   0.231  27.616   6.755
 9213POPC   C3B47397   0.206  27.621   7.055
 9213POPC   C4B47398   0.219  27.636   7.355
 9214POPC   NC347399  32.253  22.136   5.555
 9214POPC   PO447400  32.212  22.209   5.855
 9214POPC   GL147401  32.230  22.172   6.155
 9214POPC   GL247402  32.134  22.184   6.155
 9214POPC   C1A47403  32.288  22.129   6.455
 9214POPC   D2A47404  32.253  22.150   6.755
 9214POPC   C3A47405  32.261  22.151   7.055
 9214POPC   C4A47406  32.249  22.159   7.355
 9214POPC   C1B47407  32.077  22.305   6.455
 9214POPC   C2B47408  32.000  22.298   6.755
 9214POPC   C3B47409  32.028  22.352   7.055
 9214POPC   C4B47410  32.002  22.266   7.355
 9215POPC   NC347411   4.366  30.696   5.555
 9215POPC   PO447412   4.279  30.704   5.855
 9215POPC   GL147413   4.284  30.679   6.155
 9215POPC   GL247414   4.402  30.626   6.155
 9215POPC   C1A47415   4.362  30.691   6.455
 9215POPC   D2A47416   4.285  30.652   6.755
 9215POPC   C3A47417   4.326  30.697   7.055
 9215POPC   C4A47418   4.285  30.692   7.355
 9215POPC   C1B47419   4.525  30.557   6.455
 9215POPC   C2B47420   4.570  30.631   6.755
 9215POPC   C3B47421   4.552  30.592   7.055
 9215POPC   C4B47422   4.521  30.561   7.355
 9216POPC   NC347423  36.925  42.315   5.555
 9216POPC   PO447424  36.855  42.299   5.855
 9216POPC   GL147425  36.867  42.376   6.155
 9216POPC   GL247426  36.982  42.420   6.155
 9216POPC   C1A47427  36.951  42.363   6.455
 9216POPC   D2A47428  36.871  42.350   6.755
 9216POPC   C3A47429  36.928  42.365   7.055
 9216POPC   C4A47430  36.865  42.358   7.355
 9216POPC   C1B47431  37.086  42.499   6.455
 9216POPC   C2B47432  37.149  42.482   6.755
 9216POPC   C3B47433  37.129  42.489   7.055
 9216POPC   C4B47434  37.145  42.449   7.355
 9217POPC   NC347435  39.242  36.176   5.555
 9217POPC   PO447436  39.233  36.088   5.855
 9217POPC   GL147437  39.199  36.118   6.155
 9217POPC   GL247438  39.362  36.122   6.155
 9217POPC   C1A47439  39.204  36.169   6.455
 9217POPC   D2A47440  39.256  36.163   6.755
 9217POPC   C3A47441  39.218  36.099   7.055
 9217POPC   C4A47442  39.200  36.169   7.355
 9217POPC   C1B47443  39.438  36.212   6.455
 9217POPC   C2B47444  39.521  36.159   6.755
 9217POPC   C3B47445  39.454  36.157   7.055
 9217POPC   C4B47446  39.501  36.221   7.355
 9218POPC   NC347447   2.784  43.915   5.555
 9218POPC   PO447448   2.745  43.888   5.855
 9218POPC   GL147449   2.742  43.936   6.155
 9218POPC   GL247450   2.701  43.932   6.155
 9218POPC   C1A47451   2.717  43.926   6.455
 9218POPC   D2A47452   2.754  43.929   6.755
 9218POPC   C3A47453   2.766  43.844   7.055
 9218POPC   C4A47454   2.794  43.852   7.355
 9218POPC   C1B47455   2.527  43.959   6.455
 9218POPC   C2B47456   2.524  43.959   6.755
 9218POPC   C3B47457   2.551  43.995   7.055
 9218POPC   C4B47458   2.583  43.962   7.355
 9219POPC   NC347459   1.940  36.094   5.555
 9219POPC   PO447460   1.951  36.170   5.855
 9219POPC   GL147461   1.998  36.102   6.155
 9219POPC   GL247462   2.091  36.049   6.155
 9219POPC   C1A47463   2.012  36.106   6.455
 9219POPC   D2A47464   1.993  36.081   6.755
 9219POPC   C3A47465   1.984  36.155   7.055
 9219POPC   C4A47466   1.991  36.087   7.355
 9219POPC   C1B47467   2.177  35.936   6.455
 9219POPC   C2B47468   2.089  35.891   6.755
 9219POPC   C3B47469   2.140  35.941   7.055
 9219POPC   C4B47470   2.174  35.876   7.355
 9220POPC   NC347471   6.607  36.142   5.555
 9220POPC   PO447472   6.689  36.152   5.855
 9220POPC   GL147473   6.603  36.135   6.155
 9220POPC   GL247474   6.761  36.254   6.155
 9220POPC   C1A47475   6.641  36.083   6.455
 9220POPC   D2A47476   6.640  36.155   6.755
 9220POPC   C3A47477   6.645  36.164   7.055
 9220POPC   C4A47478   6.610  36.116   7.355
 9220POPC   C1B47479   6.769  36.340   6.455
 9220POPC   C2B47480   6.811  36.287   6.755
 9220POPC   C3B47481   6.758  36.358   7.055
 9220POPC   C4B47482   6.790  36.307   7.355
 9221POPC   NC347483  19.049   1.186   5.555
 9221POPC   PO447484  19.039   1.232   5.855
 9221POPC   GL147485  19.097   1.188   6.155
 9221POPC   GL247486  18.930   1.354   6.155
 9221POPC   C1A47487  19.031   1.168   6.455
 9221POPC   D2A47488  19.021   1.238   6.755
 9221POPC   C3A47489  19.017   1.243   7.055
 9221POPC   C4A47490  19.091   1.214   7.355
 9221POPC   C1B47491  18.906   1.378   6.455
 9221POPC   C2B47492  18.925   1.384   6.755
 9221POPC   C3B47493  18.907   1.424   7.055
 9221POPC   C4B47494  18.874   1.362   7.355
 9222POPC   NC347495   2.029  44.634   5.555
 9222POPC   PO447496   1.963  44.711   5.855
 9222POPC   GL147497   2.025  44.622   6.155
 9222POPC   GL247498   2.124  44.637   6.155
 9222POPC   C1A47499   1.997  44.640   6.455
 9222POPC   D2A47500   2.024  44.683   6.755
 9222POPC   C3A47501   2.011  44.622   7.055
 9222POPC   C4A47502   1.944  44.656   7.355
 9222POPC   C1B47503   2.152  44.465   6.455
 9222POPC   C2B47504   2.240  44.544   6.755
 9222POPC   C3B47505   2.190  44.483   7.055
 9222POPC   C4B47506   2.143  44.494   7.355
 9223POPC   NC347507  32.985  44.698   5.555
 9223POPC   PO447508  33.065  44.620   5.855
 9223POPC   GL147509  33.061  44.637   6.155
 9223POPC   GL247510  33.170  44.647   6.155
 9223POPC   C1A47511  33.007  44.685   6.455
 9223POPC   D2A47512  32.992  44.651   6.755
 9223POPC   C3A47513  32.989  44.665   7.055
 9223POPC   C4A47514  33.054  44.687   7.355
 9223POPC   C1B47515  33.286  44.615   6.455
 9223POPC   C2B47516  33.255  44.668   6.755
 9223POPC   C3B47517  33.242  44.583   7.055
 9223POPC   C4B47518  33.245  44.623   7.355
 9224POPC   NC347519  20.570   8.961   5.555
 9224POPC   PO447520  20.648   8.978   5.855
 9224POPC   GL147521  20.615   8.938   6.155
 9224POPC   GL247522  20.510   8.947   6.155
 9224POPC   C1A47523  20.583   8.962   6.455
 9224POPC   D2A47524  20.644   8.953   6.755
 9224POPC   C3A47525  20.591   8.960   7.055
 9224POPC   C4A47526  20.638   9.015   7.355
 9224POPC   C1B47527  20.360   9.010   6.455
 9224POPC   C2B47528  20.333   9.012   6.755
 9224POPC   C3B47529  20.358   8.956   7.055
 9224POPC   C4B47530  20.400   9.032   7.355
 9225POPC   NC347531   5.116  36.866   5.555
 9225POPC   PO447532   5.141  36.887   5.855
 9225POPC   GL147533   5.076  36.950   6.155
 9225POPC   GL247534   5.015  36.853   6.155
 9225POPC   C1A47535   5.082  36.900   6.455
 9225POPC   D2A47536   5.117  36.916   6.755
 9225POPC   C3A47537   5.074  36.952   7.055
 9225POPC   C4A47538   5.046  36.858   7.355
 9225POPC   C1B47539   4.949  36.762   6.455
 9225POPC   C2B47540   4.943  36.768   6.755
 9225POPC   C3B47541   4.883  36.689   7.055
 9225POPC   C4B47542   4.914  36.709   7.355
 9226POPC   NC347543   5.130  15.202   5.555
 9226POPC   PO447544   5.127  15.139   5.855
 9226POPC   GL147545   5.099  15.154   6.155
 9226POPC   GL247546   5.144  15.342   6.155
 9226POPC   C1A47547   5.044  15.202   6.455
 9226POPC   D2A47548   5.048  15.171   6.755
 9226POPC   C3A47549   5.126  15.167   7.055
 9226POPC   C4A47550   5.094  15.151   7.355
 9226POPC   C1B47551   5.222  15.374   6.455
 9226POPC   C2B47552   5.142  15.376   6.755
 9226POPC   C3B47553   5.154  15.381   7.055
 9226POPC   C4B47554   5.225  15.388   7.355
 9227POPC   NC347555  29.916   9.742   5.555
 9227POPC   PO447556  29.888   9.759   5.855
 9227POPC   GL147557  29.940   9.790   6.155
 9227POPC   GL247558  29.997   9.620   6.155
 9227POPC   C1A47559  29.955   9.707   6.455
 9227POPC   D2A47560  29.937   9.747   6.755
 9227POPC   C3A47561  29.946   9.731   7.055
 9227POPC   C4A47562  29.959   9.722   7.355
 9227POPC   C1B47563  29.941   9.543   6.455
 9227POPC   C2B47564  29.960   9.497   6.755
 9227POPC   C3B47565  29.975   9.504   7.055
 9227POPC   C4B47566  29.974   9.532   7.355
 9228POPC   NC347567   8.976  44.665   5.555
 9228POPC   PO447568   8.977  44.710   5.855
 9228POPC   GL147569   8.958  44.693   6.155
 9228POPC   GL247570   9.016  44.572   6.155
 9228POPC   C1A47571   8.957  44.674   6.455
 9228POPC   D2A47572   8.922  44.685   6.755
 9228POPC   C3A47573   9.011  44.618   7.055
 9228POPC   C4A47574   9.002  44.712   7.355
 9228POPC   C1B47575   9.130  44.467   6.455
 9228POPC   C2B47576   9.121  44.464   6.755
 9228POPC   C3B47577   9.090  44.474   7.055
 9228POPC   C4B47578   9.101  44.429   7.355
 9229POPC   NC347579  28.376  15.913   5.555
 9229POPC   PO447580  28.371  15.954   5.855
 9229POPC   GL147581  28.333  15.946   6.155
 9229POPC   GL247582  28.398  16.046   6.155
 9229POPC   C1A47583  28.391  15.948   6.455
 9229POPC   D2A47584  28.410  15.928   6.755
 9229POPC   C3A47585  28.325  15.921   7.055
 9229POPC   C4A47586  28.326  15.969   7.355
 9229POPC   C1B47587  28.380  16.247   6.455
 9229POPC   C2B47588  28.369  16.195   6.755
 9229POPC   C3B47589  28.367  16.156   7.055
 9229POPC   C4B47590  28.391  16.208   7.355
 9230POPC   NC347591  24.492  12.886   5.555
 9230POPC   PO447592  24.515  12.872   5.855
 9230POPC   GL147593  24.526  12.841   6.155
 9230POPC   GL247594  24.484  12.721   6.155
 9230POPC   C1A47595  24.524  12.818   6.455
 9230POPC   D2A47596  24.482  12.808   6.755
 9230POPC   C3A47597  24.511  12.822   7.055
 9230POPC   C4A47598  24.522  12.829   7.355
 9230POPC   C1B47599  24.408  12.565   6.455
 9230POPC   C2B47600  24.466  12.574   6.755
 9230POPC   C3B47601  24.408  12.589   7.055
 9230POPC   C4B47602  24.462  12.606   7.355
 9231POPC   NC347603  43.138  11.281   5.555
 9231POPC   PO447604  43.085  11.293   5.855
 9231POPC   GL147605  43.122  11.300   6.155
 9231POPC   GL247606  43.106  11.378   6.155
 9231POPC   C1A47607  43.143  11.341   6.455
 9231POPC   D2A47608  43.105  11.313   6.755
 9231POPC   C3A47609  43.132  11.345   7.055
 9231POPC   C4A47610  43.075  11.350   7.355
 9231POPC   C1B47611  42.981  11.533   6.455
 9231POPC   C2B47612  43.042  11.555   6.755
 9231POPC   C3B47613  43.053  11.566   7.055
 9231POPC   C4B47614  42.970  11.559   7.355
 9232POPC   NC347615  27.619   8.197   5.555
 9232POPC   PO447616  27.584   8.210   5.855
 9232POPC   GL147617  27.571   8.207   6.155
 9232POPC   GL247618  27.666   8.268   6.155
 9232POPC   C1A47619  27.569   8.213   6.455
 9232POPC   D2A47620  27.595   8.223   6.755
 9232POPC   C3A47621  27.603   8.242   7.055
 9232POPC   C4A47622  27.570   8.152   7.355
 9232POPC   C1B47623  27.773   8.374   6.455
 9232POPC   C2B47624  27.717   8.413   6.755
 9232POPC   C3B47625  27.757   8.373   7.055
 9232POPC   C4B47626  27.742   8.365   7.355
 9233POPC   NC347627  43.852  41.593   5.555
 9233POPC   PO447628  43.853  41.535   5.855
 9233POPC   GL147629  43.836  41.559   6.155
 9233POPC   GL247630  43.754  41.479   6.155
 9233POPC   C1A47631  43.921  41.518   6.455
 9233POPC   D2A47632  43.917  41.550   6.755
 9233POPC   C3A47633  43.892  41.531   7.055
 9233POPC   C4A47634  43.905  41.576   7.355
 9233POPC   C1B47635  43.704  41.357   6.455
 9233POPC   C2B47636  43.720  41.409   6.755
 9233POPC   C3B47637  43.735  41.434   7.055
 9233POPC   C4B47638  43.717  41.383   7.355
 9234POPC   NC347639   6.638  33.046   5.555
 9234POPC   PO447640   6.664  32.995   5.855
 9234POPC   GL147641   6.692  32.998   6.155
 9234POPC   GL247642   6.701  32.912   6.155
 9234POPC   C1A47643   6.657  33.047   6.455
 9234POPC   D2A47644   6.632  33.046   6.755
 9234POPC   C3A47645   6.653  33.070   7.055
 9234POPC   C4A47646   6.665  33.048   7.355
 9234POPC   C1B47647   6.820  32.886   6.455
 9234POPC   C2B47648   6.864  32.845   6.755
 9234POPC   C3B47649   6.821  32.892   7.055
 9234POPC   C4B47650   6.855  32.875   7.355
 9235POPC   NC347651  41.564  41.581   5.555
 9235POPC   PO447652  41.570  41.559   5.855
 9235POPC   GL147653  41.553  41.529   6.155
 9235POPC   GL247654  41.410  41.540   6.155
 9235POPC   C1A47655  41.569  41.590   6.455
 9235POPC   D2A47656  41.557  41.517   6.755
 9235POPC   C3A47657  41.544  41.599   7.055
 9235POPC   C4A47658  41.568  41.539   7.355
 9235POPC   C1B47659  41.276  41.566   6.455
 9235POPC   C2B47660  41.321  41.636   6.755
 9235POPC   C3B47661  41.289  41.601   7.055
 9235POPC   C4B47662  41.341  41.584   7.355
 9236POPC   NC347663  41.541   8.171   5.555
 9236POPC   PO447664  41.531   8.155   5.855
 9236POPC   GL147665  41.540   8.147   6.155
 9236POPC   GL247666  41.633   8.103   6.155
 9236POPC   C1A47667  41.535   8.171   6.455
 9236POPC   D2A47668  41.597   8.231   6.755
 9236POPC   C3A47669  41.554   8.167   7.055
 9236POPC   C4A47670  41.565   8.173   7.355
 9236POPC   C1B47671  41.662   7.939   6.455
 9236POPC   C2B47672  41.570   7.908   6.755
 9236POPC   C3B47673  41.571   7.944   7.055
 9236POPC   C4B47674  41.620   7.955   7.355
 9237POPC   NC347675  33.758  18.294   5.555
 9237POPC   PO447676  33.784  18.305   5.855
 9237POPC   GL147677  33.787  18.239   6.155
 9237POPC   GL247678  33.883  18.258   6.155
 9237POPC   C1A47679  33.761  18.262   6.455
 9237POPC   D2A47680  33.823  18.333   6.755
 9237POPC   C3A47681  33.830  18.259   7.055
 9237POPC   C4A47682  33.819  18.272   7.355
 9237POPC   C1B47683  34.082  18.291   6.455
 9237POPC   C2B47684  34.036  18.258   6.755
 9237POPC   C3B47685  34.027  18.330   7.055
 9237POPC   C4B47686  34.051  18.279   7.355
 9238POPC   NC347687  27.564  10.536   5.555
 9238POPC   PO447688  27.565  10.534   5.855
 9238POPC   GL147689  27.617  10.498   6.155
 9238POPC   GL247690  27.563  10.642   6.155
 9238POPC   C1A47691  27.547  10.508   6.455
 9238POPC   D2A47692  27.562  10.535   6.755
 9238POPC   C3A47693  27.571  10.480   7.055
 9238POPC   C4A47694  27.572  10.488   7.355
 9238POPC   C1B47695  27.394  10.707   6.455
 9238POPC   C2B47696  27.457  10.720   6.755
 9238POPC   C3B47697  27.440  10.734   7.055
 9238POPC   C4B47698  27.424  10.758   7.355
 9239POPC   NC347699  37.630  17.547   5.555
 9239POPC   PO447700  37.686  17.545   5.855
 9239POPC   GL147701  37.721  17.479   6.155
 9239POPC   GL247702  37.550  17.483   6.155
 9239POPC   C1A47703  37.704  17.554   6.455
 9239POPC   D2A47704  37.711  17.490   6.755
 9239POPC   C3A47705  37.719  17.514   7.055
 9239POPC   C4A47706  37.700  17.553   7.355
 9239POPC   C1B47707  37.452  17.453   6.455
 9239POPC   C2B47708  37.465  17.387   6.755
 9239POPC   C3B47709  37.428  17.420   7.055
 9239POPC   C4B47710  37.442  17.439   7.355
 9240POPC   NC347711  18.251  42.348   5.555
 9240POPC   PO447712  18.314  42.356   5.855
 9240POPC   GL147713  18.311  42.384   6.155
 9240POPC   GL247714  18.373  42.384   6.155
 9240POPC   C1A47715  18.322  42.330   6.455
 9240POPC   D2A47716  18.284  42.304   6.755
 9240POPC   C3A47717  18.304  42.374   7.055
 9240POPC   C4A47718  18.302  42.353   7.355
 9240POPC   C1B47719  18.557  42.381   6.455
 9240POPC   C2B47720  18.548  42.335   6.755
 9240POPC   C3B47721  18.539  42.375   7.055
 9240POPC   C4B47722  18.522  42.387   7.355
 9241POPC   NC347723   3.542   3.553   5.555
 9241POPC   PO447724   3.509   3.493   5.855
 9241POPC   GL147725   3.529   3.552   6.155
 9241POPC   GL247726   3.689   3.658   6.155
 9241POPC   C1A47727   3.590   3.501   6.455
 9241POPC   D2A47728   3.553   3.567   6.755
 9241POPC   C3A47729   3.543   3.519   7.055
 9241POPC   C4A47730   3.573   3.542   7.355
 9241POPC   C1B47731   3.760   3.664   6.455
 9241POPC   C2B47732   3.739   3.690   6.755
 9241POPC   C3B47733   3.745   3.732   7.055
 9241POPC   C4B47734   3.758   3.663   7.355
 9242POPC   NC347735   1.246  10.487   5.555
 9242POPC   PO447736   1.219  10.499   5.855
 9242POPC   GL147737   1.227  10.555   6.155
 9242POPC   GL247738   1.099  10.432   6.155
 9242POPC   C1A47739   1.188  10.503   6.455
 9242POPC   D2A47740   1.230  10.478   6.755
 9242POPC   C3A47741   1.229  10.499   7.055
 9242POPC   C4A47742   1.176  10.502   7.355
 9242POPC   C1B47743   1.051  10.413   6.455
 9242POPC   C2B47744   0.984  10.409   6.755
 9242POPC   C3B47745   0.996  10.346   7.055
 9242POPC   C4B47746   1.042  10.333   7.355
 9243POPC   NC347747  10.546  30.651   5.555
 9243POPC   PO447748  10.505  30.679   5.855
 9243POPC   GL147749  10.566  30.724   6.155
 9243POPC   GL247750  10.388  30.791   6.155
 9243POPC   C1A47751  10.526  30.684   6.455
 9243POPC   D2A47752  10.563  30.673   6.755
 9243POPC   C3A47753  10.560  30.685   7.055
 9243POPC   C4A47754  10.495  30.685   7.355
 9243POPC   C1B47755  10.381  30.866   6.455
 9243POPC   C2B47756  10.356  30.898   6.755
 9243POPC   C3B47757  10.329  30.912   7.055
 9243POPC   C4B47758  10.313  30.822   7.355
 9244POPC   NC347759  38.496  19.785   5.555
 9244POPC   PO447760  38.490  19.825   5.855
 9244POPC   GL147761  38.452  19.798   6.155
 9244POPC   GL247762  38.555  19.918   6.155
 9244POPC   C1A47763  38.446  19.848   6.455
 9244POPC   D2A47764  38.482  19.859   6.755
 9244POPC   C3A47765  38.429  19.834   7.055
 9244POPC   C4A47766  38.494  19.824   7.355
 9244POPC   C1B47767  38.680  19.970   6.455
 9244POPC   C2B47768  38.619  19.976   6.755
 9244POPC   C3B47769  38.684  19.955   7.055
 9244POPC   C4B47770  38.656  20.009   7.355
 9245POPC   NC347771  13.671  28.360   5.555
 9245POPC   PO447772  13.656  28.375   5.855
 9245POPC   GL147773  13.587  28.333   6.155
 9245POPC   GL247774  13.686  28.469   6.155
 9245POPC   C1A47775  13.640  28.391   6.455
 9245POPC   D2A47776  13.643  28.345   6.755
 9245POPC   C3A47777  13.591  28.360   7.055
 9245POPC   C4A47778  13.604  28.405   7.355
 9245POPC   C1B47779  13.762  28.523   6.455
 9245POPC   C2B47780  13.833  28.522   6.755
 9245POPC   C3B47781  13.838  28.554   7.055
 9245POPC   C4B47782  13.806  28.527   7.355
 9246POPC   NC347783  29.107  43.867   5.555
 9246POPC   PO447784  29.121  43.910   5.855
 9246POPC   GL147785  29.143  43.881   6.155
 9246POPC   GL247786  29.236  43.770   6.155
 9246POPC   C1A47787  29.101  43.912   6.455
 9246POPC   D2A47788  29.157  43.912   6.755
 9246POPC   C3A47789  29.169  43.851   7.055
 9246POPC   C4A47790  29.182  43.866   7.355
 9246POPC   C1B47791  29.294  43.671   6.455
 9246POPC   C2B47792  29.327  43.708   6.755
 9246POPC   C3B47793  29.375  43.712   7.055
 9246POPC   C4B47794  29.362  43.764   7.355
 9247POPC   NC347795  20.568  25.258   5.555
 9247POPC   PO447796  20.591  25.303   5.855
 9247POPC   GL147797  20.618  25.313   6.155
 9247POPC   GL247798  20.634  25.331   6.155
 9247POPC   C1A47799  20.605  25.280   6.455
 9247POPC   D2A47800  20.652  25.299   6.755
 9247POPC   C3A47801  20.587  25.268   7.055
 9247POPC   C4A47802  20.620  25.263   7.355
 9247POPC   C1B47803  20.775  25.504   6.455
 9247POPC   C2B47804  20.752  25.524   6.755
 9247POPC   C3B47805  20.761  25.440   7.055
 9247POPC   C4B47806  20.781  25.478   7.355
 9248POPC   NC347807  12.884  36.097   5.555
 9248POPC   PO447808  12.831  36.090   5.855
 9248POPC   GL147809  12.856  36.134   6.155
 9248POPC   GL247810  12.722  36.157   6.155
 9248POPC   C1A47811  12.818  36.133   6.455
 9248POPC   D2A47812  12.859  36.160   6.755
 9248POPC   C3A47813  12.898  36.156   7.055
 9248POPC   C4A47814  12.889  36.080   7.355
 9248POPC   C1B47815  12.650  36.184   6.455
 9248POPC   C2B47816  12.616  36.191   6.755
 9248POPC   C3B47817  12.651  36.236   7.055
 9248POPC   C4B47818  12.580  36.257   7.355
 9249POPC   NC347819  33.776  19.084   5.555
 9249POPC   PO447820  33.775  19.050   5.855
 9249POPC   GL147821  33.836  19.043   6.155
 9249POPC   GL247822  33.873  19.136   6.155
 9249POPC   C1A47823  33.768  19.033   6.455
 9249POPC   D2A47824  33.807  19.028   6.755
 9249POPC   C3A47825  33.846  19.037   7.055
 9249POPC   C4A47826  33.751  19.092   7.355
 9249POPC   C1B47827  33.913  19.251   6.455
 9249POPC   C2B47828  33.998  19.211   6.755
 9249POPC   C3B47829  33.929  19.262   7.055
 9249POPC   C4B47830  33.941  19.252   7.355
 9250POPC   NC347831   1.997  19.077   5.555
 9250POPC   PO447832   2.002  19.039   5.855
 9250POPC   GL147833   1.950  19.050   6.155
 9250POPC   GL247834   1.998  18.918   6.155
 9250POPC   C1A47835   2.038  19.032   6.455
 9250POPC   D2A47836   1.999  19.057   6.755
 9250POPC   C3A47837   1.970  19.096   7.055
 9250POPC   C4A47838   1.957  19.081   7.355
 9250POPC   C1B47839   2.039  18.795   6.455
 9250POPC   C2B47840   2.000  18.799   6.755
 9250POPC   C3B47841   2.029  18.770   7.055
 9250POPC   C4B47842   2.004  18.841   7.355
 9251POPC   NC347843  27.593  15.209   5.555
 9251POPC   PO447844  27.624  15.138   5.855
 9251POPC   GL147845  27.641  15.158   6.155
 9251POPC   GL247846  27.657  15.084   6.155
 9251POPC   C1A47847  27.613  15.225   6.455
 9251POPC   D2A47848  27.587  15.197   6.755
 9251POPC   C3A47849  27.571  15.189   7.055
 9251POPC   C4A47850  27.623  15.135   7.355
 9251POPC   C1B47851  27.665  14.935   6.455
 9251POPC   C2B47852  27.615  14.894   6.755
 9251POPC   C3B47853  27.683  14.918   7.055
 9251POPC   C4B47854  27.657  14.973   7.355
 9252POPC   NC347855  36.887  44.706   5.555
 9252POPC   PO447856  36.949  44.638   5.855
 9252POPC   GL147857  36.931  44.661   6.155
 9252POPC   GL247858  37.020  44.701   6.155
 9252POPC   C1A47859  36.928  44.694   6.455
 9252POPC   D2A47860  36.925  44.647   6.755
 9252POPC   C3A47861  36.892  44.691   7.055
 9252POPC   C4A47862  36.877  44.677   7.355
 9252POPC   C1B47863  37.075  44.757   6.455
 9252POPC   C2B47864  37.100  44.778   6.755
 9252POPC   C3B47865  37.084  44.754   7.055
 9252POPC   C4B47866  37.114  44.845   7.355
 9253POPC   NC347867  15.148  10.525   5.555
 9253POPC   PO447868  15.130  10.502   5.855
 9253POPC   GL147869  15.135  10.534   6.155
 9253POPC   GL247870  15.242  10.394   6.155
 9253POPC   C1A47871  15.225  10.541   6.455
 9253POPC   D2A47872  15.154  10.493   6.755
 9253POPC   C3A47873  15.160  10.532   7.055
 9253POPC   C4A47874  15.138  10.571   7.355
 9253POPC   C1B47875  15.395  10.384   6.455
 9253POPC   C2B47876  15.365  10.346   6.755
 9253POPC   C3B47877  15.330  10.335   7.055
 9253POPC   C4B47878  15.361  10.387   7.355
 9254POPC   NC347879   5.887  41.585   5.555
 9254POPC   PO447880   5.865  41.570   5.855
 9254POPC   GL147881   5.855  41.527   6.155
 9254POPC   GL247882   5.956  41.430   6.155
 9254POPC   C1A47883   5.863  41.564   6.455
 9254POPC   D2A47884   5.828  41.596   6.755
 9254POPC   C3A47885   5.829  41.574   7.055
 9254POPC   C4A47886   5.887  41.606   7.355
 9254POPC   C1B47887   5.940  41.282   6.455
 9254POPC   C2B47888   5.904  41.342   6.755
 9254POPC   C3B47889   5.941  41.286   7.055
 9254POPC   C4B47890   5.933  41.275   7.355
 9255POPC   NC347891  43.851   6.631   5.555
 9255POPC   PO447892  43.894   6.609   5.855
 9255POPC   GL147893  43.927   6.623   6.155
 9255POPC   GL247894  43.857   6.539   6.155
 9255POPC   C1A47895  43.929   6.679   6.455
 9255POPC   D2A47896  43.921   6.665   6.755
 9255POPC   C3A47897  43.848   6.602   7.055
 9255POPC   C4A47898  43.905   6.635   7.355
 9255POPC   C1B47899  43.896   6.428   6.455
 9255POPC   C2B47900  43.868   6.372   6.755
 9255POPC   C3B47901  43.860   6.442   7.055
 9255POPC   C4B47902  43.853   6.397   7.355
 9256POPC   NC347903  40.811  40.755   5.555
 9256POPC   PO447904  40.813  40.759   5.855
 9256POPC   GL147905  40.767  40.766   6.155
 9256POPC   GL247906  40.871  40.719   6.155
 9256POPC   C1A47907  40.829  40.735   6.455
 9256POPC   D2A47908  40.789  40.823   6.755
 9256POPC   C3A47909  40.779  40.772   7.055
 9256POPC   C4A47910  40.735  40.827   7.355
 9256POPC   C1B47911  41.027  40.589   6.455
 9256POPC   C2B47912  40.974  40.591   6.755
 9256POPC   C3B47913  40.944  40.577   7.055
 9256POPC   C4B47914  40.999  40.660   7.355
 9257POPC   NC347915  28.329  43.097   5.555
 9257POPC   PO447916  28.344  43.070   5.855
 9257POPC   GL147917  28.329  43.113   6.155
 9257POPC   GL247918  28.335  43.228   6.155
 9257POPC   C1A47919  28.414  43.151   6.455
 9257POPC   D2A47920  28.400  43.066   6.755
 9257POPC   C3A47921  28.321  43.101   7.055
 9257POPC   C4A47922  28.325  43.152   7.355
 9257POPC   C1B47923  28.196  43.305   6.455
 9257POPC   C2B47924  28.203  43.324   6.755
 9257POPC   C3B47925  28.185  43.310   7.055
 9257POPC   C4B47926  28.189  43.272   7.355
 9258POPC   NC347927  29.114   7.430   5.555
 9258POPC   PO447928  29.153   7.400   5.855
 9258POPC   GL147929  29.137   7.455   6.155
 9258POPC   GL247930  29.041   7.334   6.155
 9258POPC   C1A47931  29.165   7.414   6.455
 9258POPC   D2A47932  29.185   7.438   6.755
 9258POPC   C3A47933  29.149   7.455   7.055
 9258POPC   C4A47934  29.194   7.377   7.355
 9258POPC   C1B47935  28.894   7.284   6.455
 9258POPC   C2B47936  28.928   7.321   6.755
 9258POPC   C3B47937  28.931   7.350   7.055
 9258POPC   C4B47938  28.925   7.338   7.355
 9259POPC   NC347939  16.710  32.236   5.555
 9259POPC   PO447940  16.768  32.222   5.855
 9259POPC   GL147941  16.690  32.260   6.155
 9259POPC   GL247942  16.859  32.214   6.155
 9259POPC   C1A47943  16.778  32.237   6.455
 9259POPC   D2A47944  16.758  32.227   6.755
 9259POPC   C3A47945  16.753  32.246   7.055
 9259POPC   C4A47946  16.691  32.206   7.355
 9259POPC   C1B47947  17.024  32.260   6.455
 9259POPC   C2B47948  17.009  32.269   6.755
 9259POPC   C3B47949  16.947  32.181   7.055
 9259POPC   C4B47950  17.022  32.278   7.355
 9260POPC   NC347951  13.649  13.646   5.555
 9260POPC   PO447952  13.579  13.637   5.855
 9260POPC   GL147953  13.578  13.641   6.155
 9260POPC   GL247954  13.659  13.484   6.155
 9260POPC   C1A47955  13.604  13.603   6.455
 9260POPC   D2A47956  13.618  13.602   6.755
 9260POPC   C3A47957  13.596  13.647   7.055
 9260POPC   C4A47958  13.652  13.618   7.355
 9260POPC   C1B47959  13.594  13.424   6.455
 9260POPC   C2B47960  13.594  13.417   6.755
 9260POPC   C3B47961  13.608  13.417   7.055
 9260POPC   C4B47962  13.563  13.387   7.355
 9261POPC   NC347963   3.520  12.885   5.555
 9261POPC   PO447964   3.568  12.842   5.855
 9261POPC   GL147965   3.581  12.851   6.155
 9261POPC   GL247966   3.404  12.820   6.155
 9261POPC   C1A47967   3.568  12.867   6.455
 9261POPC   D2A47968   3.572  12.838   6.755
 9261POPC   C3A47969   3.510  12.879   7.055
 9261POPC   C4A47970   3.521  12.811   7.355
 9261POPC   C1B47971   3.245  12.879   6.455
 9261POPC   C2B47972   3.300  12.914   6.755
 9261POPC   C3B47973   3.341  12.834   7.055
 9261POPC   C4B47974   3.272  12.865   7.355
 9262POPC   NC347975  38.438  29.899   5.555
 9262POPC   PO447976  38.465  29.909   5.855
 9262POPC   GL147977  38.501  29.942   6.155
 9262POPC   GL247978  38.527  30.038   6.155
 9262POPC   C1A47979  38.433  29.948   6.455
 9262POPC   D2A47980  38.434  29.930   6.755
 9262POPC   C3A47981  38.469  29.963   7.055
 9262POPC   C4A47982  38.498  29.905   7.355
 9262POPC   C1B47983  38.564  30.171   6.455
 9262POPC   C2B47984  38.552  30.170   6.755
 9262POPC   C3B47985  38.520  30.156   7.055
 9262POPC   C4B47986  38.605  30.190   7.355
 9263POPC   NC347987  39.235  11.312   5.555
 9263POPC   PO447988  39.242  11.287   5.855
 9263POPC   GL147989  39.251  11.347   6.155
 9263POPC   GL247990  39.153  11.198   6.155
 9263POPC   C1A47991  39.243  11.262   6.455
 9263POPC   D2A47992  39.270  11.288   6.755
 9263POPC   C3A47993  39.243  11.299   7.055
 9263POPC   C4A47994  39.196  11.336   7.355
 9263POPC   C1B47995  39.065  11.135   6.455
 9263POPC   C2B47996  39.051  11.098   6.755
 9263POPC   C3B47997  39.082  11.089   7.055
 9263POPC   C4B47998  39.084  11.084   7.355
 9264POPC   NC347999   0.485   1.211   5.555
 9264POPC   PO448000   0.393   1.205   5.855
 9264POPC   GL148001   0.458   1.187   6.155
 9264POPC   GL248002   0.393   1.272   6.155
 9264POPC   C1A48003   0.432   1.226   6.455
 9264POPC   D2A48004   0.407   1.238   6.755
 9264POPC   C3A48005   0.450   1.168   7.055
 9264POPC   C4A48006   0.436   1.212   7.355
 9264POPC   C1B48007   0.216   1.402   6.455
 9264POPC   C2B48008   0.248   1.376   6.755
 9264POPC   C3B48009   0.293   1.389   7.055
 9264POPC   C4B48010   0.219   1.379   7.355
 9265POPC   NC348011  27.604  40.828   5.555
 9265POPC   PO448012  27.551  40.792   5.855
 9265POPC   GL148013  27.620  40.831   6.155
 9265POPC   GL248014  27.624  40.716   6.155
 9265POPC   C1A48015  27.638  40.798   6.455
 9265POPC   D2A48016  27.636  40.787   6.755
 9265POPC   C3A48017  27.549  40.743   7.055
 9265POPC   C4A48018  27.604  40.773   7.355
 9265POPC   C1B48019  27.724  40.606   6.455
 9265POPC   C2B48020  27.757  40.578   6.755
 9265POPC   C3B48021  27.778  40.547   7.055
 9265POPC   C4B48022  27.730  40.595   7.355
 9266POPC   NC348023  33.789  23.672   5.555
 9266POPC   PO448024  33.804  23.749   5.855
 9266POPC   GL148025  33.781  23.691   6.155
 9266POPC   GL248026  33.887  23.832   6.155
 9266POPC   C1A48027  33.836  23.705   6.455
 9266POPC   D2A48028  33.775  23.746   6.755
 9266POPC   C3A48029  33.802  23.672   7.055
 9266POPC   C4A48030  33.837  23.696   7.355
 9266POPC   C1B48031  33.916  23.924   6.455
 9266POPC   C2B48032  33.900  23.909   6.755
 9266POPC   C3B48033  33.915  23.905   7.055
 9266POPC   C4B48034  33.929  23.981   7.355
 9267POPC   NC348035   0.448  35.328   5.555
 9267POPC   PO448036   0.422  35.380   5.855
 9267POPC   GL148037   0.403  35.394   6.155
 9267POPC   GL248038   0.508  35.455   6.155
 9267POPC   C1A48039   0.423  35.325   6.455
 9267POPC   D2A48040   0.450  35.346   6.755
 9267POPC   C3A48041   0.462  35.382   7.055
 9267POPC   C4A48042   0.392  35.347   7.355
 9267POPC   C1B48043   0.468  35.553   6.455
 9267POPC   C2B48044   0.543  35.618   6.755
 9267POPC   C3B48045   0.537  35.616   7.055
 9267POPC   C4B48046   0.523  35.572   7.355
 9268POPC   NC348047   1.221  43.084   5.555
 9268POPC   PO448048   1.256  43.068   5.855
 9268POPC   GL148049   1.232  43.079   6.155
 9268POPC   GL248050   1.194  43.005   6.155
 9268POPC   C1A48051   1.248  43.073   6.455
 9268POPC   D2A48052   1.214  43.096   6.755
 9268POPC   C3A48053   1.199  43.132   7.055
 9268POPC   C4A48054   1.198  43.140   7.355
 9268POPC   C1B48055   1.271  42.858   6.455
 9268POPC   C2B48056   1.266  42.863   6.755
 9268POPC   C3B48057   1.210  42.883   7.055
 9268POPC   C4B48058   1.249  42.820   7.355
 9269POPC   NC348059  40.775   1.229   5.555
 9269POPC   PO448060  40.777   1.195   5.855
 9269POPC   GL148061  40.762   1.168   6.155
 9269POPC   GL248062  40.627   1.199   6.155
 9269POPC   C1A48063  40.793   1.166   6.455
 9269POPC   D2A48064  40.757   1.238   6.755
 9269POPC   C3A48065  40.775   1.165   7.055
 9269POPC   C4A48066  40.774   1.171   7.355
 9269POPC   C1B48067  40.580   1.157   6.455
 9269POPC   C2B48068  40.545   1.129   6.755
 9269POPC   C3B48069  40.535   1.189   7.055
 9269POPC   C4B48070  40.510   1.132   7.355
 9270POPC   NC348071  12.881  20.575   5.555
 9270POPC   PO448072  12.876  20.588   5.855
 9270POPC   GL148073  12.887  20.647   6.155
 9270POPC   GL248074  12.838  20.481   6.155
 9270POPC   C1A48075  12.824  20.574   6.455
 9270POPC   D2A48076  12.834  20.652   6.755
 9270POPC   C3A48077  12.868  20.592   7.055
 9270POPC   C4A48078  12.820  20.575   7.355
 9270POPC   C1B48079  12.827  20.378   6.455
 9270POPC   C2B48080  12.838  20.374   6.755
 9270POPC   C3B48081  12.855  20.319   7.055
 9270POPC   C4B48082  12.834  20.369   7.355
 9271POPC   NC348083  10.501  39.225   5.555
 9271POPC   PO448084  10.477  39.249   5.855
 9271POPC   GL148085  10.505  39.243   6.155
 9271POPC   GL248086  10.586  39.123   6.155
 9271POPC   C1A48087  10.485  39.247   6.455
 9271POPC   D2A48088  10.506  39.208   6.755
 9271POPC   C3A48089  10.505  39.183   7.055
 9271POPC   C4A48090  10.519  39.227   7.355
 9271POPC   C1B48091  10.570  39.034   6.455
 9271POPC   C2B48092  10.567  39.016   6.755
 9271POPC   C3B48093  10.604  38.963   7.055
 9271POPC   C4B48094  10.546  39.024   7.355
 9272POPC   NC348095  44.665   8.988   5.555
 9272POPC   PO448096  44.629   9.012   5.855
 9272POPC   GL148097  44.626   8.936   6.155
 9272POPC   GL248098  44.527   8.964   6.155
 9272POPC   C1A48099  44.628   9.022   6.455
 9272POPC   D2A48100  44.697   8.941   6.755
 9272POPC   C3A48101  44.619   8.974   7.055
 9272POPC   C4A48102  44.625   8.937   7.355
 9272POPC   C1B48103  44.380   8.979   6.455
 9272POPC   C2B48104  44.463   8.970   6.755
 9272POPC   C3B48105  44.452   9.012   7.055
 9272POPC   C4B48106  44.381   9.061   7.355
 9273POPC   NC348107   8.963  23.669   5.555
 9273POPC   PO448108   9.002  23.708   5.855
 9273POPC   GL148109   9.015  23.671   6.155
 9273POPC   GL248110   8.977  23.562   6.155
 9273POPC   C1A48111   9.021  23.701   6.455
 9273POPC   D2A48112   8.925  23.665   6.755
 9273POPC   C3A48113   8.970  23.694   7.055
 9273POPC   C4A48114   8.975  23.736   7.355
 9273POPC   C1B48115   8.955  23.481   6.455
 9273POPC   C2B48116   8.902  23.467   6.755
 9273POPC   C3B48117   8.869  23.458   7.055
 9273POPC   C4B48118   8.899  23.520   7.355
 9274POPC   NC348119   8.946  20.645   5.555
 9274POPC   PO448120   8.988  20.629   5.855
 9274POPC   GL148121   8.993  20.653   6.155
 9274POPC   GL248122   8.878  20.689   6.155
 9274POPC   C1A48123   9.003  20.575   6.455
 9274POPC   D2A48124   8.929  20.631   6.755
 9274POPC   C3A48125   9.012  20.657   7.055
 9274POPC   C4A48126   9.018  20.600   7.355
 9274POPC   C1B48127   8.896  20.788   6.455
 9274POPC   C2B48128   8.848  20.821   6.755
 9274POPC   C3B48129   8.821  20.790   7.055
 9274POPC   C4B48130   8.848  20.839   7.355
 9275POPC   NC348131   5.121   2.737   5.555
 9275POPC   PO448132   5.079   2.792   5.855
 9275POPC   GL148133   5.062   2.751   6.155
 9275POPC   GL248134   5.184   2.706   6.155
 9275POPC   C1A48135   5.133   2.810   6.455
 9275POPC   D2A48136   5.126   2.775   6.755
 9275POPC   C3A48137   5.138   2.797   7.055
 9275POPC   C4A48138   5.100   2.786   7.355
 9275POPC   C1B48139   5.284   2.672   6.455
 9275POPC   C2B48140   5.328   2.648   6.755
 9275POPC   C3B48141   5.280   2.669   7.055
 9275POPC   C4B48142   5.296   2.608   7.355
 9276POPC   NC348143  12.084  12.119   5.555
 9276POPC   PO448144  12.125  12.042   5.855
 9276POPC   GL148145  12.037  12.121   6.155
 9276POPC   GL248146  11.954  12.020   6.155
 9276POPC   C1A48147  12.056  12.031   6.455
 9276POPC   D2A48148  12.062  12.035   6.755
 9276POPC   C3A48149  12.028  12.113   7.055
 9276POPC   C4A48150  12.102  12.065   7.355
 9276POPC   C1B48151  11.828  11.915   6.455
 9276POPC   C2B48152  11.882  11.902   6.755
 9276POPC   C3B48153  11.844  11.875   7.055
 9276POPC   C4B48154  11.863  11.968   7.355
 9277POPC   NC348155   2.000   3.519   5.555
 9277POPC   PO448156   2.032   3.581   5.855
 9277POPC   GL148157   2.012   3.494   6.155
 9277POPC   GL248158   2.019   3.418   6.155
 9277POPC   C1A48159   2.016   3.547   6.455
 9277POPC   D2A48160   1.964   3.492   6.755
 9277POPC   C3A48161   1.972   3.568   7.055
 9277POPC   C4A48162   1.991   3.502   7.355
 9277POPC   C1B48163   2.034   3.303   6.455
 9277POPC   C2B48164   2.026   3.282   6.755
 9277POPC   C3B48165   1.964   3.268   7.055
 9277POPC   C4B48166   2.001   3.264   7.355
 9278POPC   NC348167  21.395  25.992   5.555
 9278POPC   PO448168  21.417  26.026   5.855
 9278POPC   GL148169  21.394  26.029   6.155
 9278POPC   GL248170  21.274  26.150   6.155
 9278POPC   C1A48171  21.397  26.030   6.455
 9278POPC   D2A48172  21.434  26.071   6.755
 9278POPC   C3A48173  21.355  26.086   7.055
 9278POPC   C4A48174  21.343  26.056   7.355
 9278POPC   C1B48175  21.190  26.193   6.455
 9278POPC   C2B48176  21.176  26.217   6.755
 9278POPC   C3B48177  21.215  26.250   7.055
 9278POPC   C4B48178  21.245  26.218   7.355
 9279POPC   NC348179  35.321  33.833   5.555
 9279POPC   PO448180  35.389  33.800   5.855
 9279POPC   GL148181  35.314  33.832   6.155
 9279POPC   GL248182  35.417  33.926   6.155
 9279POPC   C1A48183  35.345  33.828   6.455
 9279POPC   D2A48184  35.361  33.819   6.755
 9279POPC   C3A48185  35.400  33.796   7.055
 9279POPC   C4A48186  35.304  33.764   7.355
 9279POPC   C1B48187  35.523  33.977   6.455
 9279POPC   C2B48188  35.563  33.947   6.755
 9279POPC   C3B48189  35.532  33.966   7.055
 9279POPC   C4B48190  35.504  33.990   7.355
 9280POPC   NC348191  43.145  35.385   5.555
 9280POPC   PO448192  43.091  35.322   5.855
 9280POPC   GL148193  43.069  35.353   6.155
 9280POPC   GL248194  43.191  35.462   6.155
 9280POPC   C1A48195  43.071  35.340   6.455
 9280POPC   D2A48196  43.083  35.324   6.755
 9280POPC   C3A48197  43.123  35.322   7.055
 9280POPC   C4A48198  43.113  35.372   7.355
 9280POPC   C1B48199  43.176  35.571   6.455
 9280POPC   C2B48200  43.237  35.531   6.755
 9280POPC   C3B48201  43.181  35.531   7.055
 9280POPC   C4B48202  43.179  35.613   7.355
 9281POPC   NC348203  38.424  40.032   5.555
 9281POPC   PO448204  38.423  39.973   5.855
 9281POPC   GL148205  38.450  40.044   6.155
 9281POPC   GL248206  38.597  40.107   6.155
 9281POPC   C1A48207  38.504  40.030   6.455
 9281POPC   D2A48208  38.462  40.042   6.755
 9281POPC   C3A48209  38.484  40.040   7.055
 9281POPC   C4A48210  38.473  39.994   7.355
 9281POPC   C1B48211  38.660  40.154   6.455
 9281POPC   C2B48212  38.665  40.196   6.755
 9281POPC   C3B48213  38.700  40.125   7.055
 9281POPC   C4B48214  38.634  40.143   7.355
 9282POPC   NC348215  12.119  25.216   5.555
 9282POPC   PO448216  12.027  25.314   5.855
 9282POPC   GL148217  12.120  25.219   6.155
 9282POPC   GL248218  12.193  25.147   6.155
 9282POPC   C1A48219  12.051  25.313   6.455
 9282POPC   D2A48220  12.033  25.281   6.755
 9282POPC   C3A48221  12.068  25.296   7.055
 9282POPC   C4A48222  12.076  25.240   7.355
 9282POPC   C1B48223  12.252  25.071   6.455
 9282POPC   C2B48224  12.279  25.046   6.755
 9282POPC   C3B48225  12.227  25.116   7.055
 9282POPC   C4B48226  12.191  25.030   7.355
 9283POPC   NC348227  39.273  20.637   5.555
 9283POPC   PO448228  39.212  20.576   5.855
 9283POPC   GL148229  39.257  20.606   6.155
 9283POPC   GL248230  39.332  20.704   6.155
 9283POPC   C1A48231  39.203  20.613   6.455
 9283POPC   D2A48232  39.204  20.586   6.755
 9283POPC   C3A48233  39.246  20.586   7.055
 9283POPC   C4A48234  39.206  20.630   7.355
 9283POPC   C1B48235  39.370  20.762   6.455
 9283POPC   C2B48236  39.430  20.746   6.755
 9283POPC   C3B48237  39.360  20.762   7.055
 9283POPC   C4B48238  39.433  20.791   7.355
 9284POPC   NC348239  34.604  27.614   5.555
 9284POPC   PO448240  34.551  27.544   5.855
 9284POPC   GL148241  34.603  27.584   6.155
 9284POPC   GL248242  34.441  27.604   6.155
 9284POPC   C1A48243  34.570  27.561   6.455
 9284POPC   D2A48244  34.575  27.604   6.755
 9284POPC   C3A48245  34.606  27.587   7.055
 9284POPC   C4A48246  34.603  27.619   7.355
 9284POPC   C1B48247  34.350  27.533   6.455
 9284POPC   C2B48248  34.323  27.553   6.755
 9284POPC   C3B48249  34.366  27.535   7.055
 9284POPC   C4B48250  34.304  27.568   7.355
 9285POPC   NC348251  39.205  43.098   5.555
 9285POPC   PO448252  39.260  43.101   5.855
 9285POPC   GL148253  39.214  43.098   6.155
 9285POPC   GL248254  39.223  43.224   6.155
 9285POPC   C1A48255  39.274  43.119   6.455
 9285POPC   D2A48256  39.250  43.077   6.755
 9285POPC   C3A48257  39.227  43.070   7.055
 9285POPC   C4A48258  39.198  43.093   7.355
 9285POPC   C1B48259  39.151  43.320   6.455
 9285POPC   C2B48260  39.195  43.349   6.755
 9285POPC   C3B48261  39.107  43.336   7.055
 9285POPC   C4B48262  39.114  43.355   7.355
 9286POPC   NC348263   0.465  12.074   5.555
 9286POPC   PO448264   0.436  12.036   5.855
 9286POPC   GL148265   0.462  12.108   6.155
 9286POPC   GL248266   0.341  12.052   6.155
 9286POPC   C1A48267   0.409  12.070   6.455
 9286POPC   D2A48268   0.478  12.112   6.755
 9286POPC   C3A48269   0.453  12.110   7.055
 9286POPC   C4A48270   0.396  12.072   7.355
 9286POPC   C1B48271   0.169  12.062   6.455
 9286POPC   C2B48272   0.178  11.980   6.755
 9286POPC   C3B48273   0.225  12.026   7.055
 9286POPC   C4B48274   0.177  12.053   7.355
 9287POPC   NC348275  22.144  29.165   5.555
 9287POPC   PO448276  22.211  29.145   5.855
 9287POPC   GL148277  22.165  29.148   6.155
 9287POPC   GL248278  22.177  29.006   6.155
 9287POPC   C1A48279  22.120  29.120   6.455
 9287POPC   D2A48280  22.188  29.113   6.755
 9287POPC   C3A48281  22.120  29.187   7.055
 9287POPC   C4A48282  22.162  29.161   7.355
 9287POPC   C1B48283  22.194  28.893   6.455
 9287POPC   C2B48284  22.227  28.924   6.755
 9287POPC   C3B48285  22.196  28.869   7.055
 9287POPC   C4B48286  22.217  28.920   7.355
 9288POPC   NC348287  19.825  13.676   5.555
 9288POPC   PO448288  19.831  13.590   5.855
 9288POPC   GL148289  19.798  13.642   6.155
 9288POPC   GL248290  19.874  13.774   6.155
 9288POPC   C1A48291  19.790  13.632   6.455
 9288POPC   D2A48292  19.863  13.663   6.755
 9288POPC   C3A48293  19.792  13.632   7.055
 9288POPC   C4A48294  19.820  13.622   7.355
 9288POPC   C1B48295  19.962  13.827   6.455
 9288POPC   C2B48296  19.940  13.814   6.755
 9288POPC   C3B48297  19.938  13.818   7.055
 9288POPC   C4B48298  19.928  13.892   7.355
 9289POPC   NC348299  40.030  12.885   5.555
 9289POPC   PO448300  40.002  12.863   5.855
 9289POPC   GL148301  39.964  12.815   6.155
 9289POPC   GL248302  40.060  12.988   6.155
 9289POPC   C1A48303  39.968  12.861   6.455
 9289POPC   D2A48304  39.967  12.808   6.755
 9289POPC   C3A48305  39.960  12.884   7.055
 9289POPC   C4A48306  40.013  12.834   7.355
 9289POPC   C1B48307  40.165  13.083   6.455
 9289POPC   C2B48308  40.150  13.020   6.755
 9289POPC   C3B48309  40.144  13.001   7.055
 9289POPC   C4B48310  40.138  13.011   7.355
 9290POPC   NC348311  11.343  42.307   5.555
 9290POPC   PO448312  11.339  42.346   5.855
 9290POPC   GL148313  11.270  42.381   6.155
 9290POPC   GL248314  11.166  42.244   6.155
 9290POPC   C1A48315  11.285  42.331   6.455
 9290POPC   D2A48316  11.313  42.320   6.755
 9290POPC   C3A48317  11.332  42.338   7.055
 9290POPC   C4A48318  11.322  42.313   7.355
 9290POPC   C1B48319  11.130  42.212   6.455
 9290POPC   C2B48320  11.086  42.169   6.755
 9290POPC   C3B48321  11.063  42.230   7.055
 9290POPC   C4B48322  11.051  42.228   7.355
 9291POPC   NC348323  39.981   2.805   5.555
 9291POPC   PO448324  40.019   2.810   5.855
 9291POPC   GL148325  40.014   2.737   6.155
 9291POPC   GL248326  39.971   2.664   6.155
 9291POPC   C1A48327  40.055   2.760   6.455
 9291POPC   D2A48328  40.047   2.792   6.755
 9291POPC   C3A48329  40.047   2.767   7.055
 9291POPC   C4A48330  39.973   2.755   7.355
 9291POPC   C1B48331  39.946   2.492   6.455
 9291POPC   C2B48332  39.940   2.551   6.755
 9291POPC   C3B48333  39.945   2.516   7.055
 9291POPC   C4B48334  40.016   2.481   7.355
 9292POPC   NC348335   3.535  25.258   5.555
 9292POPC   PO448336   3.542  25.249   5.855
 9292POPC   GL148337   3.498  25.255   6.155
 9292POPC   GL248338   3.486  25.211   6.155
 9292POPC   C1A48339   3.581  25.272   6.455
 9292POPC   D2A48340   3.497  25.290   6.755
 9292POPC   C3A48341   3.546  25.243   7.055
 9292POPC   C4A48342   3.553  25.310   7.355
 9292POPC   C1B48343   3.370  25.149   6.455
 9292POPC   C2B48344   3.336  25.121   6.755
 9292POPC   C3B48345   3.376  25.132   7.055
 9292POPC   C4B48346   3.339  25.108   7.355
 9293POPC   NC348347  32.266  39.990   5.555
 9293POPC   PO448348  32.240  39.994   5.855
 9293POPC   GL148349  32.249  40.024   6.155
 9293POPC   GL248350  32.373  39.932   6.155
 9293POPC   C1A48351  32.247  40.052   6.455
 9293POPC   D2A48352  32.214  40.038   6.755
 9293POPC   C3A48353  32.214  39.965   7.055
 9293POPC   C4A48354  32.284  39.999   7.355
 9293POPC   C1B48355  32.470  40.002   6.455
 9293POPC   C2B48356  32.493  39.985   6.755
 9293POPC   C3B48357  32.517  39.909   7.055
 9293POPC   C4B48358  32.458  39.981   7.355
 9294POPC   NC348359   2.785  28.357   5.555
 9294POPC   PO448360   2.768  28.382   5.855
 9294POPC   GL148361   2.729  28.398   6.155
 9294POPC   GL248362   2.886  28.363   6.155
 9294POPC   C1A48363   2.722  28.352   6.455
 9294POPC   D2A48364   2.753  28.349   6.755
 9294POPC   C3A48365   2.745  28.381   7.055
 9294POPC   C4A48366   2.803  28.411   7.355
 9294POPC   C1B48367   2.968  28.413   6.455
 9294POPC   C2B48368   2.996  28.473   6.755
 9294POPC   C3B48369   2.973  28.425   7.055
 9294POPC   C4B48370   2.978  28.496   7.355
 9295POPC   NC348371  28.360  12.823   5.555
 9295POPC   PO448372  28.362  12.869   5.855
 9295POPC   GL148373  28.385  12.824   6.155
 9295POPC   GL248374  28.335  12.740   6.155
 9295POPC   C1A48375  28.360  12.842   6.455
 9295POPC   D2A48376  28.417  12.836   6.755
 9295POPC   C3A48377  28.385  12.843   7.055
 9295POPC   C4A48378  28.361  12.836   7.355
 9295POPC   C1B48379  28.393  12.635   6.455
 9295POPC   C2B48380  28.364  12.623   6.755
 9295POPC   C3B48381  28.353  12.621   7.055
 9295POPC   C4B48382  28.358  12.623   7.355
 9296POPC   NC348383  10.571  33.001   5.555
 9296POPC   PO448384  10.528  33.024   5.855
 9296POPC   GL148385  10.553  33.023   6.155
 9296POPC   GL248386  10.389  32.945   6.155
 9296POPC   C1A48387  10.566  32.997   6.455
 9296POPC   D2A48388  10.476  33.065   6.755
 9296POPC   C3A48389  10.560  33.049   7.055
 9296POPC   C4A48390  10.512  33.049   7.355
 9296POPC   C1B48391  10.285  32.911   6.455
 9296POPC   C2B48392  10.257  32.921   6.755
 9296POPC   C3B48393  10.287  32.939   7.055
 9296POPC   C4B48394  10.281  32.991   7.355
 9297POPC   NC348395   5.102   9.779   5.555
 9297POPC   PO448396   5.107   9.775   5.855
 9297POPC   GL148397   5.051   9.699   6.155
 9297POPC   GL248398   5.028   9.651   6.155
 9297POPC   C1A48399   5.089   9.760   6.455
 9297POPC   D2A48400   5.075   9.741   6.755
 9297POPC   C3A48401   5.069   9.723   7.055
 9297POPC   C4A48402   5.070   9.758   7.355
 9297POPC   C1B48403   5.040   9.531   6.455
 9297POPC   C2B48404   5.011   9.488   6.755
 9297POPC   C3B48405   5.075   9.470   7.055
 9297POPC   C4B48406   5.044   9.466   7.355
 9298POPC   NC348407  43.883  32.207   5.555
 9298POPC   PO448408  43.909  32.272   5.855
 9298POPC   GL148409  43.843  32.205   6.155
 9298POPC   GL248410  43.760  32.287   6.155
 9298POPC   C1A48411  43.873  32.229   6.455
 9298POPC   D2A48412  43.879  32.288   6.755
 9298POPC   C3A48413  43.848  32.212   7.055
 9298POPC   C4A48414  43.928  32.209   7.355
 9298POPC   C1B48415  43.714  32.383   6.455
 9298POPC   C2B48416  43.633  32.406   6.755
 9298POPC   C3B48417  43.697  32.419   7.055
 9298POPC   C4B48418  43.692  32.384   7.355
 9299POPC   NC348419   5.891  26.823   5.555
 9299POPC   PO448420   5.878  26.823   5.855
 9299POPC   GL148421   5.868  26.804   6.155
 9299POPC   GL248422   5.809  26.913   6.155
 9299POPC   C1A48423   5.918  26.839   6.455
 9299POPC   D2A48424   5.875  26.799   6.755
 9299POPC   C3A48425   5.846  26.843   7.055
 9299POPC   C4A48426   5.866  26.802   7.355
 9299POPC   C1B48427   5.723  27.040   6.455
 9299POPC   C2B48428   5.725  27.074   6.755
 9299POPC   C3B48429   5.713  27.020   7.055
 9299POPC   C4B48430   5.701  27.018   7.355
 9300POPC   NC348431  13.636  18.297   5.555
 9300POPC   PO448432  13.606  18.291   5.855
 9300POPC   GL148433  13.585  18.251   6.155
 9300POPC   GL248434  13.525  18.237   6.155
 9300POPC   C1A48435  13.590  18.271   6.455
 9300POPC   D2A48436  13.635  18.286   6.755
 9300POPC   C3A48437  13.608  18.329   7.055
 9300POPC   C4A48438  13.644  18.237   7.355
 9300POPC   C1B48439  13.428  18.187   6.455
 9300POPC   C2B48440  13.363  18.195   6.755
 9300POPC   C3B48441  13.343  18.235   7.055
 9300POPC   C4B48442  13.408  18.232   7.355
 9301POPC   NC348443  40.049   0.439   5.555
 9301POPC   PO448444  39.965   0.442   5.855
 9301POPC   GL148445  39.972   0.389   6.155
 9301POPC   GL248446  40.008   0.585   6.155
 9301POPC   C1A48447  39.998   0.405   6.455
 9301POPC   D2A48448  39.976   0.477   6.755
 9301POPC   C3A48449  40.033   0.399   7.055
 9301POPC   C4A48450  40.008   0.459   7.355
 9301POPC   C1B48451  40.108   0.654   6.455
 9301POPC   C2B48452  40.145   0.699   6.755
 9301POPC   C3B48453  40.142   0.647   7.055
 9301POPC   C4B48454  40.128   0.683   7.355
 9302POPC   NC348455   3.505  31.494   5.555
 9302POPC   PO448456   3.578  31.500   5.855
 9302POPC   GL148457   3.511  31.486   6.155
 9302POPC   GL248458   3.599  31.387   6.155
 9302POPC   C1A48459   3.544  31.504   6.455
 9302POPC   D2A48460   3.586  31.482   6.755
 9302POPC   C3A48461   3.507  31.456   7.055
 9302POPC   C4A48462   3.580  31.472   7.355
 9302POPC   C1B48463   3.573  31.278   6.455
 9302POPC   C2B48464   3.587  31.227   6.755
 9302POPC   C3B48465   3.609  31.241   7.055
 9302POPC   C4B48466   3.599  31.235   7.355
 9303POPC   NC348467  19.838  33.840   5.555
 9303POPC   PO448468  19.817  33.823   5.855
 9303POPC   GL148469  19.856  33.757   6.155
 9303POPC   GL248470  19.963  33.810   6.155
 9303POPC   C1A48471  19.848  33.844   6.455
 9303POPC   D2A48472  19.877  33.776   6.755
 9303POPC   C3A48473  19.879  33.809   7.055
 9303POPC   C4A48474  19.792  33.774   7.355
 9303POPC   C1B48475  20.100  33.860   6.455
 9303POPC   C2B48476  20.104  33.890   6.755
 9303POPC   C3B48477  20.091  33.898   7.055
 9303POPC   C4B48478  20.129  33.804   7.355
 9304POPC   NC348479  27.629  17.505   5.555
 9304POPC   PO448480  27.547  17.532   5.855
 9304POPC   GL148481  27.609  17.546   6.155
 9304POPC   GL248482  27.507  17.373   6.155
 9304POPC   C1A48483  27.626  17.526   6.455
 9304POPC   D2A48484  27.631  17.547   6.755
 9304POPC   C3A48485  27.642  17.519   7.055
 9304POPC   C4A48486  27.579  17.464   7.355
 9304POPC   C1B48487  27.455  17.309   6.455
 9304POPC   C2B48488  27.501  17.323   6.755
 9304POPC   C3B48489  27.532  17.265   7.055
 9304POPC   C4B48490  27.458  17.250   7.355
 9305POPC   NC348491   3.502   9.006   5.555
 9305POPC   PO448492   3.543   9.022   5.855
 9305POPC   GL148493   3.571   9.007   6.155
 9305POPC   GL248494   3.387   8.970   6.155
 9305POPC   C1A48495   3.502   8.946   6.455
 9305POPC   D2A48496   3.533   9.000   6.755
 9305POPC   C3A48497   3.509   8.957   7.055
 9305POPC   C4A48498   3.511   8.945   7.355
 9305POPC   C1B48499   3.253   9.030   6.455
 9305POPC   C2B48500   3.256   9.016   6.755
 9305POPC   C3B48501   3.339   9.040   7.055
 9305POPC   C4B48502   3.339   9.058   7.355
 9306POPC   NC348503  37.671   8.935   5.555
 9306POPC   PO448504  37.713   9.009   5.855
 9306POPC   GL148505  37.658   8.938   6.155
 9306POPC   GL248506  37.658   8.828   6.155
 9306POPC   C1A48507  37.727   8.947   6.455
 9306POPC   D2A48508  37.661   8.948   6.755
 9306POPC   C3A48509  37.708   8.926   7.055
 9306POPC   C4A48510  37.711   8.960   7.355
 9306POPC   C1B48511  37.686   8.746   6.455
 9306POPC   C2B48512  37.687   8.764   6.755
 9306POPC   C3B48513  37.672   8.739   7.055
 9306POPC   C4B48514  37.671   8.699   7.355
 9307POPC   NC348515   3.508  19.039   5.555
 9307POPC   PO448516   3.510  19.083   5.855
 9307POPC   GL148517   3.493  19.061   6.155
 9307POPC   GL248518   3.442  19.117   6.155
 9307POPC   C1A48519   3.543  19.078   6.455
 9307POPC   D2A48520   3.521  19.081   6.755
 9307POPC   C3A48521   3.494  19.025   7.055
 9307POPC   C4A48522   3.514  19.035   7.355
 9307POPC   C1B48523   3.309  19.226   6.455
 9307POPC   C2B48524   3.310  19.184   6.755
 9307POPC   C3B48525   3.334  19.199   7.055
 9307POPC   C4B48526   3.287  19.226   7.355
 9308POPC   NC348527  31.489  25.251   5.555
 9308POPC   PO448528  31.517  25.249   5.855
 9308POPC   GL148529  31.516  25.307   6.155
 9308POPC   GL248530  31.398  25.315   6.155
 9308POPC   C1A48531  31.470  25.296   6.455
 9308POPC   D2A48532  31.467  25.236   6.755
 9308POPC   C3A48533  31.444  25.247   7.055
 9308POPC   C4A48534  31.476  25.313   7.355
 9308POPC   C1B48535  31.230  25.456   6.455
 9308POPC   C2B48536  31.265  25.389   6.755
 9308POPC   C3B48537  31.252  25.392   7.055
 9308POPC   C4B48538  31.243  25.455   7.355
 9309POPC   NC348539   8.934  26.865   5.555
 9309POPC   PO448540   8.987  26.799   5.855
 9309POPC   GL148541   8.937  26.822   6.155
 9309POPC   GL248542   9.119  26.881   6.155
 9309POPC   C1A48543   8.930  26.855   6.455
 9309POPC   D2A48544   8.985  26.776   6.755
 9309POPC   C3A48545   8.965  26.795   7.055
 9309POPC   C4A48546   8.924  26.787   7.355
 9309POPC   C1B48547   9.236  26.863   6.455
 9309POPC   C2B48548   9.262  26.822   6.755
 9309POPC   C3B48549   9.259  26.827   7.055
 9309POPC   C4B48550   9.262  26.853   7.355
 9310POPC   NC348551  32.201  40.742   5.555
 9310POPC   PO448552  32.237  40.746   5.855
 9310POPC   GL148553  32.288  40.781   6.155
 9310POPC   GL248554  32.380  40.783   6.155
 9310POPC   C1A48555  32.246  40.742   6.455
 9310POPC   D2A48556  32.209  40.805   6.755
 9310POPC   C3A48557  32.208  40.800   7.055
 9310POPC   C4A48558  32.223  40.779   7.355
 9310POPC   C1B48559  32.491  40.832   6.455
 9310POPC   C2B48560  32.486  40.772   6.755
 9310POPC   C3B48561  32.528  40.770   7.055
 9310POPC   C4B48562  32.520  40.833   7.355
 9311POPC   NC348563  33.803  40.810   5.555
 9311POPC   PO448564  33.796  40.759   5.855
 9311POPC   GL148565  33.845  40.759   6.155
 9311POPC   GL248566  33.939  40.819   6.155
 9311POPC   C1A48567  33.834  40.745   6.455
 9311POPC   D2A48568  33.793  40.748   6.755
 9311POPC   C3A48569  33.819  40.793   7.055
 9311POPC   C4A48570  33.755  40.769   7.355
 9311POPC   C1B48571  34.058  40.851   6.455
 9311POPC   C2B48572  34.089  40.847   6.755
 9311POPC   C3B48573  34.001  40.862   7.055
 9311POPC   C4B48574  34.058  40.790   7.355
 9312POPC   NC348575  21.404  10.483   5.555
 9312POPC   PO448576  21.362  10.545   5.855
 9312POPC   GL148577  21.367  10.475   6.155
 9312POPC   GL248578  21.556  10.559   6.155
 9312POPC   C1A48579  21.351  10.509   6.455
 9312POPC   D2A48580  21.380  10.558   6.755
 9312POPC   C3A48581  21.415  10.480   7.055
 9312POPC   C4A48582  21.347  10.478   7.355
 9312POPC   C1B48583  21.638  10.582   6.455
 9312POPC   C2B48584  21.634  10.569   6.755
 9312POPC   C3B48585  21.625  10.487   7.055
 9312POPC   C4B48586  21.676  10.503   7.355
 9313POPC   NC348587  39.272  42.351   5.555
 9313POPC   PO448588  39.250  42.339   5.855
 9313POPC   GL148589  39.186  42.307   6.155
 9313POPC   GL248590  39.309  42.268   6.155
 9313POPC   C1A48591  39.189  42.377   6.455
 9313POPC   D2A48592  39.254  42.339   6.755
 9313POPC   C3A48593  39.222  42.342   7.055
 9313POPC   C4A48594  39.184  42.362   7.355
 9313POPC   C1B48595  39.412  42.110   6.455
 9313POPC   C2B48596  39.411  42.160   6.755
 9313POPC   C3B48597  39.420  42.129   7.055
 9313POPC   C4B48598  39.412  42.162   7.355
 9314POPC   NC348599  18.288  12.839   5.555
 9314POPC   PO448600  18.251  12.898   5.855
 9314POPC   GL148601  18.268  12.848   6.155
 9314POPC   GL248602  18.137  12.839   6.155
 9314POPC   C1A48603  18.256  12.846   6.455
 9314POPC   D2A48604  18.284  12.884   6.755
 9314POPC   C3A48605  18.284  12.880   7.055
 9314POPC   C4A48606  18.301  12.866   7.355
 9314POPC   C1B48607  18.077  12.781   6.455
 9314POPC   C2B48608  18.040  12.783   6.755
 9314POPC   C3B48609  18.080  12.744   7.055
 9314POPC   C4B48610  18.026  12.759   7.355
 9315POPC   NC348611  12.830  33.846   5.555
 9315POPC   PO448612  12.879  33.802   5.855
 9315POPC   GL148613  12.887  33.845   6.155
 9315POPC   GL248614  12.811  33.704   6.155
 9315POPC   C1A48615  12.890  33.843   6.455
 9315POPC   D2A48616  12.888  33.809   6.755
 9315POPC   C3A48617  12.827  33.816   7.055
 9315POPC   C4A48618  12.874  33.831   7.355
 9315POPC   C1B48619  12.773  33.528   6.455
 9315POPC   C2B48620  12.785  33.606   6.755
 9315POPC   C3B48621  12.822  33.541   7.055
 9315POPC   C4B48622  12.799  33.552   7.355
 9316POPC   NC348623   0.458  25.240   5.555
 9316POPC   PO448624   0.456  25.287   5.855
 9316POPC   GL148625   0.406  25.250   6.155
 9316POPC   GL248626   0.505  25.166   6.155
 9316POPC   C1A48627   0.464  25.226   6.455
 9316POPC   D2A48628   0.446  25.228   6.755
 9316POPC   C3A48629   0.450  25.227   7.055
 9316POPC   C4A48630   0.389  25.285   7.355
 9316POPC   C1B48631   0.574  25.050   6.455
 9316POPC   C2B48632   0.561  25.108   6.755
 9316POPC   C3B48633   0.612  25.038   7.055
 9316POPC   C4B48634   0.640  25.080   7.355
 9317POPC   NC348635  42.350   4.344   5.555
 9317POPC   PO448636  42.383   4.330   5.855
 9317POPC   GL148637  42.314   4.352   6.155
 9317POPC   GL248638  42.203   4.294   6.155
 9317POPC   C1A48639  42.328   4.279   6.455
 9317POPC   D2A48640  42.377   4.318   6.755
 9317POPC   C3A48641  42.293   4.344   7.055
 9317POPC   C4A48642  42.350   4.323   7.355
 9317POPC   C1B48643  42.098   4.337   6.455
 9317POPC   C2B48644  42.104   4.366   6.755
 9317POPC   C3B48645  42.052   4.322   7.055
 9317POPC   C4B48646  42.052   4.403   7.355
 9318POPC   NC348647  26.018   7.459   5.555
 9318POPC   PO448648  26.006   7.432   5.855
 9318POPC   GL148649  26.079   7.463   6.155
 9318POPC   GL248650  25.927   7.484   6.155
 9318POPC   C1A48651  26.086   7.376   6.455
 9318POPC   D2A48652  26.021   7.373   6.755
 9318POPC   C3A48653  26.029   7.438   7.055
 9318POPC   C4A48654  26.048   7.386   7.355
 9318POPC   C1B48655  25.836   7.525   6.455
 9318POPC   C2B48656  25.805   7.531   6.755
 9318POPC   C3B48657  25.756   7.517   7.055
 9318POPC   C4B48658  25.848   7.543   7.355
 9319POPC   NC348659  17.470   1.221   5.555
 9319POPC   PO448660  17.546   1.203   5.855
 9319POPC   GL148661  17.470   1.220   6.155
 9319POPC   GL248662  17.448   1.122   6.155
 9319POPC   C1A48663  17.542   1.215   6.455
 9319POPC   D2A48664  17.506   1.240   6.755
 9319POPC   C3A48665  17.509   1.258   7.055
 9319POPC   C4A48666  17.550   1.214   7.355
 9319POPC   C1B48667  17.346   1.037   6.455
 9319POPC   C2B48668  17.370   1.007   6.755
 9319POPC   C3B48669  17.333   1.089   7.055
 9319POPC   C4B48670  17.359   1.074   7.355
 9320POPC   NC348671  39.963  41.516   5.555
 9320POPC   PO448672  40.047  41.556   5.855
 9320POPC   GL148673  40.020  41.539   6.155
 9320POPC   GL248674  39.873  41.477   6.155
 9320POPC   C1A48675  40.056  41.577   6.455
 9320POPC   D2A48676  39.989  41.605   6.755
 9320POPC   C3A48677  40.007  41.581   7.055
 9320POPC   C4A48678  40.029  41.589   7.355
 9320POPC   C1B48679  39.799  41.390   6.455
 9320POPC   C2B48680  39.785  41.464   6.755
 9320POPC   C3B48681  39.776  41.434   7.055
 9320POPC   C4B48682  39.804  41.473   7.355
 9321POPC   NC348683   9.785  21.363   5.555
 9321POPC   PO448684   9.733  21.433   5.855
 9321POPC   GL148685   9.795  21.350   6.155
 9321POPC   GL248686   9.582  21.397   6.155
 9321POPC   C1A48687   9.792  21.399   6.455
 9321POPC   D2A48688   9.760  21.416   6.755
 9321POPC   C3A48689   9.743  21.432   7.055
 9321POPC   C4A48690   9.783  21.415   7.355
 9321POPC   C1B48691   9.477  21.455   6.455
 9321POPC   C2B48692   9.457  21.422   6.755
 9321POPC   C3B48693   9.456  21.447   7.055
 9321POPC   C4B48694   9.482  21.461   7.355
 9322POPC   NC348695   3.566  34.595   5.555
 9322POPC   PO448696   3.573  34.587   5.855
 9322POPC   GL148697   3.575  34.601   6.155
 9322POPC   GL248698   3.400  34.495   6.155
 9322POPC   C1A48699   3.544  34.573   6.455
 9322POPC   D2A48700   3.541  34.550   6.755
 9322POPC   C3A48701   3.583  34.543   7.055
 9322POPC   C4A48702   3.508  34.578   7.355
 9322POPC   C1B48703   3.292  34.439   6.455
 9322POPC   C2B48704   3.298  34.478   6.755
 9322POPC   C3B48705   3.312  34.472   7.055
 9322POPC   C4B48706   3.357  34.412   7.355
 9323POPC   NC348707  12.897  28.397   5.555
 9323POPC   PO448708  12.899  28.345   5.855
 9323POPC   GL148709  12.855  28.402   6.155
 9323POPC   GL248710  12.746  28.367   6.155
 9323POPC   C1A48711  12.824  28.414   6.455
 9323POPC   D2A48712  12.872  28.391   6.755
 9323POPC   C3A48713  12.879  28.378   7.055
 9323POPC   C4A48714  12.823  28.339   7.355
 9323POPC   C1B48715  12.564  28.454   6.455
 9323POPC   C2B48716  12.572  28.409   6.755
 9323POPC   C3B48717  12.577  28.433   7.055
 9323POPC   C4B48718  12.584  28.411   7.355
 9324POPC   NC348719   9.004  31.491   5.555
 9324POPC   PO448720   8.999  31.437   5.855
 9324POPC   GL148721   8.973  31.485   6.155
 9324POPC   GL248722   8.962  31.611   6.155
 9324POPC   C1A48723   8.998  31.491   6.455
 9324POPC   D2A48724   8.986  31.451   6.755
 9324POPC   C3A48725   8.984  31.472   7.055
 9324POPC   C4A48726   8.978  31.514   7.355
 9324POPC   C1B48727   8.970  31.739   6.455
 9324POPC   C2B48728   9.040  31.680   6.755
 9324POPC   C3B48729   9.017  31.718   7.055
 9324POPC   C4B48730   9.025  31.701   7.355
 9325POPC   NC348731  36.873  33.021   5.555
 9325POPC   PO448732  36.947  33.064   5.855
 9325POPC   GL148733  36.900  32.985   6.155
 9325POPC   GL248734  36.753  33.120   6.155
 9325POPC   C1A48735  36.884  33.069   6.455
 9325POPC   D2A48736  36.874  33.031   6.755
 9325POPC   C3A48737  36.873  33.067   7.055
 9325POPC   C4A48738  36.938  32.991   7.355
 9325POPC   C1B48739  36.637  33.117   6.455
 9325POPC   C2B48740  36.655  33.129   6.755
 9325POPC   C3B48741  36.661  33.100   7.055
 9325POPC   C4B48742  36.667  33.103   7.355
 9326POPC   NC348743  38.429   9.779   5.555
 9326POPC   PO448744  38.474   9.714   5.855
 9326POPC   GL148745  38.470   9.716   6.155
 9326POPC   GL248746  38.346   9.732   6.155
 9326POPC   C1A48747  38.423   9.762   6.455
 9326POPC   D2A48748  38.450   9.766   6.755
 9326POPC   C3A48749  38.418   9.753   7.055
 9326POPC   C4A48750  38.461   9.792   7.355
 9326POPC   C1B48751  38.182   9.655   6.455
 9326POPC   C2B48752  38.239   9.682   6.755
 9326POPC   C3B48753  38.250   9.713   7.055
 9326POPC   C4B48754  38.244   9.748   7.355
 9327POPC   NC348755  34.553  19.094   5.555
 9327POPC   PO448756  34.545  19.077   5.855
 9327POPC   GL148757  34.551  19.102   6.155
 9327POPC   GL248758  34.713  19.078   6.155
 9327POPC   C1A48759  34.611  19.034   6.455
 9327POPC   D2A48760  34.613  19.054   6.755
 9327POPC   C3A48761  34.552  19.028   7.055
 9327POPC   C4A48762  34.568  19.011   7.355
 9327POPC   C1B48763  34.831  19.188   6.455
 9327POPC   C2B48764  34.760  19.196   6.755
 9327POPC   C3B48765  34.832  19.187   7.055
 9327POPC   C4B48766  34.791  19.199   7.355
 9328POPC   NC348767  22.955  13.644   5.555
 9328POPC   PO448768  22.946  13.641   5.855
 9328POPC   GL148769  22.961  13.584   6.155
 9328POPC   GL248770  23.044  13.479   6.155
 9328POPC   C1A48771  22.893  13.647   6.455
 9328POPC   D2A48772  22.892  13.612   6.755
 9328POPC   C3A48773  22.932  13.664   7.055
 9328POPC   C4A48774  22.956  13.663   7.355
 9328POPC   C1B48775  23.064  13.409   6.455
 9328POPC   C2B48776  23.080  13.397   6.755
 9328POPC   C3B48777  23.066  13.421   7.055
 9328POPC   C4B48778  23.089  13.402   7.355
 9329POPC   NC348779  11.291  35.385   5.555
 9329POPC   PO448780  11.312  35.368   5.855
 9329POPC   GL148781  11.347  35.352   6.155
 9329POPC   GL248782  11.437  35.450   6.155
 9329POPC   C1A48783  11.261  35.337   6.455
 9329POPC   D2A48784  11.330  35.344   6.755
 9329POPC   C3A48785  11.291  35.352   7.055
 9329POPC   C4A48786  11.254  35.304   7.355
 9329POPC   C1B48787  11.547  35.474   6.455
 9329POPC   C2B48788  11.549  35.515   6.755
 9329POPC   C3B48789  11.535  35.469   7.055
 9329POPC   C4B48790  11.533  35.453   7.355
 9330POPC   NC348791   3.532  41.521   5.555
 9330POPC   PO448792   3.545  41.590   5.855
 9330POPC   GL148793   3.499  41.525   6.155
 9330POPC   GL248794   3.454  41.606   6.155
 9330POPC   C1A48795   3.588  41.573   6.455
 9330POPC   D2A48796   3.554  41.568   6.755
 9330POPC   C3A48797   3.581  41.606   7.055
 9330POPC   C4A48798   3.522  41.563   7.355
 9330POPC   C1B48799   3.328  41.660   6.455
 9330POPC   C2B48800   3.325  41.673   6.755
 9330POPC   C3B48801   3.353  41.656   7.055
 9330POPC   C4B48802   3.316  41.707   7.355
 9331POPC   NC348803  22.163   1.257   5.555
 9331POPC   PO448804  22.115   1.177   5.855
 9331POPC   GL148805  22.157   1.188   6.155
 9331POPC   GL248806  22.282   1.184   6.155
 9331POPC   C1A48807  22.206   1.177   6.455
 9331POPC   D2A48808  22.123   1.261   6.755
 9331POPC   C3A48809  22.116   1.181   7.055
 9331POPC   C4A48810  22.147   1.175   7.355
 9331POPC   C1B48811  22.406   1.065   6.455
 9331POPC   C2B48812  22.377   1.121   6.755
 9331POPC   C3B48813  22.350   1.066   7.055
 9331POPC   C4B48814  22.422   1.115   7.355
 9332POPC   NC348815   5.819  22.149   5.555
 9332POPC   PO448816   5.853  22.137   5.855
 9332POPC   GL148817   5.827  22.169   6.155
 9332POPC   GL248818   5.913  22.234   6.155
 9332POPC   C1A48819   5.859  22.178   6.455
 9332POPC   D2A48820   5.888  22.161   6.755
 9332POPC   C3A48821   5.912  22.175   7.055
 9332POPC   C4A48822   5.849  22.180   7.355
 9332POPC   C1B48823   6.092  22.302   6.455
 9332POPC   C2B48824   6.084  22.287   6.755
 9332POPC   C3B48825   6.091  22.297   7.055
 9332POPC   C4B48826   6.015  22.328   7.355
 9333POPC   NC348827  11.311  34.623   5.555
 9333POPC   PO448828  11.253  34.557   5.855
 9333POPC   GL148829  11.287  34.542   6.155
 9333POPC   GL248830  11.161  34.516   6.155
 9333POPC   C1A48831  11.297  34.590   6.455
 9333POPC   D2A48832  11.336  34.584   6.755
 9333POPC   C3A48833  11.284  34.560   7.055
 9333POPC   C4A48834  11.272  34.574   7.355
 9333POPC   C1B48835  11.114  34.422   6.455
 9333POPC   C2B48836  11.151  34.443   6.755
 9333POPC   C3B48837  11.163  34.415   7.055
 9333POPC   C4B48838  11.081  34.398   7.355
 9334POPC   NC348839   1.203  43.871   5.555
 9334POPC   PO448840   1.194  43.909   5.855
 9334POPC   GL148841   1.210  43.880   6.155
 9334POPC   GL248842   1.293  43.769   6.155
 9334POPC   C1A48843   1.202  43.878   6.455
 9334POPC   D2A48844   1.199  43.837   6.755
 9334POPC   C3A48845   1.184  43.865   7.055
 9334POPC   C4A48846   1.217  43.850   7.355
 9334POPC   C1B48847   1.389  43.732   6.455
 9334POPC   C2B48848   1.455  43.746   6.755
 9334POPC   C3B48849   1.393  43.718   7.055
 9334POPC   C4B48850   1.397  43.780   7.355
 9335POPC   NC348851  26.856  19.873   5.555
 9335POPC   PO448852  26.865  19.805   5.855
 9335POPC   GL148853  26.829  19.853   6.155
 9335POPC   GL248854  26.747  19.959   6.155
 9335POPC   C1A48855  26.812  19.847   6.455
 9335POPC   D2A48856  26.773  19.799   6.755
 9335POPC   C3A48857  26.834  19.819   7.055
 9335POPC   C4A48858  26.837  19.856   7.355
 9335POPC   C1B48859  26.799  20.031   6.455
 9335POPC   C2B48860  26.813  20.097   6.755
 9335POPC   C3B48861  26.773  20.076   7.055
 9335POPC   C4B48862  26.787  20.058   7.355
 9336POPC   NC348863  37.680  43.119   5.555
 9336POPC   PO448864  37.673  43.103   5.855
 9336POPC   GL148865  37.716  43.104   6.155
 9336POPC   GL248866  37.678  42.952   6.155
 9336POPC   C1A48867  37.642  43.121   6.455
 9336POPC   D2A48868  37.706  43.132   6.755
 9336POPC   C3A48869  37.726  43.095   7.055
 9336POPC   C4A48870  37.663  43.075   7.355
 9336POPC   C1B48871  37.681  42.863   6.455
 9336POPC   C2B48872  37.661  42.892   6.755
 9336POPC   C3B48873  37.716  42.852   7.055
 9336POPC   C4B48874  37.690  42.835   7.355
 9337POPC   NC348875  26.069  22.126   5.555
 9337POPC   PO448876  26.038  22.128   5.855
 9337POPC   GL148877  26.054  22.126   6.155
 9337POPC   GL248878  26.119  22.261   6.155
 9337POPC   C1A48879  26.001  22.159   6.455
 9337POPC   D2A48880  26.001  22.117   6.755
 9337POPC   C3A48881  26.077  22.153   7.055
 9337POPC   C4A48882  26.043  22.202   7.355
 9337POPC   C1B48883  26.127  22.348   6.455
 9337POPC   C2B48884  26.174  22.372   6.755
 9337POPC   C3B48885  26.104  22.366   7.055
 9337POPC   C4B48886  26.145  22.436   7.355
 9338POPC   NC348887  32.208  37.652   5.555
 9338POPC   PO448888  32.291  37.683   5.855
 9338POPC   GL148889  32.297  37.672   6.155
 9338POPC   GL248890  32.170  37.571   6.155
 9338POPC   C1A48891  32.246  37.724   6.455
 9338POPC   D2A48892  32.283  37.652   6.755
 9338POPC   C3A48893  32.246  37.637   7.055
 9338POPC   C4A48894  32.293  37.716   7.355
 9338POPC   C1B48895  32.058  37.556   6.455
 9338POPC   C2B48896  32.077  37.520   6.755
 9338POPC   C3B48897  32.014  37.498   7.055
 9338POPC   C4B48898  32.005  37.502   7.355
 9339POPC   NC348899  14.356  44.707   5.555
 9339POPC   PO448900  14.406  44.630   5.855
 9339POPC   GL148901  14.411  44.704   6.155
 9339POPC   GL248902  14.404  44.566   6.155
 9339POPC   C1A48903  14.436  44.667   6.455
 9339POPC   D2A48904  14.388  44.671   6.755
 9339POPC   C3A48905  14.372  44.645   7.055
 9339POPC   C4A48906  14.428  44.700   7.355
 9339POPC   C1B48907  14.332  44.449   6.455
 9339POPC   C2B48908  14.350  44.439   6.755
 9339POPC   C3B48909  14.352  44.461   7.055
 9339POPC   C4B48910  14.348  44.423   7.355
 9340POPC   NC348911  22.986  39.219   5.555
 9340POPC   PO448912  22.946  39.206   5.855
 9340POPC   GL148913  22.950  39.220   6.155
 9340POPC   GL248914  22.974  39.374   6.155
 9340POPC   C1A48915  22.924  39.184   6.455
 9340POPC   D2A48916  22.973  39.275   6.755
 9340POPC   C3A48917  22.949  39.220   7.055
 9340POPC   C4A48918  22.914  39.240   7.355
 9340POPC   C1B48919  23.056  39.448   6.455
 9340POPC   C2B48920  23.046  39.465   6.755
 9340POPC   C3B48921  23.034  39.433   7.055
 9340POPC   C4B48922  23.040  39.486   7.355
 9341POPC   NC348923  44.652  25.241   5.555
 9341POPC   PO448924  44.655  25.297   5.855
 9341POPC   GL148925  44.686  25.235   6.155
 9341POPC   GL248926  44.618  25.194   6.155
 9341POPC   C1A48927  44.695  25.246   6.455
 9341POPC   D2A48928  44.674  25.225   6.755
 9341POPC   C3A48929  44.613  25.286   7.055
 9341POPC   C4A48930  44.673  25.268   7.355
 9341POPC   C1B48931  44.544  25.039   6.455
 9341POPC   C2B48932  44.559  25.066   6.755
 9341POPC   C3B48933  44.600  24.998   7.055
 9341POPC   C4B48934  44.579  25.056   7.355
 9342POPC   NC348935   2.739  12.077   5.555
 9342POPC   PO448936   2.810  12.060   5.855
 9342POPC   GL148937   2.813  12.086   6.155
 9342POPC   GL248938   2.886  12.005   6.155
 9342POPC   C1A48939   2.731  12.116   6.455
 9342POPC   D2A48940   2.791  12.073   6.755
 9342POPC   C3A48941   2.768  12.034   7.055
 9342POPC   C4A48942   2.760  12.069   7.355
 9342POPC   C1B48943   2.919  11.880   6.455
 9342POPC   C2B48944   2.921  11.900   6.755
 9342POPC   C3B48945   2.992  11.892   7.055
 9342POPC   C4B48946   2.977  11.886   7.355
 9343POPC   NC348947   7.464  25.312   5.555
 9343POPC   PO448948   7.408  25.224   5.855
 9343POPC   GL148949   7.463  25.298   6.155
 9343POPC   GL248950   7.460  25.132   6.155
 9343POPC   C1A48951   7.463  25.222   6.455
 9343POPC   D2A48952   7.438  25.232   6.755
 9343POPC   C3A48953   7.398  25.245   7.055
 9343POPC   C4A48954   7.415  25.221   7.355
 9343POPC   C1B48955   7.441  25.051   6.455
 9343POPC   C2B48956   7.429  25.025   6.755
 9343POPC   C3B48957   7.499  25.011   7.055
 9343POPC   C4B48958   7.474  25.030   7.355
 9344POPC   NC348959   2.013  13.594   5.555
 9344POPC   PO448960   1.996  13.600   5.855
 9344POPC   GL148961   2.030  13.641   6.155
 9344POPC   GL248962   1.908  13.523   6.155
 9344POPC   C1A48963   2.027  13.617   6.455
 9344POPC   D2A48964   2.003  13.654   6.755
 9344POPC   C3A48965   2.005  13.675   7.055
 9344POPC   C4A48966   1.952  13.654   7.355
 9344POPC   C1B48967   1.957  13.428   6.455
 9344POPC   C2B48968   1.908  13.374   6.755
 9344POPC   C3B48969   1.928  13.416   7.055
 9344POPC   C4B48970   1.946  13.430   7.355
 9345POPC   NC348971   2.017   8.932   5.555
 9345POPC   PO448972   1.951   8.961   5.855
 9345POPC   GL148973   2.037   8.979   6.155
 9345POPC   GL248974   2.080   8.948   6.155
 9345POPC   C1A48975   1.973   8.976   6.455
 9345POPC   D2A48976   2.019   8.949   6.755
 9345POPC   C3A48977   1.983   9.002   7.055
 9345POPC   C4A48978   1.965   8.934   7.355
 9345POPC   C1B48979   2.259   9.019   6.455
 9345POPC   C2B48980   2.278   9.011   6.755
 9345POPC   C3B48981   2.257   8.980   7.055
 9345POPC   C4B48982   2.232   9.023   7.355
 9346POPC   NC348983  13.638   5.140   5.555
 9346POPC   PO448984  13.662   5.103   5.855
 9346POPC   GL148985  13.659   5.071   6.155
 9346POPC   GL248986  13.559   5.151   6.155
 9346POPC   C1A48987  13.584   5.116   6.455
 9346POPC   D2A48988  13.643   5.100   6.755
 9346POPC   C3A48989  13.602   5.087   7.055
 9346POPC   C4A48990  13.673   5.120   7.355
 9346POPC   C1B48991  13.491   5.274   6.455
 9346POPC   C2B48992  13.480   5.270   6.755
 9346POPC   C3B48993  13.448   5.318   7.055
 9346POPC   C4B48994  13.476   5.235   7.355
 9347POPC   NC348995  38.426  36.163   5.555
 9347POPC   PO448996  38.422  36.165   5.855
 9347POPC   GL148997  38.456  36.159   6.155
 9347POPC   GL248998  38.548  36.205   6.155
 9347POPC   C1A48999  38.487  36.164   6.455
 9347POPC   D2A49000  38.493  36.100   6.755
 9347POPC   C3A49001  38.416  36.144   7.055
 9347POPC   C4A49002  38.432  36.092   7.355
 9347POPC   C1B49003  38.630  36.348   6.455
 9347POPC   C2B49004  38.598  36.257   6.755
 9347POPC   C3B49005  38.640  36.262   7.055
 9347POPC   C4B49006  38.634  36.335   7.355
 9348POPC   NC349007  34.590  36.137   5.555
 9348POPC   PO449008  34.593  36.122   5.855
 9348POPC   GL149009  34.590  36.151   6.155
 9348POPC   GL249010  34.536  36.191   6.155
 9348POPC   C1A49011  34.544  36.114   6.455
 9348POPC   D2A49012  34.549  36.089   6.755
 9348POPC   C3A49013  34.548  36.124   7.055
 9348POPC   C4A49014  34.558  36.161   7.355
 9348POPC   C1B49015  34.491  36.386   6.455
 9348POPC   C2B49016  34.467  36.365   6.755
 9348POPC   C3B49017  34.421  36.314   7.055
 9348POPC   C4B49018  34.441  36.357   7.355
 9349POPC   NC349019  41.523   6.620   5.555
 9349POPC   PO449020  41.544   6.640   5.855
 9349POPC   GL149021  41.573   6.662   6.155
 9349POPC   GL249022  41.653   6.590   6.155
 9349POPC   C1A49023  41.513   6.636   6.455
 9349POPC   D2A49024  41.555   6.623   6.755
 9349POPC   C3A49025  41.601   6.668   7.055
 9349POPC   C4A49026  41.572   6.605   7.355
 9349POPC   C1B49027  41.823   6.664   6.455
 9349POPC   C2B49028  41.857   6.596   6.755
 9349POPC   C3B49029  41.802   6.675   7.055
 9349POPC   C4B49030  41.842   6.625   7.355
 9350POPC   NC349031   0.450  36.170   5.555
 9350POPC   PO449032   0.397  36.169   5.855
 9350POPC   GL149033   0.451  36.167   6.155
 9350POPC   GL249034   0.415  35.977   6.155
 9350POPC   C1A49035   0.466  36.109   6.455
 9350POPC   D2A49036   0.403  36.153   6.755
 9350POPC   C3A49037   0.420  36.082   7.055
 9350POPC   C4A49038   0.448  36.089   7.355
 9350POPC   C1B49039   0.334  35.908   6.455
 9350POPC   C2B49040   0.360  35.923   6.755
 9350POPC   C3B49041   0.331  35.885   7.055
 9350POPC   C4B49042   0.314  35.919   7.355
 9351POPC   NC349043  32.275   8.199   5.555
 9351POPC   PO449044  32.210   8.162   5.855
 9351POPC   GL149045  32.235   8.240   6.155
 9351POPC   GL249046  32.239   8.127   6.155
 9351POPC   C1A49047  32.231   8.166   6.455
 9351POPC   D2A49048  32.295   8.236   6.755
 9351POPC   C3A49049  32.275   8.194   7.055
 9351POPC   C4A49050  32.215   8.186   7.355
 9351POPC   C1B49051  32.116   7.944   6.455
 9351POPC   C2B49052  32.151   8.004   6.755
 9351POPC   C3B49053  32.102   8.013   7.055
 9351POPC   C4B49054  32.111   7.948   7.355
 9352POPC   NC349055  33.778  15.946   5.555
 9352POPC   PO449056  33.833  15.924   5.855
 9352POPC   GL149057  33.786  15.952   6.155
 9352POPC   GL249058  33.864  16.039   6.155
 9352POPC   C1A49059  33.790  15.926   6.455
 9352POPC   D2A49060  33.800  15.960   6.755
 9352POPC   C3A49061  33.785  15.920   7.055
 9352POPC   C4A49062  33.758  16.003   7.355
 9352POPC   C1B49063  33.893  16.216   6.455
 9352POPC   C2B49064  33.951  16.173   6.755
 9352POPC   C3B49065  33.957  16.183   7.055
 9352POPC   C4B49066  33.926  16.180   7.355
 9353POPC   NC349067  19.022  10.516   5.555
 9353POPC   PO449068  19.074  10.554   5.855
 9353POPC   GL149069  19.071  10.489   6.155
 9353POPC   GL249070  19.060  10.610   6.155
 9353POPC   C1A49071  19.076  10.487   6.455
 9353POPC   D2A49072  19.101  10.540   6.755
 9353POPC   C3A49073  19.038  10.509   7.055
 9353POPC   C4A49074  19.070  10.554   7.355
 9353POPC   C1B49075  18.980  10.797   6.455
 9353POPC   C2B49076  18.981  10.771   6.755
 9353POPC   C3B49077  18.994  10.806   7.055
 9353POPC   C4B49078  19.006  10.731   7.355
 9354POPC   NC349079  22.203  10.574   5.555
 9354POPC   PO449080  22.185  10.572   5.855
 9354POPC   GL149081  22.166  10.565   6.155
 9354POPC   GL249082  22.075  10.630   6.155
 9354POPC   C1A49083  22.124  10.510   6.455
 9354POPC   D2A49084  22.137  10.533   6.755
 9354POPC   C3A49085  22.177  10.532   7.055
 9354POPC   C4A49086  22.181  10.544   7.355
 9354POPC   C1B49087  22.066  10.733   6.455
 9354POPC   C2B49088  22.131  10.771   6.755
 9354POPC   C3B49089  22.120  10.787   7.055
 9354POPC   C4B49090  22.125  10.727   7.355
 9355POPC   NC349091  33.043  33.793   5.555
 9355POPC   PO449092  33.071  33.807   5.855
 9355POPC   GL149093  33.036  33.807   6.155
 9355POPC   GL249094  33.005  33.649   6.155
 9355POPC   C1A49095  33.067  33.785   6.455
 9355POPC   D2A49096  33.038  33.787   6.755
 9355POPC   C3A49097  32.984  33.784   7.055
 9355POPC   C4A49098  33.031  33.831   7.355
 9355POPC   C1B49099  33.110  33.599   6.455
 9355POPC   C2B49100  33.096  33.525   6.755
 9355POPC   C3B49101  33.117  33.521   7.055
 9355POPC   C4B49102  33.077  33.522   7.355
 9356POPC   NC349103  15.139  33.850   5.555
 9356POPC   PO449104  15.210  33.810   5.855
 9356POPC   GL149105  15.130  33.761   6.155
 9356POPC   GL249106  15.253  33.716   6.155
 9356POPC   C1A49107  15.205  33.816   6.455
 9356POPC   D2A49108  15.181  33.795   6.755
 9356POPC   C3A49109  15.182  33.804   7.055
 9356POPC   C4A49110  15.229  33.813   7.355
 9356POPC   C1B49111  15.449  33.755   6.455
 9356POPC   C2B49112  15.417  33.751   6.755
 9356POPC   C3B49113  15.466  33.697   7.055
 9356POPC   C4B49114  15.383  33.754   7.355
 9357POPC   NC349115   8.992  33.001   5.555
 9357POPC   PO449116   8.932  33.029   5.855
 9357POPC   GL149117   8.924  33.054   6.155
 9357POPC   GL249118   8.903  32.971   6.155
 9357POPC   C1A49119   8.948  33.056   6.455
 9357POPC   D2A49120   8.937  32.976   6.755
 9357POPC   C3A49121   9.005  33.031   7.055
 9357POPC   C4A49122   8.978  33.042   7.355
 9357POPC   C1B49123   8.759  32.971   6.455
 9357POPC   C2B49124   8.745  32.940   6.755
 9357POPC   C3B49125   8.748  32.922   7.055
 9357POPC   C4B49126   8.698  32.910   7.355
 9358POPC   NC349127   8.147  41.527   5.555
 9358POPC   PO449128   8.212  41.587   5.855
 9358POPC   GL149129   8.231  41.551   6.155
 9358POPC   GL249130   8.120  41.475   6.155
 9358POPC   C1A49131   8.228  41.567   6.455
 9358POPC   D2A49132   8.189  41.565   6.755
 9358POPC   C3A49133   8.150  41.566   7.055
 9358POPC   C4A49134   8.148  41.582   7.355
 9358POPC   C1B49135   8.056  41.397   6.455
 9358POPC   C2B49136   8.072  41.408   6.755
 9358POPC   C3B49137   8.022  41.377   7.055
 9358POPC   C4B49138   8.006  41.372   7.355
 9359POPC   NC349139  39.270  19.102   5.555
 9359POPC   PO449140  39.213  19.080   5.855
 9359POPC   GL149141  39.273  19.020   6.155
 9359POPC   GL249142  39.121  19.045   6.155
 9359POPC   C1A49143  39.196  19.073   6.455
 9359POPC   D2A49144  39.269  19.086   6.755
 9359POPC   C3A49145  39.216  19.035   7.055
 9359POPC   C4A49146  39.257  19.043   7.355
 9359POPC   C1B49147  38.978  19.037   6.455
 9359POPC   C2B49148  38.968  19.081   6.755
 9359POPC   C3B49149  39.001  19.066   7.055
 9359POPC   C4B49150  38.973  19.059   7.355
 9360POPC   NC349151  30.715  30.679   5.555
 9360POPC   PO449152  30.689  30.670   5.855
 9360POPC   GL149153  30.686  30.649   6.155
 9360POPC   GL249154  30.780  30.682   6.155
 9360POPC   C1A49155  30.744  30.649   6.455
 9360POPC   D2A49156  30.662  30.688   6.755
 9360POPC   C3A49157  30.717  30.671   7.055
 9360POPC   C4A49158  30.686  30.675   7.355
 9360POPC   C1B49159  30.919  30.764   6.455
 9360POPC   C2B49160  30.960  30.799   6.755
 9360POPC   C3B49161  30.963  30.804   7.055
 9360POPC   C4B49162  30.930  30.741   7.355
 9361POPC   NC349163   2.786  40.006   5.555
 9361POPC   PO449164   2.747  40.003   5.855
 9361POPC   GL149165   2.780  39.986   6.155
 9361POPC   GL249166   2.605  40.022   6.155
 9361POPC   C1A49167   2.774  39.987   6.455
 9361POPC   D2A49168   2.791  39.992   6.755
 9361POPC   C3A49169   2.757  39.992   7.055
 9361POPC   C4A49170   2.735  39.978   7.355
 9361POPC   C1B49171   2.521  39.946   6.455
 9361POPC   C2B49172   2.506  39.899   6.755
 9361POPC   C3B49173   2.536  39.965   7.055
 9361POPC   C4B49174   2.518  39.976   7.355
 9362POPC   NC349175  35.393  15.151   5.555
 9362POPC   PO449176  35.388  15.220   5.855
 9362POPC   GL149177  35.360  15.178   6.155
 9362POPC   GL249178  35.264  15.287   6.155
 9362POPC   C1A49179  35.324  15.209   6.455
 9362POPC   D2A49180  35.349  15.210   6.755
 9362POPC   C3A49181  35.338  15.216   7.055
 9362POPC   C4A49182  35.385  15.202   7.355
 9362POPC   C1B49183  35.187  15.436   6.455
 9362POPC   C2B49184  35.259  15.422   6.755
 9362POPC   C3B49185  35.220  15.446   7.055
 9362POPC   C4B49186  35.280  15.408   7.355
 9363POPC   NC349187  18.247  33.784   5.555
 9363POPC   PO449188  18.267  33.840   5.855
 9363POPC   GL149189  18.305  33.760   6.155
 9363POPC   GL249190  18.266  33.629   6.155
 9363POPC   C1A49191  18.281  33.830   6.455
 9363POPC   D2A49192  18.285  33.781   6.755
 9363POPC   C3A49193  18.256  33.798   7.055
 9363POPC   C4A49194  18.273  33.829   7.355
 9363POPC   C1B49195  18.252  33.593   6.455
 9363POPC   C2B49196  18.270  33.550   6.755
 9363POPC   C3B49197  18.323  33.586   7.055
 9363POPC   C4B49198  18.274  33.582   7.355
 9364POPC   NC349199  33.062  17.497   5.555
 9364POPC   PO449200  32.978  17.518   5.855
 9364POPC   GL149201  33.048  17.480   6.155
 9364POPC   GL249202  32.886  17.555   6.155
 9364POPC   C1A49203  32.986  17.530   6.455
 9364POPC   D2A49204  33.048  17.549   6.755
 9364POPC   C3A49205  33.023  17.554   7.055
 9364POPC   C4A49206  33.064  17.521   7.355
 9364POPC   C1B49207  32.801  17.655   6.455
 9364POPC   C2B49208  32.807  17.636   6.755
 9364POPC   C3B49209  32.879  17.641   7.055
 9364POPC   C4B49210  32.859  17.724   7.355
 9365POPC   NC349211   2.770  26.826   5.555
 9365POPC   PO449212   2.750  26.786   5.855
 9365POPC   GL149213   2.801  26.798   6.155
 9365POPC   GL249214   2.676  26.720   6.155
 9365POPC   C1A49215   2.753  26.796   6.455
 9365POPC   D2A49216   2.784  26.865   6.755
 9365POPC   C3A49217   2.731  26.852   7.055
 9365POPC   C4A49218   2.784  26.812   7.355
 9365POPC   C1B49219   2.635  26.532   6.455
 9365POPC   C2B49220   2.644  26.566   6.755
 9365POPC   C3B49221   2.646  26.574   7.055
 9365POPC   C4B49222   2.659  26.552   7.355
 9366POPC   NC349223  42.302  43.890   5.555
 9366POPC   PO449224  42.343  43.881   5.855
 9366POPC   GL149225  42.306  43.901   6.155
 9366POPC   GL249226  42.349  43.731   6.155
 9366POPC   C1A49227  42.324  43.936   6.455
 9366POPC   D2A49228  42.345  43.911   6.755
 9366POPC   C3A49229  42.299  43.840   7.055
 9366POPC   C4A49230  42.370  43.843   7.355
 9366POPC   C1B49231  42.458  43.701   6.455
 9366POPC   C2B49232  42.436  43.641   6.755
 9366POPC   C3B49233  42.474  43.650   7.055
 9366POPC   C4B49234  42.429  43.679   7.355
 9367POPC   NC349235  27.579  33.018   5.555
 9367POPC   PO449236  27.619  32.976   5.855
 9367POPC   GL149237  27.574  33.006   6.155
 9367POPC   GL249238  27.425  33.015   6.155
 9367POPC   C1A49239  27.568  33.035   6.455
 9367POPC   D2A49240  27.565  33.074   6.755
 9367POPC   C3A49241  27.627  33.065   7.055
 9367POPC   C4A49242  27.574  33.066   7.355
 9367POPC   C1B49243  27.381  32.999   6.455
 9367POPC   C2B49244  27.300  33.039   6.755
 9367POPC   C3B49245  27.300  32.950   7.055
 9367POPC   C4B49246  27.386  33.031   7.355
 9368POPC   NC349247  26.778  11.274   5.555
 9368POPC   PO449248  26.841  11.307   5.855
 9368POPC   GL149249  26.832  11.260   6.155
 9368POPC   GL249250  26.845  11.150   6.155
 9368POPC   C1A49251  26.806  11.338   6.455
 9368POPC   D2A49252  26.828  11.258   6.755
 9368POPC   C3A49253  26.792  11.283   7.055
 9368POPC   C4A49254  26.820  11.296   7.355
 9368POPC   C1B49255  26.842  11.068   6.455
 9368POPC   C2B49256  26.826  11.021   6.755
 9368POPC   C3B49257  26.858  11.060   7.055
 9368POPC   C4B49258  26.853  11.060   7.355
 9369POPC   NC349259   7.456  19.063   5.555
 9369POPC   PO449260   7.371  19.108   5.855
 9369POPC   GL149261   7.467  19.101   6.155
 9369POPC   GL249262   7.570  19.004   6.155
 9369POPC   C1A49263   7.386  19.015   6.455
 9369POPC   D2A49264   7.462  19.022   6.755
 9369POPC   C3A49265   7.416  19.044   7.055
 9369POPC   C4A49266   7.404  19.063   7.355
 9369POPC   C1B49267   7.622  19.032   6.455
 9369POPC   C2B49268   7.629  19.026   6.755
 9369POPC   C3B49269   7.707  19.089   7.055
 9369POPC   C4B49270   7.629  19.019   7.355
 9370POPC   NC349271  32.217  44.674   5.555
 9370POPC   PO449272  32.264  44.705   5.855
 9370POPC   GL149273  32.207  44.706   6.155
 9370POPC   GL249274  32.184  44.585   6.155
 9370POPC   C1A49275  32.274  44.712   6.455
 9370POPC   D2A49276  32.265  44.663   6.755
 9370POPC   C3A49277  32.242  44.657   7.055
 9370POPC   C4A49278  32.234  44.695   7.355
 9370POPC   C1B49279  32.123  44.475   6.455
 9370POPC   C2B49280  32.118  44.447   6.755
 9370POPC   C3B49281  32.054  44.503   7.055
 9370POPC   C4B49282  32.107  44.454   7.355
 9371POPC   NC349283  26.070   5.067   5.555
 9371POPC   PO449284  25.998   5.045   5.855
 9371POPC   GL149285  26.088   5.050   6.155
 9371POPC   GL249286  26.151   5.157   6.155
 9371POPC   C1A49287  26.057   5.137   6.455
 9371POPC   D2A49288  25.992   5.086   6.755
 9371POPC   C3A49289  26.002   5.085   7.055
 9371POPC   C4A49290  25.993   5.075   7.355
 9371POPC   C1B49291  26.252   5.146   6.455
 9371POPC   C2B49292  26.281   5.164   6.755
 9371POPC   C3B49293  26.276   5.140   7.055
 9371POPC   C4B49294  26.263   5.216   7.355
 9372POPC   NC349295  11.281  15.139   5.555
 9372POPC   PO449296  11.333  15.140   5.855
 9372POPC   GL149297  11.290  15.210   6.155
 9372POPC   GL249298  11.210  15.152   6.155
 9372POPC   C1A49299  11.292  15.149   6.455
 9372POPC   D2A49300  11.312  15.211   6.755
 9372POPC   C3A49301  11.322  15.227   7.055
 9372POPC   C4A49302  11.343  15.164   7.355
 9372POPC   C1B49303  11.015  15.183   6.455
 9372POPC   C2B49304  11.010  15.147   6.755
 9372POPC   C3B49305  11.037  15.129   7.055
 9372POPC   C4B49306  11.100  15.115   7.355
 9373POPC   NC349307   2.788  24.482   5.555
 9373POPC   PO449308   2.744  24.454   5.855
 9373POPC   GL149309   2.774  24.478   6.155
 9373POPC   GL249310   2.633  24.547   6.155
 9373POPC   C1A49311   2.722  24.470   6.455
 9373POPC   D2A49312   2.797  24.503   6.755
 9373POPC   C3A49313   2.811  24.530   7.055
 9373POPC   C4A49314   2.752  24.492   7.355
 9373POPC   C1B49315   2.546  24.540   6.455
 9373POPC   C2B49316   2.532  24.624   6.755
 9373POPC   C3B49317   2.547  24.582   7.055
 9373POPC   C4B49318   2.556  24.563   7.355
 9374POPC   NC349319  23.761  23.706   5.555
 9374POPC   PO449320  23.718  23.684   5.855
 9374POPC   GL149321  23.670  23.712   6.155
 9374POPC   GL249322  23.561  23.725   6.155
 9374POPC   C1A49323  23.735  23.666   6.455
 9374POPC   D2A49324  23.673  23.727   6.755
 9374POPC   C3A49325  23.704  23.714   7.055
 9374POPC   C4A49326  23.746  23.762   7.355
 9374POPC   C1B49327  23.485  23.864   6.455
 9374POPC   C2B49328  23.446  23.850   6.755
 9374POPC   C3B49329  23.518  23.820   7.055
 9374POPC   C4B49330  23.513  23.847   7.355
 9375POPC   NC349331  35.353  34.559   5.555
 9375POPC   PO449332  35.372  34.533   5.855
 9375POPC   GL149333  35.329  34.616   6.155
 9375POPC   GL249334  35.303  34.505   6.155
 9375POPC   C1A49335  35.333  34.580   6.455
 9375POPC   D2A49336  35.323  34.555   6.755
 9375POPC   C3A49337  35.386  34.614   7.055
 9375POPC   C4A49338  35.328  34.552   7.355
 9375POPC   C1B49339  35.276  34.332   6.455
 9375POPC   C2B49340  35.221  34.380   6.755
 9375POPC   C3B49341  35.194  34.327   7.055
 9375POPC   C4B49342  35.251  34.347   7.355
 9376POPC   NC349343  42.367  43.111   5.555
 9376POPC   PO449344  42.303  43.103   5.855
 9376POPC   GL149345  42.383  43.131   6.155
 9376POPC   GL249346  42.311  42.999   6.155
 9376POPC   C1A49347  42.347  43.139   6.455
 9376POPC   D2A49348  42.301  43.077   6.755
 9376POPC   C3A49349  42.382  43.124   7.055
 9376POPC   C4A49350  42.328  43.061   7.355
 9376POPC   C1B49351  42.293  42.838   6.455
 9376POPC   C2B49352  42.283  42.885   6.755
 9376POPC   C3B49353  42.302  42.880   7.055
 9376POPC   C4B49354  42.255  42.889   7.355
 9377POPC   NC349355   3.527  13.610   5.555
 9377POPC   PO449356   3.582  13.667   5.855
 9377POPC   GL149357   3.571  13.608   6.155
 9377POPC   GL249358   3.651  13.743   6.155
 9377POPC   C1A49359   3.564  13.651   6.455
 9377POPC   D2A49360   3.499  13.590   6.755
 9377POPC   C3A49361   3.545  13.638   7.055
 9377POPC   C4A49362   3.532  13.592   7.355
 9377POPC   C1B49363   3.739  13.761   6.455
 9377POPC   C2B49364   3.711  13.760   6.755
 9377POPC   C3B49365   3.742  13.725   7.055
 9377POPC   C4B49366   3.740  13.728   7.355
 9378POPC   NC349367   1.184  15.975   5.555
 9378POPC   PO449368   1.263  16.000   5.855
 9378POPC   GL149369   1.247  15.981   6.155
 9378POPC   GL249370   1.291  16.055   6.155
 9378POPC   C1A49371   1.190  15.927   6.455
 9378POPC   D2A49372   1.195  15.982   6.755
 9378POPC   C3A49373   1.178  15.950   7.055
 9378POPC   C4A49374   1.245  15.913   7.355
 9378POPC   C1B49375   1.409  16.055   6.455
 9378POPC   C2B49376   1.425  16.018   6.755
 9378POPC   C3B49377   1.395  16.016   7.055
 9378POPC   C4B49378   1.482  16.037   7.355
 9379POPC   NC349379  21.349   3.568   5.555
 9379POPC   PO449380  21.371   3.544   5.855
 9379POPC   GL149381  21.355   3.515   6.155
 9379POPC   GL249382  21.284   3.475   6.155
 9379POPC   C1A49383  21.434   3.547   6.455
 9379POPC   D2A49384  21.349   3.583   6.755
 9379POPC   C3A49385  21.384   3.525   7.055
 9379POPC   C4A49386  21.342   3.521   7.355
 9379POPC   C1B49387  21.168   3.371   6.455
 9379POPC   C2B49388  21.248   3.405   6.755
 9379POPC   C3B49389  21.236   3.326   7.055
 9379POPC   C4B49390  21.186   3.347   7.355
 9380POPC   NC349391   2.024  11.339   5.555
 9380POPC   PO449392   1.940  11.298   5.855
 9380POPC   GL149393   1.957  11.258   6.155
 9380POPC   GL249394   1.990  11.208   6.155
 9380POPC   C1A49395   1.953  11.299   6.455
 9380POPC   D2A49396   2.029  11.285   6.755
 9380POPC   C3A49397   1.998  11.318   7.055
 9380POPC   C4A49398   1.971  11.253   7.355
 9380POPC   C1B49399   2.018  11.038   6.455
 9380POPC   C2B49400   2.096  11.035   6.755
 9380POPC   C3B49401   2.031  11.107   7.055
 9380POPC   C4B49402   2.083  11.098   7.355
 9381POPC   NC349403  10.482  23.747   5.555
 9381POPC   PO449404  10.572  23.689   5.855
 9381POPC   GL149405  10.519  23.699   6.155
 9381POPC   GL249406  10.444  23.708   6.155
 9381POPC   C1A49407  10.531  23.691   6.455
 9381POPC   D2A49408  10.489  23.708   6.755
 9381POPC   C3A49409  10.545  23.757   7.055
 9381POPC   C4A49410  10.544  23.695   7.355
 9381POPC   C1B49411  10.280  23.716   6.455
 9381POPC   C2B49412  10.259  23.702   6.755
 9381POPC   C3B49413  10.297  23.678   7.055
 9381POPC   C4B49414  10.266  23.659   7.355
 9382POPC   NC349415  28.375   8.206   5.555
 9382POPC   PO449416  28.354   8.218   5.855
 9382POPC   GL149417  28.323   8.241   6.155
 9382POPC   GL249418  28.457   8.113   6.155
 9382POPC   C1A49419  28.397   8.246   6.455
 9382POPC   D2A49420  28.408   8.219   6.755
 9382POPC   C3A49421  28.343   8.150   7.055
 9382POPC   C4A49422  28.350   8.180   7.355
 9382POPC   C1B49423  28.567   8.031   6.455
 9382POPC   C2B49424  28.567   8.031   6.755
 9382POPC   C3B49425  28.573   8.047   7.055
 9382POPC   C4B49426  28.507   8.049   7.355
 9383POPC   NC349427   5.868  20.651   5.555
 9383POPC   PO449428   5.872  20.566   5.855
 9383POPC   GL149429   5.911  20.582   6.155
 9383POPC   GL249430   5.932  20.704   6.155
 9383POPC   C1A49431   5.839  20.612   6.455
 9383POPC   D2A49432   5.830  20.634   6.755
 9383POPC   C3A49433   5.896  20.652   7.055
 9383POPC   C4A49434   5.866  20.638   7.355
 9383POPC   C1B49435   5.987  20.816   6.455
 9383POPC   C2B49436   5.996  20.812   6.755
 9383POPC   C3B49437   6.028  20.874   7.055
 9383POPC   C4B49438   5.951  20.877   7.355
 9384POPC   NC349439  29.169  38.418   5.555
 9384POPC   PO449440  29.168  38.478   5.855
 9384POPC   GL149441  29.134  38.420   6.155
 9384POPC   GL249442  29.135  38.345   6.155
 9384POPC   C1A49443  29.178  38.422   6.455
 9384POPC   D2A49444  29.156  38.469   6.755
 9384POPC   C3A49445  29.153  38.473   7.055
 9384POPC   C4A49446  29.161  38.432   7.355
 9384POPC   C1B49447  29.005  38.267   6.455
 9384POPC   C2B49448  29.046  38.258   6.755
 9384POPC   C3B49449  29.102  38.204   7.055
 9384POPC   C4B49450  29.095  38.210   7.355
 9385POPC   NC349451  10.494  38.410   5.555
 9385POPC   PO449452  10.510  38.418   5.855
 9385POPC   GL149453  10.548  38.409   6.155
 9385POPC   GL249454  10.660  38.516   6.155
 9385POPC   C1A49455  10.509  38.467   6.455
 9385POPC   D2A49456  10.527  38.459   6.755
 9385POPC   C3A49457  10.528  38.416   7.055
 9385POPC   C4A49458  10.526  38.429   7.355
 9385POPC   C1B49459  10.705  38.558   6.455
 9385POPC   C2B49460  10.774  38.599   6.755
 9385POPC   C3B49461  10.711  38.591   7.055
 9385POPC   C4B49462  10.771  38.608   7.355
 9386POPC   NC349463  32.298  17.551   5.555
 9386POPC   PO449464  32.223  17.470   5.855
 9386POPC   GL149465  32.208  17.521   6.155
 9386POPC   GL249466  32.164  17.427   6.155
 9386POPC   C1A49467  32.267  17.468   6.455
 9386POPC   D2A49468  32.241  17.471   6.755
 9386POPC   C3A49469  32.216  17.538   7.055
 9386POPC   C4A49470  32.199  17.472   7.355
 9386POPC   C1B49471  32.114  17.348   6.455
 9386POPC   C2B49472  32.119  17.311   6.755
 9386POPC   C3B49473  32.120  17.301   7.055
 9386POPC   C4B49474  32.093  17.265   7.355
 9387POPC   NC349475  44.656  35.382   5.555
 9387POPC   PO449476  44.706  35.373   5.855
 9387POPC   GL149477  44.650  35.393   6.155
 9387POPC   GL249478  44.663  35.197   6.155
 9387POPC   C1A49479  44.642  35.397   6.455
 9387POPC   D2A49480  44.625  35.305   6.755
 9387POPC   C3A49481  44.638  35.322   7.055
 9387POPC   C4A49482  44.698  35.398   7.355
 9387POPC   C1B49483  44.626  35.054   6.455
 9387POPC   C2B49484  44.628  35.095   6.755
 9387POPC   C3B49485  44.692  35.075   7.055
 9387POPC   C4B49486  44.650  35.109   7.355
 9388POPC   NC349487  19.109  43.071   5.555
 9388POPC   PO449488  19.038  43.147   5.855
 9388POPC   GL149489  19.034  43.152   6.155
 9388POPC   GL249490  19.197  43.087   6.155
 9388POPC   C1A49491  19.100  43.061   6.455
 9388POPC   D2A49492  19.090  43.113   6.755
 9388POPC   C3A49493  19.078  43.123   7.055
 9388POPC   C4A49494  19.060  43.071   7.355
 9388POPC   C1B49495  19.286  42.970   6.455
 9388POPC   C2B49496  19.297  42.948   6.755
 9388POPC   C3B49497  19.296  43.044   7.055
 9388POPC   C4B49498  19.249  43.038   7.355
 9389POPC   NC349499  43.157  43.123   5.555
 9389POPC   PO449500  43.085  43.145   5.855
 9389POPC   GL149501  43.137  43.062   6.155
 9389POPC   GL249502  43.241  43.206   6.155
 9389POPC   C1A49503  43.159  43.070   6.455
 9389POPC   D2A49504  43.062  43.146   6.755
 9389POPC   C3A49505  43.131  43.150   7.055
 9389POPC   C4A49506  43.063  43.062   7.355
 9389POPC   C1B49507  43.317  43.271   6.455
 9389POPC   C2B49508  43.369  43.243   6.755
 9389POPC   C3B49509  43.344  43.250   7.055
 9389POPC   C4B49510  43.331  43.277   7.355
 9390POPC   NC349511  34.567  34.611   5.555
 9390POPC   PO449512  34.551  34.594   5.855
 9390POPC   GL149513  34.535  34.564   6.155
 9390POPC   GL249514  34.662  34.613   6.155
 9390POPC   C1A49515  34.557  34.556   6.455
 9390POPC   D2A49516  34.569  34.588   6.755
 9390POPC   C3A49517  34.604  34.623   7.055
 9390POPC   C4A49518  34.598  34.624   7.355
 9390POPC   C1B49519  34.816  34.552   6.455
 9390POPC   C2B49520  34.840  34.618   6.755
 9390POPC   C3B49521  34.820  34.543   7.055
 9390POPC   C4B49522  34.819  34.549   7.355
 9391POPC   NC349523  31.456  19.071   5.555
 9391POPC   PO449524  31.435  19.092   5.855
 9391POPC   GL149525  31.517  19.056   6.155
 9391POPC   GL249526  31.581  18.924   6.155
 9391POPC   C1A49527  31.520  19.047   6.455
 9391POPC   D2A49528  31.472  19.075   6.755
 9391POPC   C3A49529  31.447  19.014   7.055
 9391POPC   C4A49530  31.459  19.036   7.355
 9391POPC   C1B49531  31.624  18.821   6.455
 9391POPC   C2B49532  31.547  18.836   6.755
 9391POPC   C3B49533  31.586  18.797   7.055
 9391POPC   C4B49534  31.620  18.811   7.355
 9392POPC   NC349535  32.262  15.966   5.555
 9392POPC   PO449536  32.237  15.998   5.855
 9392POPC   GL149537  32.204  15.990   6.155
 9392POPC   GL249538  32.387  15.945   6.155
 9392POPC   C1A49539  32.287  16.002   6.455
 9392POPC   D2A49540  32.284  15.964   6.755
 9392POPC   C3A49541  32.232  16.001   7.055
 9392POPC   C4A49542  32.233  15.948   7.355
 9392POPC   C1B49543  32.450  16.003   6.455
 9392POPC   C2B49544  32.472  15.976   6.755
 9392POPC   C3B49545  32.489  16.003   7.055
 9392POPC   C4B49546  32.481  15.984   7.355
 9393POPC   NC349547  12.826  43.919   5.555
 9393POPC   PO449548  12.851  43.920   5.855
 9393POPC   GL149549  12.868  43.929   6.155
 9393POPC   GL249550  13.003  43.905   6.155
 9393POPC   C1A49551  12.881  43.926   6.455
 9393POPC   D2A49552  12.806  43.880   6.755
 9393POPC   C3A49553  12.885  43.914   7.055
 9393POPC   C4A49554  12.876  43.888   7.355
 9393POPC   C1B49555  13.103  43.885   6.455
 9393POPC   C2B49556  13.132  43.943   6.755
 9393POPC   C3B49557  13.111  43.946   7.055
 9393POPC   C4B49558  13.052  43.888   7.355
 9394POPC   NC349559   8.966  28.333   5.555
 9394POPC   PO449560   9.018  28.376   5.855
 9394POPC   GL149561   8.941  28.344   6.155
 9394POPC   GL249562   8.895  28.300   6.155
 9394POPC   C1A49563   8.988  28.342   6.455
 9394POPC   D2A49564   8.949  28.390   6.755
 9394POPC   C3A49565   8.934  28.379   7.055
 9394POPC   C4A49566   8.966  28.406   7.355
 9394POPC   C1B49567   8.757  28.365   6.455
 9394POPC   C2B49568   8.705  28.368   6.755
 9394POPC   C3B49569   8.751  28.306   7.055
 9394POPC   C4B49570   8.753  28.320   7.355
 9395POPC   NC349571  26.058  25.236   5.555
 9395POPC   PO449572  26.020  25.303   5.855
 9395POPC   GL149573  25.993  25.228   6.155
 9395POPC   GL249574  25.972  25.157   6.155
 9395POPC   C1A49575  26.032  25.284   6.455
 9395POPC   D2A49576  26.051  25.242   6.755
 9395POPC   C3A49577  25.997  25.250   7.055
 9395POPC   C4A49578  26.072  25.265   7.355
 9395POPC   C1B49579  25.965  25.053   6.455
 9395POPC   C2B49580  25.982  24.972   6.755
 9395POPC   C3B49581  26.015  25.053   7.055
 9395POPC   C4B49582  25.990  25.016   7.355
 9396POPC   NC349583   7.399  26.078   5.555
 9396POPC   PO449584   7.468  26.072   5.855
 9396POPC   GL149585   7.450  26.032   6.155
 9396POPC   GL249586   7.280  26.169   6.155
 9396POPC   C1A49587   7.430  26.054   6.455
 9396POPC   D2A49588   7.404  26.032   6.755
 9396POPC   C3A49589   7.418  26.049   7.055
 9396POPC   C4A49590   7.450  26.037   7.355
 9396POPC   C1B49591   7.266  26.257   6.455
 9396POPC   C2B49592   7.227  26.160   6.755
 9396POPC   C3B49593   7.196  26.196   7.055
 9396POPC   C4B49594   7.246  26.203   7.355
 9397POPC   NC349595   7.421  29.106   5.555
 9397POPC   PO449596   7.467  29.166   5.855
 9397POPC   GL149597   7.383  29.123   6.155
 9397POPC   GL249598   7.520  29.162   6.155
 9397POPC   C1A49599   7.438  29.137   6.455
 9397POPC   D2A49600   7.371  29.161   6.755
 9397POPC   C3A49601   7.418  29.192   7.055
 9397POPC   C4A49602   7.448  29.133   7.355
 9397POPC   C1B49603   7.641  29.229   6.455
 9397POPC   C2B49604   7.681  29.162   6.755
 9397POPC   C3B49605   7.693  29.196   7.055
 9397POPC   C4B49606   7.632  29.218   7.355
 9398POPC   NC349607  38.417   8.182   5.555
 9398POPC   PO449608  38.491   8.168   5.855
 9398POPC   GL149609  38.484   8.153   6.155
 9398POPC   GL249610  38.581   8.231   6.155
 9398POPC   C1A49611  38.471   8.218   6.455
 9398POPC   D2A49612  38.494   8.215   6.755
 9398POPC   C3A49613  38.421   8.182   7.055
 9398POPC   C4A49614  38.484   8.240   7.355
 9398POPC   C1B49615  38.725   8.157   6.455
 9398POPC   C2B49616  38.725   8.188   6.755
 9398POPC   C3B49617  38.717   8.211   7.055
 9398POPC   C4B49618  38.670   8.171   7.355
 9399POPC   NC349619   7.374  12.838   5.555
 9399POPC   PO449620   7.445  12.896   5.855
 9399POPC   GL149621   7.454  12.829   6.155
 9399POPC   GL249622   7.460  12.970   6.155
 9399POPC   C1A49623   7.457  12.887   6.455
 9399POPC   D2A49624   7.417  12.802   6.755
 9399POPC   C3A49625   7.451  12.815   7.055
 9399POPC   C4A49626   7.468  12.855   7.355
 9399POPC   C1B49627   7.568  13.085   6.455
 9399POPC   C2B49628   7.613  13.044   6.755
 9399POPC   C3B49629   7.613  13.005   7.055
 9399POPC   C4B49630   7.567  13.014   7.355
 9400POPC   NC349631   8.193  24.478   5.555
 9400POPC   PO449632   8.190  24.485   5.855
 9400POPC   GL149633   8.226  24.481   6.155
 9400POPC   GL249634   8.095  24.449   6.155
 9400POPC   C1A49635   8.235  24.459   6.455
 9400POPC   D2A49636   8.231  24.507   6.755
 9400POPC   C3A49637   8.162  24.495   7.055
 9400POPC   C4A49638   8.214  24.491   7.355
 9400POPC   C1B49639   8.006  24.454   6.455
 9400POPC   C2B49640   7.927  24.390   6.755
 9400POPC   C3B49641   7.946  24.422   7.055
 9400POPC   C4B49642   7.979  24.417   7.355
 9401POPC   NC349643  32.233  36.926   5.555
 9401POPC   PO449644  32.214  36.887   5.855
 9401POPC   GL149645  32.208  36.930   6.155
 9401POPC   GL249646  32.266  37.008   6.155
 9401POPC   C1A49647  32.199  36.946   6.455
 9401POPC   D2A49648  32.235  36.931   6.755
 9401POPC   C3A49649  32.254  36.859   7.055
 9401POPC   C4A49650  32.272  36.891   7.355
 9401POPC   C1B49651  32.281  37.193   6.455
 9401POPC   C2B49652  32.321  37.187   6.755
 9401POPC   C3B49653  32.282  37.190   7.055
 9401POPC   C4B49654  32.283  37.183   7.355
 9402POPC   NC349655  28.341  25.262   5.555
 9402POPC   PO449656  28.400  25.281   5.855
 9402POPC   GL149657  28.384  25.231   6.155
 9402POPC   GL249658  28.306  25.208   6.155
 9402POPC   C1A49659  28.380  25.281   6.455
 9402POPC   D2A49660  28.369  25.261   6.755
 9402POPC   C3A49661  28.351  25.303   7.055
 9402POPC   C4A49662  28.373  25.243   7.355
 9402POPC   C1B49663  28.185  25.111   6.455
 9402POPC   C2B49664  28.247  25.073   6.755
 9402POPC   C3B49665  28.198  25.066   7.055
 9402POPC   C4B49666  28.194  25.072   7.355
 9403POPC   NC349667  43.933   1.260   5.555
 9403POPC   PO449668  43.896   1.222   5.855
 9403POPC   GL149669  43.885   1.254   6.155
 9403POPC   GL249670  43.999   1.326   6.155
 9403POPC   C1A49671  43.885   1.201   6.455
 9403POPC   D2A49672  43.929   1.215   6.755
 9403POPC   C3A49673  43.885   1.239   7.055
 9403POPC   C4A49674  43.867   1.216   7.355
 9403POPC   C1B49675  44.012   1.408   6.455
 9403POPC   C2B49676  43.991   1.427   6.755
 9403POPC   C3B49677  44.047   1.393   7.055
 9403POPC   C4B49678  44.000   1.435   7.355
 9404POPC   NC349679  23.696   8.960   5.555
 9404POPC   PO449680  23.764   8.988   5.855
 9404POPC   GL149681  23.721   8.924   6.155
 9404POPC   GL249682  23.623   9.067   6.155
 9404POPC   C1A49683  23.755   8.978   6.455
 9404POPC   D2A49684  23.744   8.991   6.755
 9404POPC   C3A49685  23.731   9.017   7.055
 9404POPC   C4A49686  23.673   8.992   7.355
 9404POPC   C1B49687  23.592   9.154   6.455
 9404POPC   C2B49688  23.606   9.153   6.755
 9404POPC   C3B49689  23.588   9.200   7.055
 9404POPC   C4B49690  23.617   9.193   7.355
 9405POPC   NC349691   3.535  20.589   5.555
 9405POPC   PO449692   3.573  20.630   5.855
 9405POPC   GL149693   3.550  20.586   6.155
 9405POPC   GL249694   3.445  20.658   6.155
 9405POPC   C1A49695   3.577  20.588   6.455
 9405POPC   D2A49696   3.526  20.646   6.755
 9405POPC   C3A49697   3.502  20.657   7.055
 9405POPC   C4A49698   3.543  20.563   7.355
 9405POPC   C1B49699   3.311  20.754   6.455
 9405POPC   C2B49700   3.314  20.749   6.755
 9405POPC   C3B49701   3.347  20.739   7.055
 9405POPC   C4B49702   3.399  20.823   7.355
 9406POPC   NC349703  19.081  36.120   5.555
 9406POPC   PO449704  19.076  36.156   5.855
 9406POPC   GL149705  19.065  36.169   6.155
 9406POPC   GL249706  19.149  36.063   6.155
 9406POPC   C1A49707  19.066  36.173   6.455
 9406POPC   D2A49708  19.016  36.177   6.755
 9406POPC   C3A49709  19.016  36.109   7.055
 9406POPC   C4A49710  19.052  36.112   7.355
 9406POPC   C1B49711  19.297  35.967   6.455
 9406POPC   C2B49712  19.224  36.038   6.755
 9406POPC   C3B49713  19.233  36.039   7.055
 9406POPC   C4B49714  19.271  36.006   7.355
 9407POPC   NC349715  29.951  27.577   5.555
 9407POPC   PO449716  29.888  27.634   5.855
 9407POPC   GL149717  29.906  27.639   6.155
 9407POPC   GL249718  30.061  27.704   6.155
 9407POPC   C1A49719  29.953  27.630   6.455
 9407POPC   D2A49720  29.957  27.569   6.755
 9407POPC   C3A49721  29.919  27.565   7.055
 9407POPC   C4A49722  29.891  27.559   7.355
 9407POPC   C1B49723  30.084  27.740   6.455
 9407POPC   C2B49724  30.111  27.736   6.755
 9407POPC   C3B49725  30.116  27.730   7.055
 9407POPC   C4B49726  30.104  27.755   7.355
 9408POPC   NC349727  19.060  41.533   5.555
 9408POPC   PO449728  19.012  41.577   5.855
 9408POPC   GL149729  19.062  41.600   6.155
 9408POPC   GL249730  18.977  41.653   6.155
 9408POPC   C1A49731  19.020  41.512   6.455
 9408POPC   D2A49732  19.095  41.587   6.755
 9408POPC   C3A49733  19.081  41.511   7.055
 9408POPC   C4A49734  19.035  41.584   7.355
 9408POPC   C1B49735  18.882  41.703   6.455
 9408POPC   C2B49736  18.915  41.787   6.755
 9408POPC   C3B49737  18.843  41.701   7.055
 9408POPC   C4B49738  18.860  41.776   7.355
 9409POPC   NC349739   5.862  19.094   5.555
 9409POPC   PO449740   5.899  19.022   5.855
 9409POPC   GL149741   5.919  19.082   6.155
 9409POPC   GL249742   6.011  19.081   6.155
 9409POPC   C1A49743   5.839  19.013   6.455
 9409POPC   D2A49744   5.820  19.060   6.755
 9409POPC   C3A49745   5.919  19.098   7.055
 9409POPC   C4A49746   5.893  19.023   7.355
 9409POPC   C1B49747   6.067  19.135   6.455
 9409POPC   C2B49748   6.109  19.115   6.755
 9409POPC   C3B49749   6.104  19.062   7.055
 9409POPC   C4B49750   6.096  19.050   7.355
 9410POPC   NC349751   7.458  36.126   5.555
 9410POPC   PO449752   7.383  36.109   5.855
 9410POPC   GL149753   7.433  36.101   6.155
 9410POPC   GL249754   7.436  36.222   6.155
 9410POPC   C1A49755   7.394  36.168   6.455
 9410POPC   D2A49756   7.383  36.157   6.755
 9410POPC   C3A49757   7.399  36.080   7.055
 9410POPC   C4A49758   7.426  36.117   7.355
 9410POPC   C1B49759   7.480  36.402   6.455
 9410POPC   C2B49760   7.494  36.343   6.755
 9410POPC   C3B49761   7.574  36.329   7.055
 9410POPC   C4B49762   7.539  36.306   7.355
 9411POPC   NC349763  17.505  40.747   5.555
 9411POPC   PO449764  17.526  40.760   5.855
 9411POPC   GL149765  17.511  40.819   6.155
 9411POPC   GL249766  17.435  40.680   6.155
 9411POPC   C1A49767  17.507  40.734   6.455
 9411POPC   D2A49768  17.536  40.787   6.755
 9411POPC   C3A49769  17.462  40.784   7.055
 9411POPC   C4A49770  17.457  40.796   7.355
 9411POPC   C1B49771  17.445  40.551   6.455
 9411POPC   C2B49772  17.432  40.543   6.755
 9411POPC   C3B49773  17.469  40.511   7.055
 9411POPC   C4B49774  17.407  40.554   7.355
 9412POPC   NC349775  20.602  36.897   5.555
 9412POPC   PO449776  20.607  36.897   5.855
 9412POPC   GL149777  20.592  36.860   6.155
 9412POPC   GL249778  20.640  37.058   6.155
 9412POPC   C1A49779  20.609  36.919   6.455
 9412POPC   D2A49780  20.619  36.900   6.755
 9412POPC   C3A49781  20.600  36.950   7.055
 9412POPC   C4A49782  20.588  36.921   7.355
 9412POPC   C1B49783  20.748  37.121   6.455
 9412POPC   C2B49784  20.713  37.129   6.755
 9412POPC   C3B49785  20.787  37.152   7.055
 9412POPC   C4B49786  20.761  37.075   7.355
 9413POPC   NC349787  32.201  28.362   5.555
 9413POPC   PO449788  32.284  28.362   5.855
 9413POPC   GL149789  32.297  28.367   6.155
 9413POPC   GL249790  32.231  28.259   6.155
 9413POPC   C1A49791  32.252  28.325   6.455
 9413POPC   D2A49792  32.209  28.339   6.755
 9413POPC   C3A49793  32.298  28.352   7.055
 9413POPC   C4A49794  32.278  28.379   7.355
 9413POPC   C1B49795  32.139  28.138   6.455
 9413POPC   C2B49796  32.174  28.115   6.755
 9413POPC   C3B49797  32.147  28.135   7.055
 9413POPC   C4B49798  32.132  28.126   7.355
 9414POPC   NC349799  44.663  29.905   5.555
 9414POPC   PO449800  44.649  29.892   5.855
 9414POPC   GL149801  44.703  29.893   6.155
 9414POPC   GL249802  44.765  29.909   6.155
 9414POPC   C1A49803  44.648  29.961   6.455
 9414POPC   D2A49804  44.691  29.952   6.755
 9414POPC   C3A49805  44.667  29.931   7.055
 9414POPC   C4A49806  44.628  29.907   7.355
 9414POPC   C1B49807  44.838  29.814   6.455
 9414POPC   C2B49808  44.843  29.760   6.755
 9414POPC   C3B49809  44.925  29.772   7.055
 9414POPC   C4B49810  44.844  29.846   7.355
 9415POPC   NC349811  41.566   9.768   5.555
 9415POPC   PO449812  41.591   9.710   5.855
 9415POPC   GL149813  41.582   9.759   6.155
 9415POPC   GL249814  41.655   9.812   6.155
 9415POPC   C1A49815  41.547   9.759   6.455
 9415POPC   D2A49816  41.526   9.764   6.755
 9415POPC   C3A49817  41.557   9.776   7.055
 9415POPC   C4A49818  41.527   9.749   7.355
 9415POPC   C1B49819  41.766   9.948   6.455
 9415POPC   C2B49820  41.765   9.971   6.755
 9415POPC   C3B49821  41.715   9.970   7.055
 9415POPC   C4B49822  41.674   9.922   7.355
 9416POPC   NC349823  17.494  44.711   5.555
 9416POPC   PO449824  17.483  44.653   5.855
 9416POPC   GL149825  17.458  44.705   6.155
 9416POPC   GL249826  17.496  44.755   6.155
 9416POPC   C1A49827  17.517  44.641   6.455
 9416POPC   D2A49828  17.501  44.710   6.755
 9416POPC   C3A49829  17.549  44.616   7.055
 9416POPC   C4A49830  17.477  44.623   7.355
 9416POPC   C1B49831  17.594  44.874   6.455
 9416POPC   C2B49832  17.587  44.915   6.755
 9416POPC   C3B49833  17.553  44.879   7.055
 9416POPC   C4B49834  17.631  44.932   7.355
 9417POPC   NC349835  12.053  22.187   5.555
 9417POPC   PO449836  12.046  22.179   5.855
 9417POPC   GL149837  12.065  22.127   6.155
 9417POPC   GL249838  11.998  22.082   6.155
 9417POPC   C1A49839  12.093  22.179   6.455
 9417POPC   D2A49840  12.083  22.160   6.755
 9417POPC   C3A49841  12.105  22.150   7.055
 9417POPC   C4A49842  12.125  22.135   7.355
 9417POPC   C1B49843  11.879  22.023   6.455
 9417POPC   C2B49844  11.848  22.051   6.755
 9417POPC   C3B49845  11.804  22.070   7.055
 9417POPC   C4B49846  11.868  22.046   7.355
 9418POPC   NC349847  41.565   8.942   5.555
 9418POPC   PO449848  41.528   8.943   5.855
 9418POPC   GL149849  41.597   8.980   6.155
 9418POPC   GL249850  41.672   8.827   6.155
 9418POPC   C1A49851  41.598   9.000   6.455
 9418POPC   D2A49852  41.595   8.923   6.755
 9418POPC   C3A49853  41.541   8.965   7.055
 9418POPC   C4A49854  41.586   8.933   7.355
 9418POPC   C1B49855  41.653   8.800   6.455
 9418POPC   C2B49856  41.726   8.733   6.755
 9418POPC   C3B49857  41.705   8.715   7.055
 9418POPC   C4B49858  41.731   8.782   7.355
 9419POPC   NC349859  11.322   4.274   5.555
 9419POPC   PO449860  11.277   4.281   5.855
 9419POPC   GL149861  11.348   4.320   6.155
 9419POPC   GL249862  11.284   4.195   6.155
 9419POPC   C1A49863  11.254   4.341   6.455
 9419POPC   D2A49864  11.263   4.302   6.755
 9419POPC   C3A49865  11.322   4.277   7.055
 9419POPC   C4A49866  11.289   4.359   7.355
 9419POPC   C1B49867  11.361   4.122   6.455
 9419POPC   C2B49868  11.313   4.038   6.755
 9419POPC   C3B49869  11.346   4.035   7.055
 9419POPC   C4B49870  11.397   4.060   7.355
 9420POPC   NC349871  18.326  21.395   5.555
 9420POPC   PO449872  18.243  21.421   5.855
 9420POPC   GL149873  18.286  21.344   6.155
 9420POPC   GL249874  18.111  21.366   6.155
 9420POPC   C1A49875  18.327  21.367   6.455
 9420POPC   D2A49876  18.256  21.432   6.755
 9420POPC   C3A49877  18.271  21.377   7.055
 9420POPC   C4A49878  18.279  21.393   7.355
 9420POPC   C1B49879  18.021  21.428   6.455
 9420POPC   C2B49880  18.081  21.480   6.755
 9420POPC   C3B49881  18.073  21.437   7.055
 9420POPC   C4B49882  17.992  21.417   7.355
 9421POPC   NC349883  33.767   1.250   5.555
 9421POPC   PO449884  33.840   1.247   5.855
 9421POPC   GL149885  33.801   1.199   6.155
 9421POPC   GL249886  33.886   1.341   6.155
 9421POPC   C1A49887  33.781   1.173   6.455
 9421POPC   D2A49888  33.816   1.167   6.755
 9421POPC   C3A49889  33.802   1.165   7.055
 9421POPC   C4A49890  33.751   1.244   7.355
 9421POPC   C1B49891  33.903   1.465   6.455
 9421POPC   C2B49892  33.871   1.404   6.755
 9421POPC   C3B49893  33.887   1.482   7.055
 9421POPC   C4B49894  33.875   1.444   7.355
 9422POPC   NC349895  20.629  32.296   5.555
 9422POPC   PO449896  20.604  32.203   5.855
 9422POPC   GL149897  20.575  32.241   6.155
 9422POPC   GL249898  20.515  32.164   6.155
 9422POPC   C1A49899  20.583  32.221   6.455
 9422POPC   D2A49900  20.631  32.232   6.755
 9422POPC   C3A49901  20.576  32.204   7.055
 9422POPC   C4A49902  20.578  32.205   7.355
 9422POPC   C1B49903  20.399  32.151   6.455
 9422POPC   C2B49904  20.414  32.144   6.755
 9422POPC   C3B49905  20.367  32.120   7.055
 9422POPC   C4B49906  20.446  32.069   7.355
 9423POPC   NC349907   3.562  33.037   5.555
 9423POPC   PO449908   3.515  33.073   5.855
 9423POPC   GL149909   3.564  33.055   6.155
 9423POPC   GL249910   3.649  33.103   6.155
 9423POPC   C1A49911   3.527  33.025   6.455
 9423POPC   D2A49912   3.587  33.057   6.755
 9423POPC   C3A49913   3.530  33.036   7.055
 9423POPC   C4A49914   3.531  32.984   7.355
 9423POPC   C1B49915   3.670  33.231   6.455
 9423POPC   C2B49916   3.679  33.239   6.755
 9423POPC   C3B49917   3.717  33.256   7.055
 9423POPC   C4B49918   3.735  33.235   7.355
 9424POPC   NC349919  12.079  18.260   5.555
 9424POPC   PO449920  12.068  18.315   5.855
 9424POPC   GL149921  12.093  18.301   6.155
 9424POPC   GL249922  12.032  18.131   6.155
 9424POPC   C1A49923  12.075  18.292   6.455
 9424POPC   D2A49924  12.105  18.329   6.755
 9424POPC   C3A49925  12.122  18.273   7.055
 9424POPC   C4A49926  12.125  18.291   7.355
 9424POPC   C1B49927  12.002  18.058   6.455
 9424POPC   C2B49928  12.028  18.072   6.755
 9424POPC   C3B49929  12.029  18.003   7.055
 9424POPC   C4B49930  12.035  18.081   7.355
 9425POPC   NC349931  10.560  35.389   5.555
 9425POPC   PO449932  10.555  35.325   5.855
 9425POPC   GL149933  10.516  35.321   6.155
 9425POPC   GL249934  10.592  35.410   6.155
 9425POPC   C1A49935  10.538  35.318   6.455
 9425POPC   D2A49936  10.501  35.357   6.755
 9425POPC   C3A49937  10.483  35.330   7.055
 9425POPC   C4A49938  10.501  35.356   7.355
 9425POPC   C1B49939  10.791  35.448   6.455
 9425POPC   C2B49940  10.752  35.434   6.755
 9425POPC   C3B49941  10.753  35.459   7.055
 9425POPC   C4B49942  10.772  35.500   7.355
 9426POPC   NC349943  12.032  44.663   5.555
 9426POPC   PO449944  12.071  44.662   5.855
 9426POPC   GL149945  12.028  44.636   6.155
 9426POPC   GL249946  12.055  44.509   6.155
 9426POPC   C1A49947  12.122  44.624   6.455
 9426POPC   D2A49948  12.058  44.711   6.755
 9426POPC   C3A49949  12.088  44.707   7.055
 9426POPC   C4A49950  12.112  44.614   7.355
 9426POPC   C1B49951  12.072  44.432   6.455
 9426POPC   C2B49952  12.113  44.390   6.755
 9426POPC   C3B49953  12.113  44.396   7.055
 9426POPC   C4B49954  12.146  44.416   7.355
 9427POPC   NC349955  29.894  41.554   5.555
 9427POPC   PO449956  29.966  41.550   5.855
 9427POPC   GL149957  29.893  41.590   6.155
 9427POPC   GL249958  29.769  41.559   6.155
 9427POPC   C1A49959  29.936  41.527   6.455
 9427POPC   D2A49960  29.938  41.590   6.755
 9427POPC   C3A49961  29.924  41.588   7.055
 9427POPC   C4A49962  29.902  41.511   7.355
 9427POPC   C1B49963  29.711  41.541   6.455
 9427POPC   C2B49964  29.687  41.490   6.755
 9427POPC   C3B49965  29.639  41.535   7.055
 9427POPC   C4B49966  29.677  41.514   7.355
 9428POPC   NC349967  24.483   9.698   5.555
 9428POPC   PO449968  24.526   9.706   5.855
 9428POPC   GL149969  24.490   9.720   6.155
 9428POPC   GL249970  24.638   9.678   6.155
 9428POPC   C1A49971  24.521   9.701   6.455
 9428POPC   D2A49972  24.442   9.764   6.755
 9428POPC   C3A49973  24.515   9.786   7.055
 9428POPC   C4A49974  24.503   9.787   7.355
 9428POPC   C1B49975  24.672   9.591   6.455
 9428POPC   C2B49976  24.677   9.645   6.755
 9428POPC   C3B49977  24.670   9.598   7.055
 9428POPC   C4B49978  24.723   9.637   7.355
 9429POPC   NC349979  16.768  19.874   5.555
 9429POPC   PO449980  16.684  19.859   5.855
 9429POPC   GL149981  16.770  19.816   6.155
 9429POPC   GL249982  16.714  19.996   6.155
 9429POPC   C1A49983  16.775  19.803   6.455
 9429POPC   D2A49984  16.760  19.879   6.755
 9429POPC   C3A49985  16.735  19.844   7.055
 9429POPC   C4A49986  16.778  19.869   7.355
 9429POPC   C1B49987  16.708  20.055   6.455
 9429POPC   C2B49988  16.656  20.074   6.755
 9429POPC   C3B49989  16.693  20.068   7.055
 9429POPC   C4B49990  16.712  20.087   7.355
 9430POPC   NC349991  18.286  39.256   5.555
 9430POPC   PO449992  18.318  39.271   5.855
 9430POPC   GL149993  18.258  39.186   6.155
 9430POPC   GL249994  18.366  39.161   6.155
 9430POPC   C1A49995  18.238  39.223   6.455
 9430POPC   D2A49996  18.294  39.268   6.755
 9430POPC   C3A49997  18.311  39.234   7.055
 9430POPC   C4A49998  18.309  39.276   7.355
 9430POPC   C1B49999  18.460  39.102   6.455
 9430POPC   C2B50000  18.485  39.123   6.755
 9430POPC   C3B50001  18.490  39.094   7.055
 9430POPC   C4B50002  18.488  39.071   7.355
 9431POPC   NC350003  40.038   8.163   5.555
 9431POPC   PO450004  39.997   8.183   5.855
 9431POPC   GL150005  39.967   8.149   6.155
 9431POPC   GL250006  39.899   8.224   6.155
 9431POPC   C1A50007  40.029   8.244   6.455
 9431POPC   D2A50008  39.960   8.225   6.755
 9431POPC   C3A50009  40.021   8.202   7.055
 9431POPC   C4A50010  40.050   8.240   7.355
 9431POPC   C1B50011  39.758   8.284   6.455
 9431POPC   C2B50012  39.792   8.314   6.755
 9431POPC   C3B50013  39.731   8.298   7.055
 9431POPC   C4B50014  39.813   8.300   7.355
 9432POPC   NC350015  34.558  29.106   5.555
 9432POPC   PO450016  34.576  29.106   5.855
 9432POPC   GL150017  34.590  29.188   6.155
 9432POPC   GL250018  34.597  29.284   6.155
 9432POPC   C1A50019  34.541  29.175   6.455
 9432POPC   D2A50020  34.617  29.161   6.755
 9432POPC   C3A50021  34.544  29.101   7.055
 9432POPC   C4A50022  34.575  29.140   7.355
 9432POPC   C1B50023  34.688  29.384   6.455
 9432POPC   C2B50024  34.714  29.346   6.755
 9432POPC   C3B50025  34.755  29.361   7.055
 9432POPC   C4B50026  34.751  29.303   7.355
 9433POPC   NC350027  26.814   6.630   5.555
 9433POPC   PO450028  26.798   6.666   5.855
 9433POPC   GL150029  26.852   6.629   6.155
 9433POPC   GL250030  26.913   6.548   6.155
 9433POPC   C1A50031  26.859   6.605   6.455
 9433POPC   D2A50032  26.817   6.647   6.755
 9433POPC   C3A50033  26.822   6.601   7.055
 9433POPC   C4A50034  26.798   6.664   7.355
 9433POPC   C1B50035  27.073   6.489   6.455
 9433POPC   C2B50036  27.010   6.537   6.755
 9433POPC   C3B50037  27.034   6.478   7.055
 9433POPC   C4B50038  27.044   6.535   7.355
 9434POPC   NC350039  40.815   3.492   5.555
 9434POPC   PO450040  40.833   3.543   5.855
 9434POPC   GL150041  40.765   3.547   6.155
 9434POPC   GL250042  40.723   3.472   6.155
 9434POPC   C1A50043  40.807   3.588   6.455
 9434POPC   D2A50044  40.799   3.542   6.755
 9434POPC   C3A50045  40.769   3.506   7.055
 9434POPC   C4A50046  40.743   3.586   7.355
 9434POPC   C1B50047  40.713   3.280   6.455
 9434POPC   C2B50048  40.680   3.279   6.755
 9434POPC   C3B50049  40.664   3.328   7.055
 9434POPC   C4B50050  40.648   3.311   7.355
 9435POPC   NC350051  19.070  37.638   5.555
 9435POPC   PO450052  19.013  37.652   5.855
 9435POPC   GL150053  19.009  37.677   6.155
 9435POPC   GL250054  19.107  37.581   6.155
 9435POPC   C1A50055  19.039  37.727   6.455
 9435POPC   D2A50056  19.064  37.634   6.755
 9435POPC   C3A50057  19.076  37.690   7.055
 9435POPC   C4A50058  19.012  37.647   7.355
 9435POPC   C1B50059  19.055  37.470   6.455
 9435POPC   C2B50060  19.034  37.421   6.755
 9435POPC   C3B50061  19.035  37.407   7.055
 9435POPC   C4B50062  19.090  37.465   7.355
 9436POPC   NC350063  36.904  40.806   5.555
 9436POPC   PO450064  36.877  40.795   5.855
 9436POPC   GL150065  36.949  40.755   6.155
 9436POPC   GL250066  37.047  40.778   6.155
 9436POPC   C1A50067  36.936  40.751   6.455
 9436POPC   D2A50068  36.857  40.747   6.755
 9436POPC   C3A50069  36.950  40.781   7.055
 9436POPC   C4A50070  36.878  40.796   7.355
 9436POPC   C1B50071  37.146  40.692   6.455
 9436POPC   C2B50072  37.146  40.656   6.755
 9436POPC   C3B50073  37.158  40.705   7.055
 9436POPC   C4B50074  37.168  40.653   7.355
 9437POPC   NC350075  30.728   2.013   5.555
 9437POPC   PO450076  30.730   1.970   5.855
 9437POPC   GL150077  30.652   2.029   6.155
 9437POPC   GL250078  30.717   2.141   6.155
 9437POPC   C1A50079  30.714   1.998   6.455
 9437POPC   D2A50080  30.739   1.977   6.755
 9437POPC   C3A50081  30.658   1.957   7.055
 9437POPC   C4A50082  30.666   2.012   7.355
 9437POPC   C1B50083  30.813   2.185   6.455
 9437POPC   C2B50084  30.849   2.151   6.755
 9437POPC   C3B50085  30.818   2.166   7.055
 9437POPC   C4B50086  30.872   2.204   7.355
 9438POPC   NC350087   7.380  14.369   5.555
 9438POPC   PO450088   7.393  14.429   5.855
 9438POPC   GL150089   7.463  14.372   6.155
 9438POPC   GL250090   7.482  14.313   6.155
 9438POPC   C1A50091   7.447  14.360   6.455
 9438POPC   D2A50092   7.440  14.361   6.755
 9438POPC   C3A50093   7.389  14.386   7.055
 9438POPC   C4A50094   7.372  14.406   7.355
 9438POPC   C1B50095   7.523  14.133   6.455
 9438POPC   C2B50096   7.483  14.127   6.755
 9438POPC   C3B50097   7.521  14.136   7.055
 9438POPC   C4B50098   7.507  14.217   7.355
 9439POPC   NC350099  35.382  17.502   5.555
 9439POPC   PO450100  35.320  17.476   5.855
 9439POPC   GL150101  35.377  17.465   6.155
 9439POPC   GL250102  35.435  17.634   6.155
 9439POPC   C1A50103  35.373  17.541   6.455
 9439POPC   D2A50104  35.384  17.556   6.755
 9439POPC   C3A50105  35.374  17.497   7.055
 9439POPC   C4A50106  35.367  17.495   7.355
 9439POPC   C1B50107  35.502  17.675   6.455
 9439POPC   C2B50108  35.542  17.702   6.755
 9439POPC   C3B50109  35.504  17.633   7.055
 9439POPC   C4B50110  35.523  17.683   7.355
 9440POPC   NC350111  10.496   5.131   5.555
 9440POPC   PO450112  10.523   5.070   5.855
 9440POPC   GL150113  10.544   5.082   6.155
 9440POPC   GL250114  10.553   4.927   6.155
 9440POPC   C1A50115  10.553   5.075   6.455
 9440POPC   D2A50116  10.563   5.143   6.755
 9440POPC   C3A50117  10.545   5.046   7.055
 9440POPC   C4A50118  10.489   5.052   7.355
 9440POPC   C1B50119  10.640   4.852   6.455
 9440POPC   C2B50120  10.630   4.842   6.755
 9440POPC   C3B50121  10.598   4.902   7.055
 9440POPC   C4B50122  10.587   4.808   7.355
 9441POPC   NC350123  35.341  12.819   5.555
 9441POPC   PO450124  35.329  12.864   5.855
 9441POPC   GL150125  35.360  12.802   6.155
 9441POPC   GL250126  35.267  12.919   6.155
 9441POPC   C1A50127  35.340  12.850   6.455
 9441POPC   D2A50128  35.346  12.803   6.755
 9441POPC   C3A50129  35.371  12.808   7.055
 9441POPC   C4A50130  35.381  12.884   7.355
 9441POPC   C1B50131  35.089  12.853   6.455
 9441POPC   C2B50132  35.088  12.923   6.755
 9441POPC   C3B50133  35.097  12.843   7.055
 9441POPC   C4B50134  35.145  12.890   7.355
 9442POPC   NC350135  38.419  32.209   5.555
 9442POPC   PO450136  38.490  32.258   5.855
 9442POPC   GL150137  38.427  32.222   6.155
 9442POPC   GL250138  38.348  32.228   6.155
 9442POPC   C1A50139  38.499  32.223   6.455
 9442POPC   D2A50140  38.443  32.295   6.755
 9442POPC   C3A50141  38.488  32.269   7.055
 9442POPC   C4A50142  38.487  32.284   7.355
 9442POPC   C1B50143  38.161  32.190   6.455
 9442POPC   C2B50144  38.234  32.249   6.755
 9442POPC   C3B50145  38.230  32.226   7.055
 9442POPC   C4B50146  38.241  32.243   7.355
 9443POPC   NC350147  32.229  29.142   5.555
 9443POPC   PO450148  32.249  29.122   5.855
 9443POPC   GL150149  32.246  29.115   6.155
 9443POPC   GL250150  32.175  29.067   6.155
 9443POPC   C1A50151  32.255  29.160   6.455
 9443POPC   D2A50152  32.204  29.158   6.755
 9443POPC   C3A50153  32.274  29.155   7.055
 9443POPC   C4A50154  32.246  29.115   7.355
 9443POPC   C1B50155  32.110  28.963   6.455
 9443POPC   C2B50156  32.133  28.964   6.755
 9443POPC   C3B50157  32.104  28.981   7.055
 9443POPC   C4B50158  32.047  28.964   7.355
 9444POPC   NC350159  19.884  25.220   5.555
 9444POPC   PO450160  19.854  25.298   5.855
 9444POPC   GL150161  19.789  25.247   6.155
 9444POPC   GL250162  19.814  25.181   6.155
 9444POPC   C1A50163  19.881  25.216   6.455
 9444POPC   D2A50164  19.880  25.298   6.755
 9444POPC   C3A50165  19.796  25.226   7.055
 9444POPC   C4A50166  19.815  25.283   7.355
 9444POPC   C1B50167  19.826  24.984   6.455
 9444POPC   C2B50168  19.796  24.971   6.755
 9444POPC   C3B50169  19.823  24.995   7.055
 9444POPC   C4B50170  19.789  24.973   7.355
 9445POPC   NC350171  11.331  25.252   5.555
 9445POPC   PO450172  11.262  25.306   5.855
 9445POPC   GL150173  11.266  25.274   6.155
 9445POPC   GL250174  11.201  25.261   6.155
 9445POPC   C1A50175  11.332  25.258   6.455
 9445POPC   D2A50176  11.275  25.286   6.755
 9445POPC   C3A50177  11.295  25.243   7.055
 9445POPC   C4A50178  11.303  25.303   7.355
 9445POPC   C1B50179  11.042  25.220   6.455
 9445POPC   C2B50180  11.108  25.172   6.755
 9445POPC   C3B50181  11.063  25.212   7.055
 9445POPC   C4B50182  11.043  25.200   7.355
 9446POPC   NC350183  38.455  14.443   5.555
 9446POPC   PO450184  38.498  14.360   5.855
 9446POPC   GL150185  38.451  14.368   6.155
 9446POPC   GL250186  38.518  14.446   6.155
 9446POPC   C1A50187  38.443  14.385   6.455
 9446POPC   D2A50188  38.498  14.380   6.755
 9446POPC   C3A50189  38.472  14.428   7.055
 9446POPC   C4A50190  38.474  14.415   7.355
 9446POPC   C1B50191  38.665  14.592   6.455
 9446POPC   C2B50192  38.641  14.600   6.755
 9446POPC   C3B50193  38.634  14.575   7.055
 9446POPC   C4B50194  38.635  14.605   7.355
 9447POPC   NC350195  17.459  12.872   5.555
 9447POPC   PO450196  17.538  12.828   5.855
 9447POPC   GL150197  17.528  12.877   6.155
 9447POPC   GL250198  17.358  12.895   6.155
 9447POPC   C1A50199  17.484  12.833   6.455
 9447POPC   D2A50200  17.525  12.842   6.755
 9447POPC   C3A50201  17.537  12.802   7.055
 9447POPC   C4A50202  17.519  12.897   7.355
 9447POPC   C1B50203  17.265  12.978   6.455
 9447POPC   C2B50204  17.357  12.996   6.755
 9447POPC   C3B50205  17.354  12.995   7.055
 9447POPC   C4B50206  17.344  13.044   7.355
 9448POPC   NC350207  33.055  19.862   5.555
 9448POPC   PO450208  33.034  19.853   5.855
 9448POPC   GL150209  33.048  19.853   6.155
 9448POPC   GL250210  33.111  19.852   6.155
 9448POPC   C1A50211  33.059  19.804   6.455
 9448POPC   D2A50212  33.009  19.844   6.755
 9448POPC   C3A50213  32.982  19.840   7.055
 9448POPC   C4A50214  33.039  19.882   7.355
 9448POPC   C1B50215  33.232  19.759   6.455
 9448POPC   C2B50216  33.229  19.813   6.755
 9448POPC   C3B50217  33.264  19.752   7.055
 9448POPC   C4B50218  33.280  19.736   7.355
 9449POPC   NC350219  23.703  26.053   5.555
 9449POPC   PO450220  23.676  26.075   5.855
 9449POPC   GL150221  23.763  26.055   6.155
 9449POPC   GL250222  23.861  26.000   6.155
 9449POPC   C1A50223  23.733  26.009   6.455
 9449POPC   D2A50224  23.706  26.039   6.755
 9449POPC   C3A50225  23.717  26.014   7.055
 9449POPC   C4A50226  23.746  26.066   7.355
 9449POPC   C1B50227  23.943  25.953   6.455
 9449POPC   C2B50228  23.918  25.871   6.755
 9449POPC   C3B50229  23.896  25.925   7.055
 9449POPC   C4B50230  23.930  25.944   7.355
 9450POPC   NC350231   8.171  26.863   5.555
 9450POPC   PO450232   8.222  26.793   5.855
 9450POPC   GL150233   8.189  26.825   6.155
 9450POPC   GL250234   8.287  26.834   6.155
 9450POPC   C1A50235   8.203  26.775   6.455
 9450POPC   D2A50236   8.165  26.808   6.755
 9450POPC   C3A50237   8.207  26.821   7.055
 9450POPC   C4A50238   8.172  26.790   7.355
 9450POPC   C1B50239   8.417  26.739   6.455
 9450POPC   C2B50240   8.446  26.764   6.755
 9450POPC   C3B50241   8.442  26.808   7.055
 9450POPC   C4B50242   8.415  26.793   7.355
 9451POPC   NC350243   8.182  43.074   5.555
 9451POPC   PO450244   8.170  43.074   5.855
 9451POPC   GL150245   8.157  43.074   6.155
 9451POPC   GL250246   8.095  43.109   6.155
 9451POPC   C1A50247   8.242  43.158   6.455
 9451POPC   D2A50248   8.194  43.083   6.755
 9451POPC   C3A50249   8.175  43.153   7.055
 9451POPC   C4A50250   8.193  43.128   7.355
 9451POPC   C1B50251   7.997  43.205   6.455
 9451POPC   C2B50252   7.958  43.234   6.755
 9451POPC   C3B50253   7.999  43.229   7.055
 9451POPC   C4B50254   7.965  43.166   7.355
 9452POPC   NC350255   4.287  14.414   5.555
 9452POPC   PO450256   4.321  14.394   5.855
 9452POPC   GL150257   4.294  14.420   6.155
 9452POPC   GL250258   4.190  14.457   6.155
 9452POPC   C1A50259   4.268  14.430   6.455
 9452POPC   D2A50260   4.277  14.385   6.755
 9452POPC   C3A50261   4.342  14.367   7.055
 9452POPC   C4A50262   4.335  14.357   7.355
 9452POPC   C1B50263   4.126  14.571   6.455
 9452POPC   C2B50264   4.101  14.595   6.755
 9452POPC   C3B50265   4.175  14.613   7.055
 9452POPC   C4B50266   4.127  14.565   7.355
 9453POPC   NC350267  36.081  12.814   5.555
 9453POPC   PO450268  36.155  12.882   5.855
 9453POPC   GL150269  36.082  12.880   6.155
 9453POPC   GL250270  36.000  12.921   6.155
 9453POPC   C1A50271  36.175  12.822   6.455
 9453POPC   D2A50272  36.165  12.886   6.755
 9453POPC   C3A50273  36.150  12.827   7.055
 9453POPC   C4A50274  36.143  12.821   7.355
 9453POPC   C1B50275  35.898  13.045   6.455
 9453POPC   C2B50276  35.914  13.035   6.755
 9453POPC   C3B50277  35.934  13.005   7.055
 9453POPC   C4B50278  35.958  12.997   7.355
 9454POPC   NC350279  12.880  22.939   5.555
 9454POPC   PO450280  12.846  22.951   5.855
 9454POPC   GL150281  12.888  22.939   6.155
 9454POPC   GL250282  12.991  22.868   6.155
 9454POPC   C1A50283  12.897  22.939   6.455
 9454POPC   D2A50284  12.893  22.954   6.755
 9454POPC   C3A50285  12.817  22.893   7.055
 9454POPC   C4A50286  12.875  22.970   7.355
 9454POPC   C1B50287  13.079  22.785   6.455
 9454POPC   C2B50288  13.073  22.807   6.755
 9454POPC   C3B50289  13.026  22.723   7.055
 9454POPC   C4B50290  13.009  22.772   7.355
 9455POPC   NC350291  27.581  20.607   5.555
 9455POPC   PO450292  27.585  20.646   5.855
 9455POPC   GL150293  27.632  20.631   6.155
 9455POPC   GL250294  27.653  20.550   6.155
 9455POPC   C1A50295  27.605  20.577   6.455
 9455POPC   D2A50296  27.587  20.577   6.755
 9455POPC   C3A50297  27.557  20.563   7.055
 9455POPC   C4A50298  27.579  20.600   7.355
 9455POPC   C1B50299  27.811  20.477   6.455
 9455POPC   C2B50300  27.812  20.452   6.755
 9455POPC   C3B50301  27.752  20.425   7.055
 9455POPC   C4B50302  27.751  20.445   7.355
 9456POPC   NC350303  11.300  30.655   5.555
 9456POPC   PO450304  11.287  30.728   5.855
 9456POPC   GL150305  11.347  30.733   6.155
 9456POPC   GL250306  11.370  30.741   6.155
 9456POPC   C1A50307  11.320  30.676   6.455
 9456POPC   D2A50308  11.322  30.686   6.755
 9456POPC   C3A50309  11.304  30.697   7.055
 9456POPC   C4A50310  11.275  30.727   7.355
 9456POPC   C1B50311  11.485  30.819   6.455
 9456POPC   C2B50312  11.481  30.855   6.755
 9456POPC   C3B50313  11.545  30.827   7.055
 9456POPC   C4B50314  11.470  30.819   7.355
 9457POPC   NC350315   5.852  33.808   5.555
 9457POPC   PO450316   5.894  33.809   5.855
 9457POPC   GL150317   5.881  33.807   6.155
 9457POPC   GL250318   6.012  33.814   6.155
 9457POPC   C1A50319   5.895  33.815   6.455
 9457POPC   D2A50320   5.875  33.776   6.755
 9457POPC   C3A50321   5.888  33.764   7.055
 9457POPC   C4A50322   5.910  33.846   7.355
 9457POPC   C1B50323   6.091  33.940   6.455
 9457POPC   C2B50324   6.106  33.903   6.755
 9457POPC   C3B50325   6.124  33.890   7.055
 9457POPC   C4B50326   6.047  33.866   7.355
 9458POPC   NC350327   4.274  19.790   5.555
 9458POPC   PO450328   4.305  19.793   5.855
 9458POPC   GL150329   4.279  19.787   6.155
 9458POPC   GL250330   4.215  19.857   6.155
 9458POPC   C1A50331   4.348  19.838   6.455
 9458POPC   D2A50332   4.295  19.840   6.755
 9458POPC   C3A50333   4.289  19.818   7.055
 9458POPC   C4A50334   4.358  19.792   7.355
 9458POPC   C1B50335   4.121  19.839   6.455
 9458POPC   C2B50336   4.118  19.840   6.755
 9458POPC   C3B50337   4.079  19.855   7.055
 9458POPC   C4B50338   4.042  19.900   7.355
 9459POPC   NC350339  29.900   0.465   5.555
 9459POPC   PO450340  29.915   0.449   5.855
 9459POPC   GL150341  29.903   0.414   6.155
 9459POPC   GL250342  29.875   0.346   6.155
 9459POPC   C1A50343  29.936   0.480   6.455
 9459POPC   D2A50344  29.964   0.430   6.755
 9459POPC   C3A50345  29.920   0.398   7.055
 9459POPC   C4A50346  29.966   0.398   7.355
 9459POPC   C1B50347  29.765   0.266   6.455
 9459POPC   C2B50348  29.753   0.258   6.755
 9459POPC   C3B50349  29.723   0.193   7.055
 9459POPC   C4B50350  29.790   0.207   7.355
 9460POPC   NC350351   6.630  36.934   5.555
 9460POPC   PO450352   6.616  36.918   5.855
 9460POPC   GL150353   6.624  36.868   6.155
 9460POPC   GL250354   6.535  36.944   6.155
 9460POPC   C1A50355   6.684  36.947   6.455
 9460POPC   D2A50356   6.646  36.907   6.755
 9460POPC   C3A50357   6.657  36.927   7.055
 9460POPC   C4A50358   6.661  36.918   7.355
 9460POPC   C1B50359   6.387  36.996   6.455
 9460POPC   C2B50360   6.417  37.036   6.755
 9460POPC   C3B50361   6.436  37.013   7.055
 9460POPC   C4B50362   6.417  36.996   7.355
 9461POPC   NC350363  38.463  27.589   5.555
 9461POPC   PO450364  38.482  27.633   5.855
 9461POPC   GL150365  38.491  27.595   6.155
 9461POPC   GL250366  38.387  27.493   6.155
 9461POPC   C1A50367  38.445  27.634   6.455
 9461POPC   D2A50368  38.444  27.577   6.755
 9461POPC   C3A50369  38.457  27.606   7.055
 9461POPC   C4A50370  38.411  27.614   7.355
 9461POPC   C1B50371  38.280  27.489   6.455
 9461POPC   C2B50372  38.205  27.522   6.755
 9461POPC   C3B50373  38.238  27.440   7.055
 9461POPC   C4B50374  38.266  27.490   7.355
 9462POPC   NC350375  29.182  30.693   5.555
 9462POPC   PO450376  29.135  30.697   5.855
 9462POPC   GL150377  29.124  30.660   6.155
 9462POPC   GL250378  29.129  30.812   6.155
 9462POPC   C1A50379  29.161  30.697   6.455
 9462POPC   D2A50380  29.104  30.669   6.755
 9462POPC   C3A50381  29.181  30.694   7.055
 9462POPC   C4A50382  29.154  30.710   7.355
 9462POPC   C1B50383  29.054  30.914   6.455
 9462POPC   C2B50384  29.010  30.940   6.755
 9462POPC   C3B50385  29.082  30.971   7.055
 9462POPC   C4B50386  29.054  30.967   7.355
 9463POPC   NC350387   1.171  31.437   5.555
 9463POPC   PO450388   1.210  31.521   5.855
 9463POPC   GL150389   1.166  31.499   6.155
 9463POPC   GL250390   1.208  31.396   6.155
 9463POPC   C1A50391   1.173  31.471   6.455
 9463POPC   D2A50392   1.167  31.473   6.755
 9463POPC   C3A50393   1.186  31.444   7.055
 9463POPC   C4A50394   1.165  31.443   7.355
 9463POPC   C1B50395   1.267  31.248   6.455
 9463POPC   C2B50396   1.322  31.239   6.755
 9463POPC   C3B50397   1.298  31.278   7.055
 9463POPC   C4B50398   1.311  31.261   7.355
 9464POPC   NC350399  15.999  43.123   5.555
 9464POPC   PO450400  15.958  43.061   5.855
 9464POPC   GL150401  15.954  43.155   6.155
 9464POPC   GL250402  16.031  43.030   6.155
 9464POPC   C1A50403  15.988  43.157   6.455
 9464POPC   D2A50404  15.990  43.127   6.755
 9464POPC   C3A50405  15.906  43.132   7.055
 9464POPC   C4A50406  15.907  43.079   7.355
 9464POPC   C1B50407  16.045  42.855   6.455
 9464POPC   C2B50408  16.081  42.867   6.755
 9464POPC   C3B50409  16.073  42.862   7.055
 9464POPC   C4B50410  16.081  42.875   7.355
 9465POPC   NC350411  35.366  13.587   5.555
 9465POPC   PO450412  35.370  13.632   5.855
 9465POPC   GL150413  35.388  13.658   6.155
 9465POPC   GL250414  35.304  13.560   6.155
 9465POPC   C1A50415  35.362  13.644   6.455
 9465POPC   D2A50416  35.322  13.585   6.755
 9465POPC   C3A50417  35.331  13.579   7.055
 9465POPC   C4A50418  35.370  13.652   7.355
 9465POPC   C1B50419  35.173  13.438   6.455
 9465POPC   C2B50420  35.169  13.473   6.755
 9465POPC   C3B50421  35.168  13.424   7.055
 9465POPC   C4B50422  35.173  13.397   7.355
 9466POPC   NC350423  20.576   1.988   5.555
 9466POPC   PO450424  20.615   1.981   5.855
 9466POPC   GL150425  20.590   1.952   6.155
 9466POPC   GL250426  20.486   2.091   6.155
 9466POPC   C1A50427  20.600   1.948   6.455
 9466POPC   D2A50428  20.601   1.995   6.755
 9466POPC   C3A50429  20.589   1.954   7.055
 9466POPC   C4A50430  20.653   1.941   7.355
 9466POPC   C1B50431  20.388   2.168   6.455
 9466POPC   C2B50432  20.460   2.122   6.755
 9466POPC   C3B50433  20.452   2.125   7.055
 9466POPC   C4B50434  20.416   2.160   7.355
 9467POPC   NC350435  12.858  15.964   5.555
 9467POPC   PO450436  12.892  16.004   5.855
 9467POPC   GL150437  12.841  16.001   6.155
 9467POPC   GL250438  12.868  16.079   6.155
 9467POPC   C1A50439  12.802  15.906   6.455
 9467POPC   D2A50440  12.863  16.001   6.755
 9467POPC   C3A50441  12.864  16.004   7.055
 9467POPC   C4A50442  12.887  15.919   7.355
 9467POPC   C1B50443  12.936  16.150   6.455
 9467POPC   C2B50444  12.953  16.165   6.755
 9467POPC   C3B50445  13.026  16.188   7.055
 9467POPC   C4B50446  12.997  16.140   7.355
 9468POPC   NC350447  26.785  10.481   5.555
 9468POPC   PO450448  26.842  10.561   5.855
 9468POPC   GL150449  26.808  10.538   6.155
 9468POPC   GL250450  26.815  10.643   6.155
 9468POPC   C1A50451  26.812  10.502   6.455
 9468POPC   D2A50452  26.844  10.559   6.755
 9468POPC   C3A50453  26.863  10.496   7.055
 9468POPC   C4A50454  26.863  10.533   7.355
 9468POPC   C1B50455  26.741  10.781   6.455
 9468POPC   C2B50456  26.741  10.796   6.755
 9468POPC   C3B50457  26.698  10.797   7.055
 9468POPC   C4B50458  26.734  10.767   7.355
 9469POPC   NC350459   5.835  34.577   5.555
 9469POPC   PO450460   5.881  34.621   5.855
 9469POPC   GL150461   5.835  34.603   6.155
 9469POPC   GL250462   5.800  34.684   6.155
 9469POPC   C1A50463   5.881  34.624   6.455
 9469POPC   D2A50464   5.821  34.570   6.755
 9469POPC   C3A50465   5.839  34.534   7.055
 9469POPC   C4A50466   5.910  34.530   7.355
 9469POPC   C1B50467   5.654  34.787   6.455
 9469POPC   C2B50468   5.696  34.766   6.755
 9469POPC   C3B50469   5.682  34.718   7.055
 9469POPC   C4B50470   5.648  34.722   7.355
 9470POPC   NC350471  34.614  40.832   5.555
 9470POPC   PO450472  34.614  40.794   5.855
 9470POPC   GL150473  34.554  40.741   6.155
 9470POPC   GL250474  34.644  40.742   6.155
 9470POPC   C1A50475  34.546  40.826   6.455
 9470POPC   D2A50476  34.625  40.748   6.755
 9470POPC   C3A50477  34.568  40.784   7.055
 9470POPC   C4A50478  34.585  40.793   7.355
 9470POPC   C1B50479  34.756  40.644   6.455
 9470POPC   C2B50480  34.825  40.614   6.755
 9470POPC   C3B50481  34.819  40.632   7.055
 9470POPC   C4B50482  34.780  40.692   7.355
 9471POPC   NC350483  40.740  41.522   5.555
 9471POPC   PO450484  40.740  41.550   5.855
 9471POPC   GL150485  40.760  41.527   6.155
 9471POPC   GL250486  40.635  41.588   6.155
 9471POPC   C1A50487  40.783  41.580   6.455
 9471POPC   D2A50488  40.777  41.545   6.755
 9471POPC   C3A50489  40.754  41.555   7.055
 9471POPC   C4A50490  40.755  41.566   7.355
 9471POPC   C1B50491  40.586  41.612   6.455
 9471POPC   C2B50492  40.565  41.684   6.755
 9471POPC   C3B50493  40.585  41.603   7.055
 9471POPC   C4B50494  40.533  41.607   7.355
 9472POPC   NC350495  15.201  15.920   5.555
 9472POPC   PO450496  15.203  15.993   5.855
 9472POPC   GL150497  15.196  15.930   6.155
 9472POPC   GL250498  15.275  16.041   6.155
 9472POPC   C1A50499  15.182  15.911   6.455
 9472POPC   D2A50500  15.182  15.933   6.755
 9472POPC   C3A50501  15.165  15.916   7.055
 9472POPC   C4A50502  15.147  15.926   7.355
 9472POPC   C1B50503  15.414  16.047   6.455
 9472POPC   C2B50504  15.424  16.064   6.755
 9472POPC   C3B50505  15.431  16.069   7.055
 9472POPC   C4B50506  15.368  16.113   7.355
 9473POPC   NC350507  11.303  43.115   5.555
 9473POPC   PO450508  11.263  43.116   5.855
 9473POPC   GL150509  11.303  43.103   6.155
 9473POPC   GL250510  11.233  43.152   6.155
 9473POPC   C1A50511  11.294  43.079   6.455
 9473POPC   D2A50512  11.263  43.156   6.755
 9473POPC   C3A50513  11.256  43.087   7.055
 9473POPC   C4A50514  11.318  43.144   7.355
 9473POPC   C1B50515  11.138  43.298   6.455
 9473POPC   C2B50516  11.146  43.324   6.755
 9473POPC   C3B50517  11.140  43.295   7.055
 9473POPC   C4B50518  11.159  43.312   7.355
 9474POPC   NC350519  23.696  13.599   5.555
 9474POPC   PO450520  23.763  13.629   5.855
 9474POPC   GL150521  23.715  13.592   6.155
 9474POPC   GL250522  23.740  13.459   6.155
 9474POPC   C1A50523  23.759  13.628   6.455
 9474POPC   D2A50524  23.682  13.650   6.755
 9474POPC   C3A50525  23.731  13.645   7.055
 9474POPC   C4A50526  23.700  13.667   7.355
 9474POPC   C1B50527  23.732  13.340   6.455
 9474POPC   C2B50528  23.728  13.369   6.755
 9474POPC   C3B50529  23.761  13.398   7.055
 9474POPC   C4B50530  23.686  13.425   7.355
 9475POPC   NC350531   1.257  36.081   5.555
 9475POPC   PO450532   1.232  36.084   5.855
 9475POPC   GL150533   1.262  36.084   6.155
 9475POPC   GL250534   1.099  36.158   6.155
 9475POPC   C1A50535   1.223  36.138   6.455
 9475POPC   D2A50536   1.253  36.140   6.755
 9475POPC   C3A50537   1.240  36.131   7.055
 9475POPC   C4A50538   1.257  36.177   7.355
 9475POPC   C1B50539   1.012  36.136   6.455
 9475POPC   C2B50540   0.923  36.139   6.755
 9475POPC   C3B50541   0.961  36.177   7.055
 9475POPC   C4B50542   0.923  36.094   7.355
 9476POPC   NC350543  28.327   9.722   5.555
 9476POPC   PO450544  28.370   9.700   5.855
 9476POPC   GL150545  28.379   9.753   6.155
 9476POPC   GL250546  28.338   9.631   6.155
 9476POPC   C1A50547  28.344   9.721   6.455
 9476POPC   D2A50548  28.402   9.776   6.755
 9476POPC   C3A50549  28.328   9.738   7.055
 9476POPC   C4A50550  28.329   9.747   7.355
 9476POPC   C1B50551  28.296   9.489   6.455
 9476POPC   C2B50552  28.259   9.510   6.755
 9476POPC   C3B50553  28.229   9.516   7.055
 9476POPC   C4B50554  28.232   9.536   7.355
 9477POPC   NC350555  44.678  43.863   5.555
 9477POPC   PO450556  44.646  43.852   5.855
 9477POPC   GL150557  44.634  43.918   6.155
 9477POPC   GL250558  44.767  43.915   6.155
 9477POPC   C1A50559  44.689  43.901   6.455
 9477POPC   D2A50560  44.625  43.861   6.755
 9477POPC   C3A50561  44.705  43.902   7.055
 9477POPC   C4A50562  44.642  43.896   7.355
 9477POPC   C1B50563  44.872  44.040   6.455
 9477POPC   C2B50564  44.855  43.968   6.755
 9477POPC   C3B50565  44.885  44.052   7.055
 9477POPC   C4B50566  44.840  44.058   7.355
 9478POPC   NC350567  12.817   9.713   5.555
 9478POPC   PO450568  12.870   9.754   5.855
 9478POPC   GL150569  12.836   9.792   6.155
 9478POPC   GL250570  12.995   9.805   6.155
 9478POPC   C1A50571  12.889   9.790   6.455
 9478POPC   D2A50572  12.843   9.721   6.755
 9478POPC   C3A50573  12.824   9.712   7.055
 9478POPC   C4A50574  12.826   9.766   7.355
 9478POPC   C1B50575  13.064   9.796   6.455
 9478POPC   C2B50576  13.139   9.755   6.755
 9478POPC   C3B50577  13.089   9.726   7.055
 9478POPC   C4B50578  13.112   9.811   7.355
 9479POPC   NC350579  26.014  18.240   5.555
 9479POPC   PO450580  26.067  18.233   5.855
 9479POPC   GL150581  25.999  18.326   6.155
 9479POPC   GL250582  25.969  18.370   6.155
 9479POPC   C1A50583  26.086  18.317   6.455
 9479POPC   D2A50584  26.054  18.300   6.755
 9479POPC   C3A50585  26.022  18.283   7.055
 9479POPC   C4A50586  26.028  18.295   7.355
 9479POPC   C1B50587  25.835  18.422   6.455
 9479POPC   C2B50588  25.804  18.384   6.755
 9479POPC   C3B50589  25.840  18.430   7.055
 9479POPC   C4B50590  25.790  18.412   7.355
 9480POPC   NC350591  24.499  27.629   5.555
 9480POPC   PO450592  24.532  27.642   5.855
 9480POPC   GL150593  24.465  27.556   6.155
 9480POPC   GL250594  24.396  27.613   6.155
 9480POPC   C1A50595  24.539  27.594   6.455
 9480POPC   D2A50596  24.527  27.560   6.755
 9480POPC   C3A50597  24.502  27.601   7.055
 9480POPC   C4A50598  24.516  27.614   7.355
 9480POPC   C1B50599  24.221  27.564   6.455
 9480POPC   C2B50600  24.250  27.543   6.755
 9480POPC   C3B50601  24.285  27.551   7.055
 9480POPC   C4B50602  24.234  27.520   7.355
 9481POPC   NC350603   5.879  43.066   5.555
 9481POPC   PO450604   5.897  43.139   5.855
 9481POPC   GL150605   5.875  43.147   6.155
 9481POPC   GL250606   5.984  43.202   6.155
 9481POPC   C1A50607   5.848  43.095   6.455
 9481POPC   D2A50608   5.866  43.077   6.755
 9481POPC   C3A50609   5.857  43.069   7.055
 9481POPC   C4A50610   5.889  43.083   7.355
 9481POPC   C1B50611   6.062  43.150   6.455
 9481POPC   C2B50612   6.097  43.237   6.755
 9481POPC   C3B50613   6.124  43.209   7.055
 9481POPC   C4B50614   6.151  43.169   7.355
 9482POPC   NC350615   4.306  32.976   5.555
 9482POPC   PO450616   4.329  33.043   5.855
 9482POPC   GL150617   4.350  33.019   6.155
 9482POPC   GL250618   4.295  33.102   6.155
 9482POPC   C1A50619   4.333  33.068   6.455
 9482POPC   D2A50620   4.347  32.992   6.755
 9482POPC   C3A50621   4.296  32.980   7.055
 9482POPC   C4A50622   4.293  32.987   7.355
 9482POPC   C1B50623   4.345  33.317   6.455
 9482POPC   C2B50624   4.359  33.271   6.755
 9482POPC   C3B50625   4.359  33.257   7.055
 9482POPC   C4B50626   4.281  33.309   7.355
 9483POPC   NC350627   3.539  29.180   5.555
 9483POPC   PO450628   3.497  29.176   5.855
 9483POPC   GL150629   3.496  29.185   6.155
 9483POPC   GL250630   3.682  29.113   6.155
 9483POPC   C1A50631   3.544  29.149   6.455
 9483POPC   D2A50632   3.520  29.162   6.755
 9483POPC   C3A50633   3.502  29.177   7.055
 9483POPC   C4A50634   3.496  29.150   7.355
 9483POPC   C1B50635   3.691  29.018   6.455
 9483POPC   C2B50636   3.772  28.970   6.755
 9483POPC   C3B50637   3.772  28.979   7.055
 9483POPC   C4B50638   3.762  28.996   7.355
 9484POPC   NC350639  23.708  25.221   5.555
 9484POPC   PO450640  23.721  25.310   5.855
 9484POPC   GL150641  23.671  25.273   6.155
 9484POPC   GL250642  23.848  25.221   6.155
 9484POPC   C1A50643  23.684  25.230   6.455
 9484POPC   D2A50644  23.758  25.280   6.755
 9484POPC   C3A50645  23.719  25.234   7.055
 9484POPC   C4A50646  23.696  25.295   7.355
 9484POPC   C1B50647  23.967  25.222   6.455
 9484POPC   C2B50648  23.942  25.217   6.755
 9484POPC   C3B50649  23.928  25.208   7.055
 9484POPC   C4B50650  23.985  25.214   7.355
 9485POPC   NC350651  13.665   8.991   5.555
 9485POPC   PO450652  13.616   8.999   5.855
 9485POPC   GL150653  13.656   8.974   6.155
 9485POPC   GL250654  13.706   8.911   6.155
 9485POPC   C1A50655  13.583   8.940   6.455
 9485POPC   D2A50656  13.584   9.011   6.755
 9485POPC   C3A50657  13.656   8.923   7.055
 9485POPC   C4A50658  13.650   9.015   7.355
 9485POPC   C1B50659  13.727   8.718   6.455
 9485POPC   C2B50660  13.726   8.802   6.755
 9485POPC   C3B50661  13.755   8.756   7.055
 9485POPC   C4B50662  13.758   8.725   7.355
 9486POPC   NC350663  18.325  31.484   5.555
 9486POPC   PO450664  18.272  31.519   5.855
 9486POPC   GL150665  18.318  31.443   6.155
 9486POPC   GL250666  18.219  31.614   6.155
 9486POPC   C1A50667  18.272  31.427   6.455
 9486POPC   D2A50668  18.274  31.465   6.755
 9486POPC   C3A50669  18.255  31.423   7.055
 9486POPC   C4A50670  18.263  31.474   7.355
 9486POPC   C1B50671  18.121  31.650   6.455
 9486POPC   C2B50672  18.161  31.741   6.755
 9486POPC   C3B50673  18.180  31.679   7.055
 9486POPC   C4B50674  18.178  31.720   7.355
 9487POPC   NC350675  30.661  40.771   5.555
 9487POPC   PO450676  30.732  40.751   5.855
 9487POPC   GL150677  30.719  40.768   6.155
 9487POPC   GL250678  30.621  40.819   6.155
 9487POPC   C1A50679  30.665  40.759   6.455
 9487POPC   D2A50680  30.705  40.741   6.755
 9487POPC   C3A50681  30.668  40.772   7.055
 9487POPC   C4A50682  30.692  40.781   7.355
 9487POPC   C1B50683  30.488  40.914   6.455
 9487POPC   C2B50684  30.508  40.850   6.755
 9487POPC   C3B50685  30.497  40.913   7.055
 9487POPC   C4B50686  30.479  40.912   7.355
 9488POPC   NC350687   5.917  36.880   5.555
 9488POPC   PO450688   5.914  36.938   5.855
 9488POPC   GL150689   5.853  36.879   6.155
 9488POPC   GL250690   5.977  36.852   6.155
 9488POPC   C1A50691   5.873  36.890   6.455
 9488POPC   D2A50692   5.856  36.903   6.755
 9488POPC   C3A50693   5.859  36.873   7.055
 9488POPC   C4A50694   5.907  36.936   7.355
 9488POPC   C1B50695   6.075  36.722   6.455
 9488POPC   C2B50696   5.983  36.690   6.755
 9488POPC   C3B50697   6.003  36.663   7.055
 9488POPC   C4B50698   6.074  36.706   7.355
 9489POPC   NC350699   1.941   1.209   5.555
 9489POPC   PO450700   1.979   1.249   5.855
 9489POPC   GL150701   2.031   1.177   6.155
 9489POPC   GL250702   1.856   1.110   6.155
 9489POPC   C1A50703   1.944   1.246   6.455
 9489POPC   D2A50704   1.956   1.248   6.755
 9489POPC   C3A50705   2.001   1.239   7.055
 9489POPC   C4A50706   2.002   1.168   7.355
 9489POPC   C1B50707   1.849   1.003   6.455
 9489POPC   C2B50708   1.795   1.059   6.755
 9489POPC   C3B50709   1.779   1.049   7.055
 9489POPC   C4B50710   1.778   1.081   7.355
 9490POPC   NC350711  43.115  29.190   5.555
 9490POPC   PO450712  43.066  29.156   5.855
 9490POPC   GL150713  43.068  29.143   6.155
 9490POPC   GL250714  43.089  29.281   6.155
 9490POPC   C1A50715  43.126  29.174   6.455
 9490POPC   D2A50716  43.092  29.177   6.755
 9490POPC   C3A50717  43.069  29.178   7.055
 9490POPC   C4A50718  43.079  29.106   7.355
 9490POPC   C1B50719  43.019  29.415   6.455
 9490POPC   C2B50720  43.004  29.405   6.755
 9490POPC   C3B50721  43.088  29.399   7.055
 9490POPC   C4B50722  43.091  29.405   7.355
 9491POPC   NC350723   1.185  44.624   5.555
 9491POPC   PO450724   1.230  44.662   5.855
 9491POPC   GL150725   1.249  44.643   6.155
 9491POPC   GL250726   1.119  44.653   6.155
 9491POPC   C1A50727   1.239  44.676   6.455
 9491POPC   D2A50728   1.250  44.634   6.755
 9491POPC   C3A50729   1.193  44.613   7.055
 9491POPC   C4A50730   1.255  44.701   7.355
 9491POPC   C1B50731   0.986  44.730   6.455
 9491POPC   C2B50732   0.935  44.667   6.755
 9491POPC   C3B50733   0.965  44.652   7.055
 9491POPC   C4B50734   0.946  44.743   7.355
 9492POPC   NC350735  35.398  37.669   5.555
 9492POPC   PO450736  35.332  37.647   5.855
 9492POPC   GL150737  35.359  37.705   6.155
 9492POPC   GL250738  35.482  37.653   6.155
 9492POPC   C1A50739  35.304  37.641   6.455
 9492POPC   D2A50740  35.384  37.653   6.755
 9492POPC   C3A50741  35.316  37.699   7.055
 9492POPC   C4A50742  35.305  37.728   7.355
 9492POPC   C1B50743  35.569  37.639   6.455
 9492POPC   C2B50744  35.600  37.641   6.755
 9492POPC   C3B50745  35.594  37.664   7.055
 9492POPC   C4B50746  35.545  37.614   7.355
 9493POPC   NC350747  44.697   8.174   5.555
 9493POPC   PO450748  44.657   8.188   5.855
 9493POPC   GL150749  44.619   8.183   6.155
 9493POPC   GL250750  44.508   8.181   6.155
 9493POPC   C1A50751  44.689   8.168   6.455
 9493POPC   D2A50752  44.655   8.176   6.755
 9493POPC   C3A50753  44.622   8.229   7.055
 9493POPC   C4A50754  44.701   8.193   7.355
 9493POPC   C1B50755  44.402   8.276   6.455
 9493POPC   C2B50756  44.384   8.306   6.755
 9493POPC   C3B50757  44.425   8.311   7.055
 9493POPC   C4B50758  44.416   8.311   7.355
 9494POPC   NC350759  36.112  13.670   5.555
 9494POPC   PO450760  36.168  13.587   5.855
 9494POPC   GL150761  36.134  13.651   6.155
 9494POPC   GL250762  36.010  13.606   6.155
 9494POPC   C1A50763  36.148  13.607   6.455
 9494POPC   D2A50764  36.099  13.607   6.755
 9494POPC   C3A50765  36.143  13.640   7.055
 9494POPC   C4A50766  36.121  13.641   7.355
 9494POPC   C1B50767  35.874  13.550   6.455
 9494POPC   C2B50768  35.911  13.602   6.755
 9494POPC   C3B50769  35.904  13.625   7.055
 9494POPC   C4B50770  35.882  13.625   7.355
 9495POPC   NC350771  40.038   8.935   5.555
 9495POPC   PO450772  40.043   8.939   5.855
 9495POPC   GL150773  39.959   9.012   6.155
 9495POPC   GL250774  40.108   8.936   6.155
 9495POPC   C1A50775  39.990   8.947   6.455
 9495POPC   D2A50776  39.998   8.990   6.755
 9495POPC   C3A50777  39.986   8.951   7.055
 9495POPC   C4A50778  40.051   8.942   7.355
 9495POPC   C1B50779  40.257   8.868   6.455
 9495POPC   C2B50780  40.211   8.830   6.755
 9495POPC   C3B50781  40.276   8.818   7.055
 9495POPC   C4B50782  40.205   8.824   7.355
 9496POPC   NC350783  20.625  14.371   5.555
 9496POPC   PO450784  20.620  14.430   5.855
 9496POPC   GL150785  20.646  14.422   6.155
 9496POPC   GL250786  20.534  14.398   6.155
 9496POPC   C1A50787  20.604  14.356   6.455
 9496POPC   D2A50788  20.654  14.366   6.755
 9496POPC   C3A50789  20.566  14.423   7.055
 9496POPC   C4A50790  20.657  14.453   7.355
 9496POPC   C1B50791  20.333  14.446   6.455
 9496POPC   C2B50792  20.357  14.492   6.755
 9496POPC   C3B50793  20.397  14.441   7.055
 9496POPC   C4B50794  20.386  14.512   7.355
 9497POPC   NC350795  37.726  30.712   5.555
 9497POPC   PO450796  37.702  30.720   5.855
 9497POPC   GL150797  37.690  30.702   6.155
 9497POPC   GL250798  37.710  30.551   6.155
 9497POPC   C1A50799  37.712  30.686   6.455
 9497POPC   D2A50800  37.635  30.664   6.755
 9497POPC   C3A50801  37.687  30.712   7.055
 9497POPC   C4A50802  37.723  30.696   7.355
 9497POPC   C1B50803  37.680  30.459   6.455
 9497POPC   C2B50804  37.663  30.492   6.755
 9497POPC   C3B50805  37.648  30.463   7.055
 9497POPC   C4B50806  37.636  30.436   7.355
 9498POPC   NC350807  19.092   9.784   5.555
 9498POPC   PO450808  19.107   9.742   5.855
 9498POPC   GL150809  19.012   9.744   6.155
 9498POPC   GL250810  19.120   9.596   6.155
 9498POPC   C1A50811  19.078   9.766   6.455
 9498POPC   D2A50812  19.062   9.797   6.755
 9498POPC   C3A50813  19.042   9.709   7.055
 9498POPC   C4A50814  19.090   9.744   7.355
 9498POPC   C1B50815  19.096   9.527   6.455
 9498POPC   C2B50816  19.092   9.520   6.755
 9498POPC   C3B50817  19.131   9.468   7.055
 9498POPC   C4B50818  19.113   9.543   7.355
 9499POPC   NC350819   6.660  26.028   5.555
 9499POPC   PO450820   6.682  26.007   5.855
 9499POPC   GL150821   6.672  26.061   6.155
 9499POPC   GL250822   6.648  25.925   6.155
 9499POPC   C1A50823   6.609  26.075   6.455
 9499POPC   D2A50824   6.661  26.036   6.755
 9499POPC   C3A50825   6.643  26.021   7.055
 9499POPC   C4A50826   6.599  26.034   7.355
 9499POPC   C1B50827   6.594  25.770   6.455
 9499POPC   C2B50828   6.632  25.787   6.755
 9499POPC   C3B50829   6.551  25.768   7.055
 9499POPC   C4B50830   6.562  25.830   7.355
 9500POPC   NC350831  20.640  16.736   5.555
 9500POPC   PO450832  20.611  16.768   5.855
 9500POPC   GL150833  20.563  16.702   6.155
 9500POPC   GL250834  20.572  16.620   6.155
 9500POPC   C1A50835  20.584  16.744   6.455
 9500POPC   D2A50836  20.584  16.757   6.755
 9500POPC   C3A50837  20.627  16.773   7.055
 9500POPC   C4A50838  20.630  16.768   7.355
 9500POPC   C1B50839  20.469  16.557   6.455
 9500POPC   C2B50840  20.407  16.531   6.755
 9500POPC   C3B50841  20.493  16.521   7.055
 9500POPC   C4B50842  20.406  16.546   7.355
 9501POPC   NC350843  25.227   5.915   5.555
 9501POPC   PO450844  25.305   5.896   5.855
 9501POPC   GL150845  25.254   5.849   6.155
 9501POPC   GL250846  25.410   5.799   6.155
 9501POPC   C1A50847  25.268   5.869   6.455
 9501POPC   D2A50848  25.306   5.837   6.755
 9501POPC   C3A50849  25.273   5.854   7.055
 9501POPC   C4A50850  25.240   5.897   7.355
 9501POPC   C1B50851  25.429   5.742   6.455
 9501POPC   C2B50852  25.412   5.672   6.755
 9501POPC   C3B50853  25.494   5.749   7.055
 9501POPC   C4B50854  25.472   5.701   7.355
 9502POPC   NC350855   5.128  36.177   5.555
 9502POPC   PO450856   5.105  36.115   5.855
 9502POPC   GL150857   5.084  36.115   6.155
 9502POPC   GL250858   5.169  35.981   6.155
 9502POPC   C1A50859   5.062  36.168   6.455
 9502POPC   D2A50860   5.047  36.129   6.755
 9502POPC   C3A50861   5.058  36.111   7.055
 9502POPC   C4A50862   5.122  36.161   7.355
 9502POPC   C1B50863   5.196  35.884   6.455
 9502POPC   C2B50864   5.264  35.904   6.755
 9502POPC   C3B50865   5.184  35.907   7.055
 9502POPC   C4B50866   5.201  35.910   7.355
 9503POPC   NC350867  26.775  40.024   5.555
 9503POPC   PO450868  26.831  40.014   5.855
 9503POPC   GL150869  26.825  39.980   6.155
 9503POPC   GL250870  26.773  39.846   6.155
 9503POPC   C1A50871  26.810  40.039   6.455
 9503POPC   D2A50872  26.826  40.028   6.755
 9503POPC   C3A50873  26.858  39.994   7.055
 9503POPC   C4A50874  26.855  40.054   7.355
 9503POPC   C1B50875  26.765  39.795   6.455
 9503POPC   C2B50876  26.825  39.732   6.755
 9503POPC   C3B50877  26.731  39.776   7.055
 9503POPC   C4B50878  26.757  39.754   7.355
 9504POPC   NC350879  36.866  15.937   5.555
 9504POPC   PO450880  36.854  15.919   5.855
 9504POPC   GL150881  36.935  15.983   6.155
 9504POPC   GL250882  37.022  16.028   6.155
 9504POPC   C1A50883  36.858  15.983   6.455
 9504POPC   D2A50884  36.932  15.986   6.755
 9504POPC   C3A50885  36.903  15.909   7.055
 9504POPC   C4A50886  36.912  15.916   7.355
 9504POPC   C1B50887  37.071  16.048   6.455
 9504POPC   C2B50888  37.144  16.045   6.755
 9504POPC   C3B50889  37.080  16.124   7.055
 9504POPC   C4B50890  37.151  16.119   7.355
 9505POPC   NC350891  44.660  39.996   5.555
 9505POPC   PO450892  44.680  40.051   5.855
 9505POPC   GL150893  44.627  40.046   6.155
 9505POPC   GL250894  44.712  39.930   6.155
 9505POPC   C1A50895  44.623  39.972   6.455
 9505POPC   D2A50896  44.662  39.968   6.755
 9505POPC   C3A50897  44.687  40.014   7.055
 9505POPC   C4A50898  44.671  39.984   7.355
 9505POPC   C1B50899  44.767  39.780   6.455
 9505POPC   C2B50900  44.745  39.835   6.755
 9505POPC   C3B50901  44.811  39.780   7.055
 9505POPC   C4B50902  44.792  39.804   7.355
 9506POPC   NC350903  23.683  27.553   5.555
 9506POPC   PO450904  23.690  27.624   5.855
 9506POPC   GL150905  23.750  27.547   6.155
 9506POPC   GL250906  23.620  27.674   6.155
 9506POPC   C1A50907  23.692  27.576   6.455
 9506POPC   D2A50908  23.664  27.630   6.755
 9506POPC   C3A50909  23.720  27.617   7.055
 9506POPC   C4A50910  23.675  27.642   7.355
 9506POPC   C1B50911  23.575  27.816   6.455
 9506POPC   C2B50912  23.604  27.799   6.755
 9506POPC   C3B50913  23.610  27.846   7.055
 9506POPC   C4B50914  23.580  27.814   7.355
 9507POPC   NC350915   2.039  33.824   5.555
 9507POPC   PO450916   2.032  33.793   5.855
 9507POPC   GL150917   1.954  33.754   6.155
 9507POPC   GL250918   1.901  33.766   6.155
 9507POPC   C1A50919   1.994  33.807   6.455
 9507POPC   D2A50920   1.942  33.816   6.755
 9507POPC   C3A50921   1.959  33.798   7.055
 9507POPC   C4A50922   1.993  33.764   7.355
 9507POPC   C1B50923   1.751  33.625   6.455
 9507POPC   C2B50924   1.829  33.675   6.755
 9507POPC   C3B50925   1.815  33.625   7.055
 9507POPC   C4B50926   1.781  33.614   7.355
 9508POPC   NC350927  29.098  11.347   5.555
 9508POPC   PO450928  29.108  11.321   5.855
 9508POPC   GL150929  29.115  11.307   6.155
 9508POPC   GL250930  29.000  11.315   6.155
 9508POPC   C1A50931  29.104  11.324   6.455
 9508POPC   D2A50932  29.151  11.297   6.755
 9508POPC   C3A50933  29.181  11.322   7.055
 9508POPC   C4A50934  29.120  11.350   7.355
 9508POPC   C1B50935  28.885  11.323   6.455
 9508POPC   C2B50936  28.853  11.339   6.755
 9508POPC   C3B50937  28.928  11.304   7.055
 9508POPC   C4B50938  28.939  11.292   7.355
 9509POPC   NC350939   1.171  32.295   5.555
 9509POPC   PO450940   1.234  32.219   5.855
 9509POPC   GL150941   1.211  32.205   6.155
 9509POPC   GL250942   1.060  32.222   6.155
 9509POPC   C1A50943   1.174  32.227   6.455
 9509POPC   D2A50944   1.231  32.200   6.755
 9509POPC   C3A50945   1.262  32.270   7.055
 9509POPC   C4A50946   1.225  32.231   7.355
 9509POPC   C1B50947   0.999  32.303   6.455
 9509POPC   C2B50948   0.998  32.331   6.755
 9509POPC   C3B50949   0.921  32.297   7.055
 9509POPC   C4B50950   1.009  32.306   7.355
 9510POPC   NC350951  43.062   4.285   5.555
 9510POPC   PO450952  43.076   4.360   5.855
 9510POPC   GL150953  43.117   4.296   6.155
 9510POPC   GL250954  43.099   4.155   6.155
 9510POPC   C1A50955  43.070   4.310   6.455
 9510POPC   D2A50956  43.139   4.362   6.755
 9510POPC   C3A50957  43.159   4.287   7.055
 9510POPC   C4A50958  43.094   4.367   7.355
 9510POPC   C1B50959  43.037   4.084   6.455
 9510POPC   C2B50960  43.048   4.066   6.755
 9510POPC   C3B50961  43.060   4.079   7.055
 9510POPC   C4B50962  43.058   4.112   7.355
 9511POPC   NC350963  29.879   8.194   5.555
 9511POPC   PO450964  29.949   8.156   5.855
 9511POPC   GL150965  29.944   8.200   6.155
 9511POPC   GL250966  29.983   8.274   6.155
 9511POPC   C1A50967  29.949   8.192   6.455
 9511POPC   D2A50968  29.913   8.224   6.755
 9511POPC   C3A50969  29.905   8.174   7.055
 9511POPC   C4A50970  29.924   8.223   7.355
 9511POPC   C1B50971  30.089   8.415   6.455
 9511POPC   C2B50972  30.083   8.411   6.755
 9511POPC   C3B50973  30.111   8.420   7.055
 9511POPC   C4B50974  30.091   8.404   7.355
 9512POPC   NC350975  13.602   2.027   5.555
 9512POPC   PO450976  13.599   1.973   5.855
 9512POPC   GL150977  13.596   2.012   6.155
 9512POPC   GL250978  13.643   1.825   6.155
 9512POPC   C1A50979  13.638   1.970   6.455
 9512POPC   D2A50980  13.596   1.985   6.755
 9512POPC   C3A50981  13.626   1.992   7.055
 9512POPC   C4A50982  13.665   1.991   7.355
 9512POPC   C1B50983  13.571   1.737   6.455
 9512POPC   C2B50984  13.579   1.779   6.755
 9512POPC   C3B50985  13.591   1.731   7.055
 9512POPC   C4B50986  13.562   1.777   7.355
 9513POPC   NC350987  26.015  19.073   5.555
 9513POPC   PO450988  26.030  19.105   5.855
 9513POPC   GL150989  26.032  19.097   6.155
 9513POPC   GL250990  26.039  18.892   6.155
 9513POPC   C1A50991  26.024  19.098   6.455
 9513POPC   D2A50992  26.069  19.056   6.755
 9513POPC   C3A50993  25.995  19.072   7.055
 9513POPC   C4A50994  26.036  19.104   7.355
 9513POPC   C1B50995  26.097  18.785   6.455
 9513POPC   C2B50996  26.083  18.788   6.755
 9513POPC   C3B50997  26.055  18.832   7.055
 9513POPC   C4B50998  26.100  18.782   7.355
 9514POPC   NC350999   4.319   1.228   5.555
 9514POPC   PO451000   4.295   1.212   5.855
 9514POPC   GL151001   4.358   1.206   6.155
 9514POPC   GL251002   4.289   1.061   6.155
 9514POPC   C1A51003   4.269   1.180   6.455
 9514POPC   D2A51004   4.270   1.208   6.755
 9514POPC   C3A51005   4.355   1.246   7.055
 9514POPC   C4A51006   4.294   1.260   7.355
 9514POPC   C1B51007   4.327   0.987   6.455
 9514POPC   C2B51008   4.340   0.963   6.755
 9514POPC   C3B51009   4.356   0.976   7.055
 9514POPC   C4B51010   4.325   0.928   7.355
 9515POPC   NC351011  20.636  24.450   5.555
 9515POPC   PO451012  20.613  24.496   5.855
 9515POPC   GL151013  20.591  24.505   6.155
 9515POPC   GL251014  20.615  24.607   6.155
 9515POPC   C1A51015  20.607  24.450   6.455
 9515POPC   D2A51016  20.575  24.517   6.755
 9515POPC   C3A51017  20.605  24.446   7.055
 9515POPC   C4A51018  20.568  24.462   7.355
 9515POPC   C1B51019  20.576  24.762   6.455
 9515POPC   C2B51020  20.565  24.692   6.755
 9515POPC   C3B51021  20.510  24.686   7.055
 9515POPC   C4B51022  20.535  24.745   7.355
 9516POPC   NC351023   5.069  35.386   5.555
 9516POPC   PO451024   5.104  35.314   5.855
 9516POPC   GL151025   5.068  35.399   6.155
 9516POPC   GL251026   5.178  35.326   6.155
 9516POPC   C1A51027   5.045  35.393   6.455
 9516POPC   D2A51028   5.121  35.325   6.755
 9516POPC   C3A51029   5.123  35.350   7.055
 9516POPC   C4A51030   5.140  35.327   7.355
 9516POPC   C1B51031   5.319  35.346   6.455
 9516POPC   C2B51032   5.351  35.365   6.755
 9516POPC   C3B51033   5.361  35.336   7.055
 9516POPC   C4B51034   5.374  35.354   7.355
 9517POPC   NC351035  27.637  26.812   5.555
 9517POPC   PO451036  27.601  26.839   5.855
 9517POPC   GL151037  27.557  26.840   6.155
 9517POPC   GL251038  27.727  26.900   6.155
 9517POPC   C1A51039  27.556  26.813   6.455
 9517POPC   D2A51040  27.612  26.805   6.755
 9517POPC   C3A51041  27.556  26.825   7.055
 9517POPC   C4A51042  27.554  26.781   7.355
 9517POPC   C1B51043  27.797  26.996   6.455
 9517POPC   C2B51044  27.754  26.941   6.755
 9517POPC   C3B51045  27.816  26.990   7.055
 9517POPC   C4B51046  27.829  26.978   7.355
 9518POPC   NC351047   1.243   9.711   5.555
 9518POPC   PO451048   1.172   9.761   5.855
 9518POPC   GL151049   1.168   9.797   6.155
 9518POPC   GL251050   1.333   9.736   6.155
 9518POPC   C1A51051   1.196   9.724   6.455
 9518POPC   D2A51052   1.233   9.790   6.755
 9518POPC   C3A51053   1.235   9.741   7.055
 9518POPC   C4A51054   1.181   9.706   7.355
 9518POPC   C1B51055   1.454   9.730   6.455
 9518POPC   C2B51056   1.505   9.665   6.755
 9518POPC   C3B51057   1.475   9.660   7.055
 9518POPC   C4B51058   1.426   9.711   7.355
 9519POPC   NC351059  15.170  37.678   5.555
 9519POPC   PO451060  15.204  37.703   5.855
 9519POPC   GL151061  15.159  37.631   6.155
 9519POPC   GL251062  15.270  37.744   6.155
 9519POPC   C1A51063  15.196  37.657   6.455
 9519POPC   D2A51064  15.220  37.661   6.755
 9519POPC   C3A51065  15.186  37.727   7.055
 9519POPC   C4A51066  15.143  37.712   7.355
 9519POPC   C1B51067  15.347  37.798   6.455
 9519POPC   C2B51068  15.359  37.779   6.755
 9519POPC   C3B51069  15.393  37.764   7.055
 9519POPC   C4B51070  15.358  37.802   7.355
 9520POPC   NC351071  25.263  14.367   5.555
 9520POPC   PO451072  25.293  14.437   5.855
 9520POPC   GL151073  25.245  14.388   6.155
 9520POPC   GL251074  25.275  14.559   6.155
 9520POPC   C1A51075  25.289  14.422   6.455
 9520POPC   D2A51076  25.290  14.419   6.755
 9520POPC   C3A51077  25.272  14.397   7.055
 9520POPC   C4A51078  25.251  14.445   7.355
 9520POPC   C1B51079  25.140  14.655   6.455
 9520POPC   C2B51080  25.146  14.616   6.755
 9520POPC   C3B51081  25.151  14.682   7.055
 9520POPC   C4B51082  25.156  14.689   7.355
 9521POPC   NC351083  37.706  10.488   5.555
 9521POPC   PO451084  37.653  10.509   5.855
 9521POPC   GL151085  37.676  10.554   6.155
 9521POPC   GL251086  37.675  10.411   6.155
 9521POPC   C1A51087  37.640  10.544   6.455
 9521POPC   D2A51088  37.726  10.557   6.755
 9521POPC   C3A51089  37.716  10.567   7.055
 9521POPC   C4A51090  37.637  10.506   7.355
 9521POPC   C1B51091  37.616  10.322   6.455
 9521POPC   C2B51092  37.591  10.263   6.755
 9521POPC   C3B51093  37.667  10.232   7.055
 9521POPC   C4B51094  37.629  10.291   7.355
 9522POPC   NC351095  22.971  24.521   5.555
 9522POPC   PO451096  22.902  24.484   5.855
 9522POPC   GL151097  22.965  24.499   6.155
 9522POPC   GL251098  22.876  24.438   6.155
 9522POPC   C1A51099  22.977  24.465   6.455
 9522POPC   D2A51100  22.961  24.486   6.755
 9522POPC   C3A51101  22.904  24.520   7.055
 9522POPC   C4A51102  22.912  24.521   7.355
 9522POPC   C1B51103  22.739  24.348   6.455
 9522POPC   C2B51104  22.720  24.327   6.755
 9522POPC   C3B51105  22.730  24.330   7.055
 9522POPC   C4B51106  22.733  24.344   7.355
 9523POPC   NC351107  34.611   6.681   5.555
 9523POPC   PO451108  34.551   6.645   5.855
 9523POPC   GL151109  34.556   6.672   6.155
 9523POPC   GL251110  34.697   6.754   6.155
 9523POPC   C1A51111  34.605   6.632   6.455
 9523POPC   D2A51112  34.581   6.687   6.755
 9523POPC   C3A51113  34.528   6.631   7.055
 9523POPC   C4A51114  34.569   6.692   7.355
 9523POPC   C1B51115  34.780   6.760   6.455
 9523POPC   C2B51116  34.793   6.721   6.755
 9523POPC   C3B51117  34.759   6.775   7.055
 9523POPC   C4B51118  34.816   6.784   7.355
 9524POPC   NC351119  16.684  39.214   5.555
 9524POPC   PO451120  16.714  39.198   5.855
 9524POPC   GL151121  16.777  39.227   6.155
 9524POPC   GL251122  16.761  39.067   6.155
 9524POPC   C1A51123  16.742  39.268   6.455
 9524POPC   D2A51124  16.753  39.220   6.755
 9524POPC   C3A51125  16.742  39.184   7.055
 9524POPC   C4A51126  16.729  39.192   7.355
 9524POPC   C1B51127  16.798  39.038   6.455
 9524POPC   C2B51128  16.779  39.016   6.755
 9524POPC   C3B51129  16.813  39.014   7.055
 9524POPC   C4B51130  16.837  38.954   7.355
 9525POPC   NC351131   6.647  43.849   5.555
 9525POPC   PO451132   6.649  43.838   5.855
 9525POPC   GL151133   6.605  43.863   6.155
 9525POPC   GL251134   6.741  43.949   6.155
 9525POPC   C1A51135   6.686  43.896   6.455
 9525POPC   D2A51136   6.643  43.860   6.755
 9525POPC   C3A51137   6.603  43.911   7.055
 9525POPC   C4A51138   6.617  43.929   7.355
 9525POPC   C1B51139   6.762  44.121   6.455
 9525POPC   C2B51140   6.826  44.048   6.755
 9525POPC   C3B51141   6.851  44.084   7.055
 9525POPC   C4B51142   6.794  44.072   7.355
 9526POPC   NC351143  43.889  10.488   5.555
 9526POPC   PO451144  43.933  10.558   5.855
 9526POPC   GL151145  43.884  10.510   6.155
 9526POPC   GL251146  44.019  10.658   6.155
 9526POPC   C1A51147  43.866  10.542   6.455
 9526POPC   D2A51148  43.929  10.556   6.755
 9526POPC   C3A51149  43.927  10.504   7.055
 9526POPC   C4A51150  43.925  10.573   7.355
 9526POPC   C1B51151  44.103  10.740   6.455
 9526POPC   C2B51152  44.101  10.743   6.755
 9526POPC   C3B51153  44.080  10.689   7.055
 9526POPC   C4B51154  44.049  10.718   7.355
 9527POPC   NC351155   5.109  40.022   5.555
 9527POPC   PO451156   5.066  39.957   5.855
 9527POPC   GL151157   5.086  40.052   6.155
 9527POPC   GL251158   4.936  40.057   6.155
 9527POPC   C1A51159   5.061  39.988   6.455
 9527POPC   D2A51160   5.062  40.020   6.755
 9527POPC   C3A51161   5.084  40.011   7.055
 9527POPC   C4A51162   5.071  40.037   7.355
 9527POPC   C1B51163   4.868  40.092   6.455
 9527POPC   C2B51164   4.860  40.106   6.755
 9527POPC   C3B51165   4.866  40.146   7.055
 9527POPC   C4B51166   4.920  40.106   7.355
 9528POPC   NC351167  11.297  33.767   5.555
 9528POPC   PO451168  11.343  33.754   5.855
 9528POPC   GL151169  11.259  33.799   6.155
 9528POPC   GL251170  11.195  33.831   6.155
 9528POPC   C1A51171  11.319  33.772   6.455
 9528POPC   D2A51172  11.339  33.792   6.755
 9528POPC   C3A51173  11.282  33.770   7.055
 9528POPC   C4A51174  11.342  33.771   7.355
 9528POPC   C1B51175  11.119  33.944   6.455
 9528POPC   C2B51176  11.066  33.879   6.755
 9528POPC   C3B51177  11.046  33.920   7.055
 9528POPC   C4B51178  11.058  33.859   7.355
 9529POPC   NC351179  22.169  37.676   5.555
 9529POPC   PO451180  22.148  37.667   5.855
 9529POPC   GL151181  22.159  37.644   6.155
 9529POPC   GL251182  22.197  37.811   6.155
 9529POPC   C1A51183  22.164  37.662   6.455
 9529POPC   D2A51184  22.195  37.705   6.755
 9529POPC   C3A51185  22.150  37.713   7.055
 9529POPC   C4A51186  22.175  37.717   7.355
 9529POPC   C1B51187  22.212  37.938   6.455
 9529POPC   C2B51188  22.225  37.868   6.755
 9529POPC   C3B51189  22.279  37.946   7.055
 9529POPC   C4B51190  22.272  37.929   7.355
 9530POPC   NC351191   5.136  22.911   5.555
 9530POPC   PO451192   5.063  22.929   5.855
 9530POPC   GL151193   5.051  22.934   6.155
 9530POPC   GL251194   5.093  23.090   6.155
 9530POPC   C1A51195   5.135  22.935   6.455
 9530POPC   D2A51196   5.113  22.946   6.755
 9530POPC   C3A51197   5.070  22.984   7.055
 9530POPC   C4A51198   5.054  22.955   7.355
 9530POPC   C1B51199   5.041  23.192   6.455
 9530POPC   C2B51200   5.024  23.150   6.755
 9530POPC   C3B51201   5.067  23.220   7.055
 9530POPC   C4B51202   5.026  23.221   7.355
 9531POPC   NC351203  32.243   2.022   5.555
 9531POPC   PO451204  32.281   1.963   5.855
 9531POPC   GL151205  32.203   1.949   6.155
 9531POPC   GL251206  32.131   1.874   6.155
 9531POPC   C1A51207  32.251   1.978   6.455
 9531POPC   D2A51208  32.212   2.007   6.755
 9531POPC   C3A51209  32.266   2.001   7.055
 9531POPC   C4A51210  32.246   1.964   7.355
 9531POPC   C1B51211  32.109   1.792   6.455
 9531POPC   C2B51212  32.036   1.791   6.755
 9531POPC   C3B51213  32.112   1.860   7.055
 9531POPC   C4B51214  32.024   1.847   7.355
 9532POPC   NC351215  42.359  31.475   5.555
 9532POPC   PO451216  42.321  31.427   5.855
 9532POPC   GL151217  42.356  31.502   6.155
 9532POPC   GL251218  42.442  31.561   6.155
 9532POPC   C1A51219  42.304  31.474   6.455
 9532POPC   D2A51220  42.378  31.433   6.755
 9532POPC   C3A51221  42.377  31.460   7.055
 9532POPC   C4A51222  42.372  31.432   7.355
 9532POPC   C1B51223  42.556  31.595   6.455
 9532POPC   C2B51224  42.529  31.605   6.755
 9532POPC   C3B51225  42.601  31.619   7.055
 9532POPC   C4B51226  42.545  31.598   7.355
 9533POPC   NC351227   7.414  40.784   5.555
 9533POPC   PO451228   7.378  40.817   5.855
 9533POPC   GL151229   7.386  40.753   6.155
 9533POPC   GL251230   7.357  40.917   6.155
 9533POPC   C1A51231   7.376  40.734   6.455
 9533POPC   D2A51232   7.404  40.737   6.755
 9533POPC   C3A51233   7.411  40.793   7.055
 9533POPC   C4A51234   7.410  40.778   7.355
 9533POPC   C1B51235   7.284  40.992   6.455
 9533POPC   C2B51236   7.307  41.036   6.755
 9533POPC   C3B51237   7.327  41.022   7.055
 9533POPC   C4B51238   7.340  40.976   7.355
 9534POPC   NC351239  30.741  34.574   5.555
 9534POPC   PO451240  30.684  34.574   5.855
 9534POPC   GL151241  30.741  34.557   6.155
 9534POPC   GL251242  30.623  34.660   6.155
 9534POPC   C1A51243  30.647  34.588   6.455
 9534POPC   D2A51244  30.683  34.599   6.755
 9534POPC   C3A51245  30.694  34.542   7.055
 9534POPC   C4A51246  30.746  34.536   7.355
 9534POPC   C1B51247  30.439  34.713   6.455
 9534POPC   C2B51248  30.451  34.649   6.755
 9534POPC   C3B51249  30.453  34.726   7.055
 9534POPC   C4B51250  30.492  34.668   7.355
 9535POPC   NC351251   8.195  13.614   5.555
 9535POPC   PO451252   8.147  13.677   5.855
 9535POPC   GL151253   8.199  13.604   6.155
 9535POPC   GL251254   8.238  13.796   6.155
 9535POPC   C1A51255   8.174  13.595   6.455
 9535POPC   D2A51256   8.243  13.618   6.755
 9535POPC   C3A51257   8.200  13.586   7.055
 9535POPC   C4A51258   8.204  13.638   7.355
 9535POPC   C1B51259   8.196  13.864   6.455
 9535POPC   C2B51260   8.250  13.856   6.755
 9535POPC   C3B51261   8.196  13.899   7.055
 9535POPC   C4B51262   8.197  13.859   7.355
 9536POPC   NC351263   8.179  23.686   5.555
 9536POPC   PO451264   8.184  23.671   5.855
 9536POPC   GL151265   8.243  23.705   6.155
 9536POPC   GL251266   8.291  23.665   6.155
 9536POPC   C1A51267   8.204  23.730   6.455
 9536POPC   D2A51268   8.170  23.714   6.755
 9536POPC   C3A51269   8.198  23.753   7.055
 9536POPC   C4A51270   8.153  23.721   7.355
 9536POPC   C1B51271   8.425  23.653   6.455
 9536POPC   C2B51272   8.460  23.589   6.755
 9536POPC   C3B51273   8.387  23.617   7.055
 9536POPC   C4B51274   8.439  23.611   7.355
 9537POPC   NC351275  24.522   1.172   5.555
 9537POPC   PO451276  24.491   1.232   5.855
 9537POPC   GL151277  24.491   1.214   6.155
 9537POPC   GL251278  24.472   1.135   6.155
 9537POPC   C1A51279  24.516   1.259   6.455
 9537POPC   D2A51280  24.525   1.193   6.755
 9537POPC   C3A51281  24.505   1.205   7.055
 9537POPC   C4A51282  24.443   1.247   7.355
 9537POPC   C1B51283  24.516   1.005   6.455
 9537POPC   C2B51284  24.526   0.936   6.755
 9537POPC   C3B51285  24.556   1.004   7.055
 9537POPC   C4B51286  24.530   0.998   7.355
 9538POPC   NC351287  12.871  36.922   5.555
 9538POPC   PO451288  12.827  36.940   5.855
 9538POPC   GL151289  12.893  36.866   6.155
 9538POPC   GL251290  12.868  36.808   6.155
 9538POPC   C1A51291  12.847  36.927   6.455
 9538POPC   D2A51292  12.889  36.919   6.755
 9538POPC   C3A51293  12.887  36.932   7.055
 9538POPC   C4A51294  12.820  36.903   7.355
 9538POPC   C1B51295  12.999  36.626   6.455
 9538POPC   C2B51296  12.949  36.697   6.755
 9538POPC   C3B51297  12.996  36.708   7.055
 9538POPC   C4B51298  12.935  36.724   7.355
 9539POPC   NC351299  21.360  43.895   5.555
 9539POPC   PO451300  21.397  43.889   5.855
 9539POPC   GL151301  21.362  43.840   6.155
 9539POPC   GL251302  21.272  43.959   6.155
 9539POPC   C1A51303  21.354  43.931   6.455
 9539POPC   D2A51304  21.348  43.883   6.755
 9539POPC   C3A51305  21.397  43.845   7.055
 9539POPC   C4A51306  21.390  43.925   7.355
 9539POPC   C1B51307  21.176  44.058   6.455
 9539POPC   C2B51308  21.181  44.048   6.755
 9539POPC   C3B51309  21.184  44.080   7.055
 9539POPC   C4B51310  21.153  44.002   7.355
 9540POPC   NC351311   1.212  28.355   5.555
 9540POPC   PO451312   1.204  28.396   5.855
 9540POPC   GL151313   1.196  28.417   6.155
 9540POPC   GL251314   1.361  28.467   6.155
 9540POPC   C1A51315   1.204  28.383   6.455
 9540POPC   D2A51316   1.217  28.408   6.755
 9540POPC   C3A51317   1.208  28.348   7.055
 9540POPC   C4A51318   1.215  28.321   7.355
 9540POPC   C1B51319   1.450  28.506   6.455
 9540POPC   C2B51320   1.451  28.499   6.755
 9540POPC   C3B51321   1.383  28.507   7.055
 9540POPC   C4B51322   1.447  28.499   7.355
 9541POPC   NC351323   0.423   9.732   5.555
 9541POPC   PO451324   0.484   9.704   5.855
 9541POPC   GL151325   0.451   9.768   6.155
 9541POPC   GL251326   0.323   9.701   6.155
 9541POPC   C1A51327   0.438   9.714   6.455
 9541POPC   D2A51328   0.400   9.792   6.755
 9541POPC   C3A51329   0.408   9.791   7.055
 9541POPC   C4A51330   0.412   9.736   7.355
 9541POPC   C1B51331   0.212   9.735   6.455
 9541POPC   C2B51332   0.199   9.755   6.755
 9541POPC   C3B51333   0.235   9.688   7.055
 9541POPC   C4B51334   0.151   9.762   7.355
 9542POPC   NC351335  15.221  40.802   5.555
 9542POPC   PO451336  15.160  40.750   5.855
 9542POPC   GL151337  15.167  40.755   6.155
 9542POPC   GL251338  15.165  40.855   6.155
 9542POPC   C1A51339  15.219  40.758   6.455
 9542POPC   D2A51340  15.153  40.782   6.755
 9542POPC   C3A51341  15.162  40.752   7.055
 9542POPC   C4A51342  15.129  40.774   7.355
 9542POPC   C1B51343  15.151  41.066   6.455
 9542POPC   C2B51344  15.072  40.977   6.755
 9542POPC   C3B51345  15.059  40.972   7.055
 9542POPC   C4B51346  15.114  41.046   7.355
 9543POPC   NC351347   2.770  13.655   5.555
 9543POPC   PO451348   2.721  13.598   5.855
 9543POPC   GL151349   2.780  13.603   6.155
 9543POPC   GL251350   2.893  13.540   6.155
 9543POPC   C1A51351   2.717  13.580   6.455
 9543POPC   D2A51352   2.716  13.653   6.755
 9543POPC   C3A51353   2.810  13.675   7.055
 9543POPC   C4A51354   2.722  13.637   7.355
 9543POPC   C1B51355   2.950  13.544   6.455
 9543POPC   C2B51356   2.998  13.511   6.755
 9543POPC   C3B51357   2.951  13.520   7.055
 9543POPC   C4B51358   2.983  13.485   7.355
 9544POPC   NC351359   4.294  39.250   5.555
 9544POPC   PO451360   4.302  39.185   5.855
 9544POPC   GL151361   4.364  39.209   6.155
 9544POPC   GL251362   4.230  39.232   6.155
 9544POPC   C1A51363   4.298  39.256   6.455
 9544POPC   D2A51364   4.364  39.183   6.755
 9544POPC   C3A51365   4.349  39.275   7.055
 9544POPC   C4A51366   4.291  39.272   7.355
 9544POPC   C1B51367   4.080  39.314   6.455
 9544POPC   C2B51368   4.074  39.277   6.755
 9544POPC   C3B51369   4.057  39.244   7.055
 9544POPC   C4B51370   4.096  39.272   7.355
 9545POPC   NC351371  23.731   4.327   5.555
 9545POPC   PO451372  23.739   4.348   5.855
 9545POPC   GL151373  23.763   4.272   6.155
 9545POPC   GL251374  23.805   4.388   6.155
 9545POPC   C1A51375  23.732   4.272   6.455
 9545POPC   D2A51376  23.725   4.295   6.755
 9545POPC   C3A51377  23.675   4.312   7.055
 9545POPC   C4A51378  23.708   4.278   7.355
 9545POPC   C1B51379  23.917   4.399   6.455
 9545POPC   C2B51380  23.986   4.421   6.755
 9545POPC   C3B51381  23.967   4.404   7.055
 9545POPC   C4B51382  23.952   4.402   7.355
 9546POPC   NC351383  22.958  26.812   5.555
 9546POPC   PO451384  22.964  26.829   5.855
 9546POPC   GL151385  22.919  26.850   6.155
 9546POPC   GL251386  23.067  26.894   6.155
 9546POPC   C1A51387  22.957  26.800   6.455
 9546POPC   D2A51388  22.918  26.783   6.755
 9546POPC   C3A51389  22.948  26.798   7.055
 9546POPC   C4A51390  22.937  26.770   7.355
 9546POPC   C1B51391  23.178  26.970   6.455
 9546POPC   C2B51392  23.102  26.986   6.755
 9546POPC   C3B51393  23.156  26.990   7.055
 9546POPC   C4B51394  23.194  26.994   7.355
 9547POPC   NC351395  24.451  41.564   5.555
 9547POPC   PO451396  24.468  41.546   5.855
 9547POPC   GL151397  24.453  41.567   6.155
 9547POPC   GL251398  24.638  41.508   6.155
 9547POPC   C1A51399  24.504  41.562   6.455
 9547POPC   D2A51400  24.463  41.568   6.755
 9547POPC   C3A51401  24.533  41.541   7.055
 9547POPC   C4A51402  24.491  41.529   7.355
 9547POPC   C1B51403  24.727  41.421   6.455
 9547POPC   C2B51404  24.758  41.465   6.755
 9547POPC   C3B51405  24.722  41.452   7.055
 9547POPC   C4B51406  24.749  41.457   7.355
 9548POPC   NC351407  24.535  19.061   5.555
 9548POPC   PO451408  24.500  19.068   5.855
 9548POPC   GL151409  24.455  19.098   6.155
 9548POPC   GL251410  24.410  19.137   6.155
 9548POPC   C1A51411  24.445  19.017   6.455
 9548POPC   D2A51412  24.504  19.107   6.755
 9548POPC   C3A51413  24.531  19.053   7.055
 9548POPC   C4A51414  24.458  19.033   7.355
 9548POPC   C1B51415  24.363  19.310   6.455
 9548POPC   C2B51416  24.403  19.298   6.755
 9548POPC   C3B51417  24.409  19.280   7.055
 9548POPC   C4B51418  24.340  19.276   7.355
 9549POPC   NC351419  34.538  15.909   5.555
 9549POPC   PO451420  34.549  15.991   5.855
 9549POPC   GL151421  34.573  16.000   6.155
 9549POPC   GL251422  34.659  15.890   6.155
 9549POPC   C1A51423  34.557  16.001   6.455
 9549POPC   D2A51424  34.603  15.983   6.755
 9549POPC   C3A51425  34.622  15.947   7.055
 9549POPC   C4A51426  34.585  15.919   7.355
 9549POPC   C1B51427  34.781  15.859   6.455
 9549POPC   C2B51428  34.830  15.871   6.755
 9549POPC   C3B51429  34.783  15.843   7.055
 9549POPC   C4B51430  34.809  15.828   7.355
 9550POPC   NC351431  40.012  39.235   5.555
 9550POPC   PO451432  40.006  39.264   5.855
 9550POPC   GL151433  40.055  39.279   6.155
 9550POPC   GL251434  40.062  39.140   6.155
 9550POPC   C1A51435  40.026  39.200   6.455
 9550POPC   D2A51436  39.993  39.257   6.755
 9550POPC   C3A51437  40.046  39.207   7.055
 9550POPC   C4A51438  40.003  39.260   7.355
 9550POPC   C1B51439  40.147  39.027   6.455
 9550POPC   C2B51440  40.152  38.985   6.755
 9550POPC   C3B51441  40.145  38.995   7.055
 9550POPC   C4B51442  40.132  39.068   7.355
 9551POPC   NC351443  15.906  23.704   5.555
 9551POPC   PO451444  15.915  23.746   5.855
 9551POPC   GL151445  15.951  23.716   6.155
 9551POPC   GL251446  16.099  23.690   6.155
 9551POPC   C1A51447  15.984  23.665   6.455
 9551POPC   D2A51448  15.941  23.702   6.755
 9551POPC   C3A51449  15.967  23.715   7.055
 9551POPC   C4A51450  15.983  23.689   7.355
 9551POPC   C1B51451  16.167  23.751   6.455
 9551POPC   C2B51452  16.202  23.736   6.755
 9551POPC   C3B51453  16.183  23.699   7.055
 9551POPC   C4B51454  16.251  23.725   7.355
 9552POPC   NC351455  38.494   4.366   5.555
 9552POPC   PO451456  38.485   4.350   5.855
 9552POPC   GL151457  38.407   4.340   6.155
 9552POPC   GL251458  38.362   4.431   6.155
 9552POPC   C1A51459  38.446   4.292   6.455
 9552POPC   D2A51460  38.505   4.346   6.755
 9552POPC   C3A51461  38.460   4.296   7.055
 9552POPC   C4A51462  38.456   4.330   7.355
 9552POPC   C1B51463  38.264   4.515   6.455
 9552POPC   C2B51464  38.317   4.512   6.755
 9552POPC   C3B51465  38.324   4.477   7.055
 9552POPC   C4B51466  38.350   4.545   7.355
 9553POPC   NC351467  12.866  30.686   5.555
 9553POPC   PO451468  12.891  30.722   5.855
 9553POPC   GL151469  12.815  30.684   6.155
 9553POPC   GL251470  12.877  30.848   6.155
 9553POPC   C1A51471  12.900  30.698   6.455
 9553POPC   D2A51472  12.901  30.671   6.755
 9553POPC   C3A51473  12.836  30.719   7.055
 9553POPC   C4A51474  12.831  30.688   7.355
 9553POPC   C1B51475  12.856  30.954   6.455
 9553POPC   C2B51476  12.913  30.960   6.755
 9553POPC   C3B51477  12.901  30.928   7.055
 9553POPC   C4B51478  12.946  30.989   7.355
 9554POPC   NC351479  33.012  33.051   5.555
 9554POPC   PO451480  33.047  32.998   5.855
 9554POPC   GL151481  33.025  32.975   6.155
 9554POPC   GL251482  33.058  32.852   6.155
 9554POPC   C1A51483  33.063  33.028   6.455
 9554POPC   D2A51484  33.027  33.010   6.755
 9554POPC   C3A51485  33.014  33.071   7.055
 9554POPC   C4A51486  33.028  33.014   7.355
 9554POPC   C1B51487  33.081  32.809   6.455
 9554POPC   C2B51488  33.045  32.772   6.755
 9554POPC   C3B51489  33.086  32.747   7.055
 9554POPC   C4B51490  33.002  32.786   7.355
 9555POPC   NC351491  24.506  35.386   5.555
 9555POPC   PO451492  24.447  35.332   5.855
 9555POPC   GL151493  24.441  35.307   6.155
 9555POPC   GL251494  24.579  35.329   6.155
 9555POPC   C1A51495  24.493  35.398   6.455
 9555POPC   D2A51496  24.499  35.401   6.755
 9555POPC   C3A51497  24.480  35.374   7.055
 9555POPC   C4A51498  24.488  35.304   7.355
 9555POPC   C1B51499  24.770  35.398   6.455
 9555POPC   C2B51500  24.726  35.366   6.755
 9555POPC   C3B51501  24.749  35.326   7.055
 9555POPC   C4B51502  24.748  35.405   7.355
 9556POPC   NC351503  28.327   6.623   5.555
 9556POPC   PO451504  28.333   6.631   5.855
 9556POPC   GL151505  28.385   6.627   6.155
 9556POPC   GL251506  28.476   6.569   6.155
 9556POPC   C1A51507  28.356   6.603   6.455
 9556POPC   D2A51508  28.354   6.668   6.755
 9556POPC   C3A51509  28.372   6.636   7.055
 9556POPC   C4A51510  28.350   6.673   7.355
 9556POPC   C1B51511  28.519   6.529   6.455
 9556POPC   C2B51512  28.581   6.505   6.755
 9556POPC   C3B51513  28.529   6.519   7.055
 9556POPC   C4B51514  28.586   6.444   7.355
 9557POPC   NC351515  43.131   8.187   5.555
 9557POPC   PO451516  43.076   8.182   5.855
 9557POPC   GL151517  43.065   8.175   6.155
 9557POPC   GL251518  43.099   8.039   6.155
 9557POPC   C1A51519  43.087   8.238   6.455
 9557POPC   D2A51520  43.095   8.162   6.755
 9557POPC   C3A51521  43.086   8.207   7.055
 9557POPC   C4A51522  43.085   8.241   7.355
 9557POPC   C1B51523  43.169   7.989   6.455
 9557POPC   C2B51524  43.164   7.928   6.755
 9557POPC   C3B51525  43.080   7.927   7.055
 9557POPC   C4B51526  43.079   7.956   7.355
 9558POPC   NC351527  14.366  23.745   5.555
 9558POPC   PO451528  14.413  23.696   5.855
 9558POPC   GL151529  14.381  23.713   6.155
 9558POPC   GL251530  14.471  23.635   6.155
 9558POPC   C1A51531  14.375  23.671   6.455
 9558POPC   D2A51532  14.369  23.689   6.755
 9558POPC   C3A51533  14.446  23.719   7.055
 9558POPC   C4A51534  14.451  23.725   7.355
 9558POPC   C1B51535  14.480  23.475   6.455
 9558POPC   C2B51536  14.485  23.455   6.755
 9558POPC   C3B51537  14.495  23.441   7.055
 9558POPC   C4B51538  14.426  23.422   7.355
 9559POPC   NC351539  21.386  31.511   5.555
 9559POPC   PO451540  21.356  31.484   5.855
 9559POPC   GL151541  21.342  31.427   6.155
 9559POPC   GL251542  21.338  31.341   6.155
 9559POPC   C1A51543  21.337  31.450   6.455
 9559POPC   D2A51544  21.372  31.456   6.755
 9559POPC   C3A51545  21.377  31.518   7.055
 9559POPC   C4A51546  21.409  31.466   7.355
 9559POPC   C1B51547  21.266  31.253   6.455
 9559POPC   C2B51548  21.275  31.219   6.755
 9559POPC   C3B51549  21.265  31.247   7.055
 9559POPC   C4B51550  21.324  31.265   7.355
 9560POPC   NC351551  22.938  26.032   5.555
 9560POPC   PO451552  22.946  26.065   5.855
 9560POPC   GL151553  22.937  26.003   6.155
 9560POPC   GL251554  22.817  25.924   6.155
 9560POPC   C1A51555  22.970  26.046   6.455
 9560POPC   D2A51556  22.936  26.078   6.755
 9560POPC   C3A51557  22.901  26.079   7.055
 9560POPC   C4A51558  22.954  26.034   7.355
 9560POPC   C1B51559  22.766  25.916   6.455
 9560POPC   C2B51560  22.780  25.871   6.755
 9560POPC   C3B51561  22.730  25.838   7.055
 9560POPC   C4B51562  22.740  25.898   7.355
 9561POPC   NC351563  15.937   8.220   5.555
 9561POPC   PO451564  16.003   8.181   5.855
 9561POPC   GL151565  15.929   8.208   6.155
 9561POPC   GL251566  15.812   8.104   6.155
 9561POPC   C1A51567  15.919   8.218   6.455
 9561POPC   D2A51568  15.942   8.235   6.755
 9561POPC   C3A51569  15.907   8.203   7.055
 9561POPC   C4A51570  15.947   8.189   7.355
 9561POPC   C1B51571  15.719   8.017   6.455
 9561POPC   C2B51572  15.749   8.073   6.755
 9561POPC   C3B51573  15.771   8.063   7.055
 9561POPC   C4B51574  15.810   7.990   7.355
 9562POPC   NC351575  33.838  29.170   5.555
 9562POPC   PO451576  33.751  29.101   5.855
 9562POPC   GL151577  33.814  29.160   6.155
 9562POPC   GL251578  33.755  29.026   6.155
 9562POPC   C1A51579  33.822  29.096   6.455
 9562POPC   D2A51580  33.781  29.130   6.755
 9562POPC   C3A51581  33.842  29.118   7.055
 9562POPC   C4A51582  33.811  29.119   7.355
 9562POPC   C1B51583  33.767  28.907   6.455
 9562POPC   C2B51584  33.810  28.895   6.755
 9562POPC   C3B51585  33.768  28.895   7.055
 9562POPC   C4B51586  33.800  28.866   7.355
 9563POPC   NC351587  36.102  23.694   5.555
 9563POPC   PO451588  36.093  23.706   5.855
 9563POPC   GL151589  36.154  23.695   6.155
 9563POPC   GL251590  36.070  23.578   6.155
 9563POPC   C1A51591  36.130  23.679   6.455
 9563POPC   D2A51592  36.106  23.708   6.755
 9563POPC   C3A51593  36.151  23.710   7.055
 9563POPC   C4A51594  36.170  23.687   7.355
 9563POPC   C1B51595  36.024  23.495   6.455
 9563POPC   C2B51596  36.084  23.500   6.755
 9563POPC   C3B51597  36.064  23.468   7.055
 9563POPC   C4B51598  36.103  23.504   7.355
 9564POPC   NC351599   8.978  29.938   5.555
 9564POPC   PO451600   8.977  29.898   5.855
 9564POPC   GL151601   8.957  29.907   6.155
 9564POPC   GL251602   9.112  29.915   6.155
 9564POPC   C1A51603   9.004  29.899   6.455
 9564POPC   D2A51604   9.010  29.956   6.755
 9564POPC   C3A51605   8.965  29.896   7.055
 9564POPC   C4A51606   9.004  29.890   7.355
 9564POPC   C1B51607   9.190  29.952   6.455
 9564POPC   C2B51608   9.208  29.950   6.755
 9564POPC   C3B51609   9.208  29.955   7.055
 9564POPC   C4B51610   9.217  29.976   7.355
 9565POPC   NC351611  18.237  36.090   5.555
 9565POPC   PO451612  18.275  36.159   5.855
 9565POPC   GL151613  18.269  36.085   6.155
 9565POPC   GL251614  18.325  36.013   6.155
 9565POPC   C1A51615  18.234  36.165   6.455
 9565POPC   D2A51616  18.255  36.146   6.755
 9565POPC   C3A51617  18.260  36.141   7.055
 9565POPC   C4A51618  18.322  36.118   7.355
 9565POPC   C1B51619  18.389  35.903   6.455
 9565POPC   C2B51620  18.473  35.967   6.755
 9565POPC   C3B51621  18.416  35.888   7.055
 9565POPC   C4B51622  18.381  35.918   7.355
 9566POPC   NC351623   3.588   5.846   5.555
 9566POPC   PO451624   3.542   5.827   5.855
 9566POPC   GL151625   3.532   5.857   6.155
 9566POPC   GL251626   3.624   5.988   6.155
 9566POPC   C1A51627   3.498   5.890   6.455
 9566POPC   D2A51628   3.510   5.868   6.755
 9566POPC   C3A51629   3.535   5.823   7.055
 9566POPC   C4A51630   3.578   5.902   7.355
 9566POPC   C1B51631   3.696   6.096   6.455
 9566POPC   C2B51632   3.670   6.029   6.755
 9566POPC   C3B51633   3.709   6.089   7.055
 9566POPC   C4B51634   3.641   6.094   7.355
 9567POPC   NC351635  21.396  32.250   5.555
 9567POPC   PO451636  21.415  32.220   5.855
 9567POPC   GL151637  21.415  32.241   6.155
 9567POPC   GL251638  21.305  32.303   6.155
 9567POPC   C1A51639  21.404  32.199   6.455
 9567POPC   D2A51640  21.372  32.250   6.755
 9567POPC   C3A51641  21.417  32.202   7.055
 9567POPC   C4A51642  21.383  32.224   7.355
 9567POPC   C1B51643  21.168  32.281   6.455
 9567POPC   C2B51644  21.113  32.241   6.755
 9567POPC   C3B51645  21.150  32.246   7.055
 9567POPC   C4B51646  21.128  32.263   7.355
 9568POPC   NC351647  12.849  37.640   5.555
 9568POPC   PO451648  12.888  37.654   5.855
 9568POPC   GL151649  12.831  37.654   6.155
 9568POPC   GL251650  12.829  37.548   6.155
 9568POPC   C1A51651  12.878  37.675   6.455
 9568POPC   D2A51652  12.822  37.641   6.755
 9568POPC   C3A51653  12.804  37.631   7.055
 9568POPC   C4A51654  12.895  37.705   7.355
 9568POPC   C1B51655  12.699  37.435   6.455
 9568POPC   C2B51656  12.760  37.471   6.755
 9568POPC   C3B51657  12.708  37.413   7.055
 9568POPC   C4B51658  12.773  37.427   7.355
 9569POPC   NC351659  12.091  24.463   5.555
 9569POPC   PO451660  12.088  24.512   5.855
 9569POPC   GL151661  12.094  24.463   6.155
 9569POPC   GL251662  12.092  24.352   6.155
 9569POPC   C1A51663  12.058  24.508   6.455
 9569POPC   D2A51664  12.050  24.515   6.755
 9569POPC   C3A51665  12.109  24.472   7.055
 9569POPC   C4A51666  12.051  24.528   7.355
 9569POPC   C1B51667  12.174  24.262   6.455
 9569POPC   C2B51668  12.218  24.308   6.755
 9569POPC   C3B51669  12.234  24.300   7.055
 9569POPC   C4B51670  12.202  24.313   7.355
 9570POPC   NC351671   5.912   8.987   5.555
 9570POPC   PO451672   5.907   8.948   5.855
 9570POPC   GL151673   5.904   8.950   6.155
 9570POPC   GL251674   6.011   8.855   6.155
 9570POPC   C1A51675   5.891   9.003   6.455
 9570POPC   D2A51676   5.916   8.977   6.755
 9570POPC   C3A51677   5.913   8.967   7.055
 9570POPC   C4A51678   5.852   8.929   7.355
 9570POPC   C1B51679   6.048   8.758   6.455
 9570POPC   C2B51680   6.069   8.791   6.755
 9570POPC   C3B51681   6.105   8.846   7.055
 9570POPC   C4B51682   6.100   8.764   7.355
 9571POPC   NC351683  37.687   0.487   5.555
 9571POPC   PO451684  37.648   0.446   5.855
 9571POPC   GL151685  37.680   0.412   6.155
 9571POPC   GL251686  37.821   0.433   6.155
 9571POPC   C1A51687  37.634   0.480   6.455
 9571POPC   D2A51688  37.642   0.423   6.755
 9571POPC   C3A51689  37.695   0.417   7.055
 9571POPC   C4A51690  37.659   0.408   7.355
 9571POPC   C1B51691  37.909   0.408   6.455
 9571POPC   C2B51692  37.936   0.379   6.755
 9571POPC   C3B51693  37.890   0.378   7.055
 9571POPC   C4B51694  37.951   0.407   7.355
 9572POPC   NC351695  12.872  40.810   5.555
 9572POPC   PO451696  12.898  40.749   5.855
 9572POPC   GL151697  12.832  40.751   6.155
 9572POPC   GL251698  12.880  40.864   6.155
 9572POPC   C1A51699  12.871  40.739   6.455
 9572POPC   D2A51700  12.824  40.790   6.755
 9572POPC   C3A51701  12.824  40.777   7.055
 9572POPC   C4A51702  12.867  40.797   7.355
 9572POPC   C1B51703  12.990  41.038   6.455
 9572POPC   C2B51704  12.991  41.006   6.755
 9572POPC   C3B51705  12.961  40.948   7.055
 9572POPC   C4B51706  13.015  41.033   7.355
 9573POPC   NC351707  12.035  12.856   5.555
 9573POPC   PO451708  12.053  12.829   5.855
 9573POPC   GL151709  12.088  12.854   6.155
 9573POPC   GL251710  11.975  12.892   6.155
 9573POPC   C1A51711  12.100  12.827   6.455
 9573POPC   D2A51712  12.029  12.808   6.755
 9573POPC   C3A51713  12.088  12.853   7.055
 9573POPC   C4A51714  12.086  12.814   7.355
 9573POPC   C1B51715  11.860  12.894   6.455
 9573POPC   C2B51716  11.815  12.977   6.755
 9573POPC   C3B51717  11.869  12.940   7.055
 9573POPC   C4B51718  11.861  12.894   7.355
 9574POPC   NC351719  39.189  30.655   5.555
 9574POPC   PO451720  39.236  30.696   5.855
 9574POPC   GL151721  39.228  30.740   6.155
 9574POPC   GL251722  39.171  30.810   6.155
 9574POPC   C1A51723  39.232  30.708   6.455
 9574POPC   D2A51724  39.233  30.733   6.755
 9574POPC   C3A51725  39.248  30.737   7.055
 9574POPC   C4A51726  39.263  30.647   7.355
 9574POPC   C1B51727  39.068  30.864   6.455
 9574POPC   C2B51728  39.046  30.898   6.755
 9574POPC   C3B51729  39.094  30.885   7.055
 9574POPC   C4B51730  39.124  30.881   7.355
 9575POPC   NC351731   7.392  42.381   5.555
 9575POPC   PO451732   7.376  42.382   5.855
 9575POPC   GL151733   7.416  42.373   6.155
 9575POPC   GL251734   7.581  42.281   6.155
 9575POPC   C1A51735   7.402  42.309   6.455
 9575POPC   D2A51736   7.377  42.338   6.755
 9575POPC   C3A51737   7.415  42.328   7.055
 9575POPC   C4A51738   7.446  42.362   7.355
 9575POPC   C1B51739   7.669  42.232   6.455
 9575POPC   C2B51740   7.693  42.304   6.755
 9575POPC   C3B51741   7.618  42.252   7.055
 9575POPC   C4B51742   7.626  42.301   7.355
 9576POPC   NC351743   8.230  14.433   5.555
 9576POPC   PO451744   8.211  14.395   5.855
 9576POPC   GL151745   8.170  14.450   6.155
 9576POPC   GL251746   8.125  14.297   6.155
 9576POPC   C1A51747   8.241  14.441   6.455
 9576POPC   D2A51748   8.203  14.443   6.755
 9576POPC   C3A51749   8.211  14.415   7.055
 9576POPC   C4A51750   8.166  14.362   7.355
 9576POPC   C1B51751   8.163  14.145   6.455
 9576POPC   C2B51752   8.142  14.204   6.755
 9576POPC   C3B51753   8.096  14.123   7.055
 9576POPC   C4B51754   8.159  14.200   7.355
 9577POPC   NC351755  29.949   5.072   5.555
 9577POPC   PO451756  29.884   5.047   5.855
 9577POPC   GL151757  29.939   5.047   6.155
 9577POPC   GL251758  30.038   5.100   6.155
 9577POPC   C1A51759  29.890   5.047   6.455
 9577POPC   D2A51760  29.919   5.053   6.755
 9577POPC   C3A51761  29.951   5.134   7.055
 9577POPC   C4A51762  29.907   5.048   7.355
 9577POPC   C1B51763  30.153   5.180   6.455
 9577POPC   C2B51764  30.157   5.186   6.755
 9577POPC   C3B51765  30.179   5.163   7.055
 9577POPC   C4B51766  30.138   5.157   7.355
 9578POPC   NC351767  33.804  34.581   5.555
 9578POPC   PO451768  33.780  34.610   5.855
 9578POPC   GL151769  33.833  34.529   6.155
 9578POPC   GL251770  33.657  34.630   6.155
 9578POPC   C1A51771  33.849  34.613   6.455
 9578POPC   D2A51772  33.798  34.531   6.755
 9578POPC   C3A51773  33.837  34.559   7.055
 9578POPC   C4A51774  33.766  34.576   7.355
 9578POPC   C1B51775  33.520  34.645   6.455
 9578POPC   C2B51776  33.513  34.622   6.755
 9578POPC   C3B51777  33.525  34.644   7.055
 9578POPC   C4B51778  33.583  34.601   7.355
 9579POPC   NC351779  19.065   1.979   5.555
 9579POPC   PO451780  19.073   1.997   5.855
 9579POPC   GL151781  19.041   2.019   6.155
 9579POPC   GL251782  19.059   1.848   6.155
 9579POPC   C1A51783  19.047   1.954   6.455
 9579POPC   D2A51784  19.016   1.981   6.755
 9579POPC   C3A51785  19.086   1.975   7.055
 9579POPC   C4A51786  19.069   1.941   7.355
 9579POPC   C1B51787  18.964   1.799   6.455
 9579POPC   C2B51788  18.991   1.736   6.755
 9579POPC   C3B51789  18.945   1.771   7.055
 9579POPC   C4B51790  18.928   1.711   7.355
 9580POPC   NC351791  33.034  26.814   5.555
 9580POPC   PO451792  33.000  26.816   5.855
 9580POPC   GL151793  33.043  26.813   6.155
 9580POPC   GL251794  33.109  26.954   6.155
 9580POPC   C1A51795  33.068  26.859   6.455
 9580POPC   D2A51796  33.058  26.773   6.755
 9580POPC   C3A51797  33.025  26.840   7.055
 9580POPC   C4A51798  33.037  26.821   7.355
 9580POPC   C1B51799  33.092  27.082   6.455
 9580POPC   C2B51800  33.082  27.009   6.755
 9580POPC   C3B51801  33.151  27.005   7.055
 9580POPC   C4B51802  33.146  27.030   7.355
 9581POPC   NC351803   4.334  36.088   5.555
 9581POPC   PO451804   4.354  36.166   5.855
 9581POPC   GL151805   4.336  36.087   6.155
 9581POPC   GL251806   4.336  36.221   6.155
 9581POPC   C1A51807   4.352  36.146   6.455
 9581POPC   D2A51808   4.361  36.097   6.755
 9581POPC   C3A51809   4.289  36.143   7.055
 9581POPC   C4A51810   4.283  36.143   7.355
 9581POPC   C1B51811   4.358  36.423   6.455
 9581POPC   C2B51812   4.352  36.333   6.755
 9581POPC   C3B51813   4.365  36.406   7.055
 9581POPC   C4B51814   4.328  36.411   7.355
 9582POPC   NC351815  18.304  15.135   5.555
 9582POPC   PO451816  18.280  15.213   5.855
 9582POPC   GL151817  18.328  15.154   6.155
 9582POPC   GL251818  18.193  15.144   6.155
 9582POPC   C1A51819  18.299  15.156   6.455
 9582POPC   D2A51820  18.243  15.145   6.755
 9582POPC   C3A51821  18.250  15.196   7.055
 9582POPC   C4A51822  18.304  15.218   7.355
 9582POPC   C1B51823  18.057  15.122   6.455
 9582POPC   C2B51824  18.056  15.132   6.755
 9582POPC   C3B51825  18.072  15.069   7.055
 9582POPC   C4B51826  18.047  15.090   7.355
 9583POPC   NC351827   2.787   2.809   5.555
 9583POPC   PO451828   2.812   2.784   5.855
 9583POPC   GL151829   2.797   2.815   6.155
 9583POPC   GL251830   2.666   2.681   6.155
 9583POPC   C1A51831   2.761   2.785   6.455
 9583POPC   D2A51832   2.740   2.755   6.755
 9583POPC   C3A51833   2.787   2.752   7.055
 9583POPC   C4A51834   2.784   2.760   7.355
 9583POPC   C1B51835   2.650   2.524   6.455
 9583POPC   C2B51836   2.641   2.494   6.755
 9583POPC   C3B51837   2.628   2.572   7.055
 9583POPC   C4B51838   2.642   2.567   7.355
 9584POPC   NC351839  25.287  39.261   5.555
 9584POPC   PO451840  25.230  39.248   5.855
 9584POPC   GL151841  25.224  39.232   6.155
 9584POPC   GL251842  25.347  39.149   6.155
 9584POPC   C1A51843  25.257  39.261   6.455
 9584POPC   D2A51844  25.286  39.233   6.755
 9584POPC   C3A51845  25.248  39.217   7.055
 9584POPC   C4A51846  25.303  39.198   7.355
 9584POPC   C1B51847  25.498  39.133   6.455
 9584POPC   C2B51848  25.514  39.103   6.755
 9584POPC   C3B51849  25.509  39.110   7.055
 9584POPC   C4B51850  25.461  39.135   7.355
 9585POPC   NC351851  10.545  12.809   5.555
 9585POPC   PO451852  10.478  12.899   5.855
 9585POPC   GL151853  10.519  12.852   6.155
 9585POPC   GL251854  10.474  12.963   6.155
 9585POPC   C1A51855  10.569  12.833   6.455
 9585POPC   D2A51856  10.541  12.823   6.755
 9585POPC   C3A51857  10.496  12.813   7.055
 9585POPC   C4A51858  10.500  12.849   7.355
 9585POPC   C1B51859  10.365  13.032   6.455
 9585POPC   C2B51860  10.342  13.051   6.755
 9585POPC   C3B51861  10.330  12.968   7.055
 9585POPC   C4B51862  10.288  12.992   7.355
 9586POPC   NC351863  44.699   4.271   5.555
 9586POPC   PO451864  44.706   4.283   5.855
 9586POPC   GL151865  44.623   4.294   6.155
 9586POPC   GL251866  44.799   4.421   6.155
 9586POPC   C1A51867  44.623   4.338   6.455
 9586POPC   D2A51868  44.639   4.351   6.755
 9586POPC   C3A51869  44.709   4.317   7.055
 9586POPC   C4A51870  44.631   4.363   7.355
 9586POPC   C1B51871  44.913   4.424   6.455
 9586POPC   C2B51872  44.879   4.505   6.755
 9586POPC   C3B51873  44.869   4.482   7.055
 9586POPC   C4B51874  44.818   4.455   7.355
 9587POPC   NC351875   7.428  21.339   5.555
 9587POPC   PO451876   7.389  21.372   5.855
 9587POPC   GL151877   7.401  21.413   6.155
 9587POPC   GL251878   7.347  21.295   6.155
 9587POPC   C1A51879   7.462  21.367   6.455
 9587POPC   D2A51880   7.466  21.380   6.755
 9587POPC   C3A51881   7.437  21.417   7.055
 9587POPC   C4A51882   7.431  21.358   7.355
 9587POPC   C1B51883   7.179  21.274   6.455
 9587POPC   C2B51884   7.234  21.193   6.755
 9587POPC   C3B51885   7.207  21.197   7.055
 9587POPC   C4B51886   7.237  21.198   7.355
 9588POPC   NC351887  20.644  39.237   5.555
 9588POPC   PO451888  20.561  39.236   5.855
 9588POPC   GL151889  20.578  39.194   6.155
 9588POPC   GL251890  20.534  39.321   6.155
 9588POPC   C1A51891  20.635  39.208   6.455
 9588POPC   D2A51892  20.569  39.260   6.755
 9588POPC   C3A51893  20.639  39.192   7.055
 9588POPC   C4A51894  20.601  39.193   7.355
 9588POPC   C1B51895  20.415  39.318   6.455
 9588POPC   C2B51896  20.392  39.312   6.755
 9588POPC   C3B51897  20.376  39.358   7.055
 9588POPC   C4B51898  20.367  39.392   7.355
 9589POPC   NC351899  22.951   7.404   5.555
 9589POPC   PO451900  22.941   7.396   5.855
 9589POPC   GL151901  22.899   7.439   6.155
 9589POPC   GL251902  22.832   7.355   6.155
 9589POPC   C1A51903  22.908   7.460   6.455
 9589POPC   D2A51904  22.895   7.387   6.755
 9589POPC   C3A51905  22.915   7.409   7.055
 9589POPC   C4A51906  22.937   7.432   7.355
 9589POPC   C1B51907  22.820   7.246   6.455
 9589POPC   C2B51908  22.765   7.228   6.755
 9589POPC   C3B51909  22.773   7.248   7.055
 9589POPC   C4B51910  22.791   7.229   7.355
 9590POPC   NC351911  33.062  22.157   5.555
 9590POPC   PO451912  32.982  22.133   5.855
 9590POPC   GL151913  33.050  22.165   6.155
 9590POPC   GL251914  32.953  22.197   6.155
 9590POPC   C1A51915  33.058  22.209   6.455
 9590POPC   D2A51916  33.049  22.174   6.755
 9590POPC   C3A51917  33.033  22.144   7.055
 9590POPC   C4A51918  33.060  22.121   7.355
 9590POPC   C1B51919  32.769  22.270   6.455
 9590POPC   C2B51920  32.826  22.205   6.755
 9590POPC   C3B51921  32.828  22.235   7.055
 9590POPC   C4B51922  32.832  22.201   7.355
 9591POPC   NC351923   4.268  44.685   5.555
 9591POPC   PO451924   4.357  44.664   5.855
 9591POPC   GL151925   4.292  44.650   6.155
 9591POPC   GL251926   4.295  44.549   6.155
 9591POPC   C1A51927   4.279  44.630   6.455
 9591POPC   D2A51928   4.351  44.648   6.755
 9591POPC   C3A51929   4.278  44.666   7.055
 9591POPC   C4A51930   4.360  44.684   7.355
 9591POPC   C1B51931   4.228  44.447   6.455
 9591POPC   C2B51932   4.279  44.381   6.755
 9591POPC   C3B51933   4.227  44.377   7.055
 9591POPC   C4B51934   4.307  44.433   7.355
 9592POPC   NC351935  36.173  33.791   5.555
 9592POPC   PO451936  36.173  33.848   5.855
 9592POPC   GL151937  36.103  33.762   6.155
 9592POPC   GL251938  36.026  33.767   6.155
 9592POPC   C1A51939  36.145  33.770   6.455
 9592POPC   D2A51940  36.113  33.753   6.755
 9592POPC   C3A51941  36.164  33.762   7.055
 9592POPC   C4A51942  36.164  33.800   7.355
 9592POPC   C1B51943  35.887  33.706   6.455
 9592POPC   C2B51944  35.912  33.688   6.755
 9592POPC   C3B51945  35.910  33.652   7.055
 9592POPC   C4B51946  35.908  33.635   7.355
 9593POPC   NC351947  25.311  43.066   5.555
 9593POPC   PO451948  25.242  43.095   5.855
 9593POPC   GL151949  25.305  43.137   6.155
 9593POPC   GL251950  25.244  43.035   6.155
 9593POPC   C1A51951  25.287  43.145   6.455
 9593POPC   D2A51952  25.296  43.076   6.755
 9593POPC   C3A51953  25.269  43.072   7.055
 9593POPC   C4A51954  25.222  43.103   7.355
 9593POPC   C1B51955  25.243  42.815   6.455
 9593POPC   C2B51956  25.226  42.908   6.755
 9593POPC   C3B51957  25.215  42.811   7.055
 9593POPC   C4B51958  25.236  42.855   7.355
 9594POPC   NC351959  17.512  11.287   5.555
 9594POPC   PO451960  17.523  11.309   5.855
 9594POPC   GL151961  17.467  11.310   6.155
 9594POPC   GL251962  17.525  11.440   6.155
 9594POPC   C1A51963  17.476  11.280   6.455
 9594POPC   D2A51964  17.540  11.280   6.755
 9594POPC   C3A51965  17.496  11.322   7.055
 9594POPC   C4A51966  17.525  11.347   7.355
 9594POPC   C1B51967  17.564  11.535   6.455
 9594POPC   C2B51968  17.568  11.510   6.755
 9594POPC   C3B51969  17.635  11.543   7.055
 9594POPC   C4B51970  17.626  11.552   7.355
 9595POPC   NC351971  11.297  24.468   5.555
 9595POPC   PO451972  11.321  24.445   5.855
 9595POPC   GL151973  11.253  24.473   6.155
 9595POPC   GL251974  11.167  24.566   6.155
 9595POPC   C1A51975  11.295  24.528   6.455
 9595POPC   D2A51976  11.334  24.480   6.755
 9595POPC   C3A51977  11.307  24.452   7.055
 9595POPC   C4A51978  11.318  24.473   7.355
 9595POPC   C1B51979  11.073  24.664   6.455
 9595POPC   C2B51980  11.162  24.686   6.755
 9595POPC   C3B51981  11.123  24.641   7.055
 9595POPC   C4B51982  11.118  24.631   7.355
 9596POPC   NC351983  32.999  40.052   5.555
 9596POPC   PO451984  33.001  40.019   5.855
 9596POPC   GL151985  32.999  39.961   6.155
 9596POPC   GL251986  33.042  39.910   6.155
 9596POPC   C1A51987  33.047  39.961   6.455
 9596POPC   D2A51988  32.998  39.992   6.755
 9596POPC   C3A51989  33.006  39.960   7.055
 9596POPC   C4A51990  32.978  39.996   7.355
 9596POPC   C1B51991  32.977  39.725   6.455
 9596POPC   C2B51992  33.001  39.748   6.755
 9596POPC   C3B51993  32.944  39.763   7.055
 9596POPC   C4B51994  32.992  39.763   7.355
 9597POPC   NC351995  43.902  35.328   5.555
 9597POPC   PO451996  43.843  35.363   5.855
 9597POPC   GL151997  43.883  35.355   6.155
 9597POPC   GL251998  43.978  35.459   6.155
 9597POPC   C1A51999  43.896  35.369   6.455
 9597POPC   D2A52000  43.837  35.400   6.755
 9597POPC   C3A52001  43.858  35.389   7.055
 9597POPC   C4A52002  43.900  35.379   7.355
 9597POPC   C1B52003  44.055  35.556   6.455
 9597POPC   C2B52004  44.064  35.511   6.755
 9597POPC   C3B52005  44.081  35.509   7.055
 9597POPC   C4B52006  44.025  35.551   7.355
 9598POPC   NC352007  22.196  34.571   5.555
 9598POPC   PO452008  22.208  34.576   5.855
 9598POPC   GL152009  22.142  34.545   6.155
 9598POPC   GL252010  22.100  34.715   6.155
 9598POPC   C1A52011  22.118  34.537   6.455
 9598POPC   D2A52012  22.119  34.579   6.755
 9598POPC   C3A52013  22.210  34.619   7.055
 9598POPC   C4A52014  22.201  34.567   7.355
 9598POPC   C1B52015  22.118  34.770   6.455
 9598POPC   C2B52016  22.133  34.857   6.755
 9598POPC   C3B52017  22.126  34.821   7.055
 9598POPC   C4B52018  22.059  34.768   7.355
 9599POPC   NC352019   6.684  24.477   5.555
 9599POPC   PO452020   6.652  24.525   5.855
 9599POPC   GL152021   6.626  24.477   6.155
 9599POPC   GL252022   6.722  24.563   6.155
 9599POPC   C1A52023   6.619  24.502   6.455
 9599POPC   D2A52024   6.652  24.455   6.755
 9599POPC   C3A52025   6.604  24.506   7.055
 9599POPC   C4A52026   6.622  24.537   7.355
 9599POPC   C1B52027   6.690  24.691   6.455
 9599POPC   C2B52028   6.702  24.703   6.755
 9599POPC   C3B52029   6.662  24.758   7.055
 9599POPC   C4B52030   6.676  24.730   7.355
 9600POPC   NC352031  24.530  22.951   5.555
 9600POPC   PO452032  24.496  22.954   5.855
 9600POPC   GL152033  24.506  22.976   6.155
 9600POPC   GL252034  24.573  22.950   6.155
 9600POPC   C1A52035  24.471  22.967   6.455
 9600POPC   D2A52036  24.469  22.969   6.755
 9600POPC   C3A52037  24.494  22.968   7.055
 9600POPC   C4A52038  24.532  22.931   7.355
 9600POPC   C1B52039  24.774  22.954   6.455
 9600POPC   C2B52040  24.713  22.944   6.755
 9600POPC   C3B52041  24.720  22.921   7.055
 9600POPC   C4B52042  24.775  22.860   7.355
 9601POPC   NC352043  19.854   8.957   5.555
 9601POPC   PO452044  19.817   8.939   5.855
 9601POPC   GL152045  19.800   8.928   6.155
 9601POPC   GL252046  19.897   8.850   6.155
 9601POPC   C1A52047  19.832   9.022   6.455
 9601POPC   D2A52048  19.833   8.946   6.755
 9601POPC   C3A52049  19.812   8.981   7.055
 9601POPC   C4A52050  19.864   8.953   7.355
 9601POPC   C1B52051  19.875   8.703   6.455
 9601POPC   C2B52052  19.869   8.713   6.755
 9601POPC   C3B52053  19.921   8.682   7.055
 9601POPC   C4B52054  19.865   8.738   7.355
 9602POPC   NC352055  12.074  41.595   5.555
 9602POPC   PO452056  12.090  41.528   5.855
 9602POPC   GL152057  12.046  41.529   6.155
 9602POPC   GL252058  12.223  41.624   6.155
 9602POPC   C1A52059  12.108  41.565   6.455
 9602POPC   D2A52060  12.046  41.535   6.755
 9602POPC   C3A52061  12.069  41.576   7.055
 9602POPC   C4A52062  12.085  41.581   7.355
 9602POPC   C1B52063  12.342  41.642   6.455
 9602POPC   C2B52064  12.329  41.560   6.755
 9602POPC   C3B52065  12.275  41.576   7.055
 9602POPC   C4B52066  12.340  41.601   7.355
 9603POPC   NC352067  10.563  37.685   5.555
 9603POPC   PO452068  10.564  37.701   5.855
 9603POPC   GL152069  10.482  37.658   6.155
 9603POPC   GL252070  10.543  37.763   6.155
 9603POPC   C1A52071  10.478  37.686   6.455
 9603POPC   D2A52072  10.531  37.681   6.755
 9603POPC   C3A52073  10.521  37.707   7.055
 9603POPC   C4A52074  10.503  37.641   7.355
 9603POPC   C1B52075  10.460  37.898   6.455
 9603POPC   C2B52076  10.524  37.946   6.755
 9603POPC   C3B52077  10.484  37.918   7.055
 9603POPC   C4B52078  10.531  37.897   7.355
 9604POPC   NC352079  37.720  43.883   5.555
 9604POPC   PO452080  37.722  43.910   5.855
 9604POPC   GL152081  37.642  43.862   6.155
 9604POPC   GL252082  37.809  43.828   6.155
 9604POPC   C1A52083  37.654  43.888   6.455
 9604POPC   D2A52084  37.670  43.851   6.755
 9604POPC   C3A52085  37.670  43.851   7.055
 9604POPC   C4A52086  37.683  43.839   7.355
 9604POPC   C1B52087  37.873  43.758   6.455
 9604POPC   C2B52088  37.842  43.775   6.755
 9604POPC   C3B52089  37.897  43.703   7.055
 9604POPC   C4B52090  37.855  43.759   7.355
 9605POPC   NC352091   3.560  14.370   5.555
 9605POPC   PO452092   3.521  14.417   5.855
 9605POPC   GL152093   3.583  14.412   6.155
 9605POPC   GL252094   3.387  14.437   6.155
 9605POPC   C1A52095   3.551  14.384   6.455
 9605POPC   D2A52096   3.589  14.422   6.755
 9605POPC   C3A52097   3.504  14.423   7.055
 9605POPC   C4A52098   3.576  14.419   7.355
 9605POPC   C1B52099   3.259  14.388   6.455
 9605POPC   C2B52100   3.259  14.419   6.755
 9605POPC   C3B52101   3.272  14.337   7.055
 9605POPC   C4B52102   3.301  14.415   7.355
 9606POPC   NC352103  41.601  10.530   5.555
 9606POPC   PO452104  41.524  10.566   5.855
 9606POPC   GL152105  41.509  10.495   6.155
 9606POPC   GL252106  41.688  10.501   6.155
 9606POPC   C1A52107  41.575  10.512   6.455
 9606POPC   D2A52108  41.552  10.483   6.755
 9606POPC   C3A52109  41.592  10.568   7.055
 9606POPC   C4A52110  41.575  10.546   7.355
 9606POPC   C1B52111  41.837  10.509   6.455
 9606POPC   C2B52112  41.780  10.496   6.755
 9606POPC   C3B52113  41.847  10.506   7.055
 9606POPC   C4B52114  41.762  10.567   7.355
 9607POPC   NC352115  43.837   8.157   5.555
 9607POPC   PO452116  43.898   8.148   5.855
 9607POPC   GL152117  43.935   8.170   6.155
 9607POPC   GL252118  43.961   8.287   6.155
 9607POPC   C1A52119  43.905   8.162   6.455
 9607POPC   D2A52120  43.861   8.211   6.755
 9607POPC   C3A52121  43.906   8.209   7.055
 9607POPC   C4A52122  43.885   8.241   7.355
 9607POPC   C1B52123  44.009   8.381   6.455
 9607POPC   C2B52124  43.956   8.416   6.755
 9607POPC   C3B52125  43.975   8.478   7.055
 9607POPC   C4B52126  44.004   8.473   7.355
 9608POPC   NC352127  13.622  33.842   5.555
 9608POPC   PO452128  13.644  33.797   5.855
 9608POPC   GL152129  13.600  33.785   6.155
 9608POPC   GL252130  13.689  33.682   6.155
 9608POPC   C1A52131  13.579  33.810   6.455
 9608POPC   D2A52132  13.624  33.840   6.755
 9608POPC   C3A52133  13.610  33.840   7.055
 9608POPC   C4A52134  13.647  33.822   7.355
 9608POPC   C1B52135  13.698  33.572   6.455
 9608POPC   C2B52136  13.690  33.545   6.755
 9608POPC   C3B52137  13.613  33.527   7.055
 9608POPC   C4B52138  13.703  33.506   7.355
 9609POPC   NC352139  36.138  18.305   5.555
 9609POPC   PO452140  36.147  18.282   5.855
 9609POPC   GL152141  36.164  18.290   6.155
 9609POPC   GL252142  36.002  18.289   6.155
 9609POPC   C1A52143  36.142  18.235   6.455
 9609POPC   D2A52144  36.079  18.298   6.755
 9609POPC   C3A52145  36.109  18.315   7.055
 9609POPC   C4A52146  36.091  18.321   7.355
 9609POPC   C1B52147  35.917  18.324   6.455
 9609POPC   C2B52148  35.922  18.344   6.755
 9609POPC   C3B52149  35.830  18.326   7.055
 9609POPC   C4B52150  35.865  18.299   7.355
 9610POPC   NC352151  29.960  36.124   5.555
 9610POPC   PO452152  29.903  36.088   5.855
 9610POPC   GL152153  29.957  36.123   6.155
 9610POPC   GL252154  29.809  35.995   6.155
 9610POPC   C1A52155  29.916  36.105   6.455
 9610POPC   D2A52156  29.878  36.147   6.755
 9610POPC   C3A52157  29.947  36.172   7.055
 9610POPC   C4A52158  29.941  36.176   7.355
 9610POPC   C1B52159  29.770  35.918   6.455
 9610POPC   C2B52160  29.742  35.920   6.755
 9610POPC   C3B52161  29.818  35.952   7.055
 9610POPC   C4B52162  29.749  35.877   7.355
 9611POPC   NC352163  15.156  22.176   5.555
 9611POPC   PO452164  15.134  22.201   5.855
 9611POPC   GL152165  15.163  22.210   6.155
 9611POPC   GL252166  15.129  22.078   6.155
 9611POPC   C1A52167  15.169  22.180   6.455
 9611POPC   D2A52168  15.187  22.174   6.755
 9611POPC   C3A52169  15.197  22.201   7.055
 9611POPC   C4A52170  15.216  22.174   7.355
 9611POPC   C1B52171  14.972  22.032   6.455
 9611POPC   C2B52172  14.974  21.979   6.755
 9611POPC   C3B52173  14.953  21.952   7.055
 9611POPC   C4B52174  14.949  22.010   7.355
 9612POPC   NC352175  10.552  12.060   5.555
 9612POPC   PO452176  10.529  12.038   5.855
 9612POPC   GL152177  10.513  12.100   6.155
 9612POPC   GL252178  10.428  12.149   6.155
 9612POPC   C1A52179  10.531  12.052   6.455
 9612POPC   D2A52180  10.539  12.113   6.755
 9612POPC   C3A52181  10.571  12.094   7.055
 9612POPC   C4A52182  10.530  12.062   7.355
 9612POPC   C1B52183  10.333  12.177   6.455
 9612POPC   C2B52184  10.280  12.130   6.755
 9612POPC   C3B52185  10.298  12.129   7.055
 9612POPC   C4B52186  10.248  12.132   7.355
 9613POPC   NC352187  14.430  11.325   5.555
 9613POPC   PO452188  14.402  11.272   5.855
 9613POPC   GL152189  14.448  11.286   6.155
 9613POPC   GL252190  14.419  11.410   6.155
 9613POPC   C1A52191  14.408  11.349   6.455
 9613POPC   D2A52192  14.446  11.334   6.755
 9613POPC   C3A52193  14.431  11.301   7.055
 9613POPC   C4A52194  14.372  11.292   7.355
 9613POPC   C1B52195  14.427  11.536   6.455
 9613POPC   C2B52196  14.423  11.577   6.755
 9613POPC   C3B52197  14.518  11.505   7.055
 9613POPC   C4B52198  14.488  11.575   7.355
 9614POPC   NC352199  34.532  14.427   5.555
 9614POPC   PO452200  34.550  14.401   5.855
 9614POPC   GL152201  34.615  14.368   6.155
 9614POPC   GL252202  34.641  14.537   6.155
 9614POPC   C1A52203  34.603  14.404   6.455
 9614POPC   D2A52204  34.586  14.359   6.755
 9614POPC   C3A52205  34.623  14.444   7.055
 9614POPC   C4A52206  34.538  14.449   7.355
 9614POPC   C1B52207  34.734  14.616   6.455
 9614POPC   C2B52208  34.690  14.636   6.755
 9614POPC   C3B52209  34.777  14.573   7.055
 9614POPC   C4B52210  34.748  14.589   7.355
 9615POPC   NC352211  34.526  42.296   5.555
 9615POPC   PO452212  34.618  42.295   5.855
 9615POPC   GL152213  34.556  42.374   6.155
 9615POPC   GL252214  34.428  42.327   6.155
 9615POPC   C1A52215  34.546  42.344   6.455
 9615POPC   D2A52216  34.546  42.286   6.755
 9615POPC   C3A52217  34.600  42.317   7.055
 9615POPC   C4A52218  34.549  42.345   7.355
 9615POPC   C1B52219  34.288  42.259   6.455
 9615POPC   C2B52220  34.385  42.261   6.755
 9615POPC   C3B52221  34.366  42.242   7.055
 9615POPC   C4B52222  34.317  42.273   7.355
 9616POPC   NC352223  18.237  12.072   5.555
 9616POPC   PO452224  18.258  12.035   5.855
 9616POPC   GL152225  18.300  12.074   6.155
 9616POPC   GL252226  18.302  12.186   6.155
 9616POPC   C1A52227  18.313  12.027   6.455
 9616POPC   D2A52228  18.242  12.070   6.755
 9616POPC   C3A52229  18.242  12.104   7.055
 9616POPC   C4A52230  18.329  12.091   7.355
 9616POPC   C1B52231  18.353  12.325   6.455
 9616POPC   C2B52232  18.342  12.292   6.755
 9616POPC   C3B52233  18.364  12.350   7.055
 9616POPC   C4B52234  18.400  12.293   7.355
 9617POPC   NC352235  16.691  21.400   5.555
 9617POPC   PO452236  16.719  21.389   5.855
 9617POPC   GL152237  16.706  21.352   6.155
 9617POPC   GL252238  16.615  21.417   6.155
 9617POPC   C1A52239  16.773  21.376   6.455
 9617POPC   D2A52240  16.744  21.399   6.755
 9617POPC   C3A52241  16.726  21.351   7.055
 9617POPC   C4A52242  16.730  21.419   7.355
 9617POPC   C1B52243  16.552  21.569   6.455
 9617POPC   C2B52244  16.530  21.491   6.755
 9617POPC   C3B52245  16.521  21.510   7.055
 9617POPC   C4B52246  16.512  21.555   7.355
 9618POPC   NC352247  11.264  20.595   5.555
 9618POPC   PO452248  11.276  20.628   5.855
 9618POPC   GL152249  11.296  20.632   6.155
 9618POPC   GL252250  11.214  20.606   6.155
 9618POPC   C1A52251  11.278  20.591   6.455
 9618POPC   D2A52252  11.333  20.584   6.755
 9618POPC   C3A52253  11.252  20.610   7.055
 9618POPC   C4A52254  11.279  20.581   7.355
 9618POPC   C1B52255  11.013  20.688   6.455
 9618POPC   C2B52256  11.038  20.679   6.755
 9618POPC   C3B52257  11.060  20.691   7.055
 9618POPC   C4B52258  11.049  20.634   7.355
 9619POPC   NC352259  22.180  43.885   5.555
 9619POPC   PO452260  22.117  43.906   5.855
 9619POPC   GL152261  22.120  43.889   6.155
 9619POPC   GL252262  22.267  43.857   6.155
 9619POPC   C1A52263  22.186  43.917   6.455
 9619POPC   D2A52264  22.167  43.846   6.755
 9619POPC   C3A52265  22.124  43.886   7.055
 9619POPC   C4A52266  22.137  43.880   7.355
 9619POPC   C1B52267  22.375  43.749   6.455
 9619POPC   C2B52268  22.351  43.754   6.755
 9619POPC   C3B52269  22.379  43.714   7.055
 9619POPC   C4B52270  22.373  43.786   7.355
 9620POPC   NC352271  43.131   8.954   5.555
 9620POPC   PO452272  43.085   8.994   5.855
 9620POPC   GL152273  43.105   8.961   6.155
 9620POPC   GL252274  43.073   9.039   6.155
 9620POPC   C1A52275  43.085   8.967   6.455
 9620POPC   D2A52276  43.155   9.010   6.755
 9620POPC   C3A52277  43.081   8.949   7.055
 9620POPC   C4A52278  43.068   8.982   7.355
 9620POPC   C1B52279  43.064   9.235   6.455
 9620POPC   C2B52280  43.041   9.252   6.755
 9620POPC   C3B52281  42.975   9.226   7.055
 9620POPC   C4B52282  43.049   9.254   7.355
 9621POPC   NC352283  19.087  39.257   5.555
 9621POPC   PO452284  19.010  39.231   5.855
 9621POPC   GL152285  19.070  39.253   6.155
 9621POPC   GL252286  19.161  39.220   6.155
 9621POPC   C1A52287  19.063  39.276   6.455
 9621POPC   D2A52288  19.020  39.223   6.755
 9621POPC   C3A52289  19.054  39.217   7.055
 9621POPC   C4A52290  19.017  39.221   7.355
 9621POPC   C1B52291  19.317  39.187   6.455
 9621POPC   C2B52292  19.320  39.169   6.755
 9621POPC   C3B52293  19.339  39.251   7.055
 9621POPC   C4B52294  19.309  39.240   7.355
 9622POPC   NC352295  22.179   3.536   5.555
 9622POPC   PO452296  22.179   3.501   5.855
 9622POPC   GL152297  22.116   3.529   6.155
 9622POPC   GL252298  22.281   3.440   6.155
 9622POPC   C1A52299  22.138   3.493   6.455
 9622POPC   D2A52300  22.118   3.558   6.755
 9622POPC   C3A52301  22.164   3.587   7.055
 9622POPC   C4A52302  22.114   3.492   7.355
 9622POPC   C1B52303  22.301   3.304   6.455
 9622POPC   C2B52304  22.305   3.379   6.755
 9622POPC   C3B52305  22.346   3.296   7.055
 9622POPC   C4B52306  22.348   3.311   7.355
 9623POPC   NC352307  10.499  32.280   5.555
 9623POPC   PO452308  10.520  32.245   5.855
 9623POPC   GL152309  10.546  32.246   6.155
 9623POPC   GL252310  10.413  32.307   6.155
 9623POPC   C1A52311  10.570  32.221   6.455
 9623POPC   D2A52312  10.500  32.221   6.755
 9623POPC   C3A52313  10.533  32.270   7.055
 9623POPC   C4A52314  10.538  32.241   7.355
 9623POPC   C1B52315  10.436  32.477   6.455
 9623POPC   C2B52316  10.425  32.441   6.755
 9623POPC   C3B52317  10.370  32.440   7.055
 9623POPC   C4B52318  10.403  32.493   7.355
 9624POPC   NC352319  17.506  12.041   5.555
 9624POPC   PO452320  17.506  12.111   5.855
 9624POPC   GL152321  17.547  12.074   6.155
 9624POPC   GL252322  17.645  12.024   6.155
 9624POPC   C1A52323  17.492  12.056   6.455
 9624POPC   D2A52324  17.485  12.038   6.755
 9624POPC   C3A52325  17.506  12.052   7.055
 9624POPC   C4A52326  17.498  12.072   7.355
 9624POPC   C1B52327  17.729  11.942   6.455
 9624POPC   C2B52328  17.686  11.950   6.755
 9624POPC   C3B52329  17.729  11.902   7.055
 9624POPC   C4B52330  17.746  11.934   7.355
 9625POPC   NC352331  43.841  29.141   5.555
 9625POPC   PO452332  43.930  29.104   5.855
 9625POPC   GL152333  43.865  29.099   6.155
 9625POPC   GL252334  43.890  29.305   6.155
 9625POPC   C1A52335  43.848  29.172   6.455
 9625POPC   D2A52336  43.896  29.115   6.755
 9625POPC   C3A52337  43.927  29.144   7.055
 9625POPC   C4A52338  43.865  29.106   7.355
 9625POPC   C1B52339  44.004  29.397   6.455
 9625POPC   C2B52340  44.018  29.347   6.755
 9625POPC   C3B52341  43.978  29.396   7.055
 9625POPC   C4B52342  43.994  29.363   7.355
 9626POPC   NC352343   0.441  19.829   5.555
 9626POPC   PO452344   0.464  19.859   5.855
 9626POPC   GL152345   0.479  19.877   6.155
 9626POPC   GL252346   0.529  19.805   6.155
 9626POPC   C1A52347   0.468  19.862   6.455
 9626POPC   D2A52348   0.482  19.840   6.755
 9626POPC   C3A52349   0.408  19.840   7.055
 9626POPC   C4A52350   0.479  19.815   7.355
 9626POPC   C1B52351   0.723  19.866   6.455
 9626POPC   C2B52352   0.707  19.834   6.755
 9626POPC   C3B52353   0.694  19.826   7.055
 9626POPC   C4B52354   0.702  19.877   7.355
 9627POPC   NC352355  13.609  36.154   5.555
 9627POPC   PO452356  13.615  36.170   5.855
 9627POPC   GL152357  13.620  36.167   6.155
 9627POPC   GL252358  13.508  36.126   6.155
 9627POPC   C1A52359  13.616  36.158   6.455
 9627POPC   D2A52360  13.629  36.176   6.755
 9627POPC   C3A52361  13.647  36.128   7.055
 9627POPC   C4A52362  13.643  36.142   7.355
 9627POPC   C1B52363  13.335  36.152   6.455
 9627POPC   C2B52364  13.368  36.176   6.755
 9627POPC   C3B52365  13.394  36.157   7.055
 9627POPC   C4B52366  13.336  36.146   7.355
 9628POPC   NC352367  19.851  12.824   5.555
 9628POPC   PO452368  19.849  12.879   5.855
 9628POPC   GL152369  19.821  12.831   6.155
 9628POPC   GL252370  19.733  12.859   6.155
 9628POPC   C1A52371  19.816  12.892   6.455
 9628POPC   D2A52372  19.858  12.861   6.755
 9628POPC   C3A52373  19.855  12.856   7.055
 9628POPC   C4A52374  19.880  12.813   7.355
 9628POPC   C1B52375  19.609  12.956   6.455
 9628POPC   C2B52376  19.569  12.955   6.755
 9628POPC   C3B52377  19.556  12.923   7.055
 9628POPC   C4B52378  19.565  12.897   7.355
 9629POPC   NC352379   1.260  39.190   5.555
 9629POPC   PO452380   1.213  39.249   5.855
 9629POPC   GL152381   1.186  39.189   6.155
 9629POPC   GL252382   1.207  39.320   6.155
 9629POPC   C1A52383   1.230  39.229   6.455
 9629POPC   D2A52384   1.228  39.273   6.755
 9629POPC   C3A52385   1.174  39.214   7.055
 9629POPC   C4A52386   1.197  39.211   7.355
 9629POPC   C1B52387   1.142  39.428   6.455
 9629POPC   C2B52388   1.176  39.439   6.755
 9629POPC   C3B52389   1.104  39.512   7.055
 9629POPC   C4B52390   1.180  39.439   7.355
 9630POPC   NC352391  13.653  37.691   5.555
 9630POPC   PO452392  13.591  37.669   5.855
 9630POPC   GL152393  13.585  37.695   6.155
 9630POPC   GL252394  13.538  37.589   6.155
 9630POPC   C1A52395  13.625  37.725   6.455
 9630POPC   D2A52396  13.617  37.651   6.755
 9630POPC   C3A52397  13.617  37.724   7.055
 9630POPC   C4A52398  13.676  37.727   7.355
 9630POPC   C1B52399  13.442  37.527   6.455
 9630POPC   C2B52400  13.510  37.486   6.755
 9630POPC   C3B52401  13.450  37.502   7.055
 9630POPC   C4B52402  13.485  37.441   7.355
 9631POPC   NC352403   2.004  12.095   5.555
 9631POPC   PO452404   1.957  12.080   5.855
 9631POPC   GL152405   1.987  12.091   6.155
 9631POPC   GL252406   2.161  12.050   6.155
 9631POPC   C1A52407   2.039  12.033   6.455
 9631POPC   D2A52408   1.996  12.065   6.755
 9631POPC   C3A52409   1.993  12.123   7.055
 9631POPC   C4A52410   2.018  12.060   7.355
 9631POPC   C1B52411   2.264  12.074   6.455
 9631POPC   C2B52412   2.262  12.109   6.755
 9631POPC   C3B52413   2.195  12.120   7.055
 9631POPC   C4B52414   2.268  12.073   7.355
 9632POPC   NC352415  44.620   6.667   5.555
 9632POPC   PO452416  44.689   6.638   5.855
 9632POPC   GL152417  44.696   6.641   6.155
 9632POPC   GL252418  44.741   6.529   6.155
 9632POPC   C1A52419  44.699   6.638   6.455
 9632POPC   D2A52420  44.672   6.688   6.755
 9632POPC   C3A52421  44.674   6.639   7.055
 9632POPC   C4A52422  44.686   6.646   7.355
 9632POPC   C1B52423  44.877   6.482   6.455
 9632POPC   C2B52424  44.869   6.432   6.755
 9632POPC   C3B52425  44.885   6.460   7.055
 9632POPC   C4B52426  44.849   6.527   7.355
 9633POPC   NC352427  38.473  15.950   5.555
 9633POPC   PO452428  38.463  15.959   5.855
 9633POPC   GL152429  38.445  15.979   6.155
 9633POPC   GL252430  38.363  15.882   6.155
 9633POPC   C1A52431  38.431  15.968   6.455
 9633POPC   D2A52432  38.434  15.951   6.755
 9633POPC   C3A52433  38.483  15.979   7.055
 9633POPC   C4A52434  38.450  15.928   7.355
 9633POPC   C1B52435  38.374  15.745   6.455
 9633POPC   C2B52436  38.320  15.683   6.755
 9633POPC   C3B52437  38.315  15.683   7.055
 9633POPC   C4B52438  38.390  15.728   7.355
 9634POPC   NC352439   1.981  24.461   5.555
 9634POPC   PO452440   2.016  24.515   5.855
 9634POPC   GL152441   1.950  24.526   6.155
 9634POPC   GL252442   1.851  24.435   6.155
 9634POPC   C1A52443   2.031  24.482   6.455
 9634POPC   D2A52444   1.950  24.497   6.755
 9634POPC   C3A52445   1.956  24.465   7.055
 9634POPC   C4A52446   2.024  24.471   7.355
 9634POPC   C1B52447   1.736  24.391   6.455
 9634POPC   C2B52448   1.768  24.441   6.755
 9634POPC   C3B52449   1.706  24.415   7.055
 9634POPC   C4B52450   1.801  24.457   7.355
 9635POPC   NC352451  25.249  35.313   5.555
 9635POPC   PO452452  25.235  35.379   5.855
 9635POPC   GL152453  25.256  35.350   6.155
 9635POPC   GL252454  25.426  35.355   6.155
 9635POPC   C1A52455  25.252  35.322   6.455
 9635POPC   D2A52456  25.274  35.312   6.755
 9635POPC   C3A52457  25.228  35.343   7.055
 9635POPC   C4A52458  25.286  35.304   7.355
 9635POPC   C1B52459  25.555  35.334   6.455
 9635POPC   C2B52460  25.531  35.328   6.755
 9635POPC   C3B52461  25.522  35.312   7.055
 9635POPC   C4B52462  25.563  35.365   7.355
 9636POPC   NC352463  26.018  40.758   5.555
 9636POPC   PO452464  25.997  40.775   5.855
 9636POPC   GL152465  26.019  40.799   6.155
 9636POPC   GL252466  26.151  40.719   6.155
 9636POPC   C1A52467  26.015  40.822   6.455
 9636POPC   D2A52468  25.998  40.783   6.755
 9636POPC   C3A52469  26.069  40.781   7.055
 9636POPC   C4A52470  26.068  40.798   7.355
 9636POPC   C1B52471  26.307  40.768   6.455
 9636POPC   C2B52472  26.300  40.741   6.755
 9636POPC   C3B52473  26.326  40.717   7.055
 9636POPC   C4B52474  26.309  40.685   7.355
 9637POPC   NC352475  11.301  14.356   5.555
 9637POPC   PO452476  11.344  14.438   5.855
 9637POPC   GL152477  11.337  14.441   6.155
 9637POPC   GL252478  11.288  14.289   6.155
 9637POPC   C1A52479  11.274  14.379   6.455
 9637POPC   D2A52480  11.300  14.420   6.755
 9637POPC   C3A52481  11.339  14.435   7.055
 9637POPC   C4A52482  11.343  14.442   7.355
 9637POPC   C1B52483  11.173  14.135   6.455
 9637POPC   C2B52484  11.165  14.169   6.755
 9637POPC   C3B52485  11.256  14.217   7.055
 9637POPC   C4B52486  11.186  14.138   7.355
 9638POPC   NC352487  23.693  11.296   5.555
 9638POPC   PO452488  23.701  11.261   5.855
 9638POPC   GL152489  23.747  11.297   6.155
 9638POPC   GL252490  23.574  11.348   6.155
 9638POPC   C1A52491  23.674  11.340   6.455
 9638POPC   D2A52492  23.699  11.318   6.755
 9638POPC   C3A52493  23.699  11.299   7.055
 9638POPC   C4A52494  23.722  11.324   7.355
 9638POPC   C1B52495  23.553  11.423   6.455
 9638POPC   C2B52496  23.528  11.499   6.755
 9638POPC   C3B52497  23.522  11.455   7.055
 9638POPC   C4B52498  23.561  11.515   7.355
 9639POPC   NC352499  22.136   8.173   5.555
 9639POPC   PO452500  22.143   8.217   5.855
 9639POPC   GL152501  22.172   8.166   6.155
 9639POPC   GL252502  22.236   8.315   6.155
 9639POPC   C1A52503  22.166   8.217   6.455
 9639POPC   D2A52504  22.176   8.159   6.755
 9639POPC   C3A52505  22.135   8.214   7.055
 9639POPC   C4A52506  22.162   8.207   7.355
 9639POPC   C1B52507  22.252   8.381   6.455
 9639POPC   C2B52508  22.215   8.441   6.755
 9639POPC   C3B52509  22.246   8.400   7.055
 9639POPC   C4B52510  22.219   8.426   7.355
 9640POPC   NC352511  14.365  22.120   5.555
 9640POPC   PO452512  14.400  22.153   5.855
 9640POPC   GL152513  14.397  22.179   6.155
 9640POPC   GL252514  14.316  22.157   6.155
 9640POPC   C1A52515  14.448  22.151   6.455
 9640POPC   D2A52516  14.419  22.200   6.755
 9640POPC   C3A52517  14.364  22.158   7.055
 9640POPC   C4A52518  14.383  22.179   7.355
 9640POPC   C1B52519  14.123  22.109   6.455
 9640POPC   C2B52520  14.132  22.088   6.755
 9640POPC   C3B52521  14.158  22.044   7.055
 9640POPC   C4B52522  14.128  22.036   7.355
 9641POPC   NC352523  34.591  37.689   5.555
 9641POPC   PO452524  34.540  37.647   5.855
 9641POPC   GL152525  34.612  37.708   6.155
 9641POPC   GL252526  34.444  37.719   6.155
 9641POPC   C1A52527  34.542  37.655   6.455
 9641POPC   D2A52528  34.603  37.662   6.755
 9641POPC   C3A52529  34.565  37.718   7.055
 9641POPC   C4A52530  34.532  37.651   7.355
 9641POPC   C1B52531  34.372  37.691   6.455
 9641POPC   C2B52532  34.352  37.664   6.755
 9641POPC   C3B52533  34.372  37.733   7.055
 9641POPC   C4B52534  34.314  37.649   7.355
 9642POPC   NC352535  22.946   8.237   5.555
 9642POPC   PO452536  22.895   8.162   5.855
 9642POPC   GL152537  22.891   8.213   6.155
 9642POPC   GL252538  22.822   8.097   6.155
 9642POPC   C1A52539  22.957   8.182   6.455
 9642POPC   D2A52540  22.959   8.171   6.755
 9642POPC   C3A52541  22.948   8.151   7.055
 9642POPC   C4A52542  22.953   8.205   7.355
 9642POPC   C1B52543  22.674   8.096   6.455
 9642POPC   C2B52544  22.705   8.027   6.755
 9642POPC   C3B52545  22.687   8.021   7.055
 9642POPC   C4B52546  22.690   8.096   7.355
 9643POPC   NC352547   6.643  34.539   5.555
 9643POPC   PO452548   6.637  34.551   5.855
 9643POPC   GL152549   6.668  34.549   6.155
 9643POPC   GL252550   6.562  34.476   6.155
 9643POPC   C1A52551   6.671  34.576   6.455
 9643POPC   D2A52552   6.684  34.562   6.755
 9643POPC   C3A52553   6.667  34.560   7.055
 9643POPC   C4A52554   6.648  34.527   7.355
 9643POPC   C1B52555   6.432  34.358   6.455
 9643POPC   C2B52556   6.485  34.349   6.755
 9643POPC   C3B52557   6.450  34.406   7.055
 9643POPC   C4B52558   6.436  34.429   7.355
 9644POPC   NC352559  33.014  18.324   5.555
 9644POPC   PO452560  33.046  18.326   5.855
 9644POPC   GL152561  33.055  18.269   6.155
 9644POPC   GL252562  32.999  18.161   6.155
 9644POPC   C1A52563  33.003  18.331   6.455
 9644POPC   D2A52564  33.027  18.241   6.755
 9644POPC   C3A52565  33.069  18.280   7.055
 9644POPC   C4A52566  32.986  18.309   7.355
 9644POPC   C1B52567  33.087  18.072   6.455
 9644POPC   C2B52568  33.096  18.030   6.755
 9644POPC   C3B52569  33.030  17.989   7.055
 9644POPC   C4B52570  33.100  18.050   7.355
 9645POPC   NC352571   0.446  15.217   5.555
 9645POPC   PO452572   0.469  15.186   5.855
 9645POPC   GL152573   0.471  15.144   6.155
 9645POPC   GL252574   0.542  15.216   6.155
 9645POPC   C1A52575   0.398  15.206   6.455
 9645POPC   D2A52576   0.415  15.130   6.755
 9645POPC   C3A52577   0.445  15.164   7.055
 9645POPC   C4A52578   0.456  15.214   7.355
 9645POPC   C1B52579   0.686  15.216   6.455
 9645POPC   C2B52580   0.711  15.196   6.755
 9645POPC   C3B52581   0.694  15.214   7.055
 9645POPC   C4B52582   0.656  15.274   7.355
 9646POPC   NC352583  26.020  26.018   5.555
 9646POPC   PO452584  26.005  26.076   5.855
 9646POPC   GL152585  26.076  26.052   6.155
 9646POPC   GL252586  26.041  26.198   6.155
 9646POPC   C1A52587  26.072  26.045   6.455
 9646POPC   D2A52588  26.035  26.007   6.755
 9646POPC   C3A52589  26.058  26.012   7.055
 9646POPC   C4A52590  25.998  25.995   7.355
 9646POPC   C1B52591  26.117  26.243   6.455
 9646POPC   C2B52592  26.143  26.293   6.755
 9646POPC   C3B52593  26.156  26.279   7.055
 9646POPC   C4B52594  26.165  26.282   7.355
 9647POPC   NC352595  39.957  29.183   5.555
 9647POPC   PO452596  40.009  29.132   5.855
 9647POPC   GL152597  39.970  29.152   6.155
 9647POPC   GL252598  40.116  29.161   6.155
 9647POPC   C1A52599  40.053  29.161   6.455
 9647POPC   D2A52600  40.030  29.131   6.755
 9647POPC   C3A52601  40.056  29.106   7.055
 9647POPC   C4A52602  39.972  29.125   7.355
 9647POPC   C1B52603  40.244  29.150   6.455
 9647POPC   C2B52604  40.301  29.212   6.755
 9647POPC   C3B52605  40.254  29.162   7.055
 9647POPC   C4B52606  40.212  29.170   7.355
 9648POPC   NC352607  43.062  22.165   5.555
 9648POPC   PO452608  43.078  22.173   5.855
 9648POPC   GL152609  43.070  22.173   6.155
 9648POPC   GL252610  43.102  22.037   6.155
 9648POPC   C1A52611  43.132  22.209   6.455
 9648POPC   D2A52612  43.134  22.211   6.755
 9648POPC   C3A52613  43.111  22.125   7.055
 9648POPC   C4A52614  43.137  22.166   7.355
 9648POPC   C1B52615  43.049  21.892   6.455
 9648POPC   C2B52616  43.034  21.902   6.755
 9648POPC   C3B52617  43.112  21.903   7.055
 9648POPC   C4B52618  43.034  21.956   7.355
 9649POPC   NC352619  12.876   1.259   5.555
 9649POPC   PO452620  12.895   1.220   5.855
 9649POPC   GL152621  12.862   1.207   6.155
 9649POPC   GL252622  12.946   1.261   6.155
 9649POPC   C1A52623  12.830   1.203   6.455
 9649POPC   D2A52624  12.872   1.175   6.755
 9649POPC   C3A52625  12.881   1.246   7.055
 9649POPC   C4A52626  12.818   1.177   7.355
 9649POPC   C1B52627  13.053   1.329   6.455
 9649POPC   C2B52628  13.083   1.349   6.755
 9649POPC   C3B52629  13.047   1.287   7.055
 9649POPC   C4B52630  13.124   1.250   7.355
 9650POPC   NC352631  13.672  15.160   5.555
 9650POPC   PO452632  13.619  15.194   5.855
 9650POPC   GL152633  13.650  15.209   6.155
 9650POPC   GL252634  13.772  15.230   6.155
 9650POPC   C1A52635  13.672  15.194   6.455
 9650POPC   D2A52636  13.633  15.181   6.755
 9650POPC   C3A52637  13.580  15.220   7.055
 9650POPC   C4A52638  13.648  15.201   7.355
 9650POPC   C1B52639  13.834  15.320   6.455
 9650POPC   C2B52640  13.801  15.294   6.755
 9650POPC   C3B52641  13.796  15.319   7.055
 9650POPC   C4B52642  13.883  15.345   7.355
 9651POPC   NC352643  22.948  40.823   5.555
 9651POPC   PO452644  22.927  40.745   5.855
 9651POPC   GL152645  22.939  40.766   6.155
 9651POPC   GL252646  22.915  40.623   6.155
 9651POPC   C1A52647  22.949  40.829   6.455
 9651POPC   D2A52648  22.976  40.766   6.755
 9651POPC   C3A52649  22.978  40.763   7.055
 9651POPC   C4A52650  22.985  40.805   7.355
 9651POPC   C1B52651  23.004  40.546   6.455
 9651POPC   C2B52652  22.983  40.514   6.755
 9651POPC   C3B52653  23.011  40.529   7.055
 9651POPC   C4B52654  22.976  40.574   7.355
 9652POPC   NC352655  38.502  39.237   5.555
 9652POPC   PO452656  38.475  39.252   5.855
 9652POPC   GL152657  38.494  39.221   6.155
 9652POPC   GL252658  38.491  39.392   6.155
 9652POPC   C1A52659  38.427  39.213   6.455
 9652POPC   D2A52660  38.415  39.243   6.755
 9652POPC   C3A52661  38.484  39.184   7.055
 9652POPC   C4A52662  38.410  39.268   7.355
 9652POPC   C1B52663  38.518  39.455   6.455
 9652POPC   C2B52664  38.507  39.498   6.755
 9652POPC   C3B52665  38.517  39.447   7.055
 9652POPC   C4B52666  38.551  39.438   7.355
 9653POPC   NC352667  35.359  26.791   5.555
 9653POPC   PO452668  35.374  26.775   5.855
 9653POPC   GL152669  35.370  26.841   6.155
 9653POPC   GL252670  35.518  26.849   6.155
 9653POPC   C1A52671  35.337  26.789   6.455
 9653POPC   D2A52672  35.347  26.862   6.755
 9653POPC   C3A52673  35.338  26.777   7.055
 9653POPC   C4A52674  35.369  26.835   7.355
 9653POPC   C1B52675  35.607  26.781   6.455
 9653POPC   C2B52676  35.566  26.808   6.755
 9653POPC   C3B52677  35.565  26.778   7.055
 9653POPC   C4B52678  35.605  26.790   7.355
 9654POPC   NC352679  15.215  43.892   5.555
 9654POPC   PO452680  15.148  43.907   5.855
 9654POPC   GL152681  15.202  43.898   6.155
 9654POPC   GL252682  15.244  43.830   6.155
 9654POPC   C1A52683  15.175  43.872   6.455
 9654POPC   D2A52684  15.194  43.927   6.755
 9654POPC   C3A52685  15.229  43.841   7.055
 9654POPC   C4A52686  15.193  43.859   7.355
 9654POPC   C1B52687  15.376  43.779   6.455
 9654POPC   C2B52688  15.409  43.731   6.755
 9654POPC   C3B52689  15.362  43.790   7.055
 9654POPC   C4B52690  15.353  43.722   7.355
 9655POPC   NC352691   7.445  39.211   5.555
 9655POPC   PO452692   7.439  39.203   5.855
 9655POPC   GL152693   7.446  39.229   6.155
 9655POPC   GL252694   7.311  39.102   6.155
 9655POPC   C1A52695   7.433  39.183   6.455
 9655POPC   D2A52696   7.413  39.262   6.755
 9655POPC   C3A52697   7.403  39.222   7.055
 9655POPC   C4A52698   7.417  39.182   7.355
 9655POPC   C1B52699   7.242  39.031   6.455
 9655POPC   C2B52700   7.285  39.041   6.755
 9655POPC   C3B52701   7.262  38.976   7.055
 9655POPC   C4B52702   7.280  39.042   7.355
 9656POPC   NC352703  17.493  35.373   5.555
 9656POPC   PO452704  17.500  35.329   5.855
 9656POPC   GL152705  17.544  35.312   6.155
 9656POPC   GL252706  17.626  35.395   6.155
 9656POPC   C1A52707  17.530  35.303   6.455
 9656POPC   D2A52708  17.556  35.351   6.755
 9656POPC   C3A52709  17.485  35.355   7.055
 9656POPC   C4A52710  17.522  35.387   7.355
 9656POPC   C1B52711  17.661  35.485   6.455
 9656POPC   C2B52712  17.651  35.506   6.755
 9656POPC   C3B52713  17.746  35.514   7.055
 9656POPC   C4B52714  17.724  35.561   7.355
 9657POPC   NC352715  26.024  40.031   5.555
 9657POPC   PO452716  26.017  39.981   5.855
 9657POPC   GL152717  26.011  40.006   6.155
 9657POPC   GL252718  26.189  39.957   6.155
 9657POPC   C1A52719  26.067  40.035   6.455
 9657POPC   D2A52720  25.995  39.986   6.755
 9657POPC   C3A52721  26.034  39.993   7.055
 9657POPC   C4A52722  26.031  40.023   7.355
 9657POPC   C1B52723  26.303  39.972   6.455
 9657POPC   C2B52724  26.281  40.007   6.755
 9657POPC   C3B52725  26.257  40.024   7.055
 9657POPC   C4B52726  26.325  39.989   7.355
 9658POPC   NC352727   3.557  19.795   5.555
 9658POPC   PO452728   3.492  19.880   5.855
 9658POPC   GL152729   3.580  19.876   6.155
 9658POPC   GL252730   3.567  19.699   6.155
 9658POPC   C1A52731   3.532  19.862   6.455
 9658POPC   D2A52732   3.572  19.868   6.755
 9658POPC   C3A52733   3.514  19.804   7.055
 9658POPC   C4A52734   3.588  19.862   7.355
 9658POPC   C1B52735   3.652  19.638   6.455
 9658POPC   C2B52736   3.648  19.607   6.755
 9658POPC   C3B52737   3.629  19.573   7.055
 9658POPC   C4B52738   3.681  19.579   7.355
 9659POPC   NC352739  40.790  38.428   5.555
 9659POPC   PO452740  40.763  38.475   5.855
 9659POPC   GL152741  40.744  38.463   6.155
 9659POPC   GL252742  40.775  38.377   6.155
 9659POPC   C1A52743  40.788  38.453   6.455
 9659POPC   D2A52744  40.820  38.442   6.755
 9659POPC   C3A52745  40.770  38.476   7.055
 9659POPC   C4A52746  40.784  38.424   7.355
 9659POPC   C1B52747  40.702  38.245   6.455
 9659POPC   C2B52748  40.748  38.193   6.755
 9659POPC   C3B52749  40.780  38.160   7.055
 9659POPC   C4B52750  40.771  38.236   7.355
 9660POPC   NC352751  18.245  40.808   5.555
 9660POPC   PO452752  18.277  40.797   5.855
 9660POPC   GL152753  18.333  40.762   6.155
 9660POPC   GL252754  18.232  40.616   6.155
 9660POPC   C1A52755  18.249  40.811   6.455
 9660POPC   D2A52756  18.269  40.800   6.755
 9660POPC   C3A52757  18.267  40.752   7.055
 9660POPC   C4A52758  18.301  40.746   7.355
 9660POPC   C1B52759  18.276  40.534   6.455
 9660POPC   C2B52760  18.275  40.530   6.755
 9660POPC   C3B52761  18.268  40.573   7.055
 9660POPC   C4B52762  18.285  40.519   7.355
 9661POPC   NC352763  19.868   3.581   5.555
 9661POPC   PO452764  19.849   3.503   5.855
 9661POPC   GL152765  19.832   3.517   6.155
 9661POPC   GL252766  19.757   3.515   6.155
 9661POPC   C1A52767  19.812   3.539   6.455
 9661POPC   D2A52768  19.813   3.575   6.755
 9661POPC   C3A52769  19.796   3.582   7.055
 9661POPC   C4A52770  19.838   3.495   7.355
 9661POPC   C1B52771  19.554   3.541   6.455
 9661POPC   C2B52772  19.606   3.577   6.755
 9661POPC   C3B52773  19.561   3.560   7.055
 9661POPC   C4B52774  19.539   3.502   7.355
 9662POPC   NC352775  16.714  40.748   5.555
 9662POPC   PO452776  16.757  40.802   5.855
 9662POPC   GL152777  16.747  40.804   6.155
 9662POPC   GL252778  16.804  40.705   6.155
 9662POPC   C1A52779  16.716  40.827   6.455
 9662POPC   D2A52780  16.736  40.801   6.755
 9662POPC   C3A52781  16.780  40.810   7.055
 9662POPC   C4A52782  16.775  40.747   7.355
 9662POPC   C1B52783  16.758  40.549   6.455
 9662POPC   C2B52784  16.766  40.495   6.755
 9662POPC   C3B52785  16.810  40.544   7.055
 9662POPC   C4B52786  16.747  40.526   7.355
 9663POPC   NC352787  13.643  19.813   5.555
 9663POPC   PO452788  13.630  19.814   5.855
 9663POPC   GL152789  13.610  19.866   6.155
 9663POPC   GL252790  13.546  19.940   6.155
 9663POPC   C1A52791  13.628  19.865   6.455
 9663POPC   D2A52792  13.597  19.820   6.755
 9663POPC   C3A52793  13.605  19.873   7.055
 9663POPC   C4A52794  13.632  19.798   7.355
 9663POPC   C1B52795  13.471  20.017   6.455
 9663POPC   C2B52796  13.478  19.993   6.755
 9663POPC   C3B52797  13.518  20.003   7.055
 9663POPC   C4B52798  13.499  20.048   7.355
 9664POPC   NC352799   5.074  31.455   5.555
 9664POPC   PO452800   5.065  31.434   5.855
 9664POPC   GL152801   5.062  31.508   6.155
 9664POPC   GL252802   5.266  31.458   6.155
 9664POPC   C1A52803   5.087  31.519   6.455
 9664POPC   D2A52804   5.135  31.502   6.755
 9664POPC   C3A52805   5.118  31.466   7.055
 9664POPC   C4A52806   5.102  31.506   7.355
 9664POPC   C1B52807   5.327  31.469   6.455
 9664POPC   C2B52808   5.339  31.503   6.755
 9664POPC   C3B52809   5.378  31.458   7.055
 9664POPC   C4B52810   5.387  31.484   7.355
 9665POPC   NC352811   1.218   0.426   5.555
 9665POPC   PO452812   1.245   0.482   5.855
 9665POPC   GL152813   1.231   0.410   6.155
 9665POPC   GL252814   1.259   0.273   6.155
 9665POPC   C1A52815   1.223   0.457   6.455
 9665POPC   D2A52816   1.194   0.432   6.755
 9665POPC   C3A52817   1.205   0.407   7.055
 9665POPC   C4A52818   1.251   0.482   7.355
 9665POPC   C1B52819   1.216   0.155   6.455
 9665POPC   C2B52820   1.276   0.200   6.755
 9665POPC   C3B52821   1.306   0.208   7.055
 9665POPC   C4B52822   1.267   0.162   7.355
 9666POPC   NC352823  27.555  12.046   5.555
 9666POPC   PO452824  27.599  12.079   5.855
 9666POPC   GL152825  27.641  12.049   6.155
 9666POPC   GL252826  27.473  12.078   6.155
 9666POPC   C1A52827  27.559  12.032   6.455
 9666POPC   D2A52828  27.566  12.061   6.755
 9666POPC   C3A52829  27.621  12.079   7.055
 9666POPC   C4A52830  27.597  12.057   7.355
 9666POPC   C1B52831  27.400  12.210   6.455
 9666POPC   C2B52832  27.399  12.173   6.755
 9666POPC   C3B52833  27.356  12.118   7.055
 9666POPC   C4B52834  27.344  12.199   7.355
 9667POPC   NC352835   8.183  30.729   5.555
 9667POPC   PO452836   8.234  30.685   5.855
 9667POPC   GL152837   8.210  30.677   6.155
 9667POPC   GL252838   8.253  30.807   6.155
 9667POPC   C1A52839   8.168  30.667   6.455
 9667POPC   D2A52840   8.160  30.662   6.755
 9667POPC   C3A52841   8.227  30.657   7.055
 9667POPC   C4A52842   8.204  30.694   7.355
 9667POPC   C1B52843   8.351  30.938   6.455
 9667POPC   C2B52844   8.377  30.891   6.755
 9667POPC   C3B52845   8.376  30.938   7.055
 9667POPC   C4B52846   8.289  30.901   7.355
 9668POPC   NC352847  35.335   5.112   5.555
 9668POPC   PO452848  35.395   5.120   5.855
 9668POPC   GL152849  35.358   5.091   6.155
 9668POPC   GL252850  35.471   5.219   6.155
 9668POPC   C1A52851  35.400   5.087   6.455
 9668POPC   D2A52852  35.351   5.048   6.755
 9668POPC   C3A52853  35.317   5.069   7.055
 9668POPC   C4A52854  35.351   5.047   7.355
 9668POPC   C1B52855  35.538   5.317   6.455
 9668POPC   C2B52856  35.459   5.264   6.755
 9668POPC   C3B52857  35.517   5.287   7.055
 9668POPC   C4B52858  35.522   5.287   7.355
 9669POPC   NC352859  26.798  14.381   5.555
 9669POPC   PO452860  26.768  14.445   5.855
 9669POPC   GL152861  26.810  14.426   6.155
 9669POPC   GL252862  26.884  14.415   6.155
 9669POPC   C1A52863  26.794  14.448   6.455
 9669POPC   D2A52864  26.783  14.434   6.755
 9669POPC   C3A52865  26.863  14.403   7.055
 9669POPC   C4A52866  26.818  14.400   7.355
 9669POPC   C1B52867  27.070  14.508   6.455
 9669POPC   C2B52868  27.042  14.517   6.755
 9669POPC   C3B52869  27.051  14.494   7.055
 9669POPC   C4B52870  27.060  14.518   7.355
 9670POPC   NC352871  33.764  15.200   5.555
 9670POPC   PO452872  33.809  15.189   5.855
 9670POPC   GL152873  33.830  15.177   6.155
 9670POPC   GL252874  33.742  15.146   6.155
 9670POPC   C1A52875  33.788  15.166   6.455
 9670POPC   D2A52876  33.757  15.182   6.755
 9670POPC   C3A52877  33.812  15.131   7.055
 9670POPC   C4A52878  33.827  15.222   7.355
 9670POPC   C1B52879  33.616  14.985   6.455
 9670POPC   C2B52880  33.571  15.031   6.755
 9670POPC   C3B52881  33.651  15.051   7.055
 9670POPC   C4B52882  33.642  14.998   7.355
 9671POPC   NC352883   1.967  18.262   5.555
 9671POPC   PO452884   1.952  18.260   5.855
 9671POPC   GL152885   2.032  18.252   6.155
 9671POPC   GL252886   2.024  18.157   6.155
 9671POPC   C1A52887   1.951  18.319   6.455
 9671POPC   D2A52888   1.984  18.269   6.755
 9671POPC   C3A52889   1.952  18.325   7.055
 9671POPC   C4A52890   1.964  18.234   7.355
 9671POPC   C1B52891   1.976  18.080   6.455
 9671POPC   C2B52892   1.958  18.027   6.755
 9671POPC   C3B52893   1.973  17.988   7.055
 9671POPC   C4B52894   1.994  18.053   7.355
 9672POPC   NC352895  30.698  19.850   5.555
 9672POPC   PO452896  30.681  19.836   5.855
 9672POPC   GL152897  30.721  19.799   6.155
 9672POPC   GL252898  30.637  19.930   6.155
 9672POPC   C1A52899  30.720  19.787   6.455
 9672POPC   D2A52900  30.686  19.883   6.755
 9672POPC   C3A52901  30.702  19.814   7.055
 9672POPC   C4A52902  30.670  19.869   7.355
 9672POPC   C1B52903  30.515  20.064   6.455
 9672POPC   C2B52904  30.580  19.993   6.755
 9672POPC   C3B52905  30.532  20.049   7.055
 9672POPC   C4B52906  30.524  20.026   7.355
 9673POPC   NC352907  36.104   0.458   5.555
 9673POPC   PO452908  36.108   0.428   5.855
 9673POPC   GL152909  36.084   0.437   6.155
 9673POPC   GL252910  36.204   0.525   6.155
 9673POPC   C1A52911  36.165   0.471   6.455
 9673POPC   D2A52912  36.103   0.462   6.755
 9673POPC   C3A52913  36.121   0.428   7.055
 9673POPC   C4A52914  36.126   0.452   7.355
 9673POPC   C1B52915  36.287   0.666   6.455
 9673POPC   C2B52916  36.226   0.634   6.755
 9673POPC   C3B52917  36.251   0.624   7.055
 9673POPC   C4B52918  36.300   0.686   7.355
 9674POPC   NC352919  22.955  43.842   5.555
 9674POPC   PO452920  22.924  43.842   5.855
 9674POPC   GL152921  22.895  43.934   6.155
 9674POPC   GL252922  23.083  43.986   6.155
 9674POPC   C1A52923  22.892  43.854   6.455
 9674POPC   D2A52924  22.953  43.838   6.755
 9674POPC   C3A52925  22.913  43.889   7.055
 9674POPC   C4A52926  22.935  43.907   7.355
 9674POPC   C1B52927  23.141  44.061   6.455
 9674POPC   C2B52928  23.110  43.988   6.755
 9674POPC   C3B52929  23.103  44.036   7.055
 9674POPC   C4B52930  23.158  43.998   7.355
 9675POPC   NC352931  42.337  30.665   5.555
 9675POPC   PO452932  42.379  30.730   5.855
 9675POPC   GL152933  42.301  30.673   6.155
 9675POPC   GL252934  42.289  30.612   6.155
 9675POPC   C1A52935  42.313  30.723   6.455
 9675POPC   D2A52936  42.340  30.720   6.755
 9675POPC   C3A52937  42.380  30.725   7.055
 9675POPC   C4A52938  42.383  30.651   7.355
 9675POPC   C1B52939  42.229  30.504   6.455
 9675POPC   C2B52940  42.218  30.497   6.755
 9675POPC   C3B52941  42.189  30.478   7.055
 9675POPC   C4B52942  42.245  30.504   7.355
 9676POPC   NC352943   5.855  39.214   5.555
 9676POPC   PO452944   5.883  39.193   5.855
 9676POPC   GL152945   5.901  39.231   6.155
 9676POPC   GL252946   5.974  39.136   6.155
 9676POPC   C1A52947   5.866  39.258   6.455
 9676POPC   D2A52948   5.872  39.213   6.755
 9676POPC   C3A52949   5.881  39.199   7.055
 9676POPC   C4A52950   5.895  39.222   7.355
 9676POPC   C1B52951   6.055  39.171   6.455
 9676POPC   C2B52952   6.099  39.087   6.755
 9676POPC   C3B52953   6.135  39.083   7.055
 9676POPC   C4B52954   6.052  39.148   7.355
 9677POPC   NC352955   4.269  25.302   5.555
 9677POPC   PO452956   4.307  25.276   5.855
 9677POPC   GL152957   4.355  25.274   6.155
 9677POPC   GL252958   4.336  25.352   6.155
 9677POPC   C1A52959   4.274  25.255   6.455
 9677POPC   D2A52960   4.298  25.254   6.755
 9677POPC   C3A52961   4.341  25.270   7.055
 9677POPC   C4A52962   4.304  25.229   7.355
 9677POPC   C1B52963   4.374  25.520   6.455
 9677POPC   C2B52964   4.426  25.461   6.755
 9677POPC   C3B52965   4.374  25.471   7.055
 9677POPC   C4B52966   4.423  25.528   7.355
 9678POPC   NC352967  37.672  12.061   5.555
 9678POPC   PO452968  37.729  12.052   5.855
 9678POPC   GL152969  37.696  12.091   6.155
 9678POPC   GL252970  37.844  12.069   6.155
 9678POPC   C1A52971  37.659  12.063   6.455
 9678POPC   D2A52972  37.683  12.073   6.755
 9678POPC   C3A52973  37.644  12.028   7.055
 9678POPC   C4A52974  37.714  12.105   7.355
 9678POPC   C1B52975  37.866  12.016   6.455
 9678POPC   C2B52976  37.954  11.988   6.755
 9678POPC   C3B52977  37.956  12.001   7.055
 9678POPC   C4B52978  37.908  12.029   7.355
 9679POPC   NC352979  37.681  44.666   5.555
 9679POPC   PO452980  37.720  44.654   5.855
 9679POPC   GL152981  37.712  44.698   6.155
 9679POPC   GL252982  37.765  44.636   6.155
 9679POPC   C1A52983  37.641  44.701   6.455
 9679POPC   D2A52984  37.662  44.698   6.755
 9679POPC   C3A52985  37.699  44.702   7.055
 9679POPC   C4A52986  37.722  44.623   7.355
 9679POPC   C1B52987  37.897  44.622   6.455
 9679POPC   C2B52988  37.905  44.595   6.755
 9679POPC   C3B52989  37.967  44.667   7.055
 9679POPC   C4B52990  37.902  44.686   7.355
 9680POPC   NC352991  15.927  36.116   5.555
 9680POPC   PO452992  15.926  36.124   5.855
 9680POPC   GL152993  16.003  36.137   6.155
 9680POPC   GL252994  15.879  36.138   6.155
 9680POPC   C1A52995  15.932  36.158   6.455
 9680POPC   D2A52996  15.982  36.175   6.755
 9680POPC   C3A52997  15.967  36.145   7.055
 9680POPC   C4A52998  16.002  36.120   7.355
 9680POPC   C1B52999  15.662  36.105   6.455
 9680POPC   C2B53000  15.679  36.083   6.755
 9680POPC   C3B53001  15.757  36.086   7.055
 9680POPC   C4B53002  15.748  36.067   7.355
 9681POPC   NC353003   5.051  19.851   5.555
 9681POPC   PO453004   5.083  19.866   5.855
 9681POPC   GL153005   5.071  19.785   6.155
 9681POPC   GL253006   5.077  19.959   6.155
 9681POPC   C1A53007   5.080  19.853   6.455
 9681POPC   D2A53008   5.046  19.879   6.755
 9681POPC   C3A53009   5.091  19.813   7.055
 9681POPC   C4A53010   5.134  19.796   7.355
 9681POPC   C1B53011   5.099  20.127   6.455
 9681POPC   C2B53012   5.063  20.100   6.755
 9681POPC   C3B53013   5.083  20.093   7.055
 9681POPC   C4B53014   5.048  20.061   7.355
 9682POPC   NC353015  20.654   6.677   5.555
 9682POPC   PO453016  20.629   6.650   5.855
 9682POPC   GL153017  20.575   6.602   6.155
 9682POPC   GL253018  20.735   6.629   6.155
 9682POPC   C1A53019  20.593   6.687   6.455
 9682POPC   D2A53020  20.652   6.672   6.755
 9682POPC   C3A53021  20.628   6.613   7.055
 9682POPC   C4A53022  20.647   6.676   7.355
 9682POPC   C1B53023  20.887   6.592   6.455
 9682POPC   C2B53024  20.891   6.580   6.755
 9682POPC   C3B53025  20.862   6.578   7.055
 9682POPC   C4B53026  20.860   6.566   7.355
 9683POPC   NC353027  16.703  23.684   5.555
 9683POPC   PO453028  16.712  23.736   5.855
 9683POPC   GL153029  16.766  23.689   6.155
 9683POPC   GL253030  16.856  23.650   6.155
 9683POPC   C1A53031  16.692  23.736   6.455
 9683POPC   D2A53032  16.741  23.703   6.755
 9683POPC   C3A53033  16.753  23.717   7.055
 9683POPC   C4A53034  16.728  23.689   7.355
 9683POPC   C1B53035  16.937  23.582   6.455
 9683POPC   C2B53036  16.966  23.534   6.755
 9683POPC   C3B53037  16.976  23.588   7.055
 9683POPC   C4B53038  16.979  23.608   7.355
 9684POPC   NC353039  40.020   6.614   5.555
 9684POPC   PO453040  39.993   6.685   5.855
 9684POPC   GL153041  40.056   6.624   6.155
 9684POPC   GL253042  40.097   6.517   6.155
 9684POPC   C1A53043  40.028   6.686   6.455
 9684POPC   D2A53044  40.054   6.664   6.755
 9684POPC   C3A53045  40.034   6.670   7.055
 9684POPC   C4A53046  40.026   6.675   7.355
 9684POPC   C1B53047  40.165   6.446   6.455
 9684POPC   C2B53048  40.169   6.458   6.755
 9684POPC   C3B53049  40.167   6.463   7.055
 9684POPC   C4B53050  40.110   6.464   7.355
 9685POPC   NC353051  42.373  22.932   5.555
 9685POPC   PO453052  42.353  22.916   5.855
 9685POPC   GL153053  42.365  22.933   6.155
 9685POPC   GL253054  42.442  22.912   6.155
 9685POPC   C1A53055  42.309  22.897   6.455
 9685POPC   D2A53056  42.326  22.896   6.755
 9685POPC   C3A53057  42.361  22.955   7.055
 9685POPC   C4A53058  42.336  22.935   7.355
 9685POPC   C1B53059  42.575  22.944   6.455
 9685POPC   C2B53060  42.606  22.898   6.755
 9685POPC   C3B53061  42.542  22.877   7.055
 9685POPC   C4B53062  42.556  22.923   7.355
 9686POPC   NC353063   0.434  33.814   5.555
 9686POPC   PO453064   0.417  33.784   5.855
 9686POPC   GL153065   0.405  33.843   6.155
 9686POPC   GL253066   0.447  33.896   6.155
 9686POPC   C1A53067   0.481  33.766   6.455
 9686POPC   D2A53068   0.475  33.846   6.755
 9686POPC   C3A53069   0.401  33.845   7.055
 9686POPC   C4A53070   0.469  33.812   7.355
 9686POPC   C1B53071   0.589  33.994   6.455
 9686POPC   C2B53072   0.586  34.048   6.755
 9686POPC   C3B53073   0.597  34.029   7.055
 9686POPC   C4B53074   0.547  33.978   7.355
 9687POPC   NC353075  28.369  14.431   5.555
 9687POPC   PO453076  28.391  14.362   5.855
 9687POPC   GL153077  28.363  14.374   6.155
 9687POPC   GL253078  28.460  14.491   6.155
 9687POPC   C1A53079  28.416  14.386   6.455
 9687POPC   D2A53080  28.320  14.360   6.755
 9687POPC   C3A53081  28.360  14.442   7.055
 9687POPC   C4A53082  28.323  14.453   7.355
 9687POPC   C1B53083  28.524  14.634   6.455
 9687POPC   C2B53084  28.465  14.589   6.755
 9687POPC   C3B53085  28.475  14.575   7.055
 9687POPC   C4B53086  28.512  14.600   7.355
 9688POPC   NC353087  35.369  24.539   5.555
 9688POPC   PO453088  35.314  24.509   5.855
 9688POPC   GL153089  35.314  24.464   6.155
 9688POPC   GL253090  35.495  24.546   6.155
 9688POPC   C1A53091  35.366  24.498   6.455
 9688POPC   D2A53092  35.392  24.531   6.755
 9688POPC   C3A53093  35.303  24.447   7.055
 9688POPC   C4A53094  35.380  24.534   7.355
 9688POPC   C1B53095  35.591  24.643   6.455
 9688POPC   C2B53096  35.552  24.635   6.755
 9688POPC   C3B53097  35.511  24.615   7.055
 9688POPC   C4B53098  35.537  24.682   7.355
 9689POPC   NC353099  43.912   5.087   5.555
 9689POPC   PO453100  43.929   5.142   5.855
 9689POPC   GL153101  43.882   5.062   6.155
 9689POPC   GL253102  43.869   4.978   6.155
 9689POPC   C1A53103  43.850   5.073   6.455
 9689POPC   D2A53104  43.928   5.131   6.755
 9689POPC   C3A53105  43.869   5.121   7.055
 9689POPC   C4A53106  43.881   5.119   7.355
 9689POPC   C1B53107  43.746   4.869   6.455
 9689POPC   C2B53108  43.774   4.871   6.755
 9689POPC   C3B53109  43.787   4.847   7.055
 9689POPC   C4B53110  43.807   4.842   7.355
 9690POPC   NC353111   8.219  15.999   5.555
 9690POPC   PO453112   8.172  15.949   5.855
 9690POPC   GL153113   8.167  15.938   6.155
 9690POPC   GL253114   8.145  16.064   6.155
 9690POPC   C1A53115   8.234  15.945   6.455
 9690POPC   D2A53116   8.233  15.907   6.755
 9690POPC   C3A53117   8.215  15.921   7.055
 9690POPC   C4A53118   8.182  15.917   7.355
 9690POPC   C1B53119   8.024  16.161   6.455
 9690POPC   C2B53120   7.970  16.154   6.755
 9690POPC   C3B53121   8.000  16.134   7.055
 9690POPC   C4B53122   8.037  16.096   7.355
 9691POPC   NC353123  43.062   1.233   5.555
 9691POPC   PO453124  43.076   1.192   5.855
 9691POPC   GL153125  43.117   1.222   6.155
 9691POPC   GL253126  43.083   1.046   6.155
 9691POPC   C1A53127  43.148   1.234   6.455
 9691POPC   D2A53128  43.100   1.262   6.755
 9691POPC   C3A53129  43.127   1.249   7.055
 9691POPC   C4A53130  43.096   1.255   7.355
 9691POPC   C1B53131  43.122   0.937   6.455
 9691POPC   C2B53132  43.177   0.998   6.755
 9691POPC   C3B53133  43.197   0.996   7.055
 9691POPC   C4B53134  43.108   1.002   7.355
 9692POPC   NC353135  11.271  31.482   5.555
 9692POPC   PO453136  11.277  31.458   5.855
 9692POPC   GL153137  11.344  31.511   6.155
 9692POPC   GL253138  11.455  31.368   6.155
 9692POPC   C1A53139  11.339  31.499   6.455
 9692POPC   D2A53140  11.268  31.452   6.755
 9692POPC   C3A53141  11.307  31.441   7.055
 9692POPC   C4A53142  11.332  31.437   7.355
 9692POPC   C1B53143  11.501  31.348   6.455
 9692POPC   C2B53144  11.465  31.323   6.755
 9692POPC   C3B53145  11.492  31.383   7.055
 9692POPC   C4B53146  11.559  31.320   7.355
 9693POPC   NC353147  44.673  44.663   5.555
 9693POPC   PO453148  44.619  44.641   5.855
 9693POPC   GL153149  44.693  44.663   6.155
 9693POPC   GL253150  44.655  44.520   6.155
 9693POPC   C1A53151  44.634  44.674   6.455
 9693POPC   D2A53152  44.665  44.692   6.755
 9693POPC   C3A53153  44.670  44.626   7.055
 9693POPC   C4A53154  44.682  44.698   7.355
 9693POPC   C1B53155  44.624  44.402   6.455
 9693POPC   C2B53156  44.615  44.404   6.755
 9693POPC   C3B53157  44.586  44.412   7.055
 9693POPC   C4B53158  44.658  44.392   7.355
 9694POPC   NC353159  33.839  39.223   5.555
 9694POPC   PO453160  33.807  39.228   5.855
 9694POPC   GL153161  33.849  39.200   6.155
 9694POPC   GL253162  33.898  39.150   6.155
 9694POPC   C1A53163  33.797  39.188   6.455
 9694POPC   D2A53164  33.814  39.245   6.755
 9694POPC   C3A53165  33.793  39.222   7.055
 9694POPC   C4A53166  33.758  39.221   7.355
 9694POPC   C1B53167  34.008  39.075   6.455
 9694POPC   C2B53168  33.980  39.078   6.755
 9694POPC   C3B53169  33.971  39.092   7.055
 9694POPC   C4B53170  33.987  39.043   7.355
 9695POPC   NC353171  36.133  36.122   5.555
 9695POPC   PO453172  36.104  36.162   5.855
 9695POPC   GL153173  36.150  36.125   6.155
 9695POPC   GL253174  36.108  35.956   6.155
 9695POPC   C1A53175  36.149  36.135   6.455
 9695POPC   D2A53176  36.091  36.142   6.755
 9695POPC   C3A53177  36.145  36.172   7.055
 9695POPC   C4A53178  36.098  36.141   7.355
 9695POPC   C1B53179  36.105  35.843   6.455
 9695POPC   C2B53180  36.144  35.836   6.755
 9695POPC   C3B53181  36.087  35.895   7.055
 9695POPC   C4B53182  36.098  35.831   7.355
 9696POPC   NC353183  24.519  31.488   5.555
 9696POPC   PO453184  24.497  31.466   5.855
 9696POPC   GL153185  24.532  31.520   6.155
 9696POPC   GL253186  24.394  31.391   6.155
 9696POPC   C1A53187  24.492  31.431   6.455
 9696POPC   D2A53188  24.450  31.458   6.755
 9696POPC   C3A53189  24.452  31.445   7.055
 9696POPC   C4A53190  24.512  31.451   7.355
 9696POPC   C1B53191  24.251  31.330   6.455
 9696POPC   C2B53192  24.321  31.341   6.755
 9696POPC   C3B53193  24.285  31.298   7.055
 9696POPC   C4B53194  24.263  31.357   7.355
 9697POPC   NC353195  11.262   8.194   5.555
 9697POPC   PO453196  11.339   8.201   5.855
 9697POPC   GL153197  11.347   8.212   6.155
 9697POPC   GL253198  11.183   8.152   6.155
 9697POPC   C1A53199  11.348   8.185   6.455
 9697POPC   D2A53200  11.324   8.170   6.755
 9697POPC   C3A53201  11.322   8.160   7.055
 9697POPC   C4A53202  11.262   8.198   7.355
 9697POPC   C1B53203  11.095   8.038   6.455
 9697POPC   C2B53204  11.108   8.038   6.755
 9697POPC   C3B53205  11.094   8.081   7.055
 9697POPC   C4B53206  11.087   8.045   7.355
 9698POPC   NC353207  22.951  22.175   5.555
 9698POPC   PO453208  22.945  22.165   5.855
 9698POPC   GL153209  22.927  22.164   6.155
 9698POPC   GL253210  23.022  22.220   6.155
 9698POPC   C1A53211  22.970  22.150   6.455
 9698POPC   D2A53212  22.970  22.195   6.755
 9698POPC   C3A53213  22.923  22.195   7.055
 9698POPC   C4A53214  22.907  22.151   7.355
 9698POPC   C1B53215  23.198  22.208   6.455
 9698POPC   C2B53216  23.203  22.264   6.755
 9698POPC   C3B53217  23.192  22.200   7.055
 9698POPC   C4B53218  23.167  22.287   7.355
 9699POPC   NC353219   5.867  26.020   5.555
 9699POPC   PO453220   5.917  26.091   5.855
 9699POPC   GL153221   5.912  26.069   6.155
 9699POPC   GL253222   5.964  26.022   6.155
 9699POPC   C1A53223   5.909  26.024   6.455
 9699POPC   D2A53224   5.835  26.040   6.755
 9699POPC   C3A53225   5.839  26.005   7.055
 9699POPC   C4A53226   5.835  26.014   7.355
 9699POPC   C1B53227   6.034  25.883   6.455
 9699POPC   C2B53228   6.075  25.937   6.755
 9699POPC   C3B53229   6.127  25.960   7.055
 9699POPC   C4B53230   6.128  25.930   7.355
 9700POPC   NC353231  39.986  27.591   5.555
 9700POPC   PO453232  40.013  27.617   5.855
 9700POPC   GL153233  39.996  27.612   6.155
 9700POPC   GL253234  40.061  27.692   6.155
 9700POPC   C1A53235  39.983  27.576   6.455
 9700POPC   D2A53236  40.055  27.608   6.755
 9700POPC   C3A53237  40.033  27.627   7.055
 9700POPC   C4A53238  39.990  27.597   7.355
 9700POPC   C1B53239  40.099  27.860   6.455
 9700POPC   C2B53240  40.066  27.803   6.755
 9700POPC   C3B53241  40.009  27.850   7.055
 9700POPC   C4B53242  40.047  27.885   7.355
 9701POPC   NC353243  12.877  39.962   5.555
 9701POPC   PO453244  12.802  40.021   5.855
 9701POPC   GL153245  12.843  39.981   6.155
 9701POPC   GL253246  12.715  40.058   6.155
 9701POPC   C1A53247  12.874  39.978   6.455
 9701POPC   D2A53248  12.822  40.026   6.755
 9701POPC   C3A53249  12.843  39.957   7.055
 9701POPC   C4A53250  12.883  40.049   7.355
 9701POPC   C1B53251  12.600  40.086   6.455
 9701POPC   C2B53252  12.655  40.162   6.755
 9701POPC   C3B53253  12.632  40.096   7.055
 9701POPC   C4B53254  12.652  40.171   7.355
 9702POPC   NC353255  36.920   5.835   5.555
 9702POPC   PO453256  36.943   5.836   5.855
 9702POPC   GL153257  36.940   5.867   6.155
 9702POPC   GL253258  36.797   5.849   6.155
 9702POPC   C1A53259  36.940   5.858   6.455
 9702POPC   D2A53260  36.876   5.849   6.755
 9702POPC   C3A53261  36.883   5.917   7.055
 9702POPC   C4A53262  36.929   5.915   7.355
 9702POPC   C1B53263  36.648   5.800   6.455
 9702POPC   C2B53264  36.677   5.800   6.755
 9702POPC   C3B53265  36.703   5.743   7.055
 9702POPC   C4B53266  36.659   5.805   7.355
 9703POPC   NC353267  14.373   9.729   5.555
 9703POPC   PO453268  14.425   9.758   5.855
 9703POPC   GL153269  14.359   9.711   6.155
 9703POPC   GL253270  14.552   9.808   6.155
 9703POPC   C1A53271  14.437   9.761   6.455
 9703POPC   D2A53272  14.411   9.700   6.755
 9703POPC   C3A53273  14.404   9.730   7.055
 9703POPC   C4A53274  14.387   9.796   7.355
 9703POPC   C1B53275  14.663   9.862   6.455
 9703POPC   C2B53276  14.598   9.868   6.755
 9703POPC   C3B53277  14.615   9.886   7.055
 9703POPC   C4B53278  14.604   9.853   7.355
 9704POPC   NC353279  30.691  32.204   5.555
 9704POPC   PO453280  30.729  32.250   5.855
 9704POPC   GL153281  30.702  32.268   6.155
 9704POPC   GL253282  30.789  32.154   6.155
 9704POPC   C1A53283  30.713  32.281   6.455
 9704POPC   D2A53284  30.717  32.229   6.755
 9704POPC   C3A53285  30.703  32.257   7.055
 9704POPC   C4A53286  30.686  32.267   7.355
 9704POPC   C1B53287  30.916  32.072   6.455
 9704POPC   C2B53288  30.886  32.074   6.755
 9704POPC   C3B53289  30.911  32.144   7.055
 9704POPC   C4B53290  30.923  32.065   7.355
 9705POPC   NC353291  21.415  34.605   5.555
 9705POPC   PO453292  21.416  34.625   5.855
 9705POPC   GL153293  21.421  34.565   6.155
 9705POPC   GL253294  21.496  34.506   6.155
 9705POPC   C1A53295  21.350  34.616   6.455
 9705POPC   D2A53296  21.368  34.595   6.755
 9705POPC   C3A53297  21.423  34.612   7.055
 9705POPC   C4A53298  21.358  34.590   7.355
 9705POPC   C1B53299  21.616  34.444   6.455
 9705POPC   C2B53300  21.579  34.406   6.755
 9705POPC   C3B53301  21.560  34.383   7.055
 9705POPC   C4B53302  21.561  34.387   7.355
 9706POPC   NC353303  23.746   7.408   5.555
 9706POPC   PO453304  23.673   7.387   5.855
 9706POPC   GL153305  23.732   7.416   6.155
 9706POPC   GL253306  23.812   7.471   6.155
 9706POPC   C1A53307  23.711   7.406   6.455
 9706POPC   D2A53308  23.760   7.416   6.755
 9706POPC   C3A53309  23.672   7.446   7.055
 9706POPC   C4A53310  23.754   7.452   7.355
 9706POPC   C1B53311  23.877   7.612   6.455
 9706POPC   C2B53312  23.960   7.518   6.755
 9706POPC   C3B53313  23.910   7.560   7.055
 9706POPC   C4B53314  23.949   7.515   7.355
 9707POPC   NC353315  30.746  17.548   5.555
 9707POPC   PO453316  30.662  17.542   5.855
 9707POPC   GL153317  30.706  17.481   6.155
 9707POPC   GL253318  30.668  17.661   6.155
 9707POPC   C1A53319  30.693  17.553   6.455
 9707POPC   D2A53320  30.740  17.526   6.755
 9707POPC   C3A53321  30.705  17.470   7.055
 9707POPC   C4A53322  30.671  17.471   7.355
 9707POPC   C1B53323  30.655  17.734   6.455
 9707POPC   C2B53324  30.698  17.738   6.755
 9707POPC   C3B53325  30.643  17.742   7.055
 9707POPC   C4B53326  30.723  17.785   7.355
 9708POPC   NC353327  10.478   2.016   5.555
 9708POPC   PO453328  10.479   2.027   5.855
 9708POPC   GL153329  10.490   1.994   6.155
 9708POPC   GL253330  10.521   1.868   6.155
 9708POPC   C1A53331  10.541   2.007   6.455
 9708POPC   D2A53332  10.488   2.007   6.755
 9708POPC   C3A53333  10.476   2.020   7.055
 9708POPC   C4A53334  10.516   2.039   7.355
 9708POPC   C1B53335  10.504   1.756   6.455
 9708POPC   C2B53336  10.469   1.759   6.755
 9708POPC   C3B53337  10.515   1.705   7.055
 9708POPC   C4B53338  10.547   1.779   7.355
 9709POPC   NC353339  27.583  25.311   5.555
 9709POPC   PO453340  27.601  25.269   5.855
 9709POPC   GL153341  27.611  25.221   6.155
 9709POPC   GL253342  27.558  25.164   6.155
 9709POPC   C1A53343  27.610  25.252   6.455
 9709POPC   D2A53344  27.614  25.290   6.755
 9709POPC   C3A53345  27.614  25.251   7.055
 9709POPC   C4A53346  27.618  25.285   7.355
 9709POPC   C1B53347  27.614  25.000   6.455
 9709POPC   C2B53348  27.592  25.018   6.755
 9709POPC   C3B53349  27.631  25.038   7.055
 9709POPC   C4B53350  27.619  25.032   7.355
 9710POPC   NC353351  12.103  13.634   5.555
 9710POPC   PO453352  12.030  13.611   5.855
 9710POPC   GL153353  12.101  13.589   6.155
 9710POPC   GL253354  12.102  13.687   6.155
 9710POPC   C1A53355  12.045  13.624   6.455
 9710POPC   D2A53356  12.112  13.672   6.755
 9710POPC   C3A53357  12.051  13.665   7.055
 9710POPC   C4A53358  12.071  13.617   7.355
 9710POPC   C1B53359  12.236  13.831   6.455
 9710POPC   C2B53360  12.163  13.870   6.755
 9710POPC   C3B53361  12.191  13.862   7.055
 9710POPC   C4B53362  12.223  13.866   7.355
 9711POPC   NC353363  11.256  32.976   5.555
 9711POPC   PO453364  11.333  33.011   5.855
 9711POPC   GL153365  11.305  33.012   6.155
 9711POPC   GL253366  11.435  32.998   6.155
 9711POPC   C1A53367  11.257  32.988   6.455
 9711POPC   D2A53368  11.272  32.978   6.755
 9711POPC   C3A53369  11.267  32.980   7.055
 9711POPC   C4A53370  11.275  32.985   7.355
 9711POPC   C1B53371  11.501  32.832   6.455
 9711POPC   C2B53372  11.500  32.871   6.755
 9711POPC   C3B53373  11.495  32.828   7.055
 9711POPC   C4B53374  11.451  32.852   7.355
 9712POPC   NC353375  41.592  42.318   5.555
 9712POPC   PO453376  41.532  42.359   5.855
 9712POPC   GL153377  41.552  42.300   6.155
 9712POPC   GL253378  41.425  42.302   6.155
 9712POPC   C1A53379  41.562  42.370   6.455
 9712POPC   D2A53380  41.564  42.323   6.755
 9712POPC   C3A53381  41.536  42.347   7.055
 9712POPC   C4A53382  41.586  42.293   7.355
 9712POPC   C1B53383  41.311  42.197   6.455
 9712POPC   C2B53384  41.379  42.209   6.755
 9712POPC   C3B53385  41.386  42.229   7.055
 9712POPC   C4B53386  41.400  42.163   7.355
 9713POPC   NC353387   5.069  15.979   5.555
 9713POPC   PO453388   5.079  15.959   5.855
 9713POPC   GL153389   5.136  15.923   6.155
 9713POPC   GL253390   5.023  15.880   6.155
 9713POPC   C1A53391   5.118  15.979   6.455
 9713POPC   D2A53392   5.081  15.966   6.755
 9713POPC   C3A53393   5.095  15.973   7.055
 9713POPC   C4A53394   5.116  15.918   7.355
 9713POPC   C1B53395   4.892  15.891   6.455
 9713POPC   C2B53396   4.894  15.891   6.755
 9713POPC   C3B53397   4.852  15.874   7.055
 9713POPC   C4B53398   4.841  15.858   7.355
 9714POPC   NC353399   9.774  34.583   5.555
 9714POPC   PO453400   9.793  34.613   5.855
 9714POPC   GL153401   9.766  34.586   6.155
 9714POPC   GL253402   9.856  34.532   6.155
 9714POPC   C1A53403   9.706  34.554   6.455
 9714POPC   D2A53404   9.755  34.573   6.755
 9714POPC   C3A53405   9.751  34.551   7.055
 9714POPC   C4A53406   9.703  34.568   7.355
 9714POPC   C1B53407   9.963  34.543   6.455
 9714POPC   C2B53408   9.977  34.542   6.755
 9714POPC   C3B53409  10.020  34.518   7.055
 9714POPC   C4B53410   9.944  34.556   7.355
 9715POPC   NC353411  31.471  18.273   5.555
 9715POPC   PO453412  31.484  18.272   5.855
 9715POPC   GL153413  31.505  18.245   6.155
 9715POPC   GL253414  31.544  18.194   6.155
 9715POPC   C1A53415  31.504  18.307   6.455
 9715POPC   D2A53416  31.424  18.255   6.755
 9715POPC   C3A53417  31.444  18.274   7.055
 9715POPC   C4A53418  31.484  18.270   7.355
 9715POPC   C1B53419  31.647  18.180   6.455
 9715POPC   C2B53420  31.716  18.164   6.755
 9715POPC   C3B53421  31.735  18.124   7.055
 9715POPC   C4B53422  31.686  18.148   7.355
 9716POPC   NC353423  39.993  40.048   5.555
 9716POPC   PO453424  39.986  40.039   5.855
 9716POPC   GL153425  39.991  39.962   6.155
 9716POPC   GL253426  39.990  40.094   6.155
 9716POPC   C1A53427  40.038  40.039   6.455
 9716POPC   D2A53428  40.002  40.000   6.755
 9716POPC   C3A53429  39.966  40.011   7.055
 9716POPC   C4A53430  39.987  40.001   7.355
 9716POPC   C1B53431  39.882  40.190   6.455
 9716POPC   C2B53432  39.866  40.261   6.755
 9716POPC   C3B53433  39.840  40.209   7.055
 9716POPC   C4B53434  39.906  40.264   7.355
 9717POPC   NC353435  21.356  43.116   5.555
 9717POPC   PO453436  21.356  43.122   5.855
 9717POPC   GL153437  21.392  43.150   6.155
 9717POPC   GL253438  21.464  43.225   6.155
 9717POPC   C1A53439  21.388  43.093   6.455
 9717POPC   D2A53440  21.343  43.116   6.755
 9717POPC   C3A53441  21.343  43.128   7.055
 9717POPC   C4A53442  21.395  43.131   7.355
 9717POPC   C1B53443  21.572  43.312   6.455
 9717POPC   C2B53444  21.514  43.292   6.755
 9717POPC   C3B53445  21.566  43.321   7.055
 9717POPC   C4B53446  21.548  43.310   7.355
 9718POPC   NC353447   9.778  23.667   5.555
 9718POPC   PO453448   9.713  23.684   5.855
 9718POPC   GL153449   9.774  23.720   6.155
 9718POPC   GL253450   9.587  23.714   6.155
 9718POPC   C1A53451   9.776  23.758   6.455
 9718POPC   D2A53452   9.725  23.725   6.755
 9718POPC   C3A53453   9.749  23.754   7.055
 9718POPC   C4A53454   9.759  23.723   7.355
 9718POPC   C1B53455   9.525  23.749   6.455
 9718POPC   C2B53456   9.534  23.770   6.755
 9718POPC   C3B53457   9.453  23.676   7.055
 9718POPC   C4B53458   9.497  23.708   7.355
 9719POPC   NC353459   8.169  38.442   5.555
 9719POPC   PO453460   8.182  38.501   5.855
 9719POPC   GL153461   8.203  38.442   6.155
 9719POPC   GL253462   8.307  38.334   6.155
 9719POPC   C1A53463   8.219  38.469   6.455
 9719POPC   D2A53464   8.155  38.494   6.755
 9719POPC   C3A53465   8.165  38.444   7.055
 9719POPC   C4A53466   8.225  38.466   7.355
 9719POPC   C1B53467   8.342  38.254   6.455
 9719POPC   C2B53468   8.423  38.341   6.755
 9719POPC   C3B53469   8.388  38.342   7.055
 9719POPC   C4B53470   8.395  38.265   7.355
 9720POPC   NC353471  22.903  33.827   5.555
 9720POPC   PO453472  22.963  33.803   5.855
 9720POPC   GL153473  22.970  33.752   6.155
 9720POPC   GL253474  23.033  33.766   6.155
 9720POPC   C1A53475  22.893  33.773   6.455
 9720POPC   D2A53476  22.927  33.816   6.755
 9720POPC   C3A53477  22.906  33.784   7.055
 9720POPC   C4A53478  22.959  33.795   7.355
 9720POPC   C1B53479  23.144  33.739   6.455
 9720POPC   C2B53480  23.218  33.713   6.755
 9720POPC   C3B53481  23.206  33.758   7.055
 9720POPC   C4B53482  23.213  33.703   7.355
 9721POPC   NC353483  42.358   7.389   5.555
 9721POPC   PO453484  42.344   7.413   5.855
 9721POPC   GL153485  42.359   7.437   6.155
 9721POPC   GL253486  42.300   7.567   6.155
 9721POPC   C1A53487  42.303   7.395   6.455
 9721POPC   D2A53488  42.285   7.455   6.755
 9721POPC   C3A53489  42.376   7.402   7.055
 9721POPC   C4A53490  42.312   7.446   7.355
 9721POPC   C1B53491  42.202   7.680   6.455
 9721POPC   C2B53492  42.222   7.621   6.755
 9721POPC   C3B53493  42.246   7.588   7.055
 9721POPC   C4B53494  42.188   7.639   7.355
 9722POPC   NC353495   4.282  23.736   5.555
 9722POPC   PO453496   4.315  23.740   5.855
 9722POPC   GL153497   4.299  23.750   6.155
 9722POPC   GL253498   4.279  23.808   6.155
 9722POPC   C1A53499   4.356  23.685   6.455
 9722POPC   D2A53500   4.363  23.730   6.755
 9722POPC   C3A53501   4.319  23.702   7.055
 9722POPC   C4A53502   4.286  23.664   7.355
 9722POPC   C1B53503   4.287  23.918   6.455
 9722POPC   C2B53504   4.286  23.965   6.755
 9722POPC   C3B53505   4.376  23.978   7.055
 9722POPC   C4B53506   4.378  23.991   7.355
 9723POPC   NC353507  20.587   9.732   5.555
 9723POPC   PO453508  20.567   9.776   5.855
 9723POPC   GL153509  20.627   9.758   6.155
 9723POPC   GL253510  20.491   9.622   6.155
 9723POPC   C1A53511  20.568   9.733   6.455
 9723POPC   D2A53512  20.579   9.795   6.755
 9723POPC   C3A53513  20.617   9.770   7.055
 9723POPC   C4A53514  20.645   9.796   7.355
 9723POPC   C1B53515  20.450   9.611   6.455
 9723POPC   C2B53516  20.472   9.619   6.755
 9723POPC   C3B53517  20.450   9.569   7.055
 9723POPC   C4B53518  20.448   9.532   7.355
 9724POPC   NC353519  40.048  22.162   5.555
 9724POPC   PO453520  39.987  22.140   5.855
 9724POPC   GL153521  40.045  22.120   6.155
 9724POPC   GL253522  40.073  22.114   6.155
 9724POPC   C1A53523  40.041  22.210   6.455
 9724POPC   D2A53524  39.972  22.133   6.755
 9724POPC   C3A53525  40.011  22.196   7.055
 9724POPC   C4A53526  40.057  22.180   7.355
 9724POPC   C1B53527  40.229  22.093   6.455
 9724POPC   C2B53528  40.248  22.003   6.755
 9724POPC   C3B53529  40.235  22.020   7.055
 9724POPC   C4B53530  40.252  22.008   7.355
 9725POPC   NC353531   1.978   2.780   5.555
 9725POPC   PO453532   2.029   2.790   5.855
 9725POPC   GL153533   1.977   2.757   6.155
 9725POPC   GL253534   2.134   2.728   6.155
 9725POPC   C1A53535   2.034   2.780   6.455
 9725POPC   D2A53536   1.977   2.785   6.755
 9725POPC   C3A53537   1.977   2.745   7.055
 9725POPC   C4A53538   1.983   2.725   7.355
 9725POPC   C1B53539   2.221   2.668   6.455
 9725POPC   C2B53540   2.203   2.691   6.755
 9725POPC   C3B53541   2.265   2.647   7.055
 9725POPC   C4B53542   2.197   2.674   7.355
 9726POPC   NC353543  44.641   5.915   5.555
 9726POPC   PO453544  44.625   5.904   5.855
 9726POPC   GL153545  44.669   5.892   6.155
 9726POPC   GL253546  44.492   5.843   6.155
 9726POPC   C1A53547  44.688   5.840   6.455
 9726POPC   D2A53548  44.687   5.887   6.755
 9726POPC   C3A53549  44.704   5.896   7.055
 9726POPC   C4A53550  44.624   5.839   7.355
 9726POPC   C1B53551  44.433   5.831   6.455
 9726POPC   C2B53552  44.420   5.829   6.755
 9726POPC   C3B53553  44.443   5.911   7.055
 9726POPC   C4B53554  44.448   5.888   7.355
 9727POPC   NC353555   7.431  33.798   5.555
 9727POPC   PO453556   7.449  33.781   5.855
 9727POPC   GL153557   7.452  33.756   6.155
 9727POPC   GL253558   7.364  33.724   6.155
 9727POPC   C1A53559   7.468  33.768   6.455
 9727POPC   D2A53560   7.389  33.824   6.755
 9727POPC   C3A53561   7.462  33.777   7.055
 9727POPC   C4A53562   7.403  33.796   7.355
 9727POPC   C1B53563   7.262  33.599   6.455
 9727POPC   C2B53564   7.289  33.604   6.755
 9727POPC   C3B53565   7.238  33.657   7.055
 9727POPC   C4B53566   7.225  33.595   7.355
 9728POPC   NC353567  23.727  36.124   5.555
 9728POPC   PO453568  23.712  36.171   5.855
 9728POPC   GL153569  23.749  36.149   6.155
 9728POPC   GL253570  23.849  36.091   6.155
 9728POPC   C1A53571  23.669  36.101   6.455
 9728POPC   D2A53572  23.691  36.097   6.755
 9728POPC   C3A53573  23.683  36.170   7.055
 9728POPC   C4A53574  23.722  36.100   7.355
 9728POPC   C1B53575  23.960  36.023   6.455
 9728POPC   C2B53576  23.974  35.985   6.755
 9728POPC   C3B53577  23.974  36.054   7.055
 9728POPC   C4B53578  23.901  35.987   7.355
 9729POPC   NC353579   2.783   1.252   5.555
 9729POPC   PO453580   2.744   1.230   5.855
 9729POPC   GL153581   2.766   1.204   6.155
 9729POPC   GL253582   2.754   1.135   6.155
 9729POPC   C1A53583   2.810   1.164   6.455
 9729POPC   D2A53584   2.781   1.246   6.755
 9729POPC   C3A53585   2.814   1.182   7.055
 9729POPC   C4A53586   2.755   1.201   7.355
 9729POPC   C1B53587   2.685   0.978   6.455
 9729POPC   C2B53588   2.696   0.963   6.755
 9729POPC   C3B53589   2.688   0.938   7.055
 9729POPC   C4B53590   2.681   0.999   7.355
 9730POPC   NC353591  42.375  32.271   5.555
 9730POPC   PO453592  42.344  32.239   5.855
 9730POPC   GL153593  42.300  32.282   6.155
 9730POPC   GL253594  42.403  32.251   6.155
 9730POPC   C1A53595  42.334  32.209   6.455
 9730POPC   D2A53596  42.370  32.265   6.755
 9730POPC   C3A53597  42.375  32.248   7.055
 9730POPC   C4A53598  42.331  32.229   7.355
 9730POPC   C1B53599  42.599  32.330   6.455
 9730POPC   C2B53600  42.599  32.358   6.755
 9730POPC   C3B53601  42.603  32.285   7.055
 9730POPC   C4B53602  42.567  32.313   7.355
 9731POPC   NC353603  16.704  34.570   5.555
 9731POPC   PO453604  16.729  34.554   5.855
 9731POPC   GL153605  16.701  34.572   6.155
 9731POPC   GL253606  16.595  34.457   6.155
 9731POPC   C1A53607  16.687  34.552   6.455
 9731POPC   D2A53608  16.773  34.597   6.755
 9731POPC   C3A53609  16.778  34.598   7.055
 9731POPC   C4A53610  16.761  34.606   7.355
 9731POPC   C1B53611  16.528  34.386   6.455
 9731POPC   C2B53612  16.541  34.405   6.755
 9731POPC   C3B53613  16.553  34.409   7.055
 9731POPC   C4B53614  16.503  34.398   7.355
 9732POPC   NC353615  10.489  28.343   5.555
 9732POPC   PO453616  10.506  28.358   5.855
 9732POPC   GL153617  10.493  28.358   6.155
 9732POPC   GL253618  10.405  28.486   6.155
 9732POPC   C1A53619  10.553  28.344   6.455
 9732POPC   D2A53620  10.478  28.361   6.755
 9732POPC   C3A53621  10.542  28.400   7.055
 9732POPC   C4A53622  10.561  28.335   7.355
 9732POPC   C1B53623  10.283  28.490   6.455
 9732POPC   C2B53624  10.359  28.478   6.755
 9732POPC   C3B53625  10.295  28.459   7.055
 9732POPC   C4B53626  10.352  28.540   7.355
 9733POPC   NC353627  22.126  25.269   5.555
 9733POPC   PO453628  22.155  25.302   5.855
 9733POPC   GL153629  22.118  25.239   6.155
 9733POPC   GL253630  22.265  25.300   6.155
 9733POPC   C1A53631  22.207  25.239   6.455
 9733POPC   D2A53632  22.182  25.294   6.755
 9733POPC   C3A53633  22.141  25.289   7.055
 9733POPC   C4A53634  22.163  25.239   7.355
 9733POPC   C1B53635  22.395  25.382   6.455
 9733POPC   C2B53636  22.333  25.378   6.755
 9733POPC   C3B53637  22.399  25.425   7.055
 9733POPC   C4B53638  22.309  25.375   7.355
 9734POPC   NC353639  14.378  20.640   5.555
 9734POPC   PO453640  14.379  20.628   5.855
 9734POPC   GL153641  14.444  20.658   6.155
 9734POPC   GL253642  14.479  20.564   6.155
 9734POPC   C1A53643  14.390  20.564   6.455
 9734POPC   D2A53644  14.425  20.649   6.755
 9734POPC   C3A53645  14.420  20.634   7.055
 9734POPC   C4A53646  14.382  20.659   7.355
 9734POPC   C1B53647  14.657  20.529   6.455
 9734POPC   C2B53648  14.614  20.562   6.755
 9734POPC   C3B53649  14.620  20.587   7.055
 9734POPC   C4B53650  14.643  20.536   7.355
 9735POPC   NC353651   8.962   1.990   5.555
 9735POPC   PO453652   8.969   1.950   5.855
 9735POPC   GL153653   8.978   2.013   6.155
 9735POPC   GL253654   9.015   2.131   6.155
 9735POPC   C1A53655   8.997   2.003   6.455
 9735POPC   D2A53656   8.929   1.955   6.755
 9735POPC   C3A53657   9.005   1.990   7.055
 9735POPC   C4A53658   8.994   1.996   7.355
 9735POPC   C1B53659   9.051   2.224   6.455
 9735POPC   C2B53660   9.033   2.278   6.755
 9735POPC   C3B53661   8.995   2.193   7.055
 9735POPC   C4B53662   9.004   2.250   7.355
 9736POPC   NC353663  19.785   2.716   5.555
 9736POPC   PO453664  19.832   2.766   5.855
 9736POPC   GL153665  19.836   2.739   6.155
 9736POPC   GL253666  19.880   2.691   6.155
 9736POPC   C1A53667  19.845   2.732   6.455
 9736POPC   D2A53668  19.857   2.764   6.755
 9736POPC   C3A53669  19.867   2.785   7.055
 9736POPC   C4A53670  19.861   2.814   7.355
 9736POPC   C1B53671  19.932   2.512   6.455
 9736POPC   C2B53672  19.929   2.539   6.755
 9736POPC   C3B53673  19.984   2.608   7.055
 9736POPC   C4B53674  20.015   2.591   7.355
 9737POPC   NC353675   1.206  27.604   5.555
 9737POPC   PO453676   1.223  27.630   5.855
 9737POPC   GL153677   1.257  27.578   6.155
 9737POPC   GL253678   1.148  27.677   6.155
 9737POPC   C1A53679   1.251  27.554   6.455
 9737POPC   D2A53680   1.216  27.591   6.755
 9737POPC   C3A53681   1.248  27.600   7.055
 9737POPC   C4A53682   1.220  27.569   7.355
 9737POPC   C1B53683   1.057  27.751   6.455
 9737POPC   C2B53684   0.993  27.818   6.755
 9737POPC   C3B53685   0.995  27.734   7.055
 9737POPC   C4B53686   1.061  27.748   7.355
 9738POPC   NC353687  26.033  36.089   5.555
 9738POPC   PO453688  26.013  36.154   5.855
 9738POPC   GL153689  26.071  36.120   6.155
 9738POPC   GL253690  25.940  36.229   6.155
 9738POPC   C1A53691  26.046  36.163   6.455
 9738POPC   D2A53692  26.076  36.165   6.755
 9738POPC   C3A53693  26.059  36.137   7.055
 9738POPC   C4A53694  26.003  36.121   7.355
 9738POPC   C1B53695  25.934  36.347   6.455
 9738POPC   C2B53696  25.943  36.386   6.755
 9738POPC   C3B53697  25.904  36.321   7.055
 9738POPC   C4B53698  25.934  36.306   7.355
 9739POPC   NC353699   9.768  10.516   5.555
 9739POPC   PO453700   9.737  10.504   5.855
 9739POPC   GL153701   9.781  10.545   6.155
 9739POPC   GL253702   9.621  10.528   6.155
 9739POPC   C1A53703   9.745  10.489   6.455
 9739POPC   D2A53704   9.758  10.547   6.755
 9739POPC   C3A53705   9.771  10.512   7.055
 9739POPC   C4A53706   9.753  10.487   7.355
 9739POPC   C1B53707   9.498  10.513   6.455
 9739POPC   C2B53708   9.467  10.467   6.755
 9739POPC   C3B53709   9.459  10.543   7.055
 9739POPC   C4B53710   9.547  10.562   7.355
 9740POPC   NC353711  39.232  39.198   5.555
 9740POPC   PO453712  39.257  39.222   5.855
 9740POPC   GL153713  39.252  39.237   6.155
 9740POPC   GL253714  39.284  39.283   6.155
 9740POPC   C1A53715  39.253  39.275   6.455
 9740POPC   D2A53716  39.249  39.183   6.755
 9740POPC   C3A53717  39.246  39.250   7.055
 9740POPC   C4A53718  39.257  39.252   7.355
 9740POPC   C1B53719  39.434  39.353   6.455
 9740POPC   C2B53720  39.412  39.416   6.755
 9740POPC   C3B53721  39.428  39.397   7.055
 9740POPC   C4B53722  39.448  39.433   7.355
 9741POPC   NC353723  28.416  20.614   5.555
 9741POPC   PO453724  28.357  20.603   5.855
 9741POPC   GL153725  28.343  20.591   6.155
 9741POPC   GL253726  28.303  20.771   6.155
 9741POPC   C1A53727  28.393  20.657   6.455
 9741POPC   D2A53728  28.399  20.640   6.755
 9741POPC   C3A53729  28.367  20.626   7.055
 9741POPC   C4A53730  28.412  20.594   7.355
 9741POPC   C1B53731  28.343  20.842   6.455
 9741POPC   C2B53732  28.276  20.814   6.755
 9741POPC   C3B53733  28.351  20.832   7.055
 9741POPC   C4B53734  28.342  20.817   7.355
 9742POPC   NC353735  33.021  31.475   5.555
 9742POPC   PO453736  33.058  31.512   5.855
 9742POPC   GL153737  33.045  31.458   6.155
 9742POPC   GL253738  32.994  31.371   6.155
 9742POPC   C1A53739  32.994  31.473   6.455
 9742POPC   D2A53740  33.040  31.508   6.755
 9742POPC   C3A53741  33.034  31.497   7.055
 9742POPC   C4A53742  33.053  31.443   7.355
 9742POPC   C1B53743  32.890  31.221   6.455
 9742POPC   C2B53744  32.928  31.218   6.755
 9742POPC   C3B53745  32.935  31.282   7.055
 9742POPC   C4B53746  32.874  31.235   7.355
 9743POPC   NC353747  17.504  24.521   5.555
 9743POPC   PO453748  17.537  24.516   5.855
 9743POPC   GL153749  17.517  24.449   6.155
 9743POPC   GL253750  17.467  24.574   6.155
 9743POPC   C1A53751  17.514  24.441   6.455
 9743POPC   D2A53752  17.485  24.500   6.755
 9743POPC   C3A53753  17.483  24.493   7.055
 9743POPC   C4A53754  17.474  24.518   7.355
 9743POPC   C1B53755  17.387  24.740   6.455
 9743POPC   C2B53756  17.420  24.687   6.755
 9743POPC   C3B53757  17.387  24.714   7.055
 9743POPC   C4B53758  17.390  24.688   7.355
 9744POPC   NC353759   6.604  44.681   5.555
 9744POPC   PO453760   6.658  44.643   5.855
 9744POPC   GL153761   6.688  44.628   6.155
 9744POPC   GL253762   6.809  44.734   6.155
 9744POPC   C1A53763   6.677  44.702   6.455
 9744POPC   D2A53764   6.654  44.612   6.755
 9744POPC   C3A53765   6.612  44.660   7.055
 9744POPC   C4A53766   6.657  44.632   7.355
 9744POPC   C1B53767   6.894  44.707   6.455
 9744POPC   C2B53768   6.891  44.709   6.755
 9744POPC   C3B53769   6.857  44.690   7.055
 9744POPC   C4B53770   6.866  44.713   7.355
 9745POPC   NC353771   3.574  40.785   5.555
 9745POPC   PO453772   3.561  40.736   5.855
 9745POPC   GL153773   3.513  40.749   6.155
 9745POPC   GL253774   3.492  40.645   6.155
 9745POPC   C1A53775   3.546  40.786   6.455
 9745POPC   D2A53776   3.529  40.777   6.755
 9745POPC   C3A53777   3.536  40.743   7.055
 9745POPC   C4A53778   3.554  40.757   7.355
 9745POPC   C1B53779   3.453  40.565   6.455
 9745POPC   C2B53780   3.430  40.600   6.755
 9745POPC   C3B53781   3.479  40.532   7.055
 9745POPC   C4B53782   3.387  40.517   7.355
 9746POPC   NC353783   6.624  18.315   5.555
 9746POPC   PO453784   6.651  18.302   5.855
 9746POPC   GL153785   6.617  18.261   6.155
 9746POPC   GL253786   6.749  18.175   6.155
 9746POPC   C1A53787   6.618  18.273   6.455
 9746POPC   D2A53788   6.651  18.328   6.755
 9746POPC   C3A53789   6.612  18.325   7.055
 9746POPC   C4A53790   6.658  18.287   7.355
 9746POPC   C1B53791   6.798  18.124   6.455
 9746POPC   C2B53792   6.838  18.083   6.755
 9746POPC   C3B53793   6.854  18.122   7.055
 9746POPC   C4B53794   6.840  18.088   7.355
 9747POPC   NC353795  12.105   2.036   5.555
 9747POPC   PO453796  12.084   2.038   5.855
 9747POPC   GL153797  12.069   1.946   6.155
 9747POPC   GL253798  11.986   2.060   6.155
 9747POPC   C1A53799  12.113   1.995   6.455
 9747POPC   D2A53800  12.036   1.980   6.755
 9747POPC   C3A53801  12.033   2.033   7.055
 9747POPC   C4A53802  12.055   1.947   7.355
 9747POPC   C1B53803  11.866   2.177   6.455
 9747POPC   C2B53804  11.931   2.118   6.755
 9747POPC   C3B53805  11.861   2.186   7.055
 9747POPC   C4B53806  11.842   2.193   7.355
 9748POPC   NC353807   9.768  12.858   5.555
 9748POPC   PO453808   9.752  12.850   5.855
 9748POPC   GL153809   9.702  12.833   6.155
 9748POPC   GL253810   9.769  12.689   6.155
 9748POPC   C1A53811   9.745  12.895   6.455
 9748POPC   D2A53812   9.739  12.896   6.755
 9748POPC   C3A53813   9.738  12.816   7.055
 9748POPC   C4A53814   9.797  12.866   7.355
 9748POPC   C1B53815   9.742  12.556   6.455
 9748POPC   C2B53816   9.727  12.644   6.755
 9748POPC   C3B53817   9.718  12.564   7.055
 9748POPC   C4B53818   9.714  12.555   7.355
 9749POPC   NC353819   2.813  19.811   5.555
 9749POPC   PO453820   2.743  19.836   5.855
 9749POPC   GL153821   2.752  19.879   6.155
 9749POPC   GL253822   2.777  19.711   6.155
 9749POPC   C1A53823   2.742  19.831   6.455
 9749POPC   D2A53824   2.767  19.790   6.755
 9749POPC   C3A53825   2.786  19.843   7.055
 9749POPC   C4A53826   2.739  19.789   7.355
 9749POPC   C1B53827   2.736  19.615   6.455
 9749POPC   C2B53828   2.731  19.552   6.755
 9749POPC   C3B53829   2.774  19.552   7.055
 9749POPC   C4B53830   2.813  19.581   7.355
 9750POPC   NC353831  28.344   5.052   5.555
 9750POPC   PO453832  28.407   5.072   5.855
 9750POPC   GL153833  28.345   5.118   6.155
 9750POPC   GL253834  28.497   5.119   6.155
 9750POPC   C1A53835  28.352   5.047   6.455
 9750POPC   D2A53836  28.350   5.097   6.755
 9750POPC   C3A53837  28.414   5.106   7.055
 9750POPC   C4A53838  28.404   5.121   7.355
 9750POPC   C1B53839  28.628   5.216   6.455
 9750POPC   C2B53840  28.597   5.152   6.755
 9750POPC   C3B53841  28.593   5.238   7.055
 9750POPC   C4B53842  28.619   5.166   7.355
 9751POPC   NC353843  12.099  34.559   5.555
 9751POPC   PO453844  12.058  34.538   5.855
 9751POPC   GL153845  12.077  34.588   6.155
 9751POPC   GL253846  11.988  34.554   6.155
 9751POPC   C1A53847  12.073  34.609   6.455
 9751POPC   D2A53848  12.055  34.595   6.755
 9751POPC   C3A53849  12.041  34.568   7.055
 9751POPC   C4A53850  12.048  34.608   7.355
 9751POPC   C1B53851  11.826  34.651   6.455
 9751POPC   C2B53852  11.813  34.598   6.755
 9751POPC   C3B53853  11.822  34.593   7.055
 9751POPC   C4B53854  11.821  34.629   7.355
 9752POPC   NC353855   2.036  10.543   5.555
 9752POPC   PO453856   1.983  10.564   5.855
 9752POPC   GL153857   2.030  10.545   6.155
 9752POPC   GL253858   1.989  10.418   6.155
 9752POPC   C1A53859   2.037  10.568   6.455
 9752POPC   D2A53860   2.032  10.540   6.755
 9752POPC   C3A53861   2.026  10.500   7.055
 9752POPC   C4A53862   2.032  10.547   7.355
 9752POPC   C1B53863   1.919  10.333   6.455
 9752POPC   C2B53864   1.884  10.237   6.755
 9752POPC   C3B53865   1.960  10.305   7.055
 9752POPC   C4B53866   1.890  10.257   7.355
 9753POPC   NC353867  11.293  15.928   5.555
 9753POPC   PO453868  11.302  15.963   5.855
 9753POPC   GL153869  11.335  15.957   6.155
 9753POPC   GL253870  11.358  16.119   6.155
 9753POPC   C1A53871  11.306  15.979   6.455
 9753POPC   D2A53872  11.349  15.994   6.755
 9753POPC   C3A53873  11.332  15.955   7.055
 9753POPC   C4A53874  11.321  15.987   7.355
 9753POPC   C1B53875  11.411  16.215   6.455
 9753POPC   C2B53876  11.366  16.228   6.755
 9753POPC   C3B53877  11.407  16.189   7.055
 9753POPC   C4B53878  11.416  16.143   7.355
 9754POPC   NC353879  35.367  25.231   5.555
 9754POPC   PO453880  35.336  25.233   5.855
 9754POPC   GL153881  35.345  25.234   6.155
 9754POPC   GL253882  35.397  25.143   6.155
 9754POPC   C1A53883  35.394  25.233   6.455
 9754POPC   D2A53884  35.328  25.287   6.755
 9754POPC   C3A53885  35.346  25.233   7.055
 9754POPC   C4A53886  35.374  25.243   7.355
 9754POPC   C1B53887  35.328  25.042   6.455
 9754POPC   C2B53888  35.333  24.976   6.755
 9754POPC   C3B53889  35.371  25.055   7.055
 9754POPC   C4B53890  35.330  24.979   7.355
 9755POPC   NC353891  44.687  31.502   5.555
 9755POPC   PO453892  44.686  31.471   5.855
 9755POPC   GL153893  44.623  31.450   6.155
 9755POPC   GL253894  44.815  31.457   6.155
 9755POPC   C1A53895  44.652  31.442   6.455
 9755POPC   D2A53896  44.706  31.484   6.755
 9755POPC   C3A53897  44.680  31.488   7.055
 9755POPC   C4A53898  44.705  31.486   7.355
 9755POPC   C1B53899  44.924  31.526   6.455
 9755POPC   C2B53900  44.900  31.561   6.755
 9755POPC   C3B53901  44.919  31.522   7.055
 9755POPC   C4B53902  44.903  31.553   7.355
 9756POPC   NC353903  42.384   2.720   5.555
 9756POPC   PO453904  42.354   2.720   5.855
 9756POPC   GL153905  42.304   2.793   6.155
 9756POPC   GL253906  42.212   2.852   6.155
 9756POPC   C1A53907  42.313   2.796   6.455
 9756POPC   D2A53908  42.348   2.759   6.755
 9756POPC   C3A53909  42.294   2.811   7.055
 9756POPC   C4A53910  42.318   2.726   7.355
 9756POPC   C1B53911  42.057   2.828   6.455
 9756POPC   C2B53912  42.076   2.873   6.755
 9756POPC   C3B53913  42.086   2.800   7.055
 9756POPC   C4B53914  42.127   2.867   7.355
 9757POPC   NC353915  22.210  42.305   5.555
 9757POPC   PO453916  22.149  42.366   5.855
 9757POPC   GL153917  22.136  42.309   6.155
 9757POPC   GL253918  22.175  42.252   6.155
 9757POPC   C1A53919  22.193  42.349   6.455
 9757POPC   D2A53920  22.175  42.296   6.755
 9757POPC   C3A53921  22.119  42.312   7.055
 9757POPC   C4A53922  22.190  42.379   7.355
 9757POPC   C1B53923  22.177  42.076   6.455
 9757POPC   C2B53924  22.228  42.136   6.755
 9757POPC   C3B53925  22.253  42.049   7.055
 9757POPC   C4B53926  22.224  42.040   7.355
 9758POPC   NC353927  14.435  31.468   5.555
 9758POPC   PO453928  14.384  31.470   5.855
 9758POPC   GL153929  14.411  31.482   6.155
 9758POPC   GL253930  14.501  31.490   6.155
 9758POPC   C1A53931  14.416  31.433   6.455
 9758POPC   D2A53932  14.405  31.519   6.755
 9758POPC   C3A53933  14.377  31.495   7.055
 9758POPC   C4A53934  14.429  31.466   7.355
 9758POPC   C1B53935  14.665  31.533   6.455
 9758POPC   C2B53936  14.632  31.580   6.755
 9758POPC   C3B53937  14.678  31.569   7.055
 9758POPC   C4B53938  14.694  31.517   7.355
 9759POPC   NC353939   1.213  41.509   5.555
 9759POPC   PO453940   1.170  41.575   5.855
 9759POPC   GL153941   1.239  41.558   6.155
 9759POPC   GL253942   1.184  41.625   6.155
 9759POPC   C1A53943   1.247  41.567   6.455
 9759POPC   D2A53944   1.170  41.533   6.755
 9759POPC   C3A53945   1.257  41.548   7.055
 9759POPC   C4A53946   1.246  41.600   7.355
 9759POPC   C1B53947   1.088  41.809   6.455
 9759POPC   C2B53948   1.096  41.820   6.755
 9759POPC   C3B53949   1.145  41.777   7.055
 9759POPC   C4B53950   1.116  41.825   7.355
 9760POPC   NC353951  18.309   8.937   5.555
 9760POPC   PO453952  18.321   8.930   5.855
 9760POPC   GL153953  18.234   8.977   6.155
 9760POPC   GL253954  18.137   8.917   6.155
 9760POPC   C1A53955  18.308   8.986   6.455
 9760POPC   D2A53956  18.319   8.977   6.755
 9760POPC   C3A53957  18.254   8.925   7.055
 9760POPC   C4A53958  18.284   8.968   7.355
 9760POPC   C1B53959  18.107   8.804   6.455
 9760POPC   C2B53960  18.031   8.860   6.755
 9760POPC   C3B53961  18.068   8.825   7.055
 9760POPC   C4B53962  18.093   8.853   7.355
 9761POPC   NC353963  12.893  17.535   5.555
 9761POPC   PO453964  12.851  17.512   5.855
 9761POPC   GL153965  12.898  17.485   6.155
 9761POPC   GL253966  12.826  17.426   6.155
 9761POPC   C1A53967  12.878  17.460   6.455
 9761POPC   D2A53968  12.831  17.462   6.755
 9761POPC   C3A53969  12.891  17.526   7.055
 9761POPC   C4A53970  12.877  17.495   7.355
 9761POPC   C1B53971  12.719  17.272   6.455
 9761POPC   C2B53972  12.684  17.287   6.755
 9761POPC   C3B53973  12.665  17.349   7.055
 9761POPC   C4B53974  12.658  17.280   7.355
 9762POPC   NC353975  23.719  26.773   5.555
 9762POPC   PO453976  23.750  26.773   5.855
 9762POPC   GL153977  23.697  26.818   6.155
 9762POPC   GL253978  23.748  26.931   6.155
 9762POPC   C1A53979  23.696  26.821   6.455
 9762POPC   D2A53980  23.750  26.795   6.755
 9762POPC   C3A53981  23.680  26.789   7.055
 9762POPC   C4A53982  23.693  26.794   7.355
 9762POPC   C1B53983  23.792  27.079   6.455
 9762POPC   C2B53984  23.785  27.097   6.755
 9762POPC   C3B53985  23.713  27.026   7.055
 9762POPC   C4B53986  23.708  27.106   7.355
 9763POPC   NC353987   8.185  12.096   5.555
 9763POPC   PO453988   8.170  12.058   5.855
 9763POPC   GL153989   8.182  12.119   6.155
 9763POPC   GL253990   8.126  11.990   6.155
 9763POPC   C1A53991   8.196  12.112   6.455
 9763POPC   D2A53992   8.196  12.124   6.755
 9763POPC   C3A53993   8.221  12.096   7.055
 9763POPC   C4A53994   8.244  12.072   7.355
 9763POPC   C1B53995   7.943  11.888   6.455
 9763POPC   C2B53996   7.948  11.890   6.755
 9763POPC   C3B53997   7.986  11.973   7.055
 9763POPC   C4B53998   8.009  11.945   7.355
 9764POPC   NC353999  44.681  23.680   5.555
 9764POPC   PO454000  44.624  23.675   5.855
 9764POPC   GL154001  44.658  23.672   6.155
 9764POPC   GL254002  44.641  23.638   6.155
 9764POPC   C1A54003  44.694  23.719   6.455
 9764POPC   D2A54004  44.645  23.760   6.755
 9764POPC   C3A54005  44.621  23.686   7.055
 9764POPC   C4A54006  44.701  23.703   7.355
 9764POPC   C1B54007  44.571  23.529   6.455
 9764POPC   C2B54008  44.580  23.534   6.755
 9764POPC   C3B54009  44.487  23.497   7.055
 9764POPC   C4B54010  44.488  23.450   7.355
 9765POPC   NC354011  27.587  42.295   5.555
 9765POPC   PO454012  27.596  42.349   5.855
 9765POPC   GL154013  27.624  42.320   6.155
 9765POPC   GL254014  27.510  42.393   6.155
 9765POPC   C1A54015  27.636  42.330   6.455
 9765POPC   D2A54016  27.597  42.354   6.755
 9765POPC   C3A54017  27.612  42.293   7.055
 9765POPC   C4A54018  27.643  42.296   7.355
 9765POPC   C1B54019  27.362  42.474   6.455
 9765POPC   C2B54020  27.408  42.481   6.755
 9765POPC   C3B54021  27.386  42.482   7.055
 9765POPC   C4B54022  27.413  42.420   7.355
 9766POPC   NC354023   3.512  37.690   5.555
 9766POPC   PO454024   3.560  37.665   5.855
 9766POPC   GL154025   3.516  37.695   6.155
 9766POPC   GL254026   3.456  37.670   6.155
 9766POPC   C1A54027   3.505  37.688   6.455
 9766POPC   D2A54028   3.555  37.721   6.755
 9766POPC   C3A54029   3.562  37.649   7.055
 9766POPC   C4A54030   3.578  37.690   7.355
 9766POPC   C1B54031   3.298  37.593   6.455
 9766POPC   C2B54032   3.308  37.596   6.755
 9766POPC   C3B54033   3.340  37.633   7.055
 9766POPC   C4B54034   3.257  37.615   7.355
 9767POPC   NC354035  43.884  23.668   5.555
 9767POPC   PO454036  43.903  23.689   5.855
 9767POPC   GL154037  43.912  23.736   6.155
 9767POPC   GL254038  43.803  23.761   6.155
 9767POPC   C1A54039  43.885  23.696   6.455
 9767POPC   D2A54040  43.839  23.697   6.755
 9767POPC   C3A54041  43.849  23.666   7.055
 9767POPC   C4A54042  43.881  23.685   7.355
 9767POPC   C1B54043  43.671  23.802   6.455
 9767POPC   C2B54044  43.672  23.839   6.755
 9767POPC   C3B54045  43.699  23.797   7.055
 9767POPC   C4B54046  43.631  23.766   7.355
 9768POPC   NC354047  38.500   2.735   5.555
 9768POPC   PO454048  38.498   2.759   5.855
 9768POPC   GL154049  38.500   2.784   6.155
 9768POPC   GL254050  38.455   2.671   6.155
 9768POPC   C1A54051  38.419   2.729   6.455
 9768POPC   D2A54052  38.468   2.786   6.755
 9768POPC   C3A54053  38.444   2.746   7.055
 9768POPC   C4A54054  38.479   2.779   7.355
 9768POPC   C1B54055  38.366   2.573   6.455
 9768POPC   C2B54056  38.331   2.555   6.755
 9768POPC   C3B54057  38.406   2.506   7.055
 9768POPC   C4B54058  38.317   2.564   7.355
 9769POPC   NC354059  34.614  25.287   5.555
 9769POPC   PO454060  34.546  25.233   5.855
 9769POPC   GL154061  34.587  25.247   6.155
 9769POPC   GL254062  34.538  25.157   6.155
 9769POPC   C1A54063  34.549  25.261   6.455
 9769POPC   D2A54064  34.610  25.304   6.755
 9769POPC   C3A54065  34.613  25.220   7.055
 9769POPC   C4A54066  34.577  25.272   7.355
 9769POPC   C1B54067  34.526  24.985   6.455
 9769POPC   C2B54068  34.527  25.065   6.755
 9769POPC   C3B54069  34.522  25.018   7.055
 9769POPC   C4B54070  34.513  24.996   7.355
 9770POPC   NC354071  23.708  19.094   5.555
 9770POPC   PO454072  23.739  19.082   5.855
 9770POPC   GL154073  23.753  19.022   6.155
 9770POPC   GL254074  23.643  19.111   6.155
 9770POPC   C1A54075  23.714  19.084   6.455
 9770POPC   D2A54076  23.667  19.081   6.755
 9770POPC   C3A54077  23.744  19.042   7.055
 9770POPC   C4A54078  23.760  19.024   7.355
 9770POPC   C1B54079  23.449  19.154   6.455
 9770POPC   C2B54080  23.503  19.180   6.755
 9770POPC   C3B54081  23.525  19.101   7.055
 9770POPC   C4B54082  23.527  19.141   7.355
 9771POPC   NC354083   7.372  27.574   5.555
 9771POPC   PO454084   7.433  27.559   5.855
 9771POPC   GL154085   7.378  27.598   6.155
 9771POPC   GL254086   7.414  27.706   6.155
 9771POPC   C1A54087   7.436  27.632   6.455
 9771POPC   D2A54088   7.430  27.563   6.755
 9771POPC   C3A54089   7.452  27.604   7.055
 9771POPC   C4A54090   7.445  27.610   7.355
 9771POPC   C1B54091   7.501  27.847   6.455
 9771POPC   C2B54092   7.521  27.806   6.755
 9771POPC   C3B54093   7.485  27.826   7.055
 9771POPC   C4B54094   7.516  27.786   7.355
 9772POPC   NC354095  15.980  34.573   5.555
 9772POPC   PO454096  15.958  34.574   5.855
 9772POPC   GL154097  15.912  34.540   6.155
 9772POPC   GL254098  16.002  34.686   6.155
 9772POPC   C1A54099  15.919  34.584   6.455
 9772POPC   D2A54100  15.932  34.565   6.755
 9772POPC   C3A54101  15.925  34.534   7.055
 9772POPC   C4A54102  15.953  34.546   7.355
 9772POPC   C1B54103  16.077  34.826   6.455
 9772POPC   C2B54104  16.094  34.783   6.755
 9772POPC   C3B54105  16.075  34.831   7.055
 9772POPC   C4B54106  16.072  34.794   7.355
 9773POPC   NC354107  22.903  31.521   5.555
 9773POPC   PO454108  22.893  31.485   5.855
 9773POPC   GL154109  22.889  31.502   6.155
 9773POPC   GL254110  23.069  31.496   6.155
 9773POPC   C1A54111  22.973  31.498   6.455
 9773POPC   D2A54112  22.918  31.520   6.755
 9773POPC   C3A54113  22.964  31.514   7.055
 9773POPC   C4A54114  22.931  31.486   7.355
 9773POPC   C1B54115  23.169  31.449   6.455
 9773POPC   C2B54116  23.203  31.483   6.755
 9773POPC   C3B54117  23.205  31.528   7.055
 9773POPC   C4B54118  23.183  31.478   7.355
 9774POPC   NC354119  28.417   7.429   5.555
 9774POPC   PO454120  28.403   7.423   5.855
 9774POPC   GL154121  28.363   7.421   6.155
 9774POPC   GL254122  28.265   7.380   6.155
 9774POPC   C1A54123  28.377   7.460   6.455
 9774POPC   D2A54124  28.392   7.437   6.755
 9774POPC   C3A54125  28.401   7.468   7.055
 9774POPC   C4A54126  28.389   7.390   7.355
 9774POPC   C1B54127  28.105   7.396   6.455
 9774POPC   C2B54128  28.169   7.409   6.755
 9774POPC   C3B54129  28.166   7.390   7.055
 9774POPC   C4B54130  28.093   7.418   7.355
 9775POPC   NC354131  23.688  21.412   5.555
 9775POPC   PO454132  23.725  21.372   5.855
 9775POPC   GL154133  23.686  21.337   6.155
 9775POPC   GL254134  23.631  21.507   6.155
 9775POPC   C1A54135  23.695  21.400   6.455
 9775POPC   D2A54136  23.670  21.350   6.755
 9775POPC   C3A54137  23.707  21.430   7.055
 9775POPC   C4A54138  23.719  21.389   7.355
 9775POPC   C1B54139  23.585  21.550   6.455
 9775POPC   C2B54140  23.509  21.611   6.755
 9775POPC   C3B54141  23.558  21.529   7.055
 9775POPC   C4B54142  23.574  21.562   7.355
 9776POPC   NC354143   3.535  27.580   5.555
 9776POPC   PO454144   3.492  27.544   5.855
 9776POPC   GL154145   3.543  27.634   6.155
 9776POPC   GL254146   3.583  27.469   6.155
 9776POPC   C1A54147   3.502  27.575   6.455
 9776POPC   D2A54148   3.536  27.572   6.755
 9776POPC   C3A54149   3.560  27.545   7.055
 9776POPC   C4A54150   3.535  27.584   7.355
 9776POPC   C1B54151   3.655  27.326   6.455
 9776POPC   C2B54152   3.686  27.374   6.755
 9776POPC   C3B54153   3.641  27.416   7.055
 9776POPC   C4B54154   3.680  27.393   7.355
 9777POPC   NC354155   4.337  36.871   5.555
 9777POPC   PO454156   4.321  36.891   5.855
 9777POPC   GL154157   4.351  36.940   6.155
 9777POPC   GL254158   4.265  36.811   6.155
 9777POPC   C1A54159   4.310  36.926   6.455
 9777POPC   D2A54160   4.298  36.947   6.755
 9777POPC   C3A54161   4.329  36.916   7.055
 9777POPC   C4A54162   4.285  36.902   7.355
 9777POPC   C1B54163   4.075  36.774   6.455
 9777POPC   C2B54164   4.071  36.744   6.755
 9777POPC   C3B54165   4.116  36.792   7.055
 9777POPC   C4B54166   4.145  36.786   7.355
 9778POPC   NC354167  20.597  26.808   5.555
 9778POPC   PO454168  20.643  26.848   5.855
 9778POPC   GL154169  20.640  26.847   6.155
 9778POPC   GL254170  20.704  26.755   6.155
 9778POPC   C1A54171  20.576  26.805   6.455
 9778POPC   D2A54172  20.638  26.815   6.755
 9778POPC   C3A54173  20.648  26.815   7.055
 9778POPC   C4A54174  20.617  26.789   7.355
 9778POPC   C1B54175  20.756  26.611   6.455
 9778POPC   C2B54176  20.695  26.642   6.755
 9778POPC   C3B54177  20.729  26.626   7.055
 9778POPC   C4B54178  20.738  26.626   7.355
 9779POPC   NC354179  40.039  30.675   5.555
 9779POPC   PO454180  40.012  30.661   5.855
 9779POPC   GL154181  40.038  30.699   6.155
 9779POPC   GL254182  39.889  30.598   6.155
 9779POPC   C1A54183  40.040  30.672   6.455
 9779POPC   D2A54184  39.959  30.742   6.755
 9779POPC   C3A54185  40.056  30.699   7.055
 9779POPC   C4A54186  39.985  30.671   7.355
 9779POPC   C1B54187  39.872  30.554   6.455
 9779POPC   C2B54188  39.860  30.538   6.755
 9779POPC   C3B54189  39.868  30.565   7.055
 9779POPC   C4B54190  39.850  30.527   7.355
 9780POPC   NC354191  29.111  32.222   5.555
 9780POPC   PO454192  29.181  32.201   5.855
 9780POPC   GL154193  29.114  32.278   6.155
 9780POPC   GL254194  29.173  32.369   6.155
 9780POPC   C1A54195  29.158  32.258   6.455
 9780POPC   D2A54196  29.142  32.273   6.755
 9780POPC   C3A54197  29.193  32.293   7.055
 9780POPC   C4A54198  29.142  32.261   7.355
 9780POPC   C1B54199  29.147  32.502   6.455
 9780POPC   C2B54200  29.171  32.514   6.755
 9780POPC   C3B54201  29.118  32.526   7.055
 9780POPC   C4B54202  29.111  32.502   7.355
 9781POPC   NC354203  16.713  43.142   5.555
 9781POPC   PO454204  16.719  43.141   5.855
 9781POPC   GL154205  16.765  43.154   6.155
 9781POPC   GL254206  16.699  43.018   6.155
 9781POPC   C1A54207  16.742  43.114   6.455
 9781POPC   D2A54208  16.736  43.110   6.755
 9781POPC   C3A54209  16.711  43.122   7.055
 9781POPC   C4A54210  16.761  43.158   7.355
 9781POPC   C1B54211  16.548  42.947   6.455
 9781POPC   C2B54212  16.580  42.905   6.755
 9781POPC   C3B54213  16.620  42.917   7.055
 9781POPC   C4B54214  16.552  42.891   7.355
 9782POPC   NC354215   7.376  16.734   5.555
 9782POPC   PO454216   7.374  16.739   5.855
 9782POPC   GL154217   7.461  16.718   6.155
 9782POPC   GL254218   7.523  16.662   6.155
 9782POPC   C1A54219   7.430  16.717   6.455
 9782POPC   D2A54220   7.391  16.713   6.755
 9782POPC   C3A54221   7.450  16.768   7.055
 9782POPC   C4A54222   7.408  16.777   7.355
 9782POPC   C1B54223   7.681  16.580   6.455
 9782POPC   C2B54224   7.606  16.617   6.755
 9782POPC   C3B54225   7.696  16.656   7.055
 9782POPC   C4B54226   7.636  16.652   7.355
 9783POPC   NC354227  14.355  15.171   5.555
 9783POPC   PO454228  14.361  15.200   5.855
 9783POPC   GL154229  14.368  15.155   6.155
 9783POPC   GL254230  14.423  15.300   6.155
 9783POPC   C1A54231  14.405  15.218   6.455
 9783POPC   D2A54232  14.442  15.212   6.755
 9783POPC   C3A54233  14.395  15.188   7.055
 9783POPC   C4A54234  14.439  15.225   7.355
 9783POPC   C1B54235  14.409  15.399   6.455
 9783POPC   C2B54236  14.458  15.460   6.755
 9783POPC   C3B54237  14.492  15.377   7.055
 9783POPC   C4B54238  14.491  15.438   7.355
 9784POPC   NC354239  23.685  24.483   5.555
 9784POPC   PO454240  23.722  24.528   5.855
 9784POPC   GL154241  23.682  24.457   6.155
 9784POPC   GL254242  23.668  24.586   6.155
 9784POPC   C1A54243  23.684  24.527   6.455
 9784POPC   D2A54244  23.748  24.499   6.755
 9784POPC   C3A54245  23.707  24.452   7.055
 9784POPC   C4A54246  23.747  24.483   7.355
 9784POPC   C1B54247  23.646  24.697   6.455
 9784POPC   C2B54248  23.715  24.751   6.755
 9784POPC   C3B54249  23.694  24.761   7.055
 9784POPC   C4B54250  23.700  24.748   7.355
 9785POPC   NC354251  28.351  26.842   5.555
 9785POPC   PO454252  28.363  26.779   5.855
 9785POPC   GL154253  28.393  26.789   6.155
 9785POPC   GL254254  28.417  26.931   6.155
 9785POPC   C1A54255  28.348  26.865   6.455
 9785POPC   D2A54256  28.372  26.825   6.755
 9785POPC   C3A54257  28.347  26.855   7.055
 9785POPC   C4A54258  28.351  26.806   7.355
 9785POPC   C1B54259  28.372  27.056   6.455
 9785POPC   C2B54260  28.355  27.042   6.755
 9785POPC   C3B54261  28.421  27.053   7.055
 9785POPC   C4B54262  28.412  27.022   7.355
 9786POPC   NC354263  36.913  14.414   5.555
 9786POPC   PO454264  36.876  14.430   5.855
 9786POPC   GL154265  36.951  14.445   6.155
 9786POPC   GL254266  36.798  14.468   6.155
 9786POPC   C1A54267  36.936  14.420   6.455
 9786POPC   D2A54268  36.937  14.429   6.755
 9786POPC   C3A54269  36.894  14.376   7.055
 9786POPC   C4A54270  36.862  14.448   7.355
 9786POPC   C1B54271  36.719  14.519   6.455
 9786POPC   C2B54272  36.680  14.581   6.755
 9786POPC   C3B54273  36.683  14.569   7.055
 9786POPC   C4B54274  36.743  14.530   7.355
 9787POPC   NC354275  36.125  26.836   5.555
 9787POPC   PO454276  36.120  26.830   5.855
 9787POPC   GL154277  36.142  26.801   6.155
 9787POPC   GL254278  36.120  26.916   6.155
 9787POPC   C1A54279  36.082  26.834   6.455
 9787POPC   D2A54280  36.134  26.836   6.755
 9787POPC   C3A54281  36.091  26.805   7.055
 9787POPC   C4A54282  36.157  26.842   7.355
 9787POPC   C1B54283  36.130  27.019   6.455
 9787POPC   C2B54284  36.167  27.018   6.755
 9787POPC   C3B54285  36.156  27.038   7.055
 9787POPC   C4B54286  36.100  27.079   7.355
 9788POPC   NC354287   5.887  10.514   5.555
 9788POPC   PO454288   5.918  10.552   5.855
 9788POPC   GL154289   5.908  10.565   6.155
 9788POPC   GL254290   5.823  10.697   6.155
 9788POPC   C1A54291   5.911  10.570   6.455
 9788POPC   D2A54292   5.885  10.515   6.755
 9788POPC   C3A54293   5.834  10.502   7.055
 9788POPC   C4A54294   5.918  10.483   7.355
 9788POPC   C1B54295   5.846  10.785   6.455
 9788POPC   C2B54296   5.898  10.768   6.755
 9788POPC   C3B54297   5.899  10.760   7.055
 9788POPC   C4B54298   5.843  10.796   7.355
 9789POPC   NC354299  39.963   1.941   5.555
 9789POPC   PO454300  40.021   1.992   5.855
 9789POPC   GL154301  40.008   1.961   6.155
 9789POPC   GL254302  40.128   1.999   6.155
 9789POPC   C1A54303  40.008   1.978   6.455
 9789POPC   D2A54304  40.006   1.990   6.755
 9789POPC   C3A54305  39.987   1.963   7.055
 9789POPC   C4A54306  40.039   2.037   7.355
 9789POPC   C1B54307  40.255   1.997   6.455
 9789POPC   C2B54308  40.302   1.964   6.755
 9789POPC   C3B54309  40.278   1.960   7.055
 9789POPC   C4B54310  40.212   1.974   7.355
 9790POPC   NC354311  34.606   0.416   5.555
 9790POPC   PO454312  34.610   0.412   5.855
 9790POPC   GL154313  34.535   0.473   6.155
 9790POPC   GL254314  34.439   0.521   6.155
 9790POPC   C1A54315  34.617   0.457   6.455
 9790POPC   D2A54316  34.611   0.461   6.755
 9790POPC   C3A54317  34.593   0.440   7.055
 9790POPC   C4A54318  34.540   0.447   7.355
 9790POPC   C1B54319  34.413   0.641   6.455
 9790POPC   C2B54320  34.428   0.561   6.755
 9790POPC   C3B54321  34.396   0.589   7.055
 9790POPC   C4B54322  34.351   0.629   7.355
 9791POPC   NC354323  21.360   8.227   5.555
 9791POPC   PO454324  21.343   8.147   5.855
 9791POPC   GL154325  21.341   8.173   6.155
 9791POPC   GL254326  21.374   8.086   6.155
 9791POPC   C1A54327  21.344   8.210   6.455
 9791POPC   D2A54328  21.356   8.206   6.755
 9791POPC   C3A54329  21.366   8.178   7.055
 9791POPC   C4A54330  21.424   8.232   7.355
 9791POPC   C1B54331  21.314   7.946   6.455
 9791POPC   C2B54332  21.334   7.992   6.755
 9791POPC   C3B54333  21.323   7.959   7.055
 9791POPC   C4B54334  21.319   7.981   7.355
 9792POPC   NC354335  39.264   8.979   5.555
 9792POPC   PO454336  39.186   8.973   5.855
 9792POPC   GL154337  39.192   9.014   6.155
 9792POPC   GL254338  39.104   8.976   6.155
 9792POPC   C1A54339  39.196   8.966   6.455
 9792POPC   D2A54340  39.197   8.974   6.755
 9792POPC   C3A54341  39.266   8.962   7.055
 9792POPC   C4A54342  39.238   8.934   7.355
 9792POPC   C1B54343  39.009   9.012   6.455
 9792POPC   C2B54344  38.967   9.067   6.755
 9792POPC   C3B54345  39.034   9.033   7.055
 9792POPC   C4B54346  39.018   9.012   7.355
 9793POPC   NC354347   0.433  37.729   5.555
 9793POPC   PO454348   0.394  37.632   5.855
 9793POPC   GL154349   0.424  37.721   6.155
 9793POPC   GL254350   0.300  37.618   6.155
 9793POPC   C1A54351   0.394  37.699   6.455
 9793POPC   D2A54352   0.470  37.650   6.755
 9793POPC   C3A54353   0.391  37.699   7.055
 9793POPC   C4A54354   0.434  37.657   7.355
 9793POPC   C1B54355   0.244  37.605   6.455
 9793POPC   C2B54356   0.231  37.550   6.755
 9793POPC   C3B54357   0.244  37.617   7.055
 9793POPC   C4B54358   0.185  37.590   7.355
 9794POPC   NC354359   8.937  37.684   5.555
 9794POPC   PO454360   8.990  37.695   5.855
 9794POPC   GL154361   9.013  37.681   6.155
 9794POPC   GL254362   8.859  37.767   6.155
 9794POPC   C1A54363   8.931  37.668   6.455
 9794POPC   D2A54364   8.944  37.680   6.755
 9794POPC   C3A54365   8.983  37.696   7.055
 9794POPC   C4A54366   8.957  37.687   7.355
 9794POPC   C1B54367   8.776  37.742   6.455
 9794POPC   C2B54368   8.756  37.817   6.755
 9794POPC   C3B54369   8.795  37.772   7.055
 9794POPC   C4B54370   8.735  37.827   7.355
 9795POPC   NC354371   7.379  36.910   5.555
 9795POPC   PO454372   7.465  36.936   5.855
 9795POPC   GL154373   7.419  36.881   6.155
 9795POPC   GL254374   7.311  36.827   6.155
 9795POPC   C1A54375   7.413  36.939   6.455
 9795POPC   D2A54376   7.441  36.908   6.755
 9795POPC   C3A54377   7.440  36.856   7.055
 9795POPC   C4A54378   7.413  36.877   7.355
 9795POPC   C1B54379   7.278  36.675   6.455
 9795POPC   C2B54380   7.258  36.699   6.755
 9795POPC   C3B54381   7.325  36.657   7.055
 9795POPC   C4B54382   7.239  36.666   7.355
 9796POPC   NC354383   7.421  28.354   5.555
 9796POPC   PO454384   7.434  28.393   5.855
 9796POPC   GL154385   7.418  28.405   6.155
 9796POPC   GL254386   7.506  28.282   6.155
 9796POPC   C1A54387   7.431  28.418   6.455
 9796POPC   D2A54388   7.409  28.339   6.755
 9796POPC   C3A54389   7.439  28.394   7.055
 9796POPC   C4A54390   7.463  28.346   7.355
 9796POPC   C1B54391   7.603  28.189   6.455
 9796POPC   C2B54392   7.576  28.155   6.755
 9796POPC   C3B54393   7.596  28.151   7.055
 9796POPC   C4B54394   7.620  28.170   7.355
 9797POPC   NC354395  20.588   5.886   5.555
 9797POPC   PO454396  20.618   5.883   5.855
 9797POPC   GL154397  20.593   5.874   6.155
 9797POPC   GL254398  20.602   5.776   6.155
 9797POPC   C1A54399  20.568   5.860   6.455
 9797POPC   D2A54400  20.605   5.880   6.755
 9797POPC   C3A54401  20.657   5.888   7.055
 9797POPC   C4A54402  20.635   5.841   7.355
 9797POPC   C1B54403  20.664   5.610   6.455
 9797POPC   C2B54404  20.655   5.675   6.755
 9797POPC   C3B54405  20.667   5.654   7.055
 9797POPC   C4B54406  20.641   5.639   7.355
 9798POPC   NC354407  33.065  39.208   5.555
 9798POPC   PO454408  32.976  39.189   5.855
 9798POPC   GL154409  32.995  39.212   6.155
 9798POPC   GL254410  32.868  39.277   6.155
 9798POPC   C1A54411  32.984  39.223   6.455
 9798POPC   D2A54412  33.010  39.262   6.755
 9798POPC   C3A54413  32.976  39.209   7.055
 9798POPC   C4A54414  33.032  39.228   7.355
 9798POPC   C1B54415  32.779  39.284   6.455
 9798POPC   C2B54416  32.775  39.320   6.755
 9798POPC   C3B54417  32.833  39.346   7.055
 9798POPC   C4B54418  32.775  39.298   7.355
 9799POPC   NC354419  16.767  42.293   5.555
 9799POPC   PO454420  16.770  42.295   5.855
 9799POPC   GL154421  16.740  42.364   6.155
 9799POPC   GL254422  16.813  42.216   6.155
 9799POPC   C1A54423  16.714  42.381   6.455
 9799POPC   D2A54424  16.727  42.321   6.755
 9799POPC   C3A54425  16.750  42.363   7.055
 9799POPC   C4A54426  16.776  42.310   7.355
 9799POPC   C1B54427  16.900  42.207   6.455
 9799POPC   C2B54428  16.889  42.205   6.755
 9799POPC   C3B54429  16.939  42.224   7.055
 9799POPC   C4B54430  16.963  42.176   7.355
 9800POPC   NC354431  35.343  36.945   5.555
 9800POPC   PO454432  35.330  36.867   5.855
 9800POPC   GL154433  35.317  36.933   6.155
 9800POPC   GL254434  35.263  36.915   6.155
 9800POPC   C1A54435  35.372  36.854   6.455
 9800POPC   D2A54436  35.387  36.884   6.755
 9800POPC   C3A54437  35.358  36.934   7.055
 9800POPC   C4A54438  35.401  36.855   7.355
 9800POPC   C1B54439  35.113  36.904   6.455
 9800POPC   C2B54440  35.066  36.867   6.755
 9800POPC   C3B54441  35.137  36.914   7.055
 9800POPC   C4B54442  35.116  36.868   7.355
 9801POPC   NC354443  32.984  23.681   5.555
 9801POPC   PO454444  33.045  23.724   5.855
 9801POPC   GL154445  33.047  23.763   6.155
 9801POPC   GL254446  33.013  23.596   6.155
 9801POPC   C1A54447  33.067  23.669   6.455
 9801POPC   D2A54448  33.050  23.753   6.755
 9801POPC   C3A54449  33.054  23.670   7.055
 9801POPC   C4A54450  33.054  23.694   7.355
 9801POPC   C1B54451  33.117  23.505   6.455
 9801POPC   C2B54452  33.128  23.469   6.755
 9801POPC   C3B54453  33.092  23.500   7.055
 9801POPC   C4B54454  33.057  23.455   7.355
 9802POPC   NC354455   0.409  20.627   5.555
 9802POPC   PO454456   0.413  20.563   5.855
 9802POPC   GL154457   0.391  20.593   6.155
 9802POPC   GL254458   0.414  20.712   6.155
 9802POPC   C1A54459   0.455  20.581   6.455
 9802POPC   D2A54460   0.472  20.602   6.755
 9802POPC   C3A54461   0.430  20.575   7.055
 9802POPC   C4A54462   0.459  20.648   7.355
 9802POPC   C1B54463   0.354  20.792   6.455
 9802POPC   C2B54464   0.292  20.782   6.755
 9802POPC   C3B54465   0.357  20.858   7.055
 9802POPC   C4B54466   0.341  20.850   7.355
 9803POPC   NC354467  22.142  39.966   5.555
 9803POPC   PO454468  22.187  40.051   5.855
 9803POPC   GL154469  22.119  39.993   6.155
 9803POPC   GL254470  22.256  40.047   6.155
 9803POPC   C1A54471  22.185  40.036   6.455
 9803POPC   D2A54472  22.191  40.039   6.755
 9803POPC   C3A54473  22.118  39.969   7.055
 9803POPC   C4A54474  22.185  39.964   7.355
 9803POPC   C1B54475  22.345  40.227   6.455
 9803POPC   C2B54476  22.380  40.184   6.755
 9803POPC   C3B54477  22.358  40.194   7.055
 9803POPC   C4B54478  22.321  40.143   7.355
 9804POPC   NC354479  44.670  29.147   5.555
 9804POPC   PO454480  44.690  29.180   5.855
 9804POPC   GL154481  44.666  29.134   6.155
 9804POPC   GL254482  44.639  29.009   6.155
 9804POPC   C1A54483  44.672  29.144   6.455
 9804POPC   D2A54484  44.677  29.107   6.755
 9804POPC   C3A54485  44.619  29.136   7.055
 9804POPC   C4A54486  44.667  29.192   7.355
 9804POPC   C1B54487  44.638  28.893   6.455
 9804POPC   C2B54488  44.638  28.909   6.755
 9804POPC   C3B54489  44.659  28.861   7.055
 9804POPC   C4B54490  44.683  28.932   7.355
 9805POPC   NC354491  26.804  25.246   5.555
 9805POPC   PO454492  26.844  25.238   5.855
 9805POPC   GL154493  26.818  25.239   6.155
 9805POPC   GL254494  26.914  25.205   6.155
 9805POPC   C1A54495  26.831  25.258   6.455
 9805POPC   D2A54496  26.805  25.242   6.755
 9805POPC   C3A54497  26.780  25.227   7.055
 9805POPC   C4A54498  26.797  25.221   7.355
 9805POPC   C1B54499  26.949  25.058   6.455
 9805POPC   C2B54500  27.006  25.109   6.755
 9805POPC   C3B54501  27.038  25.100   7.055
 9805POPC   C4B54502  26.985  25.033   7.355
 9806POPC   NC354503  25.282  15.228   5.555
 9806POPC   PO454504  25.239  15.138   5.855
 9806POPC   GL154505  25.269  15.192   6.155
 9806POPC   GL254506  25.400  15.054   6.155
 9806POPC   C1A54507  25.245  15.180   6.455
 9806POPC   D2A54508  25.262  15.197   6.755
 9806POPC   C3A54509  25.218  15.209   7.055
 9806POPC   C4A54510  25.300  15.202   7.355
 9806POPC   C1B54511  25.464  15.029   6.455
 9806POPC   C2B54512  25.422  14.980   6.755
 9806POPC   C3B54513  25.472  14.987   7.055
 9806POPC   C4B54514  25.480  15.038   7.355
 9807POPC   NC354515  24.531  12.036   5.555
 9807POPC   PO454516  24.459  12.102   5.855
 9807POPC   GL154517  24.508  12.070   6.155
 9807POPC   GL254518  24.357  12.146   6.155
 9807POPC   C1A54519  24.442  12.103   6.455
 9807POPC   D2A54520  24.484  12.115   6.755
 9807POPC   C3A54521  24.531  12.125   7.055
 9807POPC   C4A54522  24.459  12.082   7.355
 9807POPC   C1B54523  24.267  12.148   6.455
 9807POPC   C2B54524  24.275  12.188   6.755
 9807POPC   C3B54525  24.223  12.191   7.055
 9807POPC   C4B54526  24.304  12.239   7.355
 9808POPC   NC354527   2.748  36.916   5.555
 9808POPC   PO454528   2.731  36.872   5.855
 9808POPC   GL154529   2.762  36.863   6.155
 9808POPC   GL254530   2.637  36.974   6.155
 9808POPC   C1A54531   2.739  36.888   6.455
 9808POPC   D2A54532   2.745  36.863   6.755
 9808POPC   C3A54533   2.811  36.867   7.055
 9808POPC   C4A54534   2.808  36.927   7.355
 9808POPC   C1B54535   2.545  37.012   6.455
 9808POPC   C2B54536   2.539  37.015   6.755
 9808POPC   C3B54537   2.535  37.008   7.055
 9808POPC   C4B54538   2.517  37.019   7.355
 9809POPC   NC354539  37.639  19.837   5.555
 9809POPC   PO454540  37.723  19.843   5.855
 9809POPC   GL154541  37.688  19.833   6.155
 9809POPC   GL254542  37.793  19.898   6.155
 9809POPC   C1A54543  37.679  19.874   6.455
 9809POPC   D2A54544  37.729  19.799   6.755
 9809POPC   C3A54545  37.661  19.878   7.055
 9809POPC   C4A54546  37.652  19.841   7.355
 9809POPC   C1B54547  37.842  19.995   6.455
 9809POPC   C2B54548  37.856  19.983   6.755
 9809POPC   C3B54549  37.861  20.056   7.055
 9809POPC   C4B54550  37.880  19.978   7.355
 9810POPC   NC354551   8.938  42.335   5.555
 9810POPC   PO454552   8.993  42.345   5.855
 9810POPC   GL154553   8.995  42.366   6.155
 9810POPC   GL254554   9.059  42.341   6.155
 9810POPC   C1A54555   8.947  42.384   6.455
 9810POPC   D2A54556   8.976  42.294   6.755
 9810POPC   C3A54557   8.983  42.315   7.055
 9810POPC   C4A54558   8.970  42.299   7.355
 9810POPC   C1B54559   9.218  42.333   6.455
 9810POPC   C2B54560   9.239  42.369   6.755
 9810POPC   C3B54561   9.179  42.391   7.055
 9810POPC   C4B54562   9.231  42.353   7.355
 9811POPC   NC354563   6.660  33.770   5.555
 9811POPC   PO454564   6.672  33.768   5.855
 9811POPC   GL154565   6.607  33.830   6.155
 9811POPC   GL254566   6.525  33.674   6.155
 9811POPC   C1A54567   6.667  33.834   6.455
 9811POPC   D2A54568   6.657  33.791   6.755
 9811POPC   C3A54569   6.617  33.844   7.055
 9811POPC   C4A54570   6.658  33.799   7.355
 9811POPC   C1B54571   6.463  33.625   6.455
 9811POPC   C2B54572   6.509  33.671   6.755
 9811POPC   C3B54573   6.459  33.596   7.055
 9811POPC   C4B54574   6.433  33.602   7.355
 9812POPC   NC354575   8.981  15.915   5.555
 9812POPC   PO454576   8.980  15.960   5.855
 9812POPC   GL154577   8.971  15.967   6.155
 9812POPC   GL254578   9.040  15.868   6.155
 9812POPC   C1A54579   8.960  15.940   6.455
 9812POPC   D2A54580   8.992  15.940   6.755
 9812POPC   C3A54581   8.946  15.947   7.055
 9812POPC   C4A54582   8.953  15.907   7.355
 9812POPC   C1B54583   9.167  15.788   6.455
 9812POPC   C2B54584   9.142  15.742   6.755
 9812POPC   C3B54585   9.165  15.752   7.055
 9812POPC   C4B54586   9.184  15.763   7.355
 9813POPC   NC354587  12.817  26.003   5.555
 9813POPC   PO454588  12.871  26.061   5.855
 9813POPC   GL154589  12.882  26.007   6.155
 9813POPC   GL254590  12.701  26.092   6.155
 9813POPC   C1A54591  12.826  26.022   6.455
 9813POPC   D2A54592  12.851  26.053   6.755
 9813POPC   C3A54593  12.859  26.035   7.055
 9813POPC   C4A54594  12.869  26.078   7.355
 9813POPC   C1B54595  12.673  26.214   6.455
 9813POPC   C2B54596  12.670  26.140   6.755
 9813POPC   C3B54597  12.601  26.224   7.055
 9813POPC   C4B54598  12.623  26.150   7.355
 9814POPC   NC354599  12.048   9.767   5.555
 9814POPC   PO454600  12.054   9.790   5.855
 9814POPC   GL154601  12.114   9.797   6.155
 9814POPC   GL254602  11.907   9.749   6.155
 9814POPC   C1A54603  12.117   9.707   6.455
 9814POPC   D2A54604  12.115   9.797   6.755
 9814POPC   C3A54605  12.114   9.737   7.055
 9814POPC   C4A54606  12.110   9.719   7.355
 9814POPC   C1B54607  11.861   9.784   6.455
 9814POPC   C2B54608  11.788   9.817   6.755
 9814POPC   C3B54609  11.872   9.793   7.055
 9814POPC   C4B54610  11.809   9.800   7.355
 9815POPC   NC354611  42.383  39.959   5.555
 9815POPC   PO454612  42.320  39.990   5.855
 9815POPC   GL154613  42.327  39.996   6.155
 9815POPC   GL254614  42.406  40.163   6.155
 9815POPC   C1A54615  42.351  40.013   6.455
 9815POPC   D2A54616  42.319  40.000   6.755
 9815POPC   C3A54617  42.355  40.032   7.055
 9815POPC   C4A54618  42.295  39.988   7.355
 9815POPC   C1B54619  42.416  40.218   6.455
 9815POPC   C2B54620  42.396  40.262   6.755
 9815POPC   C3B54621  42.431  40.216   7.055
 9815POPC   C4B54622  42.475  40.216   7.355
 9816POPC   NC354623  35.390  20.584   5.555
 9816POPC   PO454624  35.362  20.594   5.855
 9816POPC   GL154625  35.343  20.574   6.155
 9816POPC   GL254626  35.309  20.707   6.155
 9816POPC   C1A54627  35.381  20.607   6.455
 9816POPC   D2A54628  35.333  20.594   6.755
 9816POPC   C3A54629  35.313  20.594   7.055
 9816POPC   C4A54630  35.380  20.656   7.355
 9816POPC   C1B54631  35.209  20.809   6.455
 9816POPC   C2B54632  35.243  20.813   6.755
 9816POPC   C3B54633  35.243  20.778   7.055
 9816POPC   C4B54634  35.204  20.796   7.355
 9817POPC   NC354635  32.253   4.307   5.555
 9817POPC   PO454636  32.231   4.359   5.855
 9817POPC   GL154637  32.199   4.270   6.155
 9817POPC   GL254638  32.239   4.162   6.155
 9817POPC   C1A54639  32.238   4.316   6.455
 9817POPC   D2A54640  32.213   4.353   6.755
 9817POPC   C3A54641  32.211   4.302   7.055
 9817POPC   C4A54642  32.271   4.285   7.355
 9817POPC   C1B54643  32.190   4.099   6.455
 9817POPC   C2B54644  32.162   4.103   6.755
 9817POPC   C3B54645  32.121   4.041   7.055
 9817POPC   C4B54646  32.185   4.057   7.355
 9818POPC   NC354647  11.295  22.155   5.555
 9818POPC   PO454648  11.340  22.184   5.855
 9818POPC   GL154649  11.251  22.195   6.155
 9818POPC   GL254650  11.409  22.097   6.155
 9818POPC   C1A54651  11.294  22.138   6.455
 9818POPC   D2A54652  11.277  22.146   6.755
 9818POPC   C3A54653  11.339  22.190   7.055
 9818POPC   C4A54654  11.295  22.123   7.355
 9818POPC   C1B54655  11.506  22.019   6.455
 9818POPC   C2B54656  11.521  22.080   6.755
 9818POPC   C3B54657  11.554  22.053   7.055
 9818POPC   C4B54658  11.555  22.070   7.355
 9819POPC   NC354659  26.851   5.835   5.555
 9819POPC   PO454660  26.866   5.891   5.855
 9819POPC   GL154661  26.776   5.858   6.155
 9819POPC   GL254662  26.808   6.017   6.155
 9819POPC   C1A54663  26.842   5.905   6.455
 9819POPC   D2A54664  26.846   5.881   6.755
 9819POPC   C3A54665  26.788   5.833   7.055
 9819POPC   C4A54666  26.818   5.902   7.355
 9819POPC   C1B54667  26.852   6.072   6.455
 9819POPC   C2B54668  26.863   6.153   6.755
 9819POPC   C3B54669  26.799   6.158   7.055
 9819POPC   C4B54670  26.802   6.142   7.355
 9820POPC   NC354671   1.979   1.990   5.555
 9820POPC   PO454672   1.981   1.981   5.855
 9820POPC   GL154673   2.033   1.971   6.155
 9820POPC   GL254674   2.087   1.937   6.155
 9820POPC   C1A54675   2.006   2.035   6.455
 9820POPC   D2A54676   1.955   2.020   6.755
 9820POPC   C3A54677   2.031   1.946   7.055
 9820POPC   C4A54678   1.957   2.016   7.355
 9820POPC   C1B54679   2.211   1.785   6.455
 9820POPC   C2B54680   2.135   1.856   6.755
 9820POPC   C3B54681   2.128   1.791   7.055
 9820POPC   C4B54682   2.147   1.815   7.355
 9821POPC   NC354683  21.365   5.851   5.555
 9821POPC   PO454684  21.342   5.897   5.855
 9821POPC   GL154685  21.389   5.897   6.155
 9821POPC   GL254686  21.272   5.921   6.155
 9821POPC   C1A54687  21.405   5.878   6.455
 9821POPC   D2A54688  21.404   5.855   6.755
 9821POPC   C3A54689  21.346   5.899   7.055
 9821POPC   C4A54690  21.407   5.831   7.355
 9821POPC   C1B54691  21.158   6.014   6.455
 9821POPC   C2B54692  21.213   6.014   6.755
 9821POPC   C3B54693  21.167   6.007   7.055
 9821POPC   C4B54694  21.178   6.031   7.355
 9822POPC   NC354695  18.315  24.458   5.555
 9822POPC   PO454696  18.312  24.527   5.855
 9822POPC   GL154697  18.298  24.497   6.155
 9822POPC   GL254698  18.366  24.407   6.155
 9822POPC   C1A54699  18.252  24.466   6.455
 9822POPC   D2A54700  18.307  24.494   6.755
 9822POPC   C3A54701  18.297  24.513   7.055
 9822POPC   C4A54702  18.329  24.508   7.355
 9822POPC   C1B54703  18.345  24.207   6.455
 9822POPC   C2B54704  18.335  24.239   6.755
 9822POPC   C3B54705  18.359  24.301   7.055
 9822POPC   C4B54706  18.395  24.253   7.355
 9823POPC   NC354707  37.650   1.190   5.555
 9823POPC   PO454708  37.681   1.166   5.855
 9823POPC   GL154709  37.688   1.170   6.155
 9823POPC   GL254710  37.829   1.236   6.155
 9823POPC   C1A54711  37.670   1.194   6.455
 9823POPC   D2A54712  37.632   1.214   6.755
 9823POPC   C3A54713  37.720   1.230   7.055
 9823POPC   C4A54714  37.649   1.263   7.355
 9823POPC   C1B54715  37.879   1.254   6.455
 9823POPC   C2B54716  37.920   1.245   6.755
 9823POPC   C3B54717  37.952   1.246   7.055
 9823POPC   C4B54718  37.888   1.287   7.355
 9824POPC   NC354719  19.034  29.168   5.555
 9824POPC   PO454720  19.045  29.122   5.855
 9824POPC   GL154721  19.106  29.096   6.155
 9824POPC   GL254722  19.157  29.162   6.155
 9824POPC   C1A54723  19.084  29.151   6.455
 9824POPC   D2A54724  19.060  29.110   6.755
 9824POPC   C3A54725  19.095  29.149   7.055
 9824POPC   C4A54726  19.078  29.143   7.355
 9824POPC   C1B54727  19.307  29.231   6.455
 9824POPC   C2B54728  19.234  29.260   6.755
 9824POPC   C3B54729  19.303  29.303   7.055
 9824POPC   C4B54730  19.298  29.300   7.355
 9825POPC   NC354731  19.883  26.007   5.555
 9825POPC   PO454732  19.883  26.029   5.855
 9825POPC   GL154733  19.788  26.021   6.155
 9825POPC   GL254734  19.869  26.196   6.155
 9825POPC   C1A54735  19.871  26.046   6.455
 9825POPC   D2A54736  19.831  25.995   6.755
 9825POPC   C3A54737  19.786  26.043   7.055
 9825POPC   C4A54738  19.787  26.068   7.355
 9825POPC   C1B54739  19.915  26.232   6.455
 9825POPC   C2B54740  19.969  26.241   6.755
 9825POPC   C3B54741  19.887  26.254   7.055
 9825POPC   C4B54742  19.898  26.286   7.355
 9826POPC   NC354743  19.827  23.702   5.555
 9826POPC   PO454744  19.858  23.696   5.855
 9826POPC   GL154745  19.863  23.685   6.155
 9826POPC   GL254746  19.733  23.606   6.155
 9826POPC   C1A54747  19.808  23.697   6.455
 9826POPC   D2A54748  19.874  23.744   6.755
 9826POPC   C3A54749  19.799  23.707   7.055
 9826POPC   C4A54750  19.866  23.728   7.355
 9826POPC   C1B54751  19.721  23.542   6.455
 9826POPC   C2B54752  19.632  23.513   6.755
 9826POPC   C3B54753  19.647  23.475   7.055
 9826POPC   C4B54754  19.696  23.504   7.355
 9827POPC   NC354755  32.211  38.441   5.555
 9827POPC   PO454756  32.242  38.503   5.855
 9827POPC   GL154757  32.284  38.418   6.155
 9827POPC   GL254758  32.094  38.463   6.155
 9827POPC   C1A54759  32.254  38.501   6.455
 9827POPC   D2A54760  32.199  38.425   6.755
 9827POPC   C3A54761  32.254  38.448   7.055
 9827POPC   C4A54762  32.277  38.474   7.355
 9827POPC   C1B54763  31.955  38.453   6.455
 9827POPC   C2B54764  32.002  38.464   6.755
 9827POPC   C3B54765  32.024  38.429   7.055
 9827POPC   C4B54766  32.042  38.510   7.355
 9828POPC   NC354767   7.464  26.801   5.555
 9828POPC   PO454768   7.379  26.865   5.855
 9828POPC   GL154769   7.426  26.821   6.155
 9828POPC   GL254770   7.446  26.892   6.155
 9828POPC   C1A54771   7.431  26.789   6.455
 9828POPC   D2A54772   7.433  26.788   6.755
 9828POPC   C3A54773   7.448  26.779   7.055
 9828POPC   C4A54774   7.400  26.844   7.355
 9828POPC   C1B54775   7.384  27.051   6.455
 9828POPC   C2B54776   7.460  27.085   6.755
 9828POPC   C3B54777   7.461  27.108   7.055
 9828POPC   C4B54778   7.476  27.080   7.355
 9829POPC   NC354779  20.653  13.604   5.555
 9829POPC   PO454780  20.590  13.581   5.855
 9829POPC   GL154781  20.622  13.585   6.155
 9829POPC   GL254782  20.522  13.570   6.155
 9829POPC   C1A54783  20.628  13.601   6.455
 9829POPC   D2A54784  20.581  13.670   6.755
 9829POPC   C3A54785  20.647  13.646   7.055
 9829POPC   C4A54786  20.615  13.599   7.355
 9829POPC   C1B54787  20.431  13.474   6.455
 9829POPC   C2B54788  20.417  13.528   6.755
 9829POPC   C3B54789  20.384  13.499   7.055
 9829POPC   C4B54790  20.366  13.537   7.355
 9830POPC   NC354791   1.207  12.083   5.555
 9830POPC   PO454792   1.257  12.041   5.855
 9830POPC   GL154793   1.180  12.060   6.155
 9830POPC   GL254794   1.066  12.042   6.155
 9830POPC   C1A54795   1.253  12.029   6.455
 9830POPC   D2A54796   1.183  12.109   6.755
 9830POPC   C3A54797   1.209  12.121   7.055
 9830POPC   C4A54798   1.177  12.104   7.355
 9830POPC   C1B54799   1.051  11.963   6.455
 9830POPC   C2B54800   0.967  11.905   6.755
 9830POPC   C3B54801   0.960  11.921   7.055
 9830POPC   C4B54802   1.047  11.926   7.355
 9831POPC   NC354803  21.355   9.020   5.555
 9831POPC   PO454804  21.339   8.999   5.855
 9831POPC   GL154805  21.338   8.966   6.155
 9831POPC   GL254806  21.545   9.008   6.155
 9831POPC   C1A54807  21.433   9.000   6.455
 9831POPC   D2A54808  21.418   8.999   6.755
 9831POPC   C3A54809  21.350   8.975   7.055
 9831POPC   C4A54810  21.372   8.994   7.355
 9831POPC   C1B54811  21.608   9.041   6.455
 9831POPC   C2B54812  21.586   8.978   6.755
 9831POPC   C3B54813  21.679   8.993   7.055
 9831POPC   C4B54814  21.610   9.062   7.355
 9832POPC   NC354815  21.359  30.653   5.555
 9832POPC   PO454816  21.350  30.670   5.855
 9832POPC   GL154817  21.386  30.672   6.155
 9832POPC   GL254818  21.518  30.724   6.155
 9832POPC   C1A54819  21.380  30.716   6.455
 9832POPC   D2A54820  21.415  30.737   6.755
 9832POPC   C3A54821  21.351  30.724   7.055
 9832POPC   C4A54822  21.424  30.664   7.355
 9832POPC   C1B54823  21.622  30.727   6.455
 9832POPC   C2B54824  21.607  30.667   6.755
 9832POPC   C3B54825  21.632  30.766   7.055
 9832POPC   C4B54826  21.620  30.669   7.355
 9833POPC   NC354827  12.897  13.588   5.555
 9833POPC   PO454828  12.864  13.606   5.855
 9833POPC   GL154829  12.873  13.636   6.155
 9833POPC   GL254830  12.862  13.497   6.155
 9833POPC   C1A54831  12.825  13.620   6.455
 9833POPC   D2A54832  12.812  13.639   6.755
 9833POPC   C3A54833  12.854  13.629   7.055
 9833POPC   C4A54834  12.874  13.607   7.355
 9833POPC   C1B54835  12.823  13.367   6.455
 9833POPC   C2B54836  12.873  13.367   6.755
 9833POPC   C3B54837  12.817  13.392   7.055
 9833POPC   C4B54838  12.802  13.351   7.355
 9834POPC   NC354839  26.075   4.280   5.555
 9834POPC   PO454840  26.090   4.305   5.855
 9834POPC   GL154841  26.018   4.309   6.155
 9834POPC   GL254842  25.932   4.291   6.155
 9834POPC   C1A54843  26.047   4.300   6.455
 9834POPC   D2A54844  25.994   4.346   6.755
 9834POPC   C3A54845  26.046   4.357   7.055
 9834POPC   C4A54846  26.016   4.323   7.355
 9834POPC   C1B54847  25.799   4.282   6.455
 9834POPC   C2B54848  25.820   4.248   6.755
 9834POPC   C3B54849  25.842   4.233   7.055
 9834POPC   C4B54850  25.773   4.249   7.355
 9835POPC   NC354851  32.231  35.397   5.555
 9835POPC   PO454852  32.275  35.373   5.855
 9835POPC   GL154853  32.244  35.314   6.155
 9835POPC   GL254854  32.228  35.476   6.155
 9835POPC   C1A54855  32.257  35.368   6.455
 9835POPC   D2A54856  32.227  35.346   6.755
 9835POPC   C3A54857  32.256  35.344   7.055
 9835POPC   C4A54858  32.215  35.384   7.355
 9835POPC   C1B54859  32.193  35.571   6.455
 9835POPC   C2B54860  32.254  35.610   6.755
 9835POPC   C3B54861  32.268  35.572   7.055
 9835POPC   C4B54862  32.215  35.643   7.355
 9836POPC   NC354863  34.566  15.208   5.555
 9836POPC   PO454864  34.622  15.210   5.855
 9836POPC   GL154865  34.549  15.143   6.155
 9836POPC   GL254866  34.518  15.008   6.155
 9836POPC   C1A54867  34.584  15.145   6.455
 9836POPC   D2A54868  34.537  15.228   6.755
 9836POPC   C3A54869  34.605  15.174   7.055
 9836POPC   C4A54870  34.571  15.186   7.355
 9836POPC   C1B54871  34.545  14.915   6.455
 9836POPC   C2B54872  34.524  14.920   6.755
 9836POPC   C3B54873  34.540  14.952   7.055
 9836POPC   C4B54874  34.578  14.949   7.355
 9837POPC   NC354875   0.448  22.211   5.555
 9837POPC   PO454876   0.480  22.156   5.855
 9837POPC   GL154877   0.407  22.182   6.155
 9837POPC   GL254878   0.461  22.261   6.155
 9837POPC   C1A54879   0.435  22.162   6.455
 9837POPC   D2A54880   0.429  22.196   6.755
 9837POPC   C3A54881   0.457  22.141   7.055
 9837POPC   C4A54882   0.417  22.171   7.355
 9837POPC   C1B54883   0.383  22.363   6.455
 9837POPC   C2B54884   0.371  22.417   6.755
 9837POPC   C3B54885   0.413  22.368   7.055
 9837POPC   C4B54886   0.382  22.458   7.355
 9838POPC   NC354887  39.214   6.650   5.555
 9838POPC   PO454888  39.193   6.600   5.855
 9838POPC   GL154889  39.207   6.617   6.155
 9838POPC   GL254890  39.301   6.793   6.155
 9838POPC   C1A54891  39.197   6.688   6.455
 9838POPC   D2A54892  39.236   6.620   6.755
 9838POPC   C3A54893  39.209   6.634   7.055
 9838POPC   C4A54894  39.246   6.663   7.355
 9838POPC   C1B54895  39.283   6.846   6.455
 9838POPC   C2B54896  39.319   6.844   6.755
 9838POPC   C3B54897  39.338   6.848   7.055
 9838POPC   C4B54898  39.343   6.851   7.355
 9839POPC   NC354899  15.939  21.415   5.555
 9839POPC   PO454900  15.943  21.420   5.855
 9839POPC   GL154901  15.931  21.424   6.155
 9839POPC   GL254902  16.033  21.257   6.155
 9839POPC   C1A54903  15.989  21.346   6.455
 9839POPC   D2A54904  15.986  21.368   6.755
 9839POPC   C3A54905  15.937  21.389   7.055
 9839POPC   C4A54906  15.942  21.389   7.355
 9839POPC   C1B54907  16.087  21.190   6.455
 9839POPC   C2B54908  16.087  21.206   6.755
 9839POPC   C3B54909  16.110  21.133   7.055
 9839POPC   C4B54910  16.097  21.125   7.355
 9840POPC   NC354911   7.385  18.309   5.555
 9840POPC   PO454912   7.375  18.318   5.855
 9840POPC   GL154913   7.403  18.264   6.155
 9840POPC   GL254914   7.263  18.334   6.155
 9840POPC   C1A54915   7.377  18.254   6.455
 9840POPC   D2A54916   7.397  18.303   6.755
 9840POPC   C3A54917   7.375  18.281   7.055
 9840POPC   C4A54918   7.391  18.327   7.355
 9840POPC   C1B54919   7.195  18.386   6.455
 9840POPC   C2B54920   7.182  18.392   6.755
 9840POPC   C3B54921   7.187  18.432   7.055
 9840POPC   C4B54922   7.222  18.380   7.355
 9841POPC   NC354923  12.120  15.908   5.555
 9841POPC   PO454924  12.069  15.921   5.855
 9841POPC   GL154925  12.032  15.908   6.155
 9841POPC   GL254926  12.189  15.926   6.155
 9841POPC   C1A54927  12.124  16.004   6.455
 9841POPC   D2A54928  12.064  15.912   6.755
 9841POPC   C3A54929  12.085  15.913   7.055
 9841POPC   C4A54930  12.097  15.982   7.355
 9841POPC   C1B54931  12.324  15.831   6.455
 9841POPC   C2B54932  12.293  15.809   6.755
 9841POPC   C3B54933  12.290  15.888   7.055
 9841POPC   C4B54934  12.271  15.830   7.355
 9842POPC   NC354935  39.271  31.515   5.555
 9842POPC   PO454936  39.202  31.464   5.855
 9842POPC   GL154937  39.195  31.458   6.155
 9842POPC   GL254938  39.140  31.446   6.155
 9842POPC   C1A54939  39.229  31.463   6.455
 9842POPC   D2A54940  39.242  31.431   6.755
 9842POPC   C3A54941  39.273  31.452   7.055
 9842POPC   C4A54942  39.210  31.464   7.355
 9842POPC   C1B54943  38.975  31.478   6.455
 9842POPC   C2B54944  38.976  31.446   6.755
 9842POPC   C3B54945  39.025  31.400   7.055
 9842POPC   C4B54946  38.943  31.430   7.355
 9843POPC   NC354947  39.989  42.288   5.555
 9843POPC   PO454948  40.009  42.289   5.855
 9843POPC   GL154949  39.994  42.288   6.155
 9843POPC   GL254950  40.075  42.268   6.155
 9843POPC   C1A54951  40.039  42.343   6.455
 9843POPC   D2A54952  40.026  42.288   6.755
 9843POPC   C3A54953  39.974  42.347   7.055
 9843POPC   C4A54954  40.006  42.288   7.355
 9843POPC   C1B54955  40.089  42.122   6.455
 9843POPC   C2B54956  40.150  42.152   6.755
 9843POPC   C3B54957  40.062  42.128   7.055
 9843POPC   C4B54958  40.117  42.072   7.355
 9844POPC   NC354959   9.711  38.423   5.555
 9844POPC   PO454960   9.703  38.415   5.855
 9844POPC   GL154961   9.743  38.408   6.155
 9844POPC   GL254962   9.800  38.397   6.155
 9844POPC   C1A54963   9.788  38.427   6.455
 9844POPC   D2A54964   9.760  38.445   6.755
 9844POPC   C3A54965   9.712  38.460   7.055
 9844POPC   C4A54966   9.797  38.433   7.355
 9844POPC   C1B54967   9.885  38.259   6.455
 9844POPC   C2B54968   9.877  38.268   6.755
 9844POPC   C3B54969   9.911  38.318   7.055
 9844POPC   C4B54970   9.887  38.234   7.355
 9845POPC   NC354971  12.091   8.147   5.555
 9845POPC   PO454972  12.079   8.175   5.855
 9845POPC   GL154973  12.107   8.190   6.155
 9845POPC   GL254974  12.053   8.328   6.155
 9845POPC   C1A54975  12.114   8.151   6.455
 9845POPC   D2A54976  12.111   8.218   6.755
 9845POPC   C3A54977  12.077   8.230   7.055
 9845POPC   C4A54978  12.068   8.245   7.355
 9845POPC   C1B54979  12.072   8.445   6.455
 9845POPC   C2B54980  12.099   8.406   6.755
 9845POPC   C3B54981  12.051   8.444   7.055
 9845POPC   C4B54982  12.081   8.475   7.355
 9846POPC   NC354983  27.622   9.711   5.555
 9846POPC   PO454984  27.613   9.793   5.855
 9846POPC   GL154985  27.577   9.709   6.155
 9846POPC   GL254986  27.508   9.875   6.155
 9846POPC   C1A54987  27.551   9.751   6.455
 9846POPC   D2A54988  27.606   9.792   6.755
 9846POPC   C3A54989  27.550   9.752   7.055
 9846POPC   C4A54990  27.618   9.738   7.355
 9846POPC   C1B54991  27.462   9.928   6.455
 9846POPC   C2B54992  27.443  10.001   6.755
 9846POPC   C3B54993  27.439   9.956   7.055
 9846POPC   C4B54994  27.483   9.952   7.355
 9847POPC   NC354995  26.046  41.604   5.555
 9847POPC   PO454996  26.053  41.532   5.855
 9847POPC   GL154997  25.997  41.567   6.155
 9847POPC   GL254998  26.068  41.413   6.155
 9847POPC   C1A54999  26.023  41.529   6.455
 9847POPC   D2A55000  26.027  41.522   6.755
 9847POPC   C3A55001  26.063  41.553   7.055
 9847POPC   C4A55002  25.999  41.570   7.355
 9847POPC   C1B55003  26.204  41.314   6.455
 9847POPC   C2B55004  26.172  41.326   6.755
 9847POPC   C3B55005  26.142  41.339   7.055
 9847POPC   C4B55006  26.184  41.339   7.355
 9848POPC   NC355007  29.915   6.621   5.555
 9848POPC   PO455008  29.947   6.620   5.855
 9848POPC   GL155009  29.912   6.615   6.155
 9848POPC   GL255010  29.767   6.540   6.155
 9848POPC   C1A55011  29.917   6.629   6.455
 9848POPC   D2A55012  29.954   6.694   6.755
 9848POPC   C3A55013  29.876   6.691   7.055
 9848POPC   C4A55014  29.958   6.640   7.355
 9848POPC   C1B55015  29.711   6.505   6.455
 9848POPC   C2B55016  29.676   6.476   6.755
 9848POPC   C3B55017  29.683   6.531   7.055
 9848POPC   C4B55018  29.681   6.499   7.355
 9849POPC   NC355019  26.815  23.728   5.555
 9849POPC   PO455020  26.796  23.755   5.855
 9849POPC   GL155021  26.795  23.757   6.155
 9849POPC   GL255022  26.754  23.605   6.155
 9849POPC   C1A55023  26.822  23.690   6.455
 9849POPC   D2A55024  26.861  23.741   6.755
 9849POPC   C3A55025  26.822  23.757   7.055
 9849POPC   C4A55026  26.787  23.682   7.355
 9849POPC   C1B55027  26.672  23.541   6.455
 9849POPC   C2B55028  26.614  23.551   6.755
 9849POPC   C3B55029  26.621  23.552   7.055
 9849POPC   C4B55030  26.621  23.548   7.355
 9850POPC   NC355031  29.893  22.208   5.555
 9850POPC   PO455032  29.927  22.206   5.855
 9850POPC   GL155033  29.955  22.155   6.155
 9850POPC   GL255034  30.090  22.191   6.155
 9850POPC   C1A55035  29.893  22.183   6.455
 9850POPC   D2A55036  29.960  22.153   6.755
 9850POPC   C3A55037  29.914  22.192   7.055
 9850POPC   C4A55038  29.906  22.200   7.355
 9850POPC   C1B55039  30.126  22.186   6.455
 9850POPC   C2B55040  30.142  22.219   6.755
 9850POPC   C3B55041  30.194  22.188   7.055
 9850POPC   C4B55042  30.122  22.184   7.355
 9851POPC   NC355043  43.854  39.251   5.555
 9851POPC   PO455044  43.855  39.183   5.855
 9851POPC   GL155045  43.875  39.258   6.155
 9851POPC   GL255046  43.906  39.362   6.155
 9851POPC   C1A55047  43.867  39.182   6.455
 9851POPC   D2A55048  43.873  39.232   6.755
 9851POPC   C3A55049  43.911  39.184   7.055
 9851POPC   C4A55050  43.880  39.196   7.355
 9851POPC   C1B55051  43.873  39.516   6.455
 9851POPC   C2B55052  43.816  39.496   6.755
 9851POPC   C3B55053  43.816  39.436   7.055
 9851POPC   C4B55054  43.805  39.519   7.355
 9852POPC   NC355055  17.491   2.022   5.555
 9852POPC   PO455056  17.551   2.014   5.855
 9852POPC   GL155057  17.480   1.976   6.155
 9852POPC   GL255058  17.583   1.897   6.155
 9852POPC   C1A55059  17.497   1.972   6.455
 9852POPC   D2A55060  17.556   1.947   6.755
 9852POPC   C3A55061  17.521   1.980   7.055
 9852POPC   C4A55062  17.475   2.023   7.355
 9852POPC   C1B55063  17.693   1.881   6.455
 9852POPC   C2B55064  17.756   1.837   6.755
 9852POPC   C3B55065  17.768   1.827   7.055
 9852POPC   C4B55066  17.758   1.824   7.355
 9853POPC   NC355067   1.231  35.327   5.555
 9853POPC   PO455068   1.209  35.347   5.855
 9853POPC   GL155069   1.184  35.347   6.155
 9853POPC   GL255070   1.089  35.345   6.155
 9853POPC   C1A55071   1.220  35.304   6.455
 9853POPC   D2A55072   1.249  35.323   6.755
 9853POPC   C3A55073   1.217  35.388   7.055
 9853POPC   C4A55074   1.239  35.307   7.355
 9853POPC   C1B55075   0.989  35.243   6.455
 9853POPC   C2B55076   0.951  35.230   6.755
 9853POPC   C3B55077   0.948  35.208   7.055
 9853POPC   C4B55078   0.943  35.235   7.355
 9854POPC   NC355079   5.905  12.040   5.555
 9854POPC   PO455080   5.905  12.044   5.855
 9854POPC   GL155081   5.848  12.026   6.155
 9854POPC   GL255082   5.826  11.930   6.155
 9854POPC   C1A55083   5.831  12.043   6.455
 9854POPC   D2A55084   5.896  12.075   6.755
 9854POPC   C3A55085   5.832  12.110   7.055
 9854POPC   C4A55086   5.829  12.093   7.355
 9854POPC   C1B55087   5.752  11.877   6.455
 9854POPC   C2B55088   5.732  11.886   6.755
 9854POPC   C3B55089   5.747  11.870   7.055
 9854POPC   C4B55090   5.700  11.913   7.355
 9855POPC   NC355091   0.458  10.552   5.555
 9855POPC   PO455092   0.448  10.561   5.855
 9855POPC   GL155093   0.391  10.529   6.155
 9855POPC   GL255094   0.371  10.565   6.155
 9855POPC   C1A55095   0.430  10.474   6.455
 9855POPC   D2A55096   0.437  10.523   6.755
 9855POPC   C3A55097   0.460  10.501   7.055
 9855POPC   C4A55098   0.463  10.516   7.355
 9855POPC   C1B55099   0.177  10.651   6.455
 9855POPC   C2B55100   0.179  10.602   6.755
 9855POPC   C3B55101   0.252  10.667   7.055
 9855POPC   C4B55102   0.248  10.623   7.355
 9856POPC   NC355103  18.309  10.500   5.555
 9856POPC   PO455104  18.321  10.555   5.855
 9856POPC   GL155105  18.252  10.493   6.155
 9856POPC   GL255106  18.199  10.653   6.155
 9856POPC   C1A55107  18.301  10.487   6.455
 9856POPC   D2A55108  18.310  10.479   6.755
 9856POPC   C3A55109  18.248  10.485   7.055
 9856POPC   C4A55110  18.302  10.557   7.355
 9856POPC   C1B55111  18.189  10.712   6.455
 9856POPC   C2B55112  18.187  10.715   6.755
 9856POPC   C3B55113  18.196  10.781   7.055
 9856POPC   C4B55114  18.177  10.730   7.355
 9857POPC   NC355115  22.920  22.907   5.555
 9857POPC   PO455116  22.985  22.977   5.855
 9857POPC   GL155117  22.963  22.981   6.155
 9857POPC   GL255118  22.914  23.041   6.155
 9857POPC   C1A55119  22.933  22.987   6.455
 9857POPC   D2A55120  22.940  22.917   6.755
 9857POPC   C3A55121  22.921  22.945   7.055
 9857POPC   C4A55122  22.920  22.976   7.355
 9857POPC   C1B55123  22.906  23.179   6.455
 9857POPC   C2B55124  22.937  23.152   6.755
 9857POPC   C3B55125  22.899  23.208   7.055
 9857POPC   C4B55126  22.940  23.225   7.355
 9858POPC   NC355127   6.603  37.679   5.555
 9858POPC   PO455128   6.653  37.632   5.855
 9858POPC   GL155129   6.674  37.696   6.155
 9858POPC   GL255130   6.564  37.800   6.155
 9858POPC   C1A55131   6.598  37.635   6.455
 9858POPC   D2A55132   6.612  37.729   6.755
 9858POPC   C3A55133   6.662  37.672   7.055
 9858POPC   C4A55134   6.672  37.706   7.355
 9858POPC   C1B55135   6.471  37.834   6.455
 9858POPC   C2B55136   6.524  37.876   6.755
 9858POPC   C3B55137   6.537  37.836   7.055
 9858POPC   C4B55138   6.473  37.885   7.355
 9859POPC   NC355139   6.690  35.361   5.555
 9859POPC   PO455140   6.627  35.359   5.855
 9859POPC   GL155141   6.647  35.342   6.155
 9859POPC   GL255142   6.811  35.390   6.155
 9859POPC   C1A55143   6.663  35.326   6.455
 9859POPC   D2A55144   6.615  35.348   6.755
 9859POPC   C3A55145   6.630  35.383   7.055
 9859POPC   C4A55146   6.684  35.391   7.355
 9859POPC   C1B55147   6.872  35.390   6.455
 9859POPC   C2B55148   6.941  35.396   6.755
 9859POPC   C3B55149   6.909  35.401   7.055
 9859POPC   C4B55150   6.866  35.349   7.355
 9860POPC   NC355151  18.294  34.622   5.555
 9860POPC   PO455152  18.301  34.536   5.855
 9860POPC   GL155153  18.330  34.540   6.155
 9860POPC   GL255154  18.207  34.644   6.155
 9860POPC   C1A55155  18.260  34.609   6.455
 9860POPC   D2A55156  18.243  34.565   6.755
 9860POPC   C3A55157  18.241  34.570   7.055
 9860POPC   C4A55158  18.321  34.570   7.355
 9860POPC   C1B55159  18.076  34.736   6.455
 9860POPC   C2B55160  18.059  34.727   6.755
 9860POPC   C3B55161  18.112  34.696   7.055
 9860POPC   C4B55162  18.089  34.652   7.355
 9861POPC   NC355163  27.636  43.847   5.555
 9861POPC   PO455164  27.602  43.846   5.855
 9861POPC   GL155165  27.620  43.934   6.155
 9861POPC   GL255166  27.621  43.743   6.155
 9861POPC   C1A55167  27.557  43.935   6.455
 9861POPC   D2A55168  27.638  43.923   6.755
 9861POPC   C3A55169  27.642  43.874   7.055
 9861POPC   C4A55170  27.589  43.889   7.355
 9861POPC   C1B55171  27.592  43.613   6.455
 9861POPC   C2B55172  27.592  43.680   6.755
 9861POPC   C3B55173  27.622  43.646   7.055
 9861POPC   C4B55174  27.642  43.634   7.355
 9862POPC   NC355175   4.304  42.303   5.555
 9862POPC   PO455176   4.292  42.296   5.855
 9862POPC   GL155177   4.324  42.339   6.155
 9862POPC   GL255178   4.218  42.398   6.155
 9862POPC   C1A55179   4.282  42.349   6.455
 9862POPC   D2A55180   4.281  42.346   6.755
 9862POPC   C3A55181   4.351  42.297   7.055
 9862POPC   C4A55182   4.326  42.349   7.355
 9862POPC   C1B55183   4.107  42.412   6.455
 9862POPC   C2B55184   4.113  42.399   6.755
 9862POPC   C3B55185   4.106  42.427   7.055
 9862POPC   C4B55186   4.100  42.392   7.355
 9863POPC   NC355187   4.291   0.459   5.555
 9863POPC   PO455188   4.302   0.394   5.855
 9863POPC   GL155189   4.361   0.422   6.155
 9863POPC   GL255190   4.239   0.539   6.155
 9863POPC   C1A55191   4.309   0.455   6.455
 9863POPC   D2A55192   4.308   0.465   6.755
 9863POPC   C3A55193   4.330   0.435   7.055
 9863POPC   C4A55194   4.367   0.413   7.355
 9863POPC   C1B55195   4.177   0.631   6.455
 9863POPC   C2B55196   4.135   0.627   6.755
 9863POPC   C3B55197   4.167   0.605   7.055
 9863POPC   C4B55198   4.137   0.613   7.355
 9864POPC   NC355199  40.046   1.188   5.555
 9864POPC   PO455200  40.036   1.258   5.855
 9864POPC   GL155201  39.994   1.166   6.155
 9864POPC   GL255202  39.951   1.265   6.155
 9864POPC   C1A55203  40.055   1.175   6.455
 9864POPC   D2A55204  39.958   1.212   6.755
 9864POPC   C3A55205  39.978   1.233   7.055
 9864POPC   C4A55206  40.013   1.185   7.355
 9864POPC   C1B55207  39.865   1.446   6.455
 9864POPC   C2B55208  39.834   1.357   6.755
 9864POPC   C3B55209  39.831   1.401   7.055
 9864POPC   C4B55210  39.832   1.375   7.355
 9865POPC   NC355211  43.122  41.565   5.555
 9865POPC   PO455212  43.152  41.602   5.855
 9865POPC   GL155213  43.130  41.561   6.155
 9865POPC   GL255214  42.967  41.485   6.155
 9865POPC   C1A55215  43.069  41.587   6.455
 9865POPC   D2A55216  43.072  41.605   6.755
 9865POPC   C3A55217  43.070  41.549   7.055
 9865POPC   C4A55218  43.084  41.544   7.355
 9865POPC   C1B55219  42.831  41.487   6.455
 9865POPC   C2B55220  42.918  41.502   6.755
 9865POPC   C3B55221  42.833  41.436   7.055
 9865POPC   C4B55222  42.867  41.457   7.355
 9866POPC   NC355223  21.422  36.895   5.555
 9866POPC   PO455224  21.357  36.917   5.855
 9866POPC   GL155225  21.436  36.900   6.155
 9866POPC   GL255226  21.517  36.976   6.155
 9866POPC   C1A55227  21.338  36.876   6.455
 9866POPC   D2A55228  21.362  36.953   6.755
 9866POPC   C3A55229  21.351  36.944   7.055
 9866POPC   C4A55230  21.361  36.854   7.355
 9866POPC   C1B55231  21.612  36.921   6.455
 9866POPC   C2B55232  21.648  36.973   6.755
 9866POPC   C3B55233  21.607  37.001   7.055
 9866POPC   C4B55234  21.607  36.931   7.355
 9867POPC   NC355235  34.582  43.841   5.555
 9867POPC   PO455236  34.600  43.878   5.855
 9867POPC   GL155237  34.593  43.874   6.155
 9867POPC   GL255238  34.523  44.022   6.155
 9867POPC   C1A55239  34.587  43.879   6.455
 9867POPC   D2A55240  34.553  43.928   6.755
 9867POPC   C3A55241  34.596  43.848   7.055
 9867POPC   C4A55242  34.609  43.848   7.355
 9867POPC   C1B55243  34.521  44.102   6.455
 9867POPC   C2B55244  34.454  44.101   6.755
 9867POPC   C3B55245  34.514  44.127   7.055
 9867POPC   C4B55246  34.503  44.118   7.355
 9868POPC   NC355247  36.899  31.488   5.555
 9868POPC   PO455248  36.893  31.518   5.855
 9868POPC   GL155249  36.902  31.427   6.155
 9868POPC   GL255250  36.738  31.415   6.155
 9868POPC   C1A55251  36.907  31.488   6.455
 9868POPC   D2A55252  36.904  31.506   6.755
 9868POPC   C3A55253  36.948  31.446   7.055
 9868POPC   C4A55254  36.941  31.476   7.355
 9868POPC   C1B55255  36.633  31.361   6.455
 9868POPC   C2B55256  36.676  31.441   6.755
 9868POPC   C3B55257  36.640  31.397   7.055
 9868POPC   C4B55258  36.697  31.401   7.355
 9869POPC   NC355259  30.698   4.280   5.555
 9869POPC   PO455260  30.721   4.366   5.855
 9869POPC   GL155261  30.727   4.284   6.155
 9869POPC   GL255262  30.778   4.202   6.155
 9869POPC   C1A55263  30.687   4.311   6.455
 9869POPC   D2A55264  30.664   4.283   6.755
 9869POPC   C3A55265  30.679   4.268   7.055
 9869POPC   C4A55266  30.674   4.359   7.355
 9869POPC   C1B55267  30.938   4.225   6.455
 9869POPC   C2B55268  30.902   4.177   6.755
 9869POPC   C3B55269  30.942   4.216   7.055
 9869POPC   C4B55270  30.912   4.166   7.355
 9870POPC   NC355271  30.714  36.169   5.555
 9870POPC   PO455272  30.735  36.095   5.855
 9870POPC   GL155273  30.679  36.086   6.155
 9870POPC   GL255274  30.845  36.074   6.155
 9870POPC   C1A55275  30.663  36.158   6.455
 9870POPC   D2A55276  30.684  36.098   6.755
 9870POPC   C3A55277  30.746  36.130   7.055
 9870POPC   C4A55278  30.701  36.082   7.355
 9870POPC   C1B55279  30.912  35.984   6.455
 9870POPC   C2B55280  30.893  36.039   6.755
 9870POPC   C3B55281  30.915  36.000   7.055
 9870POPC   C4B55282  30.921  35.973   7.355
 9871POPC   NC355283  12.067  32.238   5.555
 9871POPC   PO455284  12.102  32.217   5.855
 9871POPC   GL155285  12.042  32.199   6.155
 9871POPC   GL255286  11.946  32.344   6.155
 9871POPC   C1A55287  12.108  32.265   6.455
 9871POPC   D2A55288  12.100  32.285   6.755
 9871POPC   C3A55289  12.079  32.260   7.055
 9871POPC   C4A55290  12.081  32.257   7.355
 9871POPC   C1B55291  11.872  32.470   6.455
 9871POPC   C2B55292  11.932  32.399   6.755
 9871POPC   C3B55293  11.872  32.464   7.055
 9871POPC   C4B55294  11.947  32.481   7.355
 9872POPC   NC355295  43.103   5.881   5.555
 9872POPC   PO455296  43.116   5.830   5.855
 9872POPC   GL155297  43.132   5.905   6.155
 9872POPC   GL255298  43.051   5.759   6.155
 9872POPC   C1A55299  43.108   5.866   6.455
 9872POPC   D2A55300  43.097   5.900   6.755
 9872POPC   C3A55301  43.067   5.902   7.055
 9872POPC   C4A55302  43.114   5.913   7.355
 9872POPC   C1B55303  42.980   5.668   6.455
 9872POPC   C2B55304  43.041   5.591   6.755
 9872POPC   C3B55305  43.031   5.667   7.055
 9872POPC   C4B55306  43.054   5.617   7.355
 9873POPC   NC355307  13.645   0.413   5.555
 9873POPC   PO455308  13.667   0.389   5.855
 9873POPC   GL155309  13.636   0.470   6.155
 9873POPC   GL255310  13.712   0.474   6.155
 9873POPC   C1A55311  13.585   0.439   6.455
 9873POPC   D2A55312  13.642   0.393   6.755
 9873POPC   C3A55313  13.640   0.404   7.055
 9873POPC   C4A55314  13.646   0.399   7.355
 9873POPC   C1B55315  13.845   0.525   6.455
 9873POPC   C2B55316  13.833   0.471   6.755
 9873POPC   C3B55317  13.872   0.510   7.055
 9873POPC   C4B55318  13.925   0.493   7.355
 9874POPC   NC355319  28.368  12.102   5.555
 9874POPC   PO455320  28.329  12.098   5.855
 9874POPC   GL155321  28.393  12.067   6.155
 9874POPC   GL255322  28.288  12.165   6.155
 9874POPC   C1A55323  28.348  12.074   6.455
 9874POPC   D2A55324  28.368  12.111   6.755
 9874POPC   C3A55325  28.410  12.085   7.055
 9874POPC   C4A55326  28.391  12.109   7.355
 9874POPC   C1B55327  28.289  12.333   6.455
 9874POPC   C2B55328  28.283  12.300   6.755
 9874POPC   C3B55329  28.222  12.260   7.055
 9874POPC   C4B55330  28.247  12.263   7.355
 9875POPC   NC355331  13.671  36.904   5.555
 9875POPC   PO455332  13.670  36.874   5.855
 9875POPC   GL155333  13.602  36.857   6.155
 9875POPC   GL255334  13.721  36.840   6.155
 9875POPC   C1A55335  13.640  36.953   6.455
 9875POPC   D2A55336  13.623  36.898   6.755
 9875POPC   C3A55337  13.581  36.893   7.055
 9875POPC   C4A55338  13.671  36.872   7.355
 9875POPC   C1B55339  13.899  36.840   6.455
 9875POPC   C2B55340  13.862  36.874   6.755
 9875POPC   C3B55341  13.861  36.868   7.055
 9875POPC   C4B55342  13.902  36.839   7.355
 9876POPC   NC355343  43.921   2.804   5.555
 9876POPC   PO455344  43.909   2.719   5.855
 9876POPC   GL155345  43.880   2.742   6.155
 9876POPC   GL255346  43.846   2.870   6.155
 9876POPC   C1A55347  43.850   2.794   6.455
 9876POPC   D2A55348  43.889   2.725   6.755
 9876POPC   C3A55349  43.904   2.745   7.055
 9876POPC   C4A55350  43.920   2.729   7.355
 9876POPC   C1B55351  43.813   3.019   6.455
 9876POPC   C2B55352  43.759   3.025   6.755
 9876POPC   C3B55353  43.739   2.967   7.055
 9876POPC   C4B55354  43.813   2.986   7.355
 9877POPC   NC355355  20.603   2.742   5.555
 9877POPC   PO455356  20.592   2.767   5.855
 9877POPC   GL155357  20.659   2.729   6.155
 9877POPC   GL255358  20.468   2.708   6.155
 9877POPC   C1A55359  20.648   2.767   6.455
 9877POPC   D2A55360  20.650   2.767   6.755
 9877POPC   C3A55361  20.641   2.763   7.055
 9877POPC   C4A55362  20.644   2.756   7.355
 9877POPC   C1B55363  20.392   2.767   6.455
 9877POPC   C2B55364  20.370   2.727   6.755
 9877POPC   C3B55365  20.351   2.714   7.055
 9877POPC   C4B55366  20.406   2.741   7.355
 9878POPC   NC355367  41.556   7.427   5.555
 9878POPC   PO455368  41.576   7.391   5.855
 9878POPC   GL155369  41.566   7.393   6.155
 9878POPC   GL255370  41.460   7.298   6.155
 9878POPC   C1A55371  41.543   7.460   6.455
 9878POPC   D2A55372  41.513   7.454   6.755
 9878POPC   C3A55373  41.573   7.390   7.055
 9878POPC   C4A55374  41.585   7.470   7.355
 9878POPC   C1B55375  41.336   7.238   6.455
 9878POPC   C2B55376  41.339   7.227   6.755
 9878POPC   C3B55377  41.371   7.274   7.055
 9878POPC   C4B55378  41.352   7.269   7.355
 9879POPC   NC355379  35.380  19.072   5.555
 9879POPC   PO455380  35.321  19.061   5.855
 9879POPC   GL155381  35.376  19.046   6.155
 9879POPC   GL255382  35.315  19.132   6.155
 9879POPC   C1A55383  35.383  19.081   6.455
 9879POPC   D2A55384  35.401  19.024   6.755
 9879POPC   C3A55385  35.362  19.104   7.055
 9879POPC   C4A55386  35.328  19.039   7.355
 9879POPC   C1B55387  35.249  19.322   6.455
 9879POPC   C2B55388  35.265  19.264   6.755
 9879POPC   C3B55389  35.280  19.340   7.055
 9879POPC   C4B55390  35.299  19.288   7.355
 9880POPC   NC355391   8.943  11.320   5.555
 9880POPC   PO455392   8.966  11.294   5.855
 9880POPC   GL155393   8.983  11.305   6.155
 9880POPC   GL255394   9.041  11.146   6.155
 9880POPC   C1A55395   8.924  11.349   6.455
 9880POPC   D2A55396   8.927  11.283   6.755
 9880POPC   C3A55397   8.968  11.317   7.055
 9880POPC   C4A55398   8.988  11.336   7.355
 9880POPC   C1B55399   9.066  11.090   6.455
 9880POPC   C2B55400   9.081  11.095   6.755
 9880POPC   C3B55401   9.097  11.032   7.055
 9880POPC   C4B55402   9.099  11.100   7.355
 9881POPC   NC355403  22.178  43.154   5.555
 9881POPC   PO455404  22.205  43.135   5.855
 9881POPC   GL155405  22.199  43.061   6.155
 9881POPC   GL255406  21.992  43.093   6.155
 9881POPC   C1A55407  22.158  43.138   6.455
 9881POPC   D2A55408  22.188  43.070   6.755
 9881POPC   C3A55409  22.169  43.141   7.055
 9881POPC   C4A55410  22.113  43.123   7.355
 9881POPC   C1B55411  21.947  43.079   6.455
 9881POPC   C2B55412  21.863  43.130   6.755
 9881POPC   C3B55413  21.938  43.152   7.055
 9881POPC   C4B55414  21.943  43.078   7.355
 9882POPC   NC355415  43.881  29.943   5.555
 9882POPC   PO455416  43.874  29.960   5.855
 9882POPC   GL155417  43.906  29.924   6.155
 9882POPC   GL255418  43.945  29.884   6.155
 9882POPC   C1A55419  43.891  29.946   6.455
 9882POPC   D2A55420  43.873  29.969   6.755
 9882POPC   C3A55421  43.881  29.912   7.055
 9882POPC   C4A55422  43.895  29.944   7.355
 9882POPC   C1B55423  44.087  29.749   6.455
 9882POPC   C2B55424  44.046  29.796   6.755
 9882POPC   C3B55425  44.037  29.738   7.055
 9882POPC   C4B55426  44.044  29.757   7.355
 9883POPC   NC355427  33.753   3.583   5.555
 9883POPC   PO455428  33.800   3.532   5.855
 9883POPC   GL155429  33.828   3.563   6.155
 9883POPC   GL255430  33.971   3.490   6.155
 9883POPC   C1A55431  33.787   3.526   6.455
 9883POPC   D2A55432  33.823   3.577   6.755
 9883POPC   C3A55433  33.778   3.537   7.055
 9883POPC   C4A55434  33.836   3.529   7.355
 9883POPC   C1B55435  34.041   3.516   6.455
 9883POPC   C2B55436  34.068   3.504   6.755
 9883POPC   C3B55437  34.028   3.535   7.055
 9883POPC   C4B55438  34.049   3.496   7.355
 9884POPC   NC355439  32.220  39.269   5.555
 9884POPC   PO455440  32.245  39.194   5.855
 9884POPC   GL155441  32.222  39.245   6.155
 9884POPC   GL255442  32.342  39.199   6.155
 9884POPC   C1A55443  32.223  39.219   6.455
 9884POPC   D2A55444  32.212  39.203   6.755
 9884POPC   C3A55445  32.251  39.183   7.055
 9884POPC   C4A55446  32.253  39.215   7.355
 9884POPC   C1B55447  32.463  39.221   6.455
 9884POPC   C2B55448  32.480  39.244   6.755
 9884POPC   C3B55449  32.452  39.209   7.055
 9884POPC   C4B55450  32.454  39.223   7.355
 9885POPC   NC355451   1.984  15.977   5.555
 9885POPC   PO455452   2.033  15.919   5.855
 9885POPC   GL155453   1.969  15.912   6.155
 9885POPC   GL255454   2.032  15.799   6.155
 9885POPC   C1A55455   2.010  15.997   6.455
 9885POPC   D2A55456   2.030  15.908   6.755
 9885POPC   C3A55457   2.035  15.970   7.055
 9885POPC   C4A55458   1.993  15.916   7.355
 9885POPC   C1B55459   2.013  15.736   6.455
 9885POPC   C2B55460   1.990  15.703   6.755
 9885POPC   C3B55461   2.014  15.713   7.055
 9885POPC   C4B55462   2.016  15.733   7.355
 9886POPC   NC355463  22.960  21.384   5.555
 9886POPC   PO455464  22.938  21.387   5.855
 9886POPC   GL155465  22.892  21.393   6.155
 9886POPC   GL255466  22.924  21.284   6.155
 9886POPC   C1A55467  22.981  21.337   6.455
 9886POPC   D2A55468  22.977  21.358   6.755
 9886POPC   C3A55469  22.903  21.404   7.055
 9886POPC   C4A55470  22.916  21.382   7.355
 9886POPC   C1B55471  22.836  21.124   6.455
 9886POPC   C2B55472  22.911  21.187   6.755
 9886POPC   C3B55473  22.895  21.133   7.055
 9886POPC   C4B55474  22.824  21.129   7.355
 9887POPC   NC355475  43.898  40.809   5.555
 9887POPC   PO455476  43.860  40.797   5.855
 9887POPC   GL155477  43.863  40.828   6.155
 9887POPC   GL255478  43.984  40.797   6.155
 9887POPC   C1A55479  43.893  40.754   6.455
 9887POPC   D2A55480  43.858  40.796   6.755
 9887POPC   C3A55481  43.864  40.737   7.055
 9887POPC   C4A55482  43.868  40.770   7.355
 9887POPC   C1B55483  44.151  40.775   6.455
 9887POPC   C2B55484  44.145  40.780   6.755
 9887POPC   C3B55485  44.096  40.775   7.055
 9887POPC   C4B55486  44.099  40.767   7.355
 9888POPC   NC355487   2.008  43.092   5.555
 9888POPC   PO455488   2.001  43.126   5.855
 9888POPC   GL155489   1.980  43.087   6.155
 9888POPC   GL255490   2.067  43.223   6.155
 9888POPC   C1A55491   2.006  43.088   6.455
 9888POPC   D2A55492   1.996  43.098   6.755
 9888POPC   C3A55493   1.946  43.111   7.055
 9888POPC   C4A55494   2.009  43.096   7.355
 9888POPC   C1B55495   2.077  43.338   6.455
 9888POPC   C2B55496   2.066  43.395   6.755
 9888POPC   C3B55497   2.075  43.380   7.055
 9888POPC   C4B55498   2.100  43.381   7.355
 9889POPC   NC355499   9.748  15.154   5.555
 9889POPC   PO455500   9.731  15.201   5.855
 9889POPC   GL155501   9.759  15.183   6.155
 9889POPC   GL255502   9.726  15.275   6.155
 9889POPC   C1A55503   9.724  15.190   6.455
 9889POPC   D2A55504   9.760  15.205   6.755
 9889POPC   C3A55505   9.709  15.165   7.055
 9889POPC   C4A55506   9.768  15.166   7.355
 9889POPC   C1B55507   9.703  15.448   6.455
 9889POPC   C2B55508   9.703  15.475   6.755
 9889POPC   C3B55509   9.749  15.410   7.055
 9889POPC   C4B55510   9.667  15.381   7.355
 9890POPC   NC355511   5.047  22.124   5.555
 9890POPC   PO455512   5.046  22.177   5.855
 9890POPC   GL155513   5.057  22.137   6.155
 9890POPC   GL255514   5.203  22.272   6.155
 9890POPC   C1A55515   5.099  22.127   6.455
 9890POPC   D2A55516   5.110  22.125   6.755
 9890POPC   C3A55517   5.112  22.204   7.055
 9890POPC   C4A55518   5.097  22.167   7.355
 9890POPC   C1B55519   5.342  22.322   6.455
 9890POPC   C2B55520   5.309  22.256   6.755
 9890POPC   C3B55521   5.300  22.300   7.055
 9890POPC   C4B55522   5.344  22.307   7.355
 9891POPC   NC355523  21.392   7.446   5.555
 9891POPC   PO455524  21.426   7.461   5.855
 9891POPC   GL155525  21.367   7.441   6.155
 9891POPC   GL255526  21.311   7.353   6.155
 9891POPC   C1A55527  21.354   7.416   6.455
 9891POPC   D2A55528  21.354   7.385   6.755
 9891POPC   C3A55529  21.337   7.457   7.055
 9891POPC   C4A55530  21.383   7.468   7.355
 9891POPC   C1B55531  21.138   7.271   6.455
 9891POPC   C2B55532  21.183   7.317   6.755
 9891POPC   C3B55533  21.206   7.309   7.055
 9891POPC   C4B55534  21.214   7.271   7.355
 9892POPC   NC355535  29.146  14.440   5.555
 9892POPC   PO455536  29.170  14.404   5.855
 9892POPC   GL155537  29.157  14.356   6.155
 9892POPC   GL255538  29.093  14.553   6.155
 9892POPC   C1A55539  29.155  14.398   6.455
 9892POPC   D2A55540  29.096  14.389   6.755
 9892POPC   C3A55541  29.176  14.355   7.055
 9892POPC   C4A55542  29.187  14.375   7.355
 9892POPC   C1B55543  29.049  14.661   6.455
 9892POPC   C2B55544  29.077  14.674   6.755
 9892POPC   C3B55545  29.066  14.644   7.055
 9892POPC   C4B55546  29.028  14.630   7.355
 9893POPC   NC355547  37.706  40.782   5.555
 9893POPC   PO455548  37.669  40.804   5.855
 9893POPC   GL155549  37.645  40.775   6.155
 9893POPC   GL255550  37.598  40.889   6.155
 9893POPC   C1A55551  37.635  40.762   6.455
 9893POPC   D2A55552  37.698  40.782   6.755
 9893POPC   C3A55553  37.663  40.801   7.055
 9893POPC   C4A55554  37.663  40.783   7.355
 9893POPC   C1B55555  37.567  41.027   6.455
 9893POPC   C2B55556  37.548  40.964   6.755
 9893POPC   C3B55557  37.496  41.025   7.055
 9893POPC   C4B55558  37.489  40.994   7.355
 9894POPC   NC355559   5.058   1.255   5.555
 9894POPC   PO455560   5.123   1.258   5.855
 9894POPC   GL155561   5.090   1.187   6.155
 9894POPC   GL255562   5.027   1.294   6.155
 9894POPC   C1A55563   5.128   1.243   6.455
 9894POPC   D2A55564   5.104   1.218   6.755
 9894POPC   C3A55565   5.121   1.262   7.055
 9894POPC   C4A55566   5.129   1.248   7.355
 9894POPC   C1B55567   4.946   1.438   6.455
 9894POPC   C2B55568   4.978   1.440   6.755
 9894POPC   C3B55569   4.976   1.480   7.055
 9894POPC   C4B55570   4.944   1.443   7.355
 9895POPC   NC355571  36.109  43.100   5.555
 9895POPC   PO455572  36.149  43.089   5.855
 9895POPC   GL155573  36.113  43.130   6.155
 9895POPC   GL255574  36.071  43.194   6.155
 9895POPC   C1A55575  36.156  43.146   6.455
 9895POPC   D2A55576  36.078  43.140   6.755
 9895POPC   C3A55577  36.088  43.093   7.055
 9895POPC   C4A55578  36.159  43.145   7.355
 9895POPC   C1B55579  35.947  43.329   6.455
 9895POPC   C2B55580  35.947  43.277   6.755
 9895POPC   C3B55581  35.918  43.288   7.055
 9895POPC   C4B55582  35.952  43.293   7.355
 9896POPC   NC355583  29.948  17.552   5.555
 9896POPC   PO455584  29.895  17.552   5.855
 9896POPC   GL155585  29.965  17.474   6.155
 9896POPC   GL255586  29.916  17.634   6.155
 9896POPC   C1A55587  29.899  17.477   6.455
 9896POPC   D2A55588  29.879  17.520   6.755
 9896POPC   C3A55589  29.871  17.540   7.055
 9896POPC   C4A55590  29.955  17.499   7.355
 9896POPC   C1B55591  29.967  17.751   6.455
 9896POPC   C2B55592  30.043  17.697   6.755
 9896POPC   C3B55593  29.986  17.774   7.055
 9896POPC   C4B55594  29.982  17.791   7.355
 9897POPC   NC355595  19.805   1.945   5.555
 9897POPC   PO455596  19.810   2.033   5.855
 9897POPC   GL155597  19.884   2.002   6.155
 9897POPC   GL255598  19.997   2.019   6.155
 9897POPC   C1A55599  19.797   1.945   6.455
 9897POPC   D2A55600  19.856   2.028   6.755
 9897POPC   C3A55601  19.863   2.013   7.055
 9897POPC   C4A55602  19.864   1.964   7.355
 9897POPC   C1B55603  20.051   2.024   6.455
 9897POPC   C2B55604  20.073   1.949   6.755
 9897POPC   C3B55605  20.077   1.995   7.055
 9897POPC   C4B55606  20.082   1.977   7.355
 9898POPC   NC355607  43.064   1.947   5.555
 9898POPC   PO455608  43.131   2.010   5.855
 9898POPC   GL155609  43.141   1.977   6.155
 9898POPC   GL255610  42.942   1.959   6.155
 9898POPC   C1A55611  43.112   1.943   6.455
 9898POPC   D2A55612  43.137   2.032   6.755
 9898POPC   C3A55613  43.061   2.007   7.055
 9898POPC   C4A55614  43.147   1.951   7.355
 9898POPC   C1B55615  42.863   2.005   6.455
 9898POPC   C2B55616  42.829   1.952   6.755
 9898POPC   C3B55617  42.814   1.972   7.055
 9898POPC   C4B55618  42.864   2.007   7.355
 9899POPC   NC355619  19.106  22.943   5.555
 9899POPC   PO455620  19.013  22.909   5.855
 9899POPC   GL155621  19.019  22.932   6.155
 9899POPC   GL255622  18.966  23.065   6.155
 9899POPC   C1A55623  19.029  22.967   6.455
 9899POPC   D2A55624  19.107  22.918   6.755
 9899POPC   C3A55625  19.065  22.969   7.055
 9899POPC   C4A55626  19.036  22.945   7.355
 9899POPC   C1B55627  18.908  23.178   6.455
 9899POPC   C2B55628  18.930  23.166   6.755
 9899POPC   C3B55629  18.952  23.147   7.055
 9899POPC   C4B55630  18.890  23.102   7.355
 9900POPC   NC355631  31.506  29.952   5.555
 9900POPC   PO455632  31.442  29.906   5.855
 9900POPC   GL155633  31.491  29.955   6.155
 9900POPC   GL255634  31.488  30.039   6.155
 9900POPC   C1A55635  31.476  29.912   6.455
 9900POPC   D2A55636  31.423  29.928   6.755
 9900POPC   C3A55637  31.436  29.904   7.055
 9900POPC   C4A55638  31.449  29.951   7.355
 9900POPC   C1B55639  31.409  30.206   6.455
 9900POPC   C2B55640  31.450  30.153   6.755
 9900POPC   C3B55641  31.468  30.215   7.055
 9900POPC   C4B55642  31.465  30.186   7.355
 9901POPC   NC355643  26.016   6.623   5.555
 9901POPC   PO455644  26.045   6.647   5.855
 9901POPC   GL155645  26.033   6.624   6.155
 9901POPC   GL255646  26.064   6.723   6.155
 9901POPC   C1A55647  26.037   6.635   6.455
 9901POPC   D2A55648  26.062   6.678   6.755
 9901POPC   C3A55649  26.006   6.693   7.055
 9901POPC   C4A55650  26.047   6.678   7.355
 9901POPC   C1B55651  26.119   6.870   6.455
 9901POPC   C2B55652  26.172   6.887   6.755
 9901POPC   C3B55653  26.125   6.826   7.055
 9901POPC   C4B55654  26.176   6.906   7.355
 9902POPC   NC355655  26.005  36.894   5.555
 9902POPC   PO455656  26.073  36.858   5.855
 9902POPC   GL155657  25.992  36.872   6.155
 9902POPC   GL255658  26.197  36.940   6.155
 9902POPC   C1A55659  26.067  36.856   6.455
 9902POPC   D2A55660  26.064  36.895   6.755
 9902POPC   C3A55661  26.067  36.949   7.055
 9902POPC   C4A55662  26.015  36.947   7.355
 9902POPC   C1B55663  26.269  36.998   6.455
 9902POPC   C2B55664  26.279  37.006   6.755
 9902POPC   C3B55665  26.267  36.965   7.055
 9902POPC   C4B55666  26.308  36.973   7.355
 9903POPC   NC355667   7.402  23.685   5.555
 9903POPC   PO455668   7.432  23.672   5.855
 9903POPC   GL155669   7.397  23.668   6.155
 9903POPC   GL255670   7.480  23.835   6.155
 9903POPC   C1A55671   7.397  23.735   6.455
 9903POPC   D2A55672   7.445  23.735   6.755
 9903POPC   C3A55673   7.411  23.689   7.055
 9903POPC   C4A55674   7.410  23.684   7.355
 9903POPC   C1B55675   7.586  23.876   6.455
 9903POPC   C2B55676   7.650  23.858   6.755
 9903POPC   C3B55677   7.575  23.830   7.055
 9903POPC   C4B55678   7.659  23.845   7.355
 9904POPC   NC355679   0.484   8.997   5.555
 9904POPC   PO455680   0.424   8.938   5.855
 9904POPC   GL155681   0.391   8.998   6.155
 9904POPC   GL255682   0.509   9.101   6.155
 9904POPC   C1A55683   0.417   8.993   6.455
 9904POPC   D2A55684   0.407   8.942   6.755
 9904POPC   C3A55685   0.446   8.925   7.055
 9904POPC   C4A55686   0.428   8.937   7.355
 9904POPC   C1B55687   0.553   9.159   6.455
 9904POPC   C2B55688   0.577   9.180   6.755
 9904POPC   C3B55689   0.524   9.182   7.055
 9904POPC   C4B55690   0.484   9.253   7.355
 9905POPC   NC355691  10.511  19.104   5.555
 9905POPC   PO455692  10.568  19.028   5.855
 9905POPC   GL155693  10.539  19.073   6.155
 9905POPC   GL255694  10.537  18.984   6.155
 9905POPC   C1A55695  10.559  19.049   6.455
 9905POPC   D2A55696  10.546  19.107   6.755
 9905POPC   C3A55697  10.559  19.098   7.055
 9905POPC   C4A55698  10.537  19.100   7.355
 9905POPC   C1B55699  10.489  18.846   6.455
 9905POPC   C2B55700  10.471  18.764   6.755
 9905POPC   C3B55701  10.471  18.862   7.055
 9905POPC   C4B55702  10.437  18.805   7.355
 9906POPC   NC355703  25.230  25.995   5.555
 9906POPC   PO455704  25.275  26.011   5.855
 9906POPC   GL155705  25.221  26.026   6.155
 9906POPC   GL255706  25.149  26.138   6.155
 9906POPC   C1A55707  25.250  26.034   6.455
 9906POPC   D2A55708  25.259  26.010   6.755
 9906POPC   C3A55709  25.246  26.001   7.055
 9906POPC   C4A55710  25.313  25.998   7.355
 9906POPC   C1B55711  25.092  26.230   6.455
 9906POPC   C2B55712  25.053  26.228   6.755
 9906POPC   C3B55713  25.096  26.198   7.055
 9906POPC   C4B55714  25.133  26.247   7.355
 9907POPC   NC355715  19.811  14.363   5.555
 9907POPC   PO455716  19.788  14.361   5.855
 9907POPC   GL155717  19.845  14.452   6.155
 9907POPC   GL255718  19.793  14.289   6.155
 9907POPC   C1A55719  19.805  14.374   6.455
 9907POPC   D2A55720  19.870  14.378   6.755
 9907POPC   C3A55721  19.826  14.425   7.055
 9907POPC   C4A55722  19.825  14.362   7.355
 9907POPC   C1B55723  19.736  14.199   6.455
 9907POPC   C2B55724  19.725  14.172   6.755
 9907POPC   C3B55725  19.780  14.194   7.055
 9907POPC   C4B55726  19.770  14.189   7.355
 9908POPC   NC355727  36.095  36.937   5.555
 9908POPC   PO455728  36.132  36.885   5.855
 9908POPC   GL155729  36.128  36.920   6.155
 9908POPC   GL255730  36.087  36.850   6.155
 9908POPC   C1A55731  36.138  36.949   6.455
 9908POPC   D2A55732  36.158  36.871   6.755
 9908POPC   C3A55733  36.150  36.948   7.055
 9908POPC   C4A55734  36.110  36.877   7.355
 9908POPC   C1B55735  35.997  36.757   6.455
 9908POPC   C2B55736  35.925  36.678   6.755
 9908POPC   C3B55737  35.965  36.754   7.055
 9908POPC   C4B55738  35.986  36.754   7.355
 9909POPC   NC355739  43.095  38.498   5.555
 9909POPC   PO455740  43.066  38.486   5.855
 9909POPC   GL155741  43.097  38.460   6.155
 9909POPC   GL255742  43.219  38.409   6.155
 9909POPC   C1A55743  43.104  38.476   6.455
 9909POPC   D2A55744  43.102  38.477   6.755
 9909POPC   C3A55745  43.147  38.473   7.055
 9909POPC   C4A55746  43.119  38.484   7.355
 9909POPC   C1B55747  43.296  38.320   6.455
 9909POPC   C2B55748  43.350  38.279   6.755
 9909POPC   C3B55749  43.306  38.333   7.055
 9909POPC   C4B55750  43.271  38.271   7.355
 9910POPC   NC355751   5.831  44.662   5.555
 9910POPC   PO455752   5.825  44.694   5.855
 9910POPC   GL155753   5.863  44.696   6.155
 9910POPC   GL255754   5.834  44.831   6.155
 9910POPC   C1A55755   5.827  44.633   6.455
 9910POPC   D2A55756   5.832  44.662   6.755
 9910POPC   C3A55757   5.836  44.705   7.055
 9910POPC   C4A55758   5.886  44.635   7.355
 9910POPC   C1B55759   5.924  44.879   6.455
 9910POPC   C2B55760   5.859  44.862   6.755
 9910POPC   C3B55761   5.922  44.954   7.055
 9910POPC   C4B55762   5.850  44.871   7.355
 9911POPC   NC355763  37.656  40.004   5.555
 9911POPC   PO455764  37.704  39.975   5.855
 9911POPC   GL155765  37.646  40.034   6.155
 9911POPC   GL255766  37.627  39.919   6.155
 9911POPC   C1A55767  37.630  40.002   6.455
 9911POPC   D2A55768  37.637  39.983   6.755
 9911POPC   C3A55769  37.692  39.973   7.055
 9911POPC   C4A55770  37.688  39.974   7.355
 9911POPC   C1B55771  37.576  39.782   6.455
 9911POPC   C2B55772  37.570  39.742   6.755
 9911POPC   C3B55773  37.566  39.807   7.055
 9911POPC   C4B55774  37.553  39.763   7.355
 9912POPC   NC355775   5.130  41.546   5.555
 9912POPC   PO455776   5.109  41.586   5.855
 9912POPC   GL155777   5.093  41.573   6.155
 9912POPC   GL255778   4.975  41.582   6.155
 9912POPC   C1A55779   5.066  41.574   6.455
 9912POPC   D2A55780   5.091  41.510   6.755
 9912POPC   C3A55781   5.078  41.565   7.055
 9912POPC   C4A55782   5.120  41.550   7.355
 9912POPC   C1B55783   4.889  41.635   6.455
 9912POPC   C2B55784   4.854  41.675   6.755
 9912POPC   C3B55785   4.882  41.651   7.055
 9912POPC   C4B55786   4.878  41.650   7.355
 9913POPC   NC355787   2.739  15.184   5.555
 9913POPC   PO455788   2.796  15.132   5.855
 9913POPC   GL155789   2.814  15.227   6.155
 9913POPC   GL255790   2.671  15.191   6.155
 9913POPC   C1A55791   2.799  15.215   6.455
 9913POPC   D2A55792   2.799  15.217   6.755
 9913POPC   C3A55793   2.778  15.140   7.055
 9913POPC   C4A55794   2.751  15.164   7.355
 9913POPC   C1B55795   2.490  15.206   6.455
 9913POPC   C2B55796   2.556  15.193   6.755
 9913POPC   C3B55797   2.511  15.215   7.055
 9913POPC   C4B55798   2.486  15.240   7.355
 9914POPC   NC355799  15.225  44.631   5.555
 9914POPC   PO455800  15.174  44.633   5.855
 9914POPC   GL155801  15.193  44.654   6.155
 9914POPC   GL255802  15.127  44.602   6.155
 9914POPC   C1A55803  15.222  44.663   6.455
 9914POPC   D2A55804  15.132  44.712   6.755
 9914POPC   C3A55805  15.177  44.651   7.055
 9914POPC   C4A55806  15.154  44.684   7.355
 9914POPC   C1B55807  15.032  44.460   6.455
 9914POPC   C2B55808  15.043  44.465   6.755
 9914POPC   C3B55809  15.006  44.411   7.055
 9914POPC   C4B55810  15.057  44.426   7.355
 9915POPC   NC355811  27.590  33.826   5.555
 9915POPC   PO455812  27.592  33.755   5.855
 9915POPC   GL155813  27.629  33.794   6.155
 9915POPC   GL255814  27.577  33.964   6.155
 9915POPC   C1A55815  27.564  33.758   6.455
 9915POPC   D2A55816  27.641  33.798   6.755
 9915POPC   C3A55817  27.594  33.753   7.055
 9915POPC   C4A55818  27.624  33.837   7.355
 9915POPC   C1B55819  27.601  34.060   6.455
 9915POPC   C2B55820  27.577  34.029   6.755
 9915POPC   C3B55821  27.536  34.033   7.055
 9915POPC   C4B55822  27.539  34.038   7.355
 9916POPC   NC355823   1.989  34.589   5.555
 9916POPC   PO455824   2.018  34.568   5.855
 9916POPC   GL155825   2.033  34.539   6.155
 9916POPC   GL255826   1.878  34.554   6.155
 9916POPC   C1A55827   1.993  34.543   6.455
 9916POPC   D2A55828   2.028  34.565   6.755
 9916POPC   C3A55829   1.975  34.569   7.055
 9916POPC   C4A55830   1.952  34.607   7.355
 9916POPC   C1B55831   1.702  34.562   6.455
 9916POPC   C2B55832   1.788  34.548   6.755
 9916POPC   C3B55833   1.694  34.567   7.055
 9916POPC   C4B55834   1.737  34.631   7.355
 9917POPC   NC355835  43.897  31.488   5.555
 9917POPC   PO455836  43.841  31.436   5.855
 9917POPC   GL155837  43.920  31.518   6.155
 9917POPC   GL255838  44.023  31.568   6.155
 9917POPC   C1A55839  43.884  31.471   6.455
 9917POPC   D2A55840  43.904  31.454   6.755
 9917POPC   C3A55841  43.875  31.454   7.055
 9917POPC   C4A55842  43.894  31.465   7.355
 9917POPC   C1B55843  44.105  31.663   6.455
 9917POPC   C2B55844  44.051  31.574   6.755
 9917POPC   C3B55845  44.083  31.591   7.055
 9917POPC   C4B55846  44.043  31.640   7.355
 9918POPC   NC355847  27.629  38.479   5.555
 9918POPC   PO455848  27.551  38.477   5.855
 9918POPC   GL155849  27.589  38.468   6.155
 9918POPC   GL255850  27.637  38.551   6.155
 9918POPC   C1A55851  27.601  38.481   6.455
 9918POPC   D2A55852  27.574  38.408   6.755
 9918POPC   C3A55853  27.618  38.431   7.055
 9918POPC   C4A55854  27.563  38.418   7.355
 9918POPC   C1B55855  27.743  38.646   6.455
 9918POPC   C2B55856  27.790  38.596   6.755
 9918POPC   C3B55857  27.732  38.647   7.055
 9918POPC   C4B55858  27.745  38.587   7.355
 9919POPC   NC355859  29.915  21.352   5.555
 9919POPC   PO455860  29.949  21.424   5.855
 9919POPC   GL155861  29.963  21.405   6.155
 9919POPC   GL255862  30.060  21.290   6.155
 9919POPC   C1A55863  29.892  21.388   6.455
 9919POPC   D2A55864  29.963  21.351   6.755
 9919POPC   C3A55865  29.902  21.382   7.055
 9919POPC   C4A55866  29.949  21.403   7.355
 9919POPC   C1B55867  30.166  21.224   6.455
 9919POPC   C2B55868  30.141  21.288   6.755
 9919POPC   C3B55869  30.168  21.309   7.055
 9919POPC   C4B55870  30.190  21.281   7.355
 9920POPC   NC355871  10.518  16.721   5.555
 9920POPC   PO455872  10.545  16.753   5.855
 9920POPC   GL155873  10.475  16.696   6.155
 9920POPC   GL255874  10.590  16.793   6.155
 9920POPC   C1A55875  10.524  16.705   6.455
 9920POPC   D2A55876  10.519  16.741   6.755
 9920POPC   C3A55877  10.550  16.753   7.055
 9920POPC   C4A55878  10.501  16.779   7.355
 9920POPC   C1B55879  10.716  16.890   6.455
 9920POPC   C2B55880  10.675  16.884   6.755
 9920POPC   C3B55881  10.685  16.913   7.055
 9920POPC   C4B55882  10.665  16.908   7.355
 9921POPC   NC355883  38.436  29.136   5.555
 9921POPC   PO455884  38.428  29.132   5.855
 9921POPC   GL155885  38.482  29.133   6.155
 9921POPC   GL255886  38.545  29.032   6.155
 9921POPC   C1A55887  38.413  29.133   6.455
 9921POPC   D2A55888  38.417  29.137   6.755
 9921POPC   C3A55889  38.494  29.154   7.055
 9921POPC   C4A55890  38.458  29.173   7.355
 9921POPC   C1B55891  38.573  28.974   6.455
 9921POPC   C2B55892  38.648  28.992   6.755
 9921POPC   C3B55893  38.620  28.916   7.055
 9921POPC   C4B55894  38.632  28.981   7.355
 9922POPC   NC355895  19.066  27.559   5.555
 9922POPC   PO455896  19.081  27.640   5.855
 9922POPC   GL155897  19.092  27.614   6.155
 9922POPC   GL255898  19.212  27.595   6.155
 9922POPC   C1A55899  19.034  27.620   6.455
 9922POPC   D2A55900  19.040  27.622   6.755
 9922POPC   C3A55901  19.082  27.601   7.055
 9922POPC   C4A55902  19.027  27.609   7.355
 9922POPC   C1B55903  19.330  27.735   6.455
 9922POPC   C2B55904  19.317  27.673   6.755
 9922POPC   C3B55905  19.275  27.638   7.055
 9922POPC   C4B55906  19.267  27.672   7.355
 9923POPC   NC355907  44.685  22.966   5.555
 9923POPC   PO455908  44.637  22.964   5.855
 9923POPC   GL155909  44.666  22.900   6.155
 9923POPC   GL255910  44.713  22.823   6.155
 9923POPC   C1A55911  44.697  22.988   6.455
 9923POPC   D2A55912  44.624  22.939   6.755
 9923POPC   C3A55913  44.680  22.935   7.055
 9923POPC   C4A55914  44.644  22.909   7.355
 9923POPC   C1B55915  44.861  22.788   6.455
 9923POPC   C2B55916  44.811  22.750   6.755
 9923POPC   C3B55917  44.803  22.756   7.055
 9923POPC   C4B55918  44.862  22.773   7.355
 9924POPC   NC355919  29.132   6.649   5.555
 9924POPC   PO455920  29.111   6.613   5.855
 9924POPC   GL155921  29.183   6.671   6.155
 9924POPC   GL255922  28.977   6.635   6.155
 9924POPC   C1A55923  29.113   6.679   6.455
 9924POPC   D2A55924  29.163   6.684   6.755
 9924POPC   C3A55925  29.188   6.655   7.055
 9924POPC   C4A55926  29.097   6.671   7.355
 9924POPC   C1B55927  28.866   6.706   6.455
 9924POPC   C2B55928  28.901   6.683   6.755
 9924POPC   C3B55929  28.912   6.734   7.055
 9924POPC   C4B55930  28.947   6.658   7.355
 9925POPC   NC355931  42.332  12.120   5.555
 9925POPC   PO455932  42.307  12.034   5.855
 9925POPC   GL155933  42.366  12.045   6.155
 9925POPC   GL255934  42.477  12.051   6.155
 9925POPC   C1A55935  42.285  12.093   6.455
 9925POPC   D2A55936  42.310  12.077   6.755
 9925POPC   C3A55937  42.372  12.063   7.055
 9925POPC   C4A55938  42.331  12.027   7.355
 9925POPC   C1B55939  42.517  11.986   6.455
 9925POPC   C2B55940  42.529  12.026   6.755
 9925POPC   C3B55941  42.585  11.993   7.055
 9925POPC   C4B55942  42.595  11.995   7.355
 9926POPC   NC355943  27.617  35.312   5.555
 9926POPC   PO455944  27.554  35.331   5.855
 9926POPC   GL155945  27.580  35.331   6.155
 9926POPC   GL255946  27.465  35.378   6.155
 9926POPC   C1A55947  27.574  35.302   6.455
 9926POPC   D2A55948  27.630  35.308   6.755
 9926POPC   C3A55949  27.605  35.347   7.055
 9926POPC   C4A55950  27.634  35.318   7.355
 9926POPC   C1B55951  27.344  35.432   6.455
 9926POPC   C2B55952  27.356  35.518   6.755
 9926POPC   C3B55953  27.369  35.524   7.055
 9926POPC   C4B55954  27.346  35.436   7.355
 9927POPC   NC355955   0.414   4.343   5.555
 9927POPC   PO455956   0.465   4.337   5.855
 9927POPC   GL155957   0.479   4.289   6.155
 9927POPC   GL255958   0.607   4.263   6.155
 9927POPC   C1A55959   0.424   4.283   6.455
 9927POPC   D2A55960   0.466   4.343   6.755
 9927POPC   C3A55961   0.469   4.356   7.055
 9927POPC   C4A55962   0.390   4.285   7.355
 9927POPC   C1B55963   0.681   4.297   6.455
 9927POPC   C2B55964   0.640   4.231   6.755
 9927POPC   C3B55965   0.665   4.290   7.055
 9927POPC   C4B55966   0.665   4.293   7.355
 9928POPC   NC355967  22.194  24.452   5.555
 9928POPC   PO455968  22.113  24.468   5.855
 9928POPC   GL155969  22.124  24.518   6.155
 9928POPC   GL255970  22.056  24.398   6.155
 9928POPC   C1A55971  22.136  24.491   6.455
 9928POPC   D2A55972  22.124  24.509   6.755
 9928POPC   C3A55973  22.129  24.515   7.055
 9928POPC   C4A55974  22.185  24.513   7.355
 9928POPC   C1B55975  21.926  24.377   6.455
 9928POPC   C2B55976  21.946  24.364   6.755
 9928POPC   C3B55977  21.982  24.350   7.055
 9928POPC   C4B55978  22.007  24.335   7.355
 9929POPC   NC355979  12.840  21.391   5.555
 9929POPC   PO455980  12.865  21.405   5.855
 9929POPC   GL155981  12.873  21.402   6.155
 9929POPC   GL255982  12.871  21.504   6.155
 9929POPC   C1A55983  12.809  21.422   6.455
 9929POPC   D2A55984  12.846  21.360   6.755
 9929POPC   C3A55985  12.859  21.337   7.055
 9929POPC   C4A55986  12.873  21.391   7.355
 9929POPC   C1B55987  12.922  21.610   6.455
 9929POPC   C2B55988  12.904  21.637   6.755
 9929POPC   C3B55989  12.918  21.641   7.055
 9929POPC   C4B55990  12.897  21.614   7.355
 9930POPC   NC355991  39.269   8.212   5.555
 9930POPC   PO455992  39.225   8.217   5.855
 9930POPC   GL155993  39.254   8.205   6.155
 9930POPC   GL255994  39.147   8.248   6.155
 9930POPC   C1A55995  39.214   8.189   6.455
 9930POPC   D2A55996  39.227   8.191   6.755
 9930POPC   C3A55997  39.234   8.243   7.055
 9930POPC   C4A55998  39.201   8.170   7.355
 9930POPC   C1B55999  39.028   8.232   6.455
 9930POPC   C2B56000  39.011   8.233   6.755
 9930POPC   C3B56001  38.981   8.203   7.055
 9930POPC   C4B56002  39.000   8.288   7.355
 9931POPC   NC356003   4.270  41.568   5.555
 9931POPC   PO456004   4.308  41.521   5.855
 9931POPC   GL156005   4.296  41.586   6.155
 9931POPC   GL256006   4.201  41.555   6.155
 9931POPC   C1A56007   4.350  41.577   6.455
 9931POPC   D2A56008   4.348  41.605   6.755
 9931POPC   C3A56009   4.298  41.527   7.055
 9931POPC   C4A56010   4.326  41.526   7.355
 9931POPC   C1B56011   4.049  41.474   6.455
 9931POPC   C2B56012   4.046  41.446   6.755
 9931POPC   C3B56013   4.065  41.495   7.055
 9931POPC   C4B56014   4.119  41.489   7.355
 9932POPC   NC356015  15.988  38.472   5.555
 9932POPC   PO456016  15.977  38.431   5.855
 9932POPC   GL156017  15.912  38.495   6.155
 9932POPC   GL256018  15.927  38.375   6.155
 9932POPC   C1A56019  15.974  38.492   6.455
 9932POPC   D2A56020  15.935  38.497   6.755
 9932POPC   C3A56021  15.964  38.422   7.055
 9932POPC   C4A56022  15.912  38.430   7.355
 9932POPC   C1B56023  15.890  38.201   6.455
 9932POPC   C2B56024  15.826  38.206   6.755
 9932POPC   C3B56025  15.869  38.232   7.055
 9932POPC   C4B56026  15.901  38.191   7.355
 9933POPC   NC356027  12.119  23.729   5.555
 9933POPC   PO456028  12.055  23.735   5.855
 9933POPC   GL156029  12.121  23.743   6.155
 9933POPC   GL256030  12.015  23.821   6.155
 9933POPC   C1A56031  12.052  23.666   6.455
 9933POPC   D2A56032  12.103  23.667   6.755
 9933POPC   C3A56033  12.108  23.764   7.055
 9933POPC   C4A56034  12.097  23.718   7.355
 9933POPC   C1B56035  12.064  24.009   6.455
 9933POPC   C2B56036  12.044  23.990   6.755
 9933POPC   C3B56037  12.073  23.981   7.055
 9933POPC   C4B56038  11.995  23.961   7.355
 9934POPC   NC356039  38.423  10.517   5.555
 9934POPC   PO456040  38.444  10.475   5.855
 9934POPC   GL156041  38.504  10.543   6.155
 9934POPC   GL256042  38.412  10.448   6.155
 9934POPC   C1A56043  38.463  10.475   6.455
 9934POPC   D2A56044  38.411  10.539   6.755
 9934POPC   C3A56045  38.462  10.498   7.055
 9934POPC   C4A56046  38.446  10.517   7.355
 9934POPC   C1B56047  38.436  10.267   6.455
 9934POPC   C2B56048  38.387  10.233   6.755
 9934POPC   C3B56049  38.396  10.260   7.055
 9934POPC   C4B56050  38.381  10.231   7.355
 9935POPC   NC356051   8.964  41.584   5.555
 9935POPC   PO456052   8.950  41.583   5.855
 9935POPC   GL156053   9.006  41.552   6.155
 9935POPC   GL256054   9.000  41.392   6.155
 9935POPC   C1A56055   8.947  41.510   6.455
 9935POPC   D2A56056   8.950  41.534   6.755
 9935POPC   C3A56057   9.009  41.558   7.055
 9935POPC   C4A56058   9.003  41.545   7.355
 9935POPC   C1B56059   8.986  41.307   6.455
 9935POPC   C2B56060   9.030  41.352   6.755
 9935POPC   C3B56061   8.994  41.342   7.055
 9935POPC   C4B56062   8.996  41.282   7.355
 9936POPC   NC356063  36.861  36.139   5.555
 9936POPC   PO456064  36.932  36.160   5.855
 9936POPC   GL156065  36.876  36.114   6.155
 9936POPC   GL256066  36.865  36.065   6.155
 9936POPC   C1A56067  36.880  36.156   6.455
 9936POPC   D2A56068  36.862  36.112   6.755
 9936POPC   C3A56069  36.925  36.158   7.055
 9936POPC   C4A56070  36.886  36.168   7.355
 9936POPC   C1B56071  36.701  35.933   6.455
 9936POPC   C2B56072  36.682  35.924   6.755
 9936POPC   C3B56073  36.698  35.992   7.055
 9936POPC   C4B56074  36.720  35.959   7.355
 9937POPC   NC356075  28.319  37.720   5.555
 9937POPC   PO456076  28.346  37.635   5.855
 9937POPC   GL156077  28.357  37.646   6.155
 9937POPC   GL256078  28.520  37.599   6.155
 9937POPC   C1A56079  28.353  37.669   6.455
 9937POPC   D2A56080  28.398  37.697   6.755
 9937POPC   C3A56081  28.366  37.657   7.055
 9937POPC   C4A56082  28.322  37.655   7.355
 9937POPC   C1B56083  28.590  37.525   6.455
 9937POPC   C2B56084  28.577  37.516   6.755
 9937POPC   C3B56085  28.576  37.579   7.055
 9937POPC   C4B56086  28.564  37.557   7.355
 9938POPC   NC356087  30.719  15.137   5.555
 9938POPC   PO456088  30.673  15.130   5.855
 9938POPC   GL156089  30.743  15.228   6.155
 9938POPC   GL256090  30.679  15.257   6.155
 9938POPC   C1A56091  30.706  15.159   6.455
 9938POPC   D2A56092  30.720  15.221   6.755
 9938POPC   C3A56093  30.658  15.137   7.055
 9938POPC   C4A56094  30.672  15.159   7.355
 9938POPC   C1B56095  30.616  15.459   6.455
 9938POPC   C2B56096  30.647  15.455   6.755
 9938POPC   C3B56097  30.637  15.431   7.055
 9938POPC   C4B56098  30.585  15.423   7.355
 9939POPC   NC356099  27.591  23.731   5.555
 9939POPC   PO456100  27.618  23.718   5.855
 9939POPC   GL156101  27.619  23.670   6.155
 9939POPC   GL256102  27.516  23.613   6.155
 9939POPC   C1A56103  27.642  23.745   6.455
 9939POPC   D2A56104  27.611  23.757   6.755
 9939POPC   C3A56105  27.583  23.762   7.055
 9939POPC   C4A56106  27.628  23.750   7.355
 9939POPC   C1B56107  27.441  23.572   6.455
 9939POPC   C2B56108  27.413  23.571   6.755
 9939POPC   C3B56109  27.356  23.570   7.055
 9939POPC   C4B56110  27.423  23.568   7.355
 9940POPC   NC356111  24.533  13.608   5.555
 9940POPC   PO456112  24.478  13.608   5.855
 9940POPC   GL156113  24.532  13.605   6.155
 9940POPC   GL256114  24.562  13.558   6.155
 9940POPC   C1A56115  24.531  13.648   6.455
 9940POPC   D2A56116  24.515  13.586   6.755
 9940POPC   C3A56117  24.494  13.631   7.055
 9940POPC   C4A56118  24.490  13.673   7.355
 9940POPC   C1B56119  24.721  13.538   6.455
 9940POPC   C2B56120  24.737  13.555   6.755
 9940POPC   C3B56121  24.760  13.576   7.055
 9940POPC   C4B56122  24.747  13.585   7.355
 9941POPC   NC356123  36.112  44.627   5.555
 9941POPC   PO456124  36.140  44.701   5.855
 9941POPC   GL156125  36.168  44.650   6.155
 9941POPC   GL256126  35.995  44.720   6.155
 9941POPC   C1A56127  36.114  44.679   6.455
 9941POPC   D2A56128  36.161  44.662   6.755
 9941POPC   C3A56129  36.111  44.649   7.055
 9941POPC   C4A56130  36.164  44.706   7.355
 9941POPC   C1B56131  35.842  44.663   6.455
 9941POPC   C2B56132  35.924  44.738   6.755
 9941POPC   C3B56133  35.924  44.692   7.055
 9941POPC   C4B56134  35.846  44.684   7.355
 9942POPC   NC356135   5.836  11.337   5.555
 9942POPC   PO456136   5.841  11.321   5.855
 9942POPC   GL156137   5.906  11.310   6.155
 9942POPC   GL256138   5.872  11.125   6.155
 9942POPC   C1A56139   5.912  11.277   6.455
 9942POPC   D2A56140   5.894  11.339   6.755
 9942POPC   C3A56141   5.853  11.313   7.055
 9942POPC   C4A56142   5.856  11.287   7.355
 9942POPC   C1B56143   5.829  11.013   6.455
 9942POPC   C2B56144   5.866  11.052   6.755
 9942POPC   C3B56145   5.908  11.086   7.055
 9942POPC   C4B56146   5.892  11.040   7.355
 9943POPC   NC356147   4.352  15.981   5.555
 9943POPC   PO456148   4.337  15.982   5.855
 9943POPC   GL156149   4.299  15.917   6.155
 9943POPC   GL256150   4.158  15.974   6.155
 9943POPC   C1A56151   4.346  15.966   6.455
 9943POPC   D2A56152   4.349  16.004   6.755
 9943POPC   C3A56153   4.287  15.958   7.055
 9943POPC   C4A56154   4.340  15.993   7.355
 9943POPC   C1B56155   4.086  16.028   6.455
 9943POPC   C2B56156   4.054  16.036   6.755
 9943POPC   C3B56157   4.065  16.054   7.055
 9943POPC   C4B56158   4.058  16.091   7.355
 9944POPC   NC356159  31.446  20.592   5.555
 9944POPC   PO456160  31.442  20.596   5.855
 9944POPC   GL156161  31.466  20.594   6.155
 9944POPC   GL256162  31.532  20.557   6.155
 9944POPC   C1A56163  31.429  20.648   6.455
 9944POPC   D2A56164  31.465  20.568   6.755
 9944POPC   C3A56165  31.481  20.580   7.055
 9944POPC   C4A56166  31.459  20.575   7.355
 9944POPC   C1B56167  31.634  20.523   6.455
 9944POPC   C2B56168  31.662  20.444   6.755
 9944POPC   C3B56169  31.646  20.502   7.055
 9944POPC   C4B56170  31.658  20.427   7.355
 9945POPC   NC356171  24.537  23.703   5.555
 9945POPC   PO456172  24.480  23.737   5.855
 9945POPC   GL156173  24.493  23.685   6.155
 9945POPC   GL256174  24.480  23.623   6.155
 9945POPC   C1A56175  24.457  23.680   6.455
 9945POPC   D2A56176  24.489  23.676   6.755
 9945POPC   C3A56177  24.481  23.745   7.055
 9945POPC   C4A56178  24.456  23.761   7.355
 9945POPC   C1B56179  24.489  23.434   6.455
 9945POPC   C2B56180  24.480  23.485   6.755
 9945POPC   C3B56181  24.520  23.430   7.055
 9945POPC   C4B56182  24.573  23.424   7.355
 9946POPC   NC356183   5.872  38.484   5.555
 9946POPC   PO456184   5.871  38.444   5.855
 9946POPC   GL156185   5.825  38.467   6.155
 9946POPC   GL256186   6.037  38.492   6.155
 9946POPC   C1A56187   5.830  38.492   6.455
 9946POPC   D2A56188   5.894  38.486   6.755
 9946POPC   C3A56189   5.826  38.456   7.055
 9946POPC   C4A56190   5.854  38.464   7.355
 9946POPC   C1B56191   6.156  38.529   6.455
 9946POPC   C2B56192   6.069  38.509   6.755
 9946POPC   C3B56193   6.164  38.460   7.055
 9946POPC   C4B56194   6.068  38.482   7.355
 9947POPC   NC356195   2.722  22.178   5.555
 9947POPC   PO456196   2.745  22.211   5.855
 9947POPC   GL156197   2.727  22.159   6.155
 9947POPC   GL256198   2.759  22.252   6.155
 9947POPC   C1A56199   2.735  22.146   6.455
 9947POPC   D2A56200   2.814  22.138   6.755
 9947POPC   C3A56201   2.792  22.125   7.055
 9947POPC   C4A56202   2.774  22.172   7.355
 9947POPC   C1B56203   2.799  22.448   6.455
 9947POPC   C2B56204   2.867  22.448   6.755
 9947POPC   C3B56205   2.819  22.449   7.055
 9947POPC   C4B56206   2.853  22.404   7.355
 9948POPC   NC356207  19.018  43.886   5.555
 9948POPC   PO456208  19.022  43.862   5.855
 9948POPC   GL156209  19.104  43.896   6.155
 9948POPC   GL256210  18.961  43.911   6.155
 9948POPC   C1A56211  19.103  43.883   6.455
 9948POPC   D2A56212  19.106  43.864   6.755
 9948POPC   C3A56213  19.045  43.844   7.055
 9948POPC   C4A56214  19.020  43.879   7.355
 9948POPC   C1B56215  18.855  43.974   6.455
 9948POPC   C2B56216  18.862  43.978   6.755
 9948POPC   C3B56217  18.858  43.946   7.055
 9948POPC   C4B56218  18.808  43.982   7.355
 9949POPC   NC356219  37.719  18.239   5.555
 9949POPC   PO456220  37.680  18.233   5.855
 9949POPC   GL156221  37.696  18.266   6.155
 9949POPC   GL256222  37.655  18.145   6.155
 9949POPC   C1A56223  37.666  18.273   6.455
 9949POPC   D2A56224  37.679  18.256   6.755
 9949POPC   C3A56225  37.633  18.273   7.055
 9949POPC   C4A56226  37.703  18.266   7.355
 9949POPC   C1B56227  37.754  18.006   6.455
 9949POPC   C2B56228  37.758  18.075   6.755
 9949POPC   C3B56229  37.765  18.011   7.055
 9949POPC   C4B56230  37.705  18.055   7.355
 9950POPC   NC356231  17.468  15.197   5.555
 9950POPC   PO456232  17.532  15.170   5.855
 9950POPC   GL156233  17.473  15.225   6.155
 9950POPC   GL256234  17.675  15.175   6.155
 9950POPC   C1A56235  17.541  15.193   6.455
 9950POPC   D2A56236  17.493  15.139   6.755
 9950POPC   C3A56237  17.458  15.186   7.055
 9950POPC   C4A56238  17.531  15.166   7.355
 9950POPC   C1B56239  17.770  15.231   6.455
 9950POPC   C2B56240  17.717  15.275   6.755
 9950POPC   C3B56241  17.749  15.272   7.055
 9950POPC   C4B56242  17.782  15.234   7.355
 9951POPC   NC356243  43.868   7.454   5.555
 9951POPC   PO456244  43.924   7.379   5.855
 9951POPC   GL156245  43.871   7.449   6.155
 9951POPC   GL256246  43.876   7.539   6.155
 9951POPC   C1A56247  43.880   7.390   6.455
 9951POPC   D2A56248  43.901   7.399   6.755
 9951POPC   C3A56249  43.925   7.403   7.055
 9951POPC   C4A56250  43.885   7.376   7.355
 9951POPC   C1B56251  43.897   7.711   6.455
 9951POPC   C2B56252  43.897   7.707   6.755
 9951POPC   C3B56253  43.849   7.651   7.055
 9951POPC   C4B56254  43.818   7.711   7.355
 9952POPC   NC356255  13.614  11.305   5.555
 9952POPC   PO456256  13.678  11.292   5.855
 9952POPC   GL156257  13.621  11.254   6.155
 9952POPC   GL256258  13.654  11.180   6.155
 9952POPC   C1A56259  13.594  11.341   6.455
 9952POPC   D2A56260  13.579  11.285   6.755
 9952POPC   C3A56261  13.675  11.255   7.055
 9952POPC   C4A56262  13.585  11.283   7.355
 9952POPC   C1B56263  13.715  11.098   6.455
 9952POPC   C2B56264  13.747  11.105   6.755
 9952POPC   C3B56265  13.712  11.029   7.055
 9952POPC   C4B56266  13.709  11.059   7.355
 9953POPC   NC356267  25.278  13.607   5.555
 9953POPC   PO456268  25.240  13.626   5.855
 9953POPC   GL156269  25.262  13.613   6.155
 9953POPC   GL256270  25.305  13.486   6.155
 9953POPC   C1A56271  25.285  13.612   6.455
 9953POPC   D2A56272  25.226  13.589   6.755
 9953POPC   C3A56273  25.273  13.621   7.055
 9953POPC   C4A56274  25.261  13.599   7.355
 9953POPC   C1B56275  25.254  13.341   6.455
 9953POPC   C2B56276  25.223  13.382   6.755
 9953POPC   C3B56277  25.256  13.390   7.055
 9953POPC   C4B56278  25.292  13.346   7.355
 9954POPC   NC356279  13.582  21.434   5.555
 9954POPC   PO456280  13.599  21.349   5.855
 9954POPC   GL156281  13.591  21.406   6.155
 9954POPC   GL256282  13.763  21.424   6.155
 9954POPC   C1A56283  13.656  21.413   6.455
 9954POPC   D2A56284  13.579  21.396   6.755
 9954POPC   C3A56285  13.676  21.419   7.055
 9954POPC   C4A56286  13.667  21.356   7.355
 9954POPC   C1B56287  13.820  21.531   6.455
 9954POPC   C2B56288  13.877  21.485   6.755
 9954POPC   C3B56289  13.851  21.540   7.055
 9954POPC   C4B56290  13.851  21.522   7.355
 9955POPC   NC356291   1.238   2.036   5.555
 9955POPC   PO456292   1.205   1.990   5.855
 9955POPC   GL156293   1.223   1.990   6.155
 9955POPC   GL256294   1.286   2.077   6.155
 9955POPC   C1A56295   1.199   1.943   6.455
 9955POPC   D2A56296   1.165   2.038   6.755
 9955POPC   C3A56297   1.180   2.037   7.055
 9955POPC   C4A56298   1.219   1.968   7.355
 9955POPC   C1B56299   1.290   2.191   6.455
 9955POPC   C2B56300   1.301   2.202   6.755
 9955POPC   C3B56301   1.268   2.198   7.055
 9955POPC   C4B56302   1.265   2.197   7.355
 9956POPC   NC356303  36.859  26.776   5.555
 9956POPC   PO456304  36.917  26.786   5.855
 9956POPC   GL156305  36.885  26.767   6.155
 9956POPC   GL256306  36.821  26.944   6.155
 9956POPC   C1A56307  36.900  26.843   6.455
 9956POPC   D2A56308  36.937  26.802   6.755
 9956POPC   C3A56309  36.895  26.772   7.055
 9956POPC   C4A56310  36.943  26.812   7.355
 9956POPC   C1B56311  36.864  27.054   6.455
 9956POPC   C2B56312  36.813  27.060   6.755
 9956POPC   C3B56313  36.852  27.055   7.055
 9956POPC   C4B56314  36.850  27.097   7.355
 9957POPC   NC356315   0.450   5.079   5.555
 9957POPC   PO456316   0.402   5.118   5.855
 9957POPC   GL156317   0.474   5.066   6.155
 9957POPC   GL256318   0.327   4.965   6.155
 9957POPC   C1A56319   0.456   5.098   6.455
 9957POPC   D2A56320   0.460   5.106   6.755
 9957POPC   C3A56321   0.428   5.111   7.055
 9957POPC   C4A56322   0.465   5.118   7.355
 9957POPC   C1B56323   0.301   4.886   6.455
 9957POPC   C2B56324   0.303   4.869   6.755
 9957POPC   C3B56325   0.278   4.866   7.055
 9957POPC   C4B56326   0.250   4.858   7.355
 9958POPC   NC356327  30.722  25.308   5.555
 9958POPC   PO456328  30.730  25.259   5.855
 9958POPC   GL156329  30.746  25.228   6.155
 9958POPC   GL256330  30.865  25.269   6.155
 9958POPC   C1A56331  30.693  25.308   6.455
 9958POPC   D2A56332  30.735  25.272   6.755
 9958POPC   C3A56333  30.678  25.275   7.055
 9958POPC   C4A56334  30.738  25.254   7.355
 9958POPC   C1B56335  30.941  25.325   6.455
 9958POPC   C2B56336  30.994  25.291   6.755
 9958POPC   C3B56337  30.960  25.247   7.055
 9958POPC   C4B56338  30.993  25.299   7.355
 9959POPC   NC356339   3.507  39.995   5.555
 9959POPC   PO456340   3.538  40.015   5.855
 9959POPC   GL156341   3.562  39.964   6.155
 9959POPC   GL256342   3.543  40.125   6.155
 9959POPC   C1A56343   3.517  40.041   6.455
 9959POPC   D2A56344   3.529  40.037   6.755
 9959POPC   C3A56345   3.581  40.037   7.055
 9959POPC   C4A56346   3.574  39.975   7.355
 9959POPC   C1B56347   3.478  40.237   6.455
 9959POPC   C2B56348   3.482  40.253   6.755
 9959POPC   C3B56349   3.510  40.281   7.055
 9959POPC   C4B56350   3.519  40.276   7.355
 9960POPC   NC356351  19.806  12.035   5.555
 9960POPC   PO456352  19.829  12.084   5.855
 9960POPC   GL156353  19.857  12.064   6.155
 9960POPC   GL256354  19.732  12.015   6.155
 9960POPC   C1A56355  19.863  12.032   6.455
 9960POPC   D2A56356  19.846  12.044   6.755
 9960POPC   C3A56357  19.844  12.027   7.055
 9960POPC   C4A56358  19.818  12.107   7.355
 9960POPC   C1B56359  19.681  11.883   6.455
 9960POPC   C2B56360  19.635  11.861   6.755
 9960POPC   C3B56361  19.704  11.889   7.055
 9960POPC   C4B56362  19.676  11.917   7.355
 9961POPC   NC356363  33.845  28.388   5.555
 9961POPC   PO456364  33.824  28.408   5.855
 9961POPC   GL156365  33.782  28.379   6.155
 9961POPC   GL256366  33.708  28.388   6.155
 9961POPC   C1A56367  33.780  28.333   6.455
 9961POPC   D2A56368  33.796  28.401   6.755
 9961POPC   C3A56369  33.832  28.362   7.055
 9961POPC   C4A56370  33.831  28.324   7.355
 9961POPC   C1B56371  33.561  28.384   6.455
 9961POPC   C2B56372  33.599  28.416   6.755
 9961POPC   C3B56373  33.519  28.359   7.055
 9961POPC   C4B56374  33.591  28.349   7.355
 9962POPC   NC356375  32.263  27.565   5.555
 9962POPC   PO456376  32.276  27.622   5.855
 9962POPC   GL156377  32.244  27.576   6.155
 9962POPC   GL256378  32.128  27.693   6.155
 9962POPC   C1A56379  32.273  27.592   6.455
 9962POPC   D2A56380  32.218  27.559   6.755
 9962POPC   C3A56381  32.219  27.591   7.055
 9962POPC   C4A56382  32.294  27.599   7.355
 9962POPC   C1B56383  31.980  27.695   6.455
 9962POPC   C2B56384  32.048  27.748   6.755
 9962POPC   C3B56385  32.005  27.711   7.055
 9962POPC   C4B56386  32.055  27.726   7.355
 9963POPC   NC356387  17.506  41.549   5.555
 9963POPC   PO456388  17.551  41.603   5.855
 9963POPC   GL156389  17.457  41.578   6.155
 9963POPC   GL256390  17.505  41.416   6.155
 9963POPC   C1A56391  17.499  41.547   6.455
 9963POPC   D2A56392  17.515  41.543   6.755
 9963POPC   C3A56393  17.544  41.525   7.055
 9963POPC   C4A56394  17.541  41.518   7.355
 9963POPC   C1B56395  17.613  41.325   6.455
 9963POPC   C2B56396  17.557  41.322   6.755
 9963POPC   C3B56397  17.608  41.276   7.055
 9963POPC   C4B56398  17.634  41.366   7.355
 9964POPC   NC356399  24.524  14.406   5.555
 9964POPC   PO456400  24.471  14.425   5.855
 9964POPC   GL156401  24.486  14.366   6.155
 9964POPC   GL256402  24.564  14.474   6.155
 9964POPC   C1A56403  24.496  14.384   6.455
 9964POPC   D2A56404  24.459  14.441   6.755
 9964POPC   C3A56405  24.492  14.395   7.055
 9964POPC   C4A56406  24.469  14.384   7.355
 9964POPC   C1B56407  24.678  14.616   6.455
 9964POPC   C2B56408  24.696  14.536   6.755
 9964POPC   C3B56409  24.669  14.561   7.055
 9964POPC   C4B56410  24.694  14.557   7.355
 9965POPC   NC356411  36.923  35.364   5.555
 9965POPC   PO456412  36.877  35.305   5.855
 9965POPC   GL156413  36.869  35.313   6.155
 9965POPC   GL256414  36.983  35.303   6.155
 9965POPC   C1A56415  36.923  35.311   6.455
 9965POPC   D2A56416  36.942  35.351   6.755
 9965POPC   C3A56417  36.904  35.352   7.055
 9965POPC   C4A56418  36.915  35.339   7.355
 9965POPC   C1B56419  37.078  35.165   6.455
 9965POPC   C2B56420  37.043  35.178   6.755
 9965POPC   C3B56421  37.072  35.185   7.055
 9965POPC   C4B56422  37.136  35.176   7.355
 9966POPC   NC356423  15.917   1.261   5.555
 9966POPC   PO456424  15.996   1.217   5.855
 9966POPC   GL156425  15.968   1.219   6.155
 9966POPC   GL256426  15.807   1.153   6.155
 9966POPC   C1A56427  15.952   1.187   6.455
 9966POPC   D2A56428  15.922   1.196   6.755
 9966POPC   C3A56429  15.937   1.226   7.055
 9966POPC   C4A56430  15.967   1.192   7.355
 9966POPC   C1B56431  15.721   1.108   6.455
 9966POPC   C2B56432  15.766   1.073   6.755
 9966POPC   C3B56433  15.773   1.040   7.055
 9966POPC   C4B56434  15.714   1.031   7.355
 9967POPC   NC356435   9.766   0.479   5.555
 9967POPC   PO456436   9.744   0.429   5.855
 9967POPC   GL156437   9.757   0.390   6.155
 9967POPC   GL256438   9.649   0.510   6.155
 9967POPC   C1A56439   9.737   0.461   6.455
 9967POPC   D2A56440   9.742   0.453   6.755
 9967POPC   C3A56441   9.754   0.457   7.055
 9967POPC   C4A56442   9.709   0.482   7.355
 9967POPC   C1B56443   9.615   0.700   6.455
 9967POPC   C2B56444   9.656   0.672   6.755
 9967POPC   C3B56445   9.673   0.645   7.055
 9967POPC   C4B56446   9.614   0.705   7.355
 9968POPC   NC356447  41.555  40.049   5.555
 9968POPC   PO456448  41.547  40.009   5.855
 9968POPC   GL156449  41.531  39.974   6.155
 9968POPC   GL256450  41.436  40.105   6.155
 9968POPC   C1A56451  41.590  39.969   6.455
 9968POPC   D2A56452  41.584  39.989   6.755
 9968POPC   C3A56453  41.591  40.029   7.055
 9968POPC   C4A56454  41.538  40.054   7.355
 9968POPC   C1B56455  41.427  40.246   6.455
 9968POPC   C2B56456  41.404  40.155   6.755
 9968POPC   C3B56457  41.385  40.155   7.055
 9968POPC   C4B56458  41.392  40.239   7.355
 9969POPC   NC356459  32.984  12.114   5.555
 9969POPC   PO456460  32.998  12.113   5.855
 9969POPC   GL156461  33.063  12.098   6.155
 9969POPC   GL256462  32.996  11.968   6.155
 9969POPC   C1A56463  33.046  12.102   6.455
 9969POPC   D2A56464  32.974  12.048   6.755
 9969POPC   C3A56465  33.012  12.036   7.055
 9969POPC   C4A56466  33.010  12.050   7.355
 9969POPC   C1B56467  33.071  11.824   6.455
 9969POPC   C2B56468  33.019  11.830   6.755
 9969POPC   C3B56469  33.109  11.858   7.055
 9969POPC   C4B56470  33.084  11.845   7.355
 9970POPC   NC356471  17.466  21.377   5.555
 9970POPC   PO456472  17.516  21.424   5.855
 9970POPC   GL156473  17.552  21.363   6.155
 9970POPC   GL256474  17.621  21.339   6.155
 9970POPC   C1A56475  17.542  21.424   6.455
 9970POPC   D2A56476  17.466  21.386   6.755
 9970POPC   C3A56477  17.525  21.346   7.055
 9970POPC   C4A56478  17.526  21.381   7.355
 9970POPC   C1B56479  17.640  21.211   6.455
 9970POPC   C2B56480  17.688  21.169   6.755
 9970POPC   C3B56481  17.645  21.228   7.055
 9970POPC   C4B56482  17.656  21.162   7.355
 9971POPC   NC356483  22.140  11.288   5.555
 9971POPC   PO456484  22.170  11.284   5.855
 9971POPC   GL156485  22.129  11.274   6.155
 9971POPC   GL256486  22.092  11.209   6.155
 9971POPC   C1A56487  22.143  11.314   6.455
 9971POPC   D2A56488  22.159  11.310   6.755
 9971POPC   C3A56489  22.124  11.270   7.055
 9971POPC   C4A56490  22.158  11.301   7.355
 9971POPC   C1B56491  21.935  11.243   6.455
 9971POPC   C2B56492  21.953  11.251   6.755
 9971POPC   C3B56493  21.881  11.246   7.055
 9971POPC   C4B56494  21.889  11.197   7.355
 9972POPC   NC356495  26.836  41.522   5.555
 9972POPC   PO456496  26.862  41.576   5.855
 9972POPC   GL156497  26.774  41.574   6.155
 9972POPC   GL256498  26.721  41.443   6.155
 9972POPC   C1A56499  26.864  41.581   6.455
 9972POPC   D2A56500  26.774  41.540   6.755
 9972POPC   C3A56501  26.864  41.528   7.055
 9972POPC   C4A56502  26.812  41.607   7.355
 9972POPC   C1B56503  26.675  41.342   6.455
 9972POPC   C2B56504  26.651  41.393   6.755
 9972POPC   C3B56505  26.625  41.376   7.055
 9972POPC   C4B56506  26.687  41.349   7.355
 9973POPC   NC356507  11.311   0.461   5.555
 9973POPC   PO456508  11.309   0.475   5.855
 9973POPC   GL156509  11.274   0.424   6.155
 9973POPC   GL256510  11.367   0.319   6.155
 9973POPC   C1A56511  11.341   0.426   6.455
 9973POPC   D2A56512  11.254   0.473   6.755
 9973POPC   C3A56513  11.338   0.451   7.055
 9973POPC   C4A56514  11.258   0.440   7.355
 9973POPC   C1B56515  11.452   0.241   6.455
 9973POPC   C2B56516  11.509   0.302   6.755
 9973POPC   C3B56517  11.476   0.298   7.055
 9973POPC   C4B56518  11.534   0.303   7.355
 9974POPC   NC356519   0.449  14.422   5.555
 9974POPC   PO456520   0.420  14.400   5.855
 9974POPC   GL156521   0.463  14.379   6.155
 9974POPC   GL256522   0.605  14.379   6.155
 9974POPC   C1A56523   0.436  14.450   6.455
 9974POPC   D2A56524   0.465  14.372   6.755
 9974POPC   C3A56525   0.486  14.426   7.055
 9974POPC   C4A56526   0.465  14.372   7.355
 9974POPC   C1B56527   0.714  14.372   6.455
 9974POPC   C2B56528   0.716  14.385   6.755
 9974POPC   C3B56529   0.657  14.378   7.055
 9974POPC   C4B56530   0.679  14.411   7.355
 9975POPC   NC356531   9.769  14.441   5.555
 9975POPC   PO456532   9.706  14.452   5.855
 9975POPC   GL156533   9.746  14.408   6.155
 9975POPC   GL256534   9.883  14.371   6.155
 9975POPC   C1A56535   9.756  14.425   6.455
 9975POPC   D2A56536   9.747  14.385   6.755
 9975POPC   C3A56537   9.786  14.452   7.055
 9975POPC   C4A56538   9.772  14.450   7.355
 9975POPC   C1B56539  10.025  14.405   6.455
 9975POPC   C2B56540   9.963  14.430   6.755
 9975POPC   C3B56541   9.983  14.401   7.055
 9975POPC   C4B56542  10.014  14.396   7.355
 9976POPC   NC356543  25.313  15.966   5.555
 9976POPC   PO456544  25.276  15.970   5.855
 9976POPC   GL156545  25.254  16.001   6.155
 9976POPC   GL256546  25.264  15.816   6.155
 9976POPC   C1A56547  25.227  15.936   6.455
 9976POPC   D2A56548  25.244  15.916   6.755
 9976POPC   C3A56549  25.230  15.936   7.055
 9976POPC   C4A56550  25.285  15.996   7.355
 9976POPC   C1B56551  25.289  15.698   6.455
 9976POPC   C2B56552  25.254  15.716   6.755
 9976POPC   C3B56553  25.213  15.726   7.055
 9976POPC   C4B56554  25.267  15.695   7.355
 9977POPC   NC356555   0.434  39.189   5.555
 9977POPC   PO456556   0.445  39.234   5.855
 9977POPC   GL156557   0.418  39.223   6.155
 9977POPC   GL256558   0.386  39.133   6.155
 9977POPC   C1A56559   0.413  39.248   6.455
 9977POPC   D2A56560   0.399  39.221   6.755
 9977POPC   C3A56561   0.417  39.221   7.055
 9977POPC   C4A56562   0.434  39.258   7.355
 9977POPC   C1B56563   0.258  39.063   6.455
 9977POPC   C2B56564   0.270  39.070   6.755
 9977POPC   C3B56565   0.280  39.051   7.055
 9977POPC   C4B56566   0.283  39.099   7.355
 9978POPC   NC356567  12.877  16.738   5.555
 9978POPC   PO456568  12.824  16.738   5.855
 9978POPC   GL156569  12.842  16.691   6.155
 9978POPC   GL256570  12.858  16.572   6.155
 9978POPC   C1A56571  12.900  16.694   6.455
 9978POPC   D2A56572  12.837  16.724   6.755
 9978POPC   C3A56573  12.823  16.684   7.055
 9978POPC   C4A56574  12.867  16.755   7.355
 9978POPC   C1B56575  12.844  16.444   6.455
 9978POPC   C2B56576  12.834  16.510   6.755
 9978POPC   C3B56577  12.836  16.513   7.055
 9978POPC   C4B56578  12.843  16.457   7.355
 9979POPC   NC356579   9.795  32.201   5.555
 9979POPC   PO456580   9.736  32.203   5.855
 9979POPC   GL156581   9.746  32.206   6.155
 9979POPC   GL256582   9.673  32.211   6.155
 9979POPC   C1A56583   9.731  32.286   6.455
 9979POPC   D2A56584   9.716  32.250   6.755
 9979POPC   C3A56585   9.726  32.234   7.055
 9979POPC   C4A56586   9.763  32.232   7.355
 9979POPC   C1B56587   9.543  32.246   6.455
 9979POPC   C2B56588   9.511  32.245   6.755
 9979POPC   C3B56589   9.499  32.236   7.055
 9979POPC   C4B56590   9.489  32.183   7.355
 9980POPC   NC356591  26.806   8.940   5.555
 9980POPC   PO456592  26.810   8.930   5.855
 9980POPC   GL156593  26.836   8.943   6.155
 9980POPC   GL256594  26.907   8.954   6.155
 9980POPC   C1A56595  26.790   9.021   6.455
 9980POPC   D2A56596  26.843   8.971   6.755
 9980POPC   C3A56597  26.783   8.977   7.055
 9980POPC   C4A56598  26.830   9.004   7.355
 9980POPC   C1B56599  27.115   8.963   6.455
 9980POPC   C2B56600  27.071   9.027   6.755
 9980POPC   C3B56601  27.088   8.976   7.055
 9980POPC   C4B56602  27.116   8.968   7.355
 9981POPC   NC356603  20.568  29.179   5.555
 9981POPC   PO456604  20.601  29.114   5.855
 9981POPC   GL156605  20.612  29.119   6.155
 9981POPC   GL256606  20.523  29.206   6.155
 9981POPC   C1A56607  20.635  29.170   6.455
 9981POPC   D2A56608  20.606  29.156   6.755
 9981POPC   C3A56609  20.583  29.120   7.055
 9981POPC   C4A56610  20.629  29.144   7.355
 9981POPC   C1B56611  20.393  29.275   6.455
 9981POPC   C2B56612  20.425  29.223   6.755
 9981POPC   C3B56613  20.416  29.276   7.055
 9981POPC   C4B56614  20.366  29.265   7.355
 9982POPC   NC356615  43.934  11.313   5.555
 9982POPC   PO456616  43.921  11.295   5.855
 9982POPC   GL156617  43.932  11.325   6.155
 9982POPC   GL256618  43.870  11.392   6.155
 9982POPC   C1A56619  43.899  11.284   6.455
 9982POPC   D2A56620  43.874  11.252   6.755
 9982POPC   C3A56621  43.898  11.290   7.055
 9982POPC   C4A56622  43.898  11.294   7.355
 9982POPC   C1B56623  43.830  11.501   6.455
 9982POPC   C2B56624  43.742  11.521   6.755
 9982POPC   C3B56625  43.794  11.577   7.055
 9982POPC   C4B56626  43.781  11.518   7.355
 9983POPC   NC356627  43.855  22.180   5.555
 9983POPC   PO456628  43.902  22.141   5.855
 9983POPC   GL156629  43.935  22.129   6.155
 9983POPC   GL256630  43.815  22.081   6.155
 9983POPC   C1A56631  43.906  22.191   6.455
 9983POPC   D2A56632  43.882  22.192   6.755
 9983POPC   C3A56633  43.899  22.150   7.055
 9983POPC   C4A56634  43.854  22.114   7.355
 9983POPC   C1B56635  43.772  21.954   6.455
 9983POPC   C2B56636  43.795  21.953   6.755
 9983POPC   C3B56637  43.829  21.976   7.055
 9983POPC   C4B56638  43.761  21.971   7.355
 9984POPC   NC356639   2.796   5.054   5.555
 9984POPC   PO456640   2.753   5.126   5.855
 9984POPC   GL156641   2.780   5.116   6.155
 9984POPC   GL256642   2.685   5.185   6.155
 9984POPC   C1A56643   2.725   5.128   6.455
 9984POPC   D2A56644   2.794   5.108   6.755
 9984POPC   C3A56645   2.744   5.067   7.055
 9984POPC   C4A56646   2.752   5.091   7.355
 9984POPC   C1B56647   2.614   5.299   6.455
 9984POPC   C2B56648   2.667   5.345   6.755
 9984POPC   C3B56649   2.691   5.311   7.055
 9984POPC   C4B56650   2.708   5.291   7.355
 9985POPC   NC356651  31.464  15.945   5.555
 9985POPC   PO456652  31.498  15.990   5.855
 9985POPC   GL156653  31.425  15.979   6.155
 9985POPC   GL256654  31.551  15.840   6.155
 9985POPC   C1A56655  31.507  15.920   6.455
 9985POPC   D2A56656  31.492  15.924   6.755
 9985POPC   C3A56657  31.448  15.916   7.055
 9985POPC   C4A56658  31.463  15.930   7.355
 9985POPC   C1B56659  31.549  15.707   6.455
 9985POPC   C2B56660  31.613  15.690   6.755
 9985POPC   C3B56661  31.628  15.733   7.055
 9985POPC   C4B56662  31.588  15.742   7.355
 9986POPC   NC356663  23.723  40.811   5.555
 9986POPC   PO456664  23.714  40.763   5.855
 9986POPC   GL156665  23.679  40.736   6.155
 9986POPC   GL256666  23.631  40.679   6.155
 9986POPC   C1A56667  23.711  40.772   6.455
 9986POPC   D2A56668  23.757  40.822   6.755
 9986POPC   C3A56669  23.733  40.796   7.055
 9986POPC   C4A56670  23.710  40.747   7.355
 9986POPC   C1B56671  23.512  40.632   6.455
 9986POPC   C2B56672  23.528  40.627   6.755
 9986POPC   C3B56673  23.550  40.652   7.055
 9986POPC   C4B56674  23.544  40.578   7.355
 9987POPC   NC356675   3.579   9.712   5.555
 9987POPC   PO456676   3.583   9.726   5.855
 9987POPC   GL156677   3.516   9.725   6.155
 9987POPC   GL256678   3.446   9.762   6.155
 9987POPC   C1A56679   3.586   9.791   6.455
 9987POPC   D2A56680   3.577   9.709   6.755
 9987POPC   C3A56681   3.574   9.757   7.055
 9987POPC   C4A56682   3.541   9.734   7.355
 9987POPC   C1B56683   3.306   9.680   6.455
 9987POPC   C2B56684   3.263   9.710   6.755
 9987POPC   C3B56685   3.325   9.747   7.055
 9987POPC   C4B56686   3.244   9.713   7.355
 9988POPC   NC356687   1.946  40.001   5.555
 9988POPC   PO456688   2.028  40.056   5.855
 9988POPC   GL156689   2.037  40.010   6.155
 9988POPC   GL256690   2.141  39.983   6.155
 9988POPC   C1A56691   1.953  39.999   6.455
 9988POPC   D2A56692   2.027  40.009   6.755
 9988POPC   C3A56693   2.032  39.992   7.055
 9988POPC   C4A56694   2.000  40.014   7.355
 9988POPC   C1B56695   2.283  40.006   6.455
 9988POPC   C2B56696   2.266  40.011   6.755
 9988POPC   C3B56697   2.280  39.970   7.055
 9988POPC   C4B56698   2.256  40.046   7.355
 9989POPC   NC356699   7.400  19.860   5.555
 9989POPC   PO456700   7.447  19.806   5.855
 9989POPC   GL156701   7.409  19.798   6.155
 9989POPC   GL256702   7.372  19.916   6.155
 9989POPC   C1A56703   7.431  19.870   6.455
 9989POPC   D2A56704   7.387  19.801   6.755
 9989POPC   C3A56705   7.410  19.859   7.055
 9989POPC   C4A56706   7.420  19.834   7.355
 9989POPC   C1B56707   7.379  20.032   6.455
 9989POPC   C2B56708   7.339  20.109   6.755
 9989POPC   C3B56709   7.336  20.078   7.055
 9989POPC   C4B56710   7.407  20.119   7.355
 9990POPC   NC356711  12.867  22.144   5.555
 9990POPC   PO456712  12.856  22.157   5.855
 9990POPC   GL156713  12.810  22.145   6.155
 9990POPC   GL256714  12.811  22.018   6.155
 9990POPC   C1A56715  12.835  22.148   6.455
 9990POPC   D2A56716  12.870  22.206   6.755
 9990POPC   C3A56717  12.851  22.112   7.055
 9990POPC   C4A56718  12.860  22.186   7.355
 9990POPC   C1B56719  12.747  21.969   6.455
 9990POPC   C2B56720  12.815  21.884   6.755
 9990POPC   C3B56721  12.764  21.918   7.055
 9990POPC   C4B56722  12.780  21.873   7.355
 9991POPC   NC356723  26.082  21.415   5.555
 9991POPC   PO456724  26.078  21.355   5.855
 9991POPC   GL156725  26.040  21.342   6.155
 9991POPC   GL256726  26.057  21.276   6.155
 9991POPC   C1A56727  26.040  21.382   6.455
 9991POPC   D2A56728  26.089  21.408   6.755
 9991POPC   C3A56729  26.013  21.378   7.055
 9991POPC   C4A56730  26.053  21.358   7.355
 9991POPC   C1B56731  26.000  21.159   6.455
 9991POPC   C2B56732  26.013  21.136   6.755
 9991POPC   C3B56733  26.015  21.168   7.055
 9991POPC   C4B56734  26.013  21.110   7.355
 9992POPC   NC356735  32.215  21.401   5.555
 9992POPC   PO456736  32.221  21.436   5.855
 9992POPC   GL156737  32.236  21.342   6.155
 9992POPC   GL256738  32.339  21.412   6.155
 9992POPC   C1A56739  32.231  21.386   6.455
 9992POPC   D2A56740  32.220  21.390   6.755
 9992POPC   C3A56741  32.292  21.340   7.055
 9992POPC   C4A56742  32.250  21.419   7.355
 9992POPC   C1B56743  32.516  21.425   6.455
 9992POPC   C2B56744  32.458  21.452   6.755
 9992POPC   C3B56745  32.500  21.419   7.055
 9992POPC   C4B56746  32.496  21.454   7.355
 9993POPC   NC356747  10.499  43.926   5.555
 9993POPC   PO456748  10.477  43.841   5.855
 9993POPC   GL156749  10.492  43.911   6.155
 9993POPC   GL256750  10.678  43.844   6.155
 9993POPC   C1A56751  10.518  43.882   6.455
 9993POPC   D2A56752  10.520  43.837   6.755
 9993POPC   C3A56753  10.533  43.844   7.055
 9993POPC   C4A56754  10.488  43.872   7.355
 9993POPC   C1B56755  10.753  43.794   6.455
 9993POPC   C2B56756  10.738  43.823   6.755
 9993POPC   C3B56757  10.777  43.753   7.055
 9993POPC   C4B56758  10.795  43.741   7.355
 9994POPC   NC356759  37.692  26.025   5.555
 9994POPC   PO456760  37.640  26.076   5.855
 9994POPC   GL156761  37.698  26.058   6.155
 9994POPC   GL256762  37.606  25.915   6.155
 9994POPC   C1A56763  37.711  26.060   6.455
 9994POPC   D2A56764  37.674  26.023   6.755
 9994POPC   C3A56765  37.641  26.037   7.055
 9994POPC   C4A56766  37.651  26.029   7.355
 9994POPC   C1B56767  37.548  25.860   6.455
 9994POPC   C2B56768  37.566  25.876   6.755
 9994POPC   C3B56769  37.527  25.877   7.055
 9994POPC   C4B56770  37.490  25.862   7.355
 9995POPC   NC356771   5.891  13.632   5.555
 9995POPC   PO456772   5.901  13.643   5.855
 9995POPC   GL156773   5.848  13.676   6.155
 9995POPC   GL256774   5.967  13.532   6.155
 9995POPC   C1A56775   5.866  13.631   6.455
 9995POPC   D2A56776   5.905  13.587   6.755
 9995POPC   C3A56777   5.914  13.586   7.055
 9995POPC   C4A56778   5.907  13.672   7.355
 9995POPC   C1B56779   6.045  13.454   6.455
 9995POPC   C2B56780   6.064  13.401   6.755
 9995POPC   C3B56781   6.037  13.421   7.055
 9995POPC   C4B56782   6.073  13.439   7.355
 9996POPC   NC356783  37.715  21.346   5.555
 9996POPC   PO456784  37.650  21.377   5.855
 9996POPC   GL156785  37.688  21.362   6.155
 9996POPC   GL256786  37.558  21.433   6.155
 9996POPC   C1A56787  37.648  21.392   6.455
 9996POPC   D2A56788  37.687  21.389   6.755
 9996POPC   C3A56789  37.711  21.347   7.055
 9996POPC   C4A56790  37.662  21.352   7.355
 9996POPC   C1B56791  37.409  21.528   6.455
 9996POPC   C2B56792  37.503  21.489   6.755
 9996POPC   C3B56793  37.476  21.496   7.055
 9996POPC   C4B56794  37.470  21.486   7.355
 9997POPC   NC356795  29.882  10.480   5.555
 9997POPC   PO456796  29.970  10.536   5.855
 9997POPC   GL156797  29.877  10.483   6.155
 9997POPC   GL256798  29.818  10.495   6.155
 9997POPC   C1A56799  29.911  10.489   6.455
 9997POPC   D2A56800  29.895  10.565   6.755
 9997POPC   C3A56801  29.944  10.514   7.055
 9997POPC   C4A56802  29.926  10.490   7.355
 9997POPC   C1B56803  29.718  10.566   6.455
 9997POPC   C2B56804  29.675  10.565   6.755
 9997POPC   C3B56805  29.706  10.494   7.055
 9997POPC   C4B56806  29.712  10.495   7.355
 9998POPC   NC356807  35.401  22.938   5.555
 9998POPC   PO456808  35.327  22.890   5.855
 9998POPC   GL156809  35.350  22.907   6.155
 9998POPC   GL256810  35.356  23.064   6.155
 9998POPC   C1A56811  35.319  22.916   6.455
 9998POPC   D2A56812  35.401  22.916   6.755
 9998POPC   C3A56813  35.347  22.918   7.055
 9998POPC   C4A56814  35.385  22.894   7.355
 9998POPC   C1B56815  35.328  23.216   6.455
 9998POPC   C2B56816  35.351  23.212   6.755
 9998POPC   C3B56817  35.333  23.140   7.055
 9998POPC   C4B56818  35.372  23.143   7.355
 9999POPC   NC356819  38.418  22.156   5.555
 9999POPC   PO456820  38.445  22.152   5.855
 9999POPC   GL156821  38.472  22.121   6.155
 9999POPC   GL256822  38.328  22.236   6.155
 9999POPC   C1A56823  38.464  22.113   6.455
 9999POPC   D2A56824  38.442  22.155   6.755
 9999POPC   C3A56825  38.443  22.150   7.055
 9999POPC   C4A56826  38.431  22.203   7.355
 9999POPC   C1B56827  38.245  22.339   6.455
 9999POPC   C2B56828  38.257  22.289   6.755
 9999POPC   C3B56829  38.223  22.309   7.055
 9999POPC   C4B56830  38.296  22.332   7.355
10000POPC   NC356831   1.212  36.952   5.555
10000POPC   PO456832   1.200  36.949   5.855
10000POPC   GL156833   1.186  36.873   6.155
10000POPC   GL256834   1.225  36.995   6.155
10000POPC   C1A56835   1.198  36.871   6.455
10000POPC   D2A56836   1.172  36.932   6.755
10000POPC   C3A56837   1.226  36.865   7.055
10000POPC   C4A56838   1.189  36.874   7.355
10000POPC   C1B56839   1.229  37.190   6.455
10000POPC   C2B56840   1.237  37.124   6.755
10000POPC   C3B56841   1.197  37.111   7.055
10000POPC   C4B56842   1.211  37.174   7.355
10001POPC   NC356843  36.093  29.104   5.555
10001POPC   PO456844  36.164  29.158   5.855
10001POPC   GL156845  36.105  29.136   6.155
10001POPC   GL256846  36.114  29.257   6.155
10001POPC   C1A56847  36.134  29.153   6.455
10001POPC   D2A56848  36.146  29.110   6.755
10001POPC   C3A56849  36.114  29.156   7.055
10001POPC   C4A56850  36.119  29.174   7.355
10001POPC   C1B56851  36.039  29.342   6.455
10001POPC   C2B56852  36.075  29.374   6.755
10001POPC   C3B56853  36.062  29.364   7.055
10001POPC   C4B56854  36.015  29.391   7.355
10002POPC   NC356855   2.788  41.607   5.555
10002POPC   PO456856   2.798  41.516   5.855
10002POPC   GL156857   2.812  41.542   6.155
10002POPC   GL256858   2.850  41.414   6.155
10002POPC   C1A56859   2.810  41.579   6.455
10002POPC   D2A56860   2.796  41.563   6.755
10002POPC   C3A56861   2.785  41.539   7.055
10002POPC   C4A56862   2.751  41.591   7.355
10002POPC   C1B56863   2.879  41.286   6.455
10002POPC   C2B56864   2.858  41.344   6.755
10002POPC   C3B56865   2.840  41.365   7.055
10002POPC   C4B56866   2.824  41.321   7.355
10003POPC   NC356867  15.222  38.423   5.555
10003POPC   PO456868  15.187  38.456   5.855
10003POPC   GL156869  15.155  38.428   6.155
10003POPC   GL256870  15.218  38.565   6.155
10003POPC   C1A56871  15.226  38.456   6.455
10003POPC   D2A56872  15.175  38.407   6.755
10003POPC   C3A56873  15.215  38.470   7.055
10003POPC   C4A56874  15.179  38.459   7.355
10003POPC   C1B56875  15.301  38.686   6.455
10003POPC   C2B56876  15.323  38.683   6.755
10003POPC   C3B56877  15.345  38.722   7.055
10003POPC   C4B56878  15.350  38.661   7.355
10004POPC   NC356879   7.403  22.173   5.555
10004POPC   PO456880   7.412  22.132   5.855
10004POPC   GL156881   7.382  22.152   6.155
10004POPC   GL256882   7.448  22.313   6.155
10004POPC   C1A56883   7.383  22.165   6.455
10004POPC   D2A56884   7.384  22.210   6.755
10004POPC   C3A56885   7.422  22.118   7.055
10004POPC   C4A56886   7.406  22.151   7.355
10004POPC   C1B56887   7.525  22.352   6.455
10004POPC   C2B56888   7.544  22.362   6.755
10004POPC   C3B56889   7.520  22.355   7.055
10004POPC   C4B56890   7.514  22.403   7.355
10005POPC   NC356891  26.076  15.959   5.555
10005POPC   PO456892  26.080  15.988   5.855
10005POPC   GL156893  26.046  15.980   6.155
10005POPC   GL256894  26.184  15.865   6.155
10005POPC   C1A56895  26.021  15.980   6.455
10005POPC   D2A56896  26.049  15.989   6.755
10005POPC   C3A56897  26.024  15.995   7.055
10005POPC   C4A56898  26.065  15.942   7.355
10005POPC   C1B56899  26.293  15.817   6.455
10005POPC   C2B56900  26.239  15.886   6.755
10005POPC   C3B56901  26.304  15.841   7.055
10005POPC   C4B56902  26.269  15.798   7.355
10006POPC   NC356903  30.695  26.803   5.555
10006POPC   PO456904  30.675  26.826   5.855
10006POPC   GL156905  30.655  26.810   6.155
10006POPC   GL256906  30.794  26.757   6.155
10006POPC   C1A56907  30.696  26.841   6.455
10006POPC   D2A56908  30.699  26.819   6.755
10006POPC   C3A56909  30.677  26.842   7.055
10006POPC   C4A56910  30.724  26.776   7.355
10006POPC   C1B56911  30.963  26.797   6.455
10006POPC   C2B56912  30.952  26.772   6.755
10006POPC   C3B56913  30.921  26.743   7.055
10006POPC   C4B56914  30.966  26.739   7.355
10007POPC   NC356915  22.148   4.341   5.555
10007POPC   PO456916  22.168   4.290   5.855
10007POPC   GL156917  22.174   4.337   6.155
10007POPC   GL256918  22.237   4.398   6.155
10007POPC   C1A56919  22.137   4.330   6.455
10007POPC   D2A56920  22.194   4.315   6.755
10007POPC   C3A56921  22.161   4.335   7.055
10007POPC   C4A56922  22.193   4.364   7.355
10007POPC   C1B56923  22.278   4.596   6.455
10007POPC   C2B56924  22.258   4.543   6.755
10007POPC   C3B56925  22.312   4.540   7.055
10007POPC   C4B56926  22.286   4.563   7.355
10008POPC   NC356927  29.161  40.018   5.555
10008POPC   PO456928  29.117  40.014   5.855
10008POPC   GL156929  29.120  39.990   6.155
10008POPC   GL256930  29.089  39.902   6.155
10008POPC   C1A56931  29.166  39.988   6.455
10008POPC   D2A56932  29.167  40.047   6.755
10008POPC   C3A56933  29.105  40.018   7.055
10008POPC   C4A56934  29.178  40.027   7.355
10008POPC   C1B56935  28.994  39.886   6.455
10008POPC   C2B56936  28.982  39.862   6.755
10008POPC   C3B56937  28.925  39.827   7.055
10008POPC   C4B56938  28.999  39.881   7.355
10009POPC   NC356939  44.687  28.406   5.555
10009POPC   PO456940  44.638  28.351   5.855
10009POPC   GL156941  44.686  28.400   6.155
10009POPC   GL256942  44.779  28.330   6.155
10009POPC   C1A56943  44.640  28.385   6.455
10009POPC   D2A56944  44.676  28.390   6.755
10009POPC   C3A56945  44.658  28.336   7.055
10009POPC   C4A56946  44.657  28.418   7.355
10009POPC   C1B56947  44.936  28.277   6.455
10009POPC   C2B56948  44.895  28.328   6.755
10009POPC   C3B56949  44.911  28.350   7.055
10009POPC   C4B56950  44.928  28.289   7.355
10010POPC   NC356951  22.925  36.876   5.555
10010POPC   PO456952  22.948  36.862   5.855
10010POPC   GL156953  22.909  36.885   6.155
10010POPC   GL256954  22.869  37.057   6.155
10010POPC   C1A56955  22.942  36.928   6.455
10010POPC   D2A56956  22.941  36.948   6.755
10010POPC   C3A56957  22.936  36.936   7.055
10010POPC   C4A56958  22.970  36.906   7.355
10010POPC   C1B56959  22.829  37.109   6.455
10010POPC   C2B56960  22.853  37.102   6.755
10010POPC   C3B56961  22.810  37.148   7.055
10010POPC   C4B56962  22.880  37.120   7.355
10011POPC   NC356963   2.763   6.683   5.555
10011POPC   PO456964   2.790   6.674   5.855
10011POPC   GL156965   2.747   6.690   6.155
10011POPC   GL256966   2.903   6.553   6.155
10011POPC   C1A56967   2.745   6.632   6.455
10011POPC   D2A56968   2.729   6.652   6.755
10011POPC   C3A56969   2.736   6.647   7.055
10011POPC   C4A56970   2.781   6.599   7.355
10011POPC   C1B56971   2.963   6.537   6.455
10011POPC   C2B56972   2.951   6.556   6.755
10011POPC   C3B56973   3.041   6.546   7.055
10011POPC   C4B56974   3.011   6.519   7.355
10012POPC   NC356975  35.344  27.642   5.555
10012POPC   PO456976  35.311  27.552   5.855
10012POPC   GL156977  35.398  27.583   6.155
10012POPC   GL256978  35.388  27.502   6.155
10012POPC   C1A56979  35.396  27.606   6.455
10012POPC   D2A56980  35.326  27.547   6.755
10012POPC   C3A56981  35.318  27.617   7.055
10012POPC   C4A56982  35.383  27.609   7.355
10012POPC   C1B56983  35.486  27.374   6.455
10012POPC   C2B56984  35.475  27.416   6.755
10012POPC   C3B56985  35.491  27.402   7.055
10012POPC   C4B56986  35.468  27.379   7.355
10013POPC   NC356987  29.951   8.957   5.555
10013POPC   PO456988  29.873   8.950   5.855
10013POPC   GL156989  29.913   8.935   6.155
10013POPC   GL256990  29.976   9.019   6.155
10013POPC   C1A56991  29.931   9.014   6.455
10013POPC   D2A56992  29.904   8.999   6.755
10013POPC   C3A56993  29.942   8.930   7.055
10013POPC   C4A56994  29.942   8.933   7.355
10013POPC   C1B56995  30.142   9.100   6.455
10013POPC   C2B56996  30.056   9.156   6.755
10013POPC   C3B56997  30.130   9.179   7.055
10013POPC   C4B56998  30.148   9.123   7.355
10014POPC   NC356999  32.221  34.589   5.555
10014POPC   PO457000  32.247  34.590   5.855
10014POPC   GL157001  32.207  34.547   6.155
10014POPC   GL257002  32.178  34.436   6.155
10014POPC   C1A57003  32.288  34.549   6.455
10014POPC   D2A57004  32.280  34.552   6.755
10014POPC   C3A57005  32.283  34.537   7.055
10014POPC   C4A57006  32.203  34.602   7.355
10014POPC   C1B57007  32.076  34.336   6.455
10014POPC   C2B57008  32.109  34.352   6.755
10014POPC   C3B57009  32.123  34.354   7.055
10014POPC   C4B57010  32.130  34.338   7.355
10015POPC   NC357011   8.240  42.334   5.555
10015POPC   PO457012   8.211  42.295   5.855
10015POPC   GL157013   8.147  42.291   6.155
10015POPC   GL257014   8.322  42.337   6.155
10015POPC   C1A57015   8.181  42.304   6.455
10015POPC   D2A57016   8.206  42.354   6.755
10015POPC   C3A57017   8.151  42.380   7.055
10015POPC   C4A57018   8.168  42.292   7.355
10015POPC   C1B57019   8.418  42.447   6.455
10015POPC   C2B57020   8.434  42.355   6.755
10015POPC   C3B57021   8.458  42.427   7.055
10015POPC   C4B57022   8.397  42.446   7.355
10016POPC   NC357023  29.932  18.301   5.555
10016POPC   PO457024  29.908  18.293   5.855
10016POPC   GL157025  29.931  18.250   6.155
10016POPC   GL257026  30.021  18.356   6.155
10016POPC   C1A57027  29.880  18.247   6.455
10016POPC   D2A57028  29.875  18.288   6.755
10016POPC   C3A57029  29.960  18.301   7.055
10016POPC   C4A57030  29.969  18.325   7.355
10016POPC   C1B57031  30.064  18.512   6.455
10016POPC   C2B57032  30.035  18.471   6.755
10016POPC   C3B57033  30.000  18.471   7.055
10016POPC   C4B57034  30.067  18.517   7.355
10017POPC   NC357035   9.728  29.131   5.555
10017POPC   PO457036   9.701  29.158   5.855
10017POPC   GL157037   9.730  29.131   6.155
10017POPC   GL257038   9.793  29.297   6.155
10017POPC   C1A57039   9.718  29.185   6.455
10017POPC   D2A57040   9.752  29.125   6.755
10017POPC   C3A57041   9.779  29.123   7.055
10017POPC   C4A57042   9.757  29.118   7.355
10017POPC   C1B57043   9.868  29.399   6.455
10017POPC   C2B57044   9.848  29.321   6.755
10017POPC   C3B57045   9.840  29.360   7.055
10017POPC   C4B57046   9.887  29.321   7.355
10018POPC   NC357047  31.492   5.849   5.555
10018POPC   PO457048  31.475   5.845   5.855
10018POPC   GL157049  31.499   5.874   6.155
10018POPC   GL257050  31.481   5.770   6.155
10018POPC   C1A57051  31.451   5.846   6.455
10018POPC   D2A57052  31.476   5.857   6.755
10018POPC   C3A57053  31.501   5.843   7.055
10018POPC   C4A57054  31.508   5.904   7.355
10018POPC   C1B57055  31.498   5.651   6.455
10018POPC   C2B57056  31.448   5.604   6.755
10018POPC   C3B57057  31.526   5.573   7.055
10018POPC   C4B57058  31.440   5.653   7.355
10019POPC   NC357059  21.369  38.426   5.555
10019POPC   PO457060  21.404  38.441   5.855
10019POPC   GL157061  21.411  38.421   6.155
10019POPC   GL257062  21.453  38.369   6.155
10019POPC   C1A57063  21.368  38.503   6.455
10019POPC   D2A57064  21.359  38.491   6.755
10019POPC   C3A57065  21.429  38.452   7.055
10019POPC   C4A57066  21.383  38.440   7.355
10019POPC   C1B57067  21.612  38.367   6.455
10019POPC   C2B57068  21.612  38.373   6.755
10019POPC   C3B57069  21.636  38.340   7.055
10019POPC   C4B57070  21.574  38.328   7.355
10020POPC   NC357071  38.489   5.839   5.555
10020POPC   PO457072  38.412   5.897   5.855
10020POPC   GL157073  38.431   5.862   6.155
10020POPC   GL257074  38.373   5.969   6.155
10020POPC   C1A57075  38.422   5.872   6.455
10020POPC   D2A57076  38.489   5.820   6.755
10020POPC   C3A57077  38.426   5.837   7.055
10020POPC   C4A57078  38.417   5.874   7.355
10020POPC   C1B57079  38.357   6.069   6.455
10020POPC   C2B57080  38.396   6.052   6.755
10020POPC   C3B57081  38.311   6.124   7.055
10020POPC   C4B57082  38.314   6.057   7.355
10021POPC   NC357083   2.033  26.008   5.555
10021POPC   PO457084   2.008  26.051   5.855
10021POPC   GL157085   2.027  26.073   6.155
10021POPC   GL257086   2.079  25.942   6.155
10021POPC   C1A57087   1.986  26.028   6.455
10021POPC   D2A57088   1.946  26.088   6.755
10021POPC   C3A57089   1.978  26.029   7.055
10021POPC   C4A57090   2.009  25.996   7.355
10021POPC   C1B57091   2.134  25.832   6.455
10021POPC   C2B57092   2.150  25.901   6.755
10021POPC   C3B57093   2.125  25.822   7.055
10021POPC   C4B57094   2.176  25.821   7.355
10022POPC   NC357095  22.197   8.948   5.555
10022POPC   PO457096  22.169   8.983   5.855
10022POPC   GL157097  22.129   8.946   6.155
10022POPC   GL257098  22.064   9.055   6.155
10022POPC   C1A57099  22.119   9.003   6.455
10022POPC   D2A57100  22.133   8.961   6.755
10022POPC   C3A57101  22.139   9.019   7.055
10022POPC   C4A57102  22.165   9.022   7.355
10022POPC   C1B57103  21.920   9.031   6.455
10022POPC   C2B57104  21.907   9.026   6.755
10022POPC   C3B57105  21.910   9.032   7.055
10022POPC   C4B57106  21.933   9.064   7.355
10023POPC   NC357107  31.459  16.770   5.555
10023POPC   PO457108  31.496  16.728   5.855
10023POPC   GL157109  31.500  16.699   6.155
10023POPC   GL257110  31.605  16.656   6.155
10023POPC   C1A57111  31.446  16.729   6.455
10023POPC   D2A57112  31.459  16.699   6.755
10023POPC   C3A57113  31.453  16.690   7.055
10023POPC   C4A57114  31.484  16.738   7.355
10023POPC   C1B57115  31.716  16.665   6.455
10023POPC   C2B57116  31.754  16.699   6.755
10023POPC   C3B57117  31.743  16.681   7.055
10023POPC   C4B57118  31.667  16.645   7.355
10024POPC   NC357119  25.229  25.297   5.555
10024POPC   PO457120  25.280  25.223   5.855
10024POPC   GL157121  25.243  25.230   6.155
10024POPC   GL257122  25.172  25.302   6.155
10024POPC   C1A57123  25.231  25.237   6.455
10024POPC   D2A57124  25.315  25.291   6.755
10024POPC   C3A57125  25.259  25.225   7.055
10024POPC   C4A57126  25.289  25.223   7.355
10024POPC   C1B57127  25.047  25.208   6.455
10024POPC   C2B57128  25.006  25.300   6.755
10024POPC   C3B57129  25.008  25.232   7.055
10024POPC   C4B57130  25.038  25.268   7.355
10025POPC   NC357131  42.348   8.152   5.555
10025POPC   PO457132  42.315   8.189   5.855
10025POPC   GL157133  42.378   8.196   6.155
10025POPC   GL257134  42.270   8.142   6.155
10025POPC   C1A57135  42.338   8.243   6.455
10025POPC   D2A57136  42.359   8.174   6.755
10025POPC   C3A57137  42.344   8.210   7.055
10025POPC   C4A57138  42.361   8.164   7.355
10025POPC   C1B57139  42.154   7.971   6.455
10025POPC   C2B57140  42.185   7.993   6.755
10025POPC   C3B57141  42.190   8.030   7.055
10025POPC   C4B57142  42.140   7.988   7.355
10026POPC   NC357143  28.337  39.244   5.555
10026POPC   PO457144  28.386  39.207   5.855
10026POPC   GL157145  28.390  39.256   6.155
10026POPC   GL257146  28.363  39.078   6.155
10026POPC   C1A57147  28.325  39.198   6.455
10026POPC   D2A57148  28.362  39.233   6.755
10026POPC   C3A57149  28.377  39.215   7.055
10026POPC   C4A57150  28.418  39.187   7.355
10026POPC   C1B57151  28.404  38.989   6.455
10026POPC   C2B57152  28.374  38.979   6.755
10026POPC   C3B57153  28.372  39.014   7.055
10026POPC   C4B57154  28.398  39.012   7.355
10027POPC   NC357155  21.342   9.750   5.555
10027POPC   PO457156  21.403   9.780   5.855
10027POPC   GL157157  21.361   9.763   6.155
10027POPC   GL257158  21.490   9.830   6.155
10027POPC   C1A57159  21.387   9.706   6.455
10027POPC   D2A57160  21.349   9.719   6.755
10027POPC   C3A57161  21.403   9.778   7.055
10027POPC   C4A57162  21.372   9.769   7.355
10027POPC   C1B57163  21.653   9.830   6.455
10027POPC   C2B57164  21.596   9.824   6.755
10027POPC   C3B57165  21.587   9.800   7.055
10027POPC   C4B57166  21.592   9.807   7.355
10028POPC   NC357167   7.385  11.339   5.555
10028POPC   PO457168   7.420  11.285   5.855
10028POPC   GL157169   7.373  11.264   6.155
10028POPC   GL257170   7.540  11.304   6.155
10028POPC   C1A57171   7.392  11.292   6.455
10028POPC   D2A57172   7.386  11.322   6.755
10028POPC   C3A57173   7.422  11.318   7.055
10028POPC   C4A57174   7.393  11.321   7.355
10028POPC   C1B57175   7.706  11.338   6.455
10028POPC   C2B57176   7.687  11.382   6.755
10028POPC   C3B57177   7.631  11.318   7.055
10028POPC   C4B57178   7.663  11.375   7.355
10029POPC   NC357179  13.656  19.050   5.555
10029POPC   PO457180  13.624  19.015   5.855
10029POPC   GL157181  13.590  19.106   6.155
10029POPC   GL257182  13.742  19.194   6.155
10029POPC   C1A57183  13.655  19.038   6.455
10029POPC   D2A57184  13.597  19.099   6.755
10029POPC   C3A57185  13.671  19.064   7.055
10029POPC   C4A57186  13.633  19.108   7.355
10029POPC   C1B57187  13.783  19.273   6.455
10029POPC   C2B57188  13.791  19.217   6.755
10029POPC   C3B57189  13.839  19.234   7.055
10029POPC   C4B57190  13.788  19.186   7.355
10030POPC   NC357191  28.379  35.325   5.555
10030POPC   PO457192  28.322  35.304   5.855
10030POPC   GL157193  28.405  35.306   6.155
10030POPC   GL257194  28.371  35.274   6.155
10030POPC   C1A57195  28.378  35.303   6.455
10030POPC   D2A57196  28.398  35.332   6.755
10030POPC   C3A57197  28.389  35.385   7.055
10030POPC   C4A57198  28.373  35.305   7.355
10030POPC   C1B57199  28.431  35.119   6.455
10030POPC   C2B57200  28.448  35.085   6.755
10030POPC   C3B57201  28.381  35.070   7.055
10030POPC   C4B57202  28.409  35.061   7.355
10031POPC   NC357203  44.678  42.341   5.555
10031POPC   PO457204  44.695  42.330   5.855
10031POPC   GL157205  44.640  42.307   6.155
10031POPC   GL257206  44.530  42.403   6.155
10031POPC   C1A57207  44.621  42.379   6.455
10031POPC   D2A57208  44.674  42.344   6.755
10031POPC   C3A57209  44.698  42.293   7.055
10031POPC   C4A57210  44.675  42.301   7.355
10031POPC   C1B57211  44.458  42.433   6.455
10031POPC   C2B57212  44.495  42.447   6.755
10031POPC   C3B57213  44.499  42.506   7.055
10031POPC   C4B57214  44.445  42.468   7.355
10032POPC   NC357215  18.332   9.708   5.555
10032POPC   PO457216  18.304   9.732   5.855
10032POPC   GL157217  18.249   9.781   6.155
10032POPC   GL257218  18.321   9.858   6.155
10032POPC   C1A57219  18.302   9.751   6.455
10032POPC   D2A57220  18.262   9.781   6.755
10032POPC   C3A57221  18.262   9.789   7.055
10032POPC   C4A57222  18.241   9.716   7.355
10032POPC   C1B57223  18.404  10.001   6.455
10032POPC   C2B57224  18.421   9.944   6.755
10032POPC   C3B57225  18.403  10.014   7.055
10032POPC   C4B57226  18.365  10.001   7.355
10033POPC   NC357227  36.083  32.200   5.555
10033POPC   PO457228  36.154  32.269   5.855
10033POPC   GL157229  36.106  32.257   6.155
10033POPC   GL257230  36.018  32.311   6.155
10033POPC   C1A57231  36.167  32.286   6.455
10033POPC   D2A57232  36.173  32.214   6.755
10033POPC   C3A57233  36.133  32.253   7.055
10033POPC   C4A57234  36.143  32.199   7.355
10033POPC   C1B57235  35.972  32.427   6.455
10033POPC   C2B57236  35.980  32.417   6.755
10033POPC   C3B57237  35.980  32.386   7.055
10033POPC   C4B57238  35.942  32.451   7.355
10034POPC   NC357239  20.633  39.972   5.555
10034POPC   PO457240  20.567  39.976   5.855
10034POPC   GL157241  20.644  40.012   6.155
10034POPC   GL257242  20.484  40.002   6.155
10034POPC   C1A57243  20.656  39.987   6.455
10034POPC   D2A57244  20.646  39.988   6.755
10034POPC   C3A57245  20.620  39.982   7.055
10034POPC   C4A57246  20.642  39.970   7.355
10034POPC   C1B57247  20.381  40.071   6.455
10034POPC   C2B57248  20.410  40.079   6.755
10034POPC   C3B57249  20.324  40.004   7.055
10034POPC   C4B57250  20.337  40.009   7.355
10035POPC   NC357251  34.533   1.223   5.555
10035POPC   PO457252  34.597   1.234   5.855
10035POPC   GL157253  34.587   1.219   6.155
10035POPC   GL257254  34.510   1.068   6.155
10035POPC   C1A57255  34.613   1.203   6.455
10035POPC   D2A57256  34.584   1.219   6.755
10035POPC   C3A57257  34.600   1.250   7.055
10035POPC   C4A57258  34.605   1.184   7.355
10035POPC   C1B57259  34.473   1.008   6.455
10035POPC   C2B57260  34.501   0.972   6.755
10035POPC   C3B57261  34.527   0.961   7.055
10035POPC   C4B57262  34.468   0.959   7.355
10036POPC   NC357263   4.361   8.220   5.555
10036POPC   PO457264   4.285   8.206   5.855
10036POPC   GL157265   4.281   8.154   6.155
10036POPC   GL257266   4.329   8.326   6.155
10036POPC   C1A57267   4.282   8.199   6.455
10036POPC   D2A57268   4.352   8.167   6.755
10036POPC   C3A57269   4.273   8.155   7.055
10036POPC   C4A57270   4.338   8.223   7.355
10036POPC   C1B57271   4.288   8.481   6.455
10036POPC   C2B57272   4.347   8.469   6.755
10036POPC   C3B57273   4.272   8.427   7.055
10036POPC   C4B57274   4.359   8.411   7.355
10037POPC   NC357275   6.596  41.586   5.555
10037POPC   PO457276   6.601  41.593   5.855
10037POPC   GL157277   6.660  41.540   6.155
10037POPC   GL257278   6.672  41.460   6.155
10037POPC   C1A57279   6.616  41.509   6.455
10037POPC   D2A57280   6.626  41.543   6.755
10037POPC   C3A57281   6.602  41.554   7.055
10037POPC   C4A57282   6.623  41.536   7.355
10037POPC   C1B57283   6.622  41.320   6.455
10037POPC   C2B57284   6.671  41.287   6.755
10037POPC   C3B57285   6.640  41.319   7.055
10037POPC   C4B57286   6.685  41.339   7.355
10038POPC   NC357287   6.596   1.252   5.555
10038POPC   PO457288   6.628   1.177   5.855
10038POPC   GL157289   6.660   1.240   6.155
10038POPC   GL257290   6.500   1.247   6.155
10038POPC   C1A57291   6.637   1.199   6.455
10038POPC   D2A57292   6.639   1.224   6.755
10038POPC   C3A57293   6.611   1.231   7.055
10038POPC   C4A57294   6.640   1.185   7.355
10038POPC   C1B57295   6.376   1.345   6.455
10038POPC   C2B57296   6.392   1.353   6.755
10038POPC   C3B57297   6.421   1.329   7.055
10038POPC   C4B57298   6.411   1.339   7.355
10039POPC   NC357299  29.930   7.458   5.555
10039POPC   PO457300  29.958   7.408   5.855
10039POPC   GL157301  29.964   7.439   6.155
10039POPC   GL257302  29.861   7.512   6.155
10039POPC   C1A57303  29.884   7.436   6.455
10039POPC   D2A57304  29.950   7.447   6.755
10039POPC   C3A57305  29.958   7.465   7.055
10039POPC   C4A57306  29.944   7.421   7.355
10039POPC   C1B57307  29.895   7.707   6.455
10039POPC   C2B57308  29.859   7.646   6.755
10039POPC   C3B57309  29.887   7.657   7.055
10039POPC   C4B57310  29.847   7.708   7.355
10040POPC   NC357311   9.726  22.940   5.555
10040POPC   PO457312   9.782  22.970   5.855
10040POPC   GL157313   9.740  22.915   6.155
10040POPC   GL257314   9.830  22.945   6.155
10040POPC   C1A57315   9.793  22.970   6.455
10040POPC   D2A57316   9.795  22.974   6.755
10040POPC   C3A57317   9.765  22.942   7.055
10040POPC   C4A57318   9.720  22.908   7.355
10040POPC   C1B57319   9.953  22.971   6.455
10040POPC   C2B57320   9.951  23.024   6.755
10040POPC   C3B57321   9.970  22.990   7.055
10040POPC   C4B57322  10.020  23.012   7.355
10041POPC   NC357323  19.100  31.431   5.555
10041POPC   PO457324  19.078  31.475   5.855
10041POPC   GL157325  19.094  31.431   6.155
10041POPC   GL257326  19.003  31.536   6.155
10041POPC   C1A57327  19.026  31.486   6.455
10041POPC   D2A57328  19.099  31.444   6.755
10041POPC   C3A57329  19.063  31.515   7.055
10041POPC   C4A57330  19.097  31.475   7.355
10041POPC   C1B57331  18.944  31.675   6.455
10041POPC   C2B57332  18.943  31.714   6.755
10041POPC   C3B57333  18.944  31.739   7.055
10041POPC   C4B57334  18.926  31.736   7.355
10042POPC   NC357335  32.209  41.549   5.555
10042POPC   PO457336  32.208  41.590   5.855
10042POPC   GL157337  32.243  41.509   6.155
10042POPC   GL257338  32.150  41.563   6.155
10042POPC   C1A57339  32.244  41.594   6.455
10042POPC   D2A57340  32.276  41.523   6.755
10042POPC   C3A57341  32.278  41.535   7.055
10042POPC   C4A57342  32.207  41.517   7.355
10042POPC   C1B57343  32.036  41.662   6.455
10042POPC   C2B57344  32.057  41.611   6.755
10042POPC   C3B57345  32.031  41.694   7.055
10042POPC   C4B57346  32.043  41.636   7.355
10043POPC   NC357347   8.966  35.302   5.555
10043POPC   PO457348   8.961  35.375   5.855
10043POPC   GL157349   9.010  35.308   6.155
10043POPC   GL257350   8.992  35.432   6.155
10043POPC   C1A57351   9.010  35.389   6.455
10043POPC   D2A57352   8.940  35.345   6.755
10043POPC   C3A57353   8.998  35.346   7.055
10043POPC   C4A57354   8.983  35.372   7.355
10043POPC   C1B57355   8.934  35.578   6.455
10043POPC   C2B57356   8.908  35.580   6.755
10043POPC   C3B57357   8.907  35.637   7.055
10043POPC   C4B57358   8.923  35.617   7.355
10044POPC   NC357359  27.560   7.462   5.555
10044POPC   PO457360  27.608   7.443   5.855
10044POPC   GL157361  27.552   7.389   6.155
10044POPC   GL257362  27.659   7.516   6.155
10044POPC   C1A57363  27.613   7.434   6.455
10044POPC   D2A57364  27.585   7.418   6.755
10044POPC   C3A57365  27.593   7.444   7.055
10044POPC   C4A57366  27.595   7.425   7.355
10044POPC   C1B57367  27.697   7.605   6.455
10044POPC   C2B57368  27.715   7.648   6.755
10044POPC   C3B57369  27.672   7.654   7.055
10044POPC   C4B57370  27.667   7.621   7.355
10045POPC   NC357371  18.262   5.880   5.555
10045POPC   PO457372  18.261   5.870   5.855
10045POPC   GL157373  18.268   5.834   6.155
10045POPC   GL257374  18.251   5.950   6.155
10045POPC   C1A57375  18.294   5.857   6.455
10045POPC   D2A57376  18.328   5.869   6.755
10045POPC   C3A57377  18.282   5.910   7.055
10045POPC   C4A57378  18.286   5.899   7.355
10045POPC   C1B57379  18.274   6.101   6.455
10045POPC   C2B57380  18.306   6.101   6.755
10045POPC   C3B57381  18.289   6.074   7.055
10045POPC   C4B57382  18.264   6.119   7.355
10046POPC   NC357383  40.020   4.343   5.555
10046POPC   PO457384  39.968   4.282   5.855
10046POPC   GL157385  40.038   4.365   6.155
10046POPC   GL257386  39.989   4.189   6.155
10046POPC   C1A57387  40.049   4.313   6.455
10046POPC   D2A57388  39.971   4.301   6.755
10046POPC   C3A57389  39.988   4.297   7.055
10046POPC   C4A57390  40.042   4.362   7.355
10046POPC   C1B57391  39.990   4.093   6.455
10046POPC   C2B57392  40.043   4.054   6.755
10046POPC   C3B57393  40.029   4.094   7.055
10046POPC   C4B57394  40.042   4.024   7.355
10047POPC   NC357395  25.242  11.306   5.555
10047POPC   PO457396  25.218  11.285   5.855
10047POPC   GL157397  25.265  11.296   6.155
10047POPC   GL257398  25.289  11.139   6.155
10047POPC   C1A57399  25.228  11.294   6.455
10047POPC   D2A57400  25.240  11.268   6.755
10047POPC   C3A57401  25.305  11.259   7.055
10047POPC   C4A57402  25.217  11.325   7.355
10047POPC   C1B57403  25.317  11.093   6.455
10047POPC   C2B57404  25.303  11.026   6.755
10047POPC   C3B57405  25.304  11.017   7.055
10047POPC   C4B57406  25.325  11.041   7.355
10048POPC   NC357407  16.726  12.855   5.555
10048POPC   PO457408  16.764  12.834   5.855
10048POPC   GL157409  16.713  12.884   6.155
10048POPC   GL257410  16.773  12.758   6.155
10048POPC   C1A57411  16.763  12.807   6.455
10048POPC   D2A57412  16.686  12.849   6.755
10048POPC   C3A57413  16.701  12.851   7.055
10048POPC   C4A57414  16.692  12.867   7.355
10048POPC   C1B57415  16.765  12.638   6.455
10048POPC   C2B57416  16.746  12.562   6.755
10048POPC   C3B57417  16.781  12.640   7.055
10048POPC   C4B57418  16.800  12.559   7.355
10049POPC   NC357419   5.913  22.924   5.555
10049POPC   PO457420   5.847  22.908   5.855
10049POPC   GL157421   5.863  22.951   6.155
10049POPC   GL257422   5.840  23.045   6.155
10049POPC   C1A57423   5.827  22.891   6.455
10049POPC   D2A57424   5.862  22.958   6.755
10049POPC   C3A57425   5.871  22.888   7.055
10049POPC   C4A57426   5.862  22.957   7.355
10049POPC   C1B57427   5.913  23.141   6.455
10049POPC   C2B57428   5.897  23.192   6.755
10049POPC   C3B57429   5.846  23.235   7.055
10049POPC   C4B57430   5.882  23.218   7.355
10050POPC   NC357431   9.753  29.927   5.555
10050POPC   PO457432   9.735  29.873   5.855
10050POPC   GL157433   9.709  29.893   6.155
10050POPC   GL257434   9.690  29.754   6.155
10050POPC   C1A57435   9.793  29.912   6.455
10050POPC   D2A57436   9.719  29.900   6.755
10050POPC   C3A57437   9.708  29.935   7.055
10050POPC   C4A57438   9.741  29.916   7.355
10050POPC   C1B57439   9.672  29.719   6.455
10050POPC   C2B57440   9.696  29.720   6.755
10050POPC   C3B57441   9.671  29.643   7.055
10050POPC   C4B57442   9.694  29.702   7.355
10051POPC   NC357443   9.754   3.526   5.555
10051POPC   PO457444   9.730   3.572   5.855
10051POPC   GL157445   9.737   3.514   6.155
10051POPC   GL257446   9.668   3.451   6.155
10051POPC   C1A57447   9.715   3.562   6.455
10051POPC   D2A57448   9.785   3.533   6.755
10051POPC   C3A57449   9.723   3.531   7.055
10051POPC   C4A57450   9.745   3.548   7.355
10051POPC   C1B57451   9.531   3.466   6.455
10051POPC   C2B57452   9.540   3.483   6.755
10051POPC   C3B57453   9.557   3.405   7.055
10051POPC   C4B57454   9.466   3.469   7.355
10052POPC   NC357455   1.980  22.955   5.555
10052POPC   PO457456   2.011  22.980   5.855
10052POPC   GL157457   2.019  22.964   6.155
10052POPC   GL257458   1.997  23.111   6.155
10052POPC   C1A57459   2.028  22.895   6.455
10052POPC   D2A57460   1.960  22.924   6.755
10052POPC   C3A57461   1.962  22.895   7.055
10052POPC   C4A57462   2.028  22.978   7.355
10052POPC   C1B57463   1.924  23.190   6.455
10052POPC   C2B57464   1.934  23.223   6.755
10052POPC   C3B57465   1.947  23.187   7.055
10052POPC   C4B57466   1.991  23.140   7.355
10053POPC   NC357467  42.297  44.680   5.555
10053POPC   PO457468  42.364  44.637   5.855
10053POPC   GL157469  42.358  44.698   6.155
10053POPC   GL257470  42.377  44.739   6.155
10053POPC   C1A57471  42.288  44.692   6.455
10053POPC   D2A57472  42.285  44.641   6.755
10053POPC   C3A57473  42.352  44.709   7.055
10053POPC   C4A57474  42.370  44.706   7.355
10053POPC   C1B57475  42.334  44.898   6.455
10053POPC   C2B57476  42.366  44.893   6.755
10053POPC   C3B57477  42.374  44.863   7.055
10053POPC   C4B57478  42.343  44.922   7.355
10054POPC   NC357479  12.060  19.872   5.555
10054POPC   PO457480  12.038  19.808   5.855
10054POPC   GL157481  12.032  19.865   6.155
10054POPC   GL257482  11.945  19.807   6.155
10054POPC   C1A57483  12.115  19.876   6.455
10054POPC   D2A57484  12.042  19.840   6.755
10054POPC   C3A57485  12.055  19.797   7.055
10054POPC   C4A57486  12.063  19.825   7.355
10054POPC   C1B57487  11.849  19.753   6.455
10054POPC   C2B57488  11.861  19.769   6.755
10054POPC   C3B57489  11.816  19.731   7.055
10054POPC   C4B57490  11.825  19.774   7.355
10055POPC   NC357491  29.164  27.625   5.555
10055POPC   PO457492  29.145  27.606   5.855
10055POPC   GL157493  29.127  27.606   6.155
10055POPC   GL257494  29.248  27.515   6.155
10055POPC   C1A57495  29.170  27.565   6.455
10055POPC   D2A57496  29.164  27.592   6.755
10055POPC   C3A57497  29.123  27.565   7.055
10055POPC   C4A57498  29.134  27.608   7.355
10055POPC   C1B57499  29.290  27.357   6.455
10055POPC   C2B57500  29.260  27.397   6.755
10055POPC   C3B57501  29.317  27.432   7.055
10055POPC   C4B57502  29.325  27.422   7.355
10056POPC   NC357503  25.266  26.831   5.555
10056POPC   PO457504  25.292  26.820   5.855
10056POPC   GL157505  25.229  26.776   6.155
10056POPC   GL257506  25.167  26.841   6.155
10056POPC   C1A57507  25.273  26.843   6.455
10056POPC   D2A57508  25.289  26.778   6.755
10056POPC   C3A57509  25.307  26.856   7.055
10056POPC   C4A57510  25.242  26.793   7.355
10056POPC   C1B57511  25.018  26.944   6.455
10056POPC   C2B57512  25.047  26.885   6.755
10056POPC   C3B57513  25.019  26.886   7.055
10056POPC   C4B57514  25.050  26.908   7.355
10057POPC   NC357515   3.535   6.669   5.555
10057POPC   PO457516   3.574   6.683   5.855
10057POPC   GL157517   3.591   6.678   6.155
10057POPC   GL257518   3.507   6.714   6.155
10057POPC   C1A57519   3.524   6.690   6.455
10057POPC   D2A57520   3.501   6.693   6.755
10057POPC   C3A57521   3.589   6.633   7.055
10057POPC   C4A57522   3.513   6.650   7.355
10057POPC   C1B57523   3.455   6.907   6.455
10057POPC   C2B57524   3.490   6.852   6.755
10057POPC   C3B57525   3.466   6.872   7.055
10057POPC   C4B57526   3.494   6.834   7.355
10058POPC   NC357527  21.352  16.002   5.555
10058POPC   PO457528  21.364  15.938   5.855
10058POPC   GL157529  21.360  15.929   6.155
10058POPC   GL257530  21.318  15.837   6.155
10058POPC   C1A57531  21.340  15.974   6.455
10058POPC   D2A57532  21.388  15.999   6.755
10058POPC   C3A57533  21.384  15.924   7.055
10058POPC   C4A57534  21.394  15.997   7.355
10058POPC   C1B57535  21.291  15.749   6.455
10058POPC   C2B57536  21.280  15.741   6.755
10058POPC   C3B57537  21.230  15.695   7.055
10058POPC   C4B57538  21.299  15.744   7.355
10059POPC   NC357539  25.293   9.020   5.555
10059POPC   PO457540  25.258   8.947   5.855
10059POPC   GL157541  25.289   8.973   6.155
10059POPC   GL257542  25.266   8.807   6.155
10059POPC   C1A57543  25.242   8.925   6.455
10059POPC   D2A57544  25.314   8.975   6.755
10059POPC   C3A57545  25.313   8.963   7.055
10059POPC   C4A57546  25.274   8.953   7.355
10059POPC   C1B57547  25.214   8.690   6.455
10059POPC   C2B57548  25.193   8.714   6.755
10059POPC   C3B57549  25.239   8.721   7.055
10059POPC   C4B57550  25.182   8.700   7.355
10060POPC   NC357551  31.427  27.546   5.555
10060POPC   PO457552  31.516  27.555   5.855
10060POPC   GL157553  31.453  27.550   6.155
10060POPC   GL257554  31.386  27.487   6.155
10060POPC   C1A57555  31.490  27.553   6.455
10060POPC   D2A57556  31.452  27.598   6.755
10060POPC   C3A57557  31.423  27.579   7.055
10060POPC   C4A57558  31.437  27.571   7.355
10060POPC   C1B57559  31.339  27.337   6.455
10060POPC   C2B57560  31.373  27.390   6.755
10060POPC   C3B57561  31.387  27.370   7.055
10060POPC   C4B57562  31.355  27.348   7.355
10061POPC   NC357563   9.021  12.838   5.555
10061POPC   PO457564   8.991  12.892   5.855
10061POPC   GL157565   8.940  12.825   6.155
10061POPC   GL257566   8.817  12.876   6.155
10061POPC   C1A57567   8.923  12.839   6.455
10061POPC   D2A57568   8.944  12.811   6.755
10061POPC   C3A57569   8.952  12.881   7.055
10061POPC   C4A57570   8.984  12.892   7.355
10061POPC   C1B57571   8.728  12.827   6.455
10061POPC   C2B57572   8.697  12.815   6.755
10061POPC   C3B57573   8.698  12.791   7.055
10061POPC   C4B57574   8.743  12.775   7.355
10062POPC   NC357575   5.094  33.007   5.555
10062POPC   PO457576   5.098  33.057   5.855
10062POPC   GL157577   5.044  33.055   6.155
10062POPC   GL257578   5.227  33.047   6.155
10062POPC   C1A57579   5.131  33.045   6.455
10062POPC   D2A57580   5.132  33.006   6.755
10062POPC   C3A57581   5.081  33.054   7.055
10062POPC   C4A57582   5.136  33.043   7.355
10062POPC   C1B57583   5.385  33.048   6.455
10062POPC   C2B57584   5.371  32.967   6.755
10062POPC   C3B57585   5.382  33.004   7.055
10062POPC   C4B57586   5.358  33.031   7.355
10063POPC   NC357587  22.150   0.456   5.555
10063POPC   PO457588  22.135   0.462   5.855
10063POPC   GL157589  22.115   0.401   6.155
10063POPC   GL257590  22.310   0.409   6.155
10063POPC   C1A57591  22.151   0.398   6.455
10063POPC   D2A57592  22.208   0.402   6.755
10063POPC   C3A57593  22.154   0.412   7.055
10063POPC   C4A57594  22.149   0.434   7.355
10063POPC   C1B57595  22.395   0.385   6.455
10063POPC   C2B57596  22.418   0.356   6.755
10063POPC   C3B57597  22.407   0.354   7.055
10063POPC   C4B57598  22.351   0.317   7.355
10064POPC   NC357599   1.253  29.103   5.555
10064POPC   PO457600   1.166  29.103   5.855
10064POPC   GL157601   1.251  29.120   6.155
10064POPC   GL257602   1.139  29.053   6.155
10064POPC   C1A57603   1.263  29.145   6.455
10064POPC   D2A57604   1.238  29.106   6.755
10064POPC   C3A57605   1.166  29.164   7.055
10064POPC   C4A57606   1.203  29.125   7.355
10064POPC   C1B57607   1.150  28.917   6.455
10064POPC   C2B57608   1.187  28.939   6.755
10064POPC   C3B57609   1.148  28.915   7.055
10064POPC   C4B57610   1.110  28.941   7.355
10065POPC   NC357611  33.027  24.492   5.555
10065POPC   PO457612  33.035  24.523   5.855
10065POPC   GL157613  32.994  24.505   6.155
10065POPC   GL257614  33.156  24.433   6.155
10065POPC   C1A57615  33.054  24.473   6.455
10065POPC   D2A57616  32.999  24.493   6.755
10065POPC   C3A57617  33.054  24.522   7.055
10065POPC   C4A57618  33.007  24.469   7.355
10065POPC   C1B57619  33.165  24.258   6.455
10065POPC   C2B57620  33.192  24.328   6.755
10065POPC   C3B57621  33.206  24.344   7.055
10065POPC   C4B57622  33.213  24.256   7.355
10066POPC   NC357623  42.289  11.297   5.555
10066POPC   PO457624  42.321  11.303   5.855
10066POPC   GL157625  42.338  11.349   6.155
10066POPC   GL257626  42.202  11.388   6.155
10066POPC   C1A57627  42.302  11.317   6.455
10066POPC   D2A57628  42.324  11.309   6.755
10066POPC   C3A57629  42.376  11.333   7.055
10066POPC   C4A57630  42.314  11.343   7.355
10066POPC   C1B57631  42.093  11.418   6.455
10066POPC   C2B57632  42.095  11.446   6.755
10066POPC   C3B57633  42.151  11.481   7.055
10066POPC   C4B57634  42.105  11.439   7.355
10067POPC   NC357635  30.671  11.305   5.555
10067POPC   PO457636  30.673  11.342   5.855
10067POPC   GL157637  30.686  11.320   6.155
10067POPC   GL257638  30.791  11.302   6.155
10067POPC   C1A57639  30.715  11.265   6.455
10067POPC   D2A57640  30.667  11.301   6.755
10067POPC   C3A57641  30.724  11.307   7.055
10067POPC   C4A57642  30.689  11.274   7.355
10067POPC   C1B57643  30.924  11.287   6.455
10067POPC   C2B57644  30.898  11.298   6.755
10067POPC   C3B57645  30.918  11.280   7.055
10067POPC   C4B57646  30.957  11.294   7.355
10068POPC   NC357647   3.557  16.747   5.555
10068POPC   PO457648   3.551  16.705   5.855
10068POPC   GL157649   3.503  16.698   6.155
10068POPC   GL257650   3.484  16.809   6.155
10068POPC   C1A57651   3.585  16.687   6.455
10068POPC   D2A57652   3.509  16.760   6.755
10068POPC   C3A57653   3.524  16.705   7.055
10068POPC   C4A57654   3.561  16.736   7.355
10068POPC   C1B57655   3.425  16.941   6.455
10068POPC   C2B57656   3.498  16.944   6.755
10068POPC   C3B57657   3.462  17.008   7.055
10068POPC   C4B57658   3.450  16.959   7.355
10069POPC   NC357659   1.173  25.280   5.555
10069POPC   PO457660   1.240  25.293   5.855
10069POPC   GL157661   1.253  25.266   6.155
10069POPC   GL257662   1.083  25.257   6.155
10069POPC   C1A57663   1.197  25.240   6.455
10069POPC   D2A57664   1.233  25.238   6.755
10069POPC   C3A57665   1.229  25.289   7.055
10069POPC   C4A57666   1.256  25.232   7.355
10069POPC   C1B57667   0.985  25.286   6.455
10069POPC   C2B57668   0.938  25.322   6.755
10069POPC   C3B57669   0.955  25.367   7.055
10069POPC   C4B57670   0.973  25.341   7.355
10070POPC   NC357671  10.481  43.125   5.555
10070POPC   PO457672  10.538  43.105   5.855
10070POPC   GL157673  10.549  43.066   6.155
10070POPC   GL257674  10.520  42.942   6.155
10070POPC   C1A57675  10.560  43.084   6.455
10070POPC   D2A57676  10.498  43.098   6.755
10070POPC   C3A57677  10.524  43.111   7.055
10070POPC   C4A57678  10.570  43.156   7.355
10070POPC   C1B57679  10.575  42.812   6.455
10070POPC   C2B57680  10.502  42.904   6.755
10070POPC   C3B57681  10.535  42.906   7.055
10070POPC   C4B57682  10.572  42.836   7.355
10071POPC   NC357683  30.710  15.938   5.555
10071POPC   PO457684  30.653  15.936   5.855
10071POPC   GL157685  30.684  15.951   6.155
10071POPC   GL257686  30.708  16.103   6.155
10071POPC   C1A57687  30.696  15.989   6.455
10071POPC   D2A57688  30.665  15.920   6.755
10071POPC   C3A57689  30.724  15.997   7.055
10071POPC   C4A57690  30.667  15.956   7.355
10071POPC   C1B57691  30.590  16.243   6.455
10071POPC   C2B57692  30.606  16.229   6.755
10071POPC   C3B57693  30.630  16.226   7.055
10071POPC   C4B57694  30.590  16.242   7.355
10072POPC   NC357695  39.186   7.398   5.555
10072POPC   PO457696  39.240   7.431   5.855
10072POPC   GL157697  39.261   7.388   6.155
10072POPC   GL257698  39.219   7.268   6.155
10072POPC   C1A57699  39.247   7.435   6.455
10072POPC   D2A57700  39.220   7.439   6.755
10072POPC   C3A57701  39.211   7.371   7.055
10072POPC   C4A57702  39.251   7.382   7.355
10072POPC   C1B57703  39.294   7.194   6.455
10072POPC   C2B57704  39.224   7.164   6.755
10072POPC   C3B57705  39.269   7.180   7.055
10072POPC   C4B57706  39.269   7.194   7.355
10073POPC   NC357707  39.976   5.134   5.555
10073POPC   PO457708  40.041   5.087   5.855
10073POPC   GL157709  40.043   5.130   6.155
10073POPC   GL257710  39.986   4.974   6.155
10073POPC   C1A57711  40.051   5.058   6.455
10073POPC   D2A57712  39.961   5.127   6.755
10073POPC   C3A57713  40.034   5.113   7.055
10073POPC   C4A57714  39.963   5.119   7.355
10073POPC   C1B57715  39.939   4.801   6.455
10073POPC   C2B57716  39.934   4.860   6.755
10073POPC   C3B57717  39.947   4.819   7.055
10073POPC   C4B57718  39.979   4.890   7.355
10074POPC   NC357719  39.258  21.385   5.555
10074POPC   PO457720  39.199  21.350   5.855
10074POPC   GL157721  39.279  21.406   6.155
10074POPC   GL257722  39.180  21.493   6.155
10074POPC   C1A57723  39.259  21.379   6.455
10074POPC   D2A57724  39.251  21.382   6.755
10074POPC   C3A57725  39.244  21.391   7.055
10074POPC   C4A57726  39.197  21.376   7.355
10074POPC   C1B57727  39.060  21.560   6.455
10074POPC   C2B57728  39.113  21.591   6.755
10074POPC   C3B57729  39.073  21.596   7.055
10074POPC   C4B57730  39.097  21.570   7.355
10075POPC   NC357731  22.954  14.401   5.555
10075POPC   PO457732  22.930  14.432   5.855
10075POPC   GL157733  22.986  14.414   6.155
10075POPC   GL257734  22.880  14.501   6.155
10075POPC   C1A57735  22.944  14.355   6.455
10075POPC   D2A57736  22.939  14.418   6.755
10075POPC   C3A57737  22.907  14.440   7.055
10075POPC   C4A57738  22.951  14.449   7.355
10075POPC   C1B57739  22.709  14.523   6.455
10075POPC   C2B57740  22.758  14.579   6.755
10075POPC   C3B57741  22.701  14.584   7.055
10075POPC   C4B57742  22.765  14.614   7.355
10076POPC   NC357743   7.463  22.952   5.555
10076POPC   PO457744   7.394  22.964   5.855
10076POPC   GL157745   7.371  22.944   6.155
10076POPC   GL257746   7.405  22.845   6.155
10076POPC   C1A57747   7.468  22.936   6.455
10076POPC   D2A57748   7.383  22.944   6.755
10076POPC   C3A57749   7.435  22.971   7.055
10076POPC   C4A57750   7.455  22.961   7.355
10076POPC   C1B57751   7.475  22.705   6.455
10076POPC   C2B57752   7.465  22.643   6.755
10076POPC   C3B57753   7.425  22.689   7.055
10076POPC   C4B57754   7.451  22.729   7.355
10077POPC   NC357755  41.578  29.907   5.555
10077POPC   PO457756  41.585  29.892   5.855
10077POPC   GL157757  41.519  29.912   6.155
10077POPC   GL257758  41.521  30.011   6.155
10077POPC   C1A57759  41.530  29.962   6.455
10077POPC   D2A57760  41.582  29.912   6.755
10077POPC   C3A57761  41.561  29.944   7.055
10077POPC   C4A57762  41.530  29.962   7.355
10077POPC   C1B57763  41.489  30.174   6.455
10077POPC   C2B57764  41.479  30.181   6.755
10077POPC   C3B57765  41.550  30.158   7.055
10077POPC   C4B57766  41.524  30.157   7.355
10078POPC   NC357767  26.032  11.276   5.555
10078POPC   PO457768  26.074  11.309   5.855
10078POPC   GL157769  25.995  11.323   6.155
10078POPC   GL257770  26.085  11.234   6.155
10078POPC   C1A57771  26.036  11.251   6.455
10078POPC   D2A57772  25.995  11.274   6.755
10078POPC   C3A57773  26.081  11.294   7.055
10078POPC   C4A57774  26.027  11.288   7.355
10078POPC   C1B57775  26.212  11.128   6.455
10078POPC   C2B57776  26.204  11.055   6.755
10078POPC   C3B57777  26.137  11.091   7.055
10078POPC   C4B57778  26.149  11.046   7.355
10079POPC   NC357779  12.094  36.152   5.555
10079POPC   PO457780  12.054  36.098   5.855
10079POPC   GL157781  12.035  36.107   6.155
10079POPC   GL257782  11.964  36.224   6.155
10079POPC   C1A57783  12.050  36.120   6.455
10079POPC   D2A57784  12.034  36.146   6.755
10079POPC   C3A57785  12.120  36.089   7.055
10079POPC   C4A57786  12.112  36.106   7.355
10079POPC   C1B57787  11.859  36.221   6.455
10079POPC   C2B57788  11.851  36.268   6.755
10079POPC   C3B57789  11.859  36.268   7.055
10079POPC   C4B57790  11.893  36.213   7.355
10080POPC   NC357791   2.792  14.450   5.555
10080POPC   PO457792   2.735  14.380   5.855
10080POPC   GL157793   2.784  14.434   6.155
10080POPC   GL257794   2.772  14.500   6.155
10080POPC   C1A57795   2.757  14.440   6.455
10080POPC   D2A57796   2.755  14.437   6.755
10080POPC   C3A57797   2.727  14.376   7.055
10080POPC   C4A57798   2.794  14.407   7.355
10080POPC   C1B57799   2.756  14.682   6.455
10080POPC   C2B57800   2.765  14.606   6.755
10080POPC   C3B57801   2.745  14.653   7.055
10080POPC   C4B57802   2.747  14.683   7.355
10081POPC   NC357803  37.666  28.368   5.555
10081POPC   PO457804  37.715  28.328   5.855
10081POPC   GL157805  37.658  28.341   6.155
10081POPC   GL257806  37.719  28.480   6.155
10081POPC   C1A57807  37.641  28.340   6.455
10081POPC   D2A57808  37.668  28.390   6.755
10081POPC   C3A57809  37.698  28.361   7.055
10081POPC   C4A57810  37.694  28.415   7.355
10081POPC   C1B57811  37.722  28.648   6.455
10081POPC   C2B57812  37.756  28.621   6.755
10081POPC   C3B57813  37.740  28.571   7.055
10081POPC   C4B57814  37.707  28.589   7.355
10082POPC   NC357815  20.656  35.390   5.555
10082POPC   PO457816  20.622  35.318   5.855
10082POPC   GL157817  20.604  35.396   6.155
10082POPC   GL257818  20.713  35.478   6.155
10082POPC   C1A57819  20.627  35.312   6.455
10082POPC   D2A57820  20.609  35.326   6.755
10082POPC   C3A57821  20.600  35.331   7.055
10082POPC   C4A57822  20.566  35.344   7.355
10082POPC   C1B57823  20.787  35.490   6.455
10082POPC   C2B57824  20.750  35.548   6.755
10082POPC   C3B57825  20.822  35.576   7.055
10082POPC   C4B57826  20.778  35.573   7.355
10083POPC   NC357827  25.996  38.427   5.555
10083POPC   PO457828  26.072  38.459   5.855
10083POPC   GL157829  26.003  38.478   6.155
10083POPC   GL257830  26.124  38.394   6.155
10083POPC   C1A57831  26.058  38.407   6.455
10083POPC   D2A57832  26.003  38.426   6.755
10083POPC   C3A57833  26.081  38.480   7.055
10083POPC   C4A57834  26.084  38.433   7.355
10083POPC   C1B57835  26.265  38.334   6.455
10083POPC   C2B57836  26.273  38.333   6.755
10083POPC   C3B57837  26.289  38.365   7.055
10083POPC   C4B57838  26.315  38.369   7.355
10084POPC   NC357839  28.365  26.049   5.555
10084POPC   PO457840  28.380  26.044   5.855
10084POPC   GL157841  28.363  26.030   6.155
10084POPC   GL257842  28.255  25.976   6.155
10084POPC   C1A57843  28.339  26.066   6.455
10084POPC   D2A57844  28.351  26.054   6.755
10084POPC   C3A57845  28.361  26.070   7.055
10084POPC   C4A57846  28.366  26.066   7.355
10084POPC   C1B57847  28.166  25.894   6.455
10084POPC   C2B57848  28.190  25.839   6.755
10084POPC   C3B57849  28.185  25.910   7.055
10084POPC   C4B57850  28.201  25.866   7.355
10085POPC   NC357851   5.088  42.335   5.555
10085POPC   PO457852   5.090  42.338   5.855
10085POPC   GL157853   5.109  42.319   6.155
10085POPC   GL257854   5.073  42.501   6.155
10085POPC   C1A57855   5.078  42.378   6.455
10085POPC   D2A57856   5.099  42.320   6.755
10085POPC   C3A57857   5.062  42.366   7.055
10085POPC   C4A57858   5.054  42.383   7.355
10085POPC   C1B57859   5.144  42.601   6.455
10085POPC   C2B57860   5.098  42.541   6.755
10085POPC   C3B57861   5.157  42.620   7.055
10085POPC   C4B57862   5.111  42.551   7.355
10086POPC   NC357863  25.261   7.386   5.555
10086POPC   PO457864  25.250   7.438   5.855
10086POPC   GL157865  25.219   7.430   6.155
10086POPC   GL257866  25.271   7.577   6.155
10086POPC   C1A57867  25.236   7.397   6.455
10086POPC   D2A57868  25.249   7.439   6.755
10086POPC   C3A57869  25.310   7.459   7.055
10086POPC   C4A57870  25.297   7.469   7.355
10086POPC   C1B57871  25.321   7.679   6.455
10086POPC   C2B57872  25.265   7.633   6.755
10086POPC   C3B57873  25.290   7.690   7.055
10086POPC   C4B57874  25.292   7.623   7.355
10087POPC   NC357875  14.453   2.005   5.555
10087POPC   PO457876  14.447   2.027   5.855
10087POPC   GL157877  14.392   1.977   6.155
10087POPC   GL257878  14.267   2.089   6.155
10087POPC   C1A57879  14.420   1.981   6.455
10087POPC   D2A57880  14.438   1.968   6.755
10087POPC   C3A57881  14.365   1.943   7.055
10087POPC   C4A57882  14.440   1.962   7.355
10087POPC   C1B57883  14.243   2.174   6.455
10087POPC   C2B57884  14.264   2.201   6.755
10087POPC   C3B57885  14.269   2.187   7.055
10087POPC   C4B57886  14.244   2.157   7.355
10088POPC   NC357887  42.363   1.952   5.555
10088POPC   PO457888  42.313   2.023   5.855
10088POPC   GL157889  42.348   2.001   6.155
10088POPC   GL257890  42.464   1.930   6.155
10088POPC   C1A57891  42.334   2.025   6.455
10088POPC   D2A57892  42.307   2.013   6.755
10088POPC   C3A57893  42.308   1.988   7.055
10088POPC   C4A57894  42.379   2.005   7.355
10088POPC   C1B57895  42.555   1.904   6.455
10088POPC   C2B57896  42.571   1.893   6.755
10088POPC   C3B57897  42.573   1.849   7.055
10088POPC   C4B57898  42.534   1.882   7.355
10089POPC   NC357899  30.689  10.570   5.555
10089POPC   PO457900  30.728  10.558   5.855
10089POPC   GL157901  30.688  10.549   6.155
10089POPC   GL257902  30.783  10.573   6.155
10089POPC   C1A57903  30.688  10.534   6.455
10089POPC   D2A57904  30.665  10.486   6.755
10089POPC   C3A57905  30.685  10.533   7.055
10089POPC   C4A57906  30.678  10.507   7.355
10089POPC   C1B57907  30.959  10.498   6.455
10089POPC   C2B57908  30.897  10.588   6.755
10089POPC   C3B57909  30.995  10.585   7.055
10089POPC   C4B57910  30.950  10.591   7.355
10090POPC   NC357911  10.538  10.561   5.555
10090POPC   PO457912  10.513  10.487   5.855
10090POPC   GL157913  10.516  10.516   6.155
10090POPC   GL257914  10.559  10.381   6.155
10090POPC   C1A57915  10.479  10.538   6.455
10090POPC   D2A57916  10.523  10.533   6.755
10090POPC   C3A57917  10.491  10.485   7.055
10090POPC   C4A57918  10.572  10.542   7.355
10090POPC   C1B57919  10.611  10.270   6.455
10090POPC   C2B57920  10.533  10.321   6.755
10090POPC   C3B57921  10.561  10.251   7.055
10090POPC   C4B57922  10.533  10.286   7.355
10091POPC   NC357923  12.856   1.973   5.555
10091POPC   PO457924  12.861   2.037   5.855
10091POPC   GL157925  12.897   2.039   6.155
10091POPC   GL257926  12.989   2.058   6.155
10091POPC   C1A57927  12.805   1.973   6.455
10091POPC   D2A57928  12.868   1.957   6.755
10091POPC   C3A57929  12.888   2.015   7.055
10091POPC   C4A57930  12.899   1.953   7.355
10091POPC   C1B57931  13.008   2.151   6.455
10091POPC   C2B57932  13.040   2.159   6.755
10091POPC   C3B57933  13.086   2.122   7.055
10091POPC   C4B57934  13.027   2.172   7.355
10092POPC   NC357935   5.836  17.489   5.555
10092POPC   PO457936   5.841  17.543   5.855
10092POPC   GL157937   5.829  17.490   6.155
10092POPC   GL257938   5.853  17.619   6.155
10092POPC   C1A57939   5.854  17.481   6.455
10092POPC   D2A57940   5.889  17.524   6.755
10092POPC   C3A57941   5.898  17.542   7.055
10092POPC   C4A57942   5.894  17.460   7.355
10092POPC   C1B57943   5.846  17.742   6.455
10092POPC   C2B57944   5.867  17.728   6.755
10092POPC   C3B57945   5.873  17.733   7.055
10092POPC   C4B57946   5.864  17.784   7.355
10093POPC   NC357947  20.595  38.417   5.555
10093POPC   PO457948  20.582  38.462   5.855
10093POPC   GL157949  20.562  38.441   6.155
10093POPC   GL257950  20.484  38.457   6.155
10093POPC   C1A57951  20.589  38.505   6.455
10093POPC   D2A57952  20.562  38.469   6.755
10093POPC   C3A57953  20.653  38.491   7.055
10093POPC   C4A57954  20.572  38.493   7.355
10093POPC   C1B57955  20.313  38.427   6.455
10093POPC   C2B57956  20.324  38.492   6.755
10093POPC   C3B57957  20.377  38.503   7.055
10093POPC   C4B57958  20.410  38.439   7.355
10094POPC   NC357959   8.965  34.589   5.555
10094POPC   PO457960   8.950  34.560   5.855
10094POPC   GL157961   8.995  34.610   6.155
10094POPC   GL257962   8.828  34.593   6.155
10094POPC   C1A57963   8.956  34.552   6.455
10094POPC   D2A57964   8.961  34.543   6.755
10094POPC   C3A57965   8.987  34.600   7.055
10094POPC   C4A57966   8.992  34.614   7.355
10094POPC   C1B57967   8.742  34.606   6.455
10094POPC   C2B57968   8.765  34.627   6.755
10094POPC   C3B57969   8.768  34.654   7.055
10094POPC   C4B57970   8.756  34.628   7.355
10095POPC   NC357971   8.192  19.801   5.555
10095POPC   PO457972   8.149  19.872   5.855
10095POPC   GL157973   8.158  19.820   6.155
10095POPC   GL257974   8.039  19.870   6.155
10095POPC   C1A57975   8.240  19.821   6.455
10095POPC   D2A57976   8.164  19.829   6.755
10095POPC   C3A57977   8.150  19.851   7.055
10095POPC   C4A57978   8.158  19.791   7.355
10095POPC   C1B57979   7.961  19.954   6.455
10095POPC   C2B57980   7.947  19.903   6.755
10095POPC   C3B57981   8.013  19.972   7.055
10095POPC   C4B57982   7.993  19.953   7.355
10096POPC   NC357983  26.778   8.215   5.555
10096POPC   PO457984  26.779   8.221   5.855
10096POPC   GL157985  26.827   8.149   6.155
10096POPC   GL257986  26.829   8.042   6.155
10096POPC   C1A57987  26.802   8.200   6.455
10096POPC   D2A57988  26.810   8.177   6.755
10096POPC   C3A57989  26.808   8.194   7.055
10096POPC   C4A57990  26.800   8.164   7.355
10096POPC   C1B57991  26.811   7.972   6.455
10096POPC   C2B57992  26.839   7.899   6.755
10096POPC   C3B57993  26.779   7.939   7.055
10096POPC   C4B57994  26.750   7.952   7.355
10097POPC   NC357995  17.505  31.431   5.555
10097POPC   PO457996  17.465  31.436   5.855
10097POPC   GL157997  17.471  31.471   6.155
10097POPC   GL257998  17.469  31.399   6.155
10097POPC   C1A57999  17.525  31.441   6.455
10097POPC   D2A58000  17.497  31.517   6.755
10097POPC   C3A58001  17.533  31.442   7.055
10097POPC   C4A58002  17.484  31.444   7.355
10097POPC   C1B58003  17.378  31.279   6.455
10097POPC   C2B58004  17.386  31.291   6.755
10097POPC   C3B58005  17.423  31.289   7.055
10097POPC   C4B58006  17.390  31.260   7.355
10098POPC   NC358007  21.340  41.599   5.555
10098POPC   PO458008  21.343  41.516   5.855
10098POPC   GL158009  21.426  41.598   6.155
10098POPC   GL258010  21.298  41.503   6.155
10098POPC   C1A58011  21.432  41.601   6.455
10098POPC   D2A58012  21.430  41.582   6.755
10098POPC   C3A58013  21.395  41.526   7.055
10098POPC   C4A58014  21.411  41.565   7.355
10098POPC   C1B58015  21.220  41.460   6.455
10098POPC   C2B58016  21.192  41.399   6.755
10098POPC   C3B58017  21.141  41.451   7.055
10098POPC   C4B58018  21.157  41.381   7.355
10099POPC   NC358019  28.355  41.562   5.555
10099POPC   PO458020  28.337  41.591   5.855
10099POPC   GL158021  28.367  41.605   6.155
10099POPC   GL258022  28.516  41.629   6.155
10099POPC   C1A58023  28.349  41.535   6.455
10099POPC   D2A58024  28.415  41.554   6.755
10099POPC   C3A58025  28.320  41.575   7.055
10099POPC   C4A58026  28.389  41.519   7.355
10099POPC   C1B58027  28.568  41.711   6.455
10099POPC   C2B58028  28.558  41.719   6.755
10099POPC   C3B58029  28.591  41.692   7.055
10099POPC   C4B58030  28.533  41.715   7.355
10100POPC   NC358031  23.752   8.220   5.555
10100POPC   PO458032  23.732   8.159   5.855
10100POPC   GL158033  23.748   8.197   6.155
10100POPC   GL258034  23.590   8.222   6.155
10100POPC   C1A58035  23.748   8.240   6.455
10100POPC   D2A58036  23.747   8.191   6.755
10100POPC   C3A58037  23.749   8.185   7.055
10100POPC   C4A58038  23.763   8.171   7.355
10100POPC   C1B58039  23.512   8.304   6.455
10100POPC   C2B58040  23.523   8.325   6.755
10100POPC   C3B58041  23.452   8.246   7.055
10100POPC   C4B58042  23.450   8.243   7.355
10101POPC   NC358043  32.199   3.497   5.555
10101POPC   PO458044  32.201   3.518   5.855
10101POPC   GL158045  32.266   3.506   6.155
10101POPC   GL258046  32.411   3.542   6.155
10101POPC   C1A58047  32.226   3.562   6.455
10101POPC   D2A58048  32.294   3.534   6.755
10101POPC   C3A58049  32.222   3.588   7.055
10101POPC   C4A58050  32.284   3.542   7.355
10101POPC   C1B58051  32.502   3.573   6.455
10101POPC   C2B58052  32.451   3.551   6.755
10101POPC   C3B58053  32.526   3.559   7.055
10101POPC   C4B58054  32.520   3.595   7.355
10102POPC   NC358055  25.217   5.110   5.555
10102POPC   PO458056  25.243   5.107   5.855
10102POPC   GL158057  25.306   5.073   6.155
10102POPC   GL258058  25.182   5.037   6.155
10102POPC   C1A58059  25.284   5.129   6.455
10102POPC   D2A58060  25.288   5.117   6.755
10102POPC   C3A58061  25.248   5.082   7.055
10102POPC   C4A58062  25.296   5.134   7.355
10102POPC   C1B58063  24.989   5.047   6.455
10102POPC   C2B58064  25.072   4.980   6.755
10102POPC   C3B58065  25.054   5.078   7.055
10102POPC   C4B58066  25.051   5.027   7.355
10103POPC   NC358067  16.776  41.558   5.555
10103POPC   PO458068  16.721  41.596   5.855
10103POPC   GL158069  16.711  41.546   6.155
10103POPC   GL258070  16.693  41.405   6.155
10103POPC   C1A58071  16.714  41.568   6.455
10103POPC   D2A58072  16.754  41.511   6.755
10103POPC   C3A58073  16.766  41.554   7.055
10103POPC   C4A58074  16.692  41.581   7.355
10103POPC   C1B58075  16.671  41.304   6.455
10103POPC   C2B58076  16.730  41.262   6.755
10103POPC   C3B58077  16.728  41.282   7.055
10103POPC   C4B58078  16.649  41.341   7.355
10104POPC   NC358079  13.640  32.260   5.555
10104POPC   PO458080  13.644  32.257   5.855
10104POPC   GL158081  13.657  32.239   6.155
10104POPC   GL258082  13.538  32.245   6.155
10104POPC   C1A58083  13.594  32.249   6.455
10104POPC   D2A58084  13.592  32.247   6.755
10104POPC   C3A58085  13.612  32.206   7.055
10104POPC   C4A58086  13.608  32.244   7.355
10104POPC   C1B58087  13.373  32.265   6.455
10104POPC   C2B58088  13.365  32.315   6.755
10104POPC   C3B58089  13.421  32.252   7.055
10104POPC   C4B58090  13.374  32.254   7.355
10105POPC   NC358091   5.090  10.551   5.555
10105POPC   PO458092   5.091  10.539   5.855
10105POPC   GL158093   5.106  10.497   6.155
10105POPC   GL258094   5.169  10.572   6.155
10105POPC   C1A58095   5.047  10.517   6.455
10105POPC   D2A58096   5.100  10.511   6.755
10105POPC   C3A58097   5.062  10.501   7.055
10105POPC   C4A58098   5.103  10.506   7.355
10105POPC   C1B58099   5.346  10.609   6.455
10105POPC   C2B58100   5.317  10.558   6.755
10105POPC   C3B58101   5.303  10.597   7.055
10105POPC   C4B58102   5.309  10.567   7.355
10106POPC   NC358103   8.923  40.007   5.555
10106POPC   PO458104   8.983  40.024   5.855
10106POPC   GL158105   8.975  39.993   6.155
10106POPC   GL258106   8.819  40.100   6.155
10106POPC   C1A58107   8.972  40.003   6.455
10106POPC   D2A58108   8.940  40.052   6.755
10106POPC   C3A58109   8.922  39.969   7.055
10106POPC   C4A58110   9.000  40.009   7.355
10106POPC   C1B58111   8.774  40.161   6.455
10106POPC   C2B58112   8.806  40.148   6.755
10106POPC   C3B58113   8.787  40.127   7.055
10106POPC   C4B58114   8.738  40.137   7.355
10107POPC   NC358115  44.636  16.682   5.555
10107POPC   PO458116  44.671  16.764   5.855
10107POPC   GL158117  44.658  16.681   6.155
10107POPC   GL258118  44.793  16.724   6.155
10107POPC   C1A58119  44.706  16.728   6.455
10107POPC   D2A58120  44.688  16.688   6.755
10107POPC   C3A58121  44.692  16.706   7.055
10107POPC   C4A58122  44.618  16.758   7.355
10107POPC   C1B58123  44.891  16.707   6.455
10107POPC   C2B58124  44.865  16.735   6.755
10107POPC   C3B58125  44.960  16.685   7.055
10107POPC   C4B58126  44.875  16.740   7.355
10108POPC   NC358127  19.838  28.327   5.555
10108POPC   PO458128  19.859  28.400   5.855
10108POPC   GL158129  19.834  28.321   6.155
10108POPC   GL258130  19.753  28.277   6.155
10108POPC   C1A58131  19.832  28.346   6.455
10108POPC   D2A58132  19.852  28.326   6.755
10108POPC   C3A58133  19.850  28.364   7.055
10108POPC   C4A58134  19.807  28.415   7.355
10108POPC   C1B58135  19.771  28.124   6.455
10108POPC   C2B58136  19.800  28.100   6.755
10108POPC   C3B58137  19.805  28.081   7.055
10108POPC   C4B58138  19.801  28.125   7.355
10109POPC   NC358139  29.099  10.483   5.555
10109POPC   PO458140  29.121  10.529   5.855
10109POPC   GL158141  29.180  10.531   6.155
10109POPC   GL258142  29.079  10.465   6.155
10109POPC   C1A58143  29.161  10.489   6.455
10109POPC   D2A58144  29.113  10.568   6.755
10109POPC   C3A58145  29.186  10.528   7.055
10109POPC   C4A58146  29.180  10.512   7.355
10109POPC   C1B58147  28.941  10.393   6.455
10109POPC   C2B58148  28.932  10.410   6.755
10109POPC   C3B58149  28.899  10.384   7.055
10109POPC   C4B58150  28.929  10.341   7.355
10110POPC   NC358151  10.552  31.479   5.555
10110POPC   PO458152  10.571  31.440   5.855
10110POPC   GL158153  10.480  31.440   6.155
10110POPC   GL258154  10.361  31.503   6.155
10110POPC   C1A58155  10.553  31.448   6.455
10110POPC   D2A58156  10.477  31.477   6.755
10110POPC   C3A58157  10.573  31.492   7.055
10110POPC   C4A58158  10.510  31.486   7.355
10110POPC   C1B58159  10.227  31.440   6.455
10110POPC   C2B58160  10.226  31.454   6.755
10110POPC   C3B58161  10.229  31.489   7.055
10110POPC   C4B58162  10.232  31.456   7.355
10111POPC   NC358163   3.561  35.317   5.555
10111POPC   PO458164   3.523  35.371   5.855
10111POPC   GL158165   3.494  35.358   6.155
10111POPC   GL258166   3.413  35.336   6.155
10111POPC   C1A58167   3.570  35.359   6.455
10111POPC   D2A58168   3.512  35.325   6.755
10111POPC   C3A58169   3.555  35.391   7.055
10111POPC   C4A58170   3.559  35.342   7.355
10111POPC   C1B58171   3.315  35.289   6.455
10111POPC   C2B58172   3.292  35.346   6.755
10111POPC   C3B58173   3.266  35.361   7.055
10111POPC   C4B58174   3.330  35.293   7.355
10112POPC   NC358175   5.083  29.907   5.555
10112POPC   PO458176   5.135  29.957   5.855
10112POPC   GL158177   5.110  29.962   6.155
10112POPC   GL258178   4.955  30.023   6.155
10112POPC   C1A58179   5.127  29.889   6.455
10112POPC   D2A58180   5.136  29.882   6.755
10112POPC   C3A58181   5.101  29.896   7.055
10112POPC   C4A58182   5.120  29.955   7.355
10112POPC   C1B58183   4.938  30.045   6.455
10112POPC   C2B58184   4.935  30.122   6.755
10112POPC   C3B58185   4.938  30.107   7.055
10112POPC   C4B58186   4.934  30.090   7.355
10113POPC   NC358187  23.702  32.995   5.555
10113POPC   PO458188  23.718  32.997   5.855
10113POPC   GL158189  23.689  32.988   6.155
10113POPC   GL258190  23.849  33.019   6.155
10113POPC   C1A58191  23.711  33.068   6.455
10113POPC   D2A58192  23.726  33.072   6.755
10113POPC   C3A58193  23.731  33.025   7.055
10113POPC   C4A58194  23.748  33.013   7.355
10113POPC   C1B58195  23.964  33.123   6.455
10113POPC   C2B58196  23.982  33.057   6.755
10113POPC   C3B58197  23.952  33.047   7.055
10113POPC   C4B58198  23.964  33.098   7.355
10114POPC   NC358199  12.851  38.412   5.555
10114POPC   PO458200  12.829  38.498   5.855
10114POPC   GL158201  12.822  38.431   6.155
10114POPC   GL258202  12.985  38.440   6.155
10114POPC   C1A58203  12.853  38.478   6.455
10114POPC   D2A58204  12.811  38.422   6.755
10114POPC   C3A58205  12.803  38.432   7.055
10114POPC   C4A58206  12.822  38.452   7.355
10114POPC   C1B58207  13.059  38.563   6.455
10114POPC   C2B58208  13.076  38.480   6.755
10114POPC   C3B58209  13.100  38.527   7.055
10114POPC   C4B58210  13.067  38.556   7.355
10115POPC   NC358211  39.252  29.872   5.555
10115POPC   PO458212  39.267  29.916   5.855
10115POPC   GL158213  39.214  29.964   6.155
10115POPC   GL258214  39.359  29.850   6.155
10115POPC   C1A58215  39.204  29.884   6.455
10115POPC   D2A58216  39.208  29.888   6.755
10115POPC   C3A58217  39.248  29.908   7.055
10115POPC   C4A58218  39.189  29.923   7.355
10115POPC   C1B58219  39.355  29.735   6.455
10115POPC   C2B58220  39.391  29.700   6.755
10115POPC   C3B58221  39.387  29.744   7.055
10115POPC   C4B58222  39.349  29.679   7.355
10116POPC   NC358223   6.601  15.914   5.555
10116POPC   PO458224   6.648  15.951   5.855
10116POPC   GL158225   6.612  15.920   6.155
10116POPC   GL258226   6.704  15.868   6.155
10116POPC   C1A58227   6.643  15.980   6.455
10116POPC   D2A58228   6.596  15.985   6.755
10116POPC   C3A58229   6.693  15.979   7.055
10116POPC   C4A58230   6.597  15.913   7.355
10116POPC   C1B58231   6.710  15.704   6.455
10116POPC   C2B58232   6.729  15.766   6.755
10116POPC   C3B58233   6.708  15.754   7.055
10116POPC   C4B58234   6.727  15.716   7.355
10117POPC   NC358235  27.559  44.673   5.555
10117POPC   PO458236  27.558  44.678   5.855
10117POPC   GL158237  27.569  44.704   6.155
10117POPC   GL258238  27.572  44.804   6.155
10117POPC   C1A58239  27.640  44.638   6.455
10117POPC   D2A58240  27.588  44.690   6.755
10117POPC   C3A58241  27.599  44.636   7.055
10117POPC   C4A58242  27.613  44.676   7.355
10117POPC   C1B58243  27.494  44.950   6.455
10117POPC   C2B58244  27.579  44.900   6.755
10117POPC   C3B58245  27.510  44.856   7.055
10117POPC   C4B58246  27.538  44.910   7.355
10118POPC   NC358247   2.782   7.377   5.555
10118POPC   PO458248   2.754   7.416   5.855
10118POPC   GL158249   2.793   7.398   6.155
10118POPC   GL258250   2.768   7.300   6.155
10118POPC   C1A58251   2.775   7.375   6.455
10118POPC   D2A58252   2.722   7.377   6.755
10118POPC   C3A58253   2.804   7.382   7.055
10118POPC   C4A58254   2.813   7.403   7.355
10118POPC   C1B58255   2.734   7.133   6.455
10118POPC   C2B58256   2.804   7.217   6.755
10118POPC   C3B58257   2.756   7.161   7.055
10118POPC   C4B58258   2.740   7.124   7.355
10119POPC   NC358259  26.782  15.964   5.555
10119POPC   PO458260  26.829  15.985   5.855
10119POPC   GL158261  26.860  15.954   6.155
10119POPC   GL258262  26.936  16.019   6.155
10119POPC   C1A58263  26.845  15.996   6.455
10119POPC   D2A58264  26.805  15.986   6.755
10119POPC   C3A58265  26.862  15.985   7.055
10119POPC   C4A58266  26.790  15.951   7.355
10119POPC   C1B58267  27.059  15.994   6.455
10119POPC   C2B58268  27.057  16.037   6.755
10119POPC   C3B58269  27.012  16.034   7.055
10119POPC   C4B58270  27.034  15.972   7.355
10120POPC   NC358271   5.114  38.481   5.555
10120POPC   PO458272   5.079  38.482   5.855
10120POPC   GL158273   5.082  38.418   6.155
10120POPC   GL258274   5.037  38.372   6.155
10120POPC   C1A58275   5.122  38.429   6.455
10120POPC   D2A58276   5.085  38.445   6.755
10120POPC   C3A58277   5.047  38.457   7.055
10120POPC   C4A58278   5.122  38.409   7.355
10120POPC   C1B58279   4.919  38.245   6.455
10120POPC   C2B58280   4.907  38.262   6.755
10120POPC   C3B58281   4.885  38.310   7.055
10120POPC   C4B58282   4.867  38.272   7.355
10121POPC   NC358283   4.309  17.551   5.555
10121POPC   PO458284   4.347  17.499   5.855
10121POPC   GL158285   4.336  17.523   6.155
10121POPC   GL258286   4.219  17.637   6.155
10121POPC   C1A58287   4.271  17.477   6.455
10121POPC   D2A58288   4.342  17.539   6.755
10121POPC   C3A58289   4.330  17.543   7.055
10121POPC   C4A58290   4.340  17.518   7.355
10121POPC   C1B58291   4.203  17.690   6.455
10121POPC   C2B58292   4.114  17.681   6.755
10121POPC   C3B58293   4.190  17.664   7.055
10121POPC   C4B58294   4.174  17.751   7.355
10122POPC   NC358295  12.860  41.607   5.555
10122POPC   PO458296  12.840  41.591   5.855
10122POPC   GL158297  12.902  41.527   6.155
10122POPC   GL258298  12.890  41.678   6.155
10122POPC   C1A58299  12.870  41.516   6.455
10122POPC   D2A58300  12.868  41.572   6.755
10122POPC   C3A58301  12.815  41.570   7.055
10122POPC   C4A58302  12.864  41.512   7.355
10122POPC   C1B58303  12.873  41.783   6.455
10122POPC   C2B58304  12.834  41.846   6.755
10122POPC   C3B58305  12.866  41.796   7.055
10122POPC   C4B58306  12.843  41.837   7.355
10123POPC   NC358307  44.658  11.267   5.555
10123POPC   PO458308  44.668  11.268   5.855
10123POPC   GL158309  44.619  11.325   6.155
10123POPC   GL258310  44.773  11.325   6.155
10123POPC   C1A58311  44.625  11.339   6.455
10123POPC   D2A58312  44.636  11.265   6.755
10123POPC   C3A58313  44.678  11.284   7.055
10123POPC   C4A58314  44.671  11.258   7.355
10123POPC   C1B58315  44.862  11.445   6.455
10123POPC   C2B58316  44.861  11.482   6.755
10123POPC   C3B58317  44.872  11.387   7.055
10123POPC   C4B58318  44.920  11.412   7.355
10124POPC   NC358319  15.981  35.317   5.555
10124POPC   PO458320  15.975  35.393   5.855
10124POPC   GL158321  15.924  35.361   6.155
10124POPC   GL258322  16.080  35.461   6.155
10124POPC   C1A58323  15.979  35.351   6.455
10124POPC   D2A58324  15.918  35.327   6.755
10124POPC   C3A58325  15.990  35.314   7.055
10124POPC   C4A58326  16.001  35.308   7.355
10124POPC   C1B58327  16.152  35.476   6.455
10124POPC   C2B58328  16.181  35.520   6.755
10124POPC   C3B58329  16.169  35.467   7.055
10124POPC   C4B58330  16.122  35.489   7.355
10125POPC   NC358331   1.989  42.380   5.555
10125POPC   PO458332   2.028  42.297   5.855
10125POPC   GL158333   1.972  42.360   6.155
10125POPC   GL258334   2.086  42.455   6.155
10125POPC   C1A58335   2.033  42.288   6.455
10125POPC   D2A58336   1.964  42.380   6.755
10125POPC   C3A58337   1.963  42.302   7.055
10125POPC   C4A58338   1.973  42.356   7.355
10125POPC   C1B58339   2.156  42.441   6.455
10125POPC   C2B58340   2.200  42.485   6.755
10125POPC   C3B58341   2.224  42.536   7.055
10125POPC   C4B58342   2.170  42.480   7.355
10126POPC   NC358343   0.405  31.477   5.555
10126POPC   PO458344   0.445  31.479   5.855
10126POPC   GL158345   0.418  31.424   6.155
10126POPC   GL258346   0.354  31.404   6.155
10126POPC   C1A58347   0.416  31.511   6.455
10126POPC   D2A58348   0.402  31.478   6.755
10126POPC   C3A58349   0.485  31.428   7.055
10126POPC   C4A58350   0.467  31.428   7.355
10126POPC   C1B58351   0.176  31.312   6.455
10126POPC   C2B58352   0.242  31.372   6.755
10126POPC   C3B58353   0.214  31.402   7.055
10126POPC   C4B58354   0.225  31.331   7.355
10127POPC   NC358355   4.282   5.889   5.555
10127POPC   PO458356   4.307   5.884   5.855
10127POPC   GL158357   4.270   5.855   6.155
10127POPC   GL258358   4.398   5.766   6.155
10127POPC   C1A58359   4.311   5.906   6.455
10127POPC   D2A58360   4.313   5.866   6.755
10127POPC   C3A58361   4.311   5.902   7.055
10127POPC   C4A58362   4.296   5.883   7.355
10127POPC   C1B58363   4.389   5.630   6.455
10127POPC   C2B58364   4.427   5.644   6.755
10127POPC   C3B58365   4.464   5.672   7.055
10127POPC   C4B58366   4.461   5.620   7.355
10128POPC   NC358367  37.707  29.187   5.555
10128POPC   PO458368  37.655  29.159   5.855
10128POPC   GL158369  37.654  29.159   6.155
10128POPC   GL258370  37.600  29.038   6.155
10128POPC   C1A58371  37.700  29.132   6.455
10128POPC   D2A58372  37.662  29.167   6.755
10128POPC   C3A58373  37.685  29.152   7.055
10128POPC   C4A58374  37.665  29.111   7.355
10128POPC   C1B58375  37.512  29.036   6.455
10128POPC   C2B58376  37.425  29.034   6.755
10128POPC   C3B58377  37.427  29.038   7.055
10128POPC   C4B58378  37.455  29.019   7.355
10129POPC   NC358379  34.621   4.324   5.555
10129POPC   PO458380  34.588   4.272   5.855
10129POPC   GL158381  34.579   4.331   6.155
10129POPC   GL258382  34.737   4.361   6.155
10129POPC   C1A58383  34.569   4.289   6.455
10129POPC   D2A58384  34.595   4.358   6.755
10129POPC   C3A58385  34.617   4.354   7.055
10129POPC   C4A58386  34.586   4.329   7.355
10129POPC   C1B58387  34.799   4.424   6.455
10129POPC   C2B58388  34.804   4.382   6.755
10129POPC   C3B58389  34.776   4.363   7.055
10129POPC   C4B58390  34.840   4.352   7.355
10130POPC   NC358391  40.751   0.422   5.555
10130POPC   PO458392  40.753   0.474   5.855
10130POPC   GL158393  40.750   0.406   6.155
10130POPC   GL258394  40.849   0.498   6.155
10130POPC   C1A58395  40.782   0.397   6.455
10130POPC   D2A58396  40.806   0.410   6.755
10130POPC   C3A58397  40.749   0.476   7.055
10130POPC   C4A58398  40.762   0.462   7.355
10130POPC   C1B58399  41.047   0.565   6.455
10130POPC   C2B58400  41.027   0.533   6.755
10130POPC   C3B58401  41.016   0.571   7.055
10130POPC   C4B58402  40.989   0.505   7.355
10131POPC   NC358403  43.069  29.962   5.555
10131POPC   PO458404  43.137  29.875   5.855
10131POPC   GL158405  43.087  29.895   6.155
10131POPC   GL258406  43.158  29.840   6.155
10131POPC   C1A58407  43.153  29.961   6.455
10131POPC   D2A58408  43.111  29.913   6.755
10131POPC   C3A58409  43.125  29.873   7.055
10131POPC   C4A58410  43.100  29.879   7.355
10131POPC   C1B58411  43.154  29.678   6.455
10131POPC   C2B58412  43.146  29.677   6.755
10131POPC   C3B58413  43.151  29.695   7.055
10131POPC   C4B58414  43.135  29.647   7.355
10132POPC   NC358415  29.925  16.761   5.555
10132POPC   PO458416  29.908  16.779   5.855
10132POPC   GL158417  29.914  16.730   6.155
10132POPC   GL258418  29.970  16.586   6.155
10132POPC   C1A58419  29.964  16.714   6.455
10132POPC   D2A58420  29.906  16.749   6.755
10132POPC   C3A58421  29.890  16.759   7.055
10132POPC   C4A58422  29.914  16.702   7.355
10132POPC   C1B58423  29.958  16.494   6.455
10132POPC   C2B58424  30.035  16.479   6.755
10132POPC   C3B58425  29.959  16.461   7.055
10132POPC   C4B58426  29.967  16.540   7.355
10133POPC   NC358427  12.103  28.338   5.555
10133POPC   PO458428  12.107  28.412   5.855
10133POPC   GL158429  12.120  28.328   6.155
10133POPC   GL258430  12.104  28.486   6.155
10133POPC   C1A58431  12.113  28.353   6.455
10133POPC   D2A58432  12.032  28.337   6.755
10133POPC   C3A58433  12.105  28.334   7.055
10133POPC   C4A58434  12.094  28.361   7.355
10133POPC   C1B58435  12.106  28.661   6.455
10133POPC   C2B58436  12.091  28.635   6.755
10133POPC   C3B58437  12.093  28.655   7.055
10133POPC   C4B58438  12.063  28.585   7.355
10134POPC   NC358439   8.225  29.178   5.555
10134POPC   PO458440   8.181  29.163   5.855
10134POPC   GL158441   8.186  29.184   6.155
10134POPC   GL258442   8.139  29.222   6.155
10134POPC   C1A58443   8.241  29.129   6.455
10134POPC   D2A58444   8.197  29.122   6.755
10134POPC   C3A58445   8.238  29.182   7.055
10134POPC   C4A58446   8.208  29.187   7.355
10134POPC   C1B58447   8.041  29.326   6.455
10134POPC   C2B58448   8.077  29.364   6.755
10134POPC   C3B58449   8.062  29.357   7.055
10134POPC   C4B58450   8.031  29.406   7.355
10135POPC   NC358451  36.164  31.510   5.555
10135POPC   PO458452  36.157  31.440   5.855
10135POPC   GL158453  36.093  31.473   6.155
10135POPC   GL258454  36.031  31.518   6.155
10135POPC   C1A58455  36.106  31.465   6.455
10135POPC   D2A58456  36.119  31.477   6.755
10135POPC   C3A58457  36.166  31.434   7.055
10135POPC   C4A58458  36.078  31.424   7.355
10135POPC   C1B58459  35.860  31.623   6.455
10135POPC   C2B58460  35.887  31.640   6.755
10135POPC   C3B58461  35.867  31.592   7.055
10135POPC   C4B58462  35.891  31.603   7.355
10136POPC   NC358463   5.086  19.009   5.555
10136POPC   PO458464   5.102  19.062   5.855
10136POPC   GL158465   5.054  19.026   6.155
10136POPC   GL258466   5.068  18.951   6.155
10136POPC   C1A58467   5.092  19.059   6.455
10136POPC   D2A58468   5.071  19.093   6.755
10136POPC   C3A58469   5.114  19.067   7.055
10136POPC   C4A58470   5.071  19.083   7.355
10136POPC   C1B58471   5.109  18.815   6.455
10136POPC   C2B58472   5.173  18.808   6.755
10136POPC   C3B58473   5.107  18.766   7.055
10136POPC   C4B58474   5.153  18.831   7.355
10137POPC   NC358475   2.735  27.611   5.555
10137POPC   PO458476   2.796  27.627   5.855
10137POPC   GL158477   2.794  27.593   6.155
10137POPC   GL258478   2.610  27.569   6.155
10137POPC   C1A58479   2.803  27.602   6.455
10137POPC   D2A58480   2.789  27.606   6.755
10137POPC   C3A58481   2.738  27.561   7.055
10137POPC   C4A58482   2.813  27.619   7.355
10137POPC   C1B58483   2.516  27.602   6.455
10137POPC   C2B58484   2.563  27.544   6.755
10137POPC   C3B58485   2.564  27.617   7.055
10137POPC   C4B58486   2.558  27.575   7.355
10138POPC   NC358487  15.143  43.086   5.555
10138POPC   PO458488  15.157  43.070   5.855
10138POPC   GL158489  15.196  43.119   6.155
10138POPC   GL258490  15.257  42.957   6.155
10138POPC   C1A58491  15.157  43.136   6.455
10138POPC   D2A58492  15.166  43.150   6.755
10138POPC   C3A58493  15.146  43.115   7.055
10138POPC   C4A58494  15.164  43.062   7.355
10138POPC   C1B58495  15.272  42.891   6.455
10138POPC   C2B58496  15.288  42.899   6.755
10138POPC   C3B58497  15.283  42.894   7.055
10138POPC   C4B58498  15.247  42.891   7.355
10139POPC   NC358499  35.358  18.326   5.555
10139POPC   PO458500  35.382  18.233   5.855
10139POPC   GL158501  35.348  18.266   6.155
10139POPC   GL258502  35.238  18.377   6.155
10139POPC   C1A58503  35.359  18.256   6.455
10139POPC   D2A58504  35.382  18.320   6.755
10139POPC   C3A58505  35.389  18.238   7.055
10139POPC   C4A58506  35.360  18.248   7.355
10139POPC   C1B58507  35.114  18.392   6.455
10139POPC   C2B58508  35.109  18.386   6.755
10139POPC   C3B58509  35.121  18.441   7.055
10139POPC   C4B58510  35.094  18.401   7.355
10140POPC   NC358511   2.002   5.843   5.555
10140POPC   PO458512   1.983   5.865   5.855
10140POPC   GL158513   1.953   5.876   6.155
10140POPC   GL258514   1.899   5.903   6.155
10140POPC   C1A58515   1.990   5.863   6.455
10140POPC   D2A58516   1.990   5.870   6.755
10140POPC   C3A58517   1.951   5.847   7.055
10140POPC   C4A58518   1.957   5.842   7.355
10140POPC   C1B58519   1.787   6.023   6.455
10140POPC   C2B58520   1.754   5.972   6.755
10140POPC   C3B58521   1.742   6.005   7.055
10140POPC   C4B58522   1.763   6.018   7.355
10141POPC   NC358523   4.305   7.468   5.555
10141POPC   PO458524   4.320   7.458   5.855
10141POPC   GL158525   4.350   7.427   6.155
10141POPC   GL258526   4.226   7.422   6.155
10141POPC   C1A58527   4.297   7.413   6.455
10141POPC   D2A58528   4.335   7.393   6.755
10141POPC   C3A58529   4.366   7.394   7.055
10141POPC   C4A58530   4.301   7.430   7.355
10141POPC   C1B58531   4.081   7.461   6.455
10141POPC   C2B58532   4.115   7.489   6.755
10141POPC   C3B58533   4.037   7.500   7.055
10141POPC   C4B58534   4.074   7.444   7.355
10142POPC   NC358535   6.676  22.943   5.555
10142POPC   PO458536   6.669  22.920   5.855
10142POPC   GL158537   6.655  22.925   6.155
10142POPC   GL258538   6.720  22.809   6.155
10142POPC   C1A58539   6.625  22.968   6.455
10142POPC   D2A58540   6.632  22.939   6.755
10142POPC   C3A58541   6.680  22.936   7.055
10142POPC   C4A58542   6.619  22.896   7.355
10142POPC   C1B58543   6.813  22.724   6.455
10142POPC   C2B58544   6.784  22.819   6.755
10142POPC   C3B58545   6.782  22.772   7.055
10142POPC   C4B58546   6.840  22.766   7.355
10143POPC   NC358547  24.470  34.586   5.555
10143POPC   PO458548  24.525  34.531   5.855
10143POPC   GL158549  24.458  34.624   6.155
10143POPC   GL258550  24.498  34.660   6.155
10143POPC   C1A58551  24.507  34.610   6.455
10143POPC   D2A58552  24.493  34.613   6.755
10143POPC   C3A58553  24.515  34.613   7.055
10143POPC   C4A58554  24.460  34.582   7.355
10143POPC   C1B58555  24.574  34.812   6.455
10143POPC   C2B58556  24.595  34.771   6.755
10143POPC   C3B58557  24.583  34.848   7.055
10143POPC   C4B58558  24.599  34.766   7.355
10144POPC   NC358559  35.308  41.555   5.555
10144POPC   PO458560  35.324  41.596   5.855
10144POPC   GL158561  35.376  41.583   6.155
10144POPC   GL258562  35.502  41.610   6.155
10144POPC   C1A58563  35.310  41.577   6.455
10144POPC   D2A58564  35.337  41.590   6.755
10144POPC   C3A58565  35.372  41.552   7.055
10144POPC   C4A58566  35.378  41.533   7.355
10144POPC   C1B58567  35.610  41.593   6.455
10144POPC   C2B58568  35.620  41.549   6.755
10144POPC   C3B58569  35.650  41.541   7.055
10144POPC   C4B58570  35.613  41.596   7.355
10145POPC   NC358571   0.418  16.727   5.555
10145POPC   PO458572   0.430  16.687   5.855
10145POPC   GL158573   0.406  16.700   6.155
10145POPC   GL258574   0.501  16.671   6.155
10145POPC   C1A58575   0.481  16.744   6.455
10145POPC   D2A58576   0.450  16.772   6.755
10145POPC   C3A58577   0.438  16.695   7.055
10145POPC   C4A58578   0.445  16.687   7.355
10145POPC   C1B58579   0.559  16.514   6.455
10145POPC   C2B58580   0.591  16.572   6.755
10145POPC   C3B58581   0.611  16.548   7.055
10145POPC   C4B58582   0.621  16.516   7.355
10146POPC   NC358583   9.755  25.296   5.555
10146POPC   PO458584   9.743  25.222   5.855
10146POPC   GL158585   9.733  25.273   6.155
10146POPC   GL258586   9.864  25.321   6.155
10146POPC   C1A58587   9.714  25.233   6.455
10146POPC   D2A58588   9.739  25.291   6.755
10146POPC   C3A58589   9.723  25.312   7.055
10146POPC   C4A58590   9.752  25.307   7.355
10146POPC   C1B58591   9.908  25.458   6.455
10146POPC   C2B58592   9.885  25.453   6.755
10146POPC   C3B58593   9.940  25.442   7.055
10146POPC   C4B58594   9.911  25.507   7.355
10147POPC   NC358595   9.716  26.784   5.555
10147POPC   PO458596   9.759  26.822   5.855
10147POPC   GL158597   9.736  26.826   6.155
10147POPC   GL258598   9.727  26.725   6.155
10147POPC   C1A58599   9.765  26.847   6.455
10147POPC   D2A58600   9.773  26.798   6.755
10147POPC   C3A58601   9.718  26.856   7.055
10147POPC   C4A58602   9.732  26.826   7.355
10147POPC   C1B58603   9.608  26.608   6.455
10147POPC   C2B58604   9.615  26.617   6.755
10147POPC   C3B58605   9.580  26.597   7.055
10147POPC   C4B58606   9.596  26.625   7.355
10148POPC   NC358607  30.649  21.404   5.555
10148POPC   PO458608  30.744  21.426   5.855
10148POPC   GL158609  30.685  21.425   6.155
10148POPC   GL258610  30.642  21.520   6.155
10148POPC   C1A58611  30.724  21.393   6.455
10148POPC   D2A58612  30.672  21.411   6.755
10148POPC   C3A58613  30.723  21.362   7.055
10148POPC   C4A58614  30.684  21.432   7.355
10148POPC   C1B58615  30.565  21.639   6.455
10148POPC   C2B58616  30.611  21.644   6.755
10148POPC   C3B58617  30.629  21.655   7.055
10148POPC   C4B58618  30.540  21.591   7.355
10149POPC   NC358619  15.211  36.864   5.555
10149POPC   PO458620  15.136  36.870   5.855
10149POPC   GL158621  15.134  36.913   6.155
10149POPC   GL258622  15.246  36.812   6.155
10149POPC   C1A58623  15.158  36.904   6.455
10149POPC   D2A58624  15.168  36.888   6.755
10149POPC   C3A58625  15.174  36.889   7.055
10149POPC   C4A58626  15.203  36.879   7.355
10149POPC   C1B58627  15.238  36.698   6.455
10149POPC   C2B58628  15.253  36.612   6.755
10149POPC   C3B58629  15.199  36.709   7.055
10149POPC   C4B58630  15.276  36.664   7.355
10150POPC   NC358631  37.671  33.818   5.555
10150POPC   PO458632  37.676  33.785   5.855
10150POPC   GL158633  37.684  33.753   6.155
10150POPC   GL258634  37.710  33.869   6.155
10150POPC   C1A58635  37.657  33.850   6.455
10150POPC   D2A58636  37.693  33.784   6.755
10150POPC   C3A58637  37.652  33.832   7.055
10150POPC   C4A58638  37.648  33.754   7.355
10150POPC   C1B58639  37.823  34.052   6.455
10150POPC   C2B58640  37.765  34.053   6.755
10150POPC   C3B58641  37.780  34.046   7.055
10150POPC   C4B58642  37.765  33.999   7.355
10151POPC   NC358643   8.216  39.198   5.555
10151POPC   PO458644   8.160  39.222   5.855
10151POPC   GL158645   8.168  39.199   6.155
10151POPC   GL258646   8.108  39.147   6.155
10151POPC   C1A58647   8.153  39.255   6.455
10151POPC   D2A58648   8.184  39.248   6.755
10151POPC   C3A58649   8.202  39.204   7.055
10151POPC   C4A58650   8.175  39.215   7.355
10151POPC   C1B58651   8.022  39.082   6.455
10151POPC   C2B58652   8.070  39.044   6.755
10151POPC   C3B58653   7.997  39.008   7.055
10151POPC   C4B58654   8.059  39.053   7.355
10152POPC   NC358655  40.023  38.482   5.555
10152POPC   PO458656  40.015  38.484   5.855
10152POPC   GL158657  40.056  38.484   6.155
10152POPC   GL258658  40.100  38.587   6.155
10152POPC   C1A58659  40.045  38.440   6.455
10152POPC   D2A58660  40.000  38.491   6.755
10152POPC   C3A58661  40.001  38.480   7.055
10152POPC   C4A58662  39.999  38.424   7.355
10152POPC   C1B58663  40.075  38.715   6.455
10152POPC   C2B58664  40.070  38.658   6.755
10152POPC   C3B58665  40.159  38.647   7.055
10152POPC   C4B58666  40.140  38.703   7.355
10153POPC   NC358667  36.889  26.050   5.555
10153POPC   PO458668  36.909  26.038   5.855
10153POPC   GL158669  36.942  26.074   6.155
10153POPC   GL258670  36.987  26.151   6.155
10153POPC   C1A58671  36.953  26.050   6.455
10153POPC   D2A58672  36.931  26.026   6.755
10153POPC   C3A58673  36.950  26.053   7.055
10153POPC   C4A58674  36.898  26.070   7.355
10153POPC   C1B58675  37.017  26.296   6.455
10153POPC   C2B58676  37.037  26.297   6.755
10153POPC   C3B58677  37.003  26.294   7.055
10153POPC   C4B58678  37.023  26.232   7.355
10154POPC   NC358679  27.607   8.964   5.555
10154POPC   PO458680  27.630   8.923   5.855
10154POPC   GL158681  27.589   8.958   6.155
10154POPC   GL258682  27.504   8.896   6.155
10154POPC   C1A58683  27.583   8.959   6.455
10154POPC   D2A58684  27.592   9.006   6.755
10154POPC   C3A58685  27.573   9.001   7.055
10154POPC   C4A58686  27.593   8.933   7.355
10154POPC   C1B58687  27.388   8.841   6.455
10154POPC   C2B58688  27.355   8.820   6.755
10154POPC   C3B58689  27.369   8.828   7.055
10154POPC   C4B58690  27.364   8.895   7.355
10155POPC   NC358691  37.706   8.150   5.555
10155POPC   PO458692  37.632   8.157   5.855
10155POPC   GL158693  37.638   8.198   6.155
10155POPC   GL258694  37.785   8.282   6.155
10155POPC   C1A58695  37.699   8.172   6.455
10155POPC   D2A58696  37.659   8.228   6.755
10155POPC   C3A58697  37.643   8.165   7.055
10155POPC   C4A58698  37.634   8.246   7.355
10155POPC   C1B58699  37.858   8.400   6.455
10155POPC   C2B58700  37.849   8.398   6.755
10155POPC   C3B58701  37.816   8.397   7.055
10155POPC   C4B58702  37.805   8.339   7.355
10156POPC   NC358703   7.451  30.694   5.555
10156POPC   PO458704   7.452  30.746   5.855
10156POPC   GL158705   7.442  30.690   6.155
10156POPC   GL258706   7.360  30.842   6.155
10156POPC   C1A58707   7.450  30.726   6.455
10156POPC   D2A58708   7.468  30.703   6.755
10156POPC   C3A58709   7.447  30.705   7.055
10156POPC   C4A58710   7.397  30.740   7.355
10156POPC   C1B58711   7.319  30.905   6.455
10156POPC   C2B58712   7.301  30.890   6.755
10156POPC   C3B58713   7.275  30.873   7.055
10156POPC   C4B58714   7.239  30.915   7.355
10157POPC   NC358715   2.806   8.962   5.555
10157POPC   PO458716   2.763   8.958   5.855
10157POPC   GL158717   2.793   9.006   6.155
10157POPC   GL258718   2.809   8.857   6.155
10157POPC   C1A58719   2.722   9.019   6.455
10157POPC   D2A58720   2.739   9.006   6.755
10157POPC   C3A58721   2.777   8.928   7.055
10157POPC   C4A58722   2.756   8.965   7.355
10157POPC   C1B58723   2.800   8.770   6.455
10157POPC   C2B58724   2.767   8.745   6.755
10157POPC   C3B58725   2.758   8.730   7.055
10157POPC   C4B58726   2.780   8.752   7.355
10158POPC   NC358727  14.356  17.481   5.555
10158POPC   PO458728  14.359  17.512   5.855
10158POPC   GL158729  14.435  17.502   6.155
10158POPC   GL258730  14.359  17.595   6.155
10158POPC   C1A58731  14.393  17.476   6.455
10158POPC   D2A58732  14.448  17.478   6.755
10158POPC   C3A58733  14.376  17.551   7.055
10158POPC   C4A58734  14.408  17.481   7.355
10158POPC   C1B58735  14.417  17.715   6.455
10158POPC   C2B58736  14.405  17.787   6.755
10158POPC   C3B58737  14.463  17.803   7.055
10158POPC   C4B58738  14.430  17.745   7.355
10159POPC   NC358739  14.358  39.217   5.555
10159POPC   PO458740  14.355  39.205   5.855
10159POPC   GL158741  14.403  39.271   6.155
10159POPC   GL258742  14.254  39.250   6.155
10159POPC   C1A58743  14.370  39.241   6.455
10159POPC   D2A58744  14.428  39.185   6.755
10159POPC   C3A58745  14.357  39.239   7.055
10159POPC   C4A58746  14.376  39.247   7.355
10159POPC   C1B58747  14.204  39.363   6.455
10159POPC   C2B58748  14.211  39.389   6.755
10159POPC   C3B58749  14.211  39.386   7.055
10159POPC   C4B58750  14.149  39.311   7.355
10160POPC   NC358751  19.107  30.724   5.555
10160POPC   PO458752  19.037  30.699   5.855
10160POPC   GL158753  19.045  30.693   6.155
10160POPC   GL258754  18.970  30.660   6.155
10160POPC   C1A58755  19.053  30.704   6.455
10160POPC   D2A58756  19.029  30.713   6.755
10160POPC   C3A58757  19.048  30.746   7.055
10160POPC   C4A58758  19.083  30.706   7.355
10160POPC   C1B58759  18.760  30.702   6.455
10160POPC   C2B58760  18.760  30.671   6.755
10160POPC   C3B58761  18.819  30.643   7.055
10160POPC   C4B58762  18.777  30.649   7.355
10161POPC   NC358763  44.640   9.787   5.555
10161POPC   PO458764  44.658   9.767   5.855
10161POPC   GL158765  44.703   9.741   6.155
10161POPC   GL258766  44.643   9.852   6.155
10161POPC   C1A58767  44.616   9.736   6.455
10161POPC   D2A58768  44.706   9.768   6.755
10161POPC   C3A58769  44.614   9.713   7.055
10161POPC   C4A58770  44.689   9.702   7.355
10161POPC   C1B58771  44.542   9.997   6.455
10161POPC   C2B58772  44.510   9.926   6.755
10161POPC   C3B58773  44.544   9.990   7.055
10161POPC   C4B58774  44.588   9.984   7.355
10162POPC   NC358775   1.221   4.295   5.555
10162POPC   PO458776   1.190   4.289   5.855
10162POPC   GL158777   1.236   4.342   6.155
10162POPC   GL258778   1.333   4.207   6.155
10162POPC   C1A58779   1.232   4.354   6.455
10162POPC   D2A58780   1.209   4.347   6.755
10162POPC   C3A58781   1.230   4.303   7.055
10162POPC   C4A58782   1.231   4.327   7.355
10162POPC   C1B58783   1.422   4.173   6.455
10162POPC   C2B58784   1.438   4.153   6.755
10162POPC   C3B58785   1.391   4.140   7.055
10162POPC   C4B58786   1.432   4.183   7.355
10163POPC   NC358787   8.163   2.722   5.555
10163POPC   PO458788   8.214   2.780   5.855
10163POPC   GL158789   8.147   2.776   6.155
10163POPC   GL258790   8.195   2.607   6.155
10163POPC   C1A58791   8.185   2.729   6.455
10163POPC   D2A58792   8.174   2.765   6.755
10163POPC   C3A58793   8.212   2.779   7.055
10163POPC   C4A58794   8.245   2.768   7.355
10163POPC   C1B58795   8.265   2.533   6.455
10163POPC   C2B58796   8.280   2.520   6.755
10163POPC   C3B58797   8.330   2.525   7.055
10163POPC   C4B58798   8.250   2.486   7.355
10164POPC   NC358799  17.482   0.463   5.555
10164POPC   PO458800  17.527   0.398   5.855
10164POPC   GL158801  17.540   0.423   6.155
10164POPC   GL258802  17.435   0.480   6.155
10164POPC   C1A58803  17.550   0.419   6.455
10164POPC   D2A58804  17.539   0.411   6.755
10164POPC   C3A58805  17.498   0.487   7.055
10164POPC   C4A58806  17.496   0.401   7.355
10164POPC   C1B58807  17.249   0.545   6.455
10164POPC   C2B58808  17.224   0.549   6.755
10164POPC   C3B58809  17.252   0.495   7.055
10164POPC   C4B58810  17.305   0.527   7.355
10165POPC   NC358811  41.588  12.839   5.555
10165POPC   PO458812  41.524  12.823   5.855
10165POPC   GL158813  41.515  12.863   6.155
10165POPC   GL258814  41.473  12.716   6.155
10165POPC   C1A58815  41.550  12.804   6.455
10165POPC   D2A58816  41.579  12.802   6.755
10165POPC   C3A58817  41.539  12.827   7.055
10165POPC   C4A58818  41.552  12.838   7.355
10165POPC   C1B58819  41.439  12.620   6.455
10165POPC   C2B58820  41.500  12.664   6.755
10165POPC   C3B58821  41.443  12.615   7.055
10165POPC   C4B58822  41.485  12.598   7.355
10166POPC   NC358823  39.997   5.902   5.555
10166POPC   PO458824  39.976   5.916   5.855
10166POPC   GL158825  39.963   5.848   6.155
10166POPC   GL258826  39.935   5.952   6.155
10166POPC   C1A58827  40.053   5.845   6.455
10166POPC   D2A58828  40.019   5.890   6.755
10166POPC   C3A58829  40.026   5.896   7.055
10166POPC   C4A58830  40.039   5.903   7.355
10166POPC   C1B58831  39.752   6.015   6.455
10166POPC   C2B58832  39.774   5.980   6.755
10166POPC   C3B58833  39.767   5.990   7.055
10166POPC   C4B58834  39.833   6.029   7.355
10167POPC   NC358835  14.391  15.960   5.555
10167POPC   PO458836  14.371  15.989   5.855
10167POPC   GL158837  14.431  16.005   6.155
10167POPC   GL258838  14.363  15.823   6.155
10167POPC   C1A58839  14.374  15.925   6.455
10167POPC   D2A58840  14.434  15.952   6.755
10167POPC   C3A58841  14.403  15.976   7.055
10167POPC   C4A58842  14.428  15.909   7.355
10167POPC   C1B58843  14.319  15.749   6.455
10167POPC   C2B58844  14.276  15.698   6.755
10167POPC   C3B58845  14.348  15.767   7.055
10167POPC   C4B58846  14.310  15.688   7.355
10168POPC   NC358847  40.822  30.746   5.555
10168POPC   PO458848  40.738  30.741   5.855
10168POPC   GL158849  40.799  30.741   6.155
10168POPC   GL258850  40.837  30.585   6.155
10168POPC   C1A58851  40.752  30.738   6.455
10168POPC   D2A58852  40.771  30.676   6.755
10168POPC   C3A58853  40.749  30.693   7.055
10168POPC   C4A58854  40.772  30.649   7.355
10168POPC   C1B58855  40.937  30.552   6.455
10168POPC   C2B58856  40.947  30.494   6.755
10168POPC   C3B58857  40.963  30.534   7.055
10168POPC   C4B58858  40.994  30.570   7.355
10169POPC   NC358859  31.426  41.525   5.555
10169POPC   PO458860  31.482  41.544   5.855
10169POPC   GL158861  31.500  41.603   6.155
10169POPC   GL258862  31.350  41.579   6.155
10169POPC   C1A58863  31.501  41.536   6.455
10169POPC   D2A58864  31.489  41.601   6.755
10169POPC   C3A58865  31.446  41.569   7.055
10169POPC   C4A58866  31.472  41.592   7.355
10169POPC   C1B58867  31.277  41.713   6.455
10169POPC   C2B58868  31.237  41.682   6.755
10169POPC   C3B58869  31.285  41.717   7.055
10169POPC   C4B58870  31.251  41.736   7.355
10170POPC   NC358871  42.347  33.043   5.555
10170POPC   PO458872  42.351  33.065   5.855
10170POPC   GL158873  42.326  33.013   6.155
10170POPC   GL258874  42.407  33.076   6.155
10170POPC   C1A58875  42.338  33.055   6.455
10170POPC   D2A58876  42.314  33.068   6.755
10170POPC   C3A58877  42.331  33.035   7.055
10170POPC   C4A58878  42.368  33.001   7.355
10170POPC   C1B58879  42.527  33.180   6.455
10170POPC   C2B58880  42.538  33.101   6.755
10170POPC   C3B58881  42.530  33.190   7.055
10170POPC   C4B58882  42.588  33.172   7.355
10171POPC   NC358883  40.807  12.116   5.555
10171POPC   PO458884  40.806  12.085   5.855
10171POPC   GL158885  40.807  12.046   6.155
10171POPC   GL258886  40.851  12.235   6.155
10171POPC   C1A58887  40.808  12.055   6.455
10171POPC   D2A58888  40.819  12.103   6.755
10171POPC   C3A58889  40.820  12.085   7.055
10171POPC   C4A58890  40.751  12.072   7.355
10171POPC   C1B58891  40.869  12.305   6.455
10171POPC   C2B58892  40.840  12.277   6.755
10171POPC   C3B58893  40.876  12.278   7.055
10171POPC   C4B58894  40.858  12.266   7.355
10172POPC   NC358895  16.731  40.029   5.555
10172POPC   PO458896  16.696  40.016   5.855
10172POPC   GL158897  16.720  39.997   6.155
10172POPC   GL258898  16.646  40.029   6.155
10172POPC   C1A58899  16.698  40.018   6.455
10172POPC   D2A58900  16.702  40.017   6.755
10172POPC   C3A58901  16.772  39.986   7.055
10172POPC   C4A58902  16.702  39.977   7.355
10172POPC   C1B58903  16.449  40.051   6.455
10172POPC   C2B58904  16.528  40.056   6.755
10172POPC   C3B58905  16.506  40.125   7.055
10172POPC   C4B58906  16.522  40.056   7.355
10173POPC   NC358907  12.049  14.390   5.555
10173POPC   PO458908  12.105  14.397   5.855
10173POPC   GL158909  12.115  14.432   6.155
10173POPC   GL258910  11.992  14.332   6.155
10173POPC   C1A58911  12.103  14.406   6.455
10173POPC   D2A58912  12.049  14.416   6.755
10173POPC   C3A58913  12.048  14.383   7.055
10173POPC   C4A58914  12.102  14.405   7.355
10173POPC   C1B58915  11.919  14.221   6.455
10173POPC   C2B58916  11.924  14.283   6.755
10173POPC   C3B58917  11.859  14.233   7.055
10173POPC   C4B58918  11.874  14.231   7.355
10174POPC   NC358919   4.297  29.110   5.555
10174POPC   PO458920   4.331  29.168   5.855
10174POPC   GL158921   4.349  29.168   6.155
10174POPC   GL258922   4.401  29.191   6.155
10174POPC   C1A58923   4.355  29.108   6.455
10174POPC   D2A58924   4.293  29.105   6.755
10174POPC   C3A58925   4.361  29.111   7.055
10174POPC   C4A58926   4.277  29.168   7.355
10174POPC   C1B58927   4.544  29.210   6.455
10174POPC   C2B58928   4.600  29.177   6.755
10174POPC   C3B58929   4.521  29.199   7.055
10174POPC   C4B58930   4.602  29.158   7.355
10175POPC   NC358931  29.902  23.669   5.555
10175POPC   PO458932  29.968  23.759   5.855
10175POPC   GL158933  29.937  23.688   6.155
10175POPC   GL258934  29.877  23.569   6.155
10175POPC   C1A58935  29.924  23.702   6.455
10175POPC   D2A58936  29.890  23.692   6.755
10175POPC   C3A58937  29.924  23.753   7.055
10175POPC   C4A58938  29.920  23.756   7.355
10175POPC   C1B58939  29.796  23.495   6.455
10175POPC   C2B58940  29.806  23.529   6.755
10175POPC   C3B58941  29.776  23.522   7.055
10175POPC   C4B58942  29.834  23.493   7.355
10176POPC   NC358943  21.401  42.370   5.555
10176POPC   PO458944  21.355  42.287   5.855
10176POPC   GL158945  21.430  42.344   6.155
10176POPC   GL258946  21.513  42.312   6.155
10176POPC   C1A58947  21.349  42.370   6.455
10176POPC   D2A58948  21.379  42.327   6.755
10176POPC   C3A58949  21.394  42.318   7.055
10176POPC   C4A58950  21.368  42.375   7.355
10176POPC   C1B58951  21.675  42.292   6.455
10176POPC   C2B58952  21.640  42.313   6.755
10176POPC   C3B58953  21.652  42.267   7.055
10176POPC   C4B58954  21.683  42.248   7.355
10177POPC   NC358955  35.342  43.914   5.555
10177POPC   PO458956  35.367  43.848   5.855
10177POPC   GL158957  35.376  43.927   6.155
10177POPC   GL258958  35.283  43.851   6.155
10177POPC   C1A58959  35.376  43.861   6.455
10177POPC   D2A58960  35.338  43.854   6.755
10177POPC   C3A58961  35.312  43.858   7.055
10177POPC   C4A58962  35.332  43.922   7.355
10177POPC   C1B58963  35.147  43.747   6.455
10177POPC   C2B58964  35.087  43.794   6.755
10177POPC   C3B58965  35.147  43.719   7.055
10177POPC   C4B58966  35.157  43.787   7.355
10178POPC   NC358967   4.346  15.226   5.555
10178POPC   PO458968   4.283  15.228   5.855
10178POPC   GL158969   4.295  15.195   6.155
10178POPC   GL258970   4.246  15.243   6.155
10178POPC   C1A58971   4.340  15.213   6.455
10178POPC   D2A58972   4.301  15.202   6.755
10178POPC   C3A58973   4.295  15.157   7.055
10178POPC   C4A58974   4.274  15.139   7.355
10178POPC   C1B58975   4.167  15.372   6.455
10178POPC   C2B58976   4.207  15.364   6.755
10178POPC   C3B58977   4.165  15.361   7.055
10178POPC   C4B58978   4.239  15.389   7.355
10179POPC   NC358979   1.972  22.180   5.555
10179POPC   PO458980   1.959  22.210   5.855
10179POPC   GL158981   1.950  22.124   6.155
10179POPC   GL258982   1.866  22.055   6.155
10179POPC   C1A58983   2.012  22.183   6.455
10179POPC   D2A58984   2.012  22.192   6.755
10179POPC   C3A58985   2.034  22.152   7.055
10179POPC   C4A58986   2.028  22.117   7.355
10179POPC   C1B58987   1.831  21.982   6.455
10179POPC   C2B58988   1.773  22.005   6.755
10179POPC   C3B58989   1.778  22.004   7.055
10179POPC   C4B58990   1.862  21.935   7.355
10180POPC   NC358991  27.588  19.810   5.555
10180POPC   PO458992  27.599  19.837   5.855
10180POPC   GL158993  27.605  19.821   6.155
10180POPC   GL258994  27.639  19.688   6.155
10180POPC   C1A58995  27.634  19.840   6.455
10180POPC   D2A58996  27.564  19.867   6.755
10180POPC   C3A58997  27.593  19.880   7.055
10180POPC   C4A58998  27.559  19.855   7.355
10180POPC   C1B58999  27.662  19.577   6.455
10180POPC   C2B59000  27.631  19.619   6.755
10180POPC   C3B59001  27.687  19.576   7.055
10180POPC   C4B59002  27.617  19.568   7.355
10181POPC   NC359003   4.307  32.282   5.555
10181POPC   PO459004   4.270  32.282   5.855
10181POPC   GL159005   4.305  32.252   6.155
10181POPC   GL259006   4.430  32.238   6.155
10181POPC   C1A59007   4.348  32.278   6.455
10181POPC   D2A59008   4.270  32.242   6.755
10181POPC   C3A59009   4.275  32.292   7.055
10181POPC   C4A59010   4.284  32.215   7.355
10181POPC   C1B59011   4.554  32.283   6.455
10181POPC   C2B59012   4.563  32.312   6.755
10181POPC   C3B59013   4.598  32.273   7.055
10181POPC   C4B59014   4.514  32.323   7.355
10182POPC   NC359015   3.507  36.943   5.555
10182POPC   PO459016   3.547  36.898   5.855
10182POPC   GL159017   3.581  36.872   6.155
10182POPC   GL259018   3.692  36.874   6.155
10182POPC   C1A59019   3.495  36.867   6.455
10182POPC   D2A59020   3.584  36.951   6.755
10182POPC   C3A59021   3.583  36.857   7.055
10182POPC   C4A59022   3.549  36.935   7.355
10182POPC   C1B59023   3.766  36.858   6.455
10182POPC   C2B59024   3.801  36.893   6.755
10182POPC   C3B59025   3.813  36.845   7.055
10182POPC   C4B59026   3.773  36.847   7.355
10183POPC   NC359027  12.807  35.365   5.555
10183POPC   PO459028  12.821  35.344   5.855
10183POPC   GL159029  12.886  35.343   6.155
10183POPC   GL259030  12.824  35.441   6.155
10183POPC   C1A59031  12.889  35.337   6.455
10183POPC   D2A59032  12.804  35.305   6.755
10183POPC   C3A59033  12.808  35.362   7.055
10183POPC   C4A59034  12.807  35.324   7.355
10183POPC   C1B59035  12.738  35.637   6.455
10183POPC   C2B59036  12.766  35.546   6.755
10183POPC   C3B59037  12.818  35.546   7.055
10183POPC   C4B59038  12.784  35.553   7.355
10184POPC   NC359039  13.611  43.075   5.555
10184POPC   PO459040  13.631  43.149   5.855
10184POPC   GL159041  13.605  43.079   6.155
10184POPC   GL259042  13.596  42.975   6.155
10184POPC   C1A59043  13.630  43.149   6.455
10184POPC   D2A59044  13.639  43.109   6.755
10184POPC   C3A59045  13.598  43.094   7.055
10184POPC   C4A59046  13.626  43.121   7.355
10184POPC   C1B59047  13.510  42.914   6.455
10184POPC   C2B59048  13.433  42.908   6.755
10184POPC   C3B59049  13.452  42.954   7.055
10184POPC   C4B59050  13.455  42.861   7.355
10185POPC   NC359051   1.985  25.219   5.555
10185POPC   PO459052   2.018  25.298   5.855
10185POPC   GL159053   1.967  25.258   6.155
10185POPC   GL259054   1.880  25.334   6.155
10185POPC   C1A59055   1.950  25.313   6.455
10185POPC   D2A59056   1.966  25.285   6.755
10185POPC   C3A59057   2.028  25.307   7.055
10185POPC   C4A59058   1.994  25.303   7.355
10185POPC   C1B59059   1.736  25.398   6.455
10185POPC   C2B59060   1.721  25.394   6.755
10185POPC   C3B59061   1.782  25.355   7.055
10185POPC   C4B59062   1.780  25.389   7.355
10186POPC   NC359063  22.196  33.072   5.555
10186POPC   PO459064  22.114  33.039   5.855
10186POPC   GL159065  22.205  33.020   6.155
10186POPC   GL259066  22.046  33.073   6.155
10186POPC   C1A59067  22.186  33.008   6.455
10186POPC   D2A59068  22.115  33.041   6.755
10186POPC   C3A59069  22.208  32.979   7.055
10186POPC   C4A59070  22.138  33.004   7.355
10186POPC   C1B59071  21.899  33.018   6.455
10186POPC   C2B59072  21.953  33.041   6.755
10186POPC   C3B59073  21.911  33.090   7.055
10186POPC   C4B59074  21.879  33.013   7.355
10187POPC   NC359075  37.699  15.223   5.555
10187POPC   PO459076  37.662  15.162   5.855
10187POPC   GL159077  37.677  15.158   6.155
10187POPC   GL259078  37.627  15.043   6.155
10187POPC   C1A59079  37.634  15.133   6.455
10187POPC   D2A59080  37.695  15.139   6.755
10187POPC   C3A59081  37.668  15.141   7.055
10187POPC   C4A59082  37.646  15.172   7.355
10187POPC   C1B59083  37.532  15.002   6.455
10187POPC   C2B59084  37.532  15.021   6.755
10187POPC   C3B59085  37.501  15.013   7.055
10187POPC   C4B59086  37.479  15.010   7.355
10188POPC   NC359087  10.526  24.499   5.555
10188POPC   PO459088  10.498  24.479   5.855
10188POPC   GL159089  10.566  24.457   6.155
10188POPC   GL259090  10.468  24.526   6.155
10188POPC   C1A59091  10.521  24.457   6.455
10188POPC   D2A59092  10.507  24.440   6.755
10188POPC   C3A59093  10.521  24.490   7.055
10188POPC   C4A59094  10.551  24.461   7.355
10188POPC   C1B59095  10.302  24.647   6.455
10188POPC   C2B59096  10.322  24.640   6.755
10188POPC   C3B59097  10.282  24.655   7.055
10188POPC   C4B59098  10.293  24.668   7.355
10189POPC   NC359099  35.353  30.679   5.555
10189POPC   PO459100  35.358  30.655   5.855
10189POPC   GL159101  35.321  30.721   6.155
10189POPC   GL259102  35.417  30.587   6.155
10189POPC   C1A59103  35.399  30.740   6.455
10189POPC   D2A59104  35.367  30.698   6.755
10189POPC   C3A59105  35.357  30.731   7.055
10189POPC   C4A59106  35.308  30.706   7.355
10189POPC   C1B59107  35.401  30.445   6.455
10189POPC   C2B59108  35.380  30.442   6.755
10189POPC   C3B59109  35.419  30.472   7.055
10189POPC   C4B59110  35.432  30.468   7.355
10190POPC   NC359111  30.688  39.237   5.555
10190POPC   PO459112  30.664  39.214   5.855
10190POPC   GL159113  30.697  39.204   6.155
10190POPC   GL259114  30.598  39.294   6.155
10190POPC   C1A59115  30.653  39.280   6.455
10190POPC   D2A59116  30.682  39.226   6.755
10190POPC   C3A59117  30.731  39.217   7.055
10190POPC   C4A59118  30.705  39.231   7.355
10190POPC   C1B59119  30.491  39.341   6.455
10190POPC   C2B59120  30.507  39.351   6.755
10190POPC   C3B59121  30.495  39.274   7.055
10190POPC   C4B59122  30.452  39.367   7.355
10191POPC   NC359123   0.473  39.960   5.555
10191POPC   PO459124   0.420  40.036   5.855
10191POPC   GL159125   0.421  39.997   6.155
10191POPC   GL259126   0.588  40.021   6.155
10191POPC   C1A59127   0.402  40.040   6.455
10191POPC   D2A59128   0.442  39.986   6.755
10191POPC   C3A59129   0.453  40.029   7.055
10191POPC   C4A59130   0.477  40.026   7.355
10191POPC   C1B59131   0.628  40.075   6.455
10191POPC   C2B59132   0.639  40.082   6.755
10191POPC   C3B59133   0.663  40.135   7.055
10191POPC   C4B59134   0.717  40.063   7.355
10192POPC   NC359135   1.993   8.226   5.555
10192POPC   PO459136   1.957   8.174   5.855
10192POPC   GL159137   1.973   8.191   6.155
10192POPC   GL259138   2.094   8.261   6.155
10192POPC   C1A59139   2.007   8.198   6.455
10192POPC   D2A59140   2.034   8.225   6.755
10192POPC   C3A59141   2.004   8.200   7.055
10192POPC   C4A59142   1.947   8.201   7.355
10192POPC   C1B59143   2.067   8.453   6.455
10192POPC   C2B59144   2.127   8.404   6.755
10192POPC   C3B59145   2.143   8.394   7.055
10192POPC   C4B59146   2.149   8.433   7.355
10193POPC   NC359147  26.825  38.411   5.555
10193POPC   PO459148  26.770  38.487   5.855
10193POPC   GL159149  26.849  38.465   6.155
10193POPC   GL259150  26.801  38.285   6.155
10193POPC   C1A59151  26.850  38.406   6.455
10193POPC   D2A59152  26.801  38.432   6.755
10193POPC   C3A59153  26.774  38.479   7.055
10193POPC   C4A59154  26.770  38.492   7.355
10193POPC   C1B59155  26.773  38.168   6.455
10193POPC   C2B59156  26.812  38.245   6.755
10193POPC   C3B59157  26.775  38.239   7.055
10193POPC   C4B59158  26.837  38.177   7.355
10194POPC   NC359159  25.239  16.739   5.555
10194POPC   PO459160  25.305  16.778   5.855
10194POPC   GL159161  25.240  16.723   6.155
10194POPC   GL259162  25.162  16.645   6.155
10194POPC   C1A59163  25.261  16.736   6.455
10194POPC   D2A59164  25.237  16.771   6.755
10194POPC   C3A59165  25.287  16.740   7.055
10194POPC   C4A59166  25.245  16.702   7.355
10194POPC   C1B59167  25.049  16.525   6.455
10194POPC   C2B59168  25.130  16.549   6.755
10194POPC   C3B59169  25.095  16.502   7.055
10194POPC   C4B59170  25.113  16.514   7.355
10195POPC   NC359171  41.512   4.296   5.555
10195POPC   PO459172  41.545   4.364   5.855
10195POPC   GL159173  41.606   4.276   6.155
10195POPC   GL259174  41.673   4.431   6.155
10195POPC   C1A59175  41.548   4.324   6.455
10195POPC   D2A59176  41.521   4.292   6.755
10195POPC   C3A59177  41.582   4.317   7.055
10195POPC   C4A59178  41.512   4.296   7.355
10195POPC   C1B59179  41.723   4.488   6.455
10195POPC   C2B59180  41.676   4.471   6.755
10195POPC   C3B59181  41.713   4.517   7.055
10195POPC   C4B59182  41.761   4.473   7.355
10196POPC   NC359183  36.867   6.634   5.555
10196POPC   PO459184  36.874   6.623   5.855
10196POPC   GL159185  36.945   6.612   6.155
10196POPC   GL259186  36.767   6.751   6.155
10196POPC   C1A59187  36.879   6.686   6.455
10196POPC   D2A59188  36.871   6.655   6.755
10196POPC   C3A59189  36.912   6.629   7.055
10196POPC   C4A59190  36.901   6.685   7.355
10196POPC   C1B59191  36.681   6.794   6.455
10196POPC   C2B59192  36.671   6.747   6.755
10196POPC   C3B59193  36.687   6.762   7.055
10196POPC   C4B59194  36.704   6.818   7.355
10197POPC   NC359195  38.447  43.866   5.555
10197POPC   PO459196  38.485  43.892   5.855
10197POPC   GL159197  38.484  43.879   6.155
10197POPC   GL259198  38.556  43.991   6.155
10197POPC   C1A59199  38.471  43.862   6.455
10197POPC   D2A59200  38.497  43.881   6.755
10197POPC   C3A59201  38.443  43.872   7.055
10197POPC   C4A59202  38.438  43.909   7.355
10197POPC   C1B59203  38.577  44.099   6.455
10197POPC   C2B59204  38.612  44.084   6.755
10197POPC   C3B59205  38.605  44.117   7.055
10197POPC   C4B59206  38.613  44.109   7.355
10198POPC   NC359207   0.472  19.023   5.555
10198POPC   PO459208   0.469  19.103   5.855
10198POPC   GL159209   0.409  19.064   6.155
10198POPC   GL259210   0.416  19.181   6.155
10198POPC   C1A59211   0.449  19.015   6.455
10198POPC   D2A59212   0.443  19.084   6.755
10198POPC   C3A59213   0.428  19.052   7.055
10198POPC   C4A59214   0.454  19.030   7.355
10198POPC   C1B59215   0.374  19.299   6.455
10198POPC   C2B59216   0.392  19.260   6.755
10198POPC   C3B59217   0.346  19.293   7.055
10198POPC   C4B59218   0.388  19.321   7.355
10199POPC   NC359219  34.580   2.030   5.555
10199POPC   PO459220  34.616   2.025   5.855
10199POPC   GL159221  34.590   1.975   6.155
10199POPC   GL259222  34.513   1.887   6.155
10199POPC   C1A59223  34.579   2.038   6.455
10199POPC   D2A59224  34.530   1.996   6.755
10199POPC   C3A59225  34.614   2.003   7.055
10199POPC   C4A59226  34.603   1.983   7.355
10199POPC   C1B59227  34.501   1.709   6.455
10199POPC   C2B59228  34.508   1.705   6.755
10199POPC   C3B59229  34.499   1.728   7.055
10199POPC   C4B59230  34.444   1.769   7.355
10200POPC   NC359231  22.127  31.425   5.555
10200POPC   PO459232  22.142  31.492   5.855
10200POPC   GL159233  22.136  31.446   6.155
10200POPC   GL259234  22.033  31.486   6.155
10200POPC   C1A59235  22.115  31.440   6.455
10200POPC   D2A59236  22.153  31.515   6.755
10200POPC   C3A59237  22.159  31.486   7.055
10200POPC   C4A59238  22.139  31.496   7.355
10200POPC   C1B59239  21.922  31.537   6.455
10200POPC   C2B59240  21.900  31.531   6.755
10200POPC   C3B59241  21.872  31.508   7.055
10200POPC   C4B59242  21.899  31.518   7.355
10201POPC   NC359243   8.175  28.342   5.555
10201POPC   PO459244   8.172  28.354   5.855
10201POPC   GL159245   8.246  28.340   6.155
10201POPC   GL259246   8.258  28.347   6.155
10201POPC   C1A59247   8.157  28.364   6.455
10201POPC   D2A59248   8.158  28.406   6.755
10201POPC   C3A59249   8.203  28.323   7.055
10201POPC   C4A59250   8.203  28.332   7.355
10201POPC   C1B59251   8.378  28.254   6.455
10201POPC   C2B59252   8.428  28.290   6.755
10201POPC   C3B59253   8.378  28.242   7.055
10201POPC   C4B59254   8.395  28.246   7.355
10202POPC   NC359255  43.082   9.798   5.555
10202POPC   PO459256  43.069   9.761   5.855
10202POPC   GL159257  43.135   9.773   6.155
10202POPC   GL259258  42.970   9.789   6.155
10202POPC   C1A59259  43.143   9.789   6.455
10202POPC   D2A59260  43.105   9.718   6.755
10202POPC   C3A59261  43.098   9.721   7.055
10202POPC   C4A59262  43.092   9.748   7.355
10202POPC   C1B59263  42.873   9.778   6.455
10202POPC   C2B59264  42.855   9.762   6.755
10202POPC   C3B59265  42.912   9.753   7.055
10202POPC   C4B59266  42.891   9.842   7.355
10203POPC   NC359267   7.434  37.728   5.555
10203POPC   PO459268   7.417  37.665   5.855
10203POPC   GL159269   7.461  37.702   6.155
10203POPC   GL259270   7.262  37.773   6.155
10203POPC   C1A59271   7.377  37.706   6.455
10203POPC   D2A59272   7.415  37.710   6.755
10203POPC   C3A59273   7.415  37.726   7.055
10203POPC   C4A59274   7.441  37.708   7.355
10203POPC   C1B59275   7.156  37.811   6.455
10203POPC   C2B59276   7.195  37.823   6.755
10203POPC   C3B59277   7.191  37.751   7.055
10203POPC   C4B59278   7.206  37.825   7.355
10204POPC   NC359279  39.221  29.123   5.555
10204POPC   PO459280  39.195  29.154   5.855
10204POPC   GL159281  39.221  29.165   6.155
10204POPC   GL259282  39.059  29.151   6.155
10204POPC   C1A59283  39.186  29.178   6.455
10204POPC   D2A59284  39.215  29.182   6.755
10204POPC   C3A59285  39.274  29.137   7.055
10204POPC   C4A59286  39.190  29.103   7.355
10204POPC   C1B59287  38.966  29.161   6.455
10204POPC   C2B59288  38.938  29.135   6.755
10204POPC   C3B59289  38.958  29.127   7.055
10204POPC   C4B59290  38.931  29.175   7.355
10205POPC   NC359291   1.216  12.836   5.555
10205POPC   PO459292   1.240  12.901   5.855
10205POPC   GL159293   1.234  12.843   6.155
10205POPC   GL259294   1.366  12.866   6.155
10205POPC   C1A59295   1.180  12.863   6.455
10205POPC   D2A59296   1.250  12.873   6.755
10205POPC   C3A59297   1.227  12.831   7.055
10205POPC   C4A59298   1.227  12.841   7.355
10205POPC   C1B59299   1.461  12.788   6.455
10205POPC   C2B59300   1.425  12.861   6.755
10205POPC   C3B59301   1.459  12.864   7.055
10205POPC   C4B59302   1.464  12.809   7.355
10206POPC   NC359303  10.509  36.868   5.555
10206POPC   PO459304  10.572  36.874   5.855
10206POPC   GL159305  10.499  36.938   6.155
10206POPC   GL259306  10.630  36.866   6.155
10206POPC   C1A59307  10.510  36.880   6.455
10206POPC   D2A59308  10.568  36.896   6.755
10206POPC   C3A59309  10.510  36.904   7.055
10206POPC   C4A59310  10.549  36.934   7.355
10206POPC   C1B59311  10.802  36.875   6.455
10206POPC   C2B59312  10.747  36.904   6.755
10206POPC   C3B59313  10.781  36.882   7.055
10206POPC   C4B59314  10.754  36.931   7.355
10207POPC   NC359315  31.475  22.949   5.555
10207POPC   PO459316  31.513  22.955   5.855
10207POPC   GL159317  31.511  22.930   6.155
10207POPC   GL259318  31.529  23.020   6.155
10207POPC   C1A59319  31.472  22.925   6.455
10207POPC   D2A59320  31.514  22.982   6.755
10207POPC   C3A59321  31.428  22.935   7.055
10207POPC   C4A59322  31.487  22.979   7.355
10207POPC   C1B59323  31.677  23.133   6.455
10207POPC   C2B59324  31.624  23.096   6.755
10207POPC   C3B59325  31.640  23.087   7.055
10207POPC   C4B59326  31.656  23.096   7.355
10208POPC   NC359327   0.449  43.921   5.555
10208POPC   PO459328   0.420  43.934   5.855
10208POPC   GL159329   0.430  43.916   6.155
10208POPC   GL259330   0.521  43.800   6.155
10208POPC   C1A59331   0.467  43.928   6.455
10208POPC   D2A59332   0.428  43.846   6.755
10208POPC   C3A59333   0.417  43.927   7.055
10208POPC   C4A59334   0.409  43.895   7.355
10208POPC   C1B59335   0.515  43.609   6.455
10208POPC   C2B59336   0.487  43.635   6.755
10208POPC   C3B59337   0.507  43.689   7.055
10208POPC   C4B59338   0.491  43.685   7.355
10209POPC   NC359339   3.499  42.349   5.555
10209POPC   PO459340   3.553  42.374   5.855
10209POPC   GL159341   3.573  42.362   6.155
10209POPC   GL259342   3.398  42.253   6.155
10209POPC   C1A59343   3.505  42.290   6.455
10209POPC   D2A59344   3.570  42.366   6.755
10209POPC   C3A59345   3.522  42.334   7.055
10209POPC   C4A59346   3.582  42.314   7.355
10209POPC   C1B59347   3.318  42.240   6.455
10209POPC   C2B59348   3.325  42.188   6.755
10209POPC   C3B59349   3.345  42.210   7.055
10209POPC   C4B59350   3.286  42.253   7.355
10210POPC   NC359351  10.561  13.599   5.555
10210POPC   PO459352  10.514  13.591   5.855
10210POPC   GL159353  10.531  13.606   6.155
10210POPC   GL259354  10.499  13.728   6.155
10210POPC   C1A59355  10.545  13.647   6.455
10210POPC   D2A59356  10.551  13.601   6.755
10210POPC   C3A59357  10.477  13.579   7.055
10210POPC   C4A59358  10.536  13.616   7.355
10210POPC   C1B59359  10.422  13.875   6.455
10210POPC   C2B59360  10.443  13.915   6.755
10210POPC   C3B59361  10.411  13.875   7.055
10210POPC   C4B59362  10.480  13.864   7.355
10211POPC   NC359363  30.662  26.060   5.555
10211POPC   PO459364  30.734  26.003   5.855
10211POPC   GL159365  30.669  26.006   6.155
10211POPC   GL259366  30.607  25.950   6.155
10211POPC   C1A59367  30.711  26.066   6.455
10211POPC   D2A59368  30.708  26.063   6.755
10211POPC   C3A59369  30.710  26.048   7.055
10211POPC   C4A59370  30.647  26.028   7.355
10211POPC   C1B59371  30.501  25.909   6.455
10211POPC   C2B59372  30.561  25.880   6.755
10211POPC   C3B59373  30.511  25.832   7.055
10211POPC   C4B59374  30.511  25.911   7.355
10212POPC   NC359375  11.291  10.559   5.555
10212POPC   PO459376  11.294  10.534   5.855
10212POPC   GL159377  11.304  10.569   6.155
10212POPC   GL259378  11.169  10.557   6.155
10212POPC   C1A59379  11.308  10.554   6.455
10212POPC   D2A59380  11.295  10.496   6.755
10212POPC   C3A59381  11.287  10.563   7.055
10212POPC   C4A59382  11.303  10.517   7.355
10212POPC   C1B59383  11.024  10.583   6.455
10212POPC   C2B59384  11.043  10.648   6.755
10212POPC   C3B59385  11.059  10.555   7.055
10212POPC   C4B59386  11.074  10.631   7.355
10213POPC   NC359387  22.184  15.978   5.555
10213POPC   PO459388  22.173  15.924   5.855
10213POPC   GL159389  22.207  15.954   6.155
10213POPC   GL259390  22.179  16.122   6.155
10213POPC   C1A59391  22.136  15.911   6.455
10213POPC   D2A59392  22.206  16.003   6.755
10213POPC   C3A59393  22.170  15.982   7.055
10213POPC   C4A59394  22.164  15.969   7.355
10213POPC   C1B59395  22.195  16.192   6.455
10213POPC   C2B59396  22.198  16.213   6.755
10213POPC   C3B59397  22.157  16.232   7.055
10213POPC   C4B59398  22.146  16.225   7.355
10214POPC   NC359399  13.582  40.742   5.555
10214POPC   PO459400  13.675  40.745   5.855
10214POPC   GL159401  13.666  40.826   6.155
10214POPC   GL259402  13.496  40.801   6.155
10214POPC   C1A59403  13.589  40.799   6.455
10214POPC   D2A59404  13.622  40.817   6.755
10214POPC   C3A59405  13.579  40.759   7.055
10214POPC   C4A59406  13.658  40.771   7.355
10214POPC   C1B59407  13.422  40.814   6.455
10214POPC   C2B59408  13.328  40.791   6.755
10214POPC   C3B59409  13.360  40.750   7.055
10214POPC   C4B59410  13.350  40.777   7.355
10215POPC   NC359411  33.802  21.344   5.555
10215POPC   PO459412  33.793  21.405   5.855
10215POPC   GL159413  33.849  21.418   6.155
10215POPC   GL259414  33.694  21.432   6.155
10215POPC   C1A59415  33.812  21.369   6.455
10215POPC   D2A59416  33.780  21.359   6.755
10215POPC   C3A59417  33.821  21.376   7.055
10215POPC   C4A59418  33.834  21.387   7.355
10215POPC   C1B59419  33.530  21.441   6.455
10215POPC   C2B59420  33.543  21.356   6.755
10215POPC   C3B59421  33.503  21.390   7.055
10215POPC   C4B59422  33.594  21.393   7.355
10216POPC   NC359423  43.125   7.398   5.555
10216POPC   PO459424  43.077   7.412   5.855
10216POPC   GL159425  43.140   7.459   6.155
10216POPC   GL259426  43.045   7.470   6.155
10216POPC   C1A59427  43.156   7.396   6.455
10216POPC   D2A59428  43.062   7.430   6.755
10216POPC   C3A59429  43.076   7.464   7.055
10216POPC   C4A59430  43.128   7.391   7.355
10216POPC   C1B59431  42.864   7.542   6.455
10216POPC   C2B59432  42.888   7.535   6.755
10216POPC   C3B59433  42.900   7.519   7.055
10216POPC   C4B59434  42.908   7.542   7.355
10217POPC   NC359435  20.563  12.874   5.555
10217POPC   PO459436  20.607  12.826   5.855
10217POPC   GL159437  20.598  12.807   6.155
10217POPC   GL259438  20.739  12.866   6.155
10217POPC   C1A59439  20.641  12.837   6.455
10217POPC   D2A59440  20.633  12.875   6.755
10217POPC   C3A59441  20.589  12.892   7.055
10217POPC   C4A59442  20.595  12.815   7.355
10217POPC   C1B59443  20.833  12.840   6.455
10217POPC   C2B59444  20.809  12.834   6.755
10217POPC   C3B59445  20.820  12.817   7.055
10217POPC   C4B59446  20.866  12.800   7.355
10218POPC   NC359447  19.841  41.565   5.555
10218POPC   PO459448  19.811  41.592   5.855
10218POPC   GL159449  19.871  41.539   6.155
10218POPC   GL259450  19.747  41.614   6.155
10218POPC   C1A59451  19.798  41.537   6.455
10218POPC   D2A59452  19.867  41.568   6.755
10218POPC   C3A59453  19.838  41.531   7.055
10218POPC   C4A59454  19.794  41.532   7.355
10218POPC   C1B59455  19.675  41.697   6.455
10218POPC   C2B59456  19.648  41.690   6.755
10218POPC   C3B59457  19.614  41.734   7.055
10218POPC   C4B59458  19.642  41.682   7.355
10219POPC   NC359459  12.860  12.856   5.555
10219POPC   PO459460  12.802  12.882   5.855
10219POPC   GL159461  12.839  12.867   6.155
10219POPC   GL259462  12.848  12.926   6.155
10219POPC   C1A59463  12.897  12.886   6.455
10219POPC   D2A59464  12.866  12.811   6.755
10219POPC   C3A59465  12.819  12.867   7.055
10219POPC   C4A59466  12.839  12.893   7.355
10219POPC   C1B59467  12.770  13.085   6.455
10219POPC   C2B59468  12.810  13.109   6.755
10219POPC   C3B59469  12.791  13.092   7.055
10219POPC   C4B59470  12.802  13.073   7.355
10220POPC   NC359471  15.213  33.060   5.555
10220POPC   PO459472  15.212  33.005   5.855
10220POPC   GL159473  15.145  32.998   6.155
10220POPC   GL259474  15.140  33.166   6.155
10220POPC   C1A59475  15.164  32.981   6.455
10220POPC   D2A59476  15.165  33.039   6.755
10220POPC   C3A59477  15.140  33.055   7.055
10220POPC   C4A59478  15.229  33.051   7.355
10220POPC   C1B59479  15.152  33.234   6.455
10220POPC   C2B59480  15.116  33.302   6.755
10220POPC   C3B59481  15.181  33.262   7.055
10220POPC   C4B59482  15.118  33.322   7.355
10221POPC   NC359483   2.773  10.535   5.555
10221POPC   PO459484   2.737  10.484   5.855
10221POPC   GL159485   2.758  10.555   6.155
10221POPC   GL259486   2.850  10.606   6.155
10221POPC   C1A59487   2.741  10.493   6.455
10221POPC   D2A59488   2.792  10.558   6.755
10221POPC   C3A59489   2.730  10.520   7.055
10221POPC   C4A59490   2.745  10.545   7.355
10221POPC   C1B59491   2.948  10.693   6.455
10221POPC   C2B59492   2.949  10.651   6.755
10221POPC   C3B59493   2.956  10.661   7.055
10221POPC   C4B59494   2.921  10.669   7.355
10222POPC   NC359495  34.532   2.780   5.555
10222POPC   PO459496  34.532   2.809   5.855
10222POPC   GL159497  34.592   2.744   6.155
10222POPC   GL259498  34.710   2.700   6.155
10222POPC   C1A59499  34.544   2.726   6.455
10222POPC   D2A59500  34.538   2.719   6.755
10222POPC   C3A59501  34.552   2.717   7.055
10222POPC   C4A59502  34.569   2.750   7.355
10222POPC   C1B59503  34.741   2.586   6.455
10222POPC   C2B59504  34.750   2.583   6.755
10222POPC   C3B59505  34.710   2.599   7.055
10222POPC   C4B59506  34.785   2.578   7.355
10223POPC   NC359507   1.186  42.298   5.555
10223POPC   PO459508   1.183  42.315   5.855
10223POPC   GL159509   1.176  42.298   6.155
10223POPC   GL259510   1.082  42.222   6.155
10223POPC   C1A59511   1.173  42.376   6.455
10223POPC   D2A59512   1.227  42.329   6.755
10223POPC   C3A59513   1.246  42.333   7.055
10223POPC   C4A59514   1.252  42.365   7.355
10223POPC   C1B59515   1.072  42.150   6.455
10223POPC   C2B59516   1.002  42.145   6.755
10223POPC   C3B59517   1.002  42.147   7.055
10223POPC   C4B59518   1.004  42.198   7.355
10224POPC   NC359519  25.248  24.450   5.555
10224POPC   PO459520  25.283  24.494   5.855
10224POPC   GL159521  25.289  24.474   6.155
10224POPC   GL259522  25.234  24.580   6.155
10224POPC   C1A59523  25.289  24.468   6.455
10224POPC   D2A59524  25.227  24.449   6.755
10224POPC   C3A59525  25.258  24.530   7.055
10224POPC   C4A59526  25.259  24.462   7.355
10224POPC   C1B59527  25.249  24.698   6.455
10224POPC   C2B59528  25.244  24.686   6.755
10224POPC   C3B59529  25.205  24.774   7.055
10224POPC   C4B59530  25.217  24.691   7.355
10225POPC   NC359531   7.390   0.395   5.555
10225POPC   PO459532   7.384   0.454   5.855
10225POPC   GL159533   7.416   0.393   6.155
10225POPC   GL259534   7.532   0.500   6.155
10225POPC   C1A59535   7.434   0.415   6.455
10225POPC   D2A59536   7.453   0.471   6.755
10225POPC   C3A59537   7.447   0.479   7.055
10225POPC   C4A59538   7.416   0.484   7.355
10225POPC   C1B59539   7.621   0.622   6.455
10225POPC   C2B59540   7.582   0.547   6.755
10225POPC   C3B59541   7.624   0.575   7.055
10225POPC   C4B59542   7.619   0.632   7.355
10226POPC   NC359543   9.762  41.598   5.555
10226POPC   PO459544   9.780  41.513   5.855
10226POPC   GL159545   9.753  41.554   6.155
10226POPC   GL259546   9.627  41.661   6.155
10226POPC   C1A59547   9.765  41.608   6.455
10226POPC   D2A59548   9.762  41.604   6.755
10226POPC   C3A59549   9.774  41.539   7.055
10226POPC   C4A59550   9.718  41.531   7.355
10226POPC   C1B59551   9.598  41.669   6.455
10226POPC   C2B59552   9.515  41.697   6.755
10226POPC   C3B59553   9.518  41.751   7.055
10226POPC   C4B59554   9.575  41.702   7.355
10227POPC   NC359555  39.969  31.429   5.555
10227POPC   PO459556  39.965  31.475   5.855
10227POPC   GL159557  40.035  31.485   6.155
10227POPC   GL259558  39.936  31.540   6.155
10227POPC   C1A59559  40.050  31.451   6.455
10227POPC   D2A59560  39.989  31.473   6.755
10227POPC   C3A59561  40.015  31.492   7.055
10227POPC   C4A59562  40.023  31.510   7.355
10227POPC   C1B59563  39.858  31.630   6.455
10227POPC   C2B59564  39.868  31.623   6.755
10227POPC   C3B59565  39.849  31.649   7.055
10227POPC   C4B59566  39.852  31.628   7.355
10228POPC   NC359567  16.715  25.285   5.555
10228POPC   PO459568  16.730  25.225   5.855
10228POPC   GL159569  16.698  25.304   6.155
10228POPC   GL259570  16.825  25.306   6.155
10228POPC   C1A59571  16.766  25.285   6.455
10228POPC   D2A59572  16.758  25.299   6.755
10228POPC   C3A59573  16.777  25.285   7.055
10228POPC   C4A59574  16.754  25.288   7.355
10228POPC   C1B59575  16.929  25.338   6.455
10228POPC   C2B59576  16.928  25.366   6.755
10228POPC   C3B59577  16.968  25.356   7.055
10228POPC   C4B59578  16.902  25.378   7.355
10229POPC   NC359579  30.721  16.772   5.555
10229POPC   PO459580  30.657  16.749   5.855
10229POPC   GL159581  30.675  16.755   6.155
10229POPC   GL259582  30.680  16.888   6.155
10229POPC   C1A59583  30.709  16.769   6.455
10229POPC   D2A59584  30.699  16.740   6.755
10229POPC   C3A59585  30.681  16.774   7.055
10229POPC   C4A59586  30.686  16.686   7.355
10229POPC   C1B59587  30.713  16.988   6.455
10229POPC   C2B59588  30.647  17.027   6.755
10229POPC   C3B59589  30.677  16.968   7.055
10229POPC   C4B59590  30.696  17.022   7.355
10230POPC   NC359591   5.131  30.726   5.555
10230POPC   PO459592   5.141  30.708   5.855
10230POPC   GL159593   5.056  30.716   6.155
10230POPC   GL259594   4.987  30.715   6.155
10230POPC   C1A59595   5.116  30.676   6.455
10230POPC   D2A59596   5.101  30.675   6.755
10230POPC   C3A59597   5.089  30.710   7.055
10230POPC   C4A59598   5.073  30.678   7.355
10230POPC   C1B59599   4.926  30.835   6.455
10230POPC   C2B59600   4.924  30.790   6.755
10230POPC   C3B59601   4.859  30.801   7.055
10230POPC   C4B59602   4.896  30.813   7.355
10231POPC   NC359603  30.685   7.426   5.555
10231POPC   PO459604  30.682   7.403   5.855
10231POPC   GL159605  30.652   7.463   6.155
10231POPC   GL259606  30.587   7.509   6.155
10231POPC   C1A59607  30.653   7.374   6.455
10231POPC   D2A59608  30.717   7.415   6.755
10231POPC   C3A59609  30.708   7.378   7.055
10231POPC   C4A59610  30.668   7.450   7.355
10231POPC   C1B59611  30.455   7.527   6.455
10231POPC   C2B59612  30.483   7.533   6.755
10231POPC   C3B59613  30.508   7.570   7.055
10231POPC   C4B59614  30.481   7.521   7.355
10232POPC   NC359615  32.231  13.674   5.555
10232POPC   PO459616  32.231  13.642   5.855
10232POPC   GL159617  32.228  13.637   6.155
10232POPC   GL259618  32.143  13.519   6.155
10232POPC   C1A59619  32.227  13.670   6.455
10232POPC   D2A59620  32.290  13.631   6.755
10232POPC   C3A59621  32.241  13.644   7.055
10232POPC   C4A59622  32.217  13.604   7.355
10232POPC   C1B59623  32.067  13.469   6.455
10232POPC   C2B59624  32.061  13.463   6.755
10232POPC   C3B59625  32.035  13.461   7.055
10232POPC   C4B59626  32.035  13.549   7.355
10233POPC   NC359627  33.826  29.903   5.555
10233POPC   PO459628  33.756  29.927   5.855
10233POPC   GL159629  33.778  29.945   6.155
10233POPC   GL259630  33.869  29.851   6.155
10233POPC   C1A59631  33.800  29.908   6.455
10233POPC   D2A59632  33.793  29.885   6.755
10233POPC   C3A59633  33.834  29.917   7.055
10233POPC   C4A59634  33.777  29.915   7.355
10233POPC   C1B59635  33.990  29.809   6.455
10233POPC   C2B59636  33.965  29.797   6.755
10233POPC   C3B59637  33.980  29.741   7.055
10233POPC   C4B59638  33.981  29.817   7.355
10234POPC   NC359639   5.906  43.852   5.555
10234POPC   PO459640   5.883  43.845   5.855
10234POPC   GL159641   5.840  43.911   6.155
10234POPC   GL259642   5.842  44.002   6.155
10234POPC   C1A59643   5.906  43.934   6.455
10234POPC   D2A59644   5.858  43.912   6.755
10234POPC   C3A59645   5.880  43.919   7.055
10234POPC   C4A59646   5.875  43.931   7.355
10234POPC   C1B59647   5.754  44.112   6.455
10234POPC   C2B59648   5.690  44.079   6.755
10234POPC   C3B59649   5.725  44.114   7.055
10234POPC   C4B59650   5.723  44.058   7.355
10235POPC   NC359651   1.166  33.018   5.555
10235POPC   PO459652   1.239  33.032   5.855
10235POPC   GL159653   1.229  33.014   6.155
10235POPC   GL259654   1.245  32.862   6.155
10235POPC   C1A59655   1.219  32.983   6.455
10235POPC   D2A59656   1.233  33.014   6.755
10235POPC   C3A59657   1.210  33.013   7.055
10235POPC   C4A59658   1.251  33.050   7.355
10235POPC   C1B59659   1.244  32.776   6.455
10235POPC   C2B59660   1.242  32.826   6.755
10235POPC   C3B59661   1.302  32.740   7.055
10235POPC   C4B59662   1.311  32.771   7.355
10236POPC   NC359663  15.909  33.785   5.555
10236POPC   PO459664  15.959  33.837   5.855
10236POPC   GL159665  15.951  33.793   6.155
10236POPC   GL259666  16.063  33.844   6.155
10236POPC   C1A59667  15.955  33.824   6.455
10236POPC   D2A59668  15.907  33.754   6.755
10236POPC   C3A59669  15.978  33.846   7.055
10236POPC   C4A59670  15.981  33.774   7.355
10236POPC   C1B59671  16.175  33.789   6.455
10236POPC   C2B59672  16.214  33.842   6.755
10236POPC   C3B59673  16.163  33.824   7.055
10236POPC   C4B59674  16.180  33.841   7.355
10237POPC   NC359675  19.010  40.791   5.555
10237POPC   PO459676  19.107  40.786   5.855
10237POPC   GL159677  19.028  40.832   6.155
10237POPC   GL259678  19.046  40.639   6.155
10237POPC   C1A59679  19.054  40.761   6.455
10237POPC   D2A59680  19.050  40.823   6.755
10237POPC   C3A59681  19.040  40.757   7.055
10237POPC   C4A59682  19.055  40.752   7.355
10237POPC   C1B59683  18.995  40.518   6.455
10237POPC   C2B59684  18.975  40.555   6.755
10237POPC   C3B59685  19.020  40.504   7.055
10237POPC   C4B59686  18.995  40.551   7.355
10238POPC   NC359687   2.751  36.139   5.555
10238POPC   PO459688   2.777  36.176   5.855
10238POPC   GL159689   2.779  36.104   6.155
10238POPC   GL259690   2.906  36.227   6.155
10238POPC   C1A59691   2.745  36.121   6.455
10238POPC   D2A59692   2.721  36.151   6.755
10238POPC   C3A59693   2.732  36.115   7.055
10238POPC   C4A59694   2.797  36.167   7.355
10238POPC   C1B59695   2.987  36.260   6.455
10238POPC   C2B59696   2.906  36.260   6.755
10238POPC   C3B59697   2.977  36.322   7.055
10238POPC   C4B59698   2.960  36.254   7.355
10239POPC   NC359699  17.545  33.757   5.555
10239POPC   PO459700  17.544  33.821   5.855
10239POPC   GL159701  17.469  33.782   6.155
10239POPC   GL259702  17.628  33.745   6.155
10239POPC   C1A59703  17.501  33.778   6.455
10239POPC   D2A59704  17.493  33.823   6.755
10239POPC   C3A59705  17.527  33.805   7.055
10239POPC   C4A59706  17.457  33.786   7.355
10239POPC   C1B59707  17.720  33.647   6.455
10239POPC   C2B59708  17.754  33.715   6.755
10239POPC   C3B59709  17.692  33.729   7.055
10239POPC   C4B59710  17.752  33.674   7.355
10240POPC   NC359711  18.272  37.682   5.555
10240POPC   PO459712  18.325  37.679   5.855
10240POPC   GL159713  18.269  37.650   6.155
10240POPC   GL259714  18.387  37.691   6.155
10240POPC   C1A59715  18.258  37.646   6.455
10240POPC   D2A59716  18.278  37.659   6.755
10240POPC   C3A59717  18.299  37.647   7.055
10240POPC   C4A59718  18.290  37.702   7.355
10240POPC   C1B59719  18.499  37.674   6.455
10240POPC   C2B59720  18.523  37.695   6.755
10240POPC   C3B59721  18.557  37.734   7.055
10240POPC   C4B59722  18.529  37.718   7.355
10241POPC   NC359723  29.152   9.785   5.555
10241POPC   PO459724  29.150   9.710   5.855
10241POPC   GL159725  29.157   9.782   6.155
10241POPC   GL259726  29.286   9.741   6.155
10241POPC   C1A59727  29.182   9.791   6.455
10241POPC   D2A59728  29.111   9.727   6.755
10241POPC   C3A59729  29.131   9.713   7.055
10241POPC   C4A59730  29.188   9.737   7.355
10241POPC   C1B59731  29.421   9.736   6.455
10241POPC   C2B59732  29.383   9.739   6.755
10241POPC   C3B59733  29.364   9.729   7.055
10241POPC   C4B59734  29.398   9.768   7.355
10242POPC   NC359735  14.428   2.759   5.555
10242POPC   PO459736  14.362   2.793   5.855
10242POPC   GL159737  14.413   2.767   6.155
10242POPC   GL259738  14.553   2.860   6.155
10242POPC   C1A59739  14.409   2.731   6.455
10242POPC   D2A59740  14.400   2.789   6.755
10242POPC   C3A59741  14.420   2.760   7.055
10242POPC   C4A59742  14.363   2.728   7.355
10242POPC   C1B59743  14.681   2.871   6.455
10242POPC   C2B59744  14.598   2.859   6.755
10242POPC   C3B59745  14.592   2.840   7.055
10242POPC   C4B59746  14.653   2.857   7.355
10243POPC   NC359747  44.711  12.071   5.555
10243POPC   PO459748  44.685  12.107   5.855
10243POPC   GL159749  44.640  12.097   6.155
10243POPC   GL259750  44.530  12.046   6.155
10243POPC   C1A59751  44.639  12.108   6.455
10243POPC   D2A59752  44.663  12.068   6.755
10243POPC   C3A59753  44.702  12.091   7.055
10243POPC   C4A59754  44.708  12.027   7.355
10243POPC   C1B59755  44.413  11.963   6.455
10243POPC   C2B59756  44.471  12.012   6.755
10243POPC   C3B59757  44.430  11.998   7.055
10243POPC   C4B59758  44.437  11.942   7.355
10244POPC   NC359759   9.715  18.306   5.555
10244POPC   PO459760   9.699  18.282   5.855
10244POPC   GL159761   9.793  18.262   6.155
10244POPC   GL259762   9.884  18.265   6.155
10244POPC   C1A59763   9.724  18.294   6.455
10244POPC   D2A59764   9.771  18.309   6.755
10244POPC   C3A59765   9.775  18.261   7.055
10244POPC   C4A59766   9.718  18.264   7.355
10244POPC   C1B59767  10.004  18.206   6.455
10244POPC   C2B59768  10.017  18.176   6.755
10244POPC   C3B59769   9.981  18.148   7.055
10244POPC   C4B59770   9.986  18.151   7.355
10245POPC   NC359771  30.722  33.024   5.555
10245POPC   PO459772  30.708  33.039   5.855
10245POPC   GL159773  30.669  33.020   6.155
10245POPC   GL259774  30.640  32.941   6.155
10245POPC   C1A59775  30.693  33.056   6.455
10245POPC   D2A59776  30.684  32.986   6.755
10245POPC   C3A59777  30.647  33.037   7.055
10245POPC   C4A59778  30.658  33.057   7.355
10245POPC   C1B59779  30.546  32.792   6.455
10245POPC   C2B59780  30.593  32.783   6.755
10245POPC   C3B59781  30.524  32.847   7.055
10245POPC   C4B59782  30.588  32.842   7.355
10246POPC   NC359783  42.335   6.673   5.555
10246POPC   PO459784  42.331   6.601   5.855
10246POPC   GL159785  42.369   6.650   6.155
10246POPC   GL259786  42.467   6.634   6.155
10246POPC   C1A59787  42.359   6.623   6.455
10246POPC   D2A59788  42.350   6.659   6.755
10246POPC   C3A59789  42.325   6.695   7.055
10246POPC   C4A59790  42.344   6.629   7.355
10246POPC   C1B59791  42.574   6.507   6.455
10246POPC   C2B59792  42.511   6.526   6.755
10246POPC   C3B59793  42.590   6.533   7.055
10246POPC   C4B59794  42.599   6.522   7.355
10247POPC   NC359795   3.506  26.771   5.555
10247POPC   PO459796   3.587  26.798   5.855
10247POPC   GL159797   3.576  26.813   6.155
10247POPC   GL259798   3.473  26.843   6.155
10247POPC   C1A59799   3.527  26.789   6.455
10247POPC   D2A59800   3.524  26.789   6.755
10247POPC   C3A59801   3.558  26.771   7.055
10247POPC   C4A59802   3.586  26.859   7.355
10247POPC   C1B59803   3.273  26.974   6.455
10247POPC   C2B59804   3.282  26.958   6.755
10247POPC   C3B59805   3.324  26.913   7.055
10247POPC   C4B59806   3.325  26.892   7.355
10248POPC   NC359807  15.984  37.691   5.555
10248POPC   PO459808  15.961  37.664   5.855
10248POPC   GL159809  15.973  37.686   6.155
10248POPC   GL259810  15.806  37.741   6.155
10248POPC   C1A59811  15.977  37.684   6.455
10248POPC   D2A59812  15.979  37.695   6.755
10248POPC   C3A59813  15.917  37.721   7.055
10248POPC   C4A59814  15.969  37.664   7.355
10248POPC   C1B59815  15.757  37.754   6.455
10248POPC   C2B59816  15.720  37.733   6.755
10248POPC   C3B59817  15.689  37.752   7.055
10248POPC   C4B59818  15.696  37.725   7.355
10249POPC   NC359819  37.654  29.931   5.555
10249POPC   PO459820  37.675  29.881   5.855
10249POPC   GL159821  37.667  29.940   6.155
10249POPC   GL259822  37.599  29.863   6.155
10249POPC   C1A59823  37.645  29.894   6.455
10249POPC   D2A59824  37.658  29.911   6.755
10249POPC   C3A59825  37.692  29.965   7.055
10249POPC   C4A59826  37.648  29.940   7.355
10249POPC   C1B59827  37.573  29.716   6.455
10249POPC   C2B59828  37.507  29.688   6.755
10249POPC   C3B59829  37.568  29.748   7.055
10249POPC   C4B59830  37.587  29.673   7.355
10250POPC   NC359831  15.976  44.660   5.555
10250POPC   PO459832  15.928  44.629   5.855
10250POPC   GL159833  15.960  44.628   6.155
10250POPC   GL259834  16.004  44.732   6.155
10250POPC   C1A59835  15.912  44.707   6.455
10250POPC   D2A59836  15.981  44.643   6.755
10250POPC   C3A59837  15.960  44.620   7.055
10250POPC   C4A59838  15.974  44.699   7.355
10250POPC   C1B59839  16.167  44.881   6.455
10250POPC   C2B59840  16.170  44.824   6.755
10250POPC   C3B59841  16.072  44.844   7.055
10250POPC   C4B59842  16.164  44.866   7.355
10251POPC   NC359843  33.763  25.297   5.555
10251POPC   PO459844  33.842  25.233   5.855
10251POPC   GL159845  33.809  25.256   6.155
10251POPC   GL259846  33.871  25.222   6.155
10251POPC   C1A59847  33.784  25.277   6.455
10251POPC   D2A59848  33.758  25.291   6.755
10251POPC   C3A59849  33.825  25.307   7.055
10251POPC   C4A59850  33.756  25.233   7.355
10251POPC   C1B59851  34.038  25.189   6.455
10251POPC   C2B59852  34.086  25.204   6.755
10251POPC   C3B59853  33.998  25.184   7.055
10251POPC   C4B59854  33.995  25.179   7.355
10252POPC   NC359855  11.292   7.406   5.555
10252POPC   PO459856  11.258   7.427   5.855
10252POPC   GL159857  11.312   7.456   6.155
10252POPC   GL259858  11.176   7.393   6.155
10252POPC   C1A59859  11.269   7.451   6.455
10252POPC   D2A59860  11.304   7.402   6.755
10252POPC   C3A59861  11.299   7.445   7.055
10252POPC   C4A59862  11.329   7.454   7.355
10252POPC   C1B59863  11.051   7.421   6.455
10252POPC   C2B59864  11.043   7.400   6.755
10252POPC   C3B59865  11.035   7.457   7.055
10252POPC   C4B59866  11.029   7.427   7.355
10253POPC   NC359867  29.144  21.425   5.555
10253POPC   PO459868  29.179  21.403   5.855
10253POPC   GL159869  29.138  21.399   6.155
10253POPC   GL259870  29.121  21.249   6.155
10253POPC   C1A59871  29.105  21.413   6.455
10253POPC   D2A59872  29.147  21.356   6.755
10253POPC   C3A59873  29.098  21.430   7.055
10253POPC   C4A59874  29.157  21.390   7.355
10253POPC   C1B59875  29.161  21.094   6.455
10253POPC   C2B59876  29.116  21.173   6.755
10253POPC   C3B59877  29.073  21.179   7.055
10253POPC   C4B59878  29.122  21.143   7.355
10254POPC   NC359879  43.123  42.354   5.555
10254POPC   PO459880  43.148  42.322   5.855
10254POPC   GL159881  43.067  42.340   6.155
10254POPC   GL259882  43.197  42.356   6.155
10254POPC   C1A59883  43.150  42.339   6.455
10254POPC   D2A59884  43.108  42.331   6.755
10254POPC   C3A59885  43.096  42.356   7.055
10254POPC   C4A59886  43.105  42.360   7.355
10254POPC   C1B59887  43.337  42.369   6.455
10254POPC   C2B59888  43.393  42.461   6.755
10254POPC   C3B59889  43.375  42.451   7.055
10254POPC   C4B59890  43.338  42.406   7.355
10255POPC   NC359891  34.591  41.573   5.555
10255POPC   PO459892  34.579  41.536   5.855
10255POPC   GL159893  34.590  41.599   6.155
10255POPC   GL259894  34.684  41.681   6.155
10255POPC   C1A59895  34.614  41.523   6.455
10255POPC   D2A59896  34.557  41.538   6.755
10255POPC   C3A59897  34.566  41.568   7.055
10255POPC   C4A59898  34.586  41.574   7.355
10255POPC   C1B59899  34.737  41.732   6.455
10255POPC   C2B59900  34.726  41.792   6.755
10255POPC   C3B59901  34.785  41.711   7.055
10255POPC   C4B59902  34.741  41.749   7.355
10256POPC   NC359903  37.684   2.015   5.555
10256POPC   PO459904  37.723   1.957   5.855
10256POPC   GL159905  37.654   1.967   6.155
10256POPC   GL259906  37.760   2.014   6.155
10256POPC   C1A59907  37.706   1.985   6.455
10256POPC   D2A59908  37.647   1.990   6.755
10256POPC   C3A59909  37.706   2.022   7.055
10256POPC   C4A59910  37.669   2.002   7.355
10256POPC   C1B59911  37.836   2.116   6.455
10256POPC   C2B59912  37.897   2.166   6.755
10256POPC   C3B59913  37.863   2.133   7.055
10256POPC   C4B59914  37.842   2.154   7.355
10257POPC   NC359915  30.744   6.630   5.555
10257POPC   PO459916  30.720   6.655   5.855
10257POPC   GL159917  30.736   6.649   6.155
10257POPC   GL259918  30.783   6.578   6.155
10257POPC   C1A59919  30.735   6.629   6.455
10257POPC   D2A59920  30.654   6.682   6.755
10257POPC   C3A59921  30.693   6.641   7.055
10257POPC   C4A59922  30.728   6.694   7.355
10257POPC   C1B59923  30.901   6.464   6.455
10257POPC   C2B59924  30.894   6.477   6.755
10257POPC   C3B59925  30.870   6.442   7.055
10257POPC   C4B59926  30.837   6.505   7.355
10258POPC   NC359927  14.427  16.766   5.555
10258POPC   PO459928  14.392  16.704   5.855
10258POPC   GL159929  14.438  16.721   6.155
10258POPC   GL259930  14.386  16.863   6.155
10258POPC   C1A59931  14.369  16.745   6.455
10258POPC   D2A59932  14.363  16.699   6.755
10258POPC   C3A59933  14.431  16.767   7.055
10258POPC   C4A59934  14.448  16.736   7.355
10258POPC   C1B59935  14.278  16.992   6.455
10258POPC   C2B59936  14.295  16.960   6.755
10258POPC   C3B59937  14.333  16.933   7.055
10258POPC   C4B59938  14.342  17.005   7.355
10259POPC   NC359939   2.768  17.511   5.555
10259POPC   PO459940   2.755  17.492   5.855
10259POPC   GL159941   2.740  17.508   6.155
10259POPC   GL259942   2.741  17.629   6.155
10259POPC   C1A59943   2.779  17.534   6.455
10259POPC   D2A59944   2.787  17.467   6.755
10259POPC   C3A59945   2.742  17.464   7.055
10259POPC   C4A59946   2.754  17.473   7.355
10259POPC   C1B59947   2.734  17.753   6.455
10259POPC   C2B59948   2.820  17.805   6.755
10259POPC   C3B59949   2.782  17.778   7.055
10259POPC   C4B59950   2.796  17.792   7.355
10260POPC   NC359951   8.223  34.621   5.555
10260POPC   PO459952   8.224  34.610   5.855
10260POPC   GL159953   8.204  34.555   6.155
10260POPC   GL259954   8.279  34.469   6.155
10260POPC   C1A59955   8.176  34.532   6.455
10260POPC   D2A59956   8.179  34.582   6.755
10260POPC   C3A59957   8.210  34.532   7.055
10260POPC   C4A59958   8.153  34.615   7.355
10260POPC   C1B59959   8.366  34.358   6.455
10260POPC   C2B59960   8.347  34.400   6.755
10260POPC   C3B59961   8.388  34.393   7.055
10260POPC   C4B59962   8.415  34.360   7.355
10261POPC   NC359963   3.515  23.676   5.555
10261POPC   PO459964   3.493  23.690   5.855
10261POPC   GL159965   3.501  23.756   6.155
10261POPC   GL259966   3.560  23.566   6.155
10261POPC   C1A59967   3.498  23.753   6.455
10261POPC   D2A59968   3.551  23.750   6.755
10261POPC   C3A59969   3.495  23.706   7.055
10261POPC   C4A59970   3.517  23.699   7.355
10261POPC   C1B59971   3.494  23.497   6.455
10261POPC   C2B59972   3.533  23.420   6.755
10261POPC   C3B59973   3.500  23.427   7.055
10261POPC   C4B59974   3.523  23.505   7.355
10262POPC   NC359975  15.986  18.300   5.555
10262POPC   PO459976  16.000  18.298   5.855
10262POPC   GL159977  15.945  18.265   6.155
10262POPC   GL259978  16.014  18.183   6.155
10262POPC   C1A59979  15.931  18.326   6.455
10262POPC   D2A59980  15.981  18.287   6.755
10262POPC   C3A59981  15.907  18.295   7.055
10262POPC   C4A59982  16.001  18.240   7.355
10262POPC   C1B59983  16.079  18.061   6.455
10262POPC   C2B59984  16.164  18.136   6.755
10262POPC   C3B59985  16.092  18.061   7.055
10262POPC   C4B59986  16.136  18.101   7.355
10263POPC   NC359987  22.117  26.858   5.555
10263POPC   PO459988  22.211  26.858   5.855
10263POPC   GL159989  22.186  26.802   6.155
10263POPC   GL259990  22.079  26.747   6.155
10263POPC   C1A59991  22.202  26.853   6.455
10263POPC   D2A59992  22.121  26.779   6.755
10263POPC   C3A59993  22.183  26.771   7.055
10263POPC   C4A59994  22.186  26.801   7.355
10263POPC   C1B59995  21.888  26.766   6.455
10263POPC   C2B59996  21.958  26.746   6.755
10263POPC   C3B59997  21.936  26.710   7.055
10263POPC   C4B59998  21.881  26.715   7.355
10264POPC   NC359999  14.360  24.489   5.555
10264POPC   PO460000  14.401  24.485   5.855
10264POPC   GL160001  14.403  24.502   6.155
10264POPC   GL260002  14.485  24.551   6.155
10264POPC   C1A60003  14.441  24.460   6.455
10264POPC   D2A60004  14.449  24.456   6.755
10264POPC   C3A60005  14.393  24.528   7.055
10264POPC   C4A60006  14.356  24.534   7.355
10264POPC   C1B60007  14.531  24.650   6.455
10264POPC   C2B60008  14.596  24.705   6.755
10264POPC   C3B60009  14.518  24.634   7.055
10264POPC   C4B60010  14.568  24.641   7.355
10265POPC   NC360011  39.990  40.810   5.555
10265POPC   PO460012  40.056  40.781   5.855
10265POPC   GL160013  40.050  40.821   6.155
10265POPC   GL260014  39.869  40.724   6.155
10265POPC   C1A60015  40.031  40.734   6.455
10265POPC   D2A60016  40.053  40.808   6.755
10265POPC   C3A60017  40.032  40.822   7.055
10265POPC   C4A60018  40.050  40.796   7.355
10265POPC   C1B60019  39.816  40.607   6.455
10265POPC   C2B60020  39.798  40.635   6.755
10265POPC   C3B60021  39.841  40.564   7.055
10265POPC   C4B60022  39.810  40.580   7.355
10266POPC   NC360023   0.420   5.854   5.555
10266POPC   PO460024   0.461   5.826   5.855
10266POPC   GL160025   0.398   5.915   6.155
10266POPC   GL260026   0.392   5.972   6.155
10266POPC   C1A60027   0.396   5.873   6.455
10266POPC   D2A60028   0.419   5.843   6.755
10266POPC   C3A60029   0.467   5.909   7.055
10266POPC   C4A60030   0.474   5.823   7.355
10266POPC   C1B60031   0.419   6.089   6.455
10266POPC   C2B60032   0.367   6.105   6.755
10266POPC   C3B60033   0.405   6.148   7.055
10266POPC   C4B60034   0.431   6.085   7.355
10267POPC   NC360035   2.740  23.735   5.555
10267POPC   PO460036   2.809  23.748   5.855
10267POPC   GL160037   2.733  23.730   6.155
10267POPC   GL260038   2.776  23.810   6.155
10267POPC   C1A60039   2.779  23.741   6.455
10267POPC   D2A60040   2.768  23.712   6.755
10267POPC   C3A60041   2.716  23.665   7.055
10267POPC   C4A60042   2.793  23.744   7.355
10267POPC   C1B60043   2.830  23.936   6.455
10267POPC   C2B60044   2.800  23.918   6.755
10267POPC   C3B60045   2.774  23.968   7.055
10267POPC   C4B60046   2.806  23.917   7.355
10268POPC   NC360047  38.423  21.403   5.555
10268POPC   PO460048  38.413  21.350   5.855
10268POPC   GL160049  38.426  21.397   6.155
10268POPC   GL260050  38.364  21.526   6.155
10268POPC   C1A60051  38.501  21.363   6.455
10268POPC   D2A60052  38.450  21.338   6.755
10268POPC   C3A60053  38.467  21.371   7.055
10268POPC   C4A60054  38.431  21.396   7.355
10268POPC   C1B60055  38.385  21.666   6.455
10268POPC   C2B60056  38.321  21.661   6.755
10268POPC   C3B60057  38.359  21.643   7.055
10268POPC   C4B60058  38.331  21.606   7.355
10269POPC   NC360059  12.096  31.466   5.555
10269POPC   PO460060  12.081  31.440   5.855
10269POPC   GL160061  12.118  31.503   6.155
10269POPC   GL260062  12.085  31.599   6.155
10269POPC   C1A60063  12.059  31.437   6.455
10269POPC   D2A60064  12.072  31.502   6.755
10269POPC   C3A60065  12.092  31.488   7.055
10269POPC   C4A60066  12.028  31.452   7.355
10269POPC   C1B60067  12.175  31.707   6.455
10269POPC   C2B60068  12.135  31.694   6.755
10269POPC   C3B60069  12.118  31.721   7.055
10269POPC   C4B60070  12.180  31.722   7.355
10270POPC   NC360071   3.570  15.979   5.555
10270POPC   PO460072   3.497  15.994   5.855
10270POPC   GL160073   3.587  16.002   6.155
10270POPC   GL260074   3.457  15.947   6.155
10270POPC   C1A60075   3.543  15.962   6.455
10270POPC   D2A60076   3.543  15.948   6.755
10270POPC   C3A60077   3.528  15.995   7.055
10270POPC   C4A60078   3.561  15.921   7.355
10270POPC   C1B60079   3.333  16.016   6.455
10270POPC   C2B60080   3.327  16.008   6.755
10270POPC   C3B60081   3.321  16.005   7.055
10270POPC   C4B60082   3.316  16.054   7.355
10271POPC   NC360083  40.747   1.991   5.555
10271POPC   PO460084  40.798   1.996   5.855
10271POPC   GL160085  40.793   2.021   6.155
10271POPC   GL260086  40.696   2.027   6.155
10271POPC   C1A60087  40.770   1.957   6.455
10271POPC   D2A60088  40.792   2.001   6.755
10271POPC   C3A60089  40.801   1.954   7.055
10271POPC   C4A60090  40.776   1.979   7.355
10271POPC   C1B60091  40.567   2.071   6.455
10271POPC   C2B60092  40.536   2.075   6.755
10271POPC   C3B60093  40.497   2.000   7.055
10271POPC   C4B60094  40.579   2.063   7.355
10272POPC   NC360095   5.053   0.428   5.555
10272POPC   PO460096   5.049   0.435   5.855
10272POPC   GL160097   5.064   0.438   6.155
10272POPC   GL260098   5.054   0.563   6.155
10272POPC   C1A60099   5.136   0.482   6.455
10272POPC   D2A60100   5.079   0.475   6.755
10272POPC   C3A60101   5.045   0.471   7.055
10272POPC   C4A60102   5.079   0.429   7.355
10272POPC   C1B60103   4.942   0.594   6.455
10272POPC   C2B60104   4.978   0.674   6.755
10272POPC   C3B60105   4.889   0.622   7.055
10272POPC   C4B60106   4.893   0.628   7.355
10273POPC   NC360107  33.778  13.643   5.555
10273POPC   PO460108  33.814  13.669   5.855
10273POPC   GL160109  33.804  13.585   6.155
10273POPC   GL260110  33.729  13.612   6.155
10273POPC   C1A60111  33.788  13.618   6.455
10273POPC   D2A60112  33.788  13.605   6.755
10273POPC   C3A60113  33.793  13.585   7.055
10273POPC   C4A60114  33.757  13.579   7.355
10273POPC   C1B60115  33.620  13.484   6.455
10273POPC   C2B60116  33.537  13.487   6.755
10273POPC   C3B60117  33.617  13.509   7.055
10273POPC   C4B60118  33.598  13.493   7.355
10274POPC   NC360119  39.222  10.484   5.555
10274POPC   PO460120  39.228  10.487   5.855
10274POPC   GL160121  39.232  10.480   6.155
10274POPC   GL260122  39.136  10.513   6.155
10274POPC   C1A60123  39.207  10.519   6.455
10274POPC   D2A60124  39.182  10.535   6.755
10274POPC   C3A60125  39.261  10.498   7.055
10274POPC   C4A60126  39.219  10.525   7.355
10274POPC   C1B60127  38.975  10.561   6.455
10274POPC   C2B60128  39.012  10.543   6.755
10274POPC   C3B60129  38.945  10.483   7.055
10274POPC   C4B60130  39.018  10.489   7.355
10275POPC   NC360131  14.418  37.636   5.555
10275POPC   PO460132  14.368  37.702   5.855
10275POPC   GL160133  14.414  37.659   6.155
10275POPC   GL260134  14.346  37.566   6.155
10275POPC   C1A60135  14.375  37.721   6.455
10275POPC   D2A60136  14.389  37.727   6.755
10275POPC   C3A60137  14.375  37.701   7.055
10275POPC   C4A60138  14.420  37.657   7.355
10275POPC   C1B60139  14.224  37.537   6.455
10275POPC   C2B60140  14.227  37.517   6.755
10275POPC   C3B60141  14.251  37.572   7.055
10275POPC   C4B60142  14.223  37.537   7.355
10276POPC   NC360143  24.485  16.000   5.555
10276POPC   PO460144  24.451  15.937   5.855
10276POPC   GL160145  24.467  15.971   6.155
10276POPC   GL260146  24.433  15.920   6.155
10276POPC   C1A60147  24.465  15.919   6.455
10276POPC   D2A60148  24.531  15.951   6.755
10276POPC   C3A60149  24.494  15.941   7.055
10276POPC   C4A60150  24.469  15.988   7.355
10276POPC   C1B60151  24.241  15.864   6.455
10276POPC   C2B60152  24.267  15.806   6.755
10276POPC   C3B60153  24.317  15.842   7.055
10276POPC   C4B60154  24.295  15.858   7.355
10277POPC   NC360155  18.272  22.968   5.555
10277POPC   PO460156  18.246  22.891   5.855
10277POPC   GL160157  18.246  22.894   6.155
10277POPC   GL260158  18.152  22.976   6.155
10277POPC   C1A60159  18.308  22.965   6.455
10277POPC   D2A60160  18.294  22.911   6.755
10277POPC   C3A60161  18.306  22.898   7.055
10277POPC   C4A60162  18.271  22.904   7.355
10277POPC   C1B60163  18.021  23.038   6.455
10277POPC   C2B60164  18.057  23.051   6.755
10277POPC   C3B60165  18.038  23.094   7.055
10277POPC   C4B60166  18.059  23.017   7.355
10278POPC   NC360167  12.075  20.644   5.555
10278POPC   PO460168  12.044  20.598   5.855
10278POPC   GL160169  12.052  20.596   6.155
10278POPC   GL260170  11.943  20.666   6.155
10278POPC   C1A60171  12.060  20.654   6.455
10278POPC   D2A60172  12.037  20.652   6.755
10278POPC   C3A60173  12.040  20.618   7.055
10278POPC   C4A60174  12.066  20.610   7.355
10278POPC   C1B60175  11.870  20.623   6.455
10278POPC   C2B60176  11.831  20.692   6.755
10278POPC   C3B60177  11.829  20.658   7.055
10278POPC   C4B60178  11.863  20.703   7.355
10279POPC   NC360179   4.329  31.428   5.555
10279POPC   PO460180   4.272  31.497   5.855
10279POPC   GL160181   4.318  31.461   6.155
10279POPC   GL260182   4.401  31.366   6.155
10279POPC   C1A60183   4.355  31.451   6.455
10279POPC   D2A60184   4.285  31.519   6.755
10279POPC   C3A60185   4.272  31.473   7.055
10279POPC   C4A60186   4.275  31.447   7.355
10279POPC   C1B60187   4.434  31.204   6.455
10279POPC   C2B60188   4.437  31.285   6.755
10279POPC   C3B60189   4.400  31.199   7.055
10279POPC   C4B60190   4.423  31.197   7.355
10280POPC   NC360191  10.520  11.306   5.555
10280POPC   PO460192  10.505  11.325   5.855
10280POPC   GL160193  10.539  11.324   6.155
10280POPC   GL260194  10.429  11.252   6.155
10280POPC   C1A60195  10.525  11.281   6.455
10280POPC   D2A60196  10.481  11.256   6.755
10280POPC   C3A60197  10.555  11.313   7.055
10280POPC   C4A60198  10.502  11.254   7.355
10280POPC   C1B60199  10.357  11.147   6.455
10280POPC   C2B60200  10.310  11.112   6.755
10280POPC   C3B60201  10.352  11.114   7.055
10280POPC   C4B60202  10.368  11.094   7.355
10281POPC   NC360203  23.704  15.188   5.555
10281POPC   PO460204  23.706  15.151   5.855
10281POPC   GL160205  23.673  15.222   6.155
10281POPC   GL260206  23.699  15.012   6.155
10281POPC   C1A60207  23.731  15.208   6.455
10281POPC   D2A60208  23.758  15.220   6.755
10281POPC   C3A60209  23.736  15.142   7.055
10281POPC   C4A60210  23.760  15.173   7.355
10281POPC   C1B60211  23.673  14.987   6.455
10281POPC   C2B60212  23.662  14.940   6.755
10281POPC   C3B60213  23.582  14.967   7.055
10281POPC   C4B60214  23.657  14.963   7.355
10282POPC   NC360215   8.220  20.599   5.555
10282POPC   PO460216   8.189  20.633   5.855
10282POPC   GL160217   8.173  20.596   6.155
10282POPC   GL260218   8.304  20.670   6.155
10282POPC   C1A60219   8.184  20.629   6.455
10282POPC   D2A60220   8.232  20.609   6.755
10282POPC   C3A60221   8.181  20.582   7.055
10282POPC   C4A60222   8.239  20.604   7.355
10282POPC   C1B60223   8.380  20.735   6.455
10282POPC   C2B60224   8.465  20.762   6.755
10282POPC   C3B60225   8.403  20.725   7.055
10282POPC   C4B60226   8.454  20.769   7.355
10283POPC   NC360227  25.299  39.972   5.555
10283POPC   PO460228  25.280  40.054   5.855
10283POPC   GL160229  25.283  40.033   6.155
10283POPC   GL260230  25.297  39.842   6.155
10283POPC   C1A60231  25.222  39.980   6.455
10283POPC   D2A60232  25.259  40.008   6.755
10283POPC   C3A60233  25.310  39.983   7.055
10283POPC   C4A60234  25.249  40.042   7.355
10283POPC   C1B60235  25.287  39.746   6.455
10283POPC   C2B60236  25.211  39.717   6.755
10283POPC   C3B60237  25.247  39.714   7.055
10283POPC   C4B60238  25.208  39.708   7.355
10284POPC   NC360239  42.326  10.494   5.555
10284POPC   PO460240  42.317  10.521   5.855
10284POPC   GL160241  42.321  10.507   6.155
10284POPC   GL260242  42.439  10.559   6.155
10284POPC   C1A60243  42.319  10.494   6.455
10284POPC   D2A60244  42.319  10.542   6.755
10284POPC   C3A60245  42.357  10.496   7.055
10284POPC   C4A60246  42.356  10.495   7.355
10284POPC   C1B60247  42.591  10.461   6.455
10284POPC   C2B60248  42.576  10.470   6.755
10284POPC   C3B60249  42.536  10.484   7.055
10284POPC   C4B60250  42.569  10.499   7.355
10285POPC   NC360251   2.728  22.938   5.555
10285POPC   PO460252   2.744  22.929   5.855
10285POPC   GL160253   2.803  22.943   6.155
10285POPC   GL260254   2.788  23.060   6.155
10285POPC   C1A60255   2.732  22.969   6.455
10285POPC   D2A60256   2.775  22.972   6.755
10285POPC   C3A60257   2.735  22.908   7.055
10285POPC   C4A60258   2.790  22.910   7.355
10285POPC   C1B60259   2.826  23.144   6.455
10285POPC   C2B60260   2.852  23.169   6.755
10285POPC   C3B60261   2.789  23.162   7.055
10285POPC   C4B60262   2.839  23.179   7.355
10286POPC   NC360263  38.499  12.823   5.555
10286POPC   PO460264  38.453  12.823   5.855
10286POPC   GL160265  38.441  12.852   6.155
10286POPC   GL260266  38.331  12.985   6.155
10286POPC   C1A60267  38.500  12.870   6.455
10286POPC   D2A60268  38.410  12.870   6.755
10286POPC   C3A60269  38.479  12.877   7.055
10286POPC   C4A60270  38.446  12.805   7.355
10286POPC   C1B60271  38.295  13.007   6.455
10286POPC   C2B60272  38.278  13.083   6.755
10286POPC   C3B60273  38.285  13.073   7.055
10286POPC   C4B60274  38.276  13.050   7.355
10287POPC   NC360275  22.208  35.320   5.555
10287POPC   PO460276  22.113  35.400   5.855
10287POPC   GL160277  22.196  35.378   6.155
10287POPC   GL260278  22.023  35.340   6.155
10287POPC   C1A60279  22.183  35.319   6.455
10287POPC   D2A60280  22.152  35.309   6.755
10287POPC   C3A60281  22.195  35.339   7.055
10287POPC   C4A60282  22.176  35.314   7.355
10287POPC   C1B60283  21.937  35.374   6.455
10287POPC   C2B60284  21.909  35.401   6.755
10287POPC   C3B60285  21.910  35.422   7.055
10287POPC   C4B60286  21.906  35.439   7.355
10288POPC   NC360287  15.937   8.955   5.555
10288POPC   PO460288  15.988   9.003   5.855
10288POPC   GL160289  15.996   9.018   6.155
10288POPC   GL260290  16.122   9.002   6.155
10288POPC   C1A60291  15.958   8.983   6.455
10288POPC   D2A60292  15.966   8.957   6.755
10288POPC   C3A60293  15.956   8.924   7.055
10288POPC   C4A60294  15.946   8.987   7.355
10288POPC   C1B60295  16.206   9.014   6.455
10288POPC   C2B60296  16.184   9.037   6.755
10288POPC   C3B60297  16.170   9.040   7.055
10288POPC   C4B60298  16.240   8.962   7.355
10289POPC   NC360299   8.230  12.897   5.555
10289POPC   PO460300   8.188  12.870   5.855
10289POPC   GL160301   8.184  12.886   6.155
10289POPC   GL260302   8.187  12.771   6.155
10289POPC   C1A60303   8.197  12.899   6.455
10289POPC   D2A60304   8.167  12.808   6.755
10289POPC   C3A60305   8.228  12.863   7.055
10289POPC   C4A60306   8.165  12.900   7.355
10289POPC   C1B60307   8.158  12.599   6.455
10289POPC   C2B60308   8.108  12.625   6.755
10289POPC   C3B60309   8.130  12.622   7.055
10289POPC   C4B60310   8.159  12.606   7.355
10290POPC   NC360311  38.467  43.107   5.555
10290POPC   PO460312  38.419  43.148   5.855
10290POPC   GL160313  38.422  43.131   6.155
10290POPC   GL260314  38.328  43.087   6.155
10290POPC   C1A60315  38.422  43.102   6.455
10290POPC   D2A60316  38.502  43.097   6.755
10290POPC   C3A60317  38.475  43.122   7.055
10290POPC   C4A60318  38.457  43.084   7.355
10290POPC   C1B60319  38.232  43.028   6.455
10290POPC   C2B60320  38.255  43.093   6.755
10290POPC   C3B60321  38.175  43.035   7.055
10290POPC   C4B60322  38.221  43.028   7.355
10291POPC   NC360323  37.722  16.732   5.555
10291POPC   PO460324  37.634  16.766   5.855
10291POPC   GL160325  37.721  16.702   6.155
10291POPC   GL260326  37.591  16.579   6.155
10291POPC   C1A60327  37.697  16.757   6.455
10291POPC   D2A60328  37.672  16.772   6.755
10291POPC   C3A60329  37.639  16.717   7.055
10291POPC   C4A60330  37.666  16.712   7.355
10291POPC   C1B60331  37.557  16.458   6.455
10291POPC   C2B60332  37.594  16.520   6.755
10291POPC   C3B60333  37.589  16.466   7.055
10291POPC   C4B60334  37.594  16.519   7.355
10292POPC   NC360335  39.991  44.619   5.555
10292POPC   PO460336  40.007  44.645   5.855
10292POPC   GL160337  40.015  44.710   6.155
10292POPC   GL260338  39.885  44.714   6.155
10292POPC   C1A60339  39.977  44.704   6.455
10292POPC   D2A60340  40.006  44.660   6.755
10292POPC   C3A60341  40.039  44.621   7.055
10292POPC   C4A60342  39.968  44.681   7.355
10292POPC   C1B60343  39.718  44.682   6.455
10292POPC   C2B60344  39.724  44.680   6.755
10292POPC   C3B60345  39.745  44.661   7.055
10292POPC   C4B60346  39.730  44.720   7.355
10293POPC   NC360347   8.218  16.776   5.555
10293POPC   PO460348   8.147  16.728   5.855
10293POPC   GL160349   8.208  16.774   6.155
10293POPC   GL260350   8.094  16.658   6.155
10293POPC   C1A60351   8.220  16.748   6.455
10293POPC   D2A60352   8.179  16.694   6.755
10293POPC   C3A60353   8.192  16.744   7.055
10293POPC   C4A60354   8.165  16.729   7.355
10293POPC   C1B60355   7.964  16.622   6.455
10293POPC   C2B60356   8.007  16.663   6.755
10293POPC   C3B60357   7.939  16.672   7.055
10293POPC   C4B60358   7.932  16.654   7.355
10294POPC   NC360359  19.804  24.526   5.555
10294POPC   PO460360  19.822  24.521   5.855
10294POPC   GL160361  19.803  24.453   6.155
10294POPC   GL260362  19.728  24.549   6.155
10294POPC   C1A60363  19.835  24.520   6.455
10294POPC   D2A60364  19.866  24.455   6.755
10294POPC   C3A60365  19.829  24.511   7.055
10294POPC   C4A60366  19.816  24.472   7.355
10294POPC   C1B60367  19.563  24.533   6.455
10294POPC   C2B60368  19.596  24.499   6.755
10294POPC   C3B60369  19.571  24.541   7.055
10294POPC   C4B60370  19.557  24.520   7.355
10295POPC   NC360371  30.714  28.344   5.555
10295POPC   PO460372  30.729  28.346   5.855
10295POPC   GL160373  30.712  28.351   6.155
10295POPC   GL260374  30.779  28.247   6.155
10295POPC   C1A60375  30.707  28.400   6.455
10295POPC   D2A60376  30.702  28.355   6.755
10295POPC   C3A60377  30.657  28.378   7.055
10295POPC   C4A60378  30.663  28.370   7.355
10295POPC   C1B60379  30.870  28.191   6.455
10295POPC   C2B60380  30.907  28.173   6.755
10295POPC   C3B60381  30.920  28.204   7.055
10295POPC   C4B60382  30.907  28.235   7.355
10296POPC   NC360383  33.778  31.440   5.555
10296POPC   PO460384  33.791  31.485   5.855
10296POPC   GL160385  33.796  31.515   6.155
10296POPC   GL260386  33.720  31.434   6.155
10296POPC   C1A60387  33.841  31.427   6.455
10296POPC   D2A60388  33.802  31.498   6.755
10296POPC   C3A60389  33.813  31.466   7.055
10296POPC   C4A60390  33.831  31.463   7.355
10296POPC   C1B60391  33.516  31.435   6.455
10296POPC   C2B60392  33.551  31.453   6.755
10296POPC   C3B60393  33.544  31.411   7.055
10296POPC   C4B60394  33.509  31.442   7.355
10297POPC   NC360395   2.761   4.321   5.555
10297POPC   PO460396   2.747   4.311   5.855
10297POPC   GL160397   2.786   4.311   6.155
10297POPC   GL260398   2.917   4.404   6.155
10297POPC   C1A60399   2.788   4.321   6.455
10297POPC   D2A60400   2.775   4.310   6.755
10297POPC   C3A60401   2.804   4.316   7.055
10297POPC   C4A60402   2.813   4.334   7.355
10297POPC   C1B60403   3.028   4.407   6.455
10297POPC   C2B60404   2.976   4.412   6.755
10297POPC   C3B60405   2.956   4.375   7.055
10297POPC   C4B60406   2.999   4.423   7.355
10298POPC   NC360407  25.231  22.925   5.555
10298POPC   PO460408  25.236  22.963   5.855
10298POPC   GL160409  25.301  22.893   6.155
10298POPC   GL260410  25.162  22.832   6.155
10298POPC   C1A60411  25.256  22.923   6.455
10298POPC   D2A60412  25.263  22.928   6.755
10298POPC   C3A60413  25.313  22.919   7.055
10298POPC   C4A60414  25.305  22.982   7.355
10298POPC   C1B60415  25.033  22.822   6.455
10298POPC   C2B60416  25.066  22.824   6.755
10298POPC   C3B60417  25.048  22.838   7.055
10298POPC   C4B60418  25.096  22.823   7.355
10299POPC   NC360419  13.585  22.936   5.555
10299POPC   PO460420  13.638  22.914   5.855
10299POPC   GL160421  13.620  22.972   6.155
10299POPC   GL260422  13.592  22.992   6.155
10299POPC   C1A60423  13.671  22.942   6.455
10299POPC   D2A60424  13.658  22.931   6.755
10299POPC   C3A60425  13.671  22.903   7.055
10299POPC   C4A60426  13.588  22.977   7.355
10299POPC   C1B60427  13.425  23.120   6.455
10299POPC   C2B60428  13.441  23.133   6.755
10299POPC   C3B60429  13.492  23.123   7.055
10299POPC   C4B60430  13.468  23.162   7.355
10300POPC   NC360431  43.935  21.405   5.555
10300POPC   PO460432  43.904  21.362   5.855
10300POPC   GL160433  43.894  21.416   6.155
10300POPC   GL260434  43.779  21.402   6.155
10300POPC   C1A60435  43.924  21.354   6.455
10300POPC   D2A60436  43.881  21.353   6.755
10300POPC   C3A60437  43.902  21.396   7.055
10300POPC   C4A60438  43.855  21.392   7.355
10300POPC   C1B60439  43.652  21.537   6.455
10300POPC   C2B60440  43.695  21.455   6.755
10300POPC   C3B60441  43.676  21.462   7.055
10300POPC   C4B60442  43.710  21.518   7.355
10301POPC   NC360443  17.527  29.886   5.555
10301POPC   PO460444  17.548  29.883   5.855
10301POPC   GL160445  17.514  29.954   6.155
10301POPC   GL260446  17.612  29.973   6.155
10301POPC   C1A60447  17.460  29.930   6.455
10301POPC   D2A60448  17.545  29.894   6.755
10301POPC   C3A60449  17.553  29.901   7.055
10301POPC   C4A60450  17.458  29.901   7.355
10301POPC   C1B60451  17.716  30.063   6.455
10301POPC   C2B60452  17.691  30.137   6.755
10301POPC   C3B60453  17.627  30.142   7.055
10301POPC   C4B60454  17.644  30.102   7.355
10302POPC   NC360455  27.572  19.061   5.555
10302POPC   PO460456  27.636  19.049   5.855
10302POPC   GL160457  27.641  19.092   6.155
10302POPC   GL260458  27.546  19.197   6.155
10302POPC   C1A60459  27.596  19.037   6.455
10302POPC   D2A60460  27.558  19.025   6.755
10302POPC   C3A60461  27.589  19.061   7.055
10302POPC   C4A60462  27.625  19.033   7.355
10302POPC   C1B60463  27.463  19.281   6.455
10302POPC   C2B60464  27.369  19.186   6.755
10302POPC   C3B60465  27.419  19.233   7.055
10302POPC   C4B60466  27.424  19.270   7.355
10303POPC   NC360467  21.394   4.292   5.555
10303POPC   PO460468  21.379   4.297   5.855
10303POPC   GL160469  21.436   4.304   6.155
10303POPC   GL260470  21.286   4.264   6.155
10303POPC   C1A60471  21.370   4.292   6.455
10303POPC   D2A60472  21.384   4.327   6.755
10303POPC   C3A60473  21.349   4.288   7.055
10303POPC   C4A60474  21.424   4.310   7.355
10303POPC   C1B60475  21.226   4.172   6.455
10303POPC   C2B60476  21.268   4.122   6.755
10303POPC   C3B60477  21.206   4.116   7.055
10303POPC   C4B60478  21.233   4.172   7.355
10304POPC   NC360479  30.691  27.604   5.555
10304POPC   PO460480  30.745  27.548   5.855
10304POPC   GL160481  30.666  27.632   6.155
10304POPC   GL260482  30.717  27.752   6.155
10304POPC   C1A60483  30.665  27.566   6.455
10304POPC   D2A60484  30.715  27.640   6.755
10304POPC   C3A60485  30.713  27.594   7.055
10304POPC   C4A60486  30.705  27.598   7.355
10304POPC   C1B60487  30.619  27.849   6.455
10304POPC   C2B60488  30.657  27.797   6.755
10304POPC   C3B60489  30.687  27.873   7.055
10304POPC   C4B60490  30.633  27.842   7.355
10305POPC   NC360491  21.377  40.784   5.555
10305POPC   PO460492  21.396  40.831   5.855
10305POPC   GL160493  21.361  40.783   6.155
10305POPC   GL260494  21.446  40.713   6.155
10305POPC   C1A60495  21.397  40.794   6.455
10305POPC   D2A60496  21.395  40.779   6.755
10305POPC   C3A60497  21.394  40.737   7.055
10305POPC   C4A60498  21.414  40.769   7.355
10305POPC   C1B60499  21.524  40.543   6.455
10305POPC   C2B60500  21.471  40.542   6.755
10305POPC   C3B60501  21.550  40.576   7.055
10305POPC   C4B60502  21.494  40.553   7.355
10306POPC   NC360503  15.228  21.420   5.555
10306POPC   PO460504  15.133  21.407   5.855
10306POPC   GL160505  15.162  21.380   6.155
10306POPC   GL260506  15.191  21.493   6.155
10306POPC   C1A60507  15.184  21.380   6.455
10306POPC   D2A60508  15.211  21.337   6.755
10306POPC   C3A60509  15.161  21.366   7.055
10306POPC   C4A60510  15.180  21.347   7.355
10306POPC   C1B60511  15.225  21.614   6.455
10306POPC   C2B60512  15.304  21.634   6.755
10306POPC   C3B60513  15.309  21.589   7.055
10306POPC   C4B60514  15.283  21.609   7.355
10307POPC   NC360515   8.925  13.660   5.555
10307POPC   PO460516   8.948  13.653   5.855
10307POPC   GL160517   8.935  13.675   6.155
10307POPC   GL260518   8.988  13.465   6.155
10307POPC   C1A60519   8.993  13.585   6.455
10307POPC   D2A60520   8.977  13.649   6.755
10307POPC   C3A60521   8.966  13.675   7.055
10307POPC   C4A60522   9.008  13.586   7.355
10307POPC   C1B60523   8.891  13.384   6.455
10307POPC   C2B60524   8.925  13.333   6.755
10307POPC   C3B60525   8.914  13.335   7.055
10307POPC   C4B60526   8.929  13.370   7.355
10308POPC   NC360527  25.235  17.549   5.555
10308POPC   PO460528  25.216  17.487   5.855
10308POPC   GL160529  25.315  17.468   6.155
10308POPC   GL260530  25.275  17.621   6.155
10308POPC   C1A60531  25.253  17.539   6.455
10308POPC   D2A60532  25.269  17.460   6.755
10308POPC   C3A60533  25.243  17.496   7.055
10308POPC   C4A60534  25.298  17.540   7.355
10308POPC   C1B60535  25.197  17.799   6.455
10308POPC   C2B60536  25.223  17.798   6.755
10308POPC   C3B60537  25.254  17.757   7.055
10308POPC   C4B60538  25.219  17.731   7.355
10309POPC   NC360539  22.902  27.593   5.555
10309POPC   PO460540  22.978  27.546   5.855
10309POPC   GL160541  22.945  27.599   6.155
10309POPC   GL260542  23.015  27.676   6.155
10309POPC   C1A60543  22.936  27.615   6.455
10309POPC   D2A60544  22.980  27.611   6.755
10309POPC   C3A60545  22.928  27.606   7.055
10309POPC   C4A60546  22.926  27.582   7.355
10309POPC   C1B60547  23.169  27.711   6.455
10309POPC   C2B60548  23.115  27.733   6.755
10309POPC   C3B60549  23.111  27.701   7.055
10309POPC   C4B60550  23.198  27.742   7.355
10310POPC   NC360551  43.109  39.983   5.555
10310POPC   PO460552  43.095  40.044   5.855
10310POPC   GL160553  43.089  40.034   6.155
10310POPC   GL260554  43.174  39.912   6.155
10310POPC   C1A60555  43.130  40.042   6.455
10310POPC   D2A60556  43.126  39.992   6.755
10310POPC   C3A60557  43.132  40.054   7.055
10310POPC   C4A60558  43.108  40.013   7.355
10310POPC   C1B60559  43.322  39.901   6.455
10310POPC   C2B60560  43.363  39.851   6.755
10310POPC   C3B60561  43.279  39.849   7.055
10310POPC   C4B60562  43.343  39.867   7.355
10311POPC   NC360563  12.069   6.631   5.555
10311POPC   PO460564  12.057   6.692   5.855
10311POPC   GL160565  12.099   6.684   6.155
10311POPC   GL260566  12.006   6.769   6.155
10311POPC   C1A60567  12.118   6.658   6.455
10311POPC   D2A60568  12.055   6.660   6.755
10311POPC   C3A60569  12.086   6.607   7.055
10311POPC   C4A60570  12.094   6.669   7.355
10311POPC   C1B60571  12.036   6.856   6.455
10311POPC   C2B60572  12.053   6.930   6.755
10311POPC   C3B60573  12.008   6.895   7.055
10311POPC   C4B60574  12.053   6.907   7.355
10312POPC   NC360575  34.571  44.631   5.555
10312POPC   PO460576  34.615  44.630   5.855
10312POPC   GL160577  34.541  44.670   6.155
10312POPC   GL260578  34.523  44.769   6.155
10312POPC   C1A60579  34.565  44.670   6.455
10312POPC   D2A60580  34.623  44.627   6.755
10312POPC   C3A60581  34.590  44.627   7.055
10312POPC   C4A60582  34.609  44.664   7.355
10312POPC   C1B60583  34.566  44.923   6.455
10312POPC   C2B60584  34.557  44.903   6.755
10312POPC   C3B60585  34.498  44.957   7.055
10312POPC   C4B60586  34.516  44.942   7.355
10313POPC   NC360587  12.027   1.207   5.555
10313POPC   PO460588  12.036   1.229   5.855
10313POPC   GL160589  12.048   1.193   6.155
10313POPC   GL260590  12.108   1.353   6.155
10313POPC   C1A60591  12.029   1.256   6.455
10313POPC   D2A60592  12.067   1.237   6.755
10313POPC   C3A60593  12.112   1.172   7.055
10313POPC   C4A60594  12.103   1.202   7.355
10313POPC   C1B60595  12.125   1.455   6.455
10313POPC   C2B60596  12.145   1.436   6.755
10313POPC   C3B60597  12.200   1.406   7.055
10313POPC   C4B60598  12.137   1.435   7.355
10314POPC   NC360599  19.107  13.656   5.555
10314POPC   PO460600  19.041  13.662   5.855
10314POPC   GL160601  19.048  13.588   6.155
10314POPC   GL260602  18.923  13.692   6.155
10314POPC   C1A60603  19.023  13.624   6.455
10314POPC   D2A60604  19.091  13.657   6.755
10314POPC   C3A60605  19.039  13.643   7.055
10314POPC   C4A60606  19.069  13.659   7.355
10314POPC   C1B60607  18.845  13.819   6.455
10314POPC   C2B60608  18.885  13.839   6.755
10314POPC   C3B60609  18.844  13.793   7.055
10314POPC   C4B60610  18.878  13.786   7.355
10315POPC   NC360611  31.429  26.828   5.555
10315POPC   PO460612  31.478  26.797   5.855
10315POPC   GL160613  31.423  26.848   6.155
10315POPC   GL260614  31.553  26.867   6.155
10315POPC   C1A60615  31.499  26.796   6.455
10315POPC   D2A60616  31.490  26.786   6.755
10315POPC   C3A60617  31.508  26.831   7.055
10315POPC   C4A60618  31.503  26.856   7.355
10315POPC   C1B60619  31.672  26.961   6.455
10315POPC   C2B60620  31.670  26.945   6.755
10315POPC   C3B60621  31.661  26.944   7.055
10315POPC   C4B60622  31.682  26.936   7.355
10316POPC   NC360623  12.121   7.428   5.555
10316POPC   PO460624  12.089   7.382   5.855
10316POPC   GL160625  12.105   7.410   6.155
10316POPC   GL260626  12.055   7.337   6.155
10316POPC   C1A60627  12.032   7.416   6.455
10316POPC   D2A60628  12.098   7.442   6.755
10316POPC   C3A60629  12.085   7.430   7.055
10316POPC   C4A60630  12.027   7.391   7.355
10316POPC   C1B60631  11.973   7.213   6.455
10316POPC   C2B60632  11.985   7.151   6.755
10316POPC   C3B60633  11.979   7.231   7.055
10316POPC   C4B60634  12.003   7.177   7.355
10317POPC   NC360635  35.342  32.991   5.555
10317POPC   PO460636  35.352  33.019   5.855
10317POPC   GL160637  35.388  33.034   6.155
10317POPC   GL260638  35.398  32.899   6.155
10317POPC   C1A60639  35.326  33.042   6.455
10317POPC   D2A60640  35.365  33.023   6.755
10317POPC   C3A60641  35.400  33.069   7.055
10317POPC   C4A60642  35.386  33.072   7.355
10317POPC   C1B60643  35.552  32.890   6.455
10317POPC   C2B60644  35.515  32.847   6.755
10317POPC   C3B60645  35.563  32.850   7.055
10317POPC   C4B60646  35.548  32.821   7.355
10318POPC   NC360647  25.295  37.685   5.555
10318POPC   PO460648  25.219  37.653   5.855
10318POPC   GL160649  25.220  37.721   6.155
10318POPC   GL260650  25.298  37.542   6.155
10318POPC   C1A60651  25.273  37.690   6.455
10318POPC   D2A60652  25.293  37.666   6.755
10318POPC   C3A60653  25.257  37.661   7.055
10318POPC   C4A60654  25.293  37.709   7.355
10318POPC   C1B60655  25.351  37.423   6.455
10318POPC   C2B60656  25.290  37.413   6.755
10318POPC   C3B60657  25.295  37.452   7.055
10318POPC   C4B60658  25.311  37.448   7.355
10319POPC   NC360659   7.423  15.925   5.555
10319POPC   PO460660   7.466  15.908   5.855
10319POPC   GL160661   7.426  15.975   6.155
10319POPC   GL260662   7.472  16.054   6.155
10319POPC   C1A60663   7.417  15.966   6.455
10319POPC   D2A60664   7.378  15.961   6.755
10319POPC   C3A60665   7.396  15.957   7.055
10319POPC   C4A60666   7.450  15.980   7.355
10319POPC   C1B60667   7.606  16.086   6.455
10319POPC   C2B60668   7.600  16.116   6.755
10319POPC   C3B60669   7.609  16.100   7.055
10319POPC   C4B60670   7.663  16.117   7.355
10320POPC   NC360671   5.089  29.117   5.555
10320POPC   PO460672   5.045  29.174   5.855
10320POPC   GL160673   5.095  29.170   6.155
10320POPC   GL260674   5.199  29.116   6.155
10320POPC   C1A60675   5.054  29.160   6.455
10320POPC   D2A60676   5.089  29.118   6.755
10320POPC   C3A60677   5.117  29.167   7.055
10320POPC   C4A60678   5.095  29.129   7.355
10320POPC   C1B60679   5.366  29.040   6.455
10320POPC   C2B60680   5.312  29.026   6.755
10320POPC   C3B60681   5.302  29.024   7.055
10320POPC   C4B60682   5.350  29.009   7.355
10321POPC   NC360683  36.873  19.047   5.555
10321POPC   PO460684  36.943  19.040   5.855
10321POPC   GL160685  36.882  19.056   6.155
10321POPC   GL260686  36.946  18.951   6.155
10321POPC   C1A60687  36.857  19.049   6.455
10321POPC   D2A60688  36.883  19.025   6.755
10321POPC   C3A60689  36.897  19.041   7.055
10321POPC   C4A60690  36.873  19.047   7.355
10321POPC   C1B60691  36.905  18.824   6.455
10321POPC   C2B60692  36.911  18.761   6.755
10321POPC   C3B60693  36.896  18.765   7.055
10321POPC   C4B60694  36.914  18.825   7.355
10322POPC   NC360695  34.602  33.028   5.555
10322POPC   PO460696  34.578  33.030   5.855
10322POPC   GL160697  34.559  33.025   6.155
10322POPC   GL260698  34.664  33.092   6.155
10322POPC   C1A60699  34.545  33.046   6.455
10322POPC   D2A60700  34.527  33.072   6.755
10322POPC   C3A60701  34.609  33.037   7.055
10322POPC   C4A60702  34.596  33.035   7.355
10322POPC   C1B60703  34.663  33.273   6.455
10322POPC   C2B60704  34.696  33.219   6.755
10322POPC   C3B60705  34.641  33.290   7.055
10322POPC   C4B60706  34.686  33.254   7.355
10323POPC   NC360707  27.633  41.561   5.555
10323POPC   PO460708  27.559  41.533   5.855
10323POPC   GL160709  27.624  41.516   6.155
10323POPC   GL260710  27.552  41.472   6.155
10323POPC   C1A60711  27.623  41.598   6.455
10323POPC   D2A60712  27.618  41.540   6.755
10323POPC   C3A60713  27.551  41.572   7.055
10323POPC   C4A60714  27.612  41.530   7.355
10323POPC   C1B60715  27.429  41.343   6.455
10323POPC   C2B60716  27.424  41.346   6.755
10323POPC   C3B60717  27.421  41.310   7.055
10323POPC   C4B60718  27.491  41.382   7.355
10324POPC   NC360719  26.802  43.141   5.555
10324POPC   PO460720  26.784  43.096   5.855
10324POPC   GL160721  26.866  43.155   6.155
10324POPC   GL260722  26.740  43.048   6.155
10324POPC   C1A60723  26.805  43.101   6.455
10324POPC   D2A60724  26.846  43.088   6.755
10324POPC   C3A60725  26.775  43.091   7.055
10324POPC   C4A60726  26.812  43.101   7.355
10324POPC   C1B60727  26.615  43.041   6.455
10324POPC   C2B60728  26.579  43.036   6.755
10324POPC   C3B60729  26.526  43.056   7.055
10324POPC   C4B60730  26.554  43.080   7.355
10325POPC   NC360731  28.363  13.578   5.555
10325POPC   PO460732  28.378  13.619   5.855
10325POPC   GL160733  28.339  13.581   6.155
10325POPC   GL260734  28.311  13.521   6.155
10325POPC   C1A60735  28.346  13.606   6.455
10325POPC   D2A60736  28.363  13.600   6.755
10325POPC   C3A60737  28.363  13.609   7.055
10325POPC   C4A60738  28.409  13.621   7.355
10325POPC   C1B60739  28.160  13.423   6.455
10325POPC   C2B60740  28.231  13.435   6.755
10325POPC   C3B60741  28.200  13.460   7.055
10325POPC   C4B60742  28.177  13.471   7.355
10326POPC   NC360743   8.203  21.425   5.555
10326POPC   PO460744   8.196  21.417   5.855
10326POPC   GL160745   8.238  21.419   6.155
10326POPC   GL260746   8.287  21.357   6.155
10326POPC   C1A60747   8.186  21.374   6.455
10326POPC   D2A60748   8.195  21.427   6.755
10326POPC   C3A60749   8.232  21.420   7.055
10326POPC   C4A60750   8.165  21.361   7.355
10326POPC   C1B60751   8.449  21.232   6.455
10326POPC   C2B60752   8.389  21.273   6.755
10326POPC   C3B60753   8.407  21.253   7.055
10326POPC   C4B60754   8.385  21.270   7.355
10327POPC   NC360755   5.859   0.416   5.555
10327POPC   PO460756   5.885   0.449   5.855
10327POPC   GL160757   5.832   0.445   6.155
10327POPC   GL260758   6.036   0.388   6.155
10327POPC   C1A60759   5.827   0.429   6.455
10327POPC   D2A60760   5.865   0.432   6.755
10327POPC   C3A60761   5.902   0.447   7.055
10327POPC   C4A60762   5.838   0.473   7.355
10327POPC   C1B60763   6.070   0.435   6.455
10327POPC   C2B60764   6.104   0.393   6.755
10327POPC   C3B60765   6.155   0.466   7.055
10327POPC   C4B60766   6.166   0.454   7.355
10328POPC   NC360767  26.090  37.713   5.555
10328POPC   PO460768  26.049  37.657   5.855
10328POPC   GL160769  26.080  37.630   6.155
10328POPC   GL260770  26.086  37.592   6.155
10328POPC   C1A60771  26.049  37.728   6.455
10328POPC   D2A60772  26.044  37.636   6.755
10328POPC   C3A60773  26.080  37.675   7.055
10328POPC   C4A60774  26.010  37.659   7.355
10328POPC   C1B60775  26.223  37.438   6.455
10328POPC   C2B60776  26.134  37.429   6.755
10328POPC   C3B60777  26.170  37.426   7.055
10328POPC   C4B60778  26.204  37.488   7.355
10329POPC   NC360779  12.080  43.912   5.555
10329POPC   PO460780  12.034  43.855   5.855
10329POPC   GL160781  12.045  43.878   6.155
10329POPC   GL260782  12.167  43.801   6.155
10329POPC   C1A60783  12.041  43.929   6.455
10329POPC   D2A60784  12.029  43.856   6.755
10329POPC   C3A60785  12.121  43.887   7.055
10329POPC   C4A60786  12.031  43.852   7.355
10329POPC   C1B60787  12.222  43.747   6.455
10329POPC   C2B60788  12.250  43.711   6.755
10329POPC   C3B60789  12.195  43.719   7.055
10329POPC   C4B60790  12.213  43.649   7.355
10330POPC   NC360791  25.292  12.882   5.555
10330POPC   PO460792  25.309  12.829   5.855
10330POPC   GL160793  25.297  12.861   6.155
10330POPC   GL260794  25.365  12.963   6.155
10330POPC   C1A60795  25.313  12.883   6.455
10330POPC   D2A60796  25.228  12.802   6.755
10330POPC   C3A60797  25.250  12.814   7.055
10330POPC   C4A60798  25.243  12.885   7.355
10330POPC   C1B60799  25.491  12.965   6.455
10330POPC   C2B60800  25.427  12.958   6.755
10330POPC   C3B60801  25.460  12.955   7.055
10330POPC   C4B60802  25.455  13.025   7.355
10331POPC   NC360803  36.937  21.420   5.555
10331POPC   PO460804  36.864  21.371   5.855
10331POPC   GL160805  36.927  21.421   6.155
10331POPC   GL260806  36.951  21.268   6.155
10331POPC   C1A60807  36.905  21.378   6.455
10331POPC   D2A60808  36.949  21.414   6.755
10331POPC   C3A60809  36.885  21.345   7.055
10331POPC   C4A60810  36.928  21.396   7.355
10331POPC   C1B60811  37.041  21.179   6.455
10331POPC   C2B60812  37.074  21.220   6.755
10331POPC   C3B60813  37.056  21.131   7.055
10331POPC   C4B60814  37.041  21.160   7.355
10332POPC   NC360815  19.052  33.047   5.555
10332POPC   PO460816  19.098  33.027   5.855
10332POPC   GL160817  19.035  33.054   6.155
10332POPC   GL260818  18.910  33.045   6.155
10332POPC   C1A60819  19.070  33.007   6.455
10332POPC   D2A60820  19.050  32.977   6.755
10332POPC   C3A60821  19.086  33.050   7.055
10332POPC   C4A60822  19.102  33.047   7.355
10332POPC   C1B60823  18.834  33.053   6.455
10332POPC   C2B60824  18.766  33.021   6.755
10332POPC   C3B60825  18.771  33.043   7.055
10332POPC   C4B60826  18.827  33.035   7.355
10333POPC   NC360827  26.775  40.815   5.555
10333POPC   PO460828  26.826  40.753   5.855
10333POPC   GL160829  26.843  40.807   6.155
10333POPC   GL260830  26.813  40.645   6.155
10333POPC   C1A60831  26.784  40.739   6.455
10333POPC   D2A60832  26.818  40.782   6.755
10333POPC   C3A60833  26.823  40.754   7.055
10333POPC   C4A60834  26.811  40.760   7.355
10333POPC   C1B60835  26.790  40.546   6.455
10333POPC   C2B60836  26.760  40.585   6.755
10333POPC   C3B60837  26.759  40.541   7.055
10333POPC   C4B60838  26.728  40.587   7.355
10334POPC   NC360839  20.561  40.797   5.555
10334POPC   PO460840  20.618  40.829   5.855
10334POPC   GL160841  20.651  40.799   6.155
10334POPC   GL260842  20.619  40.929   6.155
10334POPC   C1A60843  20.567  40.792   6.455
10334POPC   D2A60844  20.654  40.802   6.755
10334POPC   C3A60845  20.574  40.756   7.055
10334POPC   C4A60846  20.650  40.739   7.355
10334POPC   C1B60847  20.619  40.993   6.455
10334POPC   C2B60848  20.624  40.993   6.755
10334POPC   C3B60849  20.653  40.984   7.055
10334POPC   C4B60850  20.572  40.988   7.355
10335POPC   NC360851   5.850  42.300   5.555
10335POPC   PO460852   5.914  42.301   5.855
10335POPC   GL160853   5.829  42.346   6.155
10335POPC   GL260854   5.943  42.482   6.155
10335POPC   C1A60855   5.909  42.312   6.455
10335POPC   D2A60856   5.850  42.336   6.755
10335POPC   C3A60857   5.836  42.326   7.055
10335POPC   C4A60858   5.835  42.366   7.355
10335POPC   C1B60859   5.981  42.543   6.455
10335POPC   C2B60860   5.989  42.555   6.755
10335POPC   C3B60861   6.000  42.524   7.055
10335POPC   C4B60862   6.002  42.569   7.355
10336POPC   NC360863  15.212   0.405   5.555
10336POPC   PO460864  15.203   0.409   5.855
10336POPC   GL160865  15.159   0.475   6.155
10336POPC   GL260866  15.229   0.292   6.155
10336POPC   C1A60867  15.196   0.437   6.455
10336POPC   D2A60868  15.220   0.460   6.755
10336POPC   C3A60869  15.166   0.441   7.055
10336POPC   C4A60870  15.201   0.440   7.355
10336POPC   C1B60871  15.218   0.196   6.455
10336POPC   C2B60872  15.265   0.195   6.755
10336POPC   C3B60873  15.240   0.208   7.055
10336POPC   C4B60874  15.208   0.168   7.355
10337POPC   NC360875  15.962  39.191   5.555
10337POPC   PO460876  15.914  39.224   5.855
10337POPC   GL160877  15.949  39.247   6.155
10337POPC   GL260878  16.026  39.379   6.155
10337POPC   C1A60879  15.938  39.247   6.455
10337POPC   D2A60880  15.928  39.211   6.755
10337POPC   C3A60881  15.921  39.201   7.055
10337POPC   C4A60882  15.935  39.197   7.355
10337POPC   C1B60883  16.115  39.467   6.455
10337POPC   C2B60884  16.074  39.429   6.755
10337POPC   C3B60885  16.121  39.481   7.055
10337POPC   C4B60886  16.112  39.474   7.355
10338POPC   NC360887  35.351  40.792   5.555
10338POPC   PO460888  35.342  40.790   5.855
10338POPC   GL160889  35.389  40.752   6.155
10338POPC   GL260890  35.356  40.913   6.155
10338POPC   C1A60891  35.373  40.751   6.455
10338POPC   D2A60892  35.396  40.812   6.755
10338POPC   C3A60893  35.379  40.793   7.055
10338POPC   C4A60894  35.368  40.792   7.355
10338POPC   C1B60895  35.347  41.070   6.455
10338POPC   C2B60896  35.375  41.066   6.755
10338POPC   C3B60897  35.325  40.988   7.055
10338POPC   C4B60898  35.390  41.067   7.355
10339POPC   NC360899  22.127  36.938   5.555
10339POPC   PO460900  22.168  36.861   5.855
10339POPC   GL160901  22.187  36.865   6.155
10339POPC   GL260902  22.174  37.017   6.155
10339POPC   C1A60903  22.145  36.868   6.455
10339POPC   D2A60904  22.115  36.876   6.755
10339POPC   C3A60905  22.129  36.892   7.055
10339POPC   C4A60906  22.167  36.889   7.355
10339POPC   C1B60907  22.125  37.126   6.455
10339POPC   C2B60908  22.068  37.146   6.755
10339POPC   C3B60909  22.103  37.167   7.055
10339POPC   C4B60910  22.159  37.124   7.355
10340POPC   NC360911   5.074  34.580   5.555
10340POPC   PO460912   5.107  34.541   5.855
10340POPC   GL160913   5.060  34.543   6.155
10340POPC   GL260914   4.994  34.528   6.155
10340POPC   C1A60915   5.058  34.596   6.455
10340POPC   D2A60916   5.065  34.593   6.755
10340POPC   C3A60917   5.070  34.614   7.055
10340POPC   C4A60918   5.073  34.562   7.355
10340POPC   C1B60919   4.805  34.488   6.455
10340POPC   C2B60920   4.815  34.560   6.755
10340POPC   C3B60921   4.886  34.560   7.055
10340POPC   C4B60922   4.870  34.542   7.355
10341POPC   NC360923  20.601  31.423   5.555
10341POPC   PO460924  20.623  31.495   5.855
10341POPC   GL160925  20.570  31.519   6.155
10341POPC   GL260926  20.486  31.557   6.155
10341POPC   C1A60927  20.582  31.435   6.455
10341POPC   D2A60928  20.623  31.513   6.755
10341POPC   C3A60929  20.652  31.516   7.055
10341POPC   C4A60930  20.579  31.463   7.355
10341POPC   C1B60931  20.381  31.640   6.455
10341POPC   C2B60932  20.436  31.587   6.755
10341POPC   C3B60933  20.383  31.642   7.055
10341POPC   C4B60934  20.390  31.580   7.355
10342POPC   NC360935  19.873  34.552   5.555
10342POPC   PO460936  19.862  34.537   5.855
10342POPC   GL160937  19.835  34.544   6.155
10342POPC   GL260938  19.960  34.600   6.155
10342POPC   C1A60939  19.798  34.586   6.455
10342POPC   D2A60940  19.876  34.578   6.755
10342POPC   C3A60941  19.868  34.605   7.055
10342POPC   C4A60942  19.831  34.598   7.355
10342POPC   C1B60943  20.099  34.577   6.455
10342POPC   C2B60944  20.116  34.579   6.755
10342POPC   C3B60945  20.117  34.630   7.055
10342POPC   C4B60946  20.103  34.612   7.355
10343POPC   NC360947  19.063  35.312   5.555
10343POPC   PO460948  19.091  35.319   5.855
10343POPC   GL160949  19.028  35.343   6.155
10343POPC   GL260950  19.085  35.452   6.155
10343POPC   C1A60951  19.054  35.377   6.455
10343POPC   D2A60952  19.097  35.351   6.755
10343POPC   C3A60953  19.058  35.368   7.055
10343POPC   C4A60954  19.032  35.388   7.355
10343POPC   C1B60955  19.108  35.585   6.455
10343POPC   C2B60956  19.080  35.601   6.755
10343POPC   C3B60957  19.116  35.637   7.055
10343POPC   C4B60958  19.123  35.642   7.355
10344POPC   NC360959  16.004  36.905   5.555
10344POPC   PO460960  15.912  36.893   5.855
10344POPC   GL160961  15.908  36.888   6.155
10344POPC   GL260962  15.901  36.833   6.155
10344POPC   C1A60963  15.906  36.912   6.455
10344POPC   D2A60964  15.948  36.870   6.755
10344POPC   C3A60965  15.936  36.929   7.055
10344POPC   C4A60966  15.932  36.912   7.355
10344POPC   C1B60967  15.829  36.640   6.455
10344POPC   C2B60968  15.837  36.686   6.755
10344POPC   C3B60969  15.865  36.690   7.055
10344POPC   C4B60970  15.802  36.680   7.355
10345POPC   NC360971  36.083  24.456   5.555
10345POPC   PO460972  36.089  24.440   5.855
10345POPC   GL160973  36.176  24.462   6.155
10345POPC   GL260974  36.230  24.535   6.155
10345POPC   C1A60975  36.122  24.510   6.455
10345POPC   D2A60976  36.087  24.466   6.755
10345POPC   C3A60977  36.155  24.499   7.055
10345POPC   C4A60978  36.081  24.492   7.355
10345POPC   C1B60979  36.347  24.681   6.455
10345POPC   C2B60980  36.325  24.714   6.755
10345POPC   C3B60981  36.301  24.673   7.055
10345POPC   C4B60982  36.262  24.690   7.355
10346POPC   NC360983  11.330  39.245   5.555
10346POPC   PO460984  11.344  39.184   5.855
10346POPC   GL160985  11.251  39.185   6.155
10346POPC   GL260986  11.344  39.302   6.155
10346POPC   C1A60987  11.282  39.275   6.455
10346POPC   D2A60988  11.334  39.240   6.755
10346POPC   C3A60989  11.278  39.192   7.055
10346POPC   C4A60990  11.286  39.266   7.355
10346POPC   C1B60991  11.365  39.454   6.455
10346POPC   C2B60992  11.354  39.502   6.755
10346POPC   C3B60993  11.402  39.470   7.055
10346POPC   C4B60994  11.385  39.519   7.355
10347POPC   NC360995  11.320  43.933   5.555
10347POPC   PO460996  11.283  43.891   5.855
10347POPC   GL160997  11.281  43.841   6.155
10347POPC   GL260998  11.282  43.986   6.155
10347POPC   C1A60999  11.326  43.849   6.455
10347POPC   D2A61000  11.301  43.852   6.755
10347POPC   C3A61001  11.321  43.838   7.055
10347POPC   C4A61002  11.256  43.838   7.355
10347POPC   C1B61003  11.286  44.104   6.455
10347POPC   C2B61004  11.249  44.131   6.755
10347POPC   C3B61005  11.324  44.134   7.055
10347POPC   C4B61006  11.228  44.128   7.355
10348POPC   NC361007   5.884  14.419   5.555
10348POPC   PO461008   5.842  14.428   5.855
10348POPC   GL161009   5.857  14.445   6.155
10348POPC   GL261010   5.783  14.527   6.155
10348POPC   C1A61011   5.850  14.359   6.455
10348POPC   D2A61012   5.828  14.403   6.755
10348POPC   C3A61013   5.826  14.402   7.055
10348POPC   C4A61014   5.880  14.417   7.355
10348POPC   C1B61015   5.703  14.619   6.455
10348POPC   C2B61016   5.740  14.613   6.755
10348POPC   C3B61017   5.733  14.643   7.055
10348POPC   C4B61018   5.704  14.645   7.355
10349POPC   NC361019  12.084   8.928   5.555
10349POPC   PO461020  12.111   8.977   5.855
10349POPC   GL161021  12.110   8.964   6.155
10349POPC   GL261022  12.048   9.035   6.155
10349POPC   C1A61023  12.047   8.939   6.455
10349POPC   D2A61024  12.067   8.933   6.755
10349POPC   C3A61025  12.116   8.998   7.055
10349POPC   C4A61026  12.104   8.990   7.355
10349POPC   C1B61027  11.931   9.162   6.455
10349POPC   C2B61028  11.980   9.184   6.755
10349POPC   C3B61029  11.972   9.155   7.055
10349POPC   C4B61030  11.898   9.232   7.355
10350POPC   NC361031   6.617  38.430   5.555
10350POPC   PO461032   6.609  38.452   5.855
10350POPC   GL161033   6.613  38.497   6.155
10350POPC   GL261034   6.505  38.508   6.155
10350POPC   C1A61035   6.636  38.462   6.455
10350POPC   D2A61036   6.689  38.437   6.755
10350POPC   C3A61037   6.619  38.497   7.055
10350POPC   C4A61038   6.687  38.466   7.355
10350POPC   C1B61039   6.347  38.424   6.455
10350POPC   C2B61040   6.432  38.491   6.755
10350POPC   C3B61041   6.443  38.449   7.055
10350POPC   C4B61042   6.429  38.440   7.355
10351POPC   NC361043  14.388  33.784   5.555
10351POPC   PO461044  14.434  33.847   5.855
10351POPC   GL161045  14.433  33.785   6.155
10351POPC   GL261046  14.322  33.923   6.155
10351POPC   C1A61047  14.439  33.809   6.455
10351POPC   D2A61048  14.446  33.822   6.755
10351POPC   C3A61049  14.365  33.812   7.055
10351POPC   C4A61050  14.383  33.802   7.355
10351POPC   C1B61051  14.258  33.951   6.455
10351POPC   C2B61052  14.264  34.034   6.755
10351POPC   C3B61053  14.216  33.976   7.055
10351POPC   C4B61054  14.196  33.964   7.355
10352POPC   NC361055  33.843  27.574   5.555
10352POPC   PO461056  33.775  27.634   5.855
10352POPC   GL161057  33.750  27.588   6.155
10352POPC   GL261058  33.664  27.700   6.155
10352POPC   C1A61059  33.833  27.560   6.455
10352POPC   D2A61060  33.794  27.597   6.755
10352POPC   C3A61061  33.840  27.595   7.055
10352POPC   C4A61062  33.784  27.594   7.355
10352POPC   C1B61063  33.618  27.724   6.455
10352POPC   C2B61064  33.580  27.802   6.755
10352POPC   C3B61065  33.570  27.732   7.055
10352POPC   C4B61066  33.640  27.803   7.355
10353POPC   NC361067  36.119  17.510   5.555
10353POPC   PO461068  36.164  17.500   5.855
10353POPC   GL161069  36.151  17.506   6.155
10353POPC   GL261070  35.980  17.515   6.155
10353POPC   C1A61071  36.154  17.503   6.455
10353POPC   D2A61072  36.149  17.505   6.755
10353POPC   C3A61073  36.163  17.513   7.055
10353POPC   C4A61074  36.169  17.492   7.355
10353POPC   C1B61075  35.891  17.472   6.455
10353POPC   C2B61076  35.843  17.407   6.755
10353POPC   C3B61077  35.912  17.429   7.055
10353POPC   C4B61078  35.843  17.481   7.355
10354POPC   NC361079  25.301  20.602   5.555
10354POPC   PO461080  25.278  20.644   5.855
10354POPC   GL161081  25.245  20.562   6.155
10354POPC   GL261082  25.194  20.536   6.155
10354POPC   C1A61083  25.222  20.646   6.455
10354POPC   D2A61084  25.315  20.654   6.755
10354POPC   C3A61085  25.283  20.581   7.055
10354POPC   C4A61086  25.291  20.587   7.355
10354POPC   C1B61087  25.184  20.334   6.455
10354POPC   C2B61088  25.151  20.402   6.755
10354POPC   C3B61089  25.162  20.341   7.055
10354POPC   C4B61090  25.222  20.395   7.355
10355POPC   NC361091  10.563  44.655   5.555
10355POPC   PO461092  10.495  44.649   5.855
10355POPC   GL161093  10.475  44.649   6.155
10355POPC   GL261094  10.562  44.615   6.155
10355POPC   C1A61095  10.549  44.674   6.455
10355POPC   D2A61096  10.541  44.627   6.755
10355POPC   C3A61097  10.512  44.629   7.055
10355POPC   C4A61098  10.477  44.688   7.355
10355POPC   C1B61099  10.669  44.496   6.455
10355POPC   C2B61100  10.644  44.449   6.755
10355POPC   C3B61101  10.661  44.502   7.055
10355POPC   C4B61102  10.645  44.504   7.355
10356POPC   NC361103  43.914   4.277   5.555
10356POPC   PO461104  43.931   4.367   5.855
10356POPC   GL161105  43.887   4.339   6.155
10356POPC   GL261106  43.795   4.383   6.155
10356POPC   C1A61107  43.900   4.270   6.455
10356POPC   D2A61108  43.857   4.366   6.755
10356POPC   C3A61109  43.910   4.331   7.055
10356POPC   C4A61110  43.874   4.279   7.355
10356POPC   C1B61111  43.725   4.444   6.455
10356POPC   C2B61112  43.712   4.454   6.755
10356POPC   C3B61113  43.663   4.510   7.055
10356POPC   C4B61114  43.704   4.428   7.355
10357POPC   NC361115  43.079  43.930   5.555
10357POPC   PO461116  43.117  43.930   5.855
10357POPC   GL161117  43.087  43.856   6.155
10357POPC   GL261118  43.067  43.786   6.155
10357POPC   C1A61119  43.143  43.874   6.455
10357POPC   D2A61120  43.131  43.910   6.755
10357POPC   C3A61121  43.110  43.843   7.055
10357POPC   C4A61122  43.086  43.849   7.355
10357POPC   C1B61123  43.021  43.599   6.455
10357POPC   C2B61124  43.096  43.597   6.755
10357POPC   C3B61125  43.088  43.597   7.055
10357POPC   C4B61126  43.099  43.679   7.355
10358POPC   NC361127   0.475  42.343   5.555
10358POPC   PO461128   0.425  42.357   5.855
10358POPC   GL161129   0.424  42.302   6.155
10358POPC   GL261130   0.305  42.363   6.155
10358POPC   C1A61131   0.475  42.350   6.455
10358POPC   D2A61132   0.399  42.346   6.755
10358POPC   C3A61133   0.475  42.333   7.055
10358POPC   C4A61134   0.437  42.305   7.355
10358POPC   C1B61135   0.235  42.493   6.455
10358POPC   C2B61136   0.237  42.472   6.755
10358POPC   C3B61137   0.248  42.494   7.055
10358POPC   C4B61138   0.229  42.448   7.355
10359POPC   NC361139  33.784   2.779   5.555
10359POPC   PO461140  33.834   2.749   5.855
10359POPC   GL161141  33.843   2.734   6.155
10359POPC   GL261142  33.866   2.639   6.155
10359POPC   C1A61143  33.817   2.742   6.455
10359POPC   D2A61144  33.803   2.754   6.755
10359POPC   C3A61145  33.816   2.793   7.055
10359POPC   C4A61146  33.825   2.758   7.355
10359POPC   C1B61147  33.946   2.584   6.455
10359POPC   C2B61148  33.956   2.533   6.755
10359POPC   C3B61149  33.938   2.615   7.055
10359POPC   C4B61150  33.992   2.610   7.355
10360POPC   NC361151  21.400  26.782   5.555
10360POPC   PO461152  21.419  26.781   5.855
10360POPC   GL161153  21.427  26.836   6.155
10360POPC   GL261154  21.260  26.870   6.155
10360POPC   C1A61155  21.351  26.779   6.455
10360POPC   D2A61156  21.361  26.835   6.755
10360POPC   C3A61157  21.405  26.867   7.055
10360POPC   C4A61158  21.417  26.852   7.355
10360POPC   C1B61159  21.137  26.882   6.455
10360POPC   C2B61160  21.145  26.899   6.755
10360POPC   C3B61161  21.201  26.858   7.055
10360POPC   C4B61162  21.163  26.887   7.355
10361POPC   NC361163   9.796  33.782   5.555
10361POPC   PO461164   9.699  33.760   5.855
10361POPC   GL161165   9.784  33.756   6.155
10361POPC   GL261166   9.749  33.938   6.155
10361POPC   C1A61167   9.703  33.784   6.455
10361POPC   D2A61168   9.722  33.828   6.755
10361POPC   C3A61169   9.733  33.827   7.055
10361POPC   C4A61170   9.700  33.793   7.355
10361POPC   C1B61171   9.887  34.001   6.455
10361POPC   C2B61172   9.842  34.065   6.755
10361POPC   C3B61173   9.796  34.021   7.055
10361POPC   C4B61174   9.799  33.990   7.355
10362POPC   NC361175  36.875  34.613   5.555
10362POPC   PO461176  36.932  34.570   5.855
10362POPC   GL161177  36.866  34.528   6.155
10362POPC   GL261178  37.005  34.538   6.155
10362POPC   C1A61179  36.901  34.605   6.455
10362POPC   D2A61180  36.867  34.612   6.755
10362POPC   C3A61181  36.902  34.545   7.055
10362POPC   C4A61182  36.944  34.618   7.355
10362POPC   C1B61183  37.183  34.531   6.455
10362POPC   C2B61184  37.119  34.514   6.755
10362POPC   C3B61185  37.098  34.446   7.055
10362POPC   C4B61186  37.143  34.484   7.355
10363POPC   NC361187  43.108  39.195   5.555
10363POPC   PO461188  43.082  39.221   5.855
10363POPC   GL161189  43.123  39.201   6.155
10363POPC   GL261190  43.146  39.110   6.155
10363POPC   C1A61191  43.096  39.195   6.455
10363POPC   D2A61192  43.086  39.220   6.755
10363POPC   C3A61193  43.075  39.270   7.055
10363POPC   C4A61194  43.120  39.184   7.355
10363POPC   C1B61195  43.215  39.027   6.455
10363POPC   C2B61196  43.262  39.047   6.755
10363POPC   C3B61197  43.214  39.050   7.055
10363POPC   C4B61198  43.198  39.039   7.355
10364POPC   NC361199  27.633  11.313   5.555
10364POPC   PO461200  27.622  11.336   5.855
10364POPC   GL161201  27.617  11.298   6.155
10364POPC   GL261202  27.714  11.310   6.155
10364POPC   C1A61203  27.611  11.276   6.455
10364POPC   D2A61204  27.621  11.346   6.755
10364POPC   C3A61205  27.567  11.276   7.055
10364POPC   C4A61206  27.639  11.251   7.355
10364POPC   C1B61207  27.828  11.335   6.455
10364POPC   C2B61208  27.824  11.322   6.755
10364POPC   C3B61209  27.871  11.269   7.055
10364POPC   C4B61210  27.865  11.338   7.355
10365POPC   NC361211  14.415  28.398   5.555
10365POPC   PO461212  14.358  28.380   5.855
10365POPC   GL161213  14.361  28.405   6.155
10365POPC   GL261214  14.330  28.313   6.155
10365POPC   C1A61215  14.369  28.363   6.455
10365POPC   D2A61216  14.394  28.387   6.755
10365POPC   C3A61217  14.442  28.378   7.055
10365POPC   C4A61218  14.359  28.408   7.355
10365POPC   C1B61219  14.229  28.172   6.455
10365POPC   C2B61220  14.268  28.235   6.755
10365POPC   C3B61221  14.177  28.162   7.055
10365POPC   C4B61222  14.245  28.222   7.355
10366POPC   NC361223  11.312  19.871   5.555
10366POPC   PO461224  11.309  19.856   5.855
10366POPC   GL161225  11.347  19.877   6.155
10366POPC   GL261226  11.269  19.987   6.155
10366POPC   C1A61227  11.282  19.882   6.455
10366POPC   D2A61228  11.279  19.872   6.755
10366POPC   C3A61229  11.335  19.822   7.055
10366POPC   C4A61230  11.301  19.801   7.355
10366POPC   C1B61231  11.210  20.042   6.455
10366POPC   C2B61232  11.283  20.059   6.755
10366POPC   C3B61233  11.204  20.052   7.055
10366POPC   C4B61234  11.270  20.033   7.355
10367POPC   NC361235  41.608  31.503   5.555
10367POPC   PO461236  41.597  31.509   5.855
10367POPC   GL161237  41.539  31.513   6.155
10367POPC   GL261238  41.495  31.388   6.155
10367POPC   C1A61239  41.598  31.455   6.455
10367POPC   D2A61240  41.539  31.476   6.755
10367POPC   C3A61241  41.557  31.455   7.055
10367POPC   C4A61242  41.559  31.505   7.355
10367POPC   C1B61243  41.370  31.304   6.455
10367POPC   C2B61244  41.364  31.273   6.755
10367POPC   C3B61245  41.360  31.281   7.055
10367POPC   C4B61246  41.418  31.322   7.355
10368POPC   NC361247   2.763  30.693   5.555
10368POPC   PO461248   2.725  30.661   5.855
10368POPC   GL161249   2.747  30.650   6.155
10368POPC   GL261250   2.616  30.757   6.155
10368POPC   C1A61251   2.806  30.729   6.455
10368POPC   D2A61252   2.764  30.675   6.755
10368POPC   C3A61253   2.749  30.648   7.055
10368POPC   C4A61254   2.753  30.723   7.355
10368POPC   C1B61255   2.555  30.733   6.455
10368POPC   C2B61256   2.477  30.743   6.755
10368POPC   C3B61257   2.557  30.718   7.055
10368POPC   C4B61258   2.507  30.810   7.355
10369POPC   NC361259  13.652  33.054   5.555
10369POPC   PO461260  13.639  33.060   5.855
10369POPC   GL161261  13.587  33.067   6.155
10369POPC   GL261262  13.673  32.941   6.155
10369POPC   C1A61263  13.585  33.004   6.455
10369POPC   D2A61264  13.588  32.996   6.755
10369POPC   C3A61265  13.629  33.065   7.055
10369POPC   C4A61266  13.630  33.062   7.355
10369POPC   C1B61267  13.753  32.827   6.455
10369POPC   C2B61268  13.758  32.784   6.755
10369POPC   C3B61269  13.707  32.761   7.055
10369POPC   C4B61270  13.739  32.778   7.355
10370POPC   NC361271  39.263  43.912   5.555
10370POPC   PO461272  39.256  43.885   5.855
10370POPC   GL161273  39.183  43.839   6.155
10370POPC   GL261274  39.094  44.011   6.155
10370POPC   C1A61275  39.221  43.838   6.455
10370POPC   D2A61276  39.193  43.866   6.755
10370POPC   C3A61277  39.182  43.853   7.055
10370POPC   C4A61278  39.206  43.871   7.355
10370POPC   C1B61279  39.054  44.090   6.455
10370POPC   C2B61280  39.104  44.021   6.755
10370POPC   C3B61281  39.096  44.090   7.055
10370POPC   C4B61282  39.099  44.054   7.355
10371POPC   NC361283  35.353  22.175   5.555
10371POPC   PO461284  35.316  22.140   5.855
10371POPC   GL161285  35.303  22.172   6.155
10371POPC   GL261286  35.401  22.301   6.155
10371POPC   C1A61287  35.368  22.179   6.455
10371POPC   D2A61288  35.308  22.139   6.755
10371POPC   C3A61289  35.322  22.123   7.055
10371POPC   C4A61290  35.353  22.189   7.355
10371POPC   C1B61291  35.314  22.387   6.455
10371POPC   C2B61292  35.352  22.416   6.755
10371POPC   C3B61293  35.338  22.395   7.055
10371POPC   C4B61294  35.361  22.373   7.355
10372POPC   NC361295  22.178  36.175   5.555
10372POPC   PO461296  22.172  36.160   5.855
10372POPC   GL161297  22.211  36.161   6.155
10372POPC   GL261298  22.279  36.148   6.155
10372POPC   C1A61299  22.137  36.082   6.455
10372POPC   D2A61300  22.166  36.118   6.755
10372POPC   C3A61301  22.199  36.153   7.055
10372POPC   C4A61302  22.199  36.174   7.355
10372POPC   C1B61303  22.390  36.161   6.455
10372POPC   C2B61304  22.430  36.168   6.755
10372POPC   C3B61305  22.391  36.117   7.055
10372POPC   C4B61306  22.444  36.124   7.355
10373POPC   NC361307  28.392   4.364   5.555
10373POPC   PO461308  28.333   4.313   5.855
10373POPC   GL161309  28.382   4.280   6.155
10373POPC   GL261310  28.197   4.365   6.155
10373POPC   C1A61311  28.374   4.362   6.455
10373POPC   D2A61312  28.333   4.302   6.755
10373POPC   C3A61313  28.362   4.354   7.055
10373POPC   C4A61314  28.354   4.274   7.355
10373POPC   C1B61315  28.122   4.331   6.455
10373POPC   C2B61316  28.159   4.312   6.755
10373POPC   C3B61317  28.155   4.370   7.055
10373POPC   C4B61318  28.161   4.304   7.355
10374POPC   NC361319  15.218  17.533   5.555
10374POPC   PO461320  15.158  17.475   5.855
10374POPC   GL161321  15.153  17.531   6.155
10374POPC   GL261322  15.101  17.582   6.155
10374POPC   C1A61323  15.223  17.546   6.455
10374POPC   D2A61324  15.209  17.510   6.755
10374POPC   C3A61325  15.171  17.490   7.055
10374POPC   C4A61326  15.131  17.507   7.355
10374POPC   C1B61327  14.890  17.594   6.455
10374POPC   C2B61328  14.937  17.546   6.755
10374POPC   C3B61329  14.963  17.538   7.055
10374POPC   C4B61330  14.906  17.592   7.355
10375POPC   NC361331  29.172  39.239   5.555
10375POPC   PO461332  29.144  39.228   5.855
10375POPC   GL161333  29.166  39.237   6.155
10375POPC   GL261334  29.091  39.328   6.155
10375POPC   C1A61335  29.167  39.212   6.455
10375POPC   D2A61336  29.135  39.234   6.755
10375POPC   C3A61337  29.098  39.256   7.055
10375POPC   C4A61338  29.180  39.189   7.355
10375POPC   C1B61339  29.030  39.405   6.455
10375POPC   C2B61340  29.064  39.432   6.755
10375POPC   C3B61341  29.033  39.467   7.055
10375POPC   C4B61342  29.024  39.447   7.355
10376POPC   NC361343  24.523  24.535   5.555
10376POPC   PO461344  24.442  24.501   5.855
10376POPC   GL161345  24.522  24.492   6.155
10376POPC   GL261346  24.362  24.553   6.155
10376POPC   C1A61347  24.538  24.507   6.455
10376POPC   D2A61348  24.511  24.510   6.755
10376POPC   C3A61349  24.476  24.532   7.055
10376POPC   C4A61350  24.515  24.508   7.355
10376POPC   C1B61351  24.237  24.556   6.455
10376POPC   C2B61352  24.208  24.492   6.755
10376POPC   C3B61353  24.254  24.509   7.055
10376POPC   C4B61354  24.285  24.572   7.355
10377POPC   NC361355  11.349  38.476   5.555
10377POPC   PO461356  11.344  38.445   5.855
10377POPC   GL161357  11.337  38.440   6.155
10377POPC   GL261358  11.450  38.487   6.155
10377POPC   C1A61359  11.339  38.433   6.455
10377POPC   D2A61360  11.294  38.496   6.755
10377POPC   C3A61361  11.282  38.438   7.055
10377POPC   C4A61362  11.283  38.493   7.355
10377POPC   C1B61363  11.543  38.505   6.455
10377POPC   C2B61364  11.576  38.485   6.755
10377POPC   C3B61365  11.568  38.425   7.055
10377POPC   C4B61366  11.533  38.458   7.355
10378POPC   NC361367  39.237   9.785   5.555
10378POPC   PO461368  39.203   9.728   5.855
10378POPC   GL161369  39.201   9.703   6.155
10378POPC   GL261370  39.138   9.707   6.155
10378POPC   C1A61371  39.183   9.754   6.455
10378POPC   D2A61372  39.203   9.762   6.755
10378POPC   C3A61373  39.215   9.755   7.055
10378POPC   C4A61374  39.247   9.728   7.355
10378POPC   C1B61375  38.948   9.731   6.455
10378POPC   C2B61376  38.960   9.785   6.755
10378POPC   C3B61377  39.030   9.713   7.055
10378POPC   C4B61378  38.987   9.779   7.355
10379POPC   NC361379  13.609  38.464   5.555
10379POPC   PO461380  13.667  38.499   5.855
10379POPC   GL161381  13.652  38.440   6.155
10379POPC   GL261382  13.685  38.382   6.155
10379POPC   C1A61383  13.599  38.424   6.455
10379POPC   D2A61384  13.676  38.453   6.755
10379POPC   C3A61385  13.661  38.495   7.055
10379POPC   C4A61386  13.604  38.500   7.355
10379POPC   C1B61387  13.800  38.327   6.455
10379POPC   C2B61388  13.812  38.251   6.755
10379POPC   C3B61389  13.817  38.253   7.055
10379POPC   C4B61390  13.818  38.245   7.355
10380POPC   NC361391  43.912  12.087   5.555
10380POPC   PO461392  43.898  12.049   5.855
10380POPC   GL161393  43.883  12.096   6.155
10380POPC   GL261394  43.989  12.123   6.155
10380POPC   C1A61395  43.871  12.053   6.455
10380POPC   D2A61396  43.931  12.092   6.755
10380POPC   C3A61397  43.884  12.064   7.055
10380POPC   C4A61398  43.892  12.061   7.355
10380POPC   C1B61399  44.104  12.133   6.455
10380POPC   C2B61400  44.166  12.165   6.755
10380POPC   C3B61401  44.171  12.092   7.055
10380POPC   C4B61402  44.096  12.165   7.355
10381POPC   NC361403  18.238  14.370   5.555
10381POPC   PO461404  18.268  14.385   5.855
10381POPC   GL161405  18.310  14.358   6.155
10381POPC   GL261406  18.235  14.257   6.155
10381POPC   C1A61407  18.326  14.403   6.455
10381POPC   D2A61408  18.316  14.379   6.755
10381POPC   C3A61409  18.309  14.419   7.055
10381POPC   C4A61410  18.254  14.363   7.355
10381POPC   C1B61411  18.241  14.213   6.455
10381POPC   C2B61412  18.208  14.130   6.755
10381POPC   C3B61413  18.208  14.207   7.055
10381POPC   C4B61414  18.198  14.135   7.355
10382POPC   NC361415  29.964  30.742   5.555
10382POPC   PO461416  29.949  30.734   5.855
10382POPC   GL161417  29.882  30.659   6.155
10382POPC   GL261418  29.855  30.770   6.155
10382POPC   C1A61419  29.872  30.668   6.455
10382POPC   D2A61420  29.882  30.715   6.755
10382POPC   C3A61421  29.937  30.712   7.055
10382POPC   C4A61422  29.883  30.721   7.355
10382POPC   C1B61423  29.786  30.906   6.455
10382POPC   C2B61424  29.753  30.932   6.755
10382POPC   C3B61425  29.828  30.943   7.055
10382POPC   C4B61426  29.816  30.936   7.355
10383POPC   NC361427  32.215  26.803   5.555
10383POPC   PO461428  32.273  26.859   5.855
10383POPC   GL161429  32.275  26.828   6.155
10383POPC   GL261430  32.167  26.810   6.155
10383POPC   C1A61431  32.261  26.835   6.455
10383POPC   D2A61432  32.222  26.836   6.755
10383POPC   C3A61433  32.205  26.865   7.055
10383POPC   C4A61434  32.293  26.852   7.355
10383POPC   C1B61435  31.958  26.774   6.455
10383POPC   C2B61436  31.972  26.847   6.755
10383POPC   C3B61437  32.003  26.840   7.055
10383POPC   C4B61438  32.045  26.817   7.355
10384POPC   NC361439  22.956  16.754   5.555
10384POPC   PO461440  22.976  16.739   5.855
10384POPC   GL161441  22.920  16.718   6.155
10384POPC   GL261442  22.997  16.572   6.155
10384POPC   C1A61443  22.987  16.751   6.455
10384POPC   D2A61444  22.911  16.749   6.755
10384POPC   C3A61445  22.913  16.699   7.055
10384POPC   C4A61446  22.925  16.763   7.355
10384POPC   C1B61447  22.946  16.504   6.455
10384POPC   C2B61448  22.976  16.483   6.755
10384POPC   C3B61449  23.006  16.480   7.055
10384POPC   C4B61450  22.988  16.536   7.355
10385POPC   NC361451  36.946  16.692   5.555
10385POPC   PO461452  36.873  16.734   5.855
10385POPC   GL161453  36.944  16.740   6.155
10385POPC   GL261454  36.928  16.612   6.155
10385POPC   C1A61455  36.950  16.773   6.455
10385POPC   D2A61456  36.884  16.741   6.755
10385POPC   C3A61457  36.888  16.728   7.055
10385POPC   C4A61458  36.854  16.760   7.355
10385POPC   C1B61459  37.026  16.462   6.455
10385POPC   C2B61460  37.025  16.529   6.755
10385POPC   C3B61461  37.014  16.482   7.055
10385POPC   C4B61462  37.015  16.483   7.355
10386POPC   NC361463  30.700   5.050   5.555
10386POPC   PO461464  30.713   5.081   5.855
10386POPC   GL161465  30.705   5.071   6.155
10386POPC   GL261466  30.711   5.181   6.155
10386POPC   C1A61467  30.721   5.118   6.455
10386POPC   D2A61468  30.673   5.049   6.755
10386POPC   C3A61469  30.657   5.126   7.055
10386POPC   C4A61470  30.725   5.110   7.355
10386POPC   C1B61471  30.847   5.272   6.455
10386POPC   C2B61472  30.813   5.306   6.755
10386POPC   C3B61473  30.767   5.281   7.055
10386POPC   C4B61474  30.840   5.333   7.355
10387POPC   NC361475  33.030  13.666   5.555
10387POPC   PO461476  33.070  13.624   5.855
10387POPC   GL161477  33.049  13.638   6.155
10387POPC   GL261478  33.070  13.723   6.155
10387POPC   C1A61479  33.074  13.671   6.455
10387POPC   D2A61480  32.993  13.592   6.755
10387POPC   C3A61481  33.051  13.597   7.055
10387POPC   C4A61482  33.071  13.589   7.355
10387POPC   C1B61483  33.086  13.842   6.455
10387POPC   C2B61484  33.026  13.905   6.755
10387POPC   C3B61485  33.036  13.829   7.055
10387POPC   C4B61486  33.114  13.864   7.355
10388POPC   NC361487   8.185  10.536   5.555
10388POPC   PO461488   8.194  10.524   5.855
10388POPC   GL161489   8.206  10.558   6.155
10388POPC   GL261490   8.149  10.435   6.155
10388POPC   C1A61491   8.223  10.521   6.455
10388POPC   D2A61492   8.149  10.533   6.755
10388POPC   C3A61493   8.166  10.533   7.055
10388POPC   C4A61494   8.184  10.560   7.355
10388POPC   C1B61495   8.121  10.270   6.455
10388POPC   C2B61496   8.119  10.282   6.755
10388POPC   C3B61497   8.143  10.247   7.055
10388POPC   C4B61498   8.175  10.249   7.355
10389POPC   NC361499   1.947  12.844   5.555
10389POPC   PO461500   2.012  12.867   5.855
10389POPC   GL161501   2.030  12.851   6.155
10389POPC   GL261502   1.905  12.903   6.155
10389POPC   C1A61503   1.944  12.873   6.455
10389POPC   D2A61504   2.021  12.845   6.755
10389POPC   C3A61505   2.017  12.852   7.055
10389POPC   C4A61506   1.970  12.825   7.355
10389POPC   C1B61507   1.706  12.859   6.455
10389POPC   C2B61508   1.766  12.843   6.755
10389POPC   C3B61509   1.735  12.898   7.055
10389POPC   C4B61510   1.778  12.890   7.355
10390POPC   NC361511  43.913   8.954   5.555
10390POPC   PO461512  43.859   8.978   5.855
10390POPC   GL161513  43.852   8.986   6.155
10390POPC   GL261514  43.970   8.966   6.155
10390POPC   C1A61515  43.854   8.981   6.455
10390POPC   D2A61516  43.840   8.964   6.755
10390POPC   C3A61517  43.868   8.998   7.055
10390POPC   C4A61518  43.915   8.959   7.355
10390POPC   C1B61519  44.085   8.988   6.455
10390POPC   C2B61520  44.166   9.027   6.755
10390POPC   C3B61521  44.089   9.003   7.055
10390POPC   C4B61522  44.107   9.001   7.355
10391POPC   NC361523  32.253  33.044   5.555
10391POPC   PO461524  32.256  33.049   5.855
10391POPC   GL161525  32.236  33.022   6.155
10391POPC   GL261526  32.392  33.004   6.155
10391POPC   C1A61527  32.269  33.044   6.455
10391POPC   D2A61528  32.204  32.995   6.755
10391POPC   C3A61529  32.227  33.004   7.055
10391POPC   C4A61530  32.204  33.008   7.355
10391POPC   C1B61531  32.489  32.927   6.455
10391POPC   C2B61532  32.463  32.857   6.755
10391POPC   C3B61533  32.500  32.903   7.055
10391POPC   C4B61534  32.489  32.910   7.355
10392POPC   NC361535   1.212  17.530   5.555
10392POPC   PO461536   1.229  17.480   5.855
10392POPC   GL161537   1.223  17.486   6.155
10392POPC   GL261538   1.270  17.625   6.155
10392POPC   C1A61539   1.185  17.551   6.455
10392POPC   D2A61540   1.193  17.532   6.755
10392POPC   C3A61541   1.216  17.492   7.055
10392POPC   C4A61542   1.170  17.509   7.355
10392POPC   C1B61543   1.387  17.716   6.455
10392POPC   C2B61544   1.394  17.690   6.755
10392POPC   C3B61545   1.392  17.691   7.055
10392POPC   C4B61546   1.326  17.711   7.355
10393POPC   NC361547  27.604  13.669   5.555
10393POPC   PO461548  27.631  13.644   5.855
10393POPC   GL161549  27.554  13.641   6.155
10393POPC   GL261550  27.703  13.598   6.155
10393POPC   C1A61551  27.642  13.598   6.455
10393POPC   D2A61552  27.557  13.643   6.755
10393POPC   C3A61553  27.572  13.630   7.055
10393POPC   C4A61554  27.635  13.613   7.355
10393POPC   C1B61555  27.839  13.603   6.455
10393POPC   C2B61556  27.823  13.676   6.755
10393POPC   C3B61557  27.883  13.650   7.055
10393POPC   C4B61558  27.865  13.655   7.355
10394POPC   NC361559   9.763  36.938   5.555
10394POPC   PO461560   9.721  36.930   5.855
10394POPC   GL161561   9.775  36.920   6.155
10394POPC   GL261562   9.882  37.001   6.155
10394POPC   C1A61563   9.762  36.875   6.455
10394POPC   D2A61564   9.743  36.946   6.755
10394POPC   C3A61565   9.790  36.854   7.055
10394POPC   C4A61566   9.756  36.910   7.355
10394POPC   C1B61567   9.971  37.007   6.455
10394POPC   C2B61568   9.978  36.992   6.755
10394POPC   C3B61569  10.007  37.048   7.055
10394POPC   C4B61570   9.970  36.992   7.355
10395POPC   NC361571  14.367  41.556   5.555
10395POPC   PO461572  14.398  41.525   5.855
10395POPC   GL161573  14.429  41.529   6.155
10395POPC   GL261574  14.284  41.609   6.155
10395POPC   C1A61575  14.450  41.525   6.455
10395POPC   D2A61576  14.389  41.570   6.755
10395POPC   C3A61577  14.416  41.601   7.055
10395POPC   C4A61578  14.357  41.514   7.355
10395POPC   C1B61579  14.161  41.602   6.455
10395POPC   C2B61580  14.194  41.566   6.755
10395POPC   C3B61581  14.170  41.584   7.055
10395POPC   C4B61582  14.157  41.567   7.355
10396POPC   NC361583   8.980   1.251   5.555
10396POPC   PO461584   9.004   1.252   5.855
10396POPC   GL161585   8.948   1.213   6.155
10396POPC   GL261586   9.057   1.137   6.155
10396POPC   C1A61587   8.928   1.204   6.455
10396POPC   D2A61588   8.984   1.226   6.755
10396POPC   C3A61589   8.965   1.244   7.055
10396POPC   C4A61590   8.990   1.167   7.355
10396POPC   C1B61591   9.194   1.129   6.455
10396POPC   C2B61592   9.222   1.132   6.755
10396POPC   C3B61593   9.219   1.164   7.055
10396POPC   C4B61594   9.193   1.088   7.355
10397POPC   NC361595  17.485  15.999   5.555
10397POPC   PO461596  17.498  15.909   5.855
10397POPC   GL161597  17.553  15.997   6.155
10397POPC   GL261598  17.605  16.030   6.155
10397POPC   C1A61599  17.495  15.963   6.455
10397POPC   D2A61600  17.503  15.997   6.755
10397POPC   C3A61601  17.489  15.935   7.055
10397POPC   C4A61602  17.557  15.987   7.355
10397POPC   C1B61603  17.683  16.062   6.455
10397POPC   C2B61604  17.723  16.078   6.755
10397POPC   C3B61605  17.655  16.141   7.055
10397POPC   C4B61606  17.747  16.071   7.355
10398POPC   NC361607   6.653  29.890   5.555
10398POPC   PO461608   6.604  29.898   5.855
10398POPC   GL161609   6.596  29.928   6.155
10398POPC   GL261610   6.662  30.004   6.155
10398POPC   C1A61611   6.674  29.901   6.455
10398POPC   D2A61612   6.626  29.960   6.755
10398POPC   C3A61613   6.600  29.905   7.055
10398POPC   C4A61614   6.611  29.881   7.355
10398POPC   C1B61615   6.702  30.183   6.455
10398POPC   C2B61616   6.656  30.178   6.755
10398POPC   C3B61617   6.669  30.153   7.055
10398POPC   C4B61618   6.687  30.183   7.355
10399POPC   NC361619  35.364  31.478   5.555
10399POPC   PO461620  35.394  31.497   5.855
10399POPC   GL161621  35.401  31.520   6.155
10399POPC   GL261622  35.434  31.318   6.155
10399POPC   C1A61623  35.309  31.515   6.455
10399POPC   D2A61624  35.382  31.453   6.755
10399POPC   C3A61625  35.354  31.448   7.055
10399POPC   C4A61626  35.395  31.495   7.355
10399POPC   C1B61627  35.459  31.273   6.455
10399POPC   C2B61628  35.480  31.277   6.755
10399POPC   C3B61629  35.490  31.209   7.055
10399POPC   C4B61630  35.490  31.261   7.355
10400POPC   NC361631  24.460  17.492   5.555
10400POPC   PO461632  24.538  17.540   5.855
10400POPC   GL161633  24.487  17.494   6.155
10400POPC   GL261634  24.557  17.596   6.155
10400POPC   C1A61635  24.473  17.537   6.455
10400POPC   D2A61636  24.484  17.549   6.755
10400POPC   C3A61637  24.505  17.499   7.055
10400POPC   C4A61638  24.447  17.553   7.355
10400POPC   C1B61639  24.665  17.716   6.455
10400POPC   C2B61640  24.618  17.701   6.755
10400POPC   C3B61641  24.669  17.758   7.055
10400POPC   C4B61642  24.575  17.757   7.355
10401POPC   NC361643   2.737  21.385   5.555
10401POPC   PO461644   2.798  21.381   5.855
10401POPC   GL161645   2.735  21.415   6.155
10401POPC   GL261646   2.661  21.391   6.155
10401POPC   C1A61647   2.798  21.344   6.455
10401POPC   D2A61648   2.728  21.339   6.755
10401POPC   C3A61649   2.724  21.415   7.055
10401POPC   C4A61650   2.783  21.387   7.355
10401POPC   C1B61651   2.557  21.372   6.455
10401POPC   C2B61652   2.468  21.379   6.755
10401POPC   C3B61653   2.551  21.388   7.055
10401POPC   C4B61654   2.497  21.355   7.355
10402POPC   NC361655   9.761  42.375   5.555
10402POPC   PO461656   9.769  42.342   5.855
10402POPC   GL161657   9.720  42.304   6.155
10402POPC   GL261658   9.814  42.180   6.155
10402POPC   C1A61659   9.743  42.380   6.455
10402POPC   D2A61660   9.741  42.315   6.755
10402POPC   C3A61661   9.745  42.306   7.055
10402POPC   C4A61662   9.728  42.306   7.355
10402POPC   C1B61663   9.824  42.082   6.455
10402POPC   C2B61664   9.884  42.128   6.755
10402POPC   C3B61665   9.886  42.159   7.055
10402POPC   C4B61666   9.833  42.073   7.355
10403POPC   NC361667  23.686  10.513   5.555
10403POPC   PO461668  23.714  10.556   5.855
10403POPC   GL161669  23.752  10.510   6.155
10403POPC   GL261670  23.858  10.507   6.155
10403POPC   C1A61671  23.735  10.507   6.455
10403POPC   D2A61672  23.676  10.522   6.755
10403POPC   C3A61673  23.759  10.540   7.055
10403POPC   C4A61674  23.692  10.554   7.355
10403POPC   C1B61675  23.993  10.422   6.455
10403POPC   C2B61676  23.991  10.437   6.755
10403POPC   C3B61677  23.988  10.461   7.055
10403POPC   C4B61678  23.982  10.424   7.355
10404POPC   NC361679  20.593  36.094   5.555
10404POPC   PO461680  20.635  36.119   5.855
10404POPC   GL161681  20.658  36.110   6.155
10404POPC   GL261682  20.541  35.980   6.155
10404POPC   C1A61683  20.592  36.080   6.455
10404POPC   D2A61684  20.622  36.129   6.755
10404POPC   C3A61685  20.629  36.147   7.055
10404POPC   C4A61686  20.639  36.127   7.355
10404POPC   C1B61687  20.444  35.922   6.455
10404POPC   C2B61688  20.467  35.918   6.755
10404POPC   C3B61689  20.498  35.940   7.055
10404POPC   C4B61690  20.458  35.921   7.355
10405POPC   NC361691   1.971  16.701   5.555
10405POPC   PO461692   1.956  16.735   5.855
10405POPC   GL161693   1.953  16.735   6.155
10405POPC   GL261694   1.973  16.868   6.155
10405POPC   C1A61695   2.030  16.700   6.455
10405POPC   D2A61696   1.940  16.741   6.755
10405POPC   C3A61697   1.983  16.766   7.055
10405POPC   C4A61698   2.018  16.702   7.355
10405POPC   C1B61699   2.070  16.954   6.455
10405POPC   C2B61700   2.027  16.974   6.755
10405POPC   C3B61701   2.013  16.992   7.055
10405POPC   C4B61702   2.058  16.953   7.355
10406POPC   NC361703   0.429  12.862   5.555
10406POPC   PO461704   0.446  12.820   5.855
10406POPC   GL161705   0.395  12.811   6.155
10406POPC   GL261706   0.601  12.931   6.155
10406POPC   C1A61707   0.443  12.848   6.455
10406POPC   D2A61708   0.436  12.893   6.755
10406POPC   C3A61709   0.404  12.821   7.055
10406POPC   C4A61710   0.471  12.830   7.355
10406POPC   C1B61711   0.725  12.932   6.455
10406POPC   C2B61712   0.645  12.927   6.755
10406POPC   C3B61713   0.662  12.876   7.055
10406POPC   C4B61714   0.662  12.920   7.355
10407POPC   NC361715  40.003  11.260   5.555
10407POPC   PO461716  39.977  11.346   5.855
10407POPC   GL161717  39.997  11.264   6.155
10407POPC   GL261718  39.919  11.255   6.155
10407POPC   C1A61719  39.966  11.258   6.455
10407POPC   D2A61720  40.032  11.302   6.755
10407POPC   C3A61721  40.015  11.254   7.055
10407POPC   C4A61722  40.051  11.319   7.355
10407POPC   C1B61723  39.750  11.223   6.455
10407POPC   C2B61724  39.752  11.175   6.755
10407POPC   C3B61725  39.816  11.184   7.055
10407POPC   C4B61726  39.820  11.189   7.355
10408POPC   NC361727  11.304  40.056   5.555
10408POPC   PO461728  11.339  39.992   5.855
10408POPC   GL161729  11.288  40.045   6.155
10408POPC   GL261730  11.359  40.098   6.155
10408POPC   C1A61731  11.291  40.002   6.455
10408POPC   D2A61732  11.333  40.013   6.755
10408POPC   C3A61733  11.274  39.983   7.055
10408POPC   C4A61734  11.274  40.024   7.355
10408POPC   C1B61735  11.474  40.195   6.455
10408POPC   C2B61736  11.463  40.192   6.755
10408POPC   C3B61737  11.503  40.207   7.055
10408POPC   C4B61738  11.456  40.206   7.355
10409POPC   NC361739  12.893   8.192   5.555
10409POPC   PO461740  12.815   8.177   5.855
10409POPC   GL161741  12.855   8.195   6.155
10409POPC   GL261742  12.792   8.351   6.155
10409POPC   C1A61743  12.864   8.240   6.455
10409POPC   D2A61744  12.813   8.184   6.755
10409POPC   C3A61745  12.879   8.221   7.055
10409POPC   C4A61746  12.870   8.242   7.355
10409POPC   C1B61747  12.695   8.400   6.455
10409POPC   C2B61748  12.731   8.409   6.755
10409POPC   C3B61749  12.722   8.436   7.055
10409POPC   C4B61750  12.684   8.453   7.355
10410POPC   NC361751  25.265  22.123   5.555
10410POPC   PO461752  25.239  22.191   5.855
10410POPC   GL161753  25.315  22.187   6.155
10410POPC   GL261754  25.339  22.084   6.155
10410POPC   C1A61755  25.242  22.153   6.455
10410POPC   D2A61756  25.269  22.144   6.755
10410POPC   C3A61757  25.243  22.117   7.055
10410POPC   C4A61758  25.297  22.171   7.355
10410POPC   C1B61759  25.553  22.123   6.455
10410POPC   C2B61760  25.488  22.116   6.755
10410POPC   C3B61761  25.467  22.115   7.055
10410POPC   C4B61762  25.481  22.100   7.355
10411POPC   NC361763   9.767   8.999   5.555
10411POPC   PO461764   9.701   9.003   5.855
10411POPC   GL161765   9.778   8.991   6.155
10411POPC   GL261766   9.780   9.037   6.155
10411POPC   C1A61767   9.745   8.946   6.455
10411POPC   D2A61768   9.745   8.934   6.755
10411POPC   C3A61769   9.762   8.937   7.055
10411POPC   C4A61770   9.707   8.931   7.355
10411POPC   C1B61771   9.907   9.152   6.455
10411POPC   C2B61772   9.853   9.144   6.755
10411POPC   C3B61773   9.935   9.129   7.055
10411POPC   C4B61774   9.886   9.193   7.355
10412POPC   NC361775  19.869  27.585   5.555
10412POPC   PO461776  19.863  27.598   5.855
10412POPC   GL161777  19.875  27.592   6.155
10412POPC   GL261778  19.894  27.702   6.155
10412POPC   C1A61779  19.836  27.623   6.455
10412POPC   D2A61780  19.810  27.588   6.755
10412POPC   C3A61781  19.852  27.601   7.055
10412POPC   C4A61782  19.874  27.616   7.355
10412POPC   C1B61783  19.968  27.797   6.455
10412POPC   C2B61784  19.900  27.839   6.755
10412POPC   C3B61785  19.977  27.860   7.055
10412POPC   C4B61786  19.898  27.774   7.355
10413POPC   NC361787  22.185   9.733   5.555
10413POPC   PO461788  22.184   9.724   5.855
10413POPC   GL161789  22.172   9.790   6.155
10413POPC   GL261790  22.029   9.772   6.155
10413POPC   C1A61791  22.199   9.790   6.455
10413POPC   D2A61792  22.183   9.714   6.755
10413POPC   C3A61793  22.192   9.700   7.055
10413POPC   C4A61794  22.210   9.786   7.355
10413POPC   C1B61795  21.897   9.908   6.455
10413POPC   C2B61796  21.934   9.888   6.755
10413POPC   C3B61797  21.919   9.852   7.055
10413POPC   C4B61798  21.951   9.823   7.355
10414POPC   NC361799  36.856  24.449   5.555
10414POPC   PO461800  36.919  24.468   5.855
10414POPC   GL161801  36.904  24.460   6.155
10414POPC   GL261802  36.965  24.443   6.155
10414POPC   C1A61803  36.864  24.484   6.455
10414POPC   D2A61804  36.916  24.467   6.755
10414POPC   C3A61805  36.887  24.495   7.055
10414POPC   C4A61806  36.938  24.453   7.355
10414POPC   C1B61807  37.112  24.314   6.455
10414POPC   C2B61808  37.085  24.341   6.755
10414POPC   C3B61809  37.118  24.276   7.055
10414POPC   C4B61810  37.098  24.333   7.355
10415POPC   NC361811   5.127  24.480   5.555
10415POPC   PO461812   5.087  24.447   5.855
10415POPC   GL161813   5.069  24.501   6.155
10415POPC   GL261814   5.200  24.436   6.155
10415POPC   C1A61815   5.070  24.530   6.455
10415POPC   D2A61816   5.095  24.525   6.755
10415POPC   C3A61817   5.115  24.458   7.055
10415POPC   C4A61818   5.134  24.452   7.355
10415POPC   C1B61819   5.321  24.316   6.455
10415POPC   C2B61820   5.252  24.325   6.755
10415POPC   C3B61821   5.278  24.354   7.055
10415POPC   C4B61822   5.343  24.390   7.355
10416POPC   NC361823  19.837  40.738   5.555
10416POPC   PO461824  19.811  40.778   5.855
10416POPC   GL161825  19.868  40.772   6.155
10416POPC   GL261826  19.838  40.931   6.155
10416POPC   C1A61827  19.829  40.775   6.455
10416POPC   D2A61828  19.786  40.750   6.755
10416POPC   C3A61829  19.846  40.824   7.055
10416POPC   C4A61830  19.836  40.760   7.355
10416POPC   C1B61831  19.952  41.042   6.455
10416POPC   C2B61832  19.930  40.974   6.755
10416POPC   C3B61833  19.903  40.971   7.055
10416POPC   C4B61834  19.932  41.063   7.355
10417POPC   NC361835  31.501  31.468   5.555
10417POPC   PO461836  31.492  31.449   5.855
10417POPC   GL161837  31.495  31.454   6.155
10417POPC   GL261838  31.462  31.341   6.155
10417POPC   C1A61839  31.509  31.475   6.455
10417POPC   D2A61840  31.514  31.503   6.755
10417POPC   C3A61841  31.428  31.478   7.055
10417POPC   C4A61842  31.461  31.497   7.355
10417POPC   C1B61843  31.398  31.221   6.455
10417POPC   C2B61844  31.457  31.191   6.755
10417POPC   C3B61845  31.373  31.214   7.055
10417POPC   C4B61846  31.423  31.187   7.355
10418POPC   NC361847  25.274  34.621   5.555
10418POPC   PO461848  25.306  34.612   5.855
10418POPC   GL161849  25.254  34.538   6.155
10418POPC   GL261850  25.124  34.547   6.155
10418POPC   C1A61851  25.311  34.592   6.455
10418POPC   D2A61852  25.230  34.606   6.755
10418POPC   C3A61853  25.296  34.592   7.055
10418POPC   C4A61854  25.233  34.541   7.355
10418POPC   C1B61855  24.991  34.546   6.455
10418POPC   C2B61856  24.998  34.567   6.755
10418POPC   C3B61857  25.034  34.499   7.055
10418POPC   C4B61858  25.064  34.506   7.355
10419POPC   NC361859  43.906   3.530   5.555
10419POPC   PO461860  43.856   3.587   5.855
10419POPC   GL161861  43.900   3.507   6.155
10419POPC   GL261862  43.972   3.673   6.155
10419POPC   C1A61863  43.840   3.575   6.455
10419POPC   D2A61864  43.900   3.543   6.755
10419POPC   C3A61865  43.922   3.529   7.055
10419POPC   C4A61866  43.885   3.516   7.355
10419POPC   C1B61867  44.020   3.765   6.455
10419POPC   C2B61868  43.958   3.756   6.755
10419POPC   C3B61869  44.001   3.743   7.055
10419POPC   C4B61870  43.991   3.739   7.355
10420POPC   NC361871  26.810  22.982   5.555
10420POPC   PO461872  26.847  22.953   5.855
10420POPC   GL161873  26.812  22.965   6.155
10420POPC   GL261874  26.964  22.943   6.155
10420POPC   C1A61875  26.786  22.931   6.455
10420POPC   D2A61876  26.848  22.939   6.755
10420POPC   C3A61877  26.815  22.972   7.055
10420POPC   C4A61878  26.799  22.984   7.355
10420POPC   C1B61879  27.060  22.948   6.455
10420POPC   C2B61880  27.094  22.967   6.755
10420POPC   C3B61881  27.054  22.928   7.055
10420POPC   C4B61882  27.075  22.964   7.355
10421POPC   NC361883  33.065  15.918   5.555
10421POPC   PO461884  33.051  15.989   5.855
10421POPC   GL161885  33.028  15.936   6.155
10421POPC   GL261886  33.108  15.983   6.155
10421POPC   C1A61887  33.005  15.928   6.455
10421POPC   D2A61888  33.072  15.942   6.755
10421POPC   C3A61889  33.044  15.993   7.055
10421POPC   C4A61890  33.072  15.922   7.355
10421POPC   C1B61891  33.257  16.087   6.455
10421POPC   C2B61892  33.278  16.081   6.755
10421POPC   C3B61893  33.244  16.053   7.055
10421POPC   C4B61894  33.298  15.992   7.355
10422POPC   NC361895  29.185  19.066   5.555
10422POPC   PO461896  29.117  19.023   5.855
10422POPC   GL161897  29.177  19.100   6.155
10422POPC   GL261898  29.100  18.976   6.155
10422POPC   C1A61899  29.122  19.024   6.455
10422POPC   D2A61900  29.114  19.014   6.755
10422POPC   C3A61901  29.187  19.068   7.055
10422POPC   C4A61902  29.121  19.040   7.355
10422POPC   C1B61903  29.093  18.814   6.455
10422POPC   C2B61904  29.080  18.829   6.755
10422POPC   C3B61905  29.016  18.848   7.055
10422POPC   C4B61906  29.057  18.860   7.355
10423POPC   NC361907  36.936  22.174   5.555
10423POPC   PO461908  36.890  22.208   5.855
10423POPC   GL161909  36.924  22.208   6.155
10423POPC   GL261910  36.784  22.222   6.155
10423POPC   C1A61911  36.909  22.194   6.455
10423POPC   D2A61912  36.917  22.184   6.755
10423POPC   C3A61913  36.873  22.166   7.055
10423POPC   C4A61914  36.867  22.177   7.355
10423POPC   C1B61915  36.718  22.237   6.455
10423POPC   C2B61916  36.681  22.313   6.755
10423POPC   C3B61917  36.667  22.310   7.055
10423POPC   C4B61918  36.719  22.250   7.355
10424POPC   NC361919   9.019   8.971   5.555
10424POPC   PO461920   8.932   8.992   5.855
10424POPC   GL161921   8.962   9.019   6.155
10424POPC   GL261922   8.907   8.887   6.155
10424POPC   C1A61923   8.927   8.964   6.455
10424POPC   D2A61924   9.010   8.951   6.755
10424POPC   C3A61925   8.945   8.979   7.055
10424POPC   C4A61926   9.003   8.948   7.355
10424POPC   C1B61927   8.814   8.774   6.455
10424POPC   C2B61928   8.771   8.829   6.755
10424POPC   C3B61929   8.827   8.774   7.055
10424POPC   C4B61930   8.798   8.781   7.355
10425POPC   NC361931  26.005   9.702   5.555
10425POPC   PO461932  26.037   9.700   5.855
10425POPC   GL161933  26.053   9.778   6.155
10425POPC   GL261934  25.998   9.867   6.155
10425POPC   C1A61935  26.046   9.723   6.455
10425POPC   D2A61936  26.038   9.734   6.755
10425POPC   C3A61937  26.089   9.713   7.055
10425POPC   C4A61938  26.047   9.727   7.355
10425POPC   C1B61939  25.990   9.972   6.455
10425POPC   C2B61940  25.960   9.977   6.755
10425POPC   C3B61941  25.972  10.024   7.055
10425POPC   C4B61942  26.002   9.955   7.355
10426POPC   NC361943  31.505   3.554   5.555
10426POPC   PO461944  31.482   3.541   5.855
10426POPC   GL161945  31.513   3.566   6.155
10426POPC   GL261946  31.463   3.386   6.155
10426POPC   C1A61947  31.476   3.525   6.455
10426POPC   D2A61948  31.507   3.569   6.755
10426POPC   C3A61949  31.480   3.497   7.055
10426POPC   C4A61950  31.481   3.560   7.355
10426POPC   C1B61951  31.392   3.259   6.455
10426POPC   C2B61952  31.397   3.316   6.755
10426POPC   C3B61953  31.377   3.331   7.055
10426POPC   C4B61954  31.439   3.312   7.355
10427POPC   NC361955   2.028  20.634   5.555
10427POPC   PO461956   1.960  20.643   5.855
10427POPC   GL161957   1.961  20.585   6.155
10427POPC   GL261958   1.914  20.518   6.155
10427POPC   C1A61959   2.011  20.614   6.455
10427POPC   D2A61960   2.014  20.583   6.755
10427POPC   C3A61961   2.015  20.608   7.055
10427POPC   C4A61962   1.984  20.627   7.355
10427POPC   C1B61963   1.823  20.395   6.455
10427POPC   C2B61964   1.885  20.397   6.755
10427POPC   C3B61965   1.881  20.365   7.055
10427POPC   C4B61966   1.836  20.344   7.355
10428POPC   NC361967   9.761  28.366   5.555
10428POPC   PO461968   9.789  28.409   5.855
10428POPC   GL161969   9.775  28.360   6.155
10428POPC   GL261970   9.666  28.300   6.155
10428POPC   C1A61971   9.731  28.374   6.455
10428POPC   D2A61972   9.757  28.367   6.755
10428POPC   C3A61973   9.722  28.396   7.055
10428POPC   C4A61974   9.714  28.405   7.355
10428POPC   C1B61975   9.677  28.131   6.455
10428POPC   C2B61976   9.683  28.173   6.755
10428POPC   C3B61977   9.628  28.146   7.055
10428POPC   C4B61978   9.670  28.143   7.355
10429POPC   NC361979  29.935  38.501   5.555
10429POPC   PO461980  29.939  38.457   5.855
10429POPC   GL161981  29.946  38.476   6.155
10429POPC   GL261982  29.772  38.487   6.155
10429POPC   C1A61983  29.875  38.474   6.455
10429POPC   D2A61984  29.891  38.484   6.755
10429POPC   C3A61985  29.898  38.420   7.055
10429POPC   C4A61986  29.930  38.451   7.355
10429POPC   C1B61987  29.712  38.403   6.455
10429POPC   C2B61988  29.715  38.372   6.755
10429POPC   C3B61989  29.679  38.414   7.055
10429POPC   C4B61990  29.698  38.446   7.355
10430POPC   NC361991  19.800   1.177   5.555
10430POPC   PO461992  19.877   1.245   5.855
10430POPC   GL161993  19.819   1.168   6.155
10430POPC   GL261994  19.946   1.179   6.155
10430POPC   C1A61995  19.879   1.236   6.455
10430POPC   D2A61996  19.883   1.258   6.755
10430POPC   C3A61997  19.878   1.228   7.055
10430POPC   C4A61998  19.836   1.242   7.355
10430POPC   C1B61999  20.078   1.205   6.455
10430POPC   C2B62000  20.055   1.215   6.755
10430POPC   C3B62001  20.081   1.216   7.055
10430POPC   C4B62002  20.100   1.279   7.355
10431POPC   NC362003  11.261  16.759   5.555
10431POPC   PO462004  11.299  16.771   5.855
10431POPC   GL162005  11.299  16.696   6.155
10431POPC   GL262006  11.223  16.828   6.155
10431POPC   C1A62007  11.273  16.746   6.455
10431POPC   D2A62008  11.348  16.758   6.755
10431POPC   C3A62009  11.282  16.773   7.055
10431POPC   C4A62010  11.256  16.755   7.355
10431POPC   C1B62011  11.106  16.966   6.455
10431POPC   C2B62012  11.109  16.965   6.755
10431POPC   C3B62013  11.194  16.904   7.055
10431POPC   C4B62014  11.187  16.923   7.355
10432POPC   NC362015  39.185   1.205   5.555
10432POPC   PO462016  39.197   1.172   5.855
10432POPC   GL162017  39.267   1.195   6.155
10432POPC   GL262018  39.246   1.138   6.155
10432POPC   C1A62019  39.213   1.196   6.455
10432POPC   D2A62020  39.191   1.166   6.755
10432POPC   C3A62021  39.278   1.194   7.055
10432POPC   C4A62022  39.199   1.216   7.355
10432POPC   C1B62023  39.137   0.994   6.455
10432POPC   C2B62024  39.212   0.998   6.755
10432POPC   C3B62025  39.160   1.012   7.055
10432POPC   C4B62026  39.235   0.978   7.355
10433POPC   NC362027   3.526  38.447   5.555
10433POPC   PO462028   3.536  38.422   5.855
10433POPC   GL162029   3.502  38.490   6.155
10433POPC   GL262030   3.604  38.538   6.155
10433POPC   C1A62031   3.515  38.406   6.455
10433POPC   D2A62032   3.569  38.467   6.755
10433POPC   C3A62033   3.549  38.444   7.055
10433POPC   C4A62034   3.496  38.453   7.355
10433POPC   C1B62035   3.567  38.668   6.455
10433POPC   C2B62036   3.576  38.747   6.755
10433POPC   C3B62037   3.617  38.689   7.055
10433POPC   C4B62038   3.564  38.743   7.355
10434POPC   NC362039  20.566  10.549   5.555
10434POPC   PO462040  20.593  10.485   5.855
10434POPC   GL162041  20.580  10.488   6.155
10434POPC   GL262042  20.772  10.452   6.155
10434POPC   C1A62043  20.583  10.497   6.455
10434POPC   D2A62044  20.569  10.502   6.755
10434POPC   C3A62045  20.642  10.553   7.055
10434POPC   C4A62046  20.587  10.551   7.355
10434POPC   C1B62047  20.799  10.414   6.455
10434POPC   C2B62048  20.827  10.449   6.755
10434POPC   C3B62049  20.878  10.392   7.055
10434POPC   C4B62050  20.798  10.453   7.355
10435POPC   NC362051  10.550  20.590   5.555
10435POPC   PO462052  10.488  20.622   5.855
10435POPC   GL162053  10.521  20.577   6.155
10435POPC   GL262054  10.399  20.520   6.155
10435POPC   C1A62055  10.478  20.632   6.455
10435POPC   D2A62056  10.550  20.646   6.755
10435POPC   C3A62057  10.553  20.572   7.055
10435POPC   C4A62058  10.540  20.589   7.355
10435POPC   C1B62059  10.273  20.474   6.455
10435POPC   C2B62060  10.327  20.455   6.755
10435POPC   C3B62061  10.306  20.478   7.055
10435POPC   C4B62062  10.314  20.437   7.355
10436POPC   NC362063  22.122  13.632   5.555
10436POPC   PO462064  22.134  13.601   5.855
10436POPC   GL162065  22.178  13.677   6.155
10436POPC   GL262066  22.297  13.687   6.155
10436POPC   C1A62067  22.196  13.587   6.455
10436POPC   D2A62068  22.148  13.625   6.755
10436POPC   C3A62069  22.205  13.657   7.055
10436POPC   C4A62070  22.205  13.671   7.355
10436POPC   C1B62071  22.394  13.697   6.455
10436POPC   C2B62072  22.428  13.697   6.755
10436POPC   C3B62073  22.454  13.626   7.055
10436POPC   C4B62074  22.397  13.623   7.355
10437POPC   NC362075  26.088  17.498   5.555
10437POPC   PO462076  26.064  17.502   5.855
10437POPC   GL162077  26.027  17.546   6.155
10437POPC   GL262078  26.069  17.625   6.155
10437POPC   C1A62079  26.010  17.535   6.455
10437POPC   D2A62080  26.090  17.480   6.755
10437POPC   C3A62081  26.001  17.552   7.055
10437POPC   C4A62082  26.077  17.469   7.355
10437POPC   C1B62083  26.087  17.722   6.455
10437POPC   C2B62084  26.100  17.775   6.755
10437POPC   C3B62085  26.137  17.796   7.055
10437POPC   C4B62086  26.148  17.797   7.355
10438POPC   NC362087  38.409   0.458   5.555
10438POPC   PO462088  38.466   0.449   5.855
10438POPC   GL162089  38.495   0.444   6.155
10438POPC   GL262090  38.482   0.582   6.155
10438POPC   C1A62091  38.505   0.481   6.455
10438POPC   D2A62092  38.443   0.441   6.755
10438POPC   C3A62093  38.444   0.418   7.055
10438POPC   C4A62094  38.468   0.450   7.355
10438POPC   C1B62095  38.371   0.697   6.455
10438POPC   C2B62096  38.449   0.727   6.755
10438POPC   C3B62097  38.399   0.705   7.055
10438POPC   C4B62098  38.369   0.655   7.355
10439POPC   NC362099  31.453  19.791   5.555
10439POPC   PO462100  31.505  19.815   5.855
10439POPC   GL162101  31.445  19.870   6.155
10439POPC   GL262102  31.339  19.852   6.155
10439POPC   C1A62103  31.449  19.802   6.455
10439POPC   D2A62104  31.477  19.879   6.755
10439POPC   C3A62105  31.474  19.842   7.055
10439POPC   C4A62106  31.454  19.788   7.355
10439POPC   C1B62107  31.250  19.834   6.455
10439POPC   C2B62108  31.203  19.834   6.755
10439POPC   C3B62109  31.271  19.814   7.055
10439POPC   C4B62110  31.230  19.788   7.355
10440POPC   NC362111  15.188  36.152   5.555
10440POPC   PO462112  15.205  36.095   5.855
10440POPC   GL162113  15.163  36.120   6.155
10440POPC   GL262114  15.243  36.021   6.155
10440POPC   C1A62115  15.155  36.157   6.455
10440POPC   D2A62116  15.157  36.115   6.755
10440POPC   C3A62117  15.143  36.091   7.055
10440POPC   C4A62118  15.158  36.137   7.355
10440POPC   C1B62119  15.387  35.972   6.455
10440POPC   C2B62120  15.429  36.016   6.755
10440POPC   C3B62121  15.370  36.043   7.055
10440POPC   C4B62122  15.391  35.986   7.355
10441POPC   NC362123  38.472   1.173   5.555
10441POPC   PO462124  38.463   1.187   5.855
10441POPC   GL162125  38.420   1.243   6.155
10441POPC   GL262126  38.510   1.083   6.155
10441POPC   C1A62127  38.467   1.179   6.455
10441POPC   D2A62128  38.476   1.182   6.755
10441POPC   C3A62129  38.447   1.207   7.055
10441POPC   C4A62130  38.493   1.184   7.355
10441POPC   C1B62131  38.566   0.948   6.455
10441POPC   C2B62132  38.498   1.021   6.755
10441POPC   C3B62133  38.509   0.964   7.055
10441POPC   C4B62134  38.507   0.978   7.355
10442POPC   NC362135   9.746  36.128   5.555
10442POPC   PO462136   9.701  36.176   5.855
10442POPC   GL162137   9.734  36.141   6.155
10442POPC   GL262138   9.878  36.144   6.155
10442POPC   C1A62139   9.712  36.139   6.455
10442POPC   D2A62140   9.711  36.120   6.755
10442POPC   C3A62141   9.752  36.168   7.055
10442POPC   C4A62142   9.747  36.102   7.355
10442POPC   C1B62143  10.040  36.168   6.455
10442POPC   C2B62144  10.030  36.151   6.755
10442POPC   C3B62145  10.001  36.149   7.055
10442POPC   C4B62146   9.946  36.219   7.355
10443POPC   NC362147  34.539  19.794   5.555
10443POPC   PO462148  34.596  19.831   5.855
10443POPC   GL162149  34.601  19.822   6.155
10443POPC   GL262150  34.654  19.845   6.155
10443POPC   C1A62151  34.553  19.837   6.455
10443POPC   D2A62152  34.533  19.786   6.755
10443POPC   C3A62153  34.605  19.827   7.055
10443POPC   C4A62154  34.542  19.835   7.355
10443POPC   C1B62155  34.808  19.835   6.455
10443POPC   C2B62156  34.832  19.851   6.755
10443POPC   C3B62157  34.778  19.884   7.055
10443POPC   C4B62158  34.851  19.921   7.355
10444POPC   NC362159  42.307   5.049   5.555
10444POPC   PO462160  42.355   5.087   5.855
10444POPC   GL162161  42.321   5.053   6.155
10444POPC   GL262162  42.464   5.101   6.155
10444POPC   C1A62163  42.325   5.071   6.455
10444POPC   D2A62164  42.294   5.056   6.755
10444POPC   C3A62165  42.341   5.124   7.055
10444POPC   C4A62166  42.367   5.126   7.355
10444POPC   C1B62167  42.570   5.111   6.455
10444POPC   C2B62168  42.591   5.155   6.755
10444POPC   C3B62169  42.600   5.136   7.055
10444POPC   C4B62170  42.618   5.151   7.355
10445POPC   NC362171  11.253   1.989   5.555
10445POPC   PO462172  11.284   1.951   5.855
10445POPC   GL162173  11.314   2.029   6.155
10445POPC   GL262174  11.309   2.120   6.155
10445POPC   C1A62175  11.327   1.949   6.455
10445POPC   D2A62176  11.315   1.962   6.755
10445POPC   C3A62177  11.287   2.001   7.055
10445POPC   C4A62178  11.288   1.988   7.355
10445POPC   C1B62179  11.410   2.263   6.455
10445POPC   C2B62180  11.368   2.255   6.755
10445POPC   C3B62181  11.387   2.208   7.055
10445POPC   C4B62182  11.409   2.266   7.355
10446POPC   NC362183  39.994  16.710   5.555
10446POPC   PO462184  40.027  16.772   5.855
10446POPC   GL162185  40.006  16.735   6.155
10446POPC   GL262186  39.953  16.848   6.155
10446POPC   C1A62187  40.040  16.740   6.455
10446POPC   D2A62188  40.018  16.693   6.755
10446POPC   C3A62189  40.012  16.765   7.055
10446POPC   C4A62190  40.015  16.728   7.355
10446POPC   C1B62191  39.783  16.926   6.455
10446POPC   C2B62192  39.795  16.927   6.755
10446POPC   C3B62193  39.855  16.956   7.055
10446POPC   C4B62194  39.789  16.916   7.355
10447POPC   NC362195  36.097  15.972   5.555
10447POPC   PO462196  36.089  16.002   5.855
10447POPC   GL162197  36.106  15.968   6.155
10447POPC   GL262198  36.058  16.019   6.155
10447POPC   C1A62199  36.169  15.998   6.455
10447POPC   D2A62200  36.127  15.940   6.755
10447POPC   C3A62201  36.104  15.919   7.055
10447POPC   C4A62202  36.099  15.972   7.355
10447POPC   C1B62203  36.033  16.191   6.455
10447POPC   C2B62204  36.008  16.133   6.755
10447POPC   C3B62205  35.986  16.197   7.055
10447POPC   C4B62206  36.039  16.132   7.355
10448POPC   NC362207  10.513   8.985   5.555
10448POPC   PO462208  10.508   8.955   5.855
10448POPC   GL162209  10.536   8.961   6.155
10448POPC   GL262210  10.611   9.036   6.155
10448POPC   C1A62211  10.518   8.942   6.455
10448POPC   D2A62212  10.526   8.925   6.755
10448POPC   C3A62213  10.500   9.018   7.055
10448POPC   C4A62214  10.484   8.986   7.355
10448POPC   C1B62215  10.660   9.137   6.455
10448POPC   C2B62216  10.675   9.109   6.755
10448POPC   C3B62217  10.721   9.160   7.055
10448POPC   C4B62218  10.679   9.155   7.355
10449POPC   NC362219   1.956  43.861   5.555
10449POPC   PO462220   1.973  43.887   5.855
10449POPC   GL162221   1.967  43.925   6.155
10449POPC   GL262222   2.136  43.893   6.155
10449POPC   C1A62223   1.976  43.862   6.455
10449POPC   D2A62224   1.952  43.846   6.755
10449POPC   C3A62225   1.985  43.883   7.055
10449POPC   C4A62226   2.037  43.882   7.355
10449POPC   C1B62227   2.244  43.957   6.455
10449POPC   C2B62228   2.202  43.968   6.755
10449POPC   C3B62229   2.185  43.948   7.055
10449POPC   C4B62230   2.202  43.987   7.355
10450POPC   NC362231   7.372  20.594   5.555
10450POPC   PO462232   7.454  20.568   5.855
10450POPC   GL162233   7.418  20.656   6.155
10450POPC   GL262234   7.328  20.679   6.155
10450POPC   C1A62235   7.422  20.654   6.455
10450POPC   D2A62236   7.394  20.652   6.755
10450POPC   C3A62237   7.377  20.649   7.055
10450POPC   C4A62238   7.381  20.641   7.355
10450POPC   C1B62239   7.189  20.743   6.455
10450POPC   C2B62240   7.216  20.794   6.755
10450POPC   C3B62241   7.173  20.752   7.055
10450POPC   C4B62242   7.201  20.728   7.355
10451POPC   NC362243  27.621  27.552   5.555
10451POPC   PO462244  27.635  27.544   5.855
10451POPC   GL162245  27.636  27.602   6.155
10451POPC   GL262246  27.670  27.528   6.155
10451POPC   C1A62247  27.627  27.611   6.455
10451POPC   D2A62248  27.611  27.599   6.755
10451POPC   C3A62249  27.597  27.602   7.055
10451POPC   C4A62250  27.613  27.566   7.355
10451POPC   C1B62251  27.811  27.448   6.455
10451POPC   C2B62252  27.765  27.372   6.755
10451POPC   C3B62253  27.744  27.416   7.055
10451POPC   C4B62254  27.769  27.410   7.355
10452POPC   NC362255  26.045  15.129   5.555
10452POPC   PO462256  26.071  15.130   5.855
10452POPC   GL162257  26.079  15.216   6.155
10452POPC   GL262258  25.960  15.195   6.155
10452POPC   C1A62259  26.005  15.141   6.455
10452POPC   D2A62260  26.016  15.135   6.755
10452POPC   C3A62261  26.004  15.196   7.055
10452POPC   C4A62262  26.089  15.214   7.355
10452POPC   C1B62263  25.773  15.302   6.455
10452POPC   C2B62264  25.818  15.259   6.755
10452POPC   C3B62265  25.846  15.281   7.055
10452POPC   C4B62266  25.799  15.253   7.355
10453POPC   NC362267  39.242  44.650   5.555
10453POPC   PO462268  39.191  44.690   5.855
10453POPC   GL162269  39.274  44.662   6.155
10453POPC   GL262270  39.375  44.663   6.155
10453POPC   C1A62271  39.218  44.647   6.455
10453POPC   D2A62272  39.195  44.697   6.755
10453POPC   C3A62273  39.219  44.641   7.055
10453POPC   C4A62274  39.266  44.652   7.355
10453POPC   C1B62275  39.521  44.660   6.455
10453POPC   C2B62276  39.517  44.635   6.755
10453POPC   C3B62277  39.453  44.679   7.055
10453POPC   C4B62278  39.485  44.631   7.355
10454POPC   NC362279  10.516  40.825   5.555
10454POPC   PO462280  10.524  40.739   5.855
10454POPC   GL162281  10.549  40.786   6.155
10454POPC   GL262282  10.605  40.796   6.155
10454POPC   C1A62283  10.509  40.777   6.455
10454POPC   D2A62284  10.528  40.790   6.755
10454POPC   C3A62285  10.519  40.805   7.055
10454POPC   C4A62286  10.571  40.779   7.355
10454POPC   C1B62287  10.777  40.797   6.455
10454POPC   C2B62288  10.790  40.871   6.755
10454POPC   C3B62289  10.763  40.884   7.055
10454POPC   C4B62290  10.721  40.796   7.355
10455POPC   NC362291  11.297  17.514   5.555
10455POPC   PO462292  11.303  17.545   5.855
10455POPC   GL162293  11.332  17.550   6.155
10455POPC   GL262294  11.331  17.375   6.155
10455POPC   C1A62295  11.262  17.540   6.455
10455POPC   D2A62296  11.277  17.537   6.755
10455POPC   C3A62297  11.321  17.537   7.055
10455POPC   C4A62298  11.277  17.556   7.355
10455POPC   C1B62299  11.247  17.284   6.455
10455POPC   C2B62300  11.305  17.260   6.755
10455POPC   C3B62301  11.295  17.288   7.055
10455POPC   C4B62302  11.239  17.305   7.355
10456POPC   NC362303   5.846  18.241   5.555
10456POPC   PO462304   5.853  18.255   5.855
10456POPC   GL162305   5.852  18.280   6.155
10456POPC   GL262306   5.892  18.402   6.155
10456POPC   C1A62307   5.868  18.302   6.455
10456POPC   D2A62308   5.846  18.270   6.755
10456POPC   C3A62309   5.860  18.295   7.055
10456POPC   C4A62310   5.850  18.307   7.355
10456POPC   C1B62311   5.896  18.550   6.455
10456POPC   C2B62312   5.879  18.505   6.755
10456POPC   C3B62313   5.850  18.571   7.055
10456POPC   C4B62314   5.867  18.529   7.355
10457POPC   NC362315  20.620  15.961   5.555
10457POPC   PO462316  20.578  15.956   5.855
10457POPC   GL162317  20.570  15.922   6.155
10457POPC   GL262318  20.617  16.106   6.155
10457POPC   C1A62319  20.655  16.001   6.455
10457POPC   D2A62320  20.583  15.970   6.755
10457POPC   C3A62321  20.618  15.936   7.055
10457POPC   C4A62322  20.575  15.988   7.355
10457POPC   C1B62323  20.632  16.220   6.455
10457POPC   C2B62324  20.680  16.158   6.755
10457POPC   C3B62325  20.660  16.172   7.055
10457POPC   C4B62326  20.642  16.197   7.355
10458POPC   NC362327  44.699   0.429   5.555
10458POPC   PO462328  44.622   0.439   5.855
10458POPC   GL162329  44.704   0.423   6.155
10458POPC   GL262330  44.531   0.564   6.155
10458POPC   C1A62331  44.700   0.457   6.455
10458POPC   D2A62332  44.612   0.413   6.755
10458POPC   C3A62333  44.678   0.443   7.055
10458POPC   C4A62334  44.616   0.413   7.355
10458POPC   C1B62335  44.518   0.592   6.455
10458POPC   C2B62336  44.456   0.573   6.755
10458POPC   C3B62337  44.491   0.603   7.055
10458POPC   C4B62338  44.443   0.577   7.355
10459POPC   NC362339   9.763  44.638   5.555
10459POPC   PO462340   9.789  44.709   5.855
10459POPC   GL162341   9.784  44.703   6.155
10459POPC   GL262342   9.664  44.797   6.155
10459POPC   C1A62343   9.707  44.613   6.455
10459POPC   D2A62344   9.763  44.654   6.755
10459POPC   C3A62345   9.786  44.665   7.055
10459POPC   C4A62346   9.723  44.615   7.355
10459POPC   C1B62347   9.604  44.834   6.455
10459POPC   C2B62348   9.618  44.849   6.755
10459POPC   C3B62349   9.619  44.833   7.055
10459POPC   C4B62350   9.539  44.812   7.355
10460POPC   NC362351  37.678   5.888   5.555
10460POPC   PO462352  37.665   5.916   5.855
10460POPC   GL162353  37.680   5.871   6.155
10460POPC   GL262354  37.776   5.807   6.155
10460POPC   C1A62355  37.637   5.833   6.455
10460POPC   D2A62356  37.631   5.890   6.755
10460POPC   C3A62357  37.649   5.882   7.055
10460POPC   C4A62358  37.689   5.885   7.355
10460POPC   C1B62359  37.944   5.794   6.455
10460POPC   C2B62360  37.881   5.759   6.755
10460POPC   C3B62361  37.950   5.724   7.055
10460POPC   C4B62362  37.928   5.766   7.355
10461POPC   NC362363   7.427   1.217   5.555
10461POPC   PO462364   7.409   1.255   5.855
10461POPC   GL162365   7.388   1.182   6.155
10461POPC   GL262366   7.342   1.170   6.155
10461POPC   C1A62367   7.394   1.184   6.455
10461POPC   D2A62368   7.395   1.231   6.755
10461POPC   C3A62369   7.372   1.178   7.055
10461POPC   C4A62370   7.372   1.215   7.355
10461POPC   C1B62371   7.154   1.210   6.455
10461POPC   C2B62372   7.151   1.188   6.755
10461POPC   C3B62373   7.214   1.155   7.055
10461POPC   C4B62374   7.174   1.205   7.355
10462POPC   NC362375   5.057  27.598   5.555
10462POPC   PO462376   5.072  27.632   5.855
10462POPC   GL162377   5.128  27.558   6.155
10462POPC   GL262378   5.212  27.608   6.155
10462POPC   C1A62379   5.140  27.635   6.455
10462POPC   D2A62380   5.140  27.615   6.755
10462POPC   C3A62381   5.105  27.613   7.055
10462POPC   C4A62382   5.064  27.636   7.355
10462POPC   C1B62383   5.301  27.640   6.455
10462POPC   C2B62384   5.381  27.566   6.755
10462POPC   C3B62385   5.329  27.604   7.055
10462POPC   C4B62386   5.390  27.610   7.355
10463POPC   NC362387   6.672  28.393   5.555
10463POPC   PO462388   6.601  28.407   5.855
10463POPC   GL162389   6.644  28.362   6.155
10463POPC   GL262390   6.745  28.314   6.155
10463POPC   C1A62391   6.598  28.345   6.455
10463POPC   D2A62392   6.680  28.344   6.755
10463POPC   C3A62393   6.681  28.384   7.055
10463POPC   C4A62394   6.629  28.383   7.355
10463POPC   C1B62395   6.893  28.351   6.455
10463POPC   C2B62396   6.922  28.283   6.755
10463POPC   C3B62397   6.905  28.311   7.055
10463POPC   C4B62398   6.921  28.369   7.355
10464POPC   NC362399  36.909  17.536   5.555
10464POPC   PO462400  36.905  17.544   5.855
10464POPC   GL162401  36.883  17.521   6.155
10464POPC   GL262402  36.801  17.383   6.155
10464POPC   C1A62403  36.935  17.465   6.455
10464POPC   D2A62404  36.946  17.505   6.755
10464POPC   C3A62405  36.875  17.553   7.055
10464POPC   C4A62406  36.904  17.465   7.355
10464POPC   C1B62407  36.749  17.281   6.455
10464POPC   C2B62408  36.742  17.248   6.755
10464POPC   C3B62409  36.816  17.337   7.055
10464POPC   C4B62410  36.789  17.252   7.355
10465POPC   NC362411  25.246  23.734   5.555
10465POPC   PO462412  25.254  23.698   5.855
10465POPC   GL162413  25.241  23.754   6.155
10465POPC   GL262414  25.391  23.642   6.155
10465POPC   C1A62415  25.298  23.713   6.455
10465POPC   D2A62416  25.301  23.720   6.755
10465POPC   C3A62417  25.232  23.678   7.055
10465POPC   C4A62418  25.300  23.752   7.355
10465POPC   C1B62419  25.525  23.575   6.455
10465POPC   C2B62420  25.482  23.623   6.755
10465POPC   C3B62421  25.482  23.599   7.055
10465POPC   C4B62422  25.467  23.595   7.355
10466POPC   NC362423  10.483   0.418   5.555
10466POPC   PO462424  10.514   0.415   5.855
10466POPC   GL162425  10.573   0.458   6.155
10466POPC   GL262426  10.440   0.471   6.155
10466POPC   C1A62427  10.514   0.426   6.455
10466POPC   D2A62428  10.541   0.424   6.755
10466POPC   C3A62429  10.501   0.410   7.055
10466POPC   C4A62430  10.530   0.403   7.355
10466POPC   C1B62431  10.266   0.496   6.455
10466POPC   C2B62432  10.311   0.539   6.755
10466POPC   C3B62433  10.321   0.503   7.055
10466POPC   C4B62434  10.282   0.564   7.355
10467POPC   NC362435  33.062   0.414   5.555
10467POPC   PO462436  33.056   0.424   5.855
10467POPC   GL162437  33.008   0.409   6.155
10467POPC   GL262438  32.892   0.419   6.155
10467POPC   C1A62439  32.990   0.395   6.455
10467POPC   D2A62440  32.995   0.417   6.755
10467POPC   C3A62441  33.043   0.451   7.055
10467POPC   C4A62442  33.047   0.392   7.355
10467POPC   C1B62443  32.830   0.400   6.455
10467POPC   C2B62444  32.807   0.358   6.755
10467POPC   C3B62445  32.761   0.345   7.055
10467POPC   C4B62446  32.773   0.397   7.355
10468POPC   NC362447  13.636  23.673   5.555
10468POPC   PO462448  13.640  23.693   5.855
10468POPC   GL162449  13.672  23.744   6.155
10468POPC   GL262450  13.757  23.747   6.155
10468POPC   C1A62451  13.616  23.750   6.455
10468POPC   D2A62452  13.588  23.702   6.755
10468POPC   C3A62453  13.639  23.730   7.055
10468POPC   C4A62454  13.673  23.737   7.355
10468POPC   C1B62455  13.881  23.771   6.455
10468POPC   C2B62456  13.840  23.751   6.755
10468POPC   C3B62457  13.911  23.767   7.055
10468POPC   C4B62458  13.883  23.780   7.355
10469POPC   NC362459   5.825  40.020   5.555
10469POPC   PO462460   5.864  39.999   5.855
10469POPC   GL162461   5.875  40.008   6.155
10469POPC   GL262462   5.967  39.908   6.155
10469POPC   C1A62463   5.915  40.049   6.455
10469POPC   D2A62464   5.870  40.054   6.755
10469POPC   C3A62465   5.871  39.983   7.055
10469POPC   C4A62466   5.822  39.957   7.355
10469POPC   C1B62467   6.138  39.886   6.455
10469POPC   C2B62468   6.097  39.882   6.755
10469POPC   C3B62469   6.066  39.860   7.055
10469POPC   C4B62470   6.120  39.882   7.355
10470POPC   NC362471   2.033  21.348   5.555
10470POPC   PO462472   1.995  21.372   5.855
10470POPC   GL162473   1.992  21.420   6.155
10470POPC   GL262474   2.042  21.235   6.155
10470POPC   C1A62475   1.973  21.372   6.455
10470POPC   D2A62476   1.956  21.414   6.755
10470POPC   C3A62477   1.986  21.381   7.055
10470POPC   C4A62478   1.980  21.366   7.355
10470POPC   C1B62479   2.034  21.109   6.455
10470POPC   C2B62480   2.087  21.123   6.755
10470POPC   C3B62481   2.043  21.187   7.055
10470POPC   C4B62482   2.066  21.188   7.355
10471POPC   NC362483   4.293  10.528   5.555
10471POPC   PO462484   4.271  10.541   5.855
10471POPC   GL162485   4.268  10.544   6.155
10471POPC   GL262486   4.375  10.657   6.155
10471POPC   C1A62487   4.331  10.571   6.455
10471POPC   D2A62488   4.358  10.568   6.755
10471POPC   C3A62489   4.308  10.474   7.055
10471POPC   C4A62490   4.363  10.499   7.355
10471POPC   C1B62491   4.352  10.788   6.455
10471POPC   C2B62492   4.365  10.802   6.755
10471POPC   C3B62493   4.353  10.792   7.055
10471POPC   C4B62494   4.429  10.713   7.355
10472POPC   NC362495   1.991  37.683   5.555
10472POPC   PO462496   2.018  37.663   5.855
10472POPC   GL162497   2.030  37.688   6.155
10472POPC   GL262498   2.137  37.740   6.155
10472POPC   C1A62499   1.979  37.629   6.455
10472POPC   D2A62500   2.039  37.654   6.755
10472POPC   C3A62501   1.967  37.665   7.055
10472POPC   C4A62502   2.036  37.639   7.355
10472POPC   C1B62503   2.261  37.769   6.455
10472POPC   C2B62504   2.245  37.760   6.755
10472POPC   C3B62505   2.228  37.788   7.055
10472POPC   C4B62506   2.183  37.824   7.355
10473POPC   NC362507  40.771  28.415   5.555
10473POPC   PO462508  40.797  28.322   5.855
10473POPC   GL162509  40.813  28.382   6.155
10473POPC   GL262510  40.768  28.221   6.155
10473POPC   C1A62511  40.770  28.355   6.455
10473POPC   D2A62512  40.809  28.331   6.755
10473POPC   C3A62513  40.772  28.381   7.055
10473POPC   C4A62514  40.829  28.390   7.355
10473POPC   C1B62515  40.796  28.101   6.455
10473POPC   C2B62516  40.780  28.123   6.755
10473POPC   C3B62517  40.809  28.118   7.055
10473POPC   C4B62518  40.823  28.081   7.355
10474POPC   NC362519  33.058  38.422   5.555
10474POPC   PO462520  32.986  38.425   5.855
10474POPC   GL162521  33.025  38.455   6.155
10474POPC   GL262522  32.960  38.568   6.155
10474POPC   C1A62523  33.004  38.492   6.455
10474POPC   D2A62524  33.044  38.472   6.755
10474POPC   C3A62525  33.032  38.411   7.055
10474POPC   C4A62526  32.993  38.503   7.355
10474POPC   C1B62527  32.896  38.643   6.455
10474POPC   C2B62528  32.891  38.649   6.755
10474POPC   C3B62529  32.965  38.700   7.055
10474POPC   C4B62530  32.974  38.670   7.355
10475POPC   NC362531  10.566  29.926   5.555
10475POPC   PO462532  10.480  29.937   5.855
10475POPC   GL162533  10.550  29.945   6.155
10475POPC   GL262534  10.578  29.823   6.155
10475POPC   C1A62535  10.476  29.939   6.455
10475POPC   D2A62536  10.518  29.895   6.755
10475POPC   C3A62537  10.551  29.969   7.055
10475POPC   C4A62538  10.508  29.871   7.355
10475POPC   C1B62539  10.696  29.710   6.455
10475POPC   C2B62540  10.642  29.697   6.755
10475POPC   C3B62541  10.645  29.733   7.055
10475POPC   C4B62542  10.683  29.756   7.355
10476POPC   NC362543  15.980   0.460   5.555
10476POPC   PO462544  15.987   0.467   5.855
10476POPC   GL162545  16.001   0.470   6.155
10476POPC   GL262546  15.970   0.331   6.155
10476POPC   C1A62547  15.942   0.405   6.455
10476POPC   D2A62548  15.981   0.468   6.755
10476POPC   C3A62549  15.979   0.411   7.055
10476POPC   C4A62550  16.004   0.425   7.355
10476POPC   C1B62551  15.969   0.201   6.455
10476POPC   C2B62552  15.992   0.150   6.755
10476POPC   C3B62553  15.956   0.209   7.055
10476POPC   C4B62554  15.931   0.138   7.355
10477POPC   NC362555  43.855   9.734   5.555
10477POPC   PO462556  43.889   9.732   5.855
10477POPC   GL162557  43.843   9.786   6.155
10477POPC   GL262558  43.956   9.661   6.155
10477POPC   C1A62559  43.916   9.716   6.455
10477POPC   D2A62560  43.908   9.781   6.755
10477POPC   C3A62561  43.883   9.797   7.055
10477POPC   C4A62562  43.845   9.726   7.355
10477POPC   C1B62563  43.961   9.531   6.455
10477POPC   C2B62564  43.999   9.471   6.755
10477POPC   C3B62565  43.971   9.500   7.055
10477POPC   C4B62566  43.966   9.522   7.355
10478POPC   NC362567   8.174  22.987   5.555
10478POPC   PO462568   8.221  22.891   5.855
10478POPC   GL162569   8.242  22.967   6.155
10478POPC   GL262570   8.314  22.999   6.155
10478POPC   C1A62571   8.229  22.929   6.455
10478POPC   D2A62572   8.237  22.980   6.755
10478POPC   C3A62573   8.162  22.889   7.055
10478POPC   C4A62574   8.214  22.905   7.355
10478POPC   C1B62575   8.414  23.050   6.455
10478POPC   C2B62576   8.460  23.040   6.755
10478POPC   C3B62577   8.376  23.077   7.055
10478POPC   C4B62578   8.394  22.996   7.355
10479POPC   NC362579   9.785  24.512   5.555
10479POPC   PO462580   9.791  24.452   5.855
10479POPC   GL162581   9.779  24.475   6.155
10479POPC   GL262582   9.641  24.537   6.155
10479POPC   C1A62583   9.722  24.456   6.455
10479POPC   D2A62584   9.779  24.520   6.755
10479POPC   C3A62585   9.768  24.518   7.055
10479POPC   C4A62586   9.720  24.466   7.355
10479POPC   C1B62587   9.478  24.546   6.455
10479POPC   C2B62588   9.547  24.561   6.755
10479POPC   C3B62589   9.533  24.531   7.055
10479POPC   C4B62590   9.497  24.528   7.355
10480POPC   NC362591   5.086  12.047   5.555
10480POPC   PO462592   5.121  12.098   5.855
10480POPC   GL162593   5.134  12.077   6.155
10480POPC   GL262594   5.189  12.119   6.155
10480POPC   C1A62595   5.090  12.090   6.455
10480POPC   D2A62596   5.078  12.054   6.755
10480POPC   C3A62597   5.096  12.085   7.055
10480POPC   C4A62598   5.087  12.086   7.355
10480POPC   C1B62599   5.328  12.214   6.455
10480POPC   C2B62600   5.292  12.166   6.755
10480POPC   C3B62601   5.290  12.218   7.055
10480POPC   C4B62602   5.287  12.239   7.355
10481POPC   NC362603  22.191  12.873   5.555
10481POPC   PO462604  22.146  12.829   5.855
10481POPC   GL162605  22.183  12.866   6.155
10481POPC   GL262606  22.028  12.776   6.155
10481POPC   C1A62607  22.141  12.839   6.455
10481POPC   D2A62608  22.207  12.867   6.755
10481POPC   C3A62609  22.116  12.895   7.055
10481POPC   C4A62610  22.207  12.888   7.355
10481POPC   C1B62611  21.949  12.718   6.455
10481POPC   C2B62612  21.914  12.704   6.755
10481POPC   C3B62613  21.923  12.716   7.055
10481POPC   C4B62614  21.894  12.724   7.355
10482POPC   NC362615  33.072  36.918   5.555
10482POPC   PO462616  33.017  36.887   5.855
10482POPC   GL162617  33.023  36.949   6.155
10482POPC   GL262618  33.131  36.984   6.155
10482POPC   C1A62619  33.003  36.890   6.455
10482POPC   D2A62620  33.055  36.946   6.755
10482POPC   C3A62621  33.054  36.923   7.055
10482POPC   C4A62622  33.035  36.862   7.355
10482POPC   C1B62623  33.192  37.081   6.455
10482POPC   C2B62624  33.222  37.087   6.755
10482POPC   C3B62625  33.191  37.113   7.055
10482POPC   C4B62626  33.187  37.079   7.355
10483POPC   NC362627  15.942  42.333   5.555
10483POPC   PO462628  15.918  42.289   5.855
10483POPC   GL162629  15.945  42.287   6.155
10483POPC   GL262630  15.804  42.336   6.155
10483POPC   C1A62631  15.951  42.336   6.455
10483POPC   D2A62632  16.001  42.310   6.755
10483POPC   C3A62633  15.972  42.342   7.055
10483POPC   C4A62634  15.950  42.305   7.355
10483POPC   C1B62635  15.738  42.363   6.455
10483POPC   C2B62636  15.668  42.325   6.755
10483POPC   C3B62637  15.699  42.381   7.055
10483POPC   C4B62638  15.665  42.320   7.355
10484POPC   NC362639  30.746  13.589   5.555
10484POPC   PO462640  30.666  13.670   5.855
10484POPC   GL162641  30.687  13.640   6.155
10484POPC   GL262642  30.840  13.661   6.155
10484POPC   C1A62643  30.683  13.627   6.455
10484POPC   D2A62644  30.690  13.588   6.755
10484POPC   C3A62645  30.703  13.629   7.055
10484POPC   C4A62646  30.709  13.585   7.355
10484POPC   C1B62647  30.987  13.658   6.455
10484POPC   C2B62648  30.982  13.671   6.755
10484POPC   C3B62649  30.935  13.721   7.055
10484POPC   C4B62650  30.960  13.717   7.355
10485POPC   NC362651  38.418  30.658   5.555
10485POPC   PO462652  38.464  30.675   5.855
10485POPC   GL162653  38.410  30.731   6.155
10485POPC   GL262654  38.538  30.761   6.155
10485POPC   C1A62655  38.500  30.674   6.455
10485POPC   D2A62656  38.474  30.697   6.755
10485POPC   C3A62657  38.406  30.735   7.055
10485POPC   C4A62658  38.414  30.726   7.355
10485POPC   C1B62659  38.644  30.893   6.455
10485POPC   C2B62660  38.657  30.869   6.755
10485POPC   C3B62661  38.633  30.899   7.055
10485POPC   C4B62662  38.567  30.897   7.355
10486POPC   NC362663  24.507  36.929   5.555
10486POPC   PO462664  24.482  36.858   5.855
10486POPC   GL162665  24.460  36.940   6.155
10486POPC   GL262666  24.558  36.985   6.155
10486POPC   C1A62667  24.452  36.926   6.455
10486POPC   D2A62668  24.517  36.884   6.755
10486POPC   C3A62669  24.475  36.937   7.055
10486POPC   C4A62670  24.488  36.930   7.355
10486POPC   C1B62671  24.698  37.029   6.455
10486POPC   C2B62672  24.672  37.073   6.755
10486POPC   C3B62673  24.689  37.005   7.055
10486POPC   C4B62674  24.693  37.090   7.355
10487POPC   NC362675  32.256  29.951   5.555
10487POPC   PO462676  32.256  29.947   5.855
10487POPC   GL162677  32.270  29.969   6.155
10487POPC   GL262678  32.240  29.755   6.155
10487POPC   C1A62679  32.280  29.965   6.455
10487POPC   D2A62680  32.201  29.920   6.755
10487POPC   C3A62681  32.256  29.895   7.055
10487POPC   C4A62682  32.292  29.931   7.355
10487POPC   C1B62683  32.179  29.715   6.455
10487POPC   C2B62684  32.226  29.683   6.755
10487POPC   C3B62685  32.213  29.720   7.055
10487POPC   C4B62686  32.191  29.673   7.355
10488POPC   NC362687  13.666  16.779   5.555
10488POPC   PO462688  13.669  16.763   5.855
10488POPC   GL162689  13.601  16.739   6.155
10488POPC   GL262690  13.777  16.678   6.155
10488POPC   C1A62691  13.642  16.743   6.455
10488POPC   D2A62692  13.590  16.696   6.755
10488POPC   C3A62693  13.585  16.713   7.055
10488POPC   C4A62694  13.662  16.711   7.355
10488POPC   C1B62695  13.866  16.578   6.455
10488POPC   C2B62696  13.851  16.624   6.755
10488POPC   C3B62697  13.885  16.552   7.055
10488POPC   C4B62698  13.850  16.572   7.355
10489POPC   NC362699  32.990   1.182   5.555
10489POPC   PO462700  33.045   1.185   5.855
10489POPC   GL162701  33.012   1.238   6.155
10489POPC   GL262702  32.999   1.106   6.155
10489POPC   C1A62703  33.060   1.196   6.455
10489POPC   D2A62704  33.015   1.202   6.755
10489POPC   C3A62705  33.016   1.222   7.055
10489POPC   C4A62706  33.070   1.184   7.355
10489POPC   C1B62707  33.077   0.969   6.455
10489POPC   C2B62708  33.100   0.986   6.755
10489POPC   C3B62709  33.079   0.996   7.055
10489POPC   C4B62710  33.073   0.981   7.355
10490POPC   NC362711  32.975  43.117   5.555
10490POPC   PO462712  32.981  43.096   5.855
10490POPC   GL162713  32.984  43.092   6.155
10490POPC   GL262714  33.149  43.254   6.155
10490POPC   C1A62715  33.047  43.145   6.455
10490POPC   D2A62716  33.010  43.145   6.755
10490POPC   C3A62717  32.979  43.144   7.055
10490POPC   C4A62718  33.016  43.066   7.355
10490POPC   C1B62719  33.229  43.250   6.455
10490POPC   C2B62720  33.139  43.265   6.755
10490POPC   C3B62721  33.176  43.288   7.055
10490POPC   C4B62722  33.230  43.258   7.355
10491POPC   NC362723   8.960   0.483   5.555
10491POPC   PO462724   8.995   0.467   5.855
10491POPC   GL162725   8.967   0.455   6.155
10491POPC   GL262726   8.939   0.278   6.155
10491POPC   C1A62727   8.964   0.452   6.455
10491POPC   D2A62728   8.999   0.448   6.755
10491POPC   C3A62729   9.006   0.472   7.055
10491POPC   C4A62730   8.994   0.432   7.355
10491POPC   C1B62731   8.910   0.244   6.455
10491POPC   C2B62732   8.917   0.222   6.755
10491POPC   C3B62733   8.869   0.177   7.055
10491POPC   C4B62734   8.897   0.200   7.355
10492POPC   NC362735  32.983  35.376   5.555
10492POPC   PO462736  33.027  35.359   5.855
10492POPC   GL162737  33.058  35.351   6.155
10492POPC   GL262738  33.117  35.210   6.155
10492POPC   C1A62739  33.037  35.327   6.455
10492POPC   D2A62740  33.020  35.314   6.755
10492POPC   C3A62741  32.997  35.339   7.055
10492POPC   C4A62742  33.011  35.336   7.355
10492POPC   C1B62743  33.107  35.109   6.455
10492POPC   C2B62744  33.132  35.113   6.755
10492POPC   C3B62745  33.138  35.164   7.055
10492POPC   C4B62746  33.106  35.075   7.355
10493POPC   NC362747  36.161  41.608   5.555
10493POPC   PO462748  36.108  41.509   5.855
10493POPC   GL162749  36.167  41.515   6.155
10493POPC   GL262750  36.290  41.620   6.155
10493POPC   C1A62751  36.093  41.527   6.455
10493POPC   D2A62752  36.137  41.526   6.755
10493POPC   C3A62753  36.080  41.602   7.055
10493POPC   C4A62754  36.092  41.548   7.355
10493POPC   C1B62755  36.360  41.656   6.455
10493POPC   C2B62756  36.409  41.586   6.755
10493POPC   C3B62757  36.374  41.664   7.055
10493POPC   C4B62758  36.415  41.652   7.355
10494POPC   NC362759  14.396  42.311   5.555
10494POPC   PO462760  14.378  42.357   5.855
10494POPC   GL162761  14.355  42.295   6.155
10494POPC   GL262762  14.445  42.174   6.155
10494POPC   C1A62763  14.444  42.318   6.455
10494POPC   D2A62764  14.379  42.358   6.755
10494POPC   C3A62765  14.441  42.289   7.055
10494POPC   C4A62766  14.377  42.342   7.355
10494POPC   C1B62767  14.420  42.105   6.455
10494POPC   C2B62768  14.433  42.082   6.755
10494POPC   C3B62769  14.405  42.092   7.055
10494POPC   C4B62770  14.388  42.098   7.355
10495POPC   NC362771   5.873  27.605   5.555
10495POPC   PO462772   5.865  27.609   5.855
10495POPC   GL162773   5.876  27.576   6.155
10495POPC   GL262774   5.991  27.597   6.155
10495POPC   C1A62775   5.819  27.604   6.455
10495POPC   D2A62776   5.843  27.574   6.755
10495POPC   C3A62777   5.819  27.563   7.055
10495POPC   C4A62778   5.863  27.588   7.355
10495POPC   C1B62779   6.066  27.521   6.455
10495POPC   C2B62780   6.081  27.503   6.755
10495POPC   C3B62781   6.068  27.500   7.055
10495POPC   C4B62782   6.157  27.524   7.355
10496POPC   NC362783  22.889  44.656   5.555
10496POPC   PO462784  22.937  44.701   5.855
10496POPC   GL162785  22.981  44.652   6.155
10496POPC   GL262786  22.772  44.631   6.155
10496POPC   C1A62787  22.954  44.622   6.455
10496POPC   D2A62788  22.932  44.689   6.755
10496POPC   C3A62789  22.919  44.642   7.055
10496POPC   C4A62790  22.957  44.647   7.355
10496POPC   C1B62791  22.657  44.661   6.455
10496POPC   C2B62792  22.682  44.650   6.755
10496POPC   C3B62793  22.733  44.673   7.055
10496POPC   C4B62794  22.658  44.643   7.355
10497POPC   NC362795  35.343  21.348   5.555
10497POPC   PO462796  35.374  21.405   5.855
10497POPC   GL162797  35.330  21.431   6.155
10497POPC   GL262798  35.450  21.266   6.155
10497POPC   C1A62799  35.391  21.338   6.455
10497POPC   D2A62800  35.318  21.384   6.755
10497POPC   C3A62801  35.330  21.368   7.055
10497POPC   C4A62802  35.304  21.400   7.355
10497POPC   C1B62803  35.445  21.159   6.455
10497POPC   C2B62804  35.490  21.149   6.755
10497POPC   C3B62805  35.455  21.201   7.055
10497POPC   C4B62806  35.478  21.209   7.355
10498POPC   NC362807   2.758   8.232   5.555
10498POPC   PO462808   2.744   8.225   5.855
10498POPC   GL162809   2.755   8.173   6.155
10498POPC   GL262810   2.757   8.336   6.155
10498POPC   C1A62811   2.750   8.227   6.455
10498POPC   D2A62812   2.762   8.162   6.755
10498POPC   C3A62813   2.746   8.149   7.055
10498POPC   C4A62814   2.733   8.170   7.355
10498POPC   C1B62815   2.728   8.401   6.455
10498POPC   C2B62816   2.713   8.433   6.755
10498POPC   C3B62817   2.781   8.449   7.055
10498POPC   C4B62818   2.732   8.416   7.355
10499POPC   NC362819  36.106  22.184   5.555
10499POPC   PO462820  36.096  22.121   5.855
10499POPC   GL162821  36.120  22.193   6.155
10499POPC   GL262822  35.981  22.213   6.155
10499POPC   C1A62823  36.105  22.195   6.455
10499POPC   D2A62824  36.103  22.132   6.755
10499POPC   C3A62825  36.121  22.173   7.055
10499POPC   C4A62826  36.094  22.207   7.355
10499POPC   C1B62827  35.926  22.289   6.455
10499POPC   C2B62828  35.899  22.282   6.755
10499POPC   C3B62829  35.881  22.233   7.055
10499POPC   C4B62830  35.932  22.283   7.355
10500POPC   NC362831   8.967  33.818   5.555
10500POPC   PO462832   8.925  33.824   5.855
10500POPC   GL162833   8.970  33.753   6.155
10500POPC   GL262834   9.057  33.885   6.155
10500POPC   C1A62835   8.939  33.829   6.455
10500POPC   D2A62836   8.928  33.811   6.755
10500POPC   C3A62837   8.989  33.814   7.055
10500POPC   C4A62838   8.946  33.804   7.355
10500POPC   C1B62839   9.132  34.003   6.455
10500POPC   C2B62840   9.098  34.007   6.755
10500POPC   C3B62841   9.113  34.039   7.055
10500POPC   C4B62842   9.128  34.061   7.355
10501POPC   NC362843   2.806   1.974   5.555
10501POPC   PO462844   2.783   2.027   5.855
10501POPC   GL162845   2.741   2.005   6.155
10501POPC   GL262846   2.631   2.009   6.155
10501POPC   C1A62847   2.723   1.964   6.455
10501POPC   D2A62848   2.728   1.946   6.755
10501POPC   C3A62849   2.766   1.948   7.055
10501POPC   C4A62850   2.761   2.012   7.355
10501POPC   C1B62851   2.483   1.937   6.455
10501POPC   C2B62852   2.531   1.952   6.755
10501POPC   C3B62853   2.477   1.932   7.055
10501POPC   C4B62854   2.520   1.934   7.355
10502POPC   NC362855   9.745  39.258   5.555
10502POPC   PO462856   9.772  39.265   5.855
10502POPC   GL162857   9.794  39.265   6.155
10502POPC   GL262858   9.865  39.266   6.155
10502POPC   C1A62859   9.705  39.244   6.455
10502POPC   D2A62860   9.726  39.234   6.755
10502POPC   C3A62861   9.746  39.240   7.055
10502POPC   C4A62862   9.726  39.184   7.355
10502POPC   C1B62863  10.031  39.307   6.455
10502POPC   C2B62864   9.991  39.304   6.755
10502POPC   C3B62865   9.957  39.322   7.055
10502POPC   C4B62866  10.017  39.261   7.355
10503POPC   NC362867   2.746  11.310   5.555
10503POPC   PO462868   2.812  11.276   5.855
10503POPC   GL162869   2.763  11.328   6.155
10503POPC   GL262870   2.688  11.303   6.155
10503POPC   C1A62871   2.735  11.313   6.455
10503POPC   D2A62872   2.768  11.312   6.755
10503POPC   C3A62873   2.794  11.291   7.055
10503POPC   C4A62874   2.766  11.342   7.355
10503POPC   C1B62875   2.520  11.219   6.455
10503POPC   C2B62876   2.572  11.212   6.755
10503POPC   C3B62877   2.498  11.170   7.055
10503POPC   C4B62878   2.525  11.207   7.355
10504POPC   NC362879  12.104   4.356   5.555
10504POPC   PO462880  12.071   4.282   5.855
10504POPC   GL162881  12.047   4.308   6.155
10504POPC   GL262882  12.169   4.482   6.155
10504POPC   C1A62883  12.072   4.343   6.455
10504POPC   D2A62884  12.069   4.359   6.755
10504POPC   C3A62885  12.081   4.279   7.055
10504POPC   C4A62886  12.104   4.284   7.355
10504POPC   C1B62887  12.183   4.551   6.455
10504POPC   C2B62888  12.161   4.595   6.755
10504POPC   C3B62889  12.190   4.580   7.055
10504POPC   C4B62890  12.150   4.595   7.355
10505POPC   NC362891   5.819   9.735   5.555
10505POPC   PO462892   5.882   9.794   5.855
10505POPC   GL162893   5.867   9.794   6.155
10505POPC   GL262894   5.925   9.888   6.155
10505POPC   C1A62895   5.874   9.776   6.455
10505POPC   D2A62896   5.838   9.747   6.755
10505POPC   C3A62897   5.913   9.757   7.055
10505POPC   C4A62898   5.830   9.724   7.355
10505POPC   C1B62899   5.997  10.014   6.455
10505POPC   C2B62900   5.937   9.977   6.755
10505POPC   C3B62901   5.964  10.009   7.055
10505POPC   C4B62902   5.947   9.979   7.355
10506POPC   NC362903  23.709  15.991   5.555
10506POPC   PO462904  23.679  15.999   5.855
10506POPC   GL162905  23.686  15.911   6.155
10506POPC   GL262906  23.842  15.886   6.155
10506POPC   C1A62907  23.698  15.954   6.455
10506POPC   D2A62908  23.703  15.959   6.755
10506POPC   C3A62909  23.695  15.973   7.055
10506POPC   C4A62910  23.692  15.935   7.355
10506POPC   C1B62911  23.939  15.918   6.455
10506POPC   C2B62912  23.924  15.933   6.755
10506POPC   C3B62913  23.950  15.935   7.055
10506POPC   C4B62914  23.914  15.874   7.355
10507POPC   NC362915  12.883  23.758   5.555
10507POPC   PO462916  12.807  23.677   5.855
10507POPC   GL162917  12.872  23.732   6.155
10507POPC   GL262918  12.714  23.657   6.155
10507POPC   C1A62919  12.862  23.757   6.455
10507POPC   D2A62920  12.881  23.762   6.755
10507POPC   C3A62921  12.814  23.672   7.055
10507POPC   C4A62922  12.858  23.706   7.355
10507POPC   C1B62923  12.710  23.578   6.455
10507POPC   C2B62924  12.657  23.556   6.755
10507POPC   C3B62925  12.688  23.596   7.055
10507POPC   C4B62926  12.696  23.590   7.355
10508POPC   NC362927  21.415   5.086   5.555
10508POPC   PO462928  21.386   5.043   5.855
10508POPC   GL162929  21.345   5.141   6.155
10508POPC   GL262930  21.273   5.029   6.155
10508POPC   C1A62931  21.436   5.099   6.455
10508POPC   D2A62932  21.375   5.128   6.755
10508POPC   C3A62933  21.340   5.140   7.055
10508POPC   C4A62934  21.396   5.063   7.355
10508POPC   C1B62935  21.157   4.968   6.455
10508POPC   C2B62936  21.106   4.964   6.755
10508POPC   C3B62937  21.151   4.982   7.055
10508POPC   C4B62938  21.176   5.046   7.355
10509POPC   NC362939   8.215  25.314   5.555
10509POPC   PO462940   8.229  25.296   5.855
10509POPC   GL162941   8.181  25.290   6.155
10509POPC   GL262942   8.223  25.434   6.155
10509POPC   C1A62943   8.194  25.293   6.455
10509POPC   D2A62944   8.180  25.272   6.755
10509POPC   C3A62945   8.154  25.314   7.055
10509POPC   C4A62946   8.199  25.252   7.355
10509POPC   C1B62947   8.236  25.487   6.455
10509POPC   C2B62948   8.150  25.488   6.755
10509POPC   C3B62949   8.189  25.528   7.055
10509POPC   C4B62950   8.203  25.525   7.355
10510POPC   NC362951  20.563   1.193   5.555
10510POPC   PO462952  20.600   1.256   5.855
10510POPC   GL162953  20.612   1.198   6.155
10510POPC   GL262954  20.544   1.326   6.155
10510POPC   C1A62955  20.602   1.217   6.455
10510POPC   D2A62956  20.595   1.250   6.755
10510POPC   C3A62957  20.647   1.185   7.055
10510POPC   C4A62958  20.593   1.257   7.355
10510POPC   C1B62959  20.517   1.421   6.455
10510POPC   C2B62960  20.471   1.482   6.755
10510POPC   C3B62961  20.468   1.429   7.055
10510POPC   C4B62962  20.477   1.449   7.355
10511POPC   NC362963  32.981  27.591   5.555
10511POPC   PO462964  32.999  27.597   5.855
10511POPC   GL162965  32.987  27.577   6.155
10511POPC   GL262966  33.003  27.718   6.155
10511POPC   C1A62967  33.023  27.548   6.455
10511POPC   D2A62968  32.993  27.565   6.755
10511POPC   C3A62969  33.061  27.639   7.055
10511POPC   C4A62970  33.015  27.630   7.355
10511POPC   C1B62971  33.087  27.798   6.455
10511POPC   C2B62972  33.017  27.838   6.755
10511POPC   C3B62973  33.020  27.853   7.055
10511POPC   C4B62974  33.075  27.886   7.355
10512POPC   NC362975  13.590  10.503   5.555
10512POPC   PO462976  13.628  10.533   5.855
10512POPC   GL162977  13.659  10.543   6.155
10512POPC   GL262978  13.610  10.670   6.155
10512POPC   C1A62979  13.596  10.479   6.455
10512POPC   D2A62980  13.623  10.492   6.755
10512POPC   C3A62981  13.617  10.547   7.055
10512POPC   C4A62982  13.671  10.543   7.355
10512POPC   C1B62983  13.496  10.757   6.455
10512POPC   C2B62984  13.493  10.735   6.755
10512POPC   C3B62985  13.486  10.741   7.055
10512POPC   C4B62986  13.509  10.794   7.355
10513POPC   NC362987  19.830   5.826   5.555
10513POPC   PO462988  19.797   5.827   5.855
10513POPC   GL162989  19.806   5.833   6.155
10513POPC   GL262990  19.914   5.805   6.155
10513POPC   C1A62991  19.852   5.837   6.455
10513POPC   D2A62992  19.877   5.914   6.755
10513POPC   C3A62993  19.803   5.905   7.055
10513POPC   C4A62994  19.878   5.860   7.355
10513POPC   C1B62995  19.974   5.723   6.455
10513POPC   C2B62996  20.011   5.659   6.755
10513POPC   C3B62997  20.002   5.640   7.055
10513POPC   C4B62998  20.030   5.664   7.355
10514POPC   NC362999  36.892   4.337   5.555
10514POPC   PO463000  36.894   4.288   5.855
10514POPC   GL163001  36.863   4.362   6.155
10514POPC   GL263002  36.803   4.274   6.155
10514POPC   C1A63003  36.883   4.362   6.455
10514POPC   D2A63004  36.856   4.296   6.755
10514POPC   C3A63005  36.939   4.360   7.055
10514POPC   C4A63006  36.896   4.327   7.355
10514POPC   C1B63007  36.728   4.201   6.455
10514POPC   C2B63008  36.666   4.137   6.755
10514POPC   C3B63009  36.682   4.130   7.055
10514POPC   C4B63010  36.672   4.203   7.355
10515POPC   NC363011  22.940  28.353   5.555
10515POPC   PO463012  22.927  28.410   5.855
10515POPC   GL163013  22.943  28.364   6.155
10515POPC   GL263014  22.816  28.283   6.155
10515POPC   C1A63015  22.902  28.406   6.455
10515POPC   D2A63016  22.968  28.363   6.755
10515POPC   C3A63017  22.888  28.362   7.055
10515POPC   C4A63018  22.903  28.393   7.355
10515POPC   C1B63019  22.682  28.195   6.455
10515POPC   C2B63020  22.738  28.192   6.755
10515POPC   C3B63021  22.736  28.271   7.055
10515POPC   C4B63022  22.680  28.236   7.355
10516POPC   NC363023   8.976  12.042   5.555
10516POPC   PO463024   8.997  12.075   5.855
10516POPC   GL163025   8.946  12.043   6.155
10516POPC   GL263026   8.906  12.033   6.155
10516POPC   C1A63027   8.979  12.067   6.455
10516POPC   D2A63028   8.938  12.050   6.755
10516POPC   C3A63029   8.988  12.120   7.055
10516POPC   C4A63030   8.956  12.099   7.355
10516POPC   C1B63031   8.781  11.889   6.455
10516POPC   C2B63032   8.756  11.971   6.755
10516POPC   C3B63033   8.756  11.913   7.055
10516POPC   C4B63034   8.808  11.877   7.355
10517POPC   NC363035  23.753  12.037   5.555
10517POPC   PO463036  23.719  12.075   5.855
10517POPC   GL163037  23.720  12.050   6.155
10517POPC   GL263038  23.812  11.951   6.155
10517POPC   C1A63039  23.709  12.072   6.455
10517POPC   D2A63040  23.755  12.077   6.755
10517POPC   C3A63041  23.749  12.113   7.055
10517POPC   C4A63042  23.690  12.097   7.355
10517POPC   C1B63043  23.878  11.840   6.455
10517POPC   C2B63044  23.910  11.891   6.755
10517POPC   C3B63045  23.842  11.897   7.055
10517POPC   C4B63046  23.866  11.880   7.355
10518POPC   NC363047  22.156   5.128   5.555
10518POPC   PO463048  22.212   5.050   5.855
10518POPC   GL163049  22.188   5.118   6.155
10518POPC   GL263050  22.200   4.952   6.155
10518POPC   C1A63051  22.187   5.060   6.455
10518POPC   D2A63052  22.161   5.138   6.755
10518POPC   C3A63053  22.202   5.138   7.055
10518POPC   C4A63054  22.122   5.094   7.355
10518POPC   C1B63055  22.233   4.826   6.455
10518POPC   C2B63056  22.210   4.819   6.755
10518POPC   C3B63057  22.256   4.864   7.055
10518POPC   C4B63058  22.220   4.826   7.355
10519POPC   NC363059  36.086  27.595   5.555
10519POPC   PO463060  36.132  27.567   5.855
10519POPC   GL163061  36.130  27.564   6.155
10519POPC   GL263062  36.204  27.529   6.155
10519POPC   C1A63063  36.119  27.641   6.455
10519POPC   D2A63064  36.155  27.572   6.755
10519POPC   C3A63065  36.099  27.617   7.055
10519POPC   C4A63066  36.133  27.630   7.355
10519POPC   C1B63067  36.258  27.454   6.455
10519POPC   C2B63068  36.293  27.425   6.755
10519POPC   C3B63069  36.349  27.455   7.055
10519POPC   C4B63070  36.327  27.461   7.355
10520POPC   NC363071  17.505  19.814   5.555
10520POPC   PO463072  17.472  19.826   5.855
10520POPC   GL163073  17.541  19.820   6.155
10520POPC   GL263074  17.457  19.949   6.155
10520POPC   C1A63075  17.482  19.870   6.455
10520POPC   D2A63076  17.481  19.805   6.755
10520POPC   C3A63077  17.526  19.852   7.055
10520POPC   C4A63078  17.548  19.880   7.355
10520POPC   C1B63079  17.412  20.042   6.455
10520POPC   C2B63080  17.395  20.081   6.755
10520POPC   C3B63081  17.386  20.065   7.055
10520POPC   C4B63082  17.445  20.060   7.355
10521POPC   NC363083   6.676  39.210   5.555
10521POPC   PO463084   6.607  39.272   5.855
10521POPC   GL163085   6.621  39.200   6.155
10521POPC   GL263086   6.580  39.391   6.155
10521POPC   C1A63087   6.636  39.265   6.455
10521POPC   D2A63088   6.636  39.196   6.755
10521POPC   C3A63089   6.627  39.233   7.055
10521POPC   C4A63090   6.664  39.229   7.355
10521POPC   C1B63091   6.592  39.487   6.455
10521POPC   C2B63092   6.623  39.506   6.755
10521POPC   C3B63093   6.617  39.515   7.055
10521POPC   C4B63094   6.555  39.442   7.355
10522POPC   NC363095   9.003  21.432   5.555
10522POPC   PO463096   9.003  21.423   5.855
10522POPC   GL163097   8.967  21.354   6.155
10522POPC   GL263098   9.076  21.282   6.155
10522POPC   C1A63099   9.015  21.373   6.455
10522POPC   D2A63100   8.925  21.357   6.755
10522POPC   C3A63101   8.924  21.375   7.055
10522POPC   C4A63102   9.014  21.399   7.355
10522POPC   C1B63103   9.071  21.163   6.455
10522POPC   C2B63104   9.051  21.129   6.755
10522POPC   C3B63105   9.082  21.153   7.055
10522POPC   C4B63106   9.124  21.209   7.355
10523POPC   NC363107  11.300  44.694   5.555
10523POPC   PO463108  11.300  44.687   5.855
10523POPC   GL163109  11.331  44.694   6.155
10523POPC   GL263110  11.253  44.560   6.155
10523POPC   C1A63111  11.308  44.673   6.455
10523POPC   D2A63112  11.278  44.644   6.755
10523POPC   C3A63113  11.339  44.621   7.055
10523POPC   C4A63114  11.341  44.639   7.355
10523POPC   C1B63115  11.191  44.399   6.455
10523POPC   C2B63116  11.269  44.401   6.755
10523POPC   C3B63117  11.221  44.461   7.055
10523POPC   C4B63118  11.202  44.466   7.355
10524POPC   NC363119  33.774  44.642   5.555
10524POPC   PO463120  33.828  44.684   5.855
10524POPC   GL163121  33.750  44.631   6.155
10524POPC   GL263122  33.725  44.736   6.155
10524POPC   C1A63123  33.768  44.702   6.455
10524POPC   D2A63124  33.826  44.701   6.755
10524POPC   C3A63125  33.830  44.654   7.055
10524POPC   C4A63126  33.783  44.627   7.355
10524POPC   C1B63127  33.554  44.778   6.455
10524POPC   C2B63128  33.561  44.788   6.755
10524POPC   C3B63129  33.589  44.817   7.055
10524POPC   C4B63130  33.624  44.756   7.355
10525POPC   NC363131  31.445  33.031   5.555
10525POPC   PO463132  31.479  32.984   5.855
10525POPC   GL163133  31.482  33.047   6.155
10525POPC   GL263134  31.424  32.925   6.155
10525POPC   C1A63135  31.449  33.051   6.455
10525POPC   D2A63136  31.468  32.991   6.755
10525POPC   C3A63137  31.520  33.012   7.055
10525POPC   C4A63138  31.444  33.057   7.355
10525POPC   C1B63139  31.458  32.815   6.455
10525POPC   C2B63140  31.441  32.823   6.755
10525POPC   C3B63141  31.441  32.762   7.055
10525POPC   C4B63142  31.397  32.789   7.355
10526POPC   NC363143  18.297   2.775   5.555
10526POPC   PO463144  18.281   2.727   5.855
10526POPC   GL163145  18.249   2.793   6.155
10526POPC   GL263146  18.167   2.651   6.155
10526POPC   C1A63147  18.297   2.813   6.455
10526POPC   D2A63148  18.285   2.736   6.755
10526POPC   C3A63149  18.245   2.760   7.055
10526POPC   C4A63150  18.301   2.738   7.355
10526POPC   C1B63151  18.078   2.582   6.455
10526POPC   C2B63152  18.141   2.555   6.755
10526POPC   C3B63153  18.108   2.620   7.055
10526POPC   C4B63154  18.077   2.531   7.355
10527POPC   NC363155  32.210  19.047   5.555
10527POPC   PO463156  32.287  19.030   5.855
10527POPC   GL163157  32.274  19.107   6.155
10527POPC   GL263158  32.249  19.158   6.155
10527POPC   C1A63159  32.221  19.026   6.455
10527POPC   D2A63160  32.231  19.100   6.755
10527POPC   C3A63161  32.261  19.015   7.055
10527POPC   C4A63162  32.216  19.104   7.355
10527POPC   C1B63163  32.165  19.283   6.455
10527POPC   C2B63164  32.155  19.327   6.755
10527POPC   C3B63165  32.145  19.286   7.055
10527POPC   C4B63166  32.207  19.261   7.355
10528POPC   NC363167   1.231  26.783   5.555
10528POPC   PO463168   1.216  26.783   5.855
10528POPC   GL163169   1.248  26.769   6.155
10528POPC   GL263170   1.359  26.794   6.155
10528POPC   C1A63171   1.229  26.857   6.455
10528POPC   D2A63172   1.177  26.817   6.755
10528POPC   C3A63173   1.194  26.863   7.055
10528POPC   C4A63174   1.221  26.836   7.355
10528POPC   C1B63175   1.434  26.644   6.455
10528POPC   C2B63176   1.422  26.686   6.755
10528POPC   C3B63177   1.458  26.668   7.055
10528POPC   C4B63178   1.445  26.690   7.355
10529POPC   NC363179  20.655  34.540   5.555
10529POPC   PO463180  20.641  34.580   5.855
10529POPC   GL163181  20.644  34.601   6.155
10529POPC   GL263182  20.467  34.527   6.155
10529POPC   C1A63183  20.635  34.581   6.455
10529POPC   D2A63184  20.641  34.623   6.755
10529POPC   C3A63185  20.635  34.542   7.055
10529POPC   C4A63186  20.643  34.554   7.355
10529POPC   C1B63187  20.317  34.574   6.455
10529POPC   C2B63188  20.391  34.543   6.755
10529POPC   C3B63189  20.319  34.579   7.055
10529POPC   C4B63190  20.333  34.535   7.355
10530POPC   NC363191  38.472  17.502   5.555
10530POPC   PO463192  38.440  17.531   5.855
10530POPC   GL163193  38.496  17.511   6.155
10530POPC   GL263194  38.534  17.424   6.155
10530POPC   C1A63195  38.437  17.471   6.455
10530POPC   D2A63196  38.495  17.460   6.755
10530POPC   C3A63197  38.437  17.516   7.055
10530POPC   C4A63198  38.453  17.528   7.355
10530POPC   C1B63199  38.593  17.294   6.455
10530POPC   C2B63200  38.554  17.314   6.755
10530POPC   C3B63201  38.608  17.286   7.055
10530POPC   C4B63202  38.604  17.321   7.355
10531POPC   NC363203  15.160  32.244   5.555
10531POPC   PO463204  15.144  32.270   5.855
10531POPC   GL163205  15.144  32.222   6.155
10531POPC   GL263206  15.054  32.385   6.155
10531POPC   C1A63207  15.158  32.274   6.455
10531POPC   D2A63208  15.228  32.292   6.755
10531POPC   C3A63209  15.203  32.215   7.055
10531POPC   C4A63210  15.203  32.230   7.355
10531POPC   C1B63211  14.967  32.459   6.455
10531POPC   C2B63212  15.049  32.436   6.755
10531POPC   C3B63213  14.996  32.382   7.055
10531POPC   C4B63214  14.989  32.388   7.355
10532POPC   NC363215   8.946  10.480   5.555
10532POPC   PO463216   8.944  10.567   5.855
10532POPC   GL163217   8.949  10.509   6.155
10532POPC   GL263218   8.864  10.602   6.155
10532POPC   C1A63219   9.002  10.559   6.455
10532POPC   D2A63220   8.973  10.482   6.755
10532POPC   C3A63221   8.985  10.564   7.055
10532POPC   C4A63222   9.018  10.529   7.355
10532POPC   C1B63223   8.772  10.602   6.455
10532POPC   C2B63224   8.770  10.658   6.755
10532POPC   C3B63225   8.757  10.581   7.055
10532POPC   C4B63226   8.764  10.630   7.355
10533POPC   NC363227  19.882  36.935   5.555
10533POPC   PO463228  19.840  36.898   5.855
10533POPC   GL163229  19.786  36.877   6.155
10533POPC   GL263230  19.767  36.785   6.155
10533POPC   C1A63231  19.826  36.905   6.455
10533POPC   D2A63232  19.828  36.867   6.755
10533POPC   C3A63233  19.821  36.887   7.055
10533POPC   C4A63234  19.798  36.858   7.355
10533POPC   C1B63235  19.760  36.683   6.455
10533POPC   C2B63236  19.686  36.686   6.755
10533POPC   C3B63237  19.733  36.680   7.055
10533POPC   C4B63238  19.741  36.717   7.355
10534POPC   NC363239  25.228  36.906   5.555
10534POPC   PO463240  25.282  36.949   5.855
10534POPC   GL163241  25.259  36.906   6.155
10534POPC   GL263242  25.245  37.031   6.155
10534POPC   C1A63243  25.290  36.950   6.455
10534POPC   D2A63244  25.313  36.951   6.755
10534POPC   C3A63245  25.311  36.868   7.055
10534POPC   C4A63246  25.266  36.931   7.355
10534POPC   C1B63247  25.268  37.117   6.455
10534POPC   C2B63248  25.287  37.105   6.755
10534POPC   C3B63249  25.242  37.134   7.055
10534POPC   C4B63250  25.245  37.124   7.355
10535POPC   NC363251   2.721   0.487   5.555
10535POPC   PO463252   2.788   0.415   5.855
10535POPC   GL163253   2.741   0.470   6.155
10535POPC   GL263254   2.720   0.298   6.155
10535POPC   C1A63255   2.733   0.474   6.455
10535POPC   D2A63256   2.797   0.456   6.755
10535POPC   C3A63257   2.733   0.439   7.055
10535POPC   C4A63258   2.798   0.426   7.355
10535POPC   C1B63259   2.739   0.225   6.455
10535POPC   C2B63260   2.660   0.234   6.755
10535POPC   C3B63261   2.724   0.192   7.055
10535POPC   C4B63262   2.748   0.199   7.355
10536POPC   NC363263  34.561   3.512   5.555
10536POPC   PO463264  34.557   3.559   5.855
10536POPC   GL163265  34.590   3.495   6.155
10536POPC   GL263266  34.446   3.501   6.155
10536POPC   C1A63267  34.555   3.543   6.455
10536POPC   D2A63268  34.527   3.509   6.755
10536POPC   C3A63269  34.621   3.543   7.055
10536POPC   C4A63270  34.528   3.547   7.355
10536POPC   C1B63271  34.372   3.409   6.455
10536POPC   C2B63272  34.303   3.471   6.755
10536POPC   C3B63273  34.353   3.472   7.055
10536POPC   C4B63274  34.306   3.401   7.355
10537POPC   NC363275   2.741  43.117   5.555
10537POPC   PO463276   2.759  43.075   5.855
10537POPC   GL163277   2.735  43.062   6.155
10537POPC   GL263278   2.930  43.124   6.155
10537POPC   C1A63279   2.779  43.136   6.455
10537POPC   D2A63280   2.801  43.146   6.755
10537POPC   C3A63281   2.735  43.065   7.055
10537POPC   C4A63282   2.777  43.142   7.355
10537POPC   C1B63283   2.995  43.096   6.455
10537POPC   C2B63284   3.038  43.134   6.755
10537POPC   C3B63285   3.050  43.060   7.055
10537POPC   C4B63286   3.047  43.139   7.355
10538POPC   NC363287  33.048  43.859   5.555
10538POPC   PO463288  33.057  43.845   5.855
10538POPC   GL163289  33.009  43.919   6.155
10538POPC   GL263290  33.045  44.026   6.155
10538POPC   C1A63291  33.064  43.858   6.455
10538POPC   D2A63292  33.016  43.881   6.755
10538POPC   C3A63293  33.013  43.874   7.055
10538POPC   C4A63294  33.048  43.858   7.355
10538POPC   C1B63295  33.029  44.109   6.455
10538POPC   C2B63296  33.028  44.161   6.755
10538POPC   C3B63297  33.026  44.160   7.055
10538POPC   C4B63298  33.036  44.111   7.355
10539POPC   NC363299   4.322  43.110   5.555
10539POPC   PO463300   4.307  43.064   5.855
10539POPC   GL163301   4.274  43.130   6.155
10539POPC   GL263302   4.213  42.998   6.155
10539POPC   C1A63303   4.349  43.088   6.455
10539POPC   D2A63304   4.296  43.064   6.755
10539POPC   C3A63305   4.325  43.065   7.055
10539POPC   C4A63306   4.282  43.076   7.355
10539POPC   C1B63307   4.099  42.898   6.455
10539POPC   C2B63308   4.163  42.946   6.755
10539POPC   C3B63309   4.102  42.942   7.055
10539POPC   C4B63310   4.152  42.898   7.355
10540POPC   NC363311   2.789   5.918   5.555
10540POPC   PO463312   2.721   5.882   5.855
10540POPC   GL163313   2.811   5.822   6.155
10540POPC   GL263314   2.630   5.736   6.155
10540POPC   C1A63315   2.808   5.896   6.455
10540POPC   D2A63316   2.759   5.905   6.755
10540POPC   C3A63317   2.765   5.845   7.055
10540POPC   C4A63318   2.731   5.912   7.355
10540POPC   C1B63319   2.542   5.701   6.455
10540POPC   C2B63320   2.596   5.680   6.755
10540POPC   C3B63321   2.609   5.709   7.055
10540POPC   C4B63322   2.592   5.697   7.355
10541POPC   NC363323  26.042  16.746   5.555
10541POPC   PO463324  26.034  16.749   5.855
10541POPC   GL163325  26.016  16.744   6.155
10541POPC   GL263326  26.111  16.807   6.155
10541POPC   C1A63327  26.050  16.761   6.455
10541POPC   D2A63328  26.041  16.777   6.755
10541POPC   C3A63329  26.024  16.703   7.055
10541POPC   C4A63330  26.055  16.747   7.355
10541POPC   C1B63331  26.254  16.834   6.455
10541POPC   C2B63332  26.232  16.876   6.755
10541POPC   C3B63333  26.282  16.844   7.055
10541POPC   C4B63334  26.283  16.846   7.355
10542POPC   NC363335  37.684  12.831   5.555
10542POPC   PO463336  37.702  12.814   5.855
10542POPC   GL163337  37.634  12.857   6.155
10542POPC   GL263338  37.708  12.968   6.155
10542POPC   C1A63339  37.647  12.894   6.455
10542POPC   D2A63340  37.661  12.803   6.755
10542POPC   C3A63341  37.647  12.885   7.055
10542POPC   C4A63342  37.659  12.826   7.355
10542POPC   C1B63343  37.788  13.108   6.455
10542POPC   C2B63344  37.776  13.048   6.755
10542POPC   C3B63345  37.768  13.039   7.055
10542POPC   C4B63346  37.774  13.027   7.355
10543POPC   NC363347  38.482  31.484   5.555
10543POPC   PO463348  38.418  31.504   5.855
10543POPC   GL163349  38.408  31.436   6.155
10543POPC   GL263350  38.516  31.333   6.155
10543POPC   C1A63351  38.480  31.458   6.455
10543POPC   D2A63352  38.425  31.427   6.755
10543POPC   C3A63353  38.483  31.443   7.055
10543POPC   C4A63354  38.495  31.429   7.355
10543POPC   C1B63355  38.556  31.289   6.455
10543POPC   C2B63356  38.620  31.269   6.755
10543POPC   C3B63357  38.589  31.267   7.055
10543POPC   C4B63358  38.577  31.223   7.355
10544POPC   NC363359  43.068  40.755   5.555
10544POPC   PO463360  43.069  40.806   5.855
10544POPC   GL163361  43.115  40.774   6.155
10544POPC   GL263362  43.071  40.930   6.155
10544POPC   C1A63363  43.130  40.757   6.455
10544POPC   D2A63364  43.074  40.791   6.755
10544POPC   C3A63365  43.128  40.739   7.055
10544POPC   C4A63366  43.065  40.743   7.355
10544POPC   C1B63367  43.102  41.077   6.455
10544POPC   C2B63368  43.085  41.058   6.755
10544POPC   C3B63369  43.113  41.013   7.055
10544POPC   C4B63370  43.055  41.048   7.355
10545POPC   NC363371  15.951  15.193   5.555
10545POPC   PO463372  15.948  15.137   5.855
10545POPC   GL163373  15.933  15.172   6.155
10545POPC   GL263374  16.081  15.132   6.155
10545POPC   C1A63375  15.937  15.149   6.455
10545POPC   D2A63376  15.907  15.205   6.755
10545POPC   C3A63377  15.990  15.163   7.055
10545POPC   C4A63378  15.933  15.179   7.355
10545POPC   C1B63379  16.164  15.013   6.455
10545POPC   C2B63380  16.126  15.066   6.755
10545POPC   C3B63381  16.151  15.065   7.055
10545POPC   C4B63382  16.182  14.988   7.355
10546POPC   NC363383  11.259  37.667   5.555
10546POPC   PO463384  11.277  37.712   5.855
10546POPC   GL163385  11.327  37.699   6.155
10546POPC   GL263386  11.173  37.732   6.155
10546POPC   C1A63387  11.259  37.680   6.455
10546POPC   D2A63388  11.300  37.679   6.755
10546POPC   C3A63389  11.266  37.648   7.055
10546POPC   C4A63390  11.257  37.637   7.355
10546POPC   C1B63391  11.152  37.875   6.455
10546POPC   C2B63392  11.130  37.882   6.755
10546POPC   C3B63393  11.175  37.842   7.055
10546POPC   C4B63394  11.104  37.903   7.355
10547POPC   NC363395   3.524  24.492   5.555
10547POPC   PO463396   3.559  24.460   5.855
10547POPC   GL163397   3.513  24.467   6.155
10547POPC   GL263398   3.421  24.548   6.155
10547POPC   C1A63399   3.513  24.505   6.455
10547POPC   D2A63400   3.577  24.534   6.755
10547POPC   C3A63401   3.500  24.500   7.055
10547POPC   C4A63402   3.509  24.523   7.355
10547POPC   C1B63403   3.265  24.556   6.455
10547POPC   C2B63404   3.262  24.557   6.755
10547POPC   C3B63405   3.288  24.563   7.055
10547POPC   C4B63406   3.320  24.595   7.355
10548POPC   NC363407  25.246  43.877   5.555
10548POPC   PO463408  25.228  43.891   5.855
10548POPC   GL163409  25.232  43.936   6.155
10548POPC   GL263410  25.387  43.935   6.155
10548POPC   C1A63411  25.301  43.842   6.455
10548POPC   D2A63412  25.239  43.917   6.755
10548POPC   C3A63413  25.277  43.854   7.055
10548POPC   C4A63414  25.230  43.895   7.355
10548POPC   C1B63415  25.494  43.955   6.455
10548POPC   C2B63416  25.512  44.040   6.755
10548POPC   C3B63417  25.486  43.970   7.055
10548POPC   C4B63418  25.507  44.046   7.355
10549POPC   NC363419   0.436   7.396   5.555
10549POPC   PO463420   0.457   7.459   5.855
10549POPC   GL163421   0.409   7.383   6.155
10549POPC   GL263422   0.516   7.307   6.155
10549POPC   C1A63423   0.397   7.374   6.455
10549POPC   D2A63424   0.404   7.462   6.755
10549POPC   C3A63425   0.409   7.401   7.055
10549POPC   C4A63426   0.396   7.383   7.355
10549POPC   C1B63427   0.592   7.172   6.455
10549POPC   C2B63428   0.554   7.195   6.755
10549POPC   C3B63429   0.537   7.154   7.055
10549POPC   C4B63430   0.550   7.169   7.355
10550POPC   NC363431   5.112  17.491   5.555
10550POPC   PO463432   5.117  17.488   5.855
10550POPC   GL163433   5.092  17.555   6.155
10550POPC   GL263434   5.238  17.595   6.155
10550POPC   C1A63435   5.091  17.465   6.455
10550POPC   D2A63436   5.067  17.487   6.755
10550POPC   C3A63437   5.063  17.543   7.055
10550POPC   C4A63438   5.116  17.457   7.355
10550POPC   C1B63439   5.365  17.630   6.455
10550POPC   C2B63440   5.357  17.592   6.755
10550POPC   C3B63441   5.303  17.642   7.055
10550POPC   C4B63442   5.278  17.550   7.355
10551POPC   NC363443  15.208  20.563   5.555
10551POPC   PO463444  15.202  20.588   5.855
10551POPC   GL163445  15.140  20.646   6.155
10551POPC   GL263446  15.310  20.583   6.155
10551POPC   C1A63447  15.208  20.567   6.455
10551POPC   D2A63448  15.223  20.619   6.755
10551POPC   C3A63449  15.168  20.585   7.055
10551POPC   C4A63450  15.202  20.564   7.355
10551POPC   C1B63451  15.385  20.460   6.455
10551POPC   C2B63452  15.406  20.449   6.755
10551POPC   C3B63453  15.363  20.470   7.055
10551POPC   C4B63454  15.385  20.480   7.355
10552POPC   NC363455  37.661  39.222   5.555
10552POPC   PO463456  37.689  39.237   5.855
10552POPC   GL163457  37.676  39.245   6.155
10552POPC   GL263458  37.600  39.263   6.155
10552POPC   C1A63459  37.722  39.210   6.455
10552POPC   D2A63460  37.636  39.213   6.755
10552POPC   C3A63461  37.707  39.209   7.055
10552POPC   C4A63462  37.667  39.229   7.355
10552POPC   C1B63463  37.413  39.258   6.455
10552POPC   C2B63464  37.431  39.288   6.755
10552POPC   C3B63465  37.419  39.258   7.055
10552POPC   C4B63466  37.450  39.297   7.355
10553POPC   NC363467   8.936   2.767   5.555
10553POPC   PO463468   8.963   2.745   5.855
10553POPC   GL163469   8.948   2.772   6.155
10553POPC   GL263470   9.052   2.883   6.155
10553POPC   C1A63471   8.963   2.812   6.455
10553POPC   D2A63472   8.949   2.751   6.755
10553POPC   C3A63473   8.945   2.733   7.055
10553POPC   C4A63474   8.996   2.802   7.355
10553POPC   C1B63475   9.209   2.881   6.455
10553POPC   C2B63476   9.164   2.897   6.755
10553POPC   C3B63477   9.161   2.973   7.055
10553POPC   C4B63478   9.209   2.971   7.355
10554POPC   NC363479  39.281   4.298   5.555
10554POPC   PO463480  39.245   4.284   5.855
10554POPC   GL163481  39.186   4.344   6.155
10554POPC   GL263482  39.312   4.238   6.155
10554POPC   C1A63483  39.236   4.316   6.455
10554POPC   D2A63484  39.249   4.338   6.755
10554POPC   C3A63485  39.270   4.356   7.055
10554POPC   C4A63486  39.182   4.327   7.355
10554POPC   C1B63487  39.440   4.193   6.455
10554POPC   C2B63488  39.415   4.182   6.755
10554POPC   C3B63489  39.465   4.205   7.055
10554POPC   C4B63490  39.450   4.141   7.355
10555POPC   NC363491   0.472  32.260   5.555
10555POPC   PO463492   0.399  32.262   5.855
10555POPC   GL163493   0.424  32.212   6.155
10555POPC   GL263494   0.568  32.300   6.155
10555POPC   C1A63495   0.444  32.288   6.455
10555POPC   D2A63496   0.478  32.281   6.755
10555POPC   C3A63497   0.441  32.242   7.055
10555POPC   C4A63498   0.466  32.285   7.355
10555POPC   C1B63499   0.663  32.240   6.455
10555POPC   C2B63500   0.654  32.295   6.755
10555POPC   C3B63501   0.667  32.296   7.055
10555POPC   C4B63502   0.661  32.282   7.355
10556POPC   NC363503   8.238  37.667   5.555
10556POPC   PO463504   8.195  37.660   5.855
10556POPC   GL163505   8.235  37.694   6.155
10556POPC   GL263506   8.125  37.591   6.155
10556POPC   C1A63507   8.213  37.728   6.455
10556POPC   D2A63508   8.245  37.665   6.755
10556POPC   C3A63509   8.235  37.647   7.055
10556POPC   C4A63510   8.176  37.706   7.355
10556POPC   C1B63511   8.043  37.474   6.455
10556POPC   C2B63512   8.102  37.464   6.755
10556POPC   C3B63513   8.031  37.441   7.055
10556POPC   C4B63514   8.111  37.511   7.355
10557POPC   NC363515  22.948  16.000   5.555
10557POPC   PO463516  22.956  15.910   5.855
10557POPC   GL163517  22.936  15.981   6.155
10557POPC   GL263518  22.926  16.097   6.155
10557POPC   C1A63519  22.909  15.978   6.455
10557POPC   D2A63520  22.964  15.971   6.755
10557POPC   C3A63521  22.912  15.967   7.055
10557POPC   C4A63522  22.949  15.915   7.355
10557POPC   C1B63523  22.938  16.212   6.455
10557POPC   C2B63524  22.962  16.226   6.755
10557POPC   C3B63525  22.920  16.228   7.055
10557POPC   C4B63526  22.945  16.157   7.355
10558POPC   NC363527  37.661  23.701   5.555
10558POPC   PO463528  37.707  23.675   5.855
10558POPC   GL163529  37.725  23.699   6.155
10558POPC   GL263530  37.774  23.825   6.155
10558POPC   C1A63531  37.648  23.715   6.455
10558POPC   D2A63532  37.682  23.697   6.755
10558POPC   C3A63533  37.652  23.705   7.055
10558POPC   C4A63534  37.698  23.757   7.355
10558POPC   C1B63535  37.859  23.888   6.455
10558POPC   C2B63536  37.904  23.835   6.755
10558POPC   C3B63537  37.873  23.871   7.055
10558POPC   C4B63538  37.845  23.873   7.355
10559POPC   NC363539  18.292  38.504   5.555
10559POPC   PO463540  18.250  38.413   5.855
10559POPC   GL163541  18.255  38.417   6.155
10559POPC   GL263542  18.170  38.572   6.155
10559POPC   C1A63543  18.250  38.497   6.455
10559POPC   D2A63544  18.241  38.495   6.755
10559POPC   C3A63545  18.263  38.465   7.055
10559POPC   C4A63546  18.333  38.437   7.355
10559POPC   C1B63547  18.106  38.620   6.455
10559POPC   C2B63548  18.111  38.621   6.755
10559POPC   C3B63549  18.154  38.646   7.055
10559POPC   C4B63550  18.125  38.622   7.355
10560POPC   NC363551  24.531  28.393   5.555
10560POPC   PO463552  24.466  28.416   5.855
10560POPC   GL163553  24.483  28.380   6.155
10560POPC   GL263554  24.382  28.417   6.155
10560POPC   C1A63555  24.481  28.371   6.455
10560POPC   D2A63556  24.469  28.341   6.755
10560POPC   C3A63557  24.533  28.418   7.055
10560POPC   C4A63558  24.451  28.364   7.355
10560POPC   C1B63559  24.278  28.486   6.455
10560POPC   C2B63560  24.287  28.475   6.755
10560POPC   C3B63561  24.283  28.518   7.055
10560POPC   C4B63562  24.223  28.474   7.355
10561POPC   NC363563  42.366   0.415   5.555
10561POPC   PO463564  42.290   0.459   5.855
10561POPC   GL163565  42.369   0.427   6.155
10561POPC   GL263566  42.470   0.512   6.155
10561POPC   C1A63567  42.336   0.409   6.455
10561POPC   D2A63568  42.329   0.412   6.755
10561POPC   C3A63569  42.361   0.465   7.055
10561POPC   C4A63570  42.362   0.394   7.355
10561POPC   C1B63571  42.602   0.508   6.455
10561POPC   C2B63572  42.530   0.484   6.755
10561POPC   C3B63573  42.555   0.540   7.055
10561POPC   C4B63574  42.584   0.516   7.355
10562POPC   NC363575  34.604  28.350   5.555
10562POPC   PO463576  34.528  28.350   5.855
10562POPC   GL163577  34.583  28.365   6.155
10562POPC   GL263578  34.650  28.378   6.155
10562POPC   C1A63579  34.612  28.372   6.455
10562POPC   D2A63580  34.593  28.363   6.755
10562POPC   C3A63581  34.600  28.337   7.055
10562POPC   C4A63582  34.581  28.366   7.355
10562POPC   C1B63583  34.861  28.439   6.455
10562POPC   C2B63584  34.778  28.394   6.755
10562POPC   C3B63585  34.827  28.414   7.055
10562POPC   C4B63586  34.774  28.473   7.355
10563POPC   NC363587  30.743  24.451   5.555
10563POPC   PO463588  30.653  24.531   5.855
10563POPC   GL163589  30.736  24.506   6.155
10563POPC   GL263590  30.736  24.577   6.155
10563POPC   C1A63591  30.660  24.498   6.455
10563POPC   D2A63592  30.685  24.531   6.755
10563POPC   C3A63593  30.670  24.488   7.055
10563POPC   C4A63594  30.692  24.510   7.355
10563POPC   C1B63595  30.841  24.713   6.455
10563POPC   C2B63596  30.912  24.655   6.755
10563POPC   C3B63597  30.849  24.638   7.055
10563POPC   C4B63598  30.829  24.659   7.355
10564POPC   NC363599  36.919   3.566   5.555
10564POPC   PO463600  36.902   3.580   5.855
10564POPC   GL163601  36.872   3.530   6.155
10564POPC   GL263602  37.056   3.515   6.155
10564POPC   C1A63603  36.893   3.505   6.455
10564POPC   D2A63604  36.939   3.508   6.755
10564POPC   C3A63605  36.873   3.549   7.055
10564POPC   C4A63606  36.864   3.558   7.355
10564POPC   C1B63607  37.170   3.585   6.455
10564POPC   C2B63608  37.162   3.526   6.755
10564POPC   C3B63609  37.175   3.550   7.055
10564POPC   C4B63610  37.115   3.542   7.355
10565POPC   NC363611  12.870   9.020   5.555
10565POPC   PO463612  12.842   8.948   5.855
10565POPC   GL163613  12.868   8.933   6.155
10565POPC   GL263614  12.884   8.903   6.155
10565POPC   C1A63615  12.808   9.008   6.455
10565POPC   D2A63616  12.813   8.927   6.755
10565POPC   C3A63617  12.841   8.957   7.055
10565POPC   C4A63618  12.808   8.948   7.355
10565POPC   C1B63619  12.939   8.763   6.455
10565POPC   C2B63620  12.996   8.795   6.755
10565POPC   C3B63621  12.994   8.788   7.055
10565POPC   C4B63622  13.020   8.720   7.355
10566POPC   NC363623  17.525  36.885   5.555
10566POPC   PO463624  17.540  36.918   5.855
10566POPC   GL163625  17.495  36.862   6.155
10566POPC   GL263626  17.651  36.893   6.155
10566POPC   C1A63627  17.520  36.861   6.455
10566POPC   D2A63628  17.528  36.933   6.755
10566POPC   C3A63629  17.538  36.910   7.055
10566POPC   C4A63630  17.552  36.860   7.355
10566POPC   C1B63631  17.706  36.772   6.455
10566POPC   C2B63632  17.789  36.786   6.755
10566POPC   C3B63633  17.752  36.788   7.055
10566POPC   C4B63634  17.709  36.782   7.355
10567POPC   NC363635   1.188   2.753   5.555
10567POPC   PO463636   1.213   2.790   5.855
10567POPC   GL163637   1.164   2.794   6.155
10567POPC   GL263638   1.340   2.727   6.155
10567POPC   C1A63639   1.187   2.767   6.455
10567POPC   D2A63640   1.251   2.758   6.755
10567POPC   C3A63641   1.254   2.782   7.055
10567POPC   C4A63642   1.197   2.789   7.355
10567POPC   C1B63643   1.424   2.637   6.455
10567POPC   C2B63644   1.473   2.674   6.755
10567POPC   C3B63645   1.488   2.657   7.055
10567POPC   C4B63646   1.415   2.693   7.355
10568POPC   NC363647  41.582  40.773   5.555
10568POPC   PO463648  41.607  40.802   5.855
10568POPC   GL163649  41.549  40.816   6.155
10568POPC   GL263650  41.509  40.734   6.155
10568POPC   C1A63651  41.582  40.740   6.455
10568POPC   D2A63652  41.518  40.787   6.755
10568POPC   C3A63653  41.528  40.778   7.055
10568POPC   C4A63654  41.542  40.755   7.355
10568POPC   C1B63655  41.329  40.657   6.455
10568POPC   C2B63656  41.387  40.588   6.755
10568POPC   C3B63657  41.335  40.609   7.055
10568POPC   C4B63658  41.325  40.604   7.355
10569POPC   NC363659  26.832  19.097   5.555
10569POPC   PO463660  26.800  19.067   5.855
10569POPC   GL163661  26.829  19.093   6.155
10569POPC   GL263662  26.691  19.050   6.155
10569POPC   C1A63663  26.864  19.015   6.455
10569POPC   D2A63664  26.795  19.011   6.755
10569POPC   C3A63665  26.832  19.033   7.055
10569POPC   C4A63666  26.784  19.045   7.355
10569POPC   C1B63667  26.616  19.122   6.455
10569POPC   C2B63668  26.584  19.173   6.755
10569POPC   C3B63669  26.617  19.142   7.055
10569POPC   C4B63670  26.543  19.134   7.355
10570POPC   NC363671  39.957  14.437   5.555
10570POPC   PO463672  40.034  14.453   5.855
10570POPC   GL163673  40.051  14.442   6.155
10570POPC   GL263674  39.934  14.499   6.155
10570POPC   C1A63675  40.027  14.375   6.455
10570POPC   D2A63676  39.963  14.431   6.755
10570POPC   C3A63677  40.024  14.449   7.055
10570POPC   C4A63678  39.986  14.377   7.355
10570POPC   C1B63679  39.846  14.622   6.455
10570POPC   C2B63680  39.875  14.560   6.755
10570POPC   C3B63681  39.809  14.628   7.055
10570POPC   C4B63682  39.863  14.639   7.355
10571POPC   NC363683   6.669  40.038   5.555
10571POPC   PO463684   6.681  40.024   5.855
10571POPC   GL163685   6.643  40.024   6.155
10571POPC   GL263686   6.694  40.128   6.155
10571POPC   C1A63687   6.688  40.016   6.455
10571POPC   D2A63688   6.682  40.005   6.755
10571POPC   C3A63689   6.598  40.046   7.055
10571POPC   C4A63690   6.643  40.041   7.355
10571POPC   C1B63691   6.692  40.285   6.455
10571POPC   C2B63692   6.733  40.216   6.755
10571POPC   C3B63693   6.771  40.285   7.055
10571POPC   C4B63694   6.705  40.257   7.355
10572POPC   NC363695  32.983  29.160   5.555
10572POPC   PO463696  33.006  29.134   5.855
10572POPC   GL163697  33.025  29.135   6.155
10572POPC   GL263698  33.192  29.147   6.155
10572POPC   C1A63699  33.019  29.139   6.455
10572POPC   D2A63700  32.976  29.108   6.755
10572POPC   C3A63701  33.022  29.105   7.055
10572POPC   C4A63702  33.054  29.172   7.355
10572POPC   C1B63703  33.236  29.120   6.455
10572POPC   C2B63704  33.242  29.150   6.755
10572POPC   C3B63705  33.317  29.165   7.055
10572POPC   C4B63706  33.228  29.125   7.355
10573POPC   NC363707  17.478  14.423   5.555
10573POPC   PO463708  17.482  14.359   5.855
10573POPC   GL163709  17.466  14.445   6.155
10573POPC   GL263710  17.545  14.273   6.155
10573POPC   C1A63711  17.487  14.418   6.455
10573POPC   D2A63712  17.481  14.415   6.755
10573POPC   C3A63713  17.503  14.395   7.055
10573POPC   C4A63714  17.525  14.448   7.355
10573POPC   C1B63715  17.578  14.132   6.455
10573POPC   C2B63716  17.504  14.172   6.755
10573POPC   C3B63717  17.515  14.158   7.055
10573POPC   C4B63718  17.500  14.147   7.355
10574POPC   NC363719  18.314  41.588   5.555
10574POPC   PO463720  18.253  41.567   5.855
10574POPC   GL163721  18.237  41.570   6.155
10574POPC   GL263722  18.290  41.720   6.155
10574POPC   C1A63723  18.306  41.555   6.455
10574POPC   D2A63724  18.269  41.583   6.755
10574POPC   C3A63725  18.319  41.527   7.055
10574POPC   C4A63726  18.307  41.603   7.355
10574POPC   C1B63727  18.209  41.778   6.455
10574POPC   C2B63728  18.180  41.754   6.755
10574POPC   C3B63729  18.266  41.822   7.055
10574POPC   C4B63730  18.203  41.837   7.355
10575POPC   NC363731  36.108  22.938   5.555
10575POPC   PO463732  36.135  22.915   5.855
10575POPC   GL163733  36.126  22.950   6.155
10575POPC   GL263734  36.159  22.873   6.155
10575POPC   C1A63735  36.139  22.973   6.455
10575POPC   D2A63736  36.117  22.959   6.755
10575POPC   C3A63737  36.129  22.967   7.055
10575POPC   C4A63738  36.108  22.916   7.355
10575POPC   C1B63739  36.272  22.692   6.455
10575POPC   C2B63740  36.288  22.772   6.755
10575POPC   C3B63741  36.254  22.680   7.055
10575POPC   C4B63742  36.283  22.732   7.355
10576POPC   NC363743  12.888  14.404   5.555
10576POPC   PO463744  12.893  14.354   5.855
10576POPC   GL163745  12.810  14.436   6.155
10576POPC   GL263746  12.752  14.553   6.155
10576POPC   C1A63747  12.829  14.418   6.455
10576POPC   D2A63748  12.888  14.399   6.755
10576POPC   C3A63749  12.817  14.449   7.055
10576POPC   C4A63750  12.825  14.442   7.355
10576POPC   C1B63751  12.740  14.604   6.455
10576POPC   C2B63752  12.722  14.562   6.755
10576POPC   C3B63753  12.746  14.589   7.055
10576POPC   C4B63754  12.754  14.619   7.355
10577POPC   NC363755  11.282  19.075   5.555
10577POPC   PO463756  11.333  19.014   5.855
10577POPC   GL163757  11.273  19.101   6.155
10577POPC   GL263758  11.218  19.173   6.155
10577POPC   C1A63759  11.252  19.035   6.455
10577POPC   D2A63760  11.253  19.019   6.755
10577POPC   C3A63761  11.344  19.042   7.055
10577POPC   C4A63762  11.341  19.072   7.355
10577POPC   C1B63763  11.107  19.245   6.455
10577POPC   C2B63764  11.127  19.258   6.755
10577POPC   C3B63765  11.115  19.211   7.055
10577POPC   C4B63766  11.152  19.280   7.355
10578POPC   NC363767  42.365  40.830   5.555
10578POPC   PO463768  42.367  40.769   5.855
10578POPC   GL163769  42.341  40.734   6.155
10578POPC   GL263770  42.433  40.737   6.155
10578POPC   C1A63771  42.356  40.773   6.455
10578POPC   D2A63772  42.339  40.734   6.755
10578POPC   C3A63773  42.375  40.795   7.055
10578POPC   C4A63774  42.383  40.777   7.355
10578POPC   C1B63775  42.475  40.638   6.455
10578POPC   C2B63776  42.501  40.559   6.755
10578POPC   C3B63777  42.527  40.610   7.055
10578POPC   C4B63778  42.474  40.652   7.355
10579POPC   NC363779  19.010  22.197   5.555
10579POPC   PO463780  19.094  22.190   5.855
10579POPC   GL163781  19.095  22.172   6.155
10579POPC   GL263782  19.021  21.990   6.155
10579POPC   C1A63783  19.081  22.175   6.455
10579POPC   D2A63784  19.103  22.114   6.755
10579POPC   C3A63785  19.098  22.172   7.055
10579POPC   C4A63786  19.016  22.112   7.355
10579POPC   C1B63787  18.990  21.878   6.455
10579POPC   C2B63788  18.997  21.896   6.755
10579POPC   C3B63789  19.034  21.902   7.055
10579POPC   C4B63790  19.037  21.873   7.355
10580POPC   NC363791  12.118  29.964   5.555
10580POPC   PO463792  12.046  29.878   5.855
10580POPC   GL163793  12.085  29.944   6.155
10580POPC   GL263794  12.208  29.972   6.155
10580POPC   C1A63795  12.056  29.875   6.455
10580POPC   D2A63796  12.122  29.936   6.755
10580POPC   C3A63797  12.040  29.958   7.055
10580POPC   C4A63798  12.054  29.872   7.355
10580POPC   C1B63799  12.335  29.971   6.455
10580POPC   C2B63800  12.337  30.019   6.755
10580POPC   C3B63801  12.299  29.975   7.055
10580POPC   C4B63802  12.274  30.033   7.355
10581POPC   NC363803  38.431   1.967   5.555
10581POPC   PO463804  38.407   1.984   5.855
10581POPC   GL163805  38.433   1.956   6.155
10581POPC   GL263806  38.546   1.900   6.155
10581POPC   C1A63807  38.417   2.034   6.455
10581POPC   D2A63808  38.481   1.963   6.755
10581POPC   C3A63809  38.488   2.022   7.055
10581POPC   C4A63810  38.488   1.994   7.355
10581POPC   C1B63811  38.708   1.905   6.455
10581POPC   C2B63812  38.695   1.881   6.755
10581POPC   C3B63813  38.666   1.873   7.055
10581POPC   C4B63814  38.722   1.848   7.355
10582POPC   NC363815   7.437  12.068   5.555
10582POPC   PO463816   7.410  12.125   5.855
10582POPC   GL163817   7.396  12.059   6.155
10582POPC   GL263818   7.249  12.050   6.155
10582POPC   C1A63819   7.375  12.097   6.455
10582POPC   D2A63820   7.448  12.029   6.755
10582POPC   C3A63821   7.428  12.110   7.055
10582POPC   C4A63822   7.420  12.036   7.355
10582POPC   C1B63823   7.168  12.044   6.455
10582POPC   C2B63824   7.215  12.053   6.755
10582POPC   C3B63825   7.142  12.004   7.055
10582POPC   C4B63826   7.205  12.082   7.355
10583POPC   NC363827   8.933  25.292   5.555
10583POPC   PO463828   8.931  25.226   5.855
10583POPC   GL163829   8.932  25.217   6.155
10583POPC   GL263830   8.833  25.331   6.155
10583POPC   C1A63831   8.984  25.284   6.455
10583POPC   D2A63832   8.946  25.296   6.755
10583POPC   C3A63833   8.937  25.278   7.055
10583POPC   C4A63834   9.021  25.233   7.355
10583POPC   C1B63835   8.745  25.297   6.455
10583POPC   C2B63836   8.758  25.280   6.755
10583POPC   C3B63837   8.710  25.325   7.055
10583POPC   C4B63838   8.696  25.282   7.355
10584POPC   NC363839  28.360  10.565   5.555
10584POPC   PO463840  28.334  10.500   5.855
10584POPC   GL163841  28.324  10.503   6.155
10584POPC   GL263842  28.351  10.366   6.155
10584POPC   C1A63843  28.399  10.533   6.455
10584POPC   D2A63844  28.393  10.556   6.755
10584POPC   C3A63845  28.388  10.514   7.055
10584POPC   C4A63846  28.344  10.532   7.355
10584POPC   C1B63847  28.387  10.274   6.455
10584POPC   C2B63848  28.416  10.271   6.755
10584POPC   C3B63849  28.390  10.291   7.055
10584POPC   C4B63850  28.340  10.265   7.355
10585POPC   NC363851  40.780  21.348   5.555
10585POPC   PO463852  40.735  21.408   5.855
10585POPC   GL163853  40.782  21.337   6.155
10585POPC   GL263854  40.691  21.297   6.155
10585POPC   C1A63855  40.811  21.389   6.455
10585POPC   D2A63856  40.808  21.387   6.755
10585POPC   C3A63857  40.781  21.424   7.055
10585POPC   C4A63858  40.756  21.409   7.355
10585POPC   C1B63859  40.701  21.204   6.455
10585POPC   C2B63860  40.653  21.204   6.755
10585POPC   C3B63861  40.714  21.124   7.055
10585POPC   C4B63862  40.712  21.184   7.355
10586POPC   NC363863   2.020  38.498   5.555
10586POPC   PO463864   2.001  38.474   5.855
10586POPC   GL163865   2.001  38.490   6.155
10586POPC   GL263866   1.910  38.458   6.155
10586POPC   C1A63867   1.987  38.417   6.455
10586POPC   D2A63868   1.998  38.419   6.755
10586POPC   C3A63869   2.002  38.486   7.055
10586POPC   C4A63870   1.946  38.504   7.355
10586POPC   C1B63871   1.748  38.552   6.455
10586POPC   C2B63872   1.756  38.525   6.755
10586POPC   C3B63873   1.748  38.490   7.055
10586POPC   C4B63874   1.752  38.547   7.355
10587POPC   NC363875  23.695  17.516   5.555
10587POPC   PO463876  23.751  17.553   5.855
10587POPC   GL163877  23.699  17.538   6.155
10587POPC   GL263878  23.781  17.566   6.155
10587POPC   C1A63879  23.664  17.536   6.455
10587POPC   D2A63880  23.718  17.469   6.755
10587POPC   C3A63881  23.690  17.504   7.055
10587POPC   C4A63882  23.717  17.470   7.355
10587POPC   C1B63883  23.987  17.585   6.455
10587POPC   C2B63884  23.988  17.563   6.755
10587POPC   C3B63885  23.892  17.580   7.055
10587POPC   C4B63886  23.973  17.643   7.355
10588POPC   NC363887  26.836  37.711   5.555
10588POPC   PO463888  26.841  37.669   5.855
10588POPC   GL163889  26.777  37.698   6.155
10588POPC   GL263890  26.872  37.541   6.155
10588POPC   C1A63891  26.813  37.646   6.455
10588POPC   D2A63892  26.791  37.637   6.755
10588POPC   C3A63893  26.852  37.713   7.055
10588POPC   C4A63894  26.844  37.702   7.355
10588POPC   C1B63895  26.876  37.395   6.455
10588POPC   C2B63896  26.880  37.469   6.755
10588POPC   C3B63897  26.883  37.404   7.055
10588POPC   C4B63898  26.831  37.411   7.355
10589POPC   NC363899  36.907   1.989   5.555
10589POPC   PO463900  36.874   2.038   5.855
10589POPC   GL163901  36.871   2.010   6.155
10589POPC   GL263902  36.956   2.128   6.155
10589POPC   C1A63903  36.895   1.996   6.455
10589POPC   D2A63904  36.881   1.996   6.755
10589POPC   C3A63905  36.933   2.001   7.055
10589POPC   C4A63906  36.877   1.940   7.355
10589POPC   C1B63907  37.040   2.229   6.455
10589POPC   C2B63908  36.971   2.215   6.755
10589POPC   C3B63909  37.039   2.253   7.055
10589POPC   C4B63910  37.006   2.169   7.355
10590POPC   NC363911  27.584  18.241   5.555
10590POPC   PO463912  27.574  18.261   5.855
10590POPC   GL163913  27.580  18.274   6.155
10590POPC   GL263914  27.601  18.139   6.155
10590POPC   C1A63915  27.638  18.330   6.455
10590POPC   D2A63916  27.563  18.328   6.755
10590POPC   C3A63917  27.586  18.234   7.055
10590POPC   C4A63918  27.559  18.306   7.355
10590POPC   C1B63919  27.633  18.006   6.455
10590POPC   C2B63920  27.586  18.057   6.755
10590POPC   C3B63921  27.641  18.004   7.055
10590POPC   C4B63922  27.609  18.047   7.355
10591POPC   NC363923  29.890  20.636   5.555
10591POPC   PO463924  29.939  20.569   5.855
10591POPC   GL163925  29.918  20.603   6.155
10591POPC   GL263926  29.764  20.518   6.155
10591POPC   C1A63927  29.894  20.611   6.455
10591POPC   D2A63928  29.932  20.576   6.755
10591POPC   C3A63929  29.909  20.572   7.055
10591POPC   C4A63930  29.947  20.651   7.355
10591POPC   C1B63931  29.690  20.513   6.455
10591POPC   C2B63932  29.713  20.526   6.755
10591POPC   C3B63933  29.728  20.532   7.055
10591POPC   C4B63934  29.717  20.534   7.355
10592POPC   NC363935  21.363  25.260   5.555
10592POPC   PO463936  21.400  25.291   5.855
10592POPC   GL163937  21.396  25.314   6.155
10592POPC   GL263938  21.471  25.288   6.155
10592POPC   C1A63939  21.374  25.284   6.455
10592POPC   D2A63940  21.409  25.245   6.755
10592POPC   C3A63941  21.428  25.295   7.055
10592POPC   C4A63942  21.338  25.282   7.355
10592POPC   C1B63943  21.681  25.267   6.455
10592POPC   C2B63944  21.680  25.290   6.755
10592POPC   C3B63945  21.652  25.296   7.055
10592POPC   C4B63946  21.668  25.246   7.355
10593POPC   NC363947   2.023  19.837   5.555
10593POPC   PO463948   2.007  19.874   5.855
10593POPC   GL163949   1.997  19.838   6.155
10593POPC   GL263950   1.829  19.861   6.155
10593POPC   C1A63951   1.992  19.825   6.455
10593POPC   D2A63952   1.944  19.826   6.755
10593POPC   C3A63953   1.971  19.793   7.055
10593POPC   C4A63954   2.017  19.876   7.355
10593POPC   C1B63955   1.779  19.870   6.455
10593POPC   C2B63956   1.768  19.929   6.755
10593POPC   C3B63957   1.751  19.920   7.055
10593POPC   C4B63958   1.732  19.907   7.355
10594POPC   NC363959  10.539  41.537   5.555
10594POPC   PO463960  10.497  41.539   5.855
10594POPC   GL163961  10.520  41.567   6.155
10594POPC   GL263962  10.669  41.553   6.155
10594POPC   C1A63963  10.548  41.570   6.455
10594POPC   D2A63964  10.555  41.526   6.755
10594POPC   C3A63965  10.483  41.541   7.055
10594POPC   C4A63966  10.537  41.590   7.355
10594POPC   C1B63967  10.800  41.513   6.455
10594POPC   C2B63968  10.783  41.472   6.755
10594POPC   C3B63969  10.751  41.511   7.055
10594POPC   C4B63970  10.783  41.433   7.355
10595POPC   NC363971  40.046  22.931   5.555
10595POPC   PO463972  40.008  22.922   5.855
10595POPC   GL163973  40.033  22.936   6.155
10595POPC   GL263974  39.907  23.002   6.155
10595POPC   C1A63975  39.966  22.961   6.455
10595POPC   D2A63976  40.018  22.934   6.755
10595POPC   C3A63977  40.012  22.956   7.055
10595POPC   C4A63978  39.968  22.911   7.355
10595POPC   C1B63979  39.790  23.065   6.455
10595POPC   C2B63980  39.759  22.998   6.755
10595POPC   C3B63981  39.755  22.998   7.055
10595POPC   C4B63982  39.734  23.048   7.355
10596POPC   NC363983  18.316  36.951   5.555
10596POPC   PO463984  18.298  36.890   5.855
10596POPC   GL163985  18.283  36.921   6.155
10596POPC   GL263986  18.275  37.016   6.155
10596POPC   C1A63987  18.242  36.855   6.455
10596POPC   D2A63988  18.328  36.894   6.755
10596POPC   C3A63989  18.327  36.942   7.055
10596POPC   C4A63990  18.310  36.869   7.355
10596POPC   C1B63991  18.190  37.132   6.455
10596POPC   C2B63992  18.202  37.135   6.755
10596POPC   C3B63993  18.220  37.178   7.055
10596POPC   C4B63994  18.190  37.172   7.355
10597POPC   NC363995  25.302  42.363   5.555
10597POPC   PO463996  25.272  42.295   5.855
10597POPC   GL163997  25.307  42.317   6.155
10597POPC   GL263998  25.280  42.258   6.155
10597POPC   C1A63999  25.224  42.382   6.455
10597POPC   D2A64000  25.259  42.337   6.755
10597POPC   C3A64001  25.276  42.304   7.055
10597POPC   C4A64002  25.278  42.336   7.355
10597POPC   C1B64003  25.305  42.125   6.455
10597POPC   C2B64004  25.356  42.063   6.755
10597POPC   C3B64005  25.346  42.109   7.055
10597POPC   C4B64006  25.351  42.057   7.355
10598POPC   NC364007  36.926  29.175   5.555
10598POPC   PO464008  36.900  29.140   5.855
10598POPC   GL164009  36.867  29.118   6.155
10598POPC   GL264010  36.780  29.084   6.155
10598POPC   C1A64011  36.867  29.155   6.455
10598POPC   D2A64012  36.924  29.138   6.755
10598POPC   C3A64013  36.948  29.106   7.055
10598POPC   C4A64014  36.869  29.117   7.355
10598POPC   C1B64015  36.681  29.057   6.455
10598POPC   C2B64016  36.655  29.041   6.755
10598POPC   C3B64017  36.641  29.070   7.055
10598POPC   C4B64018  36.636  29.050   7.355
10599POPC   NC364019   9.751  22.140   5.555
10599POPC   PO464020   9.738  22.117   5.855
10599POPC   GL164021   9.736  22.160   6.155
10599POPC   GL264022   9.659  22.236   6.155
10599POPC   C1A64023   9.723  22.204   6.455
10599POPC   D2A64024   9.722  22.169   6.755
10599POPC   C3A64025   9.714  22.204   7.055
10599POPC   C4A64026   9.733  22.132   7.355
10599POPC   C1B64027   9.506  22.275   6.455
10599POPC   C2B64028   9.490  22.261   6.755
10599POPC   C3B64029   9.538  22.338   7.055
10599POPC   C4B64030   9.487  22.245   7.355
10600POPC   NC364031  20.653  41.548   5.555
10600POPC   PO464032  20.610  41.609   5.855
10600POPC   GL164033  20.596  41.582   6.155
10600POPC   GL264034  20.735  41.678   6.155
10600POPC   C1A64035  20.626  41.567   6.455
10600POPC   D2A64036  20.598  41.576   6.755
10600POPC   C3A64037  20.660  41.581   7.055
10600POPC   C4A64038  20.645  41.524   7.355
10600POPC   C1B64039  20.795  41.716   6.455
10600POPC   C2B64040  20.782  41.707   6.755
10600POPC   C3B64041  20.795  41.752   7.055
10600POPC   C4B64042  20.834  41.773   7.355
10601POPC   NC364043  16.689  22.960   5.555
10601POPC   PO464044  16.703  22.908   5.855
10601POPC   GL164045  16.696  22.977   6.155
10601POPC   GL264046  16.781  22.864   6.155
10601POPC   C1A64047  16.764  22.975   6.455
10601POPC   D2A64048  16.731  22.968   6.755
10601POPC   C3A64049  16.768  22.946   7.055
10601POPC   C4A64050  16.733  22.975   7.355
10601POPC   C1B64051  16.894  22.769   6.455
10601POPC   C2B64052  16.841  22.741   6.755
10601POPC   C3B64053  16.866  22.708   7.055
10601POPC   C4B64054  16.907  22.746   7.355
10602POPC   NC364055  35.357  35.340   5.555
10602POPC   PO464056  35.377  35.352   5.855
10602POPC   GL164057  35.347  35.375   6.155
10602POPC   GL264058  35.310  35.190   6.155
10602POPC   C1A64059  35.326  35.376   6.455
10602POPC   D2A64060  35.311  35.347   6.755
10602POPC   C3A64061  35.363  35.370   7.055
10602POPC   C4A64062  35.353  35.319   7.355
10602POPC   C1B64063  35.307  35.145   6.455
10602POPC   C2B64064  35.279  35.105   6.755
10602POPC   C3B64065  35.311  35.142   7.055
10602POPC   C4B64066  35.331  35.148   7.355
10603POPC   NC364067  36.115  34.604   5.555
10603POPC   PO464068  36.083  34.534   5.855
10603POPC   GL164069  36.113  34.624   6.155
10603POPC   GL264070  36.151  34.745   6.155
10603POPC   C1A64071  36.096  34.586   6.455
10603POPC   D2A64072  36.131  34.619   6.755
10603POPC   C3A64073  36.112  34.531   7.055
10603POPC   C4A64074  36.081  34.586   7.355
10603POPC   C1B64075  36.137  34.823   6.455
10603POPC   C2B64076  36.132  34.806   6.755
10603POPC   C3B64077  36.103  34.820   7.055
10603POPC   C4B64078  36.139  34.808   7.355
10604POPC   NC364079  11.325   3.572   5.555
10604POPC   PO464080  11.255   3.518   5.855
10604POPC   GL164081  11.326   3.566   6.155
10604POPC   GL264082  11.368   3.660   6.155
10604POPC   C1A64083  11.341   3.511   6.455
10604POPC   D2A64084  11.320   3.550   6.755
10604POPC   C3A64085  11.260   3.571   7.055
10604POPC   C4A64086  11.318   3.566   7.355
10604POPC   C1B64087  11.406   3.806   6.455
10604POPC   C2B64088  11.447   3.778   6.755
10604POPC   C3B64089  11.415   3.737   7.055
10604POPC   C4B64090  11.405   3.810   7.355
10605POPC   NC364091  42.296   9.007   5.555
10605POPC   PO464092  42.364   8.924   5.855
10605POPC   GL164093  42.322   8.962   6.155
10605POPC   GL264094  42.284   9.133   6.155
10605POPC   C1A64095  42.318   8.926   6.455
10605POPC   D2A64096  42.360   9.013   6.755
10605POPC   C3A64097  42.336   8.937   7.055
10605POPC   C4A64098  42.342   8.974   7.355
10605POPC   C1B64099  42.241   9.221   6.455
10605POPC   C2B64100  42.241   9.193   6.755
10605POPC   C3B64101  42.335   9.221   7.055
10605POPC   C4B64102  42.303   9.227   7.355
10606POPC   NC364103  16.734  11.329   5.555
10606POPC   PO464104  16.736  11.256   5.855
10606POPC   GL164105  16.718  11.341   6.155
10606POPC   GL264106  16.895  11.286   6.155
10606POPC   C1A64107  16.693  11.306   6.455
10606POPC   D2A64108  16.747  11.327   6.755
10606POPC   C3A64109  16.742  11.337   7.055
10606POPC   C4A64110  16.682  11.335   7.355
10606POPC   C1B64111  17.009  11.321   6.455
10606POPC   C2B64112  17.002  11.305   6.755
10606POPC   C3B64113  16.940  11.368   7.055
10606POPC   C4B64114  16.996  11.356   7.355
10607POPC   NC364115  36.125  20.643   5.555
10607POPC   PO464116  36.144  20.582   5.855
10607POPC   GL164117  36.157  20.582   6.155
10607POPC   GL264118  36.086  20.477   6.155
10607POPC   C1A64119  36.117  20.563   6.455
10607POPC   D2A64120  36.146  20.641   6.755
10607POPC   C3A64121  36.177  20.647   7.055
10607POPC   C4A64122  36.144  20.642   7.355
10607POPC   C1B64123  36.107  20.314   6.455
10607POPC   C2B64124  36.084  20.350   6.755
10607POPC   C3B64125  36.127  20.366   7.055
10607POPC   C4B64126  36.147  20.333   7.355
10608POPC   NC364127  40.738  44.616   5.555
10608POPC   PO464128  40.825  44.691   5.855
10608POPC   GL164129  40.800  44.650   6.155
10608POPC   GL264130  40.883  44.727   6.155
10608POPC   C1A64131  40.775  44.650   6.455
10608POPC   D2A64132  40.794  44.683   6.755
10608POPC   C3A64133  40.762  44.621   7.055
10608POPC   C4A64134  40.807  44.698   7.355
10608POPC   C1B64135  41.008  44.805   6.455
10608POPC   C2B64136  41.036  44.792   6.755
10608POPC   C3B64137  41.007  44.738   7.055
10608POPC   C4B64138  40.990  44.746   7.355
10609POPC   NC364139  32.990  22.899   5.555
10609POPC   PO464140  32.995  22.950   5.855
10609POPC   GL164141  32.976  22.967   6.155
10609POPC   GL264142  33.103  23.057   6.155
10609POPC   C1A64143  33.045  22.979   6.455
10609POPC   D2A64144  33.040  22.972   6.755
10609POPC   C3A64145  32.977  22.962   7.055
10609POPC   C4A64146  33.018  22.896   7.355
10609POPC   C1B64147  33.152  23.129   6.455
10609POPC   C2B64148  33.151  23.146   6.755
10609POPC   C3B64149  33.173  23.156   7.055
10609POPC   C4B64150  33.241  23.150   7.355
10610POPC   NC364151  23.727  12.883   5.555
10610POPC   PO464152  23.683  12.851   5.855
10610POPC   GL164153  23.664  12.837   6.155
10610POPC   GL264154  23.640  13.015   6.155
10610POPC   C1A64155  23.713  12.901   6.455
10610POPC   D2A64156  23.687  12.867   6.755
10610POPC   C3A64157  23.700  12.895   7.055
10610POPC   C4A64158  23.730  12.872   7.355
10610POPC   C1B64159  23.614  13.110   6.455
10610POPC   C2B64160  23.607  13.069   6.755
10610POPC   C3B64161  23.631  13.074   7.055
10610POPC   C4B64162  23.658  13.079   7.355
10611POPC   NC364163   9.722  32.993   5.555
10611POPC   PO464164   9.744  33.054   5.855
10611POPC   GL164165   9.761  33.045   6.155
10611POPC   GL264166   9.834  33.078   6.155
10611POPC   C1A64167   9.739  33.059   6.455
10611POPC   D2A64168   9.700  32.995   6.755
10611POPC   C3A64169   9.732  33.045   7.055
10611POPC   C4A64170   9.783  32.976   7.355
10611POPC   C1B64171   9.990  33.060   6.455
10611POPC   C2B64172  10.004  33.060   6.755
10611POPC   C3B64173   9.992  33.086   7.055
10611POPC   C4B64174   9.975  33.087   7.355
10612POPC   NC364175  37.675  27.615   5.555
10612POPC   PO464176  37.649  27.558   5.855
10612POPC   GL164177  37.712  27.574   6.155
10612POPC   GL264178  37.580  27.656   6.155
10612POPC   C1A64179  37.693  27.609   6.455
10612POPC   D2A64180  37.701  27.618   6.755
10612POPC   C3A64181  37.699  27.603   7.055
10612POPC   C4A64182  37.679  27.628   7.355
10612POPC   C1B64183  37.500  27.793   6.455
10612POPC   C2B64184  37.502  27.812   6.755
10612POPC   C3B64185  37.471  27.784   7.055
10612POPC   C4B64186  37.499  27.796   7.355
10613POPC   NC364187  24.497  39.992   5.555
10613POPC   PO464188  24.497  40.005   5.855
10613POPC   GL164189  24.475  40.020   6.155
10613POPC   GL264190  24.467  40.169   6.155
10613POPC   C1A64191  24.482  40.046   6.455
10613POPC   D2A64192  24.446  39.964   6.755
10613POPC   C3A64193  24.532  40.052   7.055
10613POPC   C4A64194  24.524  39.997   7.355
10613POPC   C1B64195  24.409  40.243   6.455
10613POPC   C2B64196  24.450  40.209   6.755
10613POPC   C3B64197  24.445  40.245   7.055
10613POPC   C4B64198  24.357  40.259   7.355
10614POPC   NC364199  24.505  38.427   5.555
10614POPC   PO464200  24.502  38.428   5.855
10614POPC   GL164201  24.516  38.486   6.155
10614POPC   GL264202  24.456  38.558   6.155
10614POPC   C1A64203  24.456  38.440   6.455
10614POPC   D2A64204  24.509  38.406   6.755
10614POPC   C3A64205  24.490  38.478   7.055
10614POPC   C4A64206  24.472  38.430   7.355
10614POPC   C1B64207  24.424  38.673   6.455
10614POPC   C2B64208  24.489  38.660   6.755
10614POPC   C3B64209  24.476  38.686   7.055
10614POPC   C4B64210  24.451  38.691   7.355
10615POPC   NC364211   2.809  42.315   5.555
10615POPC   PO464212   2.792  42.291   5.855
10615POPC   GL164213   2.737  42.337   6.155
10615POPC   GL264214   2.723  42.398   6.155
10615POPC   C1A64215   2.815  42.361   6.455
10615POPC   D2A64216   2.772  42.375   6.755
10615POPC   C3A64217   2.797  42.362   7.055
10615POPC   C4A64218   2.800  42.352   7.355
10615POPC   C1B64219   2.669  42.511   6.455
10615POPC   C2B64220   2.661  42.533   6.755
10615POPC   C3B64221   2.634  42.524   7.055
10615POPC   C4B64222   2.656  42.499   7.355
10616POPC   NC364223  32.240   5.837   5.555
10616POPC   PO464224  32.244   5.881   5.855
10616POPC   GL164225  32.255   5.899   6.155
10616POPC   GL264226  32.208   5.918   6.155
10616POPC   C1A64227  32.265   5.892   6.455
10616POPC   D2A64228  32.219   5.894   6.755
10616POPC   C3A64229  32.230   5.883   7.055
10616POPC   C4A64230  32.265   5.917   7.355
10616POPC   C1B64231  32.095   6.091   6.455
10616POPC   C2B64232  32.052   6.030   6.755
10616POPC   C3B64233  32.061   6.021   7.055
10616POPC   C4B64234  32.098   6.079   7.355
10617POPC   NC364235  30.651  42.378   5.555
10617POPC   PO464236  30.647  42.376   5.855
10617POPC   GL164237  30.734  42.295   6.155
10617POPC   GL264238  30.802  42.199   6.155
10617POPC   C1A64239  30.713  42.328   6.455
10617POPC   D2A64240  30.741  42.311   6.755
10617POPC   C3A64241  30.723  42.339   7.055
10617POPC   C4A64242  30.655  42.294   7.355
10617POPC   C1B64243  30.796  42.104   6.455
10617POPC   C2B64244  30.787  42.090   6.755
10617POPC   C3B64245  30.816  42.121   7.055
10617POPC   C4B64246  30.822  42.099   7.355
10618POPC   NC364247  22.948  23.713   5.555
10618POPC   PO464248  22.913  23.729   5.855
10618POPC   GL164249  22.897  23.673   6.155
10618POPC   GL264250  23.026  23.817   6.155
10618POPC   C1A64251  22.984  23.703   6.455
10618POPC   D2A64252  22.930  23.687   6.755
10618POPC   C3A64253  22.943  23.703   7.055
10618POPC   C4A64254  22.941  23.679   7.355
10618POPC   C1B64255  23.028  23.896   6.455
10618POPC   C2B64256  23.097  23.984   6.755
10618POPC   C3B64257  23.037  23.966   7.055
10618POPC   C4B64258  23.083  23.940   7.355
10619POPC   NC364259  43.897   0.486   5.555
10619POPC   PO464260  43.931   0.442   5.855
10619POPC   GL164261  43.908   0.432   6.155
10619POPC   GL264262  43.719   0.441   6.155
10619POPC   C1A64263  43.888   0.421   6.455
10619POPC   D2A64264  43.878   0.431   6.755
10619POPC   C3A64265  43.883   0.452   7.055
10619POPC   C4A64266  43.921   0.487   7.355
10619POPC   C1B64267  43.676   0.360   6.455
10619POPC   C2B64268  43.625   0.386   6.755
10619POPC   C3B64269  43.649   0.362   7.055
10619POPC   C4B64270  43.640   0.395   7.355
10620POPC   NC364271   3.569   2.774   5.555
10620POPC   PO464272   3.589   2.785   5.855
10620POPC   GL164273   3.587   2.720   6.155
10620POPC   GL264274   3.463   2.722   6.155
10620POPC   C1A64275   3.573   2.762   6.455
10620POPC   D2A64276   3.565   2.754   6.755
10620POPC   C3A64277   3.516   2.721   7.055
10620POPC   C4A64278   3.494   2.716   7.355
10620POPC   C1B64279   3.297   2.697   6.455
10620POPC   C2B64280   3.311   2.692   6.755
10620POPC   C3B64281   3.308   2.665   7.055
10620POPC   C4B64282   3.306   2.720   7.355
10621POPC   NC364283   7.405  44.675   5.555
10621POPC   PO464284   7.390  44.655   5.855
10621POPC   GL164285   7.372  44.651   6.155
10621POPC   GL264286   7.440  44.830   6.155
10621POPC   C1A64287   7.410  44.662   6.455
10621POPC   D2A64288   7.450  44.651   6.755
10621POPC   C3A64289   7.424  44.681   7.055
10621POPC   C4A64290   7.393  44.624   7.355
10621POPC   C1B64291   7.324  44.913   6.455
10621POPC   C2B64292   7.345  44.939   6.755
10621POPC   C3B64293   7.396  44.914   7.055
10621POPC   C4B64294   7.366  44.864   7.355
10622POPC   NC364295   5.086  40.826   5.555
10622POPC   PO464296   5.118  40.745   5.855
10622POPC   GL164297   5.109  40.770   6.155
10622POPC   GL264298   5.203  40.696   6.155
10622POPC   C1A64299   5.085  40.749   6.455
10622POPC   D2A64300   5.076  40.767   6.755
10622POPC   C3A64301   5.128  40.760   7.055
10622POPC   C4A64302   5.060  40.795   7.355
10622POPC   C1B64303   5.337  40.718   6.455
10622POPC   C2B64304   5.275  40.631   6.755
10622POPC   C3B64305   5.331  40.676   7.055
10622POPC   C4B64306   5.300  40.694   7.355
10623POPC   NC364307  28.375  11.333   5.555
10623POPC   PO464308  28.364  11.273   5.855
10623POPC   GL164309  28.372  11.296   6.155
10623POPC   GL264310  28.256  11.453   6.155
10623POPC   C1A64311  28.343  11.337   6.455
10623POPC   D2A64312  28.339  11.278   6.755
10623POPC   C3A64313  28.380  11.333   7.055
10623POPC   C4A64314  28.396  11.340   7.355
10623POPC   C1B64315  28.229  11.559   6.455
10623POPC   C2B64316  28.207  11.533   6.755
10623POPC   C3B64317  28.224  11.487   7.055
10623POPC   C4B64318  28.205  11.544   7.355
10624POPC   NC364319  21.415  14.369   5.555
10624POPC   PO464320  21.422  14.426   5.855
10624POPC   GL164321  21.354  14.383   6.155
10624POPC   GL264322  21.267  14.348   6.155
10624POPC   C1A64323  21.395  14.399   6.455
10624POPC   D2A64324  21.376  14.386   6.755
10624POPC   C3A64325  21.345  14.387   7.055
10624POPC   C4A64326  21.404  14.434   7.355
10624POPC   C1B64327  21.181  14.252   6.455
10624POPC   C2B64328  21.203  14.245   6.755
10624POPC   C3B64329  21.217  14.230   7.055
10624POPC   C4B64330  21.269  14.181   7.355
10625POPC   NC364331  13.641   6.634   5.555
10625POPC   PO464332  13.580   6.606   5.855
10625POPC   GL164333  13.623   6.667   6.155
10625POPC   GL264334  13.708   6.672   6.155
10625POPC   C1A64335  13.660   6.630   6.455
10625POPC   D2A64336  13.627   6.642   6.755
10625POPC   C3A64337  13.621   6.651   7.055
10625POPC   C4A64338  13.611   6.603   7.355
10625POPC   C1B64339  13.850   6.651   6.455
10625POPC   C2B64340  13.851   6.680   6.755
10625POPC   C3B64341  13.920   6.640   7.055
10625POPC   C4B64342  13.903   6.658   7.355
10626POPC   NC364343  11.312  23.673   5.555
10626POPC   PO464344  11.318  23.695   5.855
10626POPC   GL164345  11.253  23.730   6.155
10626POPC   GL264346  11.393  23.841   6.155
10626POPC   C1A64347  11.250  23.714   6.455
10626POPC   D2A64348  11.287  23.722   6.755
10626POPC   C3A64349  11.338  23.744   7.055
10626POPC   C4A64350  11.310  23.678   7.355
10626POPC   C1B64351  11.460  23.866   6.455
10626POPC   C2B64352  11.427  23.888   6.755
10626POPC   C3B64353  11.486  23.915   7.055
10626POPC   C4B64354  11.471  23.959   7.355
10627POPC   NC364355  26.813  13.636   5.555
10627POPC   PO464356  26.864  13.607   5.855
10627POPC   GL164357  26.862  13.619   6.155
10627POPC   GL264358  26.906  13.540   6.155
10627POPC   C1A64359  26.807  13.651   6.455
10627POPC   D2A64360  26.847  13.580   6.755
10627POPC   C3A64361  26.841  13.632   7.055
10627POPC   C4A64362  26.815  13.612   7.355
10627POPC   C1B64363  27.011  13.469   6.455
10627POPC   C2B64364  27.085  13.513   6.755
10627POPC   C3B64365  27.072  13.536   7.055
10627POPC   C4B64366  26.990  13.510   7.355
10628POPC   NC364367  33.813  33.001   5.555
10628POPC   PO464368  33.799  33.073   5.855
10628POPC   GL164369  33.788  33.063   6.155
10628POPC   GL264370  33.721  32.948   6.155
10628POPC   C1A64371  33.808  33.006   6.455
10628POPC   D2A64372  33.822  33.017   6.755
10628POPC   C3A64373  33.790  33.003   7.055
10628POPC   C4A64374  33.752  32.981   7.355
10628POPC   C1B64375  33.551  32.904   6.455
10628POPC   C2B64376  33.532  32.879   6.755
10628POPC   C3B64377  33.589  32.895   7.055
10628POPC   C4B64378  33.608  32.908   7.355
10629POPC   NC364379  22.923  29.111   5.555
10629POPC   PO464380  22.951  29.110   5.855
10629POPC   GL164381  22.916  29.172   6.155
10629POPC   GL264382  22.964  29.272   6.155
10629POPC   C1A64383  22.909  29.171   6.455
10629POPC   D2A64384  22.897  29.130   6.755
10629POPC   C3A64385  22.898  29.130   7.055
10629POPC   C4A64386  22.895  29.152   7.355
10629POPC   C1B64387  23.004  29.425   6.455
10629POPC   C2B64388  22.996  29.417   6.755
10629POPC   C3B64389  22.998  29.398   7.055
10629POPC   C4B64390  23.026  29.432   7.355
10630POPC   NC364391  16.778  17.535   5.555
10630POPC   PO464392  16.687  17.509   5.855
10630POPC   GL164393  16.761  17.524   6.155
10630POPC   GL264394  16.781  17.671   6.155
10630POPC   C1A64395  16.689  17.506   6.455
10630POPC   D2A64396  16.749  17.530   6.755
10630POPC   C3A64397  16.738  17.475   7.055
10630POPC   C4A64398  16.728  17.470   7.355
10630POPC   C1B64399  16.771  17.720   6.455
10630POPC   C2B64400  16.773  17.707   6.755
10630POPC   C3B64401  16.783  17.732   7.055
10630POPC   C4B64402  16.769  17.726   7.355
10631POPC   NC364403  10.564  19.821   5.555
10631POPC   PO464404  10.529  19.861   5.855
10631POPC   GL164405  10.519  19.810   6.155
10631POPC   GL264406  10.642  19.871   6.155
10631POPC   C1A64407  10.529  19.867   6.455
10631POPC   D2A64408  10.537  19.840   6.755
10631POPC   C3A64409  10.519  19.839   7.055
10631POPC   C4A64410  10.512  19.807   7.355
10631POPC   C1B64411  10.667  19.980   6.455
10631POPC   C2B64412  10.663  19.998   6.755
10631POPC   C3B64413  10.664  20.049   7.055
10631POPC   C4B64414  10.703  19.971   7.355
10632POPC   NC364415  43.086  12.882   5.555
10632POPC   PO464416  43.131  12.805   5.855
10632POPC   GL164417  43.097  12.853   6.155
10632POPC   GL264418  42.943  12.839   6.155
10632POPC   C1A64419  43.158  12.887   6.455
10632POPC   D2A64420  43.105  12.894   6.755
10632POPC   C3A64421  43.127  12.879   7.055
10632POPC   C4A64422  43.160  12.810   7.355
10632POPC   C1B64423  42.821  12.775   6.455
10632POPC   C2B64424  42.910  12.758   6.755
10632POPC   C3B64425  42.849  12.736   7.055
10632POPC   C4B64426  42.840  12.767   7.355
10633POPC   NC364427  19.062  24.524   5.555
10633POPC   PO464428  19.083  24.536   5.855
10633POPC   GL164429  19.056  24.473   6.155
10633POPC   GL264430  18.975  24.630   6.155
10633POPC   C1A64431  19.079  24.452   6.455
10633POPC   D2A64432  19.020  24.498   6.755
10633POPC   C3A64433  19.099  24.534   7.055
10633POPC   C4A64434  19.047  24.537   7.355
10633POPC   C1B64435  18.876  24.661   6.455
10633POPC   C2B64436  18.913  24.663   6.755
10633POPC   C3B64437  18.907  24.721   7.055
10633POPC   C4B64438  18.859  24.675   7.355
10634POPC   NC364439  23.736  36.941   5.555
10634POPC   PO464440  23.730  36.869   5.855
10634POPC   GL164441  23.751  36.867   6.155
10634POPC   GL264442  23.627  36.817   6.155
10634POPC   C1A64443  23.744  36.938   6.455
10634POPC   D2A64444  23.742  36.894   6.755
10634POPC   C3A64445  23.696  36.922   7.055
10634POPC   C4A64446  23.674  36.871   7.355
10634POPC   C1B64447  23.589  36.767   6.455
10634POPC   C2B64448  23.536  36.764   6.755
10634POPC   C3B64449  23.527  36.699   7.055
10634POPC   C4B64450  23.537  36.695   7.355
10635POPC   NC364451  18.314   0.436   5.555
10635POPC   PO464452  18.251   0.455   5.855
10635POPC   GL164453  18.243   0.446   6.155
10635POPC   GL264454  18.199   0.507   6.155
10635POPC   C1A64455  18.257   0.435   6.455
10635POPC   D2A64456  18.275   0.471   6.755
10635POPC   C3A64457  18.293   0.432   7.055
10635POPC   C4A64458  18.273   0.421   7.355
10635POPC   C1B64459  18.054   0.507   6.455
10635POPC   C2B64460  18.056   0.455   6.755
10635POPC   C3B64461  18.001   0.479   7.055
10635POPC   C4B64462  18.034   0.501   7.355
10636POPC   NC364463  22.203  33.785   5.555
10636POPC   PO464464  22.134  33.758   5.855
10636POPC   GL164465  22.182  33.828   6.155
10636POPC   GL264466  22.046  33.865   6.155
10636POPC   C1A64467  22.121  33.775   6.455
10636POPC   D2A64468  22.158  33.843   6.755
10636POPC   C3A64469  22.194  33.814   7.055
10636POPC   C4A64470  22.152  33.787   7.355
10636POPC   C1B64471  21.971  34.034   6.455
10636POPC   C2B64472  22.015  34.007   6.755
10636POPC   C3B64473  22.043  34.038   7.055
10636POPC   C4B64474  22.045  34.001   7.355
10637POPC   NC364475  23.665  40.048   5.555
10637POPC   PO464476  23.729  39.989   5.855
10637POPC   GL164477  23.754  40.043   6.155
10637POPC   GL264478  23.859  39.990   6.155
10637POPC   C1A64479  23.726  39.982   6.455
10637POPC   D2A64480  23.695  39.987   6.755
10637POPC   C3A64481  23.702  40.048   7.055
10637POPC   C4A64482  23.757  40.049   7.355
10637POPC   C1B64483  23.976  39.891   6.455
10637POPC   C2B64484  23.942  39.944   6.755
10637POPC   C3B64485  23.924  39.940   7.055
10637POPC   C4B64486  23.941  39.864   7.355
10638POPC   NC364487  37.679  15.937   5.555
10638POPC   PO464488  37.682  15.926   5.855
10638POPC   GL164489  37.702  15.950   6.155
10638POPC   GL264490  37.646  16.090   6.155
10638POPC   C1A64491  37.728  15.967   6.455
10638POPC   D2A64492  37.655  15.952   6.755
10638POPC   C3A64493  37.692  15.923   7.055
10638POPC   C4A64494  37.668  15.908   7.355
10638POPC   C1B64495  37.485  16.186   6.455
10638POPC   C2B64496  37.480  16.097   6.755
10638POPC   C3B64497  37.484  16.114   7.055
10638POPC   C4B64498  37.518  16.153   7.355
10639POPC   NC364499  43.935  20.657   5.555
10639POPC   PO464500  43.897  20.635   5.855
10639POPC   GL164501  43.874  20.570   6.155
10639POPC   GL264502  43.805  20.774   6.155
10639POPC   C1A64503  43.903  20.576   6.455
10639POPC   D2A64504  43.900  20.610   6.755
10639POPC   C3A64505  43.890  20.649   7.055
10639POPC   C4A64506  43.895  20.639   7.355
10639POPC   C1B64507  43.761  20.829   6.455
10639POPC   C2B64508  43.756  20.871   6.755
10639POPC   C3B64509  43.740  20.859   7.055
10639POPC   C4B64510  43.784  20.862   7.355
10640POPC   NC364511   8.199  15.219   5.555
10640POPC   PO464512   8.150  15.150   5.855
10640POPC   GL164513   8.210  15.225   6.155
10640POPC   GL264514   8.075  15.114   6.155
10640POPC   C1A64515   8.149  15.165   6.455
10640POPC   D2A64516   8.162  15.150   6.755
10640POPC   C3A64517   8.227  15.196   7.055
10640POPC   C4A64518   8.171  15.168   7.355
10640POPC   C1B64519   7.990  15.003   6.455
10640POPC   C2B64520   8.004  15.029   6.755
10640POPC   C3B64521   7.975  15.049   7.055
10640POPC   C4B64522   8.010  15.034   7.355
10641POPC   NC364523  24.518  39.213   5.555
10641POPC   PO464524  24.492  39.239   5.855
10641POPC   GL164525  24.494  39.185   6.155
10641POPC   GL264526  24.479  39.146   6.155
10641POPC   C1A64527  24.488  39.260   6.455
10641POPC   D2A64528  24.471  39.210   6.755
10641POPC   C3A64529  24.478  39.185   7.055
10641POPC   C4A64530  24.469  39.245   7.355
10641POPC   C1B64531  24.476  38.971   6.455
10641POPC   C2B64532  24.491  39.025   6.755
10641POPC   C3B64533  24.423  38.936   7.055
10641POPC   C4B64534  24.456  38.996   7.355
10642POPC   NC364535  27.567  37.681   5.555
10642POPC   PO464536  27.595  37.659   5.855
10642POPC   GL164537  27.613  37.670   6.155
10642POPC   GL264538  27.577  37.520   6.155
10642POPC   C1A64539  27.633  37.698   6.455
10642POPC   D2A64540  27.642  37.631   6.755
10642POPC   C3A64541  27.601  37.671   7.055
10642POPC   C4A64542  27.599  37.668   7.355
10642POPC   C1B64543  27.561  37.419   6.455
10642POPC   C2B64544  27.536  37.461   6.755
10642POPC   C3B64545  27.484  37.438   7.055
10642POPC   C4B64546  27.547  37.416   7.355
10643POPC   NC364547  14.387  43.101   5.555
10643POPC   PO464548  14.452  43.072   5.855
10643POPC   GL164549  14.385  43.074   6.155
10643POPC   GL264550  14.382  43.199   6.155
10643POPC   C1A64551  14.372  43.102   6.455
10643POPC   D2A64552  14.453  43.065   6.755
10643POPC   C3A64553  14.357  43.100   7.055
10643POPC   C4A64554  14.427  43.130   7.355
10643POPC   C1B64555  14.270  43.345   6.455
10643POPC   C2B64556  14.289  43.275   6.755
10643POPC   C3B64557  14.256  43.276   7.055
10643POPC   C4B64558  14.255  43.369   7.355
10644POPC   NC364559  22.947  10.537   5.555
10644POPC   PO464560  22.896  10.488   5.855
10644POPC   GL164561  22.954  10.524   6.155
10644POPC   GL264562  23.049  10.451   6.155
10644POPC   C1A64563  22.986  10.525   6.455
10644POPC   D2A64564  22.980  10.516   6.755
10644POPC   C3A64565  22.972  10.561   7.055
10644POPC   C4A64566  22.979  10.501   7.355
10644POPC   C1B64567  23.144  10.400   6.455
10644POPC   C2B64568  23.128  10.388   6.755
10644POPC   C3B64569  23.130  10.333   7.055
10644POPC   C4B64570  23.132  10.360   7.355
10645POPC   NC364571  43.126  31.469   5.555
10645POPC   PO464572  43.098  31.425   5.855
10645POPC   GL164573  43.111  31.514   6.155
10645POPC   GL264574  43.148  31.613   6.155
10645POPC   C1A64575  43.155  31.482   6.455
10645POPC   D2A64576  43.110  31.447   6.755
10645POPC   C3A64577  43.076  31.502   7.055
10645POPC   C4A64578  43.147  31.496   7.355
10645POPC   C1B64579  43.273  31.715   6.455
10645POPC   C2B64580  43.225  31.636   6.755
10645POPC   C3B64581  43.279  31.637   7.055
10645POPC   C4B64582  43.199  31.715   7.355
10646POPC   NC364583   6.610  32.288   5.555
10646POPC   PO464584   6.600  32.228   5.855
10646POPC   GL164585   6.639  32.227   6.155
10646POPC   GL264586   6.544  32.185   6.155
10646POPC   C1A64587   6.624  32.272   6.455
10646POPC   D2A64588   6.693  32.256   6.755
10646POPC   C3A64589   6.615  32.266   7.055
10646POPC   C4A64590   6.612  32.211   7.355
10646POPC   C1B64591   6.383  32.128   6.455
10646POPC   C2B64592   6.474  32.109   6.755
10646POPC   C3B64593   6.467  32.069   7.055
10646POPC   C4B64594   6.398  32.077   7.355
10647POPC   NC364595   3.583  22.157   5.555
10647POPC   PO464596   3.570  22.162   5.855
10647POPC   GL164597   3.558  22.179   6.155
10647POPC   GL264598   3.506  21.990   6.155
10647POPC   C1A64599   3.587  22.174   6.455
10647POPC   D2A64600   3.549  22.164   6.755
10647POPC   C3A64601   3.585  22.157   7.055
10647POPC   C4A64602   3.498  22.143   7.355
10647POPC   C1B64603   3.514  21.907   6.455
10647POPC   C2B64604   3.538  21.871   6.755
10647POPC   C3B64605   3.523  21.923   7.055
10647POPC   C4B64606   3.566  21.904   7.355
10648POPC   NC364607  19.042  12.036   5.555
10648POPC   PO464608  19.083  12.083   5.855
10648POPC   GL164609  19.078  12.068   6.155
10648POPC   GL264610  19.167  12.048   6.155
10648POPC   C1A64611  19.052  12.089   6.455
10648POPC   D2A64612  19.103  12.092   6.755
10648POPC   C3A64613  19.067  12.117   7.055
10648POPC   C4A64614  19.035  12.097   7.355
10648POPC   C1B64615  19.235  11.940   6.455
10648POPC   C2B64616  19.300  11.942   6.755
10648POPC   C3B64617  19.297  11.956   7.055
10648POPC   C4B64618  19.253  11.945   7.355
10649POPC   NC364619   2.017  35.330   5.555
10649POPC   PO464620   2.012  35.389   5.855
10649POPC   GL164621   1.986  35.350   6.155
10649POPC   GL264622   1.917  35.292   6.155
10649POPC   C1A64623   1.992  35.359   6.455
10649POPC   D2A64624   2.020  35.354   6.755
10649POPC   C3A64625   2.027  35.378   7.055
10649POPC   C4A64626   1.987  35.370   7.355
10649POPC   C1B64627   1.756  35.243   6.455
10649POPC   C2B64628   1.825  35.202   6.755
10649POPC   C3B64629   1.810  35.160   7.055
10649POPC   C4B64630   1.778  35.179   7.355
10650POPC   NC364631   9.752  31.484   5.555
10650POPC   PO464632   9.733  31.447   5.855
10650POPC   GL164633   9.753  31.476   6.155
10650POPC   GL264634   9.876  31.587   6.155
10650POPC   C1A64635   9.719  31.486   6.455
10650POPC   D2A64636   9.717  31.473   6.755
10650POPC   C3A64637   9.698  31.521   7.055
10650POPC   C4A64638   9.763  31.511   7.355
10650POPC   C1B64639   9.905  31.616   6.455
10650POPC   C2B64640   9.969  31.635   6.755
10650POPC   C3B64641   9.980  31.663   7.055
10650POPC   C4B64642   9.959  31.604   7.355
10651POPC   NC364643   8.215  36.939   5.555
10651POPC   PO464644   8.202  36.901   5.855
10651POPC   GL164645   8.216  36.947   6.155
10651POPC   GL264646   8.125  36.978   6.155
10651POPC   C1A64647   8.173  36.883   6.455
10651POPC   D2A64648   8.148  36.935   6.755
10651POPC   C3A64649   8.233  36.932   7.055
10651POPC   C4A64650   8.154  36.880   7.355
10651POPC   C1B64651   8.064  37.149   6.455
10651POPC   C2B64652   8.002  37.118   6.755
10651POPC   C3B64653   8.010  37.102   7.055
10651POPC   C4B64654   8.037  37.117   7.355
10652POPC   NC364655   1.958  23.729   5.555
10652POPC   PO464656   1.950  23.704   5.855
10652POPC   GL164657   1.998  23.731   6.155
10652POPC   GL264658   1.973  23.859   6.155
10652POPC   C1A64659   2.016  23.752   6.455
10652POPC   D2A64660   2.015  23.703   6.755
10652POPC   C3A64661   1.949  23.666   7.055
10652POPC   C4A64662   1.981  23.743   7.355
10652POPC   C1B64663   1.946  23.917   6.455
10652POPC   C2B64664   1.966  23.932   6.755
10652POPC   C3B64665   1.958  23.911   7.055
10652POPC   C4B64666   1.957  23.940   7.355
10653POPC   NC364667  38.440  19.071   5.555
10653POPC   PO464668  38.451  19.095   5.855
10653POPC   GL164669  38.438  19.022   6.155
10653POPC   GL264670  38.340  19.172   6.155
10653POPC   C1A64671  38.436  19.106   6.455
10653POPC   D2A64672  38.474  19.068   6.755
10653POPC   C3A64673  38.495  19.035   7.055
10653POPC   C4A64674  38.502  19.052   7.355
10653POPC   C1B64675  38.329  19.290   6.455
10653POPC   C2B64676  38.277  19.202   6.755
10653POPC   C3B64677  38.271  19.230   7.055
10653POPC   C4B64678  38.285  19.204   7.355
10654POPC   NC364679  37.654  38.415   5.555
10654POPC   PO464680  37.676  38.458   5.855
10654POPC   GL164681  37.673  38.440   6.155
10654POPC   GL264682  37.599  38.427   6.155
10654POPC   C1A64683  37.682  38.454   6.455
10654POPC   D2A64684  37.665  38.413   6.755
10654POPC   C3A64685  37.692  38.455   7.055
10654POPC   C4A64686  37.729  38.455   7.355
10654POPC   C1B64687  37.453  38.252   6.455
10654POPC   C2B64688  37.469  38.298   6.755
10654POPC   C3B64689  37.529  38.303   7.055
10654POPC   C4B64690  37.463  38.301   7.355
10655POPC   NC364691   8.180  40.024   5.555
10655POPC   PO464692   8.202  40.022   5.855
10655POPC   GL164693   8.202  40.005   6.155
10655POPC   GL264694   8.277  39.943   6.155
10655POPC   C1A64695   8.159  39.985   6.455
10655POPC   D2A64696   8.243  39.985   6.755
10655POPC   C3A64697   8.161  39.970   7.055
10655POPC   C4A64698   8.194  39.995   7.355
10655POPC   C1B64699   8.389  39.916   6.455
10655POPC   C2B64700   8.450  39.881   6.755
10655POPC   C3B64701   8.441  39.929   7.055
10655POPC   C4B64702   8.479  39.931   7.355
10656POPC   NC364703  26.852  26.861   5.555
10656POPC   PO464704  26.859  26.785   5.855
10656POPC   GL164705  26.806  26.769   6.155
10656POPC   GL264706  26.726  26.875   6.155
10656POPC   C1A64707  26.859  26.802   6.455
10656POPC   D2A64708  26.775  26.862   6.755
10656POPC   C3A64709  26.809  26.852   7.055
10656POPC   C4A64710  26.865  26.858   7.355
10656POPC   C1B64711  26.576  26.952   6.455
10656POPC   C2B64712  26.589  26.945   6.755
10656POPC   C3B64713  26.583  26.959   7.055
10656POPC   C4B64714  26.616  26.956   7.355
10657POPC   NC364715  22.187  26.016   5.555
10657POPC   PO464716  22.185  26.035   5.855
10657POPC   GL164717  22.204  26.005   6.155
10657POPC   GL264718  22.030  25.988   6.155
10657POPC   C1A64719  22.175  26.003   6.455
10657POPC   D2A64720  22.121  26.077   6.755
10657POPC   C3A64721  22.200  26.012   7.055
10657POPC   C4A64722  22.201  26.025   7.355
10657POPC   C1B64723  21.925  25.896   6.455
10657POPC   C2B64724  21.956  25.873   6.755
10657POPC   C3B64725  22.018  25.874   7.055
10657POPC   C4B64726  21.946  25.918   7.355
10658POPC   NC364727  19.826  43.849   5.555
10658POPC   PO464728  19.799  43.919   5.855
10658POPC   GL164729  19.872  43.893   6.155
10658POPC   GL264730  19.707  43.947   6.155
10658POPC   C1A64731  19.852  43.864   6.455
10658POPC   D2A64732  19.825  43.900   6.755
10658POPC   C3A64733  19.828  43.911   7.055
10658POPC   C4A64734  19.816  43.886   7.355
10658POPC   C1B64735  19.645  43.988   6.455
10658POPC   C2B64736  19.671  44.074   6.755
10658POPC   C3B64737  19.620  44.065   7.055
10658POPC   C4B64738  19.615  44.043   7.355
10659POPC   NC364739  14.354  32.216   5.555
10659POPC   PO464740  14.379  32.277   5.855
10659POPC   GL164741  14.438  32.248   6.155
10659POPC   GL264742  14.515  32.229   6.155
10659POPC   C1A64743  14.369  32.281   6.455
10659POPC   D2A64744  14.381  32.288   6.755
10659POPC   C3A64745  14.383  32.226   7.055
10659POPC   C4A64746  14.427  32.252   7.355
10659POPC   C1B64747  14.648  32.073   6.455
10659POPC   C2B64748  14.655  32.082   6.755
10659POPC   C3B64749  14.636  32.109   7.055
10659POPC   C4B64750  14.660  32.083   7.355
10660POPC   NC364751  29.184  12.831   5.555
10660POPC   PO464752  29.104  12.866   5.855
10660POPC   GL164753  29.128  12.842   6.155
10660POPC   GL264754  28.986  12.838   6.155
10660POPC   C1A64755  29.184  12.841   6.455
10660POPC   D2A64756  29.180  12.811   6.755
10660POPC   C3A64757  29.184  12.841   7.055
10660POPC   C4A64758  29.098  12.889   7.355
10660POPC   C1B64759  28.945  12.842   6.455
10660POPC   C2B64760  28.897  12.881   6.755
10660POPC   C3B64761  28.853  12.853   7.055
10660POPC   C4B64762  28.927  12.886   7.355
10661POPC   NC364763  39.965   3.515   5.555
10661POPC   PO464764  40.043   3.497   5.855
10661POPC   GL164765  39.982   3.520   6.155
10661POPC   GL264766  39.969   3.403   6.155
10661POPC   C1A64767  40.010   3.515   6.455
10661POPC   D2A64768  40.027   3.555   6.755
10661POPC   C3A64769  39.978   3.541   7.055
10661POPC   C4A64770  40.004   3.577   7.355
10661POPC   C1B64771  39.843   3.310   6.455
10661POPC   C2B64772  39.888   3.317   6.755
10661POPC   C3B64773  39.821   3.395   7.055
10661POPC   C4B64774  39.887   3.382   7.355
10662POPC   NC364775   5.868  19.800   5.555
10662POPC   PO464776   5.901  19.880   5.855
10662POPC   GL164777   5.863  19.806   6.155
10662POPC   GL264778   5.843  19.720   6.155
10662POPC   C1A64779   5.892  19.841   6.455
10662POPC   D2A64780   5.883  19.881   6.755
10662POPC   C3A64781   5.828  19.810   7.055
10662POPC   C4A64782   5.869  19.881   7.355
10662POPC   C1B64783   5.793  19.616   6.455
10662POPC   C2B64784   5.891  19.601   6.755
10662POPC   C3B64785   5.836  19.538   7.055
10662POPC   C4B64786   5.880  19.620   7.355
10663POPC   NC364787  36.109  14.428   5.555
10663POPC   PO464788  36.135  14.368   5.855
10663POPC   GL164789  36.119  14.436   6.155
10663POPC   GL264790  35.997  14.352   6.155
10663POPC   C1A64791  36.147  14.450   6.455
10663POPC   D2A64792  36.120  14.393   6.755
10663POPC   C3A64793  36.144  14.373   7.055
10663POPC   C4A64794  36.083  14.371   7.355
10663POPC   C1B64795  35.872  14.295   6.455
10663POPC   C2B64796  35.916  14.281   6.755
10663POPC   C3B64797  35.876  14.356   7.055
10663POPC   C4B64798  35.870  14.366   7.355
10664POPC   NC364799  38.427  13.633   5.555
10664POPC   PO464800  38.477  13.642   5.855
10664POPC   GL164801  38.482  13.641   6.155
10664POPC   GL264802  38.333  13.664   6.155
10664POPC   C1A64803  38.445  13.677   6.455
10664POPC   D2A64804  38.490  13.656   6.755
10664POPC   C3A64805  38.419  13.645   7.055
10664POPC   C4A64806  38.467  13.610   7.355
10664POPC   C1B64807  38.248  13.754   6.455
10664POPC   C2B64808  38.307  13.825   6.755
10664POPC   C3B64809  38.284  13.824   7.055
10664POPC   C4B64810  38.291  13.757   7.355
10665POPC   NC364811  23.691   5.129   5.555
10665POPC   PO464812  23.762   5.131   5.855
10665POPC   GL164813  23.699   5.080   6.155
10665POPC   GL264814  23.828   5.055   6.155
10665POPC   C1A64815  23.697   5.117   6.455
10665POPC   D2A64816  23.720   5.127   6.755
10665POPC   C3A64817  23.737   5.126   7.055
10665POPC   C4A64818  23.732   5.118   7.355
10665POPC   C1B64819  23.906   4.960   6.455
10665POPC   C2B64820  23.977   5.013   6.755
10665POPC   C3B64821  23.924   4.983   7.055
10665POPC   C4B64822  23.898   4.933   7.355
10666POPC   NC364823  32.228  30.730   5.555
10666POPC   PO464824  32.216  30.685   5.855
10666POPC   GL164825  32.216  30.662   6.155
10666POPC   GL264826  32.348  30.641   6.155
10666POPC   C1A64827  32.246  30.683   6.455
10666POPC   D2A64828  32.259  30.746   6.755
10666POPC   C3A64829  32.249  30.671   7.055
10666POPC   C4A64830  32.206  30.669   7.355
10666POPC   C1B64831  32.425  30.559   6.455
10666POPC   C2B64832  32.498  30.591   6.755
10666POPC   C3B64833  32.520  30.578   7.055
10666POPC   C4B64834  32.434  30.549   7.355
10667POPC   NC364835  22.961  38.487   5.555
10667POPC   PO464836  22.947  38.480   5.855
10667POPC   GL164837  22.942  38.447   6.155
10667POPC   GL264838  22.854  38.508   6.155
10667POPC   C1A64839  22.933  38.499   6.455
10667POPC   D2A64840  22.912  38.436   6.755
10667POPC   C3A64841  22.930  38.440   7.055
10667POPC   C4A64842  22.959  38.479   7.355
10667POPC   C1B64843  22.736  38.520   6.455
10667POPC   C2B64844  22.739  38.581   6.755
10667POPC   C3B64845  22.703  38.499   7.055
10667POPC   C4B64846  22.685  38.553   7.355
10668POPC   NC364847  19.794  38.475   5.555
10668POPC   PO464848  19.806  38.493   5.855
10668POPC   GL164849  19.795  38.490   6.155
10668POPC   GL264850  19.932  38.569   6.155
10668POPC   C1A64851  19.884  38.476   6.455
10668POPC   D2A64852  19.809  38.452   6.755
10668POPC   C3A64853  19.814  38.468   7.055
10668POPC   C4A64854  19.860  38.476   7.355
10668POPC   C1B64855  20.057  38.559   6.455
10668POPC   C2B64856  20.035  38.633   6.755
10668POPC   C3B64857  20.022  38.594   7.055
10668POPC   C4B64858  20.084  38.595   7.355
10669POPC   NC364859   6.632  10.556   5.555
10669POPC   PO464860   6.662  10.505   5.855
10669POPC   GL164861   6.646  10.562   6.155
10669POPC   GL264862   6.744  10.510   6.155
10669POPC   C1A64863   6.598  10.542   6.455
10669POPC   D2A64864   6.643  10.503   6.755
10669POPC   C3A64865   6.632  10.566   7.055
10669POPC   C4A64866   6.612  10.572   7.355
10669POPC   C1B64867   6.878  10.512   6.455
10669POPC   C2B64868   6.845  10.542   6.755
10669POPC   C3B64869   6.875  10.590   7.055
10669POPC   C4B64870   6.882  10.558   7.355
10670POPC   NC364871  39.242  25.992   5.555
10670POPC   PO464872  39.211  25.998   5.855
10670POPC   GL164873  39.191  25.998   6.155
10670POPC   GL264874  39.172  25.883   6.155
10670POPC   C1A64875  39.181  26.027   6.455
10670POPC   D2A64876  39.233  26.072   6.755
10670POPC   C3A64877  39.248  26.007   7.055
10670POPC   C4A64878  39.244  26.071   7.355
10670POPC   C1B64879  39.215  25.773   6.455
10670POPC   C2B64880  39.156  25.803   6.755
10670POPC   C3B64881  39.169  25.796   7.055
10670POPC   C4B64882  39.176  25.836   7.355
10671POPC   NC364883   3.576   2.016   5.555
10671POPC   PO464884   3.523   1.973   5.855
10671POPC   GL164885   3.541   2.031   6.155
10671POPC   GL264886   3.454   2.065   6.155
10671POPC   C1A64887   3.540   1.980   6.455
10671POPC   D2A64888   3.494   1.985   6.755
10671POPC   C3A64889   3.533   1.973   7.055
10671POPC   C4A64890   3.588   1.982   7.355
10671POPC   C1B64891   3.312   2.017   6.455
10671POPC   C2B64892   3.266   2.076   6.755
10671POPC   C3B64893   3.275   2.085   7.055
10671POPC   C4B64894   3.318   2.084   7.355
10672POPC   NC364895  22.143  12.110   5.555
10672POPC   PO464896  22.197  12.049   5.855
10672POPC   GL164897  22.144  12.068   6.155
10672POPC   GL264898  22.018  11.999   6.155
10672POPC   C1A64899  22.132  12.118   6.455
10672POPC   D2A64900  22.120  12.105   6.755
10672POPC   C3A64901  22.189  12.123   7.055
10672POPC   C4A64902  22.175  12.037   7.355
10672POPC   C1B64903  21.952  11.931   6.455
10672POPC   C2B64904  21.990  11.986   6.755
10672POPC   C3B64905  21.915  11.994   7.055
10672POPC   C4B64906  21.989  11.925   7.355
10673POPC   NC364907  34.535  22.172   5.555
10673POPC   PO464908  34.537  22.143   5.855
10673POPC   GL164909  34.571  22.185   6.155
10673POPC   GL264910  34.632  22.230   6.155
10673POPC   C1A64911  34.543  22.163   6.455
10673POPC   D2A64912  34.529  22.132   6.755
10673POPC   C3A64913  34.542  22.199   7.055
10673POPC   C4A64914  34.594  22.171   7.355
10673POPC   C1B64915  34.679  22.419   6.455
10673POPC   C2B64916  34.675  22.410   6.755
10673POPC   C3B64917  34.746  22.371   7.055
10673POPC   C4B64918  34.689  22.371   7.355
10674POPC   NC364919  30.710  22.966   5.555
10674POPC   PO464920  30.721  22.979   5.855
10674POPC   GL164921  30.664  22.948   6.155
10674POPC   GL264922  30.575  22.817   6.155
10674POPC   C1A64923  30.710  22.922   6.455
10674POPC   D2A64924  30.732  22.910   6.755
10674POPC   C3A64925  30.715  22.929   7.055
10674POPC   C4A64926  30.722  22.920   7.355
10674POPC   C1B64927  30.452  22.741   6.455
10674POPC   C2B64928  30.447  22.810   6.755
10674POPC   C3B64929  30.464  22.832   7.055
10674POPC   C4B64930  30.468  22.743   7.355
10675POPC   NC364931   5.052  14.438   5.555
10675POPC   PO464932   5.062  14.396   5.855
10675POPC   GL164933   5.132  14.373   6.155
10675POPC   GL264934   5.090  14.326   6.155
10675POPC   C1A64935   5.119  14.358   6.455
10675POPC   D2A64936   5.137  14.370   6.755
10675POPC   C3A64937   5.056  14.377   7.055
10675POPC   C4A64938   5.081  14.404   7.355
10675POPC   C1B64939   5.110  14.147   6.455
10675POPC   C2B64940   5.132  14.143   6.755
10675POPC   C3B64941   5.058  14.201   7.055
10675POPC   C4B64942   5.085  14.150   7.355
10676POPC   NC364943  17.502  38.466   5.555
10676POPC   PO464944  17.477  38.480   5.855
10676POPC   GL164945  17.472  38.459   6.155
10676POPC   GL264946  17.507  38.303   6.155
10676POPC   C1A64947  17.542  38.436   6.455
10676POPC   D2A64948  17.548  38.440   6.755
10676POPC   C3A64949  17.543  38.440   7.055
10676POPC   C4A64950  17.477  38.407   7.355
10676POPC   C1B64951  17.477  38.178   6.455
10676POPC   C2B64952  17.397  38.232   6.755
10676POPC   C3B64953  17.408  38.237   7.055
10676POPC   C4B64954  17.423  38.223   7.355
10677POPC   NC364955  20.604  26.056   5.555
10677POPC   PO464956  20.640  26.063   5.855
10677POPC   GL164957  20.588  26.024   6.155
10677POPC   GL264958  20.597  25.910   6.155
10677POPC   C1A64959  20.582  26.076   6.455
10677POPC   D2A64960  20.596  26.079   6.755
10677POPC   C3A64961  20.576  26.025   7.055
10677POPC   C4A64962  20.570  26.029   7.355
10677POPC   C1B64963  20.604  25.748   6.455
10677POPC   C2B64964  20.675  25.777   6.755
10677POPC   C3B64965  20.606  25.743   7.055
10677POPC   C4B64966  20.613  25.800   7.355
10678POPC   NC364967  42.380   3.564   5.555
10678POPC   PO464968  42.343   3.510   5.855
10678POPC   GL164969  42.367   3.550   6.155
10678POPC   GL264970  42.495   3.566   6.155
10678POPC   C1A64971  42.284   3.504   6.455
10678POPC   D2A64972  42.345   3.523   6.755
10678POPC   C3A64973  42.312   3.591   7.055
10678POPC   C4A64974  42.355   3.520   7.355
10678POPC   C1B64975  42.537   3.562   6.455
10678POPC   C2B64976  42.612   3.656   6.755
10678POPC   C3B64977  42.544   3.566   7.055
10678POPC   C4B64978  42.535   3.577   7.355
10679POPC   NC364979  32.285  26.086   5.555
10679POPC   PO464980  32.265  26.018   5.855
10679POPC   GL164981  32.218  25.992   6.155
10679POPC   GL264982  32.364  26.061   6.155
10679POPC   C1A64983  32.282  26.000   6.455
10679POPC   D2A64984  32.210  26.008   6.755
10679POPC   C3A64985  32.287  26.069   7.055
10679POPC   C4A64986  32.274  26.009   7.355
10679POPC   C1B64987  32.503  25.954   6.455
10679POPC   C2B64988  32.541  26.023   6.755
10679POPC   C3B64989  32.470  26.027   7.055
10679POPC   C4B64990  32.467  25.984   7.355
10680POPC   NC364991   1.236   3.565   5.555
10680POPC   PO464992   1.181   3.534   5.855
10680POPC   GL164993   1.249   3.585   6.155
10680POPC   GL264994   1.121   3.462   6.155
10680POPC   C1A64995   1.176   3.498   6.455
10680POPC   D2A64996   1.175   3.506   6.755
10680POPC   C3A64997   1.184   3.493   7.055
10680POPC   C4A64998   1.230   3.510   7.355
10680POPC   C1B64999   1.169   3.274   6.455
10680POPC   C2B65000   1.143   3.287   6.755
10680POPC   C3B65001   1.140   3.279   7.055
10680POPC   C4B65002   1.100   3.310   7.355
10681POPC   NC365003   1.963  31.514   5.555
10681POPC   PO465004   1.997  31.473   5.855
10681POPC   GL165005   1.990  31.449   6.155
10681POPC   GL265006   1.933  31.366   6.155
10681POPC   C1A65007   2.011  31.432   6.455
10681POPC   D2A65008   2.013  31.499   6.755
10681POPC   C3A65009   1.953  31.460   7.055
10681POPC   C4A65010   1.967  31.517   7.355
10681POPC   C1B65011   1.888  31.218   6.455
10681POPC   C2B65012   1.810  31.311   6.755
10681POPC   C3B65013   1.815  31.261   7.055
10681POPC   C4B65014   1.892  31.272   7.355
10682POPC   NC365015  22.200  14.411   5.555
10682POPC   PO465016  22.157  14.373   5.855
10682POPC   GL165017  22.127  14.367   6.155
10682POPC   GL265018  22.024  14.419   6.155
10682POPC   C1A65019  22.151  14.428   6.455
10682POPC   D2A65020  22.210  14.411   6.755
10682POPC   C3A65021  22.211  14.443   7.055
10682POPC   C4A65022  22.177  14.404   7.355
10682POPC   C1B65023  21.906  14.420   6.455
10682POPC   C2B65024  21.927  14.421   6.755
10682POPC   C3B65025  21.900  14.401   7.055
10682POPC   C4B65026  21.924  14.374   7.355
10683POPC   NC365027   0.411   2.734   5.555
10683POPC   PO465028   0.444   2.770   5.855
10683POPC   GL165029   0.464   2.787   6.155
10683POPC   GL265030   0.526   2.905   6.155
10683POPC   C1A65031   0.402   2.756   6.455
10683POPC   D2A65032   0.479   2.721   6.755
10683POPC   C3A65033   0.419   2.761   7.055
10683POPC   C4A65034   0.462   2.779   7.355
10683POPC   C1B65035   0.589   2.974   6.455
10683POPC   C2B65036   0.575   2.966   6.755
10683POPC   C3B65037   0.581   2.980   7.055
10683POPC   C4B65038   0.586   3.025   7.355
10684POPC   NC365039  34.538  40.057   5.555
10684POPC   PO465040  34.557  39.994   5.855
10684POPC   GL165041  34.608  40.044   6.155
10684POPC   GL265042  34.672  39.993   6.155
10684POPC   C1A65043  34.587  39.964   6.455
10684POPC   D2A65044  34.553  40.049   6.755
10684POPC   C3A65045  34.624  39.985   7.055
10684POPC   C4A65046  34.595  40.023   7.355
10684POPC   C1B65047  34.778  40.028   6.455
10684POPC   C2B65048  34.804  40.025   6.755
10684POPC   C3B65049  34.829  40.049   7.055
10684POPC   C4B65050  34.807  40.077   7.355
10685POPC   NC365051   4.337  43.908   5.555
10685POPC   PO465052   4.339  43.931   5.855
10685POPC   GL165053   4.356  43.897   6.155
10685POPC   GL265054   4.390  44.051   6.155
10685POPC   C1A65055   4.311  43.887   6.455
10685POPC   D2A65056   4.287  43.930   6.755
10685POPC   C3A65057   4.360  43.871   7.055
10685POPC   C4A65058   4.305  43.890   7.355
10685POPC   C1B65059   4.357  44.149   6.455
10685POPC   C2B65060   4.365  44.092   6.755
10685POPC   C3B65061   4.378  44.165   7.055
10685POPC   C4B65062   4.398  44.114   7.355
10686POPC   NC365063  21.394  39.203   5.555
10686POPC   PO465064  21.388  39.197   5.855
10686POPC   GL165065  21.376  39.277   6.155
10686POPC   GL265066  21.480  39.265   6.155
10686POPC   C1A65067  21.358  39.216   6.455
10686POPC   D2A65068  21.381  39.205   6.755
10686POPC   C3A65069  21.337  39.248   7.055
10686POPC   C4A65070  21.413  39.191   7.355
10686POPC   C1B65071  21.613  39.250   6.455
10686POPC   C2B65072  21.637  39.231   6.755
10686POPC   C3B65073  21.623  39.246   7.055
10686POPC   C4B65074  21.596  39.221   7.355
10687POPC   NC365075  22.138   7.383   5.555
10687POPC   PO465076  22.195   7.374   5.855
10687POPC   GL165077  22.137   7.455   6.155
10687POPC   GL265078  22.261   7.400   6.155
10687POPC   C1A65079  22.175   7.391   6.455
10687POPC   D2A65080  22.189   7.377   6.755
10687POPC   C3A65081  22.186   7.398   7.055
10687POPC   C4A65082  22.135   7.374   7.355
10687POPC   C1B65083  22.390   7.459   6.455
10687POPC   C2B65084  22.361   7.492   6.755
10687POPC   C3B65085  22.451   7.502   7.055
10687POPC   C4B65086  22.425   7.466   7.355
10688POPC   NC365087  16.710  43.931   5.555
10688POPC   PO465088  16.776  43.890   5.855
10688POPC   GL165089  16.698  43.907   6.155
10688POPC   GL265090  16.726  44.028   6.155
10688POPC   C1A65091  16.720  43.894   6.455
10688POPC   D2A65092  16.717  43.894   6.755
10688POPC   C3A65093  16.695  43.881   7.055
10688POPC   C4A65094  16.764  43.919   7.355
10688POPC   C1B65095  16.757  44.166   6.455
10688POPC   C2B65096  16.834  44.124   6.755
10688POPC   C3B65097  16.748  44.133   7.055
10688POPC   C4B65098  16.802  44.171   7.355
10689POPC   NC365099  21.364   1.208   5.555
10689POPC   PO465100  21.425   1.235   5.855
10689POPC   GL165101  21.432   1.190   6.155
10689POPC   GL265102  21.244   1.133   6.155
10689POPC   C1A65103  21.401   1.189   6.455
10689POPC   D2A65104  21.433   1.240   6.755
10689POPC   C3A65105  21.395   1.225   7.055
10689POPC   C4A65106  21.357   1.196   7.355
10689POPC   C1B65107  21.124   1.143   6.455
10689POPC   C2B65108  21.147   1.122   6.755
10689POPC   C3B65109  21.117   1.192   7.055
10689POPC   C4B65110  21.130   1.140   7.355
10690POPC   NC365111   4.274  20.624   5.555
10690POPC   PO465112   4.360  20.601   5.855
10690POPC   GL165113   4.321  20.581   6.155
10690POPC   GL265114   4.183  20.641   6.155
10690POPC   C1A65115   4.338  20.630   6.455
10690POPC   D2A65116   4.355  20.619   6.755
10690POPC   C3A65117   4.361  20.585   7.055
10690POPC   C4A65118   4.358  20.625   7.355
10690POPC   C1B65119   4.088  20.589   6.455
10690POPC   C2B65120   4.018  20.623   6.755
10690POPC   C3B65121   4.046  20.646   7.055
10690POPC   C4B65122   4.072  20.655   7.355
10691POPC   NC365123  44.671  13.636   5.555
10691POPC   PO465124  44.635  13.663   5.855
10691POPC   GL165125  44.679  13.647   6.155
10691POPC   GL265126  44.709  13.738   6.155
10691POPC   C1A65127  44.634  13.581   6.455
10691POPC   D2A65128  44.695  13.672   6.755
10691POPC   C3A65129  44.711  13.642   7.055
10691POPC   C4A65130  44.705  13.627   7.355
10691POPC   C1B65131  44.714  13.833   6.455
10691POPC   C2B65132  44.715  13.844   6.755
10691POPC   C3B65133  44.717  13.864   7.055
10691POPC   C4B65134  44.668  13.842   7.355
10692POPC   NC365135  26.062   8.156   5.555
10692POPC   PO465136  26.036   8.225   5.855
10692POPC   GL165137  26.031   8.233   6.155
10692POPC   GL265138  26.150   8.112   6.155
10692POPC   C1A65139  26.067   8.152   6.455
10692POPC   D2A65140  26.016   8.165   6.755
10692POPC   C3A65141  25.997   8.178   7.055
10692POPC   C4A65142  26.009   8.173   7.355
10692POPC   C1B65143  26.161   7.997   6.455
10692POPC   C2B65144  26.164   7.938   6.755
10692POPC   C3B65145  26.200   8.025   7.055
10692POPC   C4B65146  26.202   7.965   7.355
10693POPC   NC365147  36.895   5.086   5.555
10693POPC   PO465148  36.910   5.092   5.855
10693POPC   GL165149  36.892   5.140   6.155
10693POPC   GL265150  36.888   5.024   6.155
10693POPC   C1A65151  36.857   5.103   6.455
10693POPC   D2A65152  36.869   5.127   6.755
10693POPC   C3A65153  36.948   5.130   7.055
10693POPC   C4A65154  36.931   5.071   7.355
10693POPC   C1B65155  36.809   4.830   6.455
10693POPC   C2B65156  36.824   4.890   6.755
10693POPC   C3B65157  36.830   4.816   7.055
10693POPC   C4B65158  36.805   4.841   7.355
10694POPC   NC365159   5.891  30.688   5.555
10694POPC   PO465160   5.867  30.700   5.855
10694POPC   GL165161   5.915  30.650   6.155
10694POPC   GL265162   5.952  30.617   6.155
10694POPC   C1A65163   5.841  30.693   6.455
10694POPC   D2A65164   5.878  30.691   6.755
10694POPC   C3A65165   5.914  30.686   7.055
10694POPC   C4A65166   5.877  30.652   7.355
10694POPC   C1B65167   5.955  30.474   6.455
10694POPC   C2B65168   5.961  30.421   6.755
10694POPC   C3B65169   5.975  30.438   7.055
10694POPC   C4B65170   5.996  30.512   7.355
10695POPC   NC365171   2.741  33.777   5.555
10695POPC   PO465172   2.760  33.822   5.855
10695POPC   GL165173   2.805  33.759   6.155
10695POPC   GL265174   2.679  33.912   6.155
10695POPC   C1A65175   2.747  33.830   6.455
10695POPC   D2A65176   2.725  33.848   6.755
10695POPC   C3A65177   2.720  33.826   7.055
10695POPC   C4A65178   2.730  33.827   7.355
10695POPC   C1B65179   2.634  33.997   6.455
10695POPC   C2B65180   2.615  34.011   6.755
10695POPC   C3B65181   2.624  33.988   7.055
10695POPC   C4B65182   2.617  33.976   7.355
10696POPC   NC365183  41.522   5.859   5.555
10696POPC   PO465184  41.592   5.840   5.855
10696POPC   GL165185  41.579   5.864   6.155
10696POPC   GL265186  41.551   5.696   6.155
10696POPC   C1A65187  41.573   5.851   6.455
10696POPC   D2A65188  41.585   5.898   6.755
10696POPC   C3A65189  41.510   5.856   7.055
10696POPC   C4A65190  41.546   5.878   7.355
10696POPC   C1B65191  41.530   5.629   6.455
10696POPC   C2B65192  41.502   5.591   6.755
10696POPC   C3B65193  41.517   5.578   7.055
10696POPC   C4B65194  41.488   5.585   7.355
10697POPC   NC365195  13.588  24.534   5.555
10697POPC   PO465196  13.634  24.464   5.855
10697POPC   GL165197  13.609  24.442   6.155
10697POPC   GL265198  13.713  24.344   6.155
10697POPC   C1A65199  13.598  24.509   6.455
10697POPC   D2A65200  13.635  24.460   6.755
10697POPC   C3A65201  13.653  24.459   7.055
10697POPC   C4A65202  13.663  24.467   7.355
10697POPC   C1B65203  13.791  24.338   6.455
10697POPC   C2B65204  13.834  24.267   6.755
10697POPC   C3B65205  13.813  24.335   7.055
10697POPC   C4B65206  13.832  24.337   7.355
10698POPC   NC365207  40.017   7.392   5.555
10698POPC   PO465208  39.971   7.468   5.855
10698POPC   GL165209  39.978   7.419   6.155
10698POPC   GL265210  39.922   7.369   6.155
10698POPC   C1A65211  40.035   7.447   6.455
10698POPC   D2A65212  40.013   7.412   6.755
10698POPC   C3A65213  40.048   7.403   7.055
10698POPC   C4A65214  39.995   7.430   7.355
10698POPC   C1B65215  39.757   7.326   6.455
10698POPC   C2B65216  39.800   7.308   6.755
10698POPC   C3B65217  39.767   7.319   7.055
10698POPC   C4B65218  39.736   7.333   7.355
10699POPC   NC365219  20.567  29.953   5.555
10699POPC   PO465220  20.654  29.911   5.855
10699POPC   GL165221  20.588  29.940   6.155
10699POPC   GL265222  20.526  29.957   6.155
10699POPC   C1A65223  20.583  29.946   6.455
10699POPC   D2A65224  20.562  29.969   6.755
10699POPC   C3A65225  20.573  29.956   7.055
10699POPC   C4A65226  20.612  29.940   7.355
10699POPC   C1B65227  20.341  30.023   6.455
10699POPC   C2B65228  20.402  30.029   6.755
10699POPC   C3B65229  20.404  29.942   7.055
10699POPC   C4B65230  20.326  30.032   7.355
10700POPC   NC365231  35.351  39.256   5.555
10700POPC   PO465232  35.317  39.215   5.855
10700POPC   GL165233  35.393  39.204   6.155
10700POPC   GL265234  35.219  39.183   6.155
10700POPC   C1A65235  35.305  39.279   6.455
10700POPC   D2A65236  35.343  39.202   6.755
10700POPC   C3A65237  35.360  39.198   7.055
10700POPC   C4A65238  35.322  39.249   7.355
10700POPC   C1B65239  35.145  39.171   6.455
10700POPC   C2B65240  35.070  39.236   6.755
10700POPC   C3B65241  35.122  39.193   7.055
10700POPC   C4B65242  35.076  39.178   7.355
10701POPC   NC365243  23.671   6.611   5.555
10701POPC   PO465244  23.672   6.658   5.855
10701POPC   GL165245  23.727   6.666   6.155
10701POPC   GL265246  23.852   6.755   6.155
10701POPC   C1A65247  23.723   6.678   6.455
10701POPC   D2A65248  23.713   6.629   6.755
10701POPC   C3A65249  23.743   6.685   7.055
10701POPC   C4A65250  23.759   6.639   7.355
10701POPC   C1B65251  23.916   6.755   6.455
10701POPC   C2B65252  23.958   6.771   6.755
10701POPC   C3B65253  23.880   6.728   7.055
10701POPC   C4B65254  23.935   6.785   7.355
10702POPC   NC365255  15.211  41.579   5.555
10702POPC   PO465256  15.180  41.593   5.855
10702POPC   GL165257  15.141  41.596   6.155
10702POPC   GL265258  15.080  41.671   6.155
10702POPC   C1A65259  15.214  41.543   6.455
10702POPC   D2A65260  15.150  41.521   6.755
10702POPC   C3A65261  15.174  41.576   7.055
10702POPC   C4A65262  15.186  41.586   7.355
10702POPC   C1B65263  15.050  41.739   6.455
10702POPC   C2B65264  15.040  41.793   6.755
10702POPC   C3B65265  15.117  41.810   7.055
10702POPC   C4B65266  15.094  41.798   7.355
10703POPC   NC365267  31.428  30.671   5.555
10703POPC   PO465268  31.516  30.721   5.855
10703POPC   GL165269  31.452  30.702   6.155
10703POPC   GL265270  31.567  30.654   6.155
10703POPC   C1A65271  31.453  30.667   6.455
10703POPC   D2A65272  31.486  30.701   6.755
10703POPC   C3A65273  31.484  30.746   7.055
10703POPC   C4A65274  31.468  30.680   7.355
10703POPC   C1B65275  31.616  30.486   6.455
10703POPC   C2B65276  31.647  30.564   6.755
10703POPC   C3B65277  31.643  30.543   7.055
10703POPC   C4B65278  31.642  30.539   7.355
10704POPC   NC365279   4.343  18.276   5.555
10704POPC   PO465280   4.281  18.249   5.855
10704POPC   GL165281   4.294  18.276   6.155
10704POPC   GL265282   4.212  18.388   6.155
10704POPC   C1A65283   4.362  18.236   6.455
10704POPC   D2A65284   4.283  18.310   6.755
10704POPC   C3A65285   4.351  18.251   7.055
10704POPC   C4A65286   4.309  18.244   7.355
10704POPC   C1B65287   4.131  18.457   6.455
10704POPC   C2B65288   4.137  18.410   6.755
10704POPC   C3B65289   4.103  18.393   7.055
10704POPC   C4B65290   4.103  18.412   7.355
10705POPC   NC365291  41.599  43.089   5.555
10705POPC   PO465292  41.570  43.084   5.855
10705POPC   GL165293  41.551  43.089   6.155
10705POPC   GL265294  41.444  43.124   6.155
10705POPC   C1A65295  41.606  43.158   6.455
10705POPC   D2A65296  41.549  43.154   6.755
10705POPC   C3A65297  41.521  43.119   7.055
10705POPC   C4A65298  41.581  43.102   7.355
10705POPC   C1B65299  41.308  43.063   6.455
10705POPC   C2B65300  41.350  43.147   6.755
10705POPC   C3B65301  41.289  43.084   7.055
10705POPC   C4B65302  41.306  43.150   7.355
10706POPC   NC365303  26.846  15.182   5.555
10706POPC   PO465304  26.838  15.203   5.855
10706POPC   GL165305  26.804  15.154   6.155
10706POPC   GL265306  26.722  15.296   6.155
10706POPC   C1A65307  26.815  15.209   6.455
10706POPC   D2A65308  26.817  15.191   6.755
10706POPC   C3A65309  26.806  15.198   7.055
10706POPC   C4A65310  26.829  15.167   7.355
10706POPC   C1B65311  26.633  15.433   6.455
10706POPC   C2B65312  26.669  15.418   6.755
10706POPC   C3B65313  26.648  15.374   7.055
10706POPC   C4B65314  26.712  15.391   7.355
10707POPC   NC365315  27.567  15.916   5.555
10707POPC   PO465316  27.622  15.970   5.855
10707POPC   GL165317  27.562  15.993   6.155
10707POPC   GL265318  27.591  16.056   6.155
10707POPC   C1A65319  27.560  15.927   6.455
10707POPC   D2A65320  27.642  15.947   6.755
10707POPC   C3A65321  27.639  15.927   7.055
10707POPC   C4A65322  27.623  15.974   7.355
10707POPC   C1B65323  27.674  16.160   6.455
10707POPC   C2B65324  27.638  16.244   6.755
10707POPC   C3B65325  27.694  16.240   7.055
10707POPC   C4B65326  27.628  16.240   7.355
10708POPC   NC365327  20.632  12.100   5.555
10708POPC   PO465328  20.655  12.052   5.855
10708POPC   GL165329  20.591  12.027   6.155
10708POPC   GL265330  20.526  11.975   6.155
10708POPC   C1A65331  20.632  12.104   6.455
10708POPC   D2A65332  20.577  12.076   6.755
10708POPC   C3A65333  20.604  12.092   7.055
10708POPC   C4A65334  20.602  12.047   7.355
10708POPC   C1B65335  20.502  11.804   6.455
10708POPC   C2B65336  20.522  11.885   6.755
10708POPC   C3B65337  20.471  11.888   7.055
10708POPC   C4B65338  20.500  11.819   7.355
10709POPC   NC365339  29.136   8.960   5.555
10709POPC   PO465340  29.172   8.979   5.855
10709POPC   GL165341  29.173   8.997   6.155
10709POPC   GL265342  29.224   9.105   6.155
10709POPC   C1A65343  29.116   8.967   6.455
10709POPC   D2A65344  29.159   8.953   6.755
10709POPC   C3A65345  29.154   8.943   7.055
10709POPC   C4A65346  29.186   9.000   7.355
10709POPC   C1B65347  29.228   9.205   6.455
10709POPC   C2B65348  29.203   9.206   6.755
10709POPC   C3B65349  29.257   9.211   7.055
10709POPC   C4B65350  29.272   9.164   7.355
10710POPC   NC365351  29.109  35.385   5.555
10710POPC   PO465352  29.149  35.398   5.855
10710POPC   GL165353  29.132  35.367   6.155
10710POPC   GL265354  29.087  35.424   6.155
10710POPC   C1A65355  29.103  35.336   6.455
10710POPC   D2A65356  29.152  35.313   6.755
10710POPC   C3A65357  29.153  35.397   7.055
10710POPC   C4A65358  29.162  35.374   7.355
10710POPC   C1B65359  29.005  35.579   6.455
10710POPC   C2B65360  29.037  35.525   6.755
10710POPC   C3B65361  28.971  35.573   7.055
10710POPC   C4B65362  28.988  35.536   7.355
10711POPC   NC365363  33.824  26.032   5.555
10711POPC   PO465364  33.766  26.030   5.855
10711POPC   GL165365  33.810  26.010   6.155
10711POPC   GL265366  33.804  25.876   6.155
10711POPC   C1A65367  33.792  25.999   6.455
10711POPC   D2A65368  33.782  26.079   6.755
10711POPC   C3A65369  33.819  26.063   7.055
10711POPC   C4A65370  33.768  26.070   7.355
10711POPC   C1B65371  33.739  25.802   6.455
10711POPC   C2B65372  33.728  25.832   6.755
10711POPC   C3B65373  33.717  25.765   7.055
10711POPC   C4B65374  33.784  25.816   7.355
10712POPC   NC365375  15.185  15.155   5.555
10712POPC   PO465376  15.194  15.149   5.855
10712POPC   GL165377  15.170  15.157   6.155
10712POPC   GL265378  15.161  15.012   6.155
10712POPC   C1A65379  15.164  15.208   6.455
10712POPC   D2A65380  15.224  15.220   6.755
10712POPC   C3A65381  15.182  15.136   7.055
10712POPC   C4A65382  15.182  15.175   7.355
10712POPC   C1B65383  15.239  14.942   6.455
10712POPC   C2B65384  15.157  14.883   6.755
10712POPC   C3B65385  15.193  14.925   7.055
10712POPC   C4B65386  15.209  14.909   7.355
10713POPC   NC365387  27.610  24.477   5.555
10713POPC   PO465388  27.586  24.512   5.855
10713POPC   GL165389  27.600  24.526   6.155
10713POPC   GL265390  27.569  24.598   6.155
10713POPC   C1A65391  27.555  24.470   6.455
10713POPC   D2A65392  27.612  24.523   6.755
10713POPC   C3A65393  27.613  24.494   7.055
10713POPC   C4A65394  27.601  24.510   7.355
10713POPC   C1B65395  27.493  24.761   6.455
10713POPC   C2B65396  27.493  24.691   6.755
10713POPC   C3B65397  27.555  24.720   7.055
10713POPC   C4B65398  27.545  24.729   7.355
10714POPC   NC365399  33.043  15.185   5.555
10714POPC   PO465400  33.003  15.144   5.855
10714POPC   GL165401  32.991  15.202   6.155
10714POPC   GL265402  33.017  15.019   6.155
10714POPC   C1A65403  32.984  15.184   6.455
10714POPC   D2A65404  33.022  15.191   6.755
10714POPC   C3A65405  33.038  15.155   7.055
10714POPC   C4A65406  33.055  15.212   7.355
10714POPC   C1B65407  33.095  14.919   6.455
10714POPC   C2B65408  33.083  14.913   6.755
10714POPC   C3B65409  33.117  14.957   7.055
10714POPC   C4B65410  33.067  14.923   7.355
10715POPC   NC365411  16.698  14.439   5.555
10715POPC   PO465412  16.775  14.425   5.855
10715POPC   GL165413  16.765  14.388   6.155
10715POPC   GL265414  16.884  14.353   6.155
10715POPC   C1A65415  16.758  14.441   6.455
10715POPC   D2A65416  16.694  14.376   6.755
10715POPC   C3A65417  16.686  14.388   7.055
10715POPC   C4A65418  16.704  14.430   7.355
10715POPC   C1B65419  16.964  14.261   6.455
10715POPC   C2B65420  16.940  14.312   6.755
10715POPC   C3B65421  16.993  14.333   7.055
10715POPC   C4B65422  16.918  14.322   7.355
10716POPC   NC365423   8.974  26.076   5.555
10716POPC   PO465424   9.000  26.037   5.855
10716POPC   GL165425   9.005  26.045   6.155
10716POPC   GL265426   8.867  26.115   6.155
10716POPC   C1A65427   8.968  26.003   6.455
10716POPC   D2A65428   8.960  26.006   6.755
10716POPC   C3A65429   8.971  26.075   7.055
10716POPC   C4A65430   8.954  26.088   7.355
10716POPC   C1B65431   8.805  26.207   6.455
10716POPC   C2B65432   8.776  26.164   6.755
10716POPC   C3B65433   8.794  26.168   7.055
10716POPC   C4B65434   8.765  26.172   7.355
10717POPC   NC365435  25.260  38.488   5.555
10717POPC   PO465436  25.232  38.466   5.855
10717POPC   GL165437  25.238  38.465   6.155
10717POPC   GL265438  25.226  38.373   6.155
10717POPC   C1A65439  25.295  38.454   6.455
10717POPC   D2A65440  25.312  38.499   6.755
10717POPC   C3A65441  25.243  38.497   7.055
10717POPC   C4A65442  25.216  38.408   7.355
10717POPC   C1B65443  25.219  38.161   6.455
10717POPC   C2B65444  25.176  38.233   6.755
10717POPC   C3B65445  25.183  38.167   7.055
10717POPC   C4B65446  25.207  38.204   7.355
10718POPC   NC365447  35.319  44.651   5.555
10718POPC   PO465448  35.353  44.689   5.855
10718POPC   GL165449  35.362  44.676   6.155
10718POPC   GL265450  35.425  44.582   6.155
10718POPC   C1A65451  35.338  44.626   6.455
10718POPC   D2A65452  35.348  44.707   6.755
10718POPC   C3A65453  35.360  44.621   7.055
10718POPC   C4A65454  35.367  44.623   7.355
10718POPC   C1B65455  35.476  44.465   6.455
10718POPC   C2B65456  35.525  44.465   6.755
10718POPC   C3B65457  35.522  44.505   7.055
10718POPC   C4B65458  35.565  44.469   7.355
10719POPC   NC365459  30.670  29.964   5.555
10719POPC   PO465460  30.730  29.884   5.855
10719POPC   GL165461  30.717  29.917   6.155
10719POPC   GL265462  30.766  29.974   6.155
10719POPC   C1A65463  30.703  29.886   6.455
10719POPC   D2A65464  30.700  29.946   6.755
10719POPC   C3A65465  30.712  29.900   7.055
10719POPC   C4A65466  30.715  29.909   7.355
10719POPC   C1B65467  30.874  30.060   6.455
10719POPC   C2B65468  30.903  30.124   6.755
10719POPC   C3B65469  30.842  30.090   7.055
10719POPC   C4B65470  30.912  30.129   7.355
10720POPC   NC365471  22.977  11.251   5.555
10720POPC   PO465472  22.984  11.262   5.855
10720POPC   GL165473  22.943  11.341   6.155
10720POPC   GL265474  22.835  11.281   6.155
10720POPC   C1A65475  22.987  11.278   6.455
10720POPC   D2A65476  22.964  11.294   6.755
10720POPC   C3A65477  22.971  11.274   7.055
10720POPC   C4A65478  22.954  11.263   7.355
10720POPC   C1B65479  22.691  11.333   6.455
10720POPC   C2B65480  22.691  11.273   6.755
10720POPC   C3B65481  22.719  11.256   7.055
10720POPC   C4B65482  22.710  11.276   7.355
10721POPC   NC365483  29.872  15.922   5.555
10721POPC   PO465484  29.871  15.921   5.855
10721POPC   GL165485  29.923  15.999   6.155
10721POPC   GL265486  30.032  15.909   6.155
10721POPC   C1A65487  29.928  15.983   6.455
10721POPC   D2A65488  29.939  15.938   6.755
10721POPC   C3A65489  29.953  15.918   7.055
10721POPC   C4A65490  29.954  15.905   7.355
10721POPC   C1B65491  30.098  15.769   6.455
10721POPC   C2B65492  30.092  15.765   6.755
10721POPC   C3B65493  30.116  15.795   7.055
10721POPC   C4B65494  30.147  15.787   7.355
10722POPC   NC365495  36.909   8.178   5.555
10722POPC   PO465496  36.876   8.208   5.855
10722POPC   GL165497  36.930   8.181   6.155
10722POPC   GL265498  37.000   8.282   6.155
10722POPC   C1A65499  36.875   8.223   6.455
10722POPC   D2A65500  36.888   8.149   6.755
10722POPC   C3A65501  36.880   8.158   7.055
10722POPC   C4A65502  36.868   8.215   7.355
10722POPC   C1B65503  37.091   8.448   6.455
10722POPC   C2B65504  37.051   8.399   6.755
10722POPC   C3B65505  37.022   8.389   7.055
10722POPC   C4B65506  37.069   8.368   7.355
10723POPC   NC365507  21.354  44.657   5.555
10723POPC   PO465508  21.346  44.640   5.855
10723POPC   GL165509  21.341  44.640   6.155
10723POPC   GL265510  21.296  44.756   6.155
10723POPC   C1A65511  21.410  44.712   6.455
10723POPC   D2A65512  21.353  44.643   6.755
10723POPC   C3A65513  21.340  44.621   7.055
10723POPC   C4A65514  21.368  44.695   7.355
10723POPC   C1B65515  21.194  44.725   6.455
10723POPC   C2B65516  21.128  44.742   6.755
10723POPC   C3B65517  21.123  44.771   7.055
10723POPC   C4B65518  21.165  44.727   7.355
10724POPC   NC365519  24.528  20.611   5.555
10724POPC   PO465520  24.517  20.583   5.855
10724POPC   GL165521  24.487  20.567   6.155
10724POPC   GL265522  24.400  20.458   6.155
10724POPC   C1A65523  24.460  20.582   6.455
10724POPC   D2A65524  24.495  20.613   6.755
10724POPC   C3A65525  24.499  20.596   7.055
10724POPC   C4A65526  24.482  20.608   7.355
10724POPC   C1B65527  24.352  20.363   6.455
10724POPC   C2B65528  24.382  20.439   6.755
10724POPC   C3B65529  24.334  20.400   7.055
10724POPC   C4B65530  24.398  20.402   7.355
10725POPC   NC365531  41.542  11.268   5.555
10725POPC   PO465532  41.542  11.315   5.855
10725POPC   GL165533  41.572  11.252   6.155
10725POPC   GL265534  41.478  11.164   6.155
10725POPC   C1A65535  41.580  11.304   6.455
10725POPC   D2A65536  41.543  11.272   6.755
10725POPC   C3A65537  41.564  11.347   7.055
10725POPC   C4A65538  41.542  11.343   7.355
10725POPC   C1B65539  41.456  11.015   6.455
10725POPC   C2B65540  41.525  11.093   6.755
10725POPC   C3B65541  41.480  11.078   7.055
10725POPC   C4B65542  41.464  11.046   7.355
10726POPC   NC365543  39.239   3.570   5.555
10726POPC   PO465544  39.254   3.539   5.855
10726POPC   GL165545  39.189   3.577   6.155
10726POPC   GL265546  39.176   3.696   6.155
10726POPC   C1A65547  39.273   3.532   6.455
10726POPC   D2A65548  39.198   3.518   6.755
10726POPC   C3A65549  39.270   3.521   7.055
10726POPC   C4A65550  39.238   3.547   7.355
10726POPC   C1B65551  39.201   3.765   6.455
10726POPC   C2B65552  39.262   3.798   6.755
10726POPC   C3B65553  39.211   3.808   7.055
10726POPC   C4B65554  39.195   3.751   7.355
10727POPC   NC365555   0.483  33.061   5.555
10727POPC   PO465556   0.401  32.997   5.855
10727POPC   GL165557   0.428  32.984   6.155
10727POPC   GL265558   0.276  32.987   6.155
10727POPC   C1A65559   0.431  33.052   6.455
10727POPC   D2A65560   0.487  33.028   6.755
10727POPC   C3A65561   0.452  33.023   7.055
10727POPC   C4A65562   0.428  33.027   7.355
10727POPC   C1B65563   0.182  33.028   6.455
10727POPC   C2B65564   0.175  33.011   6.755
10727POPC   C3B65565   0.237  32.947   7.055
10727POPC   C4B65566   0.203  33.007   7.355
10728POPC   NC365567   6.694  15.154   5.555
10728POPC   PO465568   6.641  15.188   5.855
10728POPC   GL165569   6.608  15.160   6.155
10728POPC   GL265570   6.635  15.071   6.155
10728POPC   C1A65571   6.629  15.188   6.455
10728POPC   D2A65572   6.649  15.175   6.755
10728POPC   C3A65573   6.650  15.182   7.055
10728POPC   C4A65574   6.683  15.156   7.355
10728POPC   C1B65575   6.651  14.885   6.455
10728POPC   C2B65576   6.637  14.938   6.755
10728POPC   C3B65577   6.584  14.949   7.055
10728POPC   C4B65578   6.626  14.951   7.355
10729POPC   NC365579  36.894  22.891   5.555
10729POPC   PO465580  36.939  22.947   5.855
10729POPC   GL165581  36.908  22.984   6.155
10729POPC   GL265582  36.970  22.872   6.155
10729POPC   C1A65583  36.922  22.906   6.455
10729POPC   D2A65584  36.901  22.910   6.755
10729POPC   C3A65585  36.934  22.921   7.055
10729POPC   C4A65586  36.855  22.972   7.355
10729POPC   C1B65587  37.157  22.870   6.455
10729POPC   C2B65588  37.150  22.866   6.755
10729POPC   C3B65589  37.080  22.830   7.055
10729POPC   C4B65590  37.150  22.827   7.355
10730POPC   NC365591   1.239   8.964   5.555
10730POPC   PO465592   1.231   8.972   5.855
10730POPC   GL165593   1.229   8.973   6.155
10730POPC   GL265594   1.301   8.866   6.155
10730POPC   C1A65595   1.185   8.928   6.455
10730POPC   D2A65596   1.237   8.978   6.755
10730POPC   C3A65597   1.235   8.971   7.055
10730POPC   C4A65598   1.208   8.999   7.355
10730POPC   C1B65599   1.385   8.743   6.455
10730POPC   C2B65600   1.383   8.830   6.755
10730POPC   C3B65601   1.371   8.803   7.055
10730POPC   C4B65602   1.359   8.770   7.355
10731POPC   NC365603  33.772  36.079   5.555
10731POPC   PO465604  33.784  36.080   5.855
10731POPC   GL165605  33.836  36.084   6.155
10731POPC   GL265606  33.802  36.212   6.155
10731POPC   C1A65607  33.823  36.108   6.455
10731POPC   D2A65608  33.795  36.156   6.755
10731POPC   C3A65609  33.768  36.164   7.055
10731POPC   C4A65610  33.839  36.121   7.355
10731POPC   C1B65611  33.908  36.329   6.455
10731POPC   C2B65612  33.924  36.321   6.755
10731POPC   C3B65613  33.856  36.336   7.055
10731POPC   C4B65614  33.927  36.383   7.355
10732POPC   NC365615  24.474  25.993   5.555
10732POPC   PO465616  24.443  26.057   5.855
10732POPC   GL165617  24.487  26.055   6.155
10732POPC   GL265618  24.543  26.087   6.155
10732POPC   C1A65619  24.465  25.999   6.455
10732POPC   D2A65620  24.476  26.021   6.755
10732POPC   C3A65621  24.479  26.057   7.055
10732POPC   C4A65622  24.461  26.012   7.355
10732POPC   C1B65623  24.622  26.267   6.455
10732POPC   C2B65624  24.653  26.197   6.755
10732POPC   C3B65625  24.626  26.186   7.055
10732POPC   C4B65626  24.666  26.272   7.355
10733POPC   NC365627   1.261  24.483   5.555
10733POPC   PO465628   1.175  24.529   5.855
10733POPC   GL165629   1.238  24.524   6.155
10733POPC   GL265630   1.225  24.585   6.155
10733POPC   C1A65631   1.188  24.469   6.455
10733POPC   D2A65632   1.221  24.472   6.755
10733POPC   C3A65633   1.187  24.478   7.055
10733POPC   C4A65634   1.226  24.466   7.355
10733POPC   C1B65635   1.176  24.691   6.455
10733POPC   C2B65636   1.176  24.763   6.755
10733POPC   C3B65637   1.220  24.722   7.055
10733POPC   C4B65638   1.259  24.696   7.355
10734POPC   NC365639   4.288  27.643   5.555
10734POPC   PO465640   4.315  27.572   5.855
10734POPC   GL165641   4.279  27.577   6.155
10734POPC   GL265642   4.204  27.610   6.155
10734POPC   C1A65643   4.335  27.609   6.455
10734POPC   D2A65644   4.310  27.635   6.755
10734POPC   C3A65645   4.282  27.576   7.055
10734POPC   C4A65646   4.338  27.595   7.355
10734POPC   C1B65647   4.052  27.640   6.455
10734POPC   C2B65648   4.079  27.651   6.755
10734POPC   C3B65649   4.064  27.687   7.055
10734POPC   C4B65650   4.100  27.715   7.355
10735POPC   NC365651   8.237  40.786   5.555
10735POPC   PO465652   8.185  40.814   5.855
10735POPC   GL165653   8.170  40.783   6.155
10735POPC   GL265654   8.258  40.648   6.155
10735POPC   C1A65655   8.240  40.754   6.455
10735POPC   D2A65656   8.208  40.763   6.755
10735POPC   C3A65657   8.186  40.735   7.055
10735POPC   C4A65658   8.160  40.806   7.355
10735POPC   C1B65659   8.214  40.571   6.455
10735POPC   C2B65660   8.194  40.521   6.755
10735POPC   C3B65661   8.201  40.497   7.055
10735POPC   C4B65662   8.227  40.515   7.355
10736POPC   NC365663  29.905  11.250   5.555
10736POPC   PO465664  29.898  11.283   5.855
10736POPC   GL165665  29.902  11.300   6.155
10736POPC   GL265666  29.970  11.434   6.155
10736POPC   C1A65667  29.956  11.343   6.455
10736POPC   D2A65668  29.918  11.340   6.755
10736POPC   C3A65669  29.948  11.297   7.055
10736POPC   C4A65670  29.933  11.293   7.355
10736POPC   C1B65671  30.071  11.469   6.455
10736POPC   C2B65672  30.081  11.476   6.755
10736POPC   C3B65673  30.120  11.472   7.055
10736POPC   C4B65674  30.042  11.459   7.355
10737POPC   NC365675  29.158  15.211   5.555
10737POPC   PO465676  29.121  15.132   5.855
10737POPC   GL165677  29.164  15.214   6.155
10737POPC   GL265678  29.097  15.067   6.155
10737POPC   C1A65679  29.157  15.197   6.455
10737POPC   D2A65680  29.107  15.135   6.755
10737POPC   C3A65681  29.173  15.138   7.055
10737POPC   C4A65682  29.138  15.216   7.355
10737POPC   C1B65683  29.144  14.922   6.455
10737POPC   C2B65684  29.133  14.964   6.755
10737POPC   C3B65685  29.083  14.936   7.055
10737POPC   C4B65686  29.136  14.974   7.355
10738POPC   NC365687  29.106  22.907   5.555
10738POPC   PO465688  29.146  22.984   5.855
10738POPC   GL165689  29.115  22.969   6.155
10738POPC   GL265690  29.296  22.942   6.155
10738POPC   C1A65691  29.191  22.979   6.455
10738POPC   D2A65692  29.106  22.918   6.755
10738POPC   C3A65693  29.106  22.893   7.055
10738POPC   C4A65694  29.096  22.958   7.355
10738POPC   C1B65695  29.435  22.986   6.455
10738POPC   C2B65696  29.388  22.975   6.755
10738POPC   C3B65697  29.416  22.972   7.055
10738POPC   C4B65698  29.359  22.915   7.355
10739POPC   NC365699  15.927   1.997   5.555
10739POPC   PO465700  15.908   2.023   5.855
10739POPC   GL165701  15.911   1.997   6.155
10739POPC   GL265702  16.010   2.077   6.155
10739POPC   C1A65703  15.954   2.023   6.455
10739POPC   D2A65704  15.908   1.979   6.755
10739POPC   C3A65705  15.994   2.036   7.055
10739POPC   C4A65706  15.976   2.011   7.355
10739POPC   C1B65707  16.209   2.141   6.455
10739POPC   C2B65708  16.189   2.119   6.755
10739POPC   C3B65709  16.198   2.083   7.055
10739POPC   C4B65710  16.133   2.087   7.355
10740POPC   NC365711  30.703  41.519   5.555
10740POPC   PO465712  30.663  41.556   5.855
10740POPC   GL165713  30.691  41.595   6.155
10740POPC   GL265714  30.596  41.609   6.155
10740POPC   C1A65715  30.709  41.547   6.455
10740POPC   D2A65716  30.706  41.562   6.755
10740POPC   C3A65717  30.702  41.528   7.055
10740POPC   C4A65718  30.671  41.556   7.355
10740POPC   C1B65719  30.548  41.729   6.455
10740POPC   C2B65720  30.496  41.790   6.755
10740POPC   C3B65721  30.554  41.730   7.055
10740POPC   C4B65722  30.550  41.749   7.355
10741POPC   NC365723  44.701  41.600   5.555
10741POPC   PO465724  44.635  41.564   5.855
10741POPC   GL165725  44.652  41.550   6.155
10741POPC   GL265726  44.536  41.516   6.155
10741POPC   C1A65727  44.710  41.600   6.455
10741POPC   D2A65728  44.693  41.515   6.755
10741POPC   C3A65729  44.665  41.518   7.055
10741POPC   C4A65730  44.688  41.524   7.355
10741POPC   C1B65731  44.397  41.492   6.455
10741POPC   C2B65732  44.369  41.494   6.755
10741POPC   C3B65733  44.458  41.482   7.055
10741POPC   C4B65734  44.403  41.559   7.355
10742POPC   NC365735  33.760   4.308   5.555
10742POPC   PO465736  33.773   4.360   5.855
10742POPC   GL165737  33.766   4.324   6.155
10742POPC   GL265738  33.966   4.316   6.155
10742POPC   C1A65739  33.768   4.335   6.455
10742POPC   D2A65740  33.759   4.281   6.755
10742POPC   C3A65741  33.762   4.319   7.055
10742POPC   C4A65742  33.841   4.276   7.355
10742POPC   C1B65743  34.000   4.315   6.455
10742POPC   C2B65744  34.037   4.268   6.755
10742POPC   C3B65745  34.083   4.319   7.055
10742POPC   C4B65746  34.085   4.320   7.355
10743POPC   NC365747  32.253  18.241   5.555
10743POPC   PO465748  32.262  18.264   5.855
10743POPC   GL165749  32.205  18.289   6.155
10743POPC   GL265750  32.285  18.401   6.155
10743POPC   C1A65751  32.214  18.296   6.455
10743POPC   D2A65752  32.269  18.256   6.755
10743POPC   C3A65753  32.277  18.270   7.055
10743POPC   C4A65754  32.212  18.326   7.355
10743POPC   C1B65755  32.237  18.493   6.455
10743POPC   C2B65756  32.293  18.556   6.755
10743POPC   C3B65757  32.230  18.502   7.055
10743POPC   C4B65758  32.200  18.534   7.355
10744POPC   NC365759  44.652  37.724   5.555
10744POPC   PO465760  44.626  37.639   5.855
10744POPC   GL165761  44.662  37.719   6.155
10744POPC   GL265762  44.784  37.678   6.155
10744POPC   C1A65763  44.665  37.701   6.455
10744POPC   D2A65764  44.700  37.686   6.755
10744POPC   C3A65765  44.674  37.644   7.055
10744POPC   C4A65766  44.680  37.704   7.355
10744POPC   C1B65767  44.901  37.697   6.455
10744POPC   C2B65768  44.928  37.681   6.755
10744POPC   C3B65769  44.904  37.721   7.055
10744POPC   C4B65770  44.921  37.709   7.355
10745POPC   NC365771  29.119  15.990   5.555
10745POPC   PO465772  29.162  15.961   5.855
10745POPC   GL165773  29.134  15.924   6.155
10745POPC   GL265774  29.280  16.010   6.155
10745POPC   C1A65775  29.125  15.949   6.455
10745POPC   D2A65776  29.158  15.978   6.755
10745POPC   C3A65777  29.120  15.937   7.055
10745POPC   C4A65778  29.122  15.958   7.355
10745POPC   C1B65779  29.377  15.955   6.455
10745POPC   C2B65780  29.436  16.015   6.755
10745POPC   C3B65781  29.400  15.950   7.055
10745POPC   C4B65782  29.384  15.991   7.355
10746POPC   NC365783  36.900  33.813   5.555
10746POPC   PO465784  36.873  33.803   5.855
10746POPC   GL165785  36.899  33.798   6.155
10746POPC   GL265786  37.040  33.737   6.155
10746POPC   C1A65787  36.923  33.783   6.455
10746POPC   D2A65788  36.931  33.814   6.755
10746POPC   C3A65789  36.952  33.784   7.055
10746POPC   C4A65790  36.947  33.752   7.355
10746POPC   C1B65791  37.137  33.633   6.455
10746POPC   C2B65792  37.087  33.608   6.755
10746POPC   C3B65793  37.128  33.624   7.055
10746POPC   C4B65794  37.074  33.632   7.355
10747POPC   NC365795  12.048  26.051   5.555
10747POPC   PO465796  12.101  26.043   5.855
10747POPC   GL165797  12.065  26.089   6.155
10747POPC   GL265798  12.226  26.098   6.155
10747POPC   C1A65799  12.034  26.031   6.455
10747POPC   D2A65800  12.102  26.005   6.755
10747POPC   C3A65801  12.050  26.003   7.055
10747POPC   C4A65802  12.076  26.017   7.355
10747POPC   C1B65803  12.305  26.139   6.455
10747POPC   C2B65804  12.343  26.115   6.755
10747POPC   C3B65805  12.350  26.110   7.055
10747POPC   C4B65806  12.304  26.063   7.355
10748POPC   NC365807  10.475  40.031   5.555
10748POPC   PO465808  10.551  39.982   5.855
10748POPC   GL165809  10.487  39.991   6.155
10748POPC   GL265810  10.465  40.114   6.155
10748POPC   C1A65811  10.510  40.008   6.455
10748POPC   D2A65812  10.487  40.045   6.755
10748POPC   C3A65813  10.564  40.032   7.055
10748POPC   C4A65814  10.484  39.984   7.355
10748POPC   C1B65815  10.399  40.202   6.455
10748POPC   C2B65816  10.411  40.171   6.755
10748POPC   C3B65817  10.387  40.246   7.055
10748POPC   C4B65818  10.393  40.185   7.355
10749POPC   NC365819   7.459  31.430   5.555
10749POPC   PO465820   7.405  31.465   5.855
10749POPC   GL165821   7.393  31.433   6.155
10749POPC   GL265822   7.363  31.357   6.155
10749POPC   C1A65823   7.446  31.457   6.455
10749POPC   D2A65824   7.436  31.446   6.755
10749POPC   C3A65825   7.402  31.522   7.055
10749POPC   C4A65826   7.429  31.493   7.355
10749POPC   C1B65827   7.197  31.370   6.455
10749POPC   C2B65828   7.235  31.317   6.755
10749POPC   C3B65829   7.165  31.374   7.055
10749POPC   C4B65830   7.188  31.291   7.355
10750POPC   NC365831   0.418  22.905   5.555
10750POPC   PO465832   0.425  22.966   5.855
10750POPC   GL165833   0.473  22.931   6.155
10750POPC   GL265834   0.326  23.012   6.155
10750POPC   C1A65835   0.432  22.968   6.455
10750POPC   D2A65836   0.462  22.907   6.755
10750POPC   C3A65837   0.483  22.970   7.055
10750POPC   C4A65838   0.447  22.899   7.355
10750POPC   C1B65839   0.199  22.978   6.455
10750POPC   C2B65840   0.170  22.982   6.755
10750POPC   C3B65841   0.200  23.045   7.055
10750POPC   C4B65842   0.211  22.968   7.355
10751POPC   NC365843  32.222  42.358   5.555
10751POPC   PO465844  32.218  42.346   5.855
10751POPC   GL165845  32.275  42.330   6.155
10751POPC   GL265846  32.327  42.406   6.155
10751POPC   C1A65847  32.280  42.368   6.455
10751POPC   D2A65848  32.211  42.372   6.755
10751POPC   C3A65849  32.237  42.334   7.055
10751POPC   C4A65850  32.230  42.293   7.355
10751POPC   C1B65851  32.502  42.349   6.455
10751POPC   C2B65852  32.485  42.397   6.755
10751POPC   C3B65853  32.450  42.412   7.055
10751POPC   C4B65854  32.495  42.404   7.355
10752POPC   NC365855  43.147  14.435   5.555
10752POPC   PO465856  43.085  14.449   5.855
10752POPC   GL165857  43.106  14.422   6.155
10752POPC   GL265858  43.027  14.297   6.155
10752POPC   C1A65859  43.066  14.394   6.455
10752POPC   D2A65860  43.096  14.423   6.755
10752POPC   C3A65861  43.150  14.384   7.055
10752POPC   C4A65862  43.088  14.361   7.355
10752POPC   C1B65863  42.891  14.243   6.455
10752POPC   C2B65864  42.969  14.219   6.755
10752POPC   C3B65865  42.883  14.239   7.055
10752POPC   C4B65866  42.898  14.256   7.355
10753POPC   NC365867  30.681  43.923   5.555
10753POPC   PO465868  30.742  43.889   5.855
10753POPC   GL165869  30.674  43.926   6.155
10753POPC   GL265870  30.719  43.775   6.155
10753POPC   C1A65871  30.702  43.866   6.455
10753POPC   D2A65872  30.717  43.900   6.755
10753POPC   C3A65873  30.656  43.930   7.055
10753POPC   C4A65874  30.652  43.888   7.355
10753POPC   C1B65875  30.793  43.668   6.455
10753POPC   C2B65876  30.718  43.597   6.755
10753POPC   C3B65877  30.792  43.624   7.055
10753POPC   C4B65878  30.734  43.604   7.355
10754POPC   NC365879   0.389  11.325   5.555
10754POPC   PO465880   0.468  11.256   5.855
10754POPC   GL165881   0.446  11.302   6.155
10754POPC   GL265882   0.308  11.275   6.155
10754POPC   C1A65883   0.486  11.261   6.455
10754POPC   D2A65884   0.480  11.334   6.755
10754POPC   C3A65885   0.420  11.306   7.055
10754POPC   C4A65886   0.469  11.279   7.355
10754POPC   C1B65887   0.228  11.212   6.455
10754POPC   C2B65888   0.262  11.196   6.755
10754POPC   C3B65889   0.248  11.140   7.055
10754POPC   C4B65890   0.174  11.220   7.355
10755POPC   NC365891  25.279  33.762   5.555
10755POPC   PO465892  25.241  33.765   5.855
10755POPC   GL165893  25.224  33.786   6.155
10755POPC   GL265894  25.262  33.719   6.155
10755POPC   C1A65895  25.306  33.776   6.455
10755POPC   D2A65896  25.302  33.771   6.755
10755POPC   C3A65897  25.291  33.806   7.055
10755POPC   C4A65898  25.231  33.836   7.355
10755POPC   C1B65899  25.225  33.541   6.455
10755POPC   C2B65900  25.280  33.559   6.755
10755POPC   C3B65901  25.307  33.529   7.055
10755POPC   C4B65902  25.284  33.539   7.355
10756POPC   NC365903  10.508  26.776   5.555
10756POPC   PO465904  10.507  26.865   5.855
10756POPC   GL165905  10.529  26.792   6.155
10756POPC   GL265906  10.479  26.669   6.155
10756POPC   C1A65907  10.528  26.775   6.455
10756POPC   D2A65908  10.488  26.816   6.755
10756POPC   C3A65909  10.541  26.801   7.055
10756POPC   C4A65910  10.486  26.852   7.355
10756POPC   C1B65911  10.322  26.576   6.455
10756POPC   C2B65912  10.383  26.602   6.755
10756POPC   C3B65913  10.391  26.630   7.055
10756POPC   C4B65914  10.363  26.584   7.355
10757POPC   NC365915  22.929  20.592   5.555
10757POPC   PO465916  22.902  20.595   5.855
10757POPC   GL165917  22.937  20.574   6.155
10757POPC   GL265918  22.855  20.683   6.155
10757POPC   C1A65919  22.934  20.604   6.455
10757POPC   D2A65920  22.905  20.659   6.755
10757POPC   C3A65921  22.946  20.626   7.055
10757POPC   C4A65922  22.976  20.642   7.355
10757POPC   C1B65923  22.733  20.829   6.455
10757POPC   C2B65924  22.721  20.799   6.755
10757POPC   C3B65925  22.798  20.829   7.055
10757POPC   C4B65926  22.782  20.831   7.355
10758POPC   NC365927  29.907  34.542   5.555
10758POPC   PO465928  29.969  34.612   5.855
10758POPC   GL165929  29.892  34.622   6.155
10758POPC   GL265930  30.066  34.526   6.155
10758POPC   C1A65931  29.958  34.596   6.455
10758POPC   D2A65932  29.872  34.599   6.755
10758POPC   C3A65933  29.881  34.622   7.055
10758POPC   C4A65934  29.874  34.580   7.355
10758POPC   C1B65935  30.184  34.449   6.455
10758POPC   C2B65936  30.138  34.490   6.755
10758POPC   C3B65937  30.161  34.493   7.055
10758POPC   C4B65938  30.107  34.483   7.355
10759POPC   NC365939  10.511   9.735   5.555
10759POPC   PO465940  10.549   9.778   5.855
10759POPC   GL165941  10.486   9.748   6.155
10759POPC   GL265942  10.620   9.663   6.155
10759POPC   C1A65943  10.524   9.798   6.455
10759POPC   D2A65944  10.484   9.778   6.755
10759POPC   C3A65945  10.565   9.788   7.055
10759POPC   C4A65946  10.482   9.746   7.355
10759POPC   C1B65947  10.648   9.506   6.455
10759POPC   C2B65948  10.616   9.563   6.755
10759POPC   C3B65949  10.656   9.531   7.055
10759POPC   C4B65950  10.679   9.528   7.355
10760POPC   NC365951  14.404  43.843   5.555
10760POPC   PO465952  14.421  43.924   5.855
10760POPC   GL165953  14.363  43.893   6.155
10760POPC   GL265954  14.241  43.865   6.155
10760POPC   C1A65955  14.410  43.866   6.455
10760POPC   D2A65956  14.381  43.878   6.755
10760POPC   C3A65957  14.432  43.923   7.055
10760POPC   C4A65958  14.449  43.926   7.355
10760POPC   C1B65959  14.131  43.853   6.455
10760POPC   C2B65960  14.186  43.868   6.755
10760POPC   C3B65961  14.159  43.811   7.055
10760POPC   C4B65962  14.162  43.850   7.355
10761POPC   NC365963   2.717  37.642   5.555
10761POPC   PO465964   2.776  37.693   5.855
10761POPC   GL165965   2.748  37.704   6.155
10761POPC   GL265966   2.883  37.731   6.155
10761POPC   C1A65967   2.782  37.652   6.455
10761POPC   D2A65968   2.730  37.646   6.755
10761POPC   C3A65969   2.732  37.714   7.055
10761POPC   C4A65970   2.784  37.636   7.355
10761POPC   C1B65971   2.926  37.799   6.455
10761POPC   C2B65972   2.924  37.830   6.755
10761POPC   C3B65973   3.017  37.777   7.055
10761POPC   C4B65974   2.932  37.813   7.355
10762POPC   NC365975  24.481  36.092   5.555
10762POPC   PO465976  24.456  36.162   5.855
10762POPC   GL165977  24.441  36.176   6.155
10762POPC   GL265978  24.603  36.250   6.155
10762POPC   C1A65979  24.472  36.160   6.455
10762POPC   D2A65980  24.457  36.141   6.755
10762POPC   C3A65981  24.471  36.170   7.055
10762POPC   C4A65982  24.502  36.139   7.355
10762POPC   C1B65983  24.660  36.314   6.455
10762POPC   C2B65984  24.638  36.346   6.755
10762POPC   C3B65985  24.607  36.311   7.055
10762POPC   C4B65986  24.703  36.280   7.355
10763POPC   NC365987  40.808  31.423   5.555
10763POPC   PO465988  40.737  31.487   5.855
10763POPC   GL165989  40.795  31.520   6.155
10763POPC   GL265990  40.790  31.308   6.155
10763POPC   C1A65991  40.754  31.499   6.455
10763POPC   D2A65992  40.783  31.489   6.755
10763POPC   C3A65993  40.777  31.478   7.055
10763POPC   C4A65994  40.747  31.462   7.355
10763POPC   C1B65995  40.858  31.240   6.455
10763POPC   C2B65996  40.822  31.205   6.755
10763POPC   C3B65997  40.805  31.249   7.055
10763POPC   C4B65998  40.848  31.230   7.355
10764POPC   NC365999  15.143  12.865   5.555
10764POPC   PO466000  15.138  12.804   5.855
10764POPC   GL166001  15.217  12.887   6.155
10764POPC   GL266002  15.352  12.820   6.155
10764POPC   C1A66003  15.161  12.833   6.455
10764POPC   D2A66004  15.222  12.875   6.755
10764POPC   C3A66005  15.131  12.872   7.055
10764POPC   C4A66006  15.146  12.871   7.355
10764POPC   C1B66007  15.437  12.797   6.455
10764POPC   C2B66008  15.417  12.839   6.755
10764POPC   C3B66009  15.461  12.851   7.055
10764POPC   C4B66010  15.427  12.849   7.355
10765POPC   NC366011  22.191   2.733   5.555
10765POPC   PO466012  22.143   2.776   5.855
10765POPC   GL166013  22.116   2.739   6.155
10765POPC   GL266014  22.073   2.677   6.155
10765POPC   C1A66015  22.142   2.723   6.455
10765POPC   D2A66016  22.178   2.755   6.755
10765POPC   C3A66017  22.161   2.720   7.055
10765POPC   C4A66018  22.117   2.786   7.355
10765POPC   C1B66019  22.022   2.603   6.455
10765POPC   C2B66020  21.960   2.562   6.755
10765POPC   C3B66021  21.939   2.565   7.055
10765POPC   C4B66022  21.992   2.637   7.355
10766POPC   NC366023  31.500  17.554   5.555
10766POPC   PO466024  31.469  17.506   5.855
10766POPC   GL166025  31.461  17.544   6.155
10766POPC   GL266026  31.309  17.510   6.155
10766POPC   C1A66027  31.424  17.521   6.455
10766POPC   D2A66028  31.450  17.520   6.755
10766POPC   C3A66029  31.460  17.463   7.055
10766POPC   C4A66030  31.485  17.543   7.355
10766POPC   C1B66031  31.195  17.497   6.455
10766POPC   C2B66032  31.241  17.485   6.755
10766POPC   C3B66033  31.206  17.509   7.055
10766POPC   C4B66034  31.182  17.538   7.355
10767POPC   NC366035   0.434  26.039   5.555
10767POPC   PO466036   0.456  26.010   5.855
10767POPC   GL166037   0.450  26.067   6.155
10767POPC   GL266038   0.307  26.113   6.155
10767POPC   C1A66039   0.476  26.061   6.455
10767POPC   D2A66040   0.476  26.080   6.755
10767POPC   C3A66041   0.405  26.023   7.055
10767POPC   C4A66042   0.413  26.087   7.355
10767POPC   C1B66043   0.231  26.211   6.455
10767POPC   C2B66044   0.216  26.213   6.755
10767POPC   C3B66045   0.219  26.177   7.055
10767POPC   C4B66046   0.237  26.186   7.355
10768POPC   NC366047  36.945  37.703   5.555
10768POPC   PO466048  36.873  37.715   5.855
10768POPC   GL166049  36.930  37.630   6.155
10768POPC   GL266050  37.035  37.717   6.155
10768POPC   C1A66051  36.929  37.709   6.455
10768POPC   D2A66052  36.940  37.728   6.755
10768POPC   C3A66053  36.925  37.708   7.055
10768POPC   C4A66054  36.878  37.712   7.355
10768POPC   C1B66055  37.170  37.636   6.455
10768POPC   C2B66056  37.185  37.706   6.755
10768POPC   C3B66057  37.117  37.623   7.055
10768POPC   C4B66058  37.149  37.669   7.355
10769POPC   NC366059  28.372  18.272   5.555
10769POPC   PO466060  28.371  18.312   5.855
10769POPC   GL166061  28.412  18.242   6.155
10769POPC   GL266062  28.404  18.383   6.155
10769POPC   C1A66063  28.407  18.268   6.455
10769POPC   D2A66064  28.371  18.238   6.755
10769POPC   C3A66065  28.324  18.298   7.055
10769POPC   C4A66066  28.361  18.321   7.355
10769POPC   C1B66067  28.494  18.464   6.455
10769POPC   C2B66068  28.536  18.512   6.755
10769POPC   C3B66069  28.519  18.493   7.055
10769POPC   C4B66070  28.564  18.514   7.355
10770POPC   NC366071  16.687  33.763   5.555
10770POPC   PO466072  16.765  33.808   5.855
10770POPC   GL166073  16.743  33.820   6.155
10770POPC   GL266074  16.895  33.832   6.155
10770POPC   C1A66075  16.712  33.764   6.455
10770POPC   D2A66076  16.699  33.811   6.755
10770POPC   C3A66077  16.757  33.783   7.055
10770POPC   C4A66078  16.746  33.777   7.355
10770POPC   C1B66079  16.994  33.848   6.455
10770POPC   C2B66080  17.008  33.781   6.755
10770POPC   C3B66081  16.963  33.803   7.055
10770POPC   C4B66082  17.010  33.799   7.355
10771POPC   NC366083  20.585  15.214   5.555
10771POPC   PO466084  20.593  15.139   5.855
10771POPC   GL166085  20.580  15.131   6.155
10771POPC   GL266086  20.707  15.206   6.155
10771POPC   C1A66087  20.620  15.187   6.455
10771POPC   D2A66088  20.590  15.136   6.755
10771POPC   C3A66089  20.574  15.186   7.055
10771POPC   C4A66090  20.601  15.152   7.355
10771POPC   C1B66091  20.855  15.339   6.455
10771POPC   C2B66092  20.875  15.256   6.755
10771POPC   C3B66093  20.862  15.318   7.055
10771POPC   C4B66094  20.855  15.281   7.355
10772POPC   NC366095  10.534  15.966   5.555
10772POPC   PO466096  10.500  15.916   5.855
10772POPC   GL166097  10.562  15.976   6.155
10772POPC   GL266098  10.694  15.991   6.155
10772POPC   C1A66099  10.574  15.916   6.455
10772POPC   D2A66100  10.505  15.918   6.755
10772POPC   C3A66101  10.560  15.915   7.055
10772POPC   C4A66102  10.562  15.966   7.355
10772POPC   C1B66103  10.784  15.920   6.455
10772POPC   C2B66104  10.782  15.885   6.755
10772POPC   C3B66105  10.792  15.948   7.055
10772POPC   C4B66106  10.822  15.939   7.355
10773POPC   NC366107   1.167  21.365   5.555
10773POPC   PO466108   1.178  21.430   5.855
10773POPC   GL166109   1.216  21.433   6.155
10773POPC   GL266110   1.153  21.320   6.155
10773POPC   C1A66111   1.240  21.396   6.455
10773POPC   D2A66112   1.227  21.366   6.755
10773POPC   C3A66113   1.229  21.382   7.055
10773POPC   C4A66114   1.168  21.367   7.355
10773POPC   C1B66115   1.081  21.161   6.455
10773POPC   C2B66116   1.120  21.160   6.755
10773POPC   C3B66117   1.100  21.183   7.055
10773POPC   C4B66118   1.067  21.140   7.355
10774POPC   NC366119  19.837  37.716   5.555
10774POPC   PO466120  19.819  37.694   5.855
10774POPC   GL166121  19.858  37.675   6.155
10774POPC   GL266122  19.739  37.784   6.155
10774POPC   C1A66123  19.857  37.707   6.455
10774POPC   D2A66124  19.848  37.637   6.755
10774POPC   C3A66125  19.787  37.720   7.055
10774POPC   C4A66126  19.873  37.665   7.355
10774POPC   C1B66127  19.698  37.945   6.455
10774POPC   C2B66128  19.734  37.888   6.755
10774POPC   C3B66129  19.712  37.903   7.055
10774POPC   C4B66130  19.749  37.920   7.355
10775POPC   NC366131  30.672  22.127   5.555
10775POPC   PO466132  30.724  22.118   5.855
10775POPC   GL166133  30.652  22.152   6.155
10775POPC   GL266134  30.625  22.252   6.155
10775POPC   C1A66135  30.721  22.177   6.455
10775POPC   D2A66136  30.729  22.114   6.755
10775POPC   C3A66137  30.658  22.147   7.055
10775POPC   C4A66138  30.733  22.116   7.355
10775POPC   C1B66139  30.603  22.435   6.455
10775POPC   C2B66140  30.642  22.363   6.755
10775POPC   C3B66141  30.596  22.369   7.055
10775POPC   C4B66142  30.650  22.436   7.355
10776POPC   NC366143  11.262  18.308   5.555
10776POPC   PO466144  11.340  18.326   5.855
10776POPC   GL166145  11.320  18.309   6.155
10776POPC   GL266146  11.435  18.287   6.155
10776POPC   C1A66147  11.336  18.300   6.455
10776POPC   D2A66148  11.262  18.270   6.755
10776POPC   C3A66149  11.274  18.275   7.055
10776POPC   C4A66150  11.321  18.275   7.355
10776POPC   C1B66151  11.493  18.342   6.455
10776POPC   C2B66152  11.553  18.314   6.755
10776POPC   C3B66153  11.494  18.353   7.055
10776POPC   C4B66154  11.547  18.307   7.355
10777POPC   NC366155  22.972   4.315   5.555
10777POPC   PO466156  22.928   4.355   5.855
10777POPC   GL166157  22.979   4.327   6.155
10777POPC   GL266158  23.071   4.355   6.155
10777POPC   C1A66159  22.909   4.322   6.455
10777POPC   D2A66160  22.909   4.335   6.755
10777POPC   C3A66161  22.901   4.278   7.055
10777POPC   C4A66162  22.899   4.295   7.355
10777POPC   C1B66163  23.141   4.316   6.455
10777POPC   C2B66164  23.214   4.358   6.755
10777POPC   C3B66165  23.226   4.323   7.055
10777POPC   C4B66166  23.184   4.304   7.355
10778POPC   NC366167  19.101  34.530   5.555
10778POPC   PO466168  19.051  34.556   5.855
10778POPC   GL166169  19.015  34.587   6.155
10778POPC   GL266170  19.131  34.626   6.155
10778POPC   C1A66171  19.070  34.576   6.455
10778POPC   D2A66172  19.049  34.624   6.755
10778POPC   C3A66173  19.048  34.548   7.055
10778POPC   C4A66174  19.041  34.539   7.355
10778POPC   C1B66175  19.243  34.707   6.455
10778POPC   C2B66176  19.248  34.737   6.755
10778POPC   C3B66177  19.234  34.726   7.055
10778POPC   C4B66178  19.257  34.700   7.355
10779POPC   NC366179   2.785  20.588   5.555
10779POPC   PO466180   2.772  20.632   5.855
10779POPC   GL166181   2.813  20.650   6.155
10779POPC   GL266182   2.877  20.667   6.155
10779POPC   C1A66183   2.785  20.631   6.455
10779POPC   D2A66184   2.755  20.594   6.755
10779POPC   C3A66185   2.796  20.618   7.055
10779POPC   C4A66186   2.787  20.568   7.355
10779POPC   C1B66187   3.015  20.711   6.455
10779POPC   C2B66188   2.961  20.727   6.755
10779POPC   C3B66189   3.027  20.688   7.055
10779POPC   C4B66190   2.963  20.764   7.355
10780POPC   NC366191  29.930  33.028   5.555
10780POPC   PO466192  29.959  33.055   5.855
10780POPC   GL166193  29.916  32.999   6.155
10780POPC   GL266194  29.941  33.131   6.155
10780POPC   C1A66195  29.945  33.040   6.455
10780POPC   D2A66196  29.873  33.046   6.755
10780POPC   C3A66197  29.923  33.023   7.055
10780POPC   C4A66198  29.955  33.039   7.355
10780POPC   C1B66199  30.013  33.203   6.455
10780POPC   C2B66200  30.028  33.236   6.755
10780POPC   C3B66201  30.058  33.207   7.055
10780POPC   C4B66202  30.098  33.240   7.355
10781POPC   NC366203  12.828  34.568   5.555
10781POPC   PO466204  12.840  34.529   5.855
10781POPC   GL166205  12.862  34.546   6.155
10781POPC   GL266206  12.858  34.692   6.155
10781POPC   C1A66207  12.820  34.619   6.455
10781POPC   D2A66208  12.802  34.626   6.755
10781POPC   C3A66209  12.870  34.581   7.055
10781POPC   C4A66210  12.878  34.603   7.355
10781POPC   C1B66211  12.903  34.806   6.455
10781POPC   C2B66212  12.906  34.842   6.755
10781POPC   C3B66213  12.990  34.785   7.055
10781POPC   C4B66214  12.979  34.837   7.355
10782POPC   NC366215  32.284  20.646   5.555
10782POPC   PO466216  32.282  20.561   5.855
10782POPC   GL166217  32.229  20.606   6.155
10782POPC   GL266218  32.238  20.509   6.155
10782POPC   C1A66219  32.285  20.627   6.455
10782POPC   D2A66220  32.277  20.627   6.755
10782POPC   C3A66221  32.277  20.597   7.055
10782POPC   C4A66222  32.243  20.581   7.355
10782POPC   C1B66223  32.258  20.366   6.455
10782POPC   C2B66224  32.273  20.362   6.755
10782POPC   C3B66225  32.284  20.330   7.055
10782POPC   C4B66226  32.245  20.348   7.355
10783POPC   NC366227  31.501   1.973   5.555
10783POPC   PO466228  31.478   2.000   5.855
10783POPC   GL166229  31.514   2.032   6.155
10783POPC   GL266230  31.343   2.104   6.155
10783POPC   C1A66231  31.478   1.990   6.455
10783POPC   D2A66232  31.464   2.001   6.755
10783POPC   C3A66233  31.426   1.997   7.055
10783POPC   C4A66234  31.471   2.016   7.355
10783POPC   C1B66235  31.291   2.133   6.455
10783POPC   C2B66236  31.296   2.070   6.755
10783POPC   C3B66237  31.281   2.119   7.055
10783POPC   C4B66238  31.296   2.138   7.355
10784POPC   NC366239  21.430  36.094   5.555
10784POPC   PO466240  21.389  36.111   5.855
10784POPC   GL166241  21.358  36.110   6.155
10784POPC   GL266242  21.458  36.097   6.155
10784POPC   C1A66243  21.427  36.121   6.455
10784POPC   D2A66244  21.364  36.092   6.755
10784POPC   C3A66245  21.344  36.115   7.055
10784POPC   C4A66246  21.388  36.127   7.355
10784POPC   C1B66247  21.607  36.016   6.455
10784POPC   C2B66248  21.579  36.044   6.755
10784POPC   C3B66249  21.572  36.019   7.055
10784POPC   C4B66250  21.657  36.036   7.355
10785POPC   NC366251   2.014  41.595   5.555
10785POPC   PO466252   1.965  41.530   5.855
10785POPC   GL166253   2.032  41.579   6.155
10785POPC   GL266254   1.878  41.460   6.155
10785POPC   C1A66255   2.004  41.520   6.455
10785POPC   D2A66256   1.997  41.545   6.755
10785POPC   C3A66257   1.977  41.522   7.055
10785POPC   C4A66258   1.946  41.597   7.355
10785POPC   C1B66259   1.772  41.488   6.455
10785POPC   C2B66260   1.784  41.459   6.755
10785POPC   C3B66261   1.774  41.480   7.055
10785POPC   C4B66262   1.725  41.412   7.355
10786POPC   NC366263  31.427   0.467   5.555
10786POPC   PO466264  31.471   0.482   5.855
10786POPC   GL166265  31.517   0.450   6.155
10786POPC   GL266266  31.365   0.452   6.155
10786POPC   C1A66267  31.473   0.402   6.455
10786POPC   D2A66268  31.440   0.452   6.755
10786POPC   C3A66269  31.499   0.414   7.055
10786POPC   C4A66270  31.496   0.388   7.355
10786POPC   C1B66271  31.203   0.400   6.455
10786POPC   C2B66272  31.173   0.408   6.755
10786POPC   C3B66273  31.236   0.466   7.055
10786POPC   C4B66274  31.212   0.463   7.355
10787POPC   NC366275  21.394   0.460   5.555
10787POPC   PO466276  21.351   0.470   5.855
10787POPC   GL166277  21.354   0.418   6.155
10787POPC   GL266278  21.344   0.308   6.155
10787POPC   C1A66279  21.355   0.462   6.455
10787POPC   D2A66280  21.370   0.486   6.755
10787POPC   C3A66281  21.406   0.460   7.055
10787POPC   C4A66282  21.399   0.484   7.355
10787POPC   C1B66283  21.330   0.225   6.455
10787POPC   C2B66284  21.315   0.239   6.755
10787POPC   C3B66285  21.298   0.192   7.055
10787POPC   C4B66286  21.303   0.230   7.355
10788POPC   NC366287  30.694  19.025   5.555
10788POPC   PO466288  30.678  19.017   5.855
10788POPC   GL166289  30.676  19.065   6.155
10788POPC   GL266290  30.703  18.976   6.155
10788POPC   C1A66291  30.729  19.069   6.455
10788POPC   D2A66292  30.731  19.091   6.755
10788POPC   C3A66293  30.721  19.055   7.055
10788POPC   C4A66294  30.699  19.042   7.355
10788POPC   C1B66295  30.729  18.811   6.455
10788POPC   C2B66296  30.755  18.806   6.755
10788POPC   C3B66297  30.738  18.765   7.055
10788POPC   C4B66298  30.689  18.843   7.355
10789POPC   NC366299  21.341  12.857   5.555
10789POPC   PO466300  21.379  12.847   5.855
10789POPC   GL166301  21.392  12.825   6.155
10789POPC   GL266302  21.298  12.715   6.155
10789POPC   C1A66303  21.415  12.887   6.455
10789POPC   D2A66304  21.399  12.899   6.755
10789POPC   C3A66305  21.386  12.854   7.055
10789POPC   C4A66306  21.363  12.872   7.355
10789POPC   C1B66307  21.204  12.695   6.455
10789POPC   C2B66308  21.244  12.633   6.755
10789POPC   C3B66309  21.200  12.621   7.055
10789POPC   C4B66310  21.234  12.642   7.355
10790POPC   NC366311   0.449   3.553   5.555
10790POPC   PO466312   0.421   3.528   5.855
10790POPC   GL166313   0.456   3.521   6.155
10790POPC   GL266314   0.283   3.482   6.155
10790POPC   C1A66315   0.484   3.530   6.455
10790POPC   D2A66316   0.482   3.536   6.755
10790POPC   C3A66317   0.441   3.498   7.055
10790POPC   C4A66318   0.452   3.525   7.355
10790POPC   C1B66319   0.196   3.462   6.455
10790POPC   C2B66320   0.211   3.482   6.755
10790POPC   C3B66321   0.167   3.461   7.055
10790POPC   C4B66322   0.195   3.449   7.355
10791POPC   NC366323  32.255  22.973   5.555
10791POPC   PO466324  32.220  22.907   5.855
10791POPC   GL166325  32.236  22.921   6.155
10791POPC   GL266326  32.165  22.915   6.155
10791POPC   C1A66327  32.247  22.890   6.455
10791POPC   D2A66328  32.210  22.944   6.755
10791POPC   C3A66329  32.257  22.962   7.055
10791POPC   C4A66330  32.265  22.983   7.355
10791POPC   C1B66331  31.983  22.883   6.455
10791POPC   C2B66332  32.005  22.856   6.755
10791POPC   C3B66333  31.964  22.882   7.055
10791POPC   C4B66334  32.047  22.862   7.355
10792POPC   NC366335   6.597  22.113   5.555
10792POPC   PO466336   6.662  22.203   5.855
10792POPC   GL166337   6.681  22.189   6.155
10792POPC   GL266338   6.666  22.311   6.155
10792POPC   C1A66339   6.641  22.166   6.455
10792POPC   D2A66340   6.683  22.203   6.755
10792POPC   C3A66341   6.651  22.197   7.055
10792POPC   C4A66342   6.650  22.195   7.355
10792POPC   C1B66343   6.746  22.332   6.455
10792POPC   C2B66344   6.737  22.332   6.755
10792POPC   C3B66345   6.732  22.394   7.055
10792POPC   C4B66346   6.748  22.351   7.355
10793POPC   NC366347  20.650  43.089   5.555
10793POPC   PO466348  20.646  43.062   5.855
10793POPC   GL166349  20.593  43.076   6.155
10793POPC   GL266350  20.745  43.138   6.155
10793POPC   C1A66351  20.562  43.129   6.455
10793POPC   D2A66352  20.604  43.065   6.755
10793POPC   C3A66353  20.564  43.061   7.055
10793POPC   C4A66354  20.583  43.158   7.355
10793POPC   C1B66355  20.868  43.237   6.455
10793POPC   C2B66356  20.815  43.267   6.755
10793POPC   C3B66357  20.812  43.202   7.055
10793POPC   C4B66358  20.785  43.186   7.355
10794POPC   NC366359  37.640  22.973   5.555
10794POPC   PO466360  37.677  22.924   5.855
10794POPC   GL166361  37.710  22.940   6.155
10794POPC   GL266362  37.835  22.936   6.155
10794POPC   C1A66363  37.670  22.928   6.455
10794POPC   D2A66364  37.647  22.891   6.755
10794POPC   C3A66365  37.690  22.942   7.055
10794POPC   C4A66366  37.645  22.915   7.355
10794POPC   C1B66367  37.905  22.868   6.455
10794POPC   C2B66368  37.905  22.851   6.755
10794POPC   C3B66369  37.953  22.877   7.055
10794POPC   C4B66370  37.898  22.917   7.355
10795POPC   NC366371  12.886  44.625   5.555
10795POPC   PO466372  12.855  44.627   5.855
10795POPC   GL166373  12.882  44.632   6.155
10795POPC   GL266374  12.761  44.725   6.155
10795POPC   C1A66375  12.851  44.692   6.455
10795POPC   D2A66376  12.806  44.659   6.755
10795POPC   C3A66377  12.846  44.692   7.055
10795POPC   C4A66378  12.901  44.705   7.355
10795POPC   C1B66379  12.710  44.883   6.455
10795POPC   C2B66380  12.739  44.837   6.755
10795POPC   C3B66381  12.672  44.833   7.055
10795POPC   C4B66382  12.747  44.874   7.355
10796POPC   NC366383  24.472   8.184   5.555
10796POPC   PO466384  24.500   8.182   5.855
10796POPC   GL166385  24.512   8.150   6.155
10796POPC   GL266386  24.436   8.246   6.155
10796POPC   C1A66387  24.486   8.159   6.455
10796POPC   D2A66388  24.503   8.242   6.755
10796POPC   C3A66389  24.493   8.203   7.055
10796POPC   C4A66390  24.441   8.184   7.355
10796POPC   C1B66391  24.267   8.370   6.455
10796POPC   C2B66392  24.249   8.336   6.755
10796POPC   C3B66393  24.342   8.365   7.055
10796POPC   C4B66394  24.246   8.329   7.355
10797POPC   NC366395   8.232  27.558   5.555
10797POPC   PO466396   8.171  27.586   5.855
10797POPC   GL166397   8.231  27.628   6.155
10797POPC   GL266398   8.206  27.673   6.155
10797POPC   C1A66399   8.158  27.587   6.455
10797POPC   D2A66400   8.229  27.601   6.755
10797POPC   C3A66401   8.177  27.633   7.055
10797POPC   C4A66402   8.210  27.593   7.355
10797POPC   C1B66403   8.210  27.857   6.455
10797POPC   C2B66404   8.172  27.813   6.755
10797POPC   C3B66405   8.262  27.800   7.055
10797POPC   C4B66406   8.206  27.835   7.355
10798POPC   NC366407  35.392   2.793   5.555
10798POPC   PO466408  35.362   2.726   5.855
10798POPC   GL166409  35.341   2.773   6.155
10798POPC   GL266410  35.205   2.848   6.155
10798POPC   C1A66411  35.359   2.788   6.455
10798POPC   D2A66412  35.330   2.807   6.755
10798POPC   C3A66413  35.308   2.764   7.055
10798POPC   C4A66414  35.336   2.782   7.355
10798POPC   C1B66415  35.156   2.893   6.455
10798POPC   C2B66416  35.118   2.877   6.755
10798POPC   C3B66417  35.144   2.862   7.055
10798POPC   C4B66418  35.095   2.876   7.355
10799POPC   NC366419  19.877   4.268   5.555
10799POPC   PO466420  19.804   4.351   5.855
10799POPC   GL166421  19.828   4.281   6.155
10799POPC   GL266422  19.984   4.345   6.155
10799POPC   C1A66423  19.826   4.316   6.455
10799POPC   D2A66424  19.861   4.357   6.755
10799POPC   C3A66425  19.816   4.338   7.055
10799POPC   C4A66426  19.875   4.288   7.355
10799POPC   C1B66427  20.096   4.473   6.455
10799POPC   C2B66428  20.088   4.387   6.755
10799POPC   C3B66429  20.066   4.476   7.055
10799POPC   C4B66430  20.040   4.423   7.355
10800POPC   NC366431  33.005  29.907   5.555
10800POPC   PO466432  33.020  29.871   5.855
10800POPC   GL166433  33.066  29.900   6.155
10800POPC   GL266434  32.934  29.784   6.155
10800POPC   C1A66435  32.993  29.952   6.455
10800POPC   D2A66436  32.976  29.878   6.755
10800POPC   C3A66437  33.018  29.913   7.055
10800POPC   C4A66438  33.042  29.956   7.355
10800POPC   C1B66439  32.886  29.645   6.455
10800POPC   C2B66440  32.942  29.714   6.755
10800POPC   C3B66441  32.949  29.737   7.055
10800POPC   C4B66442  32.938  29.671   7.355
10801POPC   NC366443  25.222   6.671   5.555
10801POPC   PO466444  25.222   6.668   5.855
10801POPC   GL166445  25.311   6.645   6.155
10801POPC   GL266446  25.411   6.626   6.155
10801POPC   C1A66447  25.311   6.650   6.455
10801POPC   D2A66448  25.265   6.655   6.755
10801POPC   C3A66449  25.228   6.595   7.055
10801POPC   C4A66450  25.299   6.612   7.355
10801POPC   C1B66451  25.517   6.587   6.455
10801POPC   C2B66452  25.540   6.582   6.755
10801POPC   C3B66453  25.520   6.579   7.055
10801POPC   C4B66454  25.467   6.520   7.355
10802POPC   NC366455  26.790  36.876   5.555
10802POPC   PO466456  26.768  36.922   5.855
10802POPC   GL166457  26.799  36.903   6.155
10802POPC   GL266458  26.856  37.006   6.155
10802POPC   C1A66459  26.814  36.907   6.455
10802POPC   D2A66460  26.822  36.931   6.755
10802POPC   C3A66461  26.824  36.931   7.055
10802POPC   C4A66462  26.788  36.866   7.355
10802POPC   C1B66463  26.905  37.140   6.455
10802POPC   C2B66464  26.835  37.112   6.755
10802POPC   C3B66465  26.890  37.172   7.055
10802POPC   C4B66466  26.864  37.159   7.355
10803POPC   NC366467  16.000  17.525   5.555
10803POPC   PO466468  15.952  17.520   5.855
10803POPC   GL166469  15.940  17.533   6.155
10803POPC   GL266470  15.856  17.424   6.155
10803POPC   C1A66471  15.996  17.535   6.455
10803POPC   D2A66472  15.978  17.470   6.755
10803POPC   C3A66473  15.906  17.505   7.055
10803POPC   C4A66474  15.951  17.528   7.355
10803POPC   C1B66475  15.799  17.343   6.455
10803POPC   C2B66476  15.759  17.301   6.755
10803POPC   C3B66477  15.725  17.352   7.055
10803POPC   C4B66478  15.734  17.379   7.355
10804POPC   NC366479  44.658   1.993   5.555
10804POPC   PO466480  44.661   2.003   5.855
10804POPC   GL166481  44.659   2.030   6.155
10804POPC   GL266482  44.625   2.084   6.155
10804POPC   C1A66483  44.674   1.978   6.455
10804POPC   D2A66484  44.651   1.963   6.755
10804POPC   C3A66485  44.710   1.957   7.055
10804POPC   C4A66486  44.672   1.979   7.355
10804POPC   C1B66487  44.613   2.226   6.455
10804POPC   C2B66488  44.631   2.191   6.755
10804POPC   C3B66489  44.644   2.270   7.055
10804POPC   C4B66490  44.619   2.201   7.355
10805POPC   NC366491   5.903  29.914   5.555
10805POPC   PO466492   5.861  29.953   5.855
10805POPC   GL166493   5.876  29.876   6.155
10805POPC   GL266494   5.938  30.041   6.155
10805POPC   C1A66495   5.877  29.958   6.455
10805POPC   D2A66496   5.826  29.880   6.755
10805POPC   C3A66497   5.874  29.907   7.055
10805POPC   C4A66498   5.887  29.956   7.355
10805POPC   C1B66499   6.030  30.072   6.455
10805POPC   C2B66500   6.064  30.081   6.755
10805POPC   C3B66501   6.068  30.083   7.055
10805POPC   C4B66502   6.031  30.053   7.355
10806POPC   NC366503  29.934  14.357   5.555
10806POPC   PO466504  29.871  14.368   5.855
10806POPC   GL166505  29.891  14.433   6.155
10806POPC   GL266506  30.028  14.307   6.155
10806POPC   C1A66507  29.909  14.443   6.455
10806POPC   D2A66508  29.921  14.369   6.755
10806POPC   C3A66509  29.915  14.408   7.055
10806POPC   C4A66510  29.879  14.413   7.355
10806POPC   C1B66511  30.132  14.226   6.455
10806POPC   C2B66512  30.160  14.249   6.755
10806POPC   C3B66513  30.104  14.264   7.055
10806POPC   C4B66514  30.105  14.278   7.355
10807POPC   NC366515   8.982  29.178   5.555
10807POPC   PO466516   9.001  29.104   5.855
10807POPC   GL166517   8.996  29.098   6.155
10807POPC   GL266518   8.923  28.994   6.155
10807POPC   C1A66519   9.013  29.150   6.455
10807POPC   D2A66520   8.945  29.123   6.755
10807POPC   C3A66521   8.925  29.117   7.055
10807POPC   C4A66522   9.012  29.172   7.355
10807POPC   C1B66523   8.915  28.956   6.455
10807POPC   C2B66524   8.922  28.942   6.755
10807POPC   C3B66525   8.852  28.900   7.055
10807POPC   C4B66526   8.903  28.869   7.355
10808POPC   NC366527   6.607  25.250   5.555
10808POPC   PO466528   6.629  25.242   5.855
10808POPC   GL166529   6.631  25.270   6.155
10808POPC   GL266530   6.672  25.346   6.155
10808POPC   C1A66531   6.680  25.283   6.455
10808POPC   D2A66532   6.626  25.295   6.755
10808POPC   C3A66533   6.636  25.262   7.055
10808POPC   C4A66534   6.617  25.292   7.355
10808POPC   C1B66535   6.658  25.522   6.455
10808POPC   C2B66536   6.658  25.501   6.755
10808POPC   C3B66537   6.585  25.557   7.055
10808POPC   C4B66538   6.588  25.500   7.355
10809POPC   NC366539  22.167  19.086   5.555
10809POPC   PO466540  22.164  19.073   5.855
10809POPC   GL166541  22.198  19.049   6.155
10809POPC   GL266542  21.990  19.091   6.155
10809POPC   C1A66543  22.151  19.103   6.455
10809POPC   D2A66544  22.139  19.029   6.755
10809POPC   C3A66545  22.210  19.089   7.055
10809POPC   C4A66546  22.205  19.073   7.355
10809POPC   C1B66547  21.868  19.000   6.455
10809POPC   C2B66548  21.887  19.074   6.755
10809POPC   C3B66549  21.893  19.062   7.055
10809POPC   C4B66550  21.864  19.000   7.355
10810POPC   NC366551  19.840  39.193   5.555
10810POPC   PO466552  19.865  39.191   5.855
10810POPC   GL166553  19.878  39.187   6.155
10810POPC   GL266554  19.742  39.305   6.155
10810POPC   C1A66555  19.846  39.261   6.455
10810POPC   D2A66556  19.877  39.249   6.755
10810POPC   C3A66557  19.825  39.215   7.055
10810POPC   C4A66558  19.876  39.194   7.355
10810POPC   C1B66559  19.642  39.315   6.455
10810POPC   C2B66560  19.585  39.299   6.755
10810POPC   C3B66561  19.581  39.314   7.055
10810POPC   C4B66562  19.629  39.303   7.355
10811POPC   NC366563  13.600  17.502   5.555
10811POPC   PO466564  13.661  17.512   5.855
10811POPC   GL166565  13.609  17.479   6.155
10811POPC   GL266566  13.634  17.594   6.155
10811POPC   C1A66567  13.602  17.483   6.455
10811POPC   D2A66568  13.594  17.483   6.755
10811POPC   C3A66569  13.662  17.515   7.055
10811POPC   C4A66570  13.651  17.536   7.355
10811POPC   C1B66571  13.563  17.756   6.455
10811POPC   C2B66572  13.659  17.755   6.755
10811POPC   C3B66573  13.622  17.805   7.055
10811POPC   C4B66574  13.601  17.721   7.355
10812POPC   NC366575  10.479  25.997   5.555
10812POPC   PO466576  10.527  26.075   5.855
10812POPC   GL166577  10.521  26.042   6.155
10812POPC   GL266578  10.471  25.911   6.155
10812POPC   C1A66579  10.534  26.079   6.455
10812POPC   D2A66580  10.572  25.992   6.755
10812POPC   C3A66581  10.548  26.040   7.055
10812POPC   C4A66582  10.569  26.035   7.355
10812POPC   C1B66583  10.396  25.827   6.455
10812POPC   C2B66584  10.359  25.837   6.755
10812POPC   C3B66585  10.397  25.879   7.055
10812POPC   C4B66586  10.396  25.855   7.355
10813POPC   NC366587  15.913  33.054   5.555
10813POPC   PO466588  15.923  33.018   5.855
10813POPC   GL166589  15.976  33.038   6.155
10813POPC   GL266590  15.821  32.973   6.155
10813POPC   C1A66591  15.978  32.984   6.455
10813POPC   D2A66592  15.960  33.064   6.755
10813POPC   C3A66593  15.972  33.047   7.055
10813POPC   C4A66594  15.934  32.980   7.355
10813POPC   C1B66595  15.782  32.952   6.455
10813POPC   C2B66596  15.767  32.872   6.755
10813POPC   C3B66597  15.767  32.952   7.055
10813POPC   C4B66598  15.777  32.921   7.355
10814POPC   NC366599  26.079  23.701   5.555
10814POPC   PO466600  26.066  23.746   5.855
10814POPC   GL166601  26.053  23.702   6.155
10814POPC   GL266602  26.099  23.787   6.155
10814POPC   C1A66603  26.043  23.707   6.455
10814POPC   D2A66604  26.027  23.738   6.755
10814POPC   C3A66605  26.033  23.740   7.055
10814POPC   C4A66606  26.033  23.739   7.355
10814POPC   C1B66607  26.222  23.912   6.455
10814POPC   C2B66608  26.190  23.957   6.755
10814POPC   C3B66609  26.145  23.913   7.055
10814POPC   C4B66610  26.223  23.934   7.355
10815POPC   NC366611   6.671  19.018   5.555
10815POPC   PO466612   6.631  19.033   5.855
10815POPC   GL166613   6.603  19.013   6.155
10815POPC   GL266614   6.474  19.016   6.155
10815POPC   C1A66615   6.690  19.087   6.455
10815POPC   D2A66616   6.690  19.103   6.755
10815POPC   C3A66617   6.687  19.081   7.055
10815POPC   C4A66618   6.668  19.037   7.355
10815POPC   C1B66619   6.403  19.039   6.455
10815POPC   C2B66620   6.387  18.951   6.755
10815POPC   C3B66621   6.411  19.002   7.055
10815POPC   C4B66622   6.358  19.025   7.355
10816POPC   NC366623   5.091  20.569   5.555
10816POPC   PO466624   5.132  20.576   5.855
10816POPC   GL166625   5.060  20.585   6.155
10816POPC   GL266626   5.013  20.750   6.155
10816POPC   C1A66627   5.070  20.621   6.455
10816POPC   D2A66628   5.049  20.659   6.755
10816POPC   C3A66629   5.043  20.602   7.055
10816POPC   C4A66630   5.142  20.629   7.355
10816POPC   C1B66631   4.999  20.871   6.455
10816POPC   C2B66632   4.933  20.883   6.755
10816POPC   C3B66633   4.934  20.802   7.055
10816POPC   C4B66634   5.004  20.851   7.355
10817POPC   NC366635  11.303  36.169   5.555
10817POPC   PO466636  11.328  36.137   5.855
10817POPC   GL166637  11.320  36.132   6.155
10817POPC   GL266638  11.177  36.245   6.155
10817POPC   C1A66639  11.310  36.114   6.455
10817POPC   D2A66640  11.294  36.119   6.755
10817POPC   C3A66641  11.334  36.126   7.055
10817POPC   C4A66642  11.288  36.115   7.355
10817POPC   C1B66643  11.129  36.344   6.455
10817POPC   C2B66644  11.079  36.259   6.755
10817POPC   C3B66645  11.119  36.334   7.055
10817POPC   C4B66646  11.161  36.320   7.355
10818POPC   NC366647   0.420  13.602   5.555
10818POPC   PO466648   0.422  13.670   5.855
10818POPC   GL166649   0.456  13.643   6.155
10818POPC   GL266650   0.308  13.694   6.155
10818POPC   C1A66651   0.457  13.597   6.455
10818POPC   D2A66652   0.438  13.667   6.755
10818POPC   C3A66653   0.413  13.587   7.055
10818POPC   C4A66654   0.447  13.649   7.355
10818POPC   C1B66655   0.153  13.654   6.455
10818POPC   C2B66656   0.194  13.680   6.755
10818POPC   C3B66657   0.165  13.672   7.055
10818POPC   C4B66658   0.235  13.691   7.355
10819POPC   NC366659  27.552   6.641   5.555
10819POPC   PO466660  27.578   6.656   5.855
10819POPC   GL166661  27.597   6.655   6.155
10819POPC   GL266662  27.476   6.723   6.155
10819POPC   C1A66663  27.620   6.619   6.455
10819POPC   D2A66664  27.579   6.645   6.755
10819POPC   C3A66665  27.550   6.677   7.055
10819POPC   C4A66666  27.615   6.665   7.355
10819POPC   C1B66667  27.374   6.723   6.455
10819POPC   C2B66668  27.329   6.814   6.755
10819POPC   C3B66669  27.389   6.772   7.055
10819POPC   C4B66670  27.348   6.772   7.355
10820POPC   NC366671   7.460  35.328   5.555
10820POPC   PO466672   7.376  35.353   5.855
10820POPC   GL166673   7.456  35.326   6.155
10820POPC   GL266674   7.480  35.492   6.155
10820POPC   C1A66675   7.378  35.381   6.455
10820POPC   D2A66676   7.385  35.353   6.755
10820POPC   C3A66677   7.444  35.362   7.055
10820POPC   C4A66678   7.417  35.305   7.355
10820POPC   C1B66679   7.578  35.569   6.455
10820POPC   C2B66680   7.556  35.561   6.755
10820POPC   C3B66681   7.602  35.509   7.055
10820POPC   C4B66682   7.516  35.585   7.355
10821POPC   NC366683  33.037  42.365   5.555
10821POPC   PO466684  32.984  42.363   5.855
10821POPC   GL166685  33.017  42.347   6.155
10821POPC   GL266686  32.926  42.251   6.155
10821POPC   C1A66687  33.054  42.367   6.455
10821POPC   D2A66688  32.985  42.309   6.755
10821POPC   C3A66689  33.022  42.370   7.055
10821POPC   C4A66690  33.007  42.314   7.355
10821POPC   C1B66691  32.871  42.170   6.455
10821POPC   C2B66692  32.826  42.193   6.755
10821POPC   C3B66693  32.794  42.117   7.055
10821POPC   C4B66694  32.822  42.156   7.355
10822POPC   NC366695   8.984  43.085   5.555
10822POPC   PO466696   8.974  43.117   5.855
10822POPC   GL166697   9.015  43.073   6.155
10822POPC   GL266698   9.010  42.973   6.155
10822POPC   C1A66699   8.960  43.081   6.455
10822POPC   D2A66700   8.942  43.158   6.755
10822POPC   C3A66701   8.968  43.099   7.055
10822POPC   C4A66702   8.953  43.070   7.355
10822POPC   C1B66703   9.117  42.934   6.455
10822POPC   C2B66704   9.116  42.899   6.755
10822POPC   C3B66705   9.110  42.936   7.055
10822POPC   C4B66706   9.151  42.916   7.355
10823POPC   NC366707   5.141   8.194   5.555
10823POPC   PO466708   5.047   8.197   5.855
10823POPC   GL166709   5.100   8.156   6.155
10823POPC   GL266710   5.088   8.264   6.155
10823POPC   C1A66711   5.082   8.167   6.455
10823POPC   D2A66712   5.113   8.240   6.755
10823POPC   C3A66713   5.111   8.160   7.055
10823POPC   C4A66714   5.139   8.188   7.355
10823POPC   C1B66715   4.999   8.465   6.455
10823POPC   C2B66716   4.970   8.455   6.755
10823POPC   C3B66717   4.959   8.421   7.055
10823POPC   C4B66718   5.027   8.377   7.355
10824POPC   NC366719  36.163   1.179   5.555
10824POPC   PO466720  36.148   1.189   5.855
10824POPC   GL166721  36.104   1.245   6.155
10824POPC   GL266722  36.247   1.217   6.155
10824POPC   C1A66723  36.137   1.251   6.455
10824POPC   D2A66724  36.081   1.232   6.755
10824POPC   C3A66725  36.114   1.222   7.055
10824POPC   C4A66726  36.139   1.230   7.355
10824POPC   C1B66727  36.365   1.177   6.455
10824POPC   C2B66728  36.333   1.251   6.755
10824POPC   C3B66729  36.415   1.264   7.055
10824POPC   C4B66730  36.401   1.221   7.355
10825POPC   NC366731   5.855  25.243   5.555
10825POPC   PO466732   5.896  25.267   5.855
10825POPC   GL166733   5.877  25.274   6.155
10825POPC   GL266734   6.041  25.243   6.155
10825POPC   C1A66735   5.826  25.301   6.455
10825POPC   D2A66736   5.877  25.223   6.755
10825POPC   C3A66737   5.878  25.294   7.055
10825POPC   C4A66738   5.832  25.254   7.355
10825POPC   C1B66739   6.127  25.193   6.455
10825POPC   C2B66740   6.131  25.246   6.755
10825POPC   C3B66741   6.120  25.233   7.055
10825POPC   C4B66742   6.131  25.266   7.355
10826POPC   NC366743  12.865   0.463   5.555
10826POPC   PO466744  12.898   0.471   5.855
10826POPC   GL166745  12.874   0.422   6.155
10826POPC   GL266746  12.980   0.350   6.155
10826POPC   C1A66747  12.807   0.461   6.455
10826POPC   D2A66748  12.838   0.462   6.755
10826POPC   C3A66749  12.871   0.393   7.055
10826POPC   C4A66750  12.802   0.452   7.355
10826POPC   C1B66751  13.074   0.300   6.455
10826POPC   C2B66752  13.094   0.250   6.755
10826POPC   C3B66753  13.011   0.279   7.055
10826POPC   C4B66754  13.065   0.279   7.355
10827POPC   NC366755  30.702  43.074   5.555
10827POPC   PO466756  30.666  43.071   5.855
10827POPC   GL166757  30.666  43.120   6.155
10827POPC   GL266758  30.769  43.274   6.155
10827POPC   C1A66759  30.728  43.071   6.455
10827POPC   D2A66760  30.668  43.101   6.755
10827POPC   C3A66761  30.672  43.133   7.055
10827POPC   C4A66762  30.669  43.146   7.355
10827POPC   C1B66763  30.702  43.318   6.455
10827POPC   C2B66764  30.740  43.321   6.755
10827POPC   C3B66765  30.753  43.381   7.055
10827POPC   C4B66766  30.719  43.378   7.355
10828POPC   NC366767  28.321  19.088   5.555
10828POPC   PO466768  28.330  19.063   5.855
10828POPC   GL166769  28.390  19.077   6.155
10828POPC   GL266770  28.498  19.042   6.155
10828POPC   C1A66771  28.398  19.086   6.455
10828POPC   D2A66772  28.359  19.052   6.755
10828POPC   C3A66773  28.399  19.102   7.055
10828POPC   C4A66774  28.398  19.063   7.355
10828POPC   C1B66775  28.643  18.915   6.455
10828POPC   C2B66776  28.591  18.991   6.755
10828POPC   C3B66777  28.624  18.934   7.055
10828POPC   C4B66778  28.646  18.940   7.355
10829POPC   NC366779  26.806   9.732   5.555
10829POPC   PO466780  26.791   9.725   5.855
10829POPC   GL166781  26.784   9.778   6.155
10829POPC   GL266782  26.953   9.778   6.155
10829POPC   C1A66783  26.800   9.771   6.455
10829POPC   D2A66784  26.840   9.731   6.755
10829POPC   C3A66785  26.845   9.726   7.055
10829POPC   C4A66786  26.824   9.727   7.355
10829POPC   C1B66787  27.002   9.874   6.455
10829POPC   C2B66788  27.017   9.856   6.755
10829POPC   C3B66789  27.059   9.845   7.055
10829POPC   C4B66790  27.043   9.878   7.355
10830POPC   NC366791  42.371  21.404   5.555
10830POPC   PO466792  42.311  21.366   5.855
10830POPC   GL166793  42.286  21.426   6.155
10830POPC   GL266794  42.283  21.514   6.155
10830POPC   C1A66795  42.340  21.363   6.455
10830POPC   D2A66796  42.369  21.401   6.755
10830POPC   C3A66797  42.300  21.366   7.055
10830POPC   C4A66798  42.301  21.339   7.355
10830POPC   C1B66799  42.303  21.618   6.455
10830POPC   C2B66800  42.242  21.611   6.755
10830POPC   C3B66801  42.228  21.636   7.055
10830POPC   C4B66802  42.230  21.635   7.355
10831POPC   NC366803  43.866  43.068   5.555
10831POPC   PO466804  43.851  43.130   5.855
10831POPC   GL166805  43.869  43.148   6.155
10831POPC   GL266806  43.778  43.099   6.155
10831POPC   C1A66807  43.911  43.110   6.455
10831POPC   D2A66808  43.863  43.152   6.755
10831POPC   C3A66809  43.923  43.098   7.055
10831POPC   C4A66810  43.876  43.142   7.355
10831POPC   C1B66811  43.665  43.113   6.455
10831POPC   C2B66812  43.669  43.166   6.755
10831POPC   C3B66813  43.595  43.144   7.055
10831POPC   C4B66814  43.633  43.125   7.355
10832POPC   NC366815   5.878  32.245   5.555
10832POPC   PO466816   5.849  32.229   5.855
10832POPC   GL166817   5.880  32.253   6.155
10832POPC   GL266818   5.992  32.211   6.155
10832POPC   C1A66819   5.836  32.280   6.455
10832POPC   D2A66820   5.878  32.250   6.755
10832POPC   C3A66821   5.836  32.213   7.055
10832POPC   C4A66822   5.844  32.239   7.355
10832POPC   C1B66823   6.128  32.125   6.455
10832POPC   C2B66824   6.101  32.117   6.755
10832POPC   C3B66825   6.137  32.109   7.055
10832POPC   C4B66826   6.133  32.116   7.355
10833POPC   NC366827  25.289  40.737   5.555
10833POPC   PO466828  25.250  40.749   5.855
10833POPC   GL166829  25.245  40.747   6.155
10833POPC   GL266830  25.315  40.861   6.155
10833POPC   C1A66831  25.305  40.756   6.455
10833POPC   D2A66832  25.315  40.743   6.755
10833POPC   C3A66833  25.304  40.768   7.055
10833POPC   C4A66834  25.248  40.795   7.355
10833POPC   C1B66835  25.346  41.030   6.455
10833POPC   C2B66836  25.391  41.035   6.755
10833POPC   C3B66837  25.417  40.995   7.055
10833POPC   C4B66838  25.385  41.044   7.355
10834POPC   NC366839  14.432  34.554   5.555
10834POPC   PO466840  14.357  34.555   5.855
10834POPC   GL166841  14.435  34.626   6.155
10834POPC   GL266842  14.338  34.464   6.155
10834POPC   C1A66843  14.425  34.563   6.455
10834POPC   D2A66844  14.380  34.587   6.755
10834POPC   C3A66845  14.374  34.597   7.055
10834POPC   C4A66846  14.453  34.588   7.355
10834POPC   C1B66847  14.343  34.318   6.455
10834POPC   C2B66848  14.354  34.305   6.755
10834POPC   C3B66849  14.292  34.354   7.055
10834POPC   C4B66850  14.325  34.304   7.355
10835POPC   NC366851  12.893  43.128   5.555
10835POPC   PO466852  12.839  43.065   5.855
10835POPC   GL166853  12.889  43.081   6.155
10835POPC   GL266854  12.844  43.028   6.155
10835POPC   C1A66855  12.862  43.064   6.455
10835POPC   D2A66856  12.814  43.081   6.755
10835POPC   C3A66857  12.828  43.147   7.055
10835POPC   C4A66858  12.817  43.138   7.355
10835POPC   C1B66859  12.815  42.897   6.455
10835POPC   C2B66860  12.806  42.880   6.755
10835POPC   C3B66861  12.733  42.916   7.055
10835POPC   C4B66862  12.809  42.897   7.355
10836POPC   NC366863   1.206   5.048   5.555
10836POPC   PO466864   1.247   5.064   5.855
10836POPC   GL166865   1.255   5.107   6.155
10836POPC   GL266866   1.146   5.107   6.155
10836POPC   C1A66867   1.235   5.140   6.455
10836POPC   D2A66868   1.248   5.055   6.755
10836POPC   C3A66869   1.239   5.086   7.055
10836POPC   C4A66870   1.243   5.070   7.355
10836POPC   C1B66871   0.983   5.201   6.455
10836POPC   C2B66872   0.956   5.185   6.755
10836POPC   C3B66873   1.045   5.171   7.055
10836POPC   C4B66874   0.981   5.261   7.355
10837POPC   NC366875  18.275  15.970   5.555
10837POPC   PO466876  18.258  15.977   5.855
10837POPC   GL166877  18.292  15.954   6.155
10837POPC   GL266878  18.287  16.119   6.155
10837POPC   C1A66879  18.298  15.909   6.455
10837POPC   D2A66880  18.296  15.950   6.755
10837POPC   C3A66881  18.316  15.948   7.055
10837POPC   C4A66882  18.248  15.947   7.355
10837POPC   C1B66883  18.298  16.211   6.455
10837POPC   C2B66884  18.313  16.184   6.755
10837POPC   C3B66885  18.268  16.254   7.055
10837POPC   C4B66886  18.287  16.211   7.355
10838POPC   NC366887  30.728   3.589   5.555
10838POPC   PO466888  30.662   3.565   5.855
10838POPC   GL166889  30.733   3.502   6.155
10838POPC   GL266890  30.725   3.689   6.155
10838POPC   C1A66891  30.703   3.525   6.455
10838POPC   D2A66892  30.655   3.550   6.755
10838POPC   C3A66893  30.689   3.585   7.055
10838POPC   C4A66894  30.723   3.526   7.355
10838POPC   C1B66895  30.664   3.794   6.455
10838POPC   C2B66896  30.682   3.820   6.755
10838POPC   C3B66897  30.661   3.754   7.055
10838POPC   C4B66898  30.702   3.781   7.355
10839POPC   NC366899  40.747  29.114   5.555
10839POPC   PO466900  40.832  29.111   5.855
10839POPC   GL166901  40.781  29.151   6.155
10839POPC   GL266902  40.743  29.056   6.155
10839POPC   C1A66903  40.817  29.181   6.455
10839POPC   D2A66904  40.748  29.178   6.755
10839POPC   C3A66905  40.798  29.175   7.055
10839POPC   C4A66906  40.734  29.161   7.355
10839POPC   C1B66907  40.697  28.862   6.455
10839POPC   C2B66908  40.755  28.935   6.755
10839POPC   C3B66909  40.743  28.912   7.055
10839POPC   C4B66910  40.733  28.880   7.355
10840POPC   NC366911  15.158  14.440   5.555
10840POPC   PO466912  15.203  14.355   5.855
10840POPC   GL166913  15.194  14.414   6.155
10840POPC   GL266914  15.300  14.436   6.155
10840POPC   C1A66915  15.180  14.387   6.455
10840POPC   D2A66916  15.200  14.430   6.755
10840POPC   C3A66917  15.201  14.414   7.055
10840POPC   C4A66918  15.222  14.424   7.355
10840POPC   C1B66919  15.427  14.394   6.455
10840POPC   C2B66920  15.428  14.403   6.755
10840POPC   C3B66921  15.416  14.375   7.055
10840POPC   C4B66922  15.406  14.454   7.355
10841POPC   NC366923  31.436  10.554   5.555
10841POPC   PO466924  31.454  10.571   5.855
10841POPC   GL166925  31.461  10.538   6.155
10841POPC   GL266926  31.636  10.510   6.155
10841POPC   C1A66927  31.505  10.491   6.455
10841POPC   D2A66928  31.519  10.564   6.755
10841POPC   C3A66929  31.486  10.567   7.055
10841POPC   C4A66930  31.462  10.492   7.355
10841POPC   C1B66931  31.659  10.421   6.455
10841POPC   C2B66932  31.725  10.451   6.755
10841POPC   C3B66933  31.734  10.436   7.055
10841POPC   C4B66934  31.732  10.483   7.355
10842POPC   NC366935  10.571   8.236   5.555
10842POPC   PO466936  10.477   8.238   5.855
10842POPC   GL166937  10.489   8.238   6.155
10842POPC   GL266938  10.620   8.219   6.155
10842POPC   C1A66939  10.498   8.180   6.455
10842POPC   D2A66940  10.568   8.229   6.755
10842POPC   C3A66941  10.484   8.173   7.055
10842POPC   C4A66942  10.517   8.170   7.355
10842POPC   C1B66943  10.723   8.203   6.455
10842POPC   C2B66944  10.813   8.238   6.755
10842POPC   C3B66945  10.754   8.203   7.055
10842POPC   C4B66946  10.771   8.226   7.355
10843POPC   NC366947   5.866  23.719   5.555
10843POPC   PO466948   5.882  23.684   5.855
10843POPC   GL166949   5.880  23.714   6.155
10843POPC   GL266950   5.890  23.562   6.155
10843POPC   C1A66951   5.906  23.721   6.455
10843POPC   D2A66952   5.831  23.680   6.755
10843POPC   C3A66953   5.873  23.708   7.055
10843POPC   C4A66954   5.870  23.742   7.355
10843POPC   C1B66955   5.916  23.461   6.455
10843POPC   C2B66956   5.852  23.485   6.755
10843POPC   C3B66957   5.909  23.438   7.055
10843POPC   C4B66958   5.911  23.424   7.355
10844POPC   NC366959  12.848  15.181   5.555
10844POPC   PO466960  12.859  15.149   5.855
10844POPC   GL166961  12.820  15.188   6.155
10844POPC   GL266962  12.939  15.102   6.155
10844POPC   C1A66963  12.881  15.180   6.455
10844POPC   D2A66964  12.827  15.213   6.755
10844POPC   C3A66965  12.852  15.131   7.055
10844POPC   C4A66966  12.893  15.150   7.355
10844POPC   C1B66967  13.041  14.965   6.455
10844POPC   C2B66968  13.033  15.036   6.755
10844POPC   C3B66969  12.995  15.003   7.055
10844POPC   C4B66970  13.022  14.991   7.355
10845POPC   NC366971   0.414  23.698   5.555
10845POPC   PO466972   0.487  23.698   5.855
10845POPC   GL166973   0.413  23.706   6.155
10845POPC   GL266974   0.374  23.763   6.155
10845POPC   C1A66975   0.408  23.693   6.455
10845POPC   D2A66976   0.473  23.719   6.755
10845POPC   C3A66977   0.471  23.678   7.055
10845POPC   C4A66978   0.446  23.713   7.355
10845POPC   C1B66979   0.280  23.850   6.455
10845POPC   C2B66980   0.297  23.902   6.755
10845POPC   C3B66981   0.250  23.891   7.055
10845POPC   C4B66982   0.267  23.862   7.355
10846POPC   NC366983  30.698   8.996   5.555
10846POPC   PO466984  30.744   9.014   5.855
10846POPC   GL166985  30.661   8.946   6.155
10846POPC   GL266986  30.820   8.992   6.155
10846POPC   C1A66987  30.648   8.964   6.455
10846POPC   D2A66988  30.697   9.003   6.755
10846POPC   C3A66989  30.711   8.998   7.055
10846POPC   C4A66990  30.732   8.931   7.355
10846POPC   C1B66991  30.985   8.958   6.455
10846POPC   C2B66992  30.970   8.951   6.755
10846POPC   C3B66993  30.903   8.903   7.055
10846POPC   C4B66994  30.892   8.914   7.355
10847POPC   NC366995  15.947  19.806   5.555
10847POPC   PO466996  15.988  19.827   5.855
10847POPC   GL166997  15.975  19.797   6.155
10847POPC   GL266998  15.881  19.893   6.155
10847POPC   C1A66999  15.929  19.807   6.455
10847POPC   D2A67000  15.993  19.814   6.755
10847POPC   C3A67001  15.993  19.850   7.055
10847POPC   C4A67002  15.968  19.789   7.355
10847POPC   C1B67003  15.813  20.026   6.455
10847POPC   C2B67004  15.777  19.989   6.755
10847POPC   C3B67005  15.718  20.023   7.055
10847POPC   C4B67006  15.769  19.956   7.355
10848POPC   NC367007  24.513  37.727   5.555
10848POPC   PO467008  24.452  37.662   5.855
10848POPC   GL167009  24.486  37.691   6.155
10848POPC   GL267010  24.449  37.571   6.155
10848POPC   C1A67011  24.502  37.661   6.455
10848POPC   D2A67012  24.533  37.694   6.755
10848POPC   C3A67013  24.458  37.690   7.055
10848POPC   C4A67014  24.452  37.653   7.355
10848POPC   C1B67015  24.325  37.541   6.455
10848POPC   C2B67016  24.282  37.519   6.755
10848POPC   C3B67017  24.309  37.535   7.055
10848POPC   C4B67018  24.285  37.502   7.355
10849POPC   NC367019   9.744  13.587   5.555
10849POPC   PO467020   9.789  13.598   5.855
10849POPC   GL167021   9.783  13.591   6.155
10849POPC   GL267022   9.868  13.751   6.155
10849POPC   C1A67023   9.727  13.650   6.455
10849POPC   D2A67024   9.770  13.608   6.755
10849POPC   C3A67025   9.753  13.585   7.055
10849POPC   C4A67026   9.725  13.583   7.355
10849POPC   C1B67027   9.946  13.806   6.455
10849POPC   C2B67028   9.894  13.837   6.755
10849POPC   C3B67029   9.926  13.771   7.055
10849POPC   C4B67030   9.965  13.830   7.355
10850POPC   NC367031  36.120  16.779   5.555
10850POPC   PO467032  36.154  16.765   5.855
10850POPC   GL167033  36.156  16.707   6.155
10850POPC   GL267034  36.020  16.581   6.155
10850POPC   C1A67035  36.126  16.780   6.455
10850POPC   D2A67036  36.167  16.688   6.755
10850POPC   C3A67037  36.112  16.772   7.055
10850POPC   C4A67038  36.125  16.722   7.355
10850POPC   C1B67039  36.007  16.549   6.455
10850POPC   C2B67040  35.985  16.534   6.755
10850POPC   C3B67041  35.949  16.543   7.055
10850POPC   C4B67042  35.966  16.507   7.355
10851POPC   NC367043  33.830  36.919   5.555
10851POPC   PO467044  33.788  36.867   5.855
10851POPC   GL167045  33.768  36.952   6.155
10851POPC   GL267046  33.923  36.917   6.155
10851POPC   C1A67047  33.792  36.889   6.455
10851POPC   D2A67048  33.755  36.889   6.755
10851POPC   C3A67049  33.763  36.949   7.055
10851POPC   C4A67050  33.835  36.857   7.355
10851POPC   C1B67051  34.070  36.925   6.455
10851POPC   C2B67052  34.006  36.964   6.755
10851POPC   C3B67053  34.094  36.885   7.055
10851POPC   C4B67054  34.098  36.898   7.355
10852POPC   NC367055   7.411  34.584   5.555
10852POPC   PO467056   7.458  34.546   5.855
10852POPC   GL167057   7.432  34.604   6.155
10852POPC   GL267058   7.320  34.499   6.155
10852POPC   C1A67059   7.396  34.552   6.455
10852POPC   D2A67060   7.395  34.531   6.755
10852POPC   C3A67061   7.444  34.563   7.055
10852POPC   C4A67062   7.410  34.622   7.355
10852POPC   C1B67063   7.212  34.527   6.455
10852POPC   C2B67064   7.199  34.515   6.755
10852POPC   C3B67065   7.192  34.460   7.055
10852POPC   C4B67066   7.181  34.509   7.355
10853POPC   NC367067  30.741  36.931   5.555
10853POPC   PO467068  30.683  36.870   5.855
10853POPC   GL167069  30.745  36.857   6.155
10853POPC   GL267070  30.604  37.028   6.155
10853POPC   C1A67071  30.704  36.885   6.455
10853POPC   D2A67072  30.691  36.928   6.755
10853POPC   C3A67073  30.729  36.928   7.055
10853POPC   C4A67074  30.742  36.931   7.355
10853POPC   C1B67075  30.580  37.155   6.455
10853POPC   C2B67076  30.526  37.070   6.755
10853POPC   C3B67077  30.521  37.110   7.055
10853POPC   C4B67078  30.522  37.135   7.355
10854POPC   NC367079  29.101  26.054   5.555
10854POPC   PO467080  29.155  26.028   5.855
10854POPC   GL167081  29.122  26.080   6.155
10854POPC   GL267082  29.144  26.194   6.155
10854POPC   C1A67083  29.147  26.062   6.455
10854POPC   D2A67084  29.127  26.048   6.755
10854POPC   C3A67085  29.152  26.050   7.055
10854POPC   C4A67086  29.161  25.995   7.355
10854POPC   C1B67087  29.082  26.310   6.455
10854POPC   C2B67088  29.034  26.326   6.755
10854POPC   C3B67089  29.075  26.276   7.055
10854POPC   C4B67090  29.110  26.232   7.355
10855POPC   NC367091   5.091  21.354   5.555
10855POPC   PO467092   5.051  21.387   5.855
10855POPC   GL167093   5.089  21.348   6.155
10855POPC   GL267094   5.103  21.525   6.155
10855POPC   C1A67095   5.083  21.390   6.455
10855POPC   D2A67096   5.098  21.433   6.755
10855POPC   C3A67097   5.061  21.386   7.055
10855POPC   C4A67098   5.124  21.356   7.355
10855POPC   C1B67099   5.142  21.607   6.455
10855POPC   C2B67100   5.166  21.604   6.755
10855POPC   C3B67101   5.124  21.664   7.055
10855POPC   C4B67102   5.115  21.597   7.355
10856POPC   NC367103   8.990  22.889   5.555
10856POPC   PO467104   8.980  22.983   5.855
10856POPC   GL167105   8.946  22.961   6.155
10856POPC   GL267106   8.801  22.956   6.155
10856POPC   C1A67107   8.984  22.972   6.455
10856POPC   D2A67108   9.003  22.924   6.755
10856POPC   C3A67109   8.976  22.906   7.055
10856POPC   C4A67110   9.003  22.984   7.355
10856POPC   C1B67111   8.734  22.963   6.455
10856POPC   C2B67112   8.683  22.968   6.755
10856POPC   C3B67113   8.753  22.976   7.055
10856POPC   C4B67114   8.745  22.944   7.355
10857POPC   NC367115  28.408  24.517   5.555
10857POPC   PO467116  28.357  24.499   5.855
10857POPC   GL167117  28.366  24.528   6.155
10857POPC   GL267118  28.353  24.621   6.155
10857POPC   C1A67119  28.388  24.499   6.455
10857POPC   D2A67120  28.353  24.490   6.755
10857POPC   C3A67121  28.365  24.499   7.055
10857POPC   C4A67122  28.412  24.446   7.355
10857POPC   C1B67123  28.455  24.722   6.455
10857POPC   C2B67124  28.437  24.692   6.755
10857POPC   C3B67125  28.402  24.718   7.055
10857POPC   C4B67126  28.457  24.706   7.355
10858POPC   NC367127  35.359  19.794   5.555
10858POPC   PO467128  35.380  19.831   5.855
10858POPC   GL167129  35.345  19.836   6.155
10858POPC   GL267130  35.305  19.974   6.155
10858POPC   C1A67131  35.345  19.871   6.455
10858POPC   D2A67132  35.306  19.821   6.755
10858POPC   C3A67133  35.373  19.850   7.055
10858POPC   C4A67134  35.348  19.794   7.355
10858POPC   C1B67135  35.260  20.129   6.455
10858POPC   C2B67136  35.273  20.111   6.755
10858POPC   C3B67137  35.346  20.054   7.055
10858POPC   C4B67138  35.277  20.049   7.355
10859POPC   NC367139  34.585  29.926   5.555
10859POPC   PO467140  34.550  29.910   5.855
10859POPC   GL167141  34.547  29.899   6.155
10859POPC   GL267142  34.591  30.053   6.155
10859POPC   C1A67143  34.622  29.923   6.455
10859POPC   D2A67144  34.575  29.941   6.755
10859POPC   C3A67145  34.606  29.895   7.055
10859POPC   C4A67146  34.613  29.897   7.355
10859POPC   C1B67147  34.561  30.151   6.455
10859POPC   C2B67148  34.586  30.186   6.755
10859POPC   C3B67149  34.530  30.141   7.055
10859POPC   C4B67150  34.599  30.189   7.355
10860POPC   NC367151  12.102  22.920   5.555
10860POPC   PO467152  12.032  22.951   5.855
10860POPC   GL167153  12.071  22.944   6.155
10860POPC   GL267154  11.987  22.826   6.155
10860POPC   C1A67155  12.066  22.897   6.455
10860POPC   D2A67156  12.102  22.969   6.755
10860POPC   C3A67157  12.085  22.937   7.055
10860POPC   C4A67158  12.122  22.932   7.355
10860POPC   C1B67159  11.916  22.759   6.455
10860POPC   C2B67160  11.890  22.724   6.755
10860POPC   C3B67161  11.959  22.730   7.055
10860POPC   C4B67162  11.926  22.737   7.355
10861POPC   NC367163   8.184  22.114   5.555
10861POPC   PO467164   8.217  22.133   5.855
10861POPC   GL167165   8.237  22.141   6.155
10861POPC   GL267166   8.124  22.090   6.155
10861POPC   C1A67167   8.160  22.150   6.455
10861POPC   D2A67168   8.217  22.190   6.755
10861POPC   C3A67169   8.190  22.126   7.055
10861POPC   C4A67170   8.173  22.209   7.355
10861POPC   C1B67171   8.037  21.967   6.455
10861POPC   C2B67172   8.003  21.982   6.755
10861POPC   C3B67173   8.035  21.963   7.055
10861POPC   C4B67174   7.998  22.034   7.355
10862POPC   NC367175  12.820  19.013   5.555
10862POPC   PO467176  12.857  19.021   5.855
10862POPC   GL167177  12.862  19.068   6.155
10862POPC   GL267178  12.894  19.122   6.155
10862POPC   C1A67179  12.840  19.083   6.455
10862POPC   D2A67180  12.867  19.086   6.755
10862POPC   C3A67181  12.840  19.098   7.055
10862POPC   C4A67182  12.869  19.034   7.355
10862POPC   C1B67183  13.048  19.246   6.455
10862POPC   C2B67184  12.993  19.213   6.755
10862POPC   C3B67185  13.048  19.196   7.055
10862POPC   C4B67186  13.054  19.222   7.355
10863POPC   NC367187  32.251  23.686   5.555
10863POPC   PO467188  32.269  23.747   5.855
10863POPC   GL167189  32.241  23.723   6.155
10863POPC   GL267190  32.292  23.571   6.155
10863POPC   C1A67191  32.291  23.710   6.455
10863POPC   D2A67192  32.223  23.732   6.755
10863POPC   C3A67193  32.232  23.739   7.055
10863POPC   C4A67194  32.219  23.712   7.355
10863POPC   C1B67195  32.435  23.462   6.455
10863POPC   C2B67196  32.376  23.534   6.755
10863POPC   C3B67197  32.390  23.534   7.055
10863POPC   C4B67198  32.396  23.466   7.355
10864POPC   NC367199   4.277   2.775   5.555
10864POPC   PO467200   4.360   2.743   5.855
10864POPC   GL167201   4.324   2.778   6.155
10864POPC   GL267202   4.198   2.812   6.155
10864POPC   C1A67203   4.272   2.806   6.455
10864POPC   D2A67204   4.294   2.785   6.755
10864POPC   C3A67205   4.319   2.743   7.055
10864POPC   C4A67206   4.354   2.771   7.355
10864POPC   C1B67207   4.069   2.762   6.455
10864POPC   C2B67208   4.054   2.770   6.755
10864POPC   C3B67209   4.066   2.730   7.055
10864POPC   C4B67210   4.112   2.815   7.355
10865POPC   NC367211   3.530  43.913   5.555
10865POPC   PO467212   3.532  43.923   5.855
10865POPC   GL167213   3.514  43.850   6.155
10865POPC   GL267214   3.400  43.892   6.155
10865POPC   C1A67215   3.547  43.895   6.455
10865POPC   D2A67216   3.588  43.914   6.755
10865POPC   C3A67217   3.567  43.843   7.055
10865POPC   C4A67218   3.556  43.906   7.355
10865POPC   C1B67219   3.259  43.962   6.455
10865POPC   C2B67220   3.282  43.871   6.755
10865POPC   C3B67221   3.340  43.907   7.055
10865POPC   C4B67222   3.282  43.959   7.355
10866POPC   NC367223   3.569   1.181   5.555
10866POPC   PO467224   3.584   1.235   5.855
10866POPC   GL167225   3.532   1.194   6.155
10866POPC   GL267226   3.530   1.098   6.155
10866POPC   C1A67227   3.586   1.192   6.455
10866POPC   D2A67228   3.531   1.221   6.755
10866POPC   C3A67229   3.494   1.192   7.055
10866POPC   C4A67230   3.537   1.236   7.355
10866POPC   C1B67231   3.522   0.951   6.455
10866POPC   C2B67232   3.530   0.925   6.755
10866POPC   C3B67233   3.569   0.973   7.055
10866POPC   C4B67234   3.556   0.952   7.355
10867POPC   NC367235   8.997  36.078   5.555
10867POPC   PO467236   8.948  36.138   5.855
10867POPC   GL167237   8.943  36.173   6.155
10867POPC   GL267238   8.976  36.006   6.155
10867POPC   C1A67239   8.955  36.102   6.455
10867POPC   D2A67240   8.953  36.103   6.755
10867POPC   C3A67241   8.980  36.129   7.055
10867POPC   C4A67242   9.013  36.123   7.355
10867POPC   C1B67243   8.936  35.875   6.455
10867POPC   C2B67244   8.928  35.906   6.755
10867POPC   C3B67245   8.994  35.924   7.055
10867POPC   C4B67246   8.999  35.888   7.355
10868POPC   NC367247  22.922   5.892   5.555
10868POPC   PO467248  22.949   5.837   5.855
10868POPC   GL167249  22.983   5.842   6.155
10868POPC   GL267250  23.057   5.793   6.155
10868POPC   C1A67251  22.974   5.855   6.455
10868POPC   D2A67252  22.891   5.853   6.755
10868POPC   C3A67253  22.968   5.910   7.055
10868POPC   C4A67254  22.931   5.916   7.355
10868POPC   C1B67255  23.112   5.700   6.455
10868POPC   C2B67256  23.163   5.722   6.755
10868POPC   C3B67257  23.188   5.718   7.055
10868POPC   C4B67258  23.180   5.704   7.355
10869POPC   NC367259  44.622   1.233   5.555
10869POPC   PO467260  44.708   1.203   5.855
10869POPC   GL167261  44.646   1.212   6.155
10869POPC   GL267262  44.745   1.304   6.155
10869POPC   C1A67263  44.706   1.250   6.455
10869POPC   D2A67264  44.686   1.243   6.755
10869POPC   C3A67265  44.652   1.233   7.055
10869POPC   C4A67266  44.628   1.213   7.355
10869POPC   C1B67267  44.924   1.340   6.455
10869POPC   C2B67268  44.890   1.356   6.755
10869POPC   C3B67269  44.921   1.330   7.055
10869POPC   C4B67270  44.887   1.352   7.355
10870POPC   NC367271  22.890   0.449   5.555
10870POPC   PO467272  22.982   0.423   5.855
10870POPC   GL167273  22.903   0.391   6.155
10870POPC   GL267274  22.869   0.480   6.155
10870POPC   C1A67275  22.892   0.427   6.455
10870POPC   D2A67276  22.903   0.458   6.755
10870POPC   C3A67277  22.892   0.461   7.055
10870POPC   C4A67278  22.917   0.406   7.355
10870POPC   C1B67279  22.725   0.607   6.455
10870POPC   C2B67280  22.809   0.594   6.755
10870POPC   C3B67281  22.760   0.585   7.055
10870POPC   C4B67282  22.722   0.581   7.355
10871POPC   NC367283   8.232   0.436   5.555
10871POPC   PO467284   8.220   0.449   5.855
10871POPC   GL167285   8.243   0.470   6.155
10871POPC   GL267286   8.075   0.464   6.155
10871POPC   C1A67287   8.176   0.396   6.455
10871POPC   D2A67288   8.181   0.426   6.755
10871POPC   C3A67289   8.158   0.454   7.055
10871POPC   C4A67290   8.170   0.390   7.355
10871POPC   C1B67291   7.950   0.522   6.455
10871POPC   C2B67292   7.938   0.593   6.755
10871POPC   C3B67293   7.976   0.587   7.055
10871POPC   C4B67294   7.957   0.516   7.355
10872POPC   NC367295  19.092   2.791   5.555
10872POPC   PO467296  19.037   2.776   5.855
10872POPC   GL167297  19.040   2.734   6.155
10872POPC   GL267298  19.009   2.676   6.155
10872POPC   C1A67299  19.088   2.742   6.455
10872POPC   D2A67300  19.030   2.776   6.755
10872POPC   C3A67301  19.059   2.777   7.055
10872POPC   C4A67302  19.019   2.771   7.355
10872POPC   C1B67303  18.994   2.473   6.455
10872POPC   C2B67304  19.010   2.505   6.755
10872POPC   C3B67305  19.000   2.567   7.055
10872POPC   C4B67306  18.960   2.497   7.355
10873POPC   NC367307  21.343  29.129   5.555
10873POPC   PO467308  21.337  29.131   5.855
10873POPC   GL167309  21.411  29.150   6.155
10873POPC   GL267310  21.361  29.053   6.155
10873POPC   C1A67311  21.425  29.194   6.455
10873POPC   D2A67312  21.412  29.134   6.755
10873POPC   C3A67313  21.426  29.148   7.055
10873POPC   C4A67314  21.432  29.124   7.355
10873POPC   C1B67315  21.381  28.918   6.455
10873POPC   C2B67316  21.403  28.849   6.755
10873POPC   C3B67317  21.369  28.909   7.055
10873POPC   C4B67318  21.327  28.851   7.355
10874POPC   NC367319  37.656  22.166   5.555
10874POPC   PO467320  37.642  22.116   5.855
10874POPC   GL167321  37.729  22.130   6.155
10874POPC   GL267322  37.565  22.275   6.155
10874POPC   C1A67323  37.693  22.208   6.455
10874POPC   D2A67324  37.635  22.154   6.755
10874POPC   C3A67325  37.719  22.206   7.055
10874POPC   C4A67326  37.653  22.164   7.355
10874POPC   C1B67327  37.486  22.328   6.455
10874POPC   C2B67328  37.508  22.362   6.755
10874POPC   C3B67329  37.557  22.316   7.055
10874POPC   C4B67330  37.538  22.354   7.355
10875POPC   NC367331  14.432  18.302   5.555
10875POPC   PO467332  14.436  18.302   5.855
10875POPC   GL167333  14.359  18.308   6.155
10875POPC   GL267334  14.312  18.300   6.155
10875POPC   C1A67335  14.422  18.241   6.455
10875POPC   D2A67336  14.390  18.250   6.755
10875POPC   C3A67337  14.382  18.280   7.055
10875POPC   C4A67338  14.359  18.300   7.355
10875POPC   C1B67339  14.211  18.397   6.455
10875POPC   C2B67340  14.203  18.329   6.755
10875POPC   C3B67341  14.114  18.397   7.055
10875POPC   C4B67342  14.133  18.374   7.355
10876POPC   NC367343  43.151   3.541   5.555
10876POPC   PO467344  43.147   3.552   5.855
10876POPC   GL167345  43.140   3.569   6.155
10876POPC   GL267346  43.078   3.388   6.155
10876POPC   C1A67347  43.137   3.499   6.455
10876POPC   D2A67348  43.154   3.537   6.755
10876POPC   C3A67349  43.096   3.591   7.055
10876POPC   C4A67350  43.134   3.517   7.355
10876POPC   C1B67351  42.998   3.331   6.455
10876POPC   C2B67352  43.034   3.345   6.755
10876POPC   C3B67353  43.051   3.277   7.055
10876POPC   C4B67354  43.040   3.303   7.355
10877POPC   NC367355  39.255  14.390   5.555
10877POPC   PO467356  39.267  14.428   5.855
10877POPC   GL167357  39.216  14.388   6.155
10877POPC   GL267358  39.196  14.297   6.155
10877POPC   C1A67359  39.212  14.360   6.455
10877POPC   D2A67360  39.248  14.425   6.755
10877POPC   C3A67361  39.272  14.431   7.055
10877POPC   C4A67362  39.198  14.413   7.355
10877POPC   C1B67363  39.246  14.189   6.455
10877POPC   C2B67364  39.251  14.163   6.755
10877POPC   C3B67365  39.189  14.195   7.055
10877POPC   C4B67366  39.205  14.149   7.355
10878POPC   NC367367   8.213  17.516   5.555
10878POPC   PO467368   8.202  17.506   5.855
10878POPC   GL167369   8.222  17.520   6.155
10878POPC   GL267370   8.132  17.614   6.155
10878POPC   C1A67371   8.167  17.542   6.455
10878POPC   D2A67372   8.180  17.498   6.755
10878POPC   C3A67373   8.229  17.467   7.055
10878POPC   C4A67374   8.166  17.461   7.355
10878POPC   C1B67375   7.987  17.718   6.455
10878POPC   C2B67376   7.964  17.660   6.755
10878POPC   C3B67377   8.053  17.622   7.055
10878POPC   C4B67378   8.028  17.627   7.355
10879POPC   NC367379   6.653   8.964   5.555
10879POPC   PO467380   6.613   8.974   5.855
10879POPC   GL167381   6.644   8.935   6.155
10879POPC   GL267382   6.503   8.985   6.155
10879POPC   C1A67383   6.622   8.975   6.455
10879POPC   D2A67384   6.645   8.987   6.755
10879POPC   C3A67385   6.596   8.940   7.055
10879POPC   C4A67386   6.641   8.953   7.355
10879POPC   C1B67387   6.353   8.887   6.455
10879POPC   C2B67388   6.366   8.964   6.755
10879POPC   C3B67389   6.416   8.912   7.055
10879POPC   C4B67390   6.436   8.930   7.355
10880POPC   NC367391  40.738   5.842   5.555
10880POPC   PO467392  40.736   5.910   5.855
10880POPC   GL167393  40.829   5.852   6.155
10880POPC   GL267394  40.715   5.753   6.155
10880POPC   C1A67395  40.758   5.845   6.455
10880POPC   D2A67396  40.818   5.835   6.755
10880POPC   C3A67397  40.821   5.843   7.055
10880POPC   C4A67398  40.763   5.900   7.355
10880POPC   C1B67399  40.674   5.673   6.455
10880POPC   C2B67400  40.687   5.663   6.755
10880POPC   C3B67401  40.684   5.639   7.055
10880POPC   C4B67402  40.712   5.650   7.355
10881POPC   NC367403  36.902  29.965   5.555
10881POPC   PO467404  36.929  29.943   5.855
10881POPC   GL167405  36.938  29.877   6.155
10881POPC   GL267406  36.909  29.824   6.155
10881POPC   C1A67407  36.885  29.938   6.455
10881POPC   D2A67408  36.883  29.940   6.755
10881POPC   C3A67409  36.865  29.937   7.055
10881POPC   C4A67410  36.895  29.965   7.355
10881POPC   C1B67411  36.987  29.676   6.455
10881POPC   C2B67412  36.975  29.695   6.755
10881POPC   C3B67413  36.967  29.647   7.055
10881POPC   C4B67414  36.994  29.630   7.355
10882POPC   NC367415  29.188  23.715   5.555
10882POPC   PO467416  29.157  23.698   5.855
10882POPC   GL167417  29.146  23.680   6.155
10882POPC   GL267418  29.093  23.597   6.155
10882POPC   C1A67419  29.095  23.671   6.455
10882POPC   D2A67420  29.182  23.724   6.755
10882POPC   C3A67421  29.130  23.693   7.055
10882POPC   C4A67422  29.150  23.699   7.355
10882POPC   C1B67423  29.142  23.445   6.455
10882POPC   C2B67424  29.146  23.454   6.755
10882POPC   C3B67425  29.177  23.428   7.055
10882POPC   C4B67426  29.092  23.443   7.355
10883POPC   NC367427  22.152  40.750   5.555
10883POPC   PO467428  22.155  40.772   5.855
10883POPC   GL167429  22.150  40.799   6.155
10883POPC   GL267430  22.139  40.614   6.155
10883POPC   C1A67431  22.184  40.810   6.455
10883POPC   D2A67432  22.118  40.790   6.755
10883POPC   C3A67433  22.196  40.756   7.055
10883POPC   C4A67434  22.120  40.789   7.355
10883POPC   C1B67435  22.122  40.552   6.455
10883POPC   C2B67436  22.110  40.535   6.755
10883POPC   C3B67437  22.107  40.523   7.055
10883POPC   C4B67438  22.115  40.543   7.355
10884POPC   NC367439  30.647   0.463   5.555
10884POPC   PO467440  30.701   0.406   5.855
10884POPC   GL167441  30.696   0.475   6.155
10884POPC   GL267442  30.708   0.328   6.155
10884POPC   C1A67443  30.730   0.394   6.455
10884POPC   D2A67444  30.739   0.438   6.755
10884POPC   C3A67445  30.653   0.458   7.055
10884POPC   C4A67446  30.711   0.414   7.355
10884POPC   C1B67447  30.686   0.215   6.455
10884POPC   C2B67448  30.604   0.172   6.755
10884POPC   C3B67449  30.680   0.195   7.055
10884POPC   C4B67450  30.667   0.242   7.355
10885POPC   NC367451   1.975  28.347   5.555
10885POPC   PO467452   1.979  28.331   5.855
10885POPC   GL167453   2.003  28.347   6.155
10885POPC   GL267454   1.910  28.283   6.155
10885POPC   C1A67455   2.019  28.405   6.455
10885POPC   D2A67456   2.006  28.332   6.755
10885POPC   C3A67457   2.027  28.322   7.055
10885POPC   C4A67458   1.947  28.416   7.355
10885POPC   C1B67459   1.773  28.258   6.455
10885POPC   C2B67460   1.779  28.295   6.755
10885POPC   C3B67461   1.747  28.274   7.055
10885POPC   C4B67462   1.772  28.230   7.355
10886POPC   NC367463  42.285   9.724   5.555
10886POPC   PO467464  42.309   9.757   5.855
10886POPC   GL167465  42.305   9.719   6.155
10886POPC   GL267466  42.416   9.628   6.155
10886POPC   C1A67467  42.351   9.766   6.455
10886POPC   D2A67468  42.374   9.745   6.755
10886POPC   C3A67469  42.298   9.741   7.055
10886POPC   C4A67470  42.314   9.777   7.355
10886POPC   C1B67471  42.485   9.512   6.455
10886POPC   C2B67472  42.482   9.520   6.755
10886POPC   C3B67473  42.454   9.517   7.055
10886POPC   C4B67474  42.493   9.526   7.355
10887POPC   NC367475  22.946   5.102   5.555
10887POPC   PO467476  22.938   5.051   5.855
10887POPC   GL167477  22.949   5.103   6.155
10887POPC   GL267478  23.017   4.960   6.155
10887POPC   C1A67479  22.896   5.074   6.455
10887POPC   D2A67480  22.962   5.096   6.755
10887POPC   C3A67481  22.962   5.062   7.055
10887POPC   C4A67482  22.907   5.052   7.355
10887POPC   C1B67483  22.963   4.834   6.455
10887POPC   C2B67484  22.989   4.805   6.755
10887POPC   C3B67485  23.003   4.875   7.055
10887POPC   C4B67486  23.020   4.837   7.355
10888POPC   NC367487  17.545   2.759   5.555
10888POPC   PO467488  17.489   2.763   5.855
10888POPC   GL167489  17.506   2.746   6.155
10888POPC   GL267490  17.504   2.853   6.155
10888POPC   C1A67491  17.488   2.811   6.455
10888POPC   D2A67492  17.508   2.742   6.755
10888POPC   C3A67493  17.515   2.793   7.055
10888POPC   C4A67494  17.547   2.805   7.355
10888POPC   C1B67495  17.436   2.980   6.455
10888POPC   C2B67496  17.388   3.038   6.755
10888POPC   C3B67497  17.407   3.010   7.055
10888POPC   C4B67498  17.374   3.039   7.355
10889POPC   NC367499  34.604  17.520   5.555
10889POPC   PO467500  34.543  17.499   5.855
10889POPC   GL167501  34.565  17.480   6.155
10889POPC   GL267502  34.699  17.513   6.155
10889POPC   C1A67503  34.549  17.504   6.455
10889POPC   D2A67504  34.611  17.487   6.755
10889POPC   C3A67505  34.612  17.478   7.055
10889POPC   C4A67506  34.594  17.556   7.355
10889POPC   C1B67507  34.862  17.441   6.455
10889POPC   C2B67508  34.822  17.429   6.755
10889POPC   C3B67509  34.853  17.442   7.055
10889POPC   C4B67510  34.833  17.436   7.355
10890POPC   NC367511   1.187  30.658   5.555
10890POPC   PO467512   1.209  30.717   5.855
10890POPC   GL167513   1.246  30.680   6.155
10890POPC   GL267514   1.330  30.567   6.155
10890POPC   C1A67515   1.253  30.647   6.455
10890POPC   D2A67516   1.218  30.706   6.755
10890POPC   C3A67517   1.173  30.679   7.055
10890POPC   C4A67518   1.169  30.672   7.355
10890POPC   C1B67519   1.367  30.469   6.455
10890POPC   C2B67520   1.414  30.515   6.755
10890POPC   C3B67521   1.397  30.528   7.055
10890POPC   C4B67522   1.432  30.486   7.355
10891POPC   NC367523  15.983  12.851   5.555
10891POPC   PO467524  15.989  12.835   5.855
10891POPC   GL167525  15.998  12.841   6.155
10891POPC   GL267526  15.941  12.693   6.155
10891POPC   C1A67527  15.953  12.866   6.455
10891POPC   D2A67528  15.938  12.825   6.755
10891POPC   C3A67529  15.915  12.820   7.055
10891POPC   C4A67530  15.961  12.841   7.355
10891POPC   C1B67531  15.905  12.568   6.455
10891POPC   C2B67532  15.887  12.632   6.755
10891POPC   C3B67533  15.977  12.653   7.055
10891POPC   C4B67534  15.928  12.586   7.355
10892POPC   NC367535  26.079  12.077   5.555
10892POPC   PO467536  26.078  12.065   5.855
10892POPC   GL167537  26.046  12.106   6.155
10892POPC   GL267538  26.023  12.197   6.155
10892POPC   C1A67539  26.003  12.106   6.455
10892POPC   D2A67540  26.045  12.064   6.755
10892POPC   C3A67541  26.077  12.068   7.055
10892POPC   C4A67542  25.999  12.036   7.355
10892POPC   C1B67543  25.909  12.272   6.455
10892POPC   C2B67544  25.902  12.321   6.755
10892POPC   C3B67545  25.959  12.348   7.055
10892POPC   C4B67546  25.968  12.260   7.355
10893POPC   NC367547   2.771  32.241   5.555
10893POPC   PO467548   2.745  32.230   5.855
10893POPC   GL167549   2.813  32.226   6.155
10893POPC   GL267550   2.902  32.323   6.155
10893POPC   C1A67551   2.732  32.201   6.455
10893POPC   D2A67552   2.740  32.222   6.755
10893POPC   C3A67553   2.718  32.280   7.055
10893POPC   C4A67554   2.750  32.265   7.355
10893POPC   C1B67555   3.003  32.328   6.455
10893POPC   C2B67556   3.019  32.315   6.755
10893POPC   C3B67557   2.981  32.319   7.055
10893POPC   C4B67558   2.950  32.328   7.355
10894POPC   NC367559  39.967   9.727   5.555
10894POPC   PO467560  40.023   9.709   5.855
10894POPC   GL167561  40.021   9.711   6.155
10894POPC   GL267562  39.875   9.796   6.155
10894POPC   C1A67563  40.052   9.789   6.455
10894POPC   D2A67564  39.999   9.778   6.755
10894POPC   C3A67565  39.981   9.736   7.055
10894POPC   C4A67566  39.975   9.797   7.355
10894POPC   C1B67567  39.782   9.887   6.455
10894POPC   C2B67568  39.827   9.927   6.755
10894POPC   C3B67569  39.843   9.875   7.055
10894POPC   C4B67570  39.868   9.932   7.355
10895POPC   NC367571  24.530  18.286   5.555
10895POPC   PO467572  24.474  18.267   5.855
10895POPC   GL167573  24.504  18.266   6.155
10895POPC   GL267574  24.414  18.352   6.155
10895POPC   C1A67575  24.443  18.277   6.455
10895POPC   D2A67576  24.443  18.236   6.755
10895POPC   C3A67577  24.511  18.283   7.055
10895POPC   C4A67578  24.513  18.323   7.355
10895POPC   C1B67579  24.441  18.477   6.455
10895POPC   C2B67580  24.436  18.537   6.755
10895POPC   C3B67581  24.379  18.496   7.055
10895POPC   C4B67582  24.419  18.546   7.355
10896POPC   NC367583  34.600  23.751   5.555
10896POPC   PO467584  34.533  23.738   5.855
10896POPC   GL167585  34.537  23.752   6.155
10896POPC   GL267586  34.598  23.817   6.155
10896POPC   C1A67587  34.580  23.730   6.455
10896POPC   D2A67588  34.536  23.704   6.755
10896POPC   C3A67589  34.620  23.675   7.055
10896POPC   C4A67590  34.569  23.703   7.355
10896POPC   C1B67591  34.687  23.963   6.455
10896POPC   C2B67592  34.677  23.883   6.755
10896POPC   C3B67593  34.732  23.962   7.055
10896POPC   C4B67594  34.720  23.925   7.355
10897POPC   NC367595  30.734  12.117   5.555
10897POPC   PO467596  30.706  12.075   5.855
10897POPC   GL167597  30.684  12.059   6.155
10897POPC   GL267598  30.840  12.055   6.155
10897POPC   C1A67599  30.721  12.125   6.455
10897POPC   D2A67600  30.700  12.078   6.755
10897POPC   C3A67601  30.685  12.063   7.055
10897POPC   C4A67602  30.650  12.041   7.355
10897POPC   C1B67603  30.964  12.133   6.455
10897POPC   C2B67604  30.943  12.072   6.755
10897POPC   C3B67605  30.945  12.135   7.055
10897POPC   C4B67606  30.949  12.050   7.355
10898POPC   NC367607   4.323   3.496   5.555
10898POPC   PO467608   4.296   3.563   5.855
10898POPC   GL167609   4.284   3.549   6.155
10898POPC   GL267610   4.407   3.461   6.155
10898POPC   C1A67611   4.354   3.500   6.455
10898POPC   D2A67612   4.345   3.586   6.755
10898POPC   C3A67613   4.318   3.574   7.055
10898POPC   C4A67614   4.277   3.499   7.355
10898POPC   C1B67615   4.407   3.306   6.455
10898POPC   C2B67616   4.421   3.368   6.755
10898POPC   C3B67617   4.455   3.383   7.055
10898POPC   C4B67618   4.420   3.382   7.355
10899POPC   NC367619  10.512   1.206   5.555
10899POPC   PO467620  10.486   1.256   5.855
10899POPC   GL167621  10.565   1.204   6.155
10899POPC   GL267622  10.363   1.176   6.155
10899POPC   C1A67623  10.509   1.178   6.455
10899POPC   D2A67624  10.482   1.193   6.755
10899POPC   C3A67625  10.568   1.229   7.055
10899POPC   C4A67626  10.541   1.217   7.355
10899POPC   C1B67627  10.262   1.226   6.455
10899POPC   C2B67628  10.253   1.256   6.755
10899POPC   C3B67629  10.249   1.249   7.055
10899POPC   C4B67630  10.284   1.181   7.355
10900POPC   NC367631  22.952  34.592   5.555
10900POPC   PO467632  22.918  34.599   5.855
10900POPC   GL167633  22.912  34.571   6.155
10900POPC   GL267634  22.881  34.453   6.155
10900POPC   C1A67635  22.907  34.616   6.455
10900POPC   D2A67636  22.987  34.582   6.755
10900POPC   C3A67637  22.982  34.581   7.055
10900POPC   C4A67638  22.892  34.603   7.355
10900POPC   C1B67639  22.843  34.344   6.455
10900POPC   C2B67640  22.823  34.333   6.755
10900POPC   C3B67641  22.888  34.321   7.055
10900POPC   C4B67642  22.916  34.314   7.355
10901POPC   NC367643  18.282  43.877   5.555
10901POPC   PO467644  18.303  43.878   5.855
10901POPC   GL167645  18.296  43.922   6.155
10901POPC   GL267646  18.338  43.960   6.155
10901POPC   C1A67647  18.315  43.862   6.455
10901POPC   D2A67648  18.262  43.886   6.755
10901POPC   C3A67649  18.324  43.889   7.055
10901POPC   C4A67650  18.322  43.925   7.355
10901POPC   C1B67651  18.493  44.048   6.455
10901POPC   C2B67652  18.468  43.991   6.755
10901POPC   C3B67653  18.500  44.072   7.055
10901POPC   C4B67654  18.436  44.079   7.355
10902POPC   NC367655  24.450   7.413   5.555
10902POPC   PO467656  24.448   7.393   5.855
10902POPC   GL167657  24.442   7.434   6.155
10902POPC   GL267658  24.481   7.260   6.155
10902POPC   C1A67659  24.517   7.449   6.455
10902POPC   D2A67660  24.487   7.432   6.755
10902POPC   C3A67661  24.491   7.384   7.055
10902POPC   C4A67662  24.470   7.385   7.355
10902POPC   C1B67663  24.381   7.229   6.455
10902POPC   C2B67664  24.391   7.174   6.755
10902POPC   C3B67665  24.366   7.160   7.055
10902POPC   C4B67666  24.411   7.185   7.355
10903POPC   NC367667  36.114  25.296   5.555
10903POPC   PO467668  36.163  25.227   5.855
10903POPC   GL167669  36.104  25.288   6.155
10903POPC   GL267670  36.239  25.136   6.155
10903POPC   C1A67671  36.122  25.216   6.455
10903POPC   D2A67672  36.158  25.271   6.755
10903POPC   C3A67673  36.145  25.244   7.055
10903POPC   C4A67674  36.152  25.228   7.355
10903POPC   C1B67675  36.262  25.023   6.455
10903POPC   C2B67676  36.246  25.018   6.755
10903POPC   C3B67677  36.279  25.007   7.055
10903POPC   C4B67678  36.276  25.061   7.355
10904POPC   NC367679  43.159  13.643   5.555
10904POPC   PO467680  43.094  13.614   5.855
10904POPC   GL167681  43.146  13.615   6.155
10904POPC   GL267682  43.212  13.636   6.155
10904POPC   C1A67683  43.136  13.642   6.455
10904POPC   D2A67684  43.118  13.622   6.755
10904POPC   C3A67685  43.160  13.648   7.055
10904POPC   C4A67686  43.094  13.615   7.355
10904POPC   C1B67687  43.325  13.604   6.455
10904POPC   C2B67688  43.357  13.554   6.755
10904POPC   C3B67689  43.353  13.590   7.055
10904POPC   C4B67690  43.318  13.585   7.355
10905POPC   NC367691   9.765  12.096   5.555
10905POPC   PO467692   9.711  12.049   5.855
10905POPC   GL167693   9.746  12.071   6.155
10905POPC   GL267694   9.858  12.159   6.155
10905POPC   C1A67695   9.727  12.121   6.455
10905POPC   D2A67696   9.749  12.123   6.755
10905POPC   C3A67697   9.721  12.039   7.055
10905POPC   C4A67698   9.788  12.060   7.355
10905POPC   C1B67699   9.970  12.154   6.455
10905POPC   C2B67700  10.003  12.103   6.755
10905POPC   C3B67701   9.977  12.159   7.055
10905POPC   C4B67702   9.938  12.197   7.355
10906POPC   NC367703   9.721  15.945   5.555
10906POPC   PO467704   9.713  15.967   5.855
10906POPC   GL167705   9.778  15.958   6.155
10906POPC   GL267706   9.842  15.900   6.155
10906POPC   C1A67707   9.700  15.964   6.455
10906POPC   D2A67708   9.734  15.937   6.755
10906POPC   C3A67709   9.727  15.917   7.055
10906POPC   C4A67710   9.769  15.990   7.355
10906POPC   C1B67711  10.007  15.903   6.455
10906POPC   C2B67712  10.029  15.920   6.755
10906POPC   C3B67713  10.044  15.909   7.055
10906POPC   C4B67714  10.008  15.916   7.355
10907POPC   NC367715   4.353  22.165   5.555
10907POPC   PO467716   4.357  22.140   5.855
10907POPC   GL167717   4.284  22.174   6.155
10907POPC   GL267718   4.411  22.258   6.155
10907POPC   C1A67719   4.283  22.162   6.455
10907POPC   D2A67720   4.329  22.160   6.755
10907POPC   C3A67721   4.325  22.190   7.055
10907POPC   C4A67722   4.323  22.129   7.355
10907POPC   C1B67723   4.435  22.399   6.455
10907POPC   C2B67724   4.485  22.388   6.755
10907POPC   C3B67725   4.501  22.378   7.055
10907POPC   C4B67726   4.459  22.386   7.355
10908POPC   NC367727  34.539  26.844   5.555
10908POPC   PO467728  34.553  26.857   5.855
10908POPC   GL167729  34.597  26.839   6.155
10908POPC   GL267730  34.643  26.914   6.155
10908POPC   C1A67731  34.576  26.768   6.455
10908POPC   D2A67732  34.540  26.782   6.755
10908POPC   C3A67733  34.590  26.787   7.055
10908POPC   C4A67734  34.544  26.827   7.355
10908POPC   C1B67735  34.799  27.017   6.455
10908POPC   C2B67736  34.778  26.956   6.755
10908POPC   C3B67737  34.730  26.954   7.055
10908POPC   C4B67738  34.803  26.957   7.355
10909POPC   NC367739  31.437  39.270   5.555
10909POPC   PO467740  31.481  39.240   5.855
10909POPC   GL167741  31.521  39.194   6.155
10909POPC   GL267742  31.527  39.107   6.155
10909POPC   C1A67743  31.467  39.195   6.455
10909POPC   D2A67744  31.426  39.207   6.755
10909POPC   C3A67745  31.484  39.192   7.055
10909POPC   C4A67746  31.427  39.236   7.355
10909POPC   C1B67747  31.612  38.985   6.455
10909POPC   C2B67748  31.600  39.009   6.755
10909POPC   C3B67749  31.519  38.978   7.055
10909POPC   C4B67750  31.573  38.968   7.355
10910POPC   NC367751  36.951  15.215   5.555
10910POPC   PO467752  36.854  15.211   5.855
10910POPC   GL167753  36.886  15.141   6.155
10910POPC   GL267754  36.864  15.101   6.155
10910POPC   C1A67755  36.911  15.228   6.455
10910POPC   D2A67756  36.947  15.140   6.755
10910POPC   C3A67757  36.933  15.229   7.055
10910POPC   C4A67758  36.916  15.168   7.355
10910POPC   C1B67759  36.848  14.926   6.455
10910POPC   C2B67760  36.812  14.942   6.755
10910POPC   C3B67761  36.861  14.945   7.055
10910POPC   C4B67762  36.846  14.985   7.355
10911POPC   NC367763   9.750   1.942   5.555
10911POPC   PO467764   9.703   2.020   5.855
10911POPC   GL167765   9.717   1.953   6.155
10911POPC   GL267766   9.865   1.922   6.155
10911POPC   C1A67767   9.735   1.989   6.455
10911POPC   D2A67768   9.786   1.998   6.755
10911POPC   C3A67769   9.749   2.005   7.055
10911POPC   C4A67770   9.703   1.971   7.355
10911POPC   C1B67771   9.901   1.765   6.455
10911POPC   C2B67772   9.930   1.808   6.755
10911POPC   C3B67773   9.958   1.819   7.055
10911POPC   C4B67774   9.896   1.779   7.355
10912POPC   NC367775  29.919  36.923   5.555
10912POPC   PO467776  29.888  36.901   5.855
10912POPC   GL167777  29.896  36.861   6.155
10912POPC   GL267778  29.814  37.029   6.155
10912POPC   C1A67779  29.945  36.905   6.455
10912POPC   D2A67780  29.899  36.924   6.755
10912POPC   C3A67781  29.929  36.878   7.055
10912POPC   C4A67782  29.925  36.932   7.355
10912POPC   C1B67783  29.709  37.065   6.455
10912POPC   C2B67784  29.785  37.091   6.755
10912POPC   C3B67785  29.775  37.107   7.055
10912POPC   C4B67786  29.794  37.074   7.355
10913POPC   NC367787  43.128  10.540   5.555
10913POPC   PO467788  43.090  10.494   5.855
10913POPC   GL167789  43.144  10.573   6.155
10913POPC   GL267790  43.154  10.385   6.155
10913POPC   C1A67791  43.110  10.490   6.455
10913POPC   D2A67792  43.087  10.490   6.755
10913POPC   C3A67793  43.091  10.555   7.055
10913POPC   C4A67794  43.111  10.515   7.355
10913POPC   C1B67795  43.141  10.282   6.455
10913POPC   C2B67796  43.154  10.229   6.755
10913POPC   C3B67797  43.116  10.310   7.055
10913POPC   C4B67798  43.152  10.316   7.355
10914POPC   NC367799  21.404  11.253   5.555
10914POPC   PO467800  21.419  11.283   5.855
10914POPC   GL167801  21.432  11.319   6.155
10914POPC   GL267802  21.292  11.343   6.155
10914POPC   C1A67803  21.429  11.282   6.455
10914POPC   D2A67804  21.386  11.294   6.755
10914POPC   C3A67805  21.379  11.261   7.055
10914POPC   C4A67806  21.430  11.270   7.355
10914POPC   C1B67807  21.102  11.384   6.455
10914POPC   C2B67808  21.154  11.361   6.755
10914POPC   C3B67809  21.108  11.347   7.055
10914POPC   C4B67810  21.109  11.286   7.355
10915POPC   NC367811   6.616  13.673   5.555
10915POPC   PO467812   6.626  13.628   5.855
10915POPC   GL167813   6.604  13.674   6.155
10915POPC   GL267814   6.756  13.718   6.155
10915POPC   C1A67815   6.602  13.639   6.455
10915POPC   D2A67816   6.667  13.659   6.755
10915POPC   C3A67817   6.677  13.645   7.055
10915POPC   C4A67818   6.667  13.632   7.355
10915POPC   C1B67819   6.898  13.701   6.455
10915POPC   C2B67820   6.914  13.674   6.755
10915POPC   C3B67821   6.856  13.715   7.055
10915POPC   C4B67822   6.842  13.748   7.355
10916POPC   NC367823   9.789  19.855   5.555
10916POPC   PO467824   9.727  19.843   5.855
10916POPC   GL167825   9.784  19.858   6.155
10916POPC   GL267826   9.677  19.906   6.155
10916POPC   C1A67827   9.723  19.828   6.455
10916POPC   D2A67828   9.736  19.790   6.755
10916POPC   C3A67829   9.796  19.802   7.055
10916POPC   C4A67830   9.786  19.795   7.355
10916POPC   C1B67831   9.531  20.054   6.455
10916POPC   C2B67832   9.603  19.971   6.755
10916POPC   C3B67833   9.607  20.019   7.055
10916POPC   C4B67834   9.628  20.050   7.355
10917POPC   NC367835  43.854  44.649   5.555
10917POPC   PO467836  43.906  44.626   5.855
10917POPC   GL167837  43.865  44.672   6.155
10917POPC   GL267838  43.746  44.705   6.155
10917POPC   C1A67839  43.932  44.635   6.455
10917POPC   D2A67840  43.857  44.703   6.755
10917POPC   C3A67841  43.927  44.645   7.055
10917POPC   C4A67842  43.895  44.617   7.355
10917POPC   C1B67843  43.688  44.790   6.455
10917POPC   C2B67844  43.651  44.822   6.755
10917POPC   C3B67845  43.705  44.876   7.055
10917POPC   C4B67846  43.730  44.803   7.355
10918POPC   NC367847   8.958  36.918   5.555
10918POPC   PO467848   8.945  36.918   5.855
10918POPC   GL167849   8.947  36.910   6.155
10918POPC   GL267850   8.804  36.908   6.155
10918POPC   C1A67851   8.991  36.856   6.455
10918POPC   D2A67852   8.981  36.929   6.755
10918POPC   C3A67853   8.968  36.874   7.055
10918POPC   C4A67854   8.965  36.944   7.355
10918POPC   C1B67855   8.723  36.841   6.455
10918POPC   C2B67856   8.733  36.832   6.755
10918POPC   C3B67857   8.722  36.839   7.055
10918POPC   C4B67858   8.707  36.877   7.355
10919POPC   NC367859  31.471  28.339   5.555
10919POPC   PO467860  31.459  28.391   5.855
10919POPC   GL167861  31.516  28.377   6.155
10919POPC   GL267862  31.555  28.285   6.155
10919POPC   C1A67863  31.465  28.351   6.455
10919POPC   D2A67864  31.447  28.356   6.755
10919POPC   C3A67865  31.479  28.386   7.055
10919POPC   C4A67866  31.513  28.374   7.355
10919POPC   C1B67867  31.513  28.138   6.455
10919POPC   C2B67868  31.569  28.084   6.755
10919POPC   C3B67869  31.513  28.164   7.055
10919POPC   C4B67870  31.568  28.157   7.355
10920POPC   NC367871  17.463  42.364   5.555
10920POPC   PO467872  17.516  42.293   5.855
10920POPC   GL167873  17.552  42.312   6.155
10920POPC   GL267874  17.409  42.230   6.155
10920POPC   C1A67875  17.529  42.343   6.455
10920POPC   D2A67876  17.478  42.287   6.755
10920POPC   C3A67877  17.468  42.348   7.055
10920POPC   C4A67878  17.543  42.351   7.355
10920POPC   C1B67879  17.374  42.148   6.455
10920POPC   C2B67880  17.326  42.153   6.755
10920POPC   C3B67881  17.367  42.189   7.055
10920POPC   C4B67882  17.327  42.128   7.355
10921POPC   NC367883  43.110  30.726   5.555
10921POPC   PO467884  43.086  30.656   5.855
10921POPC   GL167885  43.084  30.652   6.155
10921POPC   GL267886  43.132  30.531   6.155
10921POPC   C1A67887  43.078  30.650   6.455
10921POPC   D2A67888  43.067  30.648   6.755
10921POPC   C3A67889  43.145  30.711   7.055
10921POPC   C4A67890  43.154  30.726   7.355
10921POPC   C1B67891  43.094  30.465   6.455
10921POPC   C2B67892  43.173  30.466   6.755
10921POPC   C3B67893  43.129  30.477   7.055
10921POPC   C4B67894  43.132  30.498   7.355
10922POPC   NC367895  36.079  35.306   5.555
10922POPC   PO467896  36.080  35.319   5.855
10922POPC   GL167897  36.096  35.367   6.155
10922POPC   GL267898  35.999  35.359   6.155
10922POPC   C1A67899  36.172  35.326   6.455
10922POPC   D2A67900  36.132  35.361   6.755
10922POPC   C3A67901  36.149  35.353   7.055
10922POPC   C4A67902  36.109  35.377   7.355
10922POPC   C1B67903  35.856  35.370   6.455
10922POPC   C2B67904  35.868  35.392   6.755
10922POPC   C3B67905  35.885  35.374   7.055
10922POPC   C4B67906  35.849  35.349   7.355
10923POPC   NC367907  36.166  40.762   5.555
10923POPC   PO467908  36.156  40.832   5.855
10923POPC   GL167909  36.136  40.824   6.155
10923POPC   GL267910  36.051  40.685   6.155
10923POPC   C1A67911  36.159  40.757   6.455
10923POPC   D2A67912  36.162  40.755   6.755
10923POPC   C3A67913  36.151  40.757   7.055
10923POPC   C4A67914  36.104  40.832   7.355
10923POPC   C1B67915  35.973  40.574   6.455
10923POPC   C2B67916  36.014  40.528   6.755
10923POPC   C3B67917  36.033  40.584   7.055
10923POPC   C4B67918  36.003  40.574   7.355
10924POPC   NC367919  17.476  10.533   5.555
10924POPC   PO467920  17.511  10.493   5.855
10924POPC   GL167921  17.483  10.537   6.155
10924POPC   GL267922  17.376  10.562   6.155
10924POPC   C1A67923  17.495  10.554   6.455
10924POPC   D2A67924  17.473  10.481   6.755
10924POPC   C3A67925  17.511  10.572   7.055
10924POPC   C4A67926  17.486  10.509   7.355
10924POPC   C1B67927  17.295  10.570   6.455
10924POPC   C2B67928  17.217  10.498   6.755
10924POPC   C3B67929  17.274  10.567   7.055
10924POPC   C4B67930  17.224  10.566   7.355
10925POPC   NC367931  27.556  22.166   5.555
10925POPC   PO467932  27.642  22.150   5.855
10925POPC   GL167933  27.593  22.197   6.155
10925POPC   GL267934  27.682  22.274   6.155
10925POPC   C1A67935  27.597  22.201   6.455
10925POPC   D2A67936  27.640  22.164   6.755
10925POPC   C3A67937  27.595  22.184   7.055
10925POPC   C4A67938  27.596  22.152   7.355
10925POPC   C1B67939  27.703  22.343   6.455
10925POPC   C2B67940  27.748  22.342   6.755
10925POPC   C3B67941  27.718  22.386   7.055
10925POPC   C4B67942  27.749  22.383   7.355
10926POPC   NC367943  21.341  28.389   5.555
10926POPC   PO467944  21.363  28.396   5.855
10926POPC   GL167945  21.407  28.328   6.155
10926POPC   GL267946  21.429  28.252   6.155
10926POPC   C1A67947  21.348  28.419   6.455
10926POPC   D2A67948  21.376  28.373   6.755
10926POPC   C3A67949  21.352  28.380   7.055
10926POPC   C4A67950  21.397  28.386   7.355
10926POPC   C1B67951  21.583  28.192   6.455
10926POPC   C2B67952  21.547  28.186   6.755
10926POPC   C3B67953  21.549  28.180   7.055
10926POPC   C4B67954  21.584  28.191   7.355
10927POPC   NC367955  13.579  42.361   5.555
10927POPC   PO467956  13.585  42.293   5.855
10927POPC   GL167957  13.617  42.299   6.155
10927POPC   GL267958  13.621  42.415   6.155
10927POPC   C1A67959  13.603  42.321   6.455
10927POPC   D2A67960  13.623  42.311   6.755
10927POPC   C3A67961  13.671  42.288   7.055
10927POPC   C4A67962  13.580  42.291   7.355
10927POPC   C1B67963  13.492  42.546   6.455
10927POPC   C2B67964  13.571  42.588   6.755
10927POPC   C3B67965  13.484  42.561   7.055
10927POPC   C4B67966  13.488  42.599   7.355
10928POPC   NC367967   2.736   9.740   5.555
10928POPC   PO467968   2.808   9.776   5.855
10928POPC   GL167969   2.770   9.740   6.155
10928POPC   GL267970   2.657   9.770   6.155
10928POPC   C1A67971   2.780   9.738   6.455
10928POPC   D2A67972   2.754   9.741   6.755
10928POPC   C3A67973   2.722   9.789   7.055
10928POPC   C4A67974   2.793   9.719   7.355
10928POPC   C1B67975   2.530   9.802   6.455
10928POPC   C2B67976   2.570   9.768   6.755
10928POPC   C3B67977   2.550   9.816   7.055
10928POPC   C4B67978   2.541   9.789   7.355
10929POPC   NC367979   1.171   7.379   5.555
10929POPC   PO467980   1.193   7.434   5.855
10929POPC   GL167981   1.224   7.454   6.155
10929POPC   GL267982   1.098   7.469   6.155
10929POPC   C1A67983   1.181   7.384   6.455
10929POPC   D2A67984   1.164   7.457   6.755
10929POPC   C3A67985   1.237   7.459   7.055
10929POPC   C4A67986   1.206   7.394   7.355
10929POPC   C1B67987   1.066   7.606   6.455
10929POPC   C2B67988   1.041   7.576   6.755
10929POPC   C3B67989   1.003   7.613   7.055
10929POPC   C4B67990   1.038   7.577   7.355
10930POPC   NC367991  33.024   4.367   5.555
10930POPC   PO467992  32.991   4.349   5.855
10930POPC   GL167993  32.982   4.346   6.155
10930POPC   GL267994  32.945   4.351   6.155
10930POPC   C1A67995  33.070   4.278   6.455
10930POPC   D2A67996  33.002   4.359   6.755
10930POPC   C3A67997  33.024   4.364   7.055
10930POPC   C4A67998  32.993   4.292   7.355
10930POPC   C1B67999  32.825   4.361   6.455
10930POPC   C2B68000  32.786   4.393   6.755
10930POPC   C3B68001  32.830   4.447   7.055
10930POPC   C4B68002  32.784   4.398   7.355
10931POPC   NC368003  10.531   2.772   5.555
10931POPC   PO468004  10.521   2.773   5.855
10931POPC   GL168005  10.500   2.727   6.155
10931POPC   GL268006  10.587   2.920   6.155
10931POPC   C1A68007  10.527   2.739   6.455
10931POPC   D2A68008  10.563   2.794   6.755
10931POPC   C3A68009  10.523   2.800   7.055
10931POPC   C4A68010  10.572   2.785   7.355
10931POPC   C1B68011  10.642   3.006   6.455
10931POPC   C2B68012  10.592   3.028   6.755
10931POPC   C3B68013  10.652   2.966   7.055
10931POPC   C4B68014  10.602   3.024   7.355
10932POPC   NC368015  17.520  37.718   5.555
10932POPC   PO468016  17.527  37.697   5.855
10932POPC   GL168017  17.464  37.698   6.155
10932POPC   GL268018  17.635  37.647   6.155
10932POPC   C1A68019  17.510  37.676   6.455
10932POPC   D2A68020  17.545  37.635   6.755
10932POPC   C3A68021  17.501  37.708   7.055
10932POPC   C4A68022  17.504  37.725   7.355
10932POPC   C1B68023  17.791  37.656   6.455
10932POPC   C2B68024  17.712  37.587   6.755
10932POPC   C3B68025  17.795  37.582   7.055
10932POPC   C4B68026  17.762  37.641   7.355
10933POPC   NC368027  33.847  43.123   5.555
10933POPC   PO468028  33.786  43.111   5.855
10933POPC   GL168029  33.837  43.080   6.155
10933POPC   GL268030  33.823  43.224   6.155
10933POPC   C1A68031  33.833  43.087   6.455
10933POPC   D2A68032  33.809  43.082   6.755
10933POPC   C3A68033  33.777  43.105   7.055
10933POPC   C4A68034  33.832  43.070   7.355
10933POPC   C1B68035  33.858  43.339   6.455
10933POPC   C2B68036  33.883  43.306   6.755
10933POPC   C3B68037  33.937  43.349   7.055
10933POPC   C4B68038  33.869  43.384   7.355
10934POPC   NC368039  12.849  31.455   5.555
10934POPC   PO468040  12.852  31.488   5.855
10934POPC   GL168041  12.848  31.466   6.155
10934POPC   GL268042  12.750  31.400   6.155
10934POPC   C1A68043  12.872  31.487   6.455
10934POPC   D2A68044  12.806  31.510   6.755
10934POPC   C3A68045  12.891  31.453   7.055
10934POPC   C4A68046  12.901  31.456   7.355
10934POPC   C1B68047  12.652  31.244   6.455
10934POPC   C2B68048  12.720  31.259   6.755
10934POPC   C3B68049  12.636  31.252   7.055
10934POPC   C4B68050  12.677  31.320   7.355
10935POPC   NC368051   8.224  43.884   5.555
10935POPC   PO468052   8.172  43.887   5.855
10935POPC   GL168053   8.171  43.893   6.155
10935POPC   GL268054   8.049  43.866   6.155
10935POPC   C1A68055   8.183  43.875   6.455
10935POPC   D2A68056   8.235  43.919   6.755
10935POPC   C3A68057   8.247  43.874   7.055
10935POPC   C4A68058   8.235  43.885   7.355
10935POPC   C1B68059   7.980  43.806   6.455
10935POPC   C2B68060   8.002  43.789   6.755
10935POPC   C3B68061   7.974  43.749   7.055
10935POPC   C4B68062   7.937  43.825   7.355
10936POPC   NC368063  40.825   8.155   5.555
10936POPC   PO468064  40.748   8.224   5.855
10936POPC   GL168065  40.736   8.177   6.155
10936POPC   GL268066  40.715   8.097   6.155
10936POPC   C1A68067  40.776   8.166   6.455
10936POPC   D2A68068  40.757   8.158   6.755
10936POPC   C3A68069  40.771   8.199   7.055
10936POPC   C4A68070  40.821   8.179   7.355
10936POPC   C1B68071  40.752   7.912   6.455
10936POPC   C2B68072  40.712   8.001   6.755
10936POPC   C3B68073  40.705   7.981   7.055
10936POPC   C4B68074  40.737   8.004   7.355
10937POPC   NC368075  30.653  33.834   5.555
10937POPC   PO468076  30.741  33.841   5.855
10937POPC   GL168077  30.676  33.753   6.155
10937POPC   GL268078  30.594  33.763   6.155
10937POPC   C1A68079  30.679  33.807   6.455
10937POPC   D2A68080  30.723  33.822   6.755
10937POPC   C3A68081  30.666  33.783   7.055
10937POPC   C4A68082  30.698  33.809   7.355
10937POPC   C1B68083  30.510  33.656   6.455
10937POPC   C2B68084  30.459  33.668   6.755
10937POPC   C3B68085  30.448  33.723   7.055
10937POPC   C4B68086  30.415  33.755   7.355
10938POPC   NC368087   4.310  11.340   5.555
10938POPC   PO468088   4.270  11.311   5.855
10938POPC   GL168089   4.304  11.300   6.155
10938POPC   GL268090   4.473  11.336   6.155
10938POPC   C1A68091   4.318  11.331   6.455
10938POPC   D2A68092   4.333  11.315   6.755
10938POPC   C3A68093   4.275  11.338   7.055
10938POPC   C4A68094   4.344  11.251   7.355
10938POPC   C1B68095   4.563  11.471   6.455
10938POPC   C2B68096   4.484  11.411   6.755
10938POPC   C3B68097   4.525  11.478   7.055
10938POPC   C4B68098   4.530  11.382   7.355
10939POPC   NC368099  14.413  39.963   5.555
10939POPC   PO468100  14.449  40.007   5.855
10939POPC   GL168101  14.414  39.968   6.155
10939POPC   GL268102  14.496  40.153   6.155
10939POPC   C1A68103  14.404  39.980   6.455
10939POPC   D2A68104  14.382  40.009   6.755
10939POPC   C3A68105  14.425  39.995   7.055
10939POPC   C4A68106  14.356  39.997   7.355
10939POPC   C1B68107  14.530  40.249   6.455
10939POPC   C2B68108  14.602  40.213   6.755
10939POPC   C3B68109  14.518  40.180   7.055
10939POPC   C4B68110  14.553  40.193   7.355
10940POPC   NC368111   0.485  40.810   5.555
10940POPC   PO468112   0.430  40.810   5.855
10940POPC   GL168113   0.471  40.768   6.155
10940POPC   GL268114   0.451  40.699   6.155
10940POPC   C1A68115   0.446  40.771   6.455
10940POPC   D2A68116   0.428  40.799   6.755
10940POPC   C3A68117   0.408  40.752   7.055
10940POPC   C4A68118   0.409  40.737   7.355
10940POPC   C1B68119   0.421  40.574   6.455
10940POPC   C2B68120   0.415  40.567   6.755
10940POPC   C3B68121   0.399  40.521   7.055
10940POPC   C4B68122   0.450  40.496   7.355
10941POPC   NC368123  28.319  16.757   5.555
10941POPC   PO468124  28.416  16.781   5.855
10941POPC   GL168125  28.343  16.732   6.155
10941POPC   GL268126  28.259  16.761   6.155
10941POPC   C1A68127  28.369  16.703   6.455
10941POPC   D2A68128  28.330  16.714   6.755
10941POPC   C3A68129  28.356  16.748   7.055
10941POPC   C4A68130  28.340  16.773   7.355
10941POPC   C1B68131  28.100  16.803   6.455
10941POPC   C2B68132  28.168  16.826   6.755
10941POPC   C3B68133  28.149  16.823   7.055
10941POPC   C4B68134  28.156  16.825   7.355
10942POPC   NC368135  31.483  34.588   5.555
10942POPC   PO468136  31.515  34.549   5.855
10942POPC   GL168137  31.498  34.609   6.155
10942POPC   GL268138  31.578  34.510   6.155
10942POPC   C1A68139  31.436  34.546   6.455
10942POPC   D2A68140  31.505  34.592   6.755
10942POPC   C3A68141  31.507  34.625   7.055
10942POPC   C4A68142  31.454  34.584   7.355
10942POPC   C1B68143  31.568  34.331   6.455
10942POPC   C2B68144  31.601  34.339   6.755
10942POPC   C3B68145  31.549  34.363   7.055
10942POPC   C4B68146  31.565  34.338   7.355
10943POPC   NC368147  16.735   1.993   5.555
10943POPC   PO468148  16.734   2.023   5.855
10943POPC   GL168149  16.766   2.014   6.155
10943POPC   GL268150  16.577   1.961   6.155
10943POPC   C1A68151  16.724   2.025   6.455
10943POPC   D2A68152  16.752   1.970   6.755
10943POPC   C3A68153  16.725   1.954   7.055
10943POPC   C4A68154  16.694   1.977   7.355
10943POPC   C1B68155  16.522   1.888   6.455
10943POPC   C2B68156  16.461   1.940   6.755
10943POPC   C3B68157  16.518   1.927   7.055
10943POPC   C4B68158  16.499   1.876   7.355
10944POPC   NC368159  33.818  16.687   5.555
10944POPC   PO468160  33.789  16.727   5.855
10944POPC   GL168161  33.834  16.705   6.155
10944POPC   GL268162  33.713  16.689   6.155
10944POPC   C1A68163  33.805  16.718   6.455
10944POPC   D2A68164  33.762  16.731   6.755
10944POPC   C3A68165  33.763  16.693   7.055
10944POPC   C4A68166  33.759  16.761   7.355
10944POPC   C1B68167  33.583  16.616   6.455
10944POPC   C2B68168  33.620  16.624   6.755
10944POPC   C3B68169  33.580  16.559   7.055
10944POPC   C4B68170  33.580  16.599   7.355
10945POPC   NC368171  25.306  12.059   5.555
10945POPC   PO468172  25.264  12.110   5.855
10945POPC   GL168173  25.301  12.118   6.155
10945POPC   GL268174  25.335  12.160   6.155
10945POPC   C1A68175  25.222  12.064   6.455
10945POPC   D2A68176  25.255  12.082   6.755
10945POPC   C3A68177  25.263  12.117   7.055
10945POPC   C4A68178  25.271  12.086   7.355
10945POPC   C1B68179  25.339  12.290   6.455
10945POPC   C2B68180  25.353  12.272   6.755
10945POPC   C3B68181  25.424  12.303   7.055
10945POPC   C4B68182  25.330  12.255   7.355
10946POPC   NC368183   2.724  19.100   5.555
10946POPC   PO468184   2.741  19.068   5.855
10946POPC   GL168185   2.801  19.093   6.155
10946POPC   GL268186   2.815  19.143   6.155
10946POPC   C1A68187   2.720  19.085   6.455
10946POPC   D2A68188   2.781  19.074   6.755
10946POPC   C3A68189   2.807  19.088   7.055
10946POPC   C4A68190   2.766  19.026   7.355
10946POPC   C1B68191   2.968  19.268   6.455
10946POPC   C2B68192   2.942  19.211   6.755
10946POPC   C3B68193   2.923  19.236   7.055
10946POPC   C4B68194   2.943  19.277   7.355
10947POPC   NC368195  27.622  22.945   5.555
10947POPC   PO468196  27.561  22.906   5.855
10947POPC   GL168197  27.561  22.909   6.155
10947POPC   GL268198  27.547  22.860   6.155
10947POPC   C1A68199  27.557  22.961   6.455
10947POPC   D2A68200  27.626  22.982   6.755
10947POPC   C3A68201  27.546  22.950   7.055
10947POPC   C4A68202  27.582  22.971   7.355
10947POPC   C1B68203  27.497  22.764   6.455
10947POPC   C2B68204  27.488  22.776   6.755
10947POPC   C3B68205  27.432  22.716   7.055
10947POPC   C4B68206  27.485  22.740   7.355
10948POPC   NC368207   0.402  17.544   5.555
10948POPC   PO468208   0.428  17.480   5.855
10948POPC   GL168209   0.407  17.508   6.155
10948POPC   GL268210   0.496  17.343   6.155
10948POPC   C1A68211   0.472  17.508   6.455
10948POPC   D2A68212   0.468  17.460   6.755
10948POPC   C3A68213   0.466  17.482   7.055
10948POPC   C4A68214   0.390  17.472   7.355
10948POPC   C1B68215   0.563  17.256   6.455
10948POPC   C2B68216   0.535  17.258   6.755
10948POPC   C3B68217   0.524  17.297   7.055
10948POPC   C4B68218   0.498  17.238   7.355
10949POPC   NC368219  39.256   5.115   5.555
10949POPC   PO468220  39.191   5.128   5.855
10949POPC   GL168221  39.252   5.101   6.155
10949POPC   GL268222  39.141   5.054   6.155
10949POPC   C1A68223  39.236   5.067   6.455
10949POPC   D2A68224  39.232   5.071   6.755
10949POPC   C3A68225  39.221   5.097   7.055
10949POPC   C4A68226  39.276   5.086   7.355
10949POPC   C1B68227  39.043   4.979   6.455
10949POPC   C2B68228  39.047   5.009   6.755
10949POPC   C3B68229  39.064   4.966   7.055
10949POPC   C4B68230  38.982   4.932   7.355
10950POPC   NC368231  20.628   5.108   5.555
10950POPC   PO468232  20.596   5.085   5.855
10950POPC   GL168233  20.611   5.079   6.155
10950POPC   GL268234  20.708   5.085   6.155
10950POPC   C1A68235  20.640   5.098   6.455
10950POPC   D2A68236  20.636   5.115   6.755
10950POPC   C3A68237  20.627   5.067   7.055
10950POPC   C4A68238  20.563   5.126   7.355
10950POPC   C1B68239  20.900   5.093   6.455
10950POPC   C2B68240  20.876   5.101   6.755
10950POPC   C3B68241  20.894   5.083   7.055
10950POPC   C4B68242  20.870   5.154   7.355
10951POPC   NC368243   4.348  34.568   5.555
10951POPC   PO468244   4.346  34.621   5.855
10951POPC   GL168245   4.325  34.530   6.155
10951POPC   GL268246   4.370  34.432   6.155
10951POPC   C1A68247   4.300  34.558   6.455
10951POPC   D2A68248   4.350  34.584   6.755
10951POPC   C3A68249   4.366  34.580   7.055
10951POPC   C4A68250   4.345  34.597   7.355
10951POPC   C1B68251   4.379  34.360   6.455
10951POPC   C2B68252   4.440  34.314   6.755
10951POPC   C3B68253   4.378  34.348   7.055
10951POPC   C4B68254   4.374  34.398   7.355
10952POPC   NC368255  38.442  37.697   5.555
10952POPC   PO468256  38.425  37.676   5.855
10952POPC   GL168257  38.437  37.698   6.155
10952POPC   GL268258  38.379  37.621   6.155
10952POPC   C1A68259  38.490  37.666   6.455
10952POPC   D2A68260  38.473  37.678   6.755
10952POPC   C3A68261  38.412  37.661   7.055
10952POPC   C4A68262  38.471  37.723   7.355
10952POPC   C1B68263  38.185  37.644   6.455
10952POPC   C2B68264  38.206  37.637   6.755
10952POPC   C3B68265  38.179  37.551   7.055
10952POPC   C4B68266  38.191  37.562   7.355
10953POPC   NC368267  35.342  29.910   5.555
10953POPC   PO468268  35.387  29.871   5.855
10953POPC   GL168269  35.376  29.936   6.155
10953POPC   GL268270  35.216  29.852   6.155
10953POPC   C1A68271  35.371  29.922   6.455
10953POPC   D2A68272  35.360  29.924   6.755
10953POPC   C3A68273  35.304  29.900   7.055
10953POPC   C4A68274  35.359  29.920   7.355
10953POPC   C1B68275  35.132  29.808   6.455
10953POPC   C2B68276  35.101  29.847   6.755
10953POPC   C3B68277  35.104  29.824   7.055
10953POPC   C4B68278  35.120  29.877   7.355
10954POPC   NC368279  18.264  16.690   5.555
10954POPC   PO468280  18.295  16.729   5.855
10954POPC   GL168281  18.238  16.739   6.155
10954POPC   GL268282  18.420  16.741   6.155
10954POPC   C1A68283  18.330  16.760   6.455
10954POPC   D2A68284  18.236  16.703   6.755
10954POPC   C3A68285  18.249  16.701   7.055
10954POPC   C4A68286  18.264  16.700   7.355
10954POPC   C1B68287  18.507  16.696   6.455
10954POPC   C2B68288  18.513  16.685   6.755
10954POPC   C3B68289  18.530  16.702   7.055
10954POPC   C4B68290  18.511  16.664   7.355
10955POPC   NC368291  11.322  22.890   5.555
10955POPC   PO468292  11.300  22.957   5.855
10955POPC   GL168293  11.343  22.919   6.155
10955POPC   GL268294  11.384  22.787   6.155
10955POPC   C1A68295  11.301  22.911   6.455
10955POPC   D2A68296  11.310  22.948   6.755
10955POPC   C3A68297  11.347  22.969   7.055
10955POPC   C4A68298  11.265  22.924   7.355
10955POPC   C1B68299  11.376  22.656   6.455
10955POPC   C2B68300  11.382  22.714   6.755
10955POPC   C3B68301  11.361  22.709   7.055
10955POPC   C4B68302  11.377  22.657   7.355
10956POPC   NC368303  14.368  35.320   5.555
10956POPC   PO468304  14.444  35.351   5.855
10956POPC   GL168305  14.355  35.391   6.155
10956POPC   GL268306  14.317  35.249   6.155
10956POPC   C1A68307  14.380  35.307   6.455
10956POPC   D2A68308  14.365  35.329   6.755
10956POPC   C3A68309  14.371  35.371   7.055
10956POPC   C4A68310  14.444  35.372   7.355
10956POPC   C1B68311  14.166  35.196   6.455
10956POPC   C2B68312  14.238  35.199   6.755
10956POPC   C3B68313  14.196  35.175   7.055
10956POPC   C4B68314  14.229  35.237   7.355
10957POPC   NC368315  15.980  12.036   5.555
10957POPC   PO468316  15.919  12.034   5.855
10957POPC   GL168317  15.908  12.075   6.155
10957POPC   GL268318  16.005  12.027   6.155
10957POPC   C1A68319  15.949  12.077   6.455
10957POPC   D2A68320  15.920  12.068   6.755
10957POPC   C3A68321  15.956  12.119   7.055
10957POPC   C4A68322  15.999  12.055   7.355
10957POPC   C1B68323  16.158  11.894   6.455
10957POPC   C2B68324  16.187  11.891   6.755
10957POPC   C3B68325  16.109  11.907   7.055
10957POPC   C4B68326  16.132  11.953   7.355
10958POPC   NC368327  31.482   2.764   5.555
10958POPC   PO468328  31.464   2.773   5.855
10958POPC   GL168329  31.506   2.769   6.155
10958POPC   GL268330  31.451   2.889   6.155
10958POPC   C1A68331  31.505   2.783   6.455
10958POPC   D2A68332  31.489   2.795   6.755
10958POPC   C3A68333  31.450   2.719   7.055
10958POPC   C4A68334  31.438   2.758   7.355
10958POPC   C1B68335  31.300   2.992   6.455
10958POPC   C2B68336  31.373   2.993   6.755
10958POPC   C3B68337  31.285   2.975   7.055
10958POPC   C4B68338  31.304   2.980   7.355
10959POPC   NC368339   8.962  15.150   5.555
10959POPC   PO468340   8.971  15.147   5.855
10959POPC   GL168341   9.016  15.209   6.155
10959POPC   GL268342   8.888  15.244   6.155
10959POPC   C1A68343   9.019  15.207   6.455
10959POPC   D2A68344   9.001  15.149   6.755
10959POPC   C3A68345   8.970  15.167   7.055
10959POPC   C4A68346   8.971  15.197   7.355
10959POPC   C1B68347   8.778  15.330   6.455
10959POPC   C2B68348   8.799  15.290   6.755
10959POPC   C3B68349   8.770  15.302   7.055
10959POPC   C4B68350   8.813  15.276   7.355
10960POPC   NC368351  36.925  39.246   5.555
10960POPC   PO468352  36.944  39.258   5.855
10960POPC   GL168353  36.876  39.232   6.155
10960POPC   GL268354  36.793  39.330   6.155
10960POPC   C1A68355  36.898  39.199   6.455
10960POPC   D2A68356  36.901  39.243   6.755
10960POPC   C3A68357  36.940  39.250   7.055
10960POPC   C4A68358  36.913  39.218   7.355
10960POPC   C1B68359  36.668  39.313   6.455
10960POPC   C2B68360  36.659  39.363   6.755
10960POPC   C3B68361  36.709  39.301   7.055
10960POPC   C4B68362  36.677  39.332   7.355
10961POPC   NC368363   9.019  18.328   5.555
10961POPC   PO468364   8.998  18.328   5.855
10961POPC   GL168365   8.977  18.293   6.155
10961POPC   GL268366   9.038  18.193   6.155
10961POPC   C1A68367   8.978  18.317   6.455
10961POPC   D2A68368   8.997  18.269   6.755
10961POPC   C3A68369   8.992  18.293   7.055
10961POPC   C4A68370   8.998  18.272   7.355
10961POPC   C1B68371   9.233  18.190   6.455
10961POPC   C2B68372   9.176  18.201   6.755
10961POPC   C3B68373   9.190  18.125   7.055
10961POPC   C4B68374   9.214  18.146   7.355
10962POPC   NC368375  23.737   2.739   5.555
10962POPC   PO468376  23.757   2.804   5.855
10962POPC   GL168377  23.761   2.781   6.155
10962POPC   GL268378  23.864   2.720   6.155
10962POPC   C1A68379  23.751   2.748   6.455
10962POPC   D2A68380  23.666   2.764   6.755
10962POPC   C3A68381  23.727   2.732   7.055
10962POPC   C4A68382  23.697   2.750   7.355
10962POPC   C1B68383  23.911   2.662   6.455
10962POPC   C2B68384  23.993   2.684   6.755
10962POPC   C3B68385  23.913   2.650   7.055
10962POPC   C4B68386  23.995   2.678   7.355
10963POPC   NC368387  13.619  12.834   5.555
10963POPC   PO468388  13.583  12.830   5.855
10963POPC   GL168389  13.619  12.802   6.155
10963POPC   GL268390  13.763  12.900   6.155
10963POPC   C1A68391  13.603  12.883   6.455
10963POPC   D2A68392  13.612  12.876   6.755
10963POPC   C3A68393  13.601  12.838   7.055
10963POPC   C4A68394  13.615  12.885   7.355
10963POPC   C1B68395  13.872  13.012   6.455
10963POPC   C2B68396  13.883  13.006   6.755
10963POPC   C3B68397  13.797  13.005   7.055
10963POPC   C4B68398  13.821  13.013   7.355
10964POPC   NC368399  40.778   2.803   5.555
10964POPC   PO468400  40.799   2.751   5.855
10964POPC   GL168401  40.783   2.804   6.155
10964POPC   GL268402  40.863   2.613   6.155
10964POPC   C1A68403  40.765   2.740   6.455
10964POPC   D2A68404  40.774   2.775   6.755
10964POPC   C3A68405  40.740   2.800   7.055
10964POPC   C4A68406  40.754   2.744   7.355
10964POPC   C1B68407  40.888   2.576   6.455
10964POPC   C2B68408  40.862   2.576   6.755
10964POPC   C3B68409  40.920   2.561   7.055
10964POPC   C4B68410  40.880   2.585   7.355
10965POPC   NC368411  12.112  27.597   5.555
10965POPC   PO468412  12.041  27.606   5.855
10965POPC   GL168413  12.121  27.608   6.155
10965POPC   GL268414  12.165  27.667   6.155
10965POPC   C1A68415  12.055  27.584   6.455
10965POPC   D2A68416  12.080  27.567   6.755
10965POPC   C3A68417  12.123  27.629   7.055
10965POPC   C4A68418  12.079  27.617   7.355
10965POPC   C1B68419  12.258  27.761   6.455
10965POPC   C2B68420  12.235  27.813   6.755
10965POPC   C3B68421  12.232  27.757   7.055
10965POPC   C4B68422  12.207  27.793   7.355
10966POPC   NC368423  39.243  19.795   5.555
10966POPC   PO468424  39.242  19.851   5.855
10966POPC   GL168425  39.224  19.862   6.155
10966POPC   GL268426  39.274  19.927   6.155
10966POPC   C1A68427  39.233  19.846   6.455
10966POPC   D2A68428  39.194  19.858   6.755
10966POPC   C3A68429  39.241  19.875   7.055
10966POPC   C4A68430  39.200  19.822   7.355
10966POPC   C1B68431  39.395  19.972   6.455
10966POPC   C2B68432  39.391  19.984   6.755
10966POPC   C3B68433  39.359  20.012   7.055
10966POPC   C4B68434  39.439  20.056   7.355
10967POPC   NC368435  29.889  43.892   5.555
10967POPC   PO468436  29.878  43.866   5.855
10967POPC   GL168437  29.956  43.856   6.155
10967POPC   GL268438  29.971  43.970   6.155
10967POPC   C1A68439  29.890  43.861   6.455
10967POPC   D2A68440  29.872  43.841   6.755
10967POPC   C3A68441  29.930  43.858   7.055
10967POPC   C4A68442  29.934  43.852   7.355
10967POPC   C1B68443  30.072  44.022   6.455
10967POPC   C2B68444  30.159  43.998   6.755
10967POPC   C3B68445  30.127  44.066   7.055
10967POPC   C4B68446  30.114  44.039   7.355
10968POPC   NC368447  31.468  24.455   5.555
10968POPC   PO468448  31.441  24.499   5.855
10968POPC   GL168449  31.504  24.498   6.155
10968POPC   GL268450  31.341  24.457   6.155
10968POPC   C1A68451  31.434  24.512   6.455
10968POPC   D2A68452  31.462  24.525   6.755
10968POPC   C3A68453  31.472  24.494   7.055
10968POPC   C4A68454  31.469  24.451   7.355
10968POPC   C1B68455  31.232  24.535   6.455
10968POPC   C2B68456  31.211  24.488   6.755
10968POPC   C3B68457  31.202  24.541   7.055
10968POPC   C4B68458  31.267  24.538   7.355
10969POPC   NC368459  30.727  23.674   5.555
10969POPC   PO468460  30.724  23.672   5.855
10969POPC   GL168461  30.670  23.760   6.155
10969POPC   GL268462  30.525  23.721   6.155
10969POPC   C1A68463  30.738  23.720   6.455
10969POPC   D2A68464  30.694  23.724   6.755
10969POPC   C3A68465  30.686  23.728   7.055
10969POPC   C4A68466  30.663  23.721   7.355
10969POPC   C1B68467  30.445  23.742   6.455
10969POPC   C2B68468  30.460  23.679   6.755
10969POPC   C3B68469  30.420  23.724   7.055
10969POPC   C4B68470  30.429  23.695   7.355
10970POPC   NC368471  28.388  30.739   5.555
10970POPC   PO468472  28.324  30.698   5.855
10970POPC   GL168473  28.355  30.657   6.155
10970POPC   GL268474  28.386  30.527   6.155
10970POPC   C1A68475  28.414  30.683   6.455
10970POPC   D2A68476  28.347  30.741   6.755
10970POPC   C3A68477  28.347  30.689   7.055
10970POPC   C4A68478  28.405  30.698   7.355
10970POPC   C1B68479  28.447  30.478   6.455
10970POPC   C2B68480  28.379  30.484   6.755
10970POPC   C3B68481  28.402  30.430   7.055
10970POPC   C4B68482  28.434  30.499   7.355
10971POPC   NC368483   6.622  23.742   5.555
10971POPC   PO468484   6.639  23.687   5.855
10971POPC   GL168485   6.645  23.753   6.155
10971POPC   GL268486   6.654  23.861   6.155
10971POPC   C1A68487   6.657  23.676   6.455
10971POPC   D2A68488   6.610  23.702   6.755
10971POPC   C3A68489   6.654  23.751   7.055
10971POPC   C4A68490   6.622  23.701   7.355
10971POPC   C1B68491   6.637  23.920   6.455
10971POPC   C2B68492   6.624  23.986   6.755
10971POPC   C3B68493   6.658  23.957   7.055
10971POPC   C4B68494   6.597  23.986   7.355
10972POPC   NC368495  21.347  35.313   5.555
10972POPC   PO468496  21.367  35.367   5.855
10972POPC   GL168497  21.345  35.380   6.155
10972POPC   GL268498  21.512  35.376   6.155
10972POPC   C1A68499  21.425  35.400   6.455
10972POPC   D2A68500  21.337  35.385   6.755
10972POPC   C3A68501  21.421  35.361   7.055
10972POPC   C4A68502  21.345  35.347   7.355
10972POPC   C1B68503  21.649  35.257   6.455
10972POPC   C2B68504  21.661  35.321   6.755
10972POPC   C3B68505  21.675  35.320   7.055
10972POPC   C4B68506  21.634  35.289   7.355
10973POPC   NC368507   1.953  14.395   5.555
10973POPC   PO468508   2.020  14.400   5.855
10973POPC   GL168509   1.990  14.395   6.155
10973POPC   GL268510   1.939  14.288   6.155
10973POPC   C1A68511   1.995  14.426   6.455
10973POPC   D2A68512   1.997  14.411   6.755
10973POPC   C3A68513   2.019  14.434   7.055
10973POPC   C4A68514   1.988  14.380   7.355
10973POPC   C1B68515   1.924  14.165   6.455
10973POPC   C2B68516   1.871  14.185   6.755
10973POPC   C3B68517   1.900  14.180   7.055
10973POPC   C4B68518   1.909  14.214   7.355
10974POPC   NC368519  41.552   1.959   5.555
10974POPC   PO468520  41.535   2.035   5.855
10974POPC   GL168521  41.572   1.958   6.155
10974POPC   GL268522  41.650   1.904   6.155
10974POPC   C1A68523  41.521   2.033   6.455
10974POPC   D2A68524  41.520   2.033   6.755
10974POPC   C3A68525  41.572   1.971   7.055
10974POPC   C4A68526  41.511   2.005   7.355
10974POPC   C1B68527  41.783   1.867   6.455
10974POPC   C2B68528  41.755   1.933   6.755
10974POPC   C3B68529  41.785   1.870   7.055
10974POPC   C4B68530  41.817   1.914   7.355
10975POPC   NC368531  33.850  22.987   5.555
10975POPC   PO468532  33.808  22.920   5.855
10975POPC   GL168533  33.837  22.970   6.155
10975POPC   GL268534  33.891  23.037   6.155
10975POPC   C1A68535  33.781  22.932   6.455
10975POPC   D2A68536  33.810  22.905   6.755
10975POPC   C3A68537  33.757  22.947   7.055
10975POPC   C4A68538  33.788  22.968   7.355
10975POPC   C1B68539  33.866  23.137   6.455
10975POPC   C2B68540  33.942  23.167   6.755
10975POPC   C3B68541  33.933  23.209   7.055
10975POPC   C4B68542  33.946  23.199   7.355
10976POPC   NC368543  26.783  36.118   5.555
10976POPC   PO468544  26.867  36.118   5.855
10976POPC   GL168545  26.819  36.124   6.155
10976POPC   GL268546  26.679  36.059   6.155
10976POPC   C1A68547  26.861  36.079   6.455
10976POPC   D2A68548  26.852  36.089   6.755
10976POPC   C3A68549  26.862  36.134   7.055
10976POPC   C4A68550  26.867  36.132   7.355
10976POPC   C1B68551  26.556  36.114   6.455
10976POPC   C2B68552  26.622  36.069   6.755
10976POPC   C3B68553  26.572  36.110   7.055
10976POPC   C4B68554  26.615  36.082   7.355
10977POPC   NC368555  21.378  40.056   5.555
10977POPC   PO468556  21.422  39.966   5.855
10977POPC   GL168557  21.385  40.014   6.155
10977POPC   GL268558  21.353  40.142   6.155
10977POPC   C1A68559  21.346  40.013   6.455
10977POPC   D2A68560  21.352  40.034   6.755
10977POPC   C3A68561  21.379  39.977   7.055
10977POPC   C4A68562  21.357  39.995   7.355
10977POPC   C1B68563  21.412  40.281   6.455
10977POPC   C2B68564  21.352  40.284   6.755
10977POPC   C3B68565  21.395  40.279   7.055
10977POPC   C4B68566  21.440  40.291   7.355
10978POPC   NC368567  35.376  15.965   5.555
10978POPC   PO468568  35.392  15.974   5.855
10978POPC   GL168569  35.343  15.910   6.155
10978POPC   GL268570  35.308  15.809   6.155
10978POPC   C1A68571  35.365  15.956   6.455
10978POPC   D2A68572  35.371  16.002   6.755
10978POPC   C3A68573  35.385  15.965   7.055
10978POPC   C4A68574  35.350  15.972   7.355
10978POPC   C1B68575  35.248  15.775   6.455
10978POPC   C2B68576  35.248  15.702   6.755
10978POPC   C3B68577  35.239  15.764   7.055
10978POPC   C4B68578  35.206  15.705   7.355
10979POPC   NC368579  29.150   8.229   5.555
10979POPC   PO468580  29.181   8.220   5.855
10979POPC   GL168581  29.174   8.159   6.155
10979POPC   GL268582  29.204   8.116   6.155
10979POPC   C1A68583  29.120   8.184   6.455
10979POPC   D2A68584  29.132   8.207   6.755
10979POPC   C3A68585  29.103   8.206   7.055
10979POPC   C4A68586  29.131   8.182   7.355
10979POPC   C1B68587  29.319   8.008   6.455
10979POPC   C2B68588  29.370   8.087   6.755
10979POPC   C3B68589  29.383   8.059   7.055
10979POPC   C4B68590  29.361   8.039   7.355
10980POPC   NC368591  19.080  38.505   5.555
10980POPC   PO468592  19.015  38.488   5.855
10980POPC   GL168593  19.102  38.450   6.155
10980POPC   GL268594  19.157  38.546   6.155
10980POPC   C1A68595  19.065  38.460   6.455
10980POPC   D2A68596  19.016  38.413   6.755
10980POPC   C3A68597  19.095  38.491   7.055
10980POPC   C4A68598  19.024  38.495   7.355
10980POPC   C1B68599  19.166  38.645   6.455
10980POPC   C2B68600  19.143  38.704   6.755
10980POPC   C3B68601  19.226  38.618   7.055
10980POPC   C4B68602  19.219  38.715   7.355
10981POPC   NC368603  44.650   3.564   5.555
10981POPC   PO468604  44.625   3.542   5.855
10981POPC   GL168605  44.621   3.513   6.155
10981POPC   GL268606  44.556   3.513   6.155
10981POPC   C1A68607  44.672   3.498   6.455
10981POPC   D2A68608  44.624   3.570   6.755
10981POPC   C3A68609  44.632   3.496   7.055
10981POPC   C4A68610  44.643   3.568   7.355
10981POPC   C1B68611  44.407   3.568   6.455
10981POPC   C2B68612  44.428   3.559   6.755
10981POPC   C3B68613  44.457   3.516   7.055
10981POPC   C4B68614  44.393   3.545   7.355
10982POPC   NC368615   5.869  35.377   5.555
10982POPC   PO468616   5.858  35.382   5.855
10982POPC   GL168617   5.874  35.359   6.155
10982POPC   GL268618   5.945  35.424   6.155
10982POPC   C1A68619   5.851  35.362   6.455
10982POPC   D2A68620   5.843  35.311   6.755
10982POPC   C3A68621   5.911  35.399   7.055
10982POPC   C4A68622   5.897  35.385   7.355
10982POPC   C1B68623   5.991  35.592   6.455
10982POPC   C2B68624   5.980  35.549   6.755
10982POPC   C3B68625   6.000  35.584   7.055
10982POPC   C4B68626   6.031  35.534   7.355
10983POPC   NC368627  13.672  22.170   5.555
10983POPC   PO468628  13.671  22.153   5.855
10983POPC   GL168629  13.639  22.160   6.155
10983POPC   GL268630  13.486  22.175   6.155
10983POPC   C1A68631  13.582  22.177   6.455
10983POPC   D2A68632  13.646  22.129   6.755
10983POPC   C3A68633  13.578  22.189   7.055
10983POPC   C4A68634  13.592  22.122   7.355
10983POPC   C1B68635  13.343  22.226   6.455
10983POPC   C2B68636  13.390  22.230   6.755
10983POPC   C3B68637  13.372  22.198   7.055
10983POPC   C4B68638  13.401  22.216   7.355
10984POPC   NC368639  28.396  38.431   5.555
10984POPC   PO468640  28.331  38.476   5.855
10984POPC   GL168641  28.377  38.491   6.155
10984POPC   GL268642  28.357  38.357   6.155
10984POPC   C1A68643  28.338  38.487   6.455
10984POPC   D2A68644  28.346  38.441   6.755
10984POPC   C3A68645  28.399  38.423   7.055
10984POPC   C4A68646  28.364  38.445   7.355
10984POPC   C1B68647  28.343  38.210   6.455
10984POPC   C2B68648  28.331  38.215   6.755
10984POPC   C3B68649  28.281  38.178   7.055
10984POPC   C4B68650  28.310  38.170   7.355
10985POPC   NC368651  19.835  35.379   5.555
10985POPC   PO468652  19.866  35.348   5.855
10985POPC   GL168653  19.864  35.336   6.155
10985POPC   GL268654  19.936  35.302   6.155
10985POPC   C1A68655  19.843  35.392   6.455
10985POPC   D2A68656  19.833  35.320   6.755
10985POPC   C3A68657  19.797  35.359   7.055
10985POPC   C4A68658  19.858  35.340   7.355
10985POPC   C1B68659  20.084  35.335   6.455
10985POPC   C2B68660  20.126  35.335   6.755
10985POPC   C3B68661  20.061  35.298   7.055
10985POPC   C4B68662  20.075  35.274   7.355
10986POPC   NC368663  39.203   2.741   5.555
10986POPC   PO468664  39.222   2.748   5.855
10986POPC   GL168665  39.247   2.769   6.155
10986POPC   GL268666  39.348   2.826   6.155
10986POPC   C1A68667  39.279   2.758   6.455
10986POPC   D2A68668  39.196   2.786   6.755
10986POPC   C3A68669  39.197   2.735   7.055
10986POPC   C4A68670  39.211   2.775   7.355
10986POPC   C1B68671  39.453   2.884   6.455
10986POPC   C2B68672  39.493   2.905   6.755
10986POPC   C3B68673  39.435   2.840   7.055
10986POPC   C4B68674  39.465   2.813   7.355
10987POPC   NC368675  20.656   8.240   5.555
10987POPC   PO468676  20.642   8.231   5.855
10987POPC   GL168677  20.597   8.173   6.155
10987POPC   GL268678  20.578   8.312   6.155
10987POPC   C1A68679  20.593   8.175   6.455
10987POPC   D2A68680  20.583   8.215   6.755
10987POPC   C3A68681  20.658   8.178   7.055
10987POPC   C4A68682  20.656   8.245   7.355
10987POPC   C1B68683  20.450   8.361   6.455
10987POPC   C2B68684  20.473   8.394   6.755
10987POPC   C3B68685  20.498   8.442   7.055
10987POPC   C4B68686  20.489   8.350   7.355
10988POPC   NC368687  32.268   1.175   5.555
10988POPC   PO468688  32.272   1.225   5.855
10988POPC   GL168689  32.215   1.247   6.155
10988POPC   GL268690  32.416   1.177   6.155
10988POPC   C1A68691  32.296   1.245   6.455
10988POPC   D2A68692  32.239   1.186   6.755
10988POPC   C3A68693  32.205   1.245   7.055
10988POPC   C4A68694  32.204   1.257   7.355
10988POPC   C1B68695  32.489   1.257   6.455
10988POPC   C2B68696  32.464   1.258   6.755
10988POPC   C3B68697  32.481   1.251   7.055
10988POPC   C4B68698  32.532   1.230   7.355
10989POPC   NC368699  15.909  32.216   5.555
10989POPC   PO468700  15.969  32.267   5.855
10989POPC   GL168701  15.951  32.203   6.155
10989POPC   GL268702  16.077  32.306   6.155
10989POPC   C1A68703  15.924  32.285   6.455
10989POPC   D2A68704  15.945  32.262   6.755
10989POPC   C3A68705  15.945  32.206   7.055
10989POPC   C4A68706  15.982  32.257   7.355
10989POPC   C1B68707  16.127  32.415   6.455
10989POPC   C2B68708  16.159  32.380   6.755
10989POPC   C3B68709  16.120  32.409   7.055
10989POPC   C4B68710  16.206  32.437   7.355
10990POPC   NC368711   6.692  20.618   5.555
10990POPC   PO468712   6.677  20.579   5.855
10990POPC   GL168713   6.648  20.605   6.155
10990POPC   GL268714   6.643  20.507   6.155
10990POPC   C1A68715   6.692  20.583   6.455
10990POPC   D2A68716   6.613  20.585   6.755
10990POPC   C3A68717   6.634  20.564   7.055
10990POPC   C4A68718   6.690  20.629   7.355
10990POPC   C1B68719   6.623  20.340   6.455
10990POPC   C2B68720   6.597  20.334   6.755
10990POPC   C3B68721   6.541  20.327   7.055
10990POPC   C4B68722   6.558  20.396   7.355
10991POPC   NC368723  35.334  40.028   5.555
10991POPC   PO468724  35.382  40.009   5.855
10991POPC   GL168725  35.390  39.958   6.155
10991POPC   GL268726  35.505  40.084   6.155
10991POPC   C1A68727  35.310  40.007   6.455
10991POPC   D2A68728  35.331  40.039   6.755
10991POPC   C3A68729  35.369  40.011   7.055
10991POPC   C4A68730  35.394  39.968   7.355
10991POPC   C1B68731  35.574  40.099   6.455
10991POPC   C2B68732  35.604  40.071   6.755
10991POPC   C3B68733  35.566  40.093   7.055
10991POPC   C4B68734  35.608  40.061   7.355
10992POPC   NC368735   7.385  33.003   5.555
10992POPC   PO468736   7.381  33.044   5.855
10992POPC   GL168737   7.456  33.023   6.155
10992POPC   GL268738   7.470  33.131   6.155
10992POPC   C1A68739   7.458  33.004   6.455
10992POPC   D2A68740   7.414  33.059   6.755
10992POPC   C3A68741   7.459  33.054   7.055
10992POPC   C4A68742   7.455  32.975   7.355
10992POPC   C1B68743   7.528  33.258   6.455
10992POPC   C2B68744   7.502  33.227   6.755
10992POPC   C3B68745   7.550  33.220   7.055
10992POPC   C4B68746   7.557  33.258   7.355
10993POPC   NC368747  12.066   2.748   5.555
10993POPC   PO468748  12.026   2.738   5.855
10993POPC   GL168749  12.092   2.749   6.155
10993POPC   GL268750  12.102   2.885   6.155
10993POPC   C1A68751  12.049   2.796   6.455
10993POPC   D2A68752  12.038   2.811   6.755
10993POPC   C3A68753  12.093   2.794   7.055
10993POPC   C4A68754  12.117   2.786   7.355
10993POPC   C1B68755  12.097   2.999   6.455
10993POPC   C2B68756  12.101   3.013   6.755
10993POPC   C3B68757  12.064   2.970   7.055
10993POPC   C4B68758  12.071   3.010   7.355
10994POPC   NC368759  37.688  32.272   5.555
10994POPC   PO468760  37.676  32.246   5.855
10994POPC   GL168761  37.729  32.247   6.155
10994POPC   GL268762  37.581  32.354   6.155
10994POPC   C1A68763  37.707  32.228   6.455
10994POPC   D2A68764  37.680  32.249   6.755
10994POPC   C3A68765  37.695  32.220   7.055
10994POPC   C4A68766  37.659  32.248   7.355
10994POPC   C1B68767  37.557  32.460   6.455
10994POPC   C2B68768  37.550  32.458   6.755
10994POPC   C3B68769  37.547  32.479   7.055
10994POPC   C4B68770  37.540  32.482   7.355
10995POPC   NC368771  24.463   6.602   5.555
10995POPC   PO468772  24.493   6.672   5.855
10995POPC   GL168773  24.457   6.675   6.155
10995POPC   GL268774  24.399   6.653   6.155
10995POPC   C1A68775  24.518   6.645   6.455
10995POPC   D2A68776  24.478   6.596   6.755
10995POPC   C3A68777  24.462   6.633   7.055
10995POPC   C4A68778  24.443   6.618   7.355
10995POPC   C1B68779  24.255   6.593   6.455
10995POPC   C2B68780  24.244   6.589   6.755
10995POPC   C3B68781  24.210   6.614   7.055
10995POPC   C4B68782  24.275   6.635   7.355
10996POPC   NC368783  21.376   2.764   5.555
10996POPC   PO468784  21.374   2.791   5.855
10996POPC   GL168785  21.378   2.798   6.155
10996POPC   GL268786  21.246   2.760   6.155
10996POPC   C1A68787  21.404   2.779   6.455
10996POPC   D2A68788  21.416   2.783   6.755
10996POPC   C3A68789  21.415   2.796   7.055
10996POPC   C4A68790  21.371   2.760   7.355
10996POPC   C1B68791  21.105   2.763   6.455
10996POPC   C2B68792  21.173   2.732   6.755
10996POPC   C3B68793  21.092   2.777   7.055
10996POPC   C4B68794  21.185   2.801   7.355
10997POPC   NC368795  21.431  29.934   5.555
10997POPC   PO468796  21.417  29.885   5.855
10997POPC   GL168797  21.352  29.925   6.155
10997POPC   GL268798  21.494  29.968   6.155
10997POPC   C1A68799  21.431  29.929   6.455
10997POPC   D2A68800  21.362  29.936   6.755
10997POPC   C3A68801  21.356  29.937   7.055
10997POPC   C4A68802  21.395  29.908   7.355
10997POPC   C1B68803  21.564  30.120   6.455
10997POPC   C2B68804  21.545  30.115   6.755
10997POPC   C3B68805  21.532  30.079   7.055
10997POPC   C4B68806  21.595  30.049   7.355
10998POPC   NC368807  19.807  30.703   5.555
10998POPC   PO468808  19.872  30.721   5.855
10998POPC   GL168809  19.805  30.692   6.155
10998POPC   GL268810  19.807  30.529   6.155
10998POPC   C1A68811  19.872  30.736   6.455
10998POPC   D2A68812  19.818  30.674   6.755
10998POPC   C3A68813  19.851  30.649   7.055
10998POPC   C4A68814  19.795  30.683   7.355
10998POPC   C1B68815  19.818  30.475   6.455
10998POPC   C2B68816  19.770  30.469   6.755
10998POPC   C3B68817  19.753  30.499   7.055
10998POPC   C4B68818  19.842  30.434   7.355
10999POPC   NC368819  18.328  35.351   5.555
10999POPC   PO468820  18.277  35.391   5.855
10999POPC   GL168821  18.271  35.304   6.155
10999POPC   GL268822  18.179  35.389   6.155
10999POPC   C1A68823  18.333  35.320   6.455
10999POPC   D2A68824  18.291  35.336   6.755
10999POPC   C3A68825  18.278  35.334   7.055
10999POPC   C4A68826  18.296  35.340   7.355
10999POPC   C1B68827  18.037  35.411   6.455
10999POPC   C2B68828  17.992  35.420   6.755
10999POPC   C3B68829  18.023  35.350   7.055
10999POPC   C4B68830  18.027  35.436   7.355
11000POPC   NC368831   9.798  20.636   5.555
11000POPC   PO468832   9.757  20.561   5.855
11000POPC   GL168833   9.714  20.598   6.155
11000POPC   GL268834   9.672  20.605   6.155
11000POPC   C1A68835   9.758  20.578   6.455
11000POPC   D2A68836   9.765  20.640   6.755
11000POPC   C3A68837   9.782  20.611   7.055
11000POPC   C4A68838   9.715  20.657   7.355
11000POPC   C1B68839   9.452  20.622   6.455
11000POPC   C2B68840   9.475  20.669   6.755
11000POPC   C3B68841   9.541  20.648   7.055
11000POPC   C4B68842   9.511  20.641   7.355
11001POPC   NC368843  11.291   9.773   5.555
11001POPC   PO468844  11.346   9.778   5.855
11001POPC   GL168845  11.331   9.733   6.155
11001POPC   GL268846  11.334   9.649   6.155
11001POPC   C1A68847  11.304   9.718   6.455
11001POPC   D2A68848  11.266   9.779   6.755
11001POPC   C3A68849  11.334   9.704   7.055
11001POPC   C4A68850  11.300   9.750   7.355
11001POPC   C1B68851  11.276   9.510   6.455
11001POPC   C2B68852  11.272   9.484   6.755
11001POPC   C3B68853  11.258   9.531   7.055
11001POPC   C4B68854  11.341   9.525   7.355
11002POPC   NC368855  44.651  10.488   5.555
11002POPC   PO468856  44.625  10.508   5.855
11002POPC   GL168857  44.625  10.486   6.155
11002POPC   GL268858  44.709  10.636   6.155
11002POPC   C1A68859  44.630  10.551   6.455
11002POPC   D2A68860  44.670  10.475   6.755
11002POPC   C3A68861  44.616  10.548   7.055
11002POPC   C4A68862  44.642  10.547   7.355
11002POPC   C1B68863  44.809  10.677   6.455
11002POPC   C2B68864  44.769  10.731   6.755
11002POPC   C3B68865  44.848  10.753   7.055
11002POPC   C4B68866  44.787  10.726   7.355
11003POPC   NC368867   8.986  39.199   5.555
11003POPC   PO468868   8.971  39.275   5.855
11003POPC   GL168869   9.017  39.229   6.155
11003POPC   GL268870   9.078  39.275   6.155
11003POPC   C1A68871   8.951  39.199   6.455
11003POPC   D2A68872   8.998  39.215   6.755
11003POPC   C3A68873   8.938  39.233   7.055
11003POPC   C4A68874   8.991  39.235   7.355
11003POPC   C1B68875   9.238  39.263   6.455
11003POPC   C2B68876   9.259  39.346   6.755
11003POPC   C3B68877   9.249  39.269   7.055
11003POPC   C4B68878   9.176  39.327   7.355
11004POPC   NC368879   1.967   0.429   5.555
11004POPC   PO468880   2.036   0.437   5.855
11004POPC   GL168881   2.001   0.417   6.155
11004POPC   GL268882   2.078   0.430   6.155
11004POPC   C1A68883   2.003   0.434   6.455
11004POPC   D2A68884   1.982   0.430   6.755
11004POPC   C3A68885   1.950   0.399   7.055
11004POPC   C4A68886   1.958   0.397   7.355
11004POPC   C1B68887   2.267   0.385   6.455
11004POPC   C2B68888   2.206   0.384   6.755
11004POPC   C3B68889   2.211   0.400   7.055
11004POPC   C4B68890   2.246   0.354   7.355
11005POPC   NC368891  15.965  39.990   5.555
11005POPC   PO468892  15.983  40.055   5.855
11005POPC   GL168893  15.938  40.016   6.155
11005POPC   GL268894  16.008  40.149   6.155
11005POPC   C1A68895  15.934  40.018   6.455
11005POPC   D2A68896  15.997  40.006   6.755
11005POPC   C3A68897  15.979  39.994   7.055
11005POPC   C4A68898  15.998  40.041   7.355
11005POPC   C1B68899  16.019  40.270   6.455
11005POPC   C2B68900  15.991  40.221   6.755
11005POPC   C3B68901  16.032  40.221   7.055
11005POPC   C4B68902  16.072  40.267   7.355
11006POPC   NC368903  23.669   9.728   5.555
11006POPC   PO468904  23.732   9.701   5.855
11006POPC   GL168905  23.674   9.745   6.155
11006POPC   GL268906  23.666   9.632   6.155
11006POPC   C1A68907  23.735   9.778   6.455
11006POPC   D2A68908  23.703   9.700   6.755
11006POPC   C3A68909  23.681   9.785   7.055
11006POPC   C4A68910  23.673   9.703   7.355
11006POPC   C1B68911  23.654   9.481   6.455
11006POPC   C2B68912  23.705   9.502   6.755
11006POPC   C3B68913  23.738   9.536   7.055
11006POPC   C4B68914  23.648   9.476   7.355
11007POPC   NC368915  14.424  13.622   5.555
11007POPC   PO468916  14.366  13.634   5.855
11007POPC   GL168917  14.375  13.580   6.155
11007POPC   GL268918  14.415  13.710   6.155
11007POPC   C1A68919  14.410  13.616   6.455
11007POPC   D2A68920  14.449  13.611   6.755
11007POPC   C3A68921  14.396  13.661   7.055
11007POPC   C4A68922  14.418  13.583   7.355
11007POPC   C1B68923  14.365  13.872   6.455
11007POPC   C2B68924  14.399  13.863   6.755
11007POPC   C3B68925  14.456  13.881   7.055
11007POPC   C4B68926  14.364  13.869   7.355
11008POPC   NC368927  17.534  30.655   5.555
11008POPC   PO468928  17.473  30.654   5.855
11008POPC   GL168929  17.495  30.685   6.155
11008POPC   GL268930  17.442  30.755   6.155
11008POPC   C1A68931  17.477  30.668   6.455
11008POPC   D2A68932  17.545  30.725   6.755
11008POPC   C3A68933  17.546  30.664   7.055
11008POPC   C4A68934  17.518  30.648   7.355
11008POPC   C1B68935  17.303  30.821   6.455
11008POPC   C2B68936  17.262  30.805   6.755
11008POPC   C3B68937  17.311  30.829   7.055
11008POPC   C4B68938  17.262  30.778   7.355
11009POPC   NC368939  33.799  38.466   5.555
11009POPC   PO468940  33.815  38.425   5.855
11009POPC   GL168941  33.783  38.499   6.155
11009POPC   GL268942  33.865  38.525   6.155
11009POPC   C1A68943  33.813  38.490   6.455
11009POPC   D2A68944  33.759  38.421   6.755
11009POPC   C3A68945  33.838  38.438   7.055
11009POPC   C4A68946  33.791  38.432   7.355
11009POPC   C1B68947  33.930  38.611   6.455
11009POPC   C2B68948  33.907  38.654   6.755
11009POPC   C3B68949  34.002  38.665   7.055
11009POPC   C4B68950  33.935  38.605   7.355
11010POPC   NC368951  43.877  39.979   5.555
11010POPC   PO468952  43.890  40.037   5.855
11010POPC   GL168953  43.881  39.978   6.155
11010POPC   GL268954  43.949  39.952   6.155
11010POPC   C1A68955  43.848  40.010   6.455
11010POPC   D2A68956  43.900  39.963   6.755
11010POPC   C3A68957  43.890  39.976   7.055
11010POPC   C4A68958  43.902  40.017   7.355
11010POPC   C1B68959  44.130  39.837   6.455
11010POPC   C2B68960  44.068  39.892   6.755
11010POPC   C3B68961  44.056  39.907   7.055
11010POPC   C4B68962  44.049  39.840   7.355
11011POPC   NC368963  14.396  21.339   5.555
11011POPC   PO468964  14.407  21.373   5.855
11011POPC   GL168965  14.359  21.343   6.155
11011POPC   GL268966  14.561  21.313   6.155
11011POPC   C1A68967  14.425  21.375   6.455
11011POPC   D2A68968  14.371  21.355   6.755
11011POPC   C3A68969  14.363  21.433   7.055
11011POPC   C4A68970  14.357  21.413   7.355
11011POPC   C1B68971  14.612  21.362   6.455
11011POPC   C2B68972  14.639  21.288   6.755
11011POPC   C3B68973  14.667  21.356   7.055
11011POPC   C4B68974  14.656  21.367   7.355
11012POPC   NC368975  14.377  40.822   5.555
11012POPC   PO468976  14.425  40.830   5.855
11012POPC   GL168977  14.425  40.774   6.155
11012POPC   GL268978  14.272  40.784   6.155
11012POPC   C1A68979  14.450  40.813   6.455
11012POPC   D2A68980  14.389  40.764   6.755
11012POPC   C3A68981  14.392  40.781   7.055
11012POPC   C4A68982  14.375  40.740   7.355
11012POPC   C1B68983  14.170  40.781   6.455
11012POPC   C2B68984  14.123  40.775   6.755
11012POPC   C3B68985  14.170  40.801   7.055
11012POPC   C4B68986  14.165  40.750   7.355
11013POPC   NC368987   4.309  21.348   5.555
11013POPC   PO468988   4.330  21.376   5.855
11013POPC   GL168989   4.282  21.405   6.155
11013POPC   GL268990   4.466  21.493   6.155
11013POPC   C1A68991   4.311  21.417   6.455
11013POPC   D2A68992   4.311  21.367   6.755
11013POPC   C3A68993   4.275  21.343   7.055
11013POPC   C4A68994   4.326  21.402   7.355
11013POPC   C1B68995   4.503  21.491   6.455
11013POPC   C2B68996   4.524  21.480   6.755
11013POPC   C3B68997   4.530  21.478   7.055
11013POPC   C4B68998   4.534  21.474   7.355
11014POPC   NC368999  25.259  19.016   5.555
11014POPC   PO469000  25.295  19.022   5.855
11014POPC   GL169001  25.267  19.076   6.155
11014POPC   GL269002  25.227  18.973   6.155
11014POPC   C1A69003  25.245  19.097   6.455
11014POPC   D2A69004  25.251  19.055   6.755
11014POPC   C3A69005  25.301  19.058   7.055
11014POPC   C4A69006  25.300  19.048   7.355
11014POPC   C1B69007  25.258  18.774   6.455
11014POPC   C2B69008  25.172  18.851   6.755
11014POPC   C3B69009  25.211  18.800   7.055
11014POPC   C4B69010  25.257  18.831   7.355
11015POPC   NC369011  40.792  10.543   5.555
11015POPC   PO469012  40.734  10.478   5.855
11015POPC   GL169013  40.776  10.493   6.155
11015POPC   GL269014  40.695  10.555   6.155
11015POPC   C1A69015  40.790  10.521   6.455
11015POPC   D2A69016  40.752  10.480   6.755
11015POPC   C3A69017  40.767  10.479   7.055
11015POPC   C4A69018  40.819  10.524   7.355
11015POPC   C1B69019  40.578  10.646   6.455
11015POPC   C2B69020  40.598  10.662   6.755
11015POPC   C3B69021  40.586  10.648   7.055
11015POPC   C4B69022  40.525  10.663   7.355
11016POPC   NC369023  33.785  43.871   5.555
11016POPC   PO469024  33.814  43.875   5.855
11016POPC   GL169025  33.818  43.889   6.155
11016POPC   GL269026  33.646  43.962   6.155
11016POPC   C1A69027  33.811  43.907   6.455
11016POPC   D2A69028  33.821  43.907   6.755
11016POPC   C3A69029  33.825  43.861   7.055
11016POPC   C4A69030  33.799  43.852   7.355
11016POPC   C1B69031  33.530  43.995   6.455
11016POPC   C2B69032  33.551  44.044   6.755
11016POPC   C3B69033  33.591  43.968   7.055
11016POPC   C4B69034  33.596  44.011   7.355
11017POPC   NC369035  38.415  44.612   5.555
11017POPC   PO469036  38.479  44.666   5.855
11017POPC   GL169037  38.456  44.653   6.155
11017POPC   GL269038  38.361  44.501   6.155
11017POPC   C1A69039  38.448  44.635   6.455
11017POPC   D2A69040  38.406  44.707   6.755
11017POPC   C3A69041  38.435  44.701   7.055
11017POPC   C4A69042  38.465  44.661   7.355
11017POPC   C1B69043  38.388  44.426   6.455
11017POPC   C2B69044  38.366  44.421   6.755
11017POPC   C3B69045  38.345  44.475   7.055
11017POPC   C4B69046  38.339  44.439   7.355
11018POPC   NC369047  29.177  12.067   5.555
11018POPC   PO469048  29.137  12.062   5.855
11018POPC   GL169049  29.137  12.093   6.155
11018POPC   GL269050  29.188  12.204   6.155
11018POPC   C1A69051  29.177  12.041   6.455
11018POPC   D2A69052  29.156  12.065   6.755
11018POPC   C3A69053  29.138  12.126   7.055
11018POPC   C4A69054  29.165  12.120   7.355
11018POPC   C1B69055  29.219  12.335   6.455
11018POPC   C2B69056  29.155  12.361   6.755
11018POPC   C3B69057  29.163  12.358   7.055
11018POPC   C4B69058  29.173  12.271   7.355
11019POPC   NC369059  29.945  39.280   5.555
11019POPC   PO469060  29.876  39.280   5.855
11019POPC   GL169061  29.922  39.237   6.155
11019POPC   GL269062  29.797  39.338   6.155
11019POPC   C1A69063  29.925  39.241   6.455
11019POPC   D2A69064  29.953  39.228   6.755
11019POPC   C3A69065  29.952  39.217   7.055
11019POPC   C4A69066  29.963  39.202   7.355
11019POPC   C1B69067  29.682  39.411   6.455
11019POPC   C2B69068  29.677  39.369   6.755
11019POPC   C3B69069  29.693  39.399   7.055
11019POPC   C4B69070  29.707  39.385   7.355
11020POPC   NC369071   2.751  40.822   5.555
11020POPC   PO469072   2.783  40.796   5.855
11020POPC   GL169073   2.804  40.784   6.155
11020POPC   GL269074   2.780  40.699   6.155
11020POPC   C1A69075   2.803  40.794   6.455
11020POPC   D2A69076   2.764  40.758   6.755
11020POPC   C3A69077   2.772  40.818   7.055
11020POPC   C4A69078   2.780  40.775   7.355
11020POPC   C1B69079   2.793  40.543   6.455
11020POPC   C2B69080   2.775  40.556   6.755
11020POPC   C3B69081   2.846  40.515   7.055
11020POPC   C4B69082   2.768  40.505   7.355
11021POPC   NC369083   5.885  24.448   5.555
11021POPC   PO469084   5.825  24.528   5.855
11021POPC   GL169085   5.902  24.446   6.155
11021POPC   GL269086   5.861  24.616   6.155
11021POPC   C1A69087   5.863  24.478   6.455
11021POPC   D2A69088   5.836  24.501   6.755
11021POPC   C3A69089   5.891  24.536   7.055
11021POPC   C4A69090   5.892  24.481   7.355
11021POPC   C1B69091   5.842  24.768   6.455
11021POPC   C2B69092   5.827  24.784   6.755
11021POPC   C3B69093   5.860  24.748   7.055
11021POPC   C4B69094   5.878  24.702   7.355
11022POPC   NC369095  31.444  36.884   5.555
11022POPC   PO469096  31.438  36.898   5.855
11022POPC   GL169097  31.498  36.942   6.155
11022POPC   GL269098  31.389  37.003   6.155
11022POPC   C1A69099  31.451  36.903   6.455
11022POPC   D2A69100  31.424  36.914   6.755
11022POPC   C3A69101  31.475  36.902   7.055
11022POPC   C4A69102  31.518  36.861   7.355
11022POPC   C1B69103  31.263  37.095   6.455
11022POPC   C2B69104  31.316  37.109   6.755
11022POPC   C3B69105  31.325  37.056   7.055
11022POPC   C4B69106  31.319  37.073   7.355
11023POPC   NC369107   2.019   7.378   5.555
11023POPC   PO469108   1.945   7.453   5.855
11023POPC   GL169109   1.945   7.430   6.155
11023POPC   GL269110   2.041   7.560   6.155
11023POPC   C1A69111   2.015   7.388   6.455
11023POPC   D2A69112   1.963   7.441   6.755
11023POPC   C3A69113   2.014   7.418   7.055
11023POPC   C4A69114   1.974   7.466   7.355
11023POPC   C1B69115   2.141   7.649   6.455
11023POPC   C2B69116   2.132   7.631   6.755
11023POPC   C3B69117   2.096   7.624   7.055
11023POPC   C4B69118   2.171   7.598   7.355
11024POPC   NC369119   5.913  36.100   5.555
11024POPC   PO469120   5.867  36.151   5.855
11024POPC   GL169121   5.882  36.105   6.155
11024POPC   GL269122   5.779  36.002   6.155
11024POPC   C1A69123   5.896  36.120   6.455
11024POPC   D2A69124   5.876  36.134   6.755
11024POPC   C3A69125   5.900  36.117   7.055
11024POPC   C4A69126   5.877  36.153   7.355
11024POPC   C1B69127   5.680  35.908   6.455
11024POPC   C2B69128   5.748  35.925   6.755
11024POPC   C3B69129   5.753  35.879   7.055
11024POPC   C4B69130   5.755  35.972   7.355
11025POPC   NC369131   7.467  24.499   5.555
11025POPC   PO469132   7.373  24.477   5.855
11025POPC   GL169133   7.373  24.539   6.155
11025POPC   GL269134   7.458  24.396   6.155
11025POPC   C1A69135   7.462  24.522   6.455
11025POPC   D2A69136   7.411  24.470   6.755
11025POPC   C3A69137   7.374  24.475   7.055
11025POPC   C4A69138   7.462  24.443   7.355
11025POPC   C1B69139   7.558  24.314   6.455
11025POPC   C2B69140   7.597  24.288   6.755
11025POPC   C3B69141   7.539  24.318   7.055
11025POPC   C4B69142   7.557  24.328   7.355
11026POPC   NC369143  33.007  37.657   5.555
11026POPC   PO469144  33.070  37.683   5.855
11026POPC   GL169145  33.045  37.680   6.155
11026POPC   GL269146  33.027  37.764   6.155
11026POPC   C1A69147  33.031  37.692   6.455
11026POPC   D2A69148  32.996  37.634   6.755
11026POPC   C3A69149  33.028  37.666   7.055
11026POPC   C4A69150  33.006  37.636   7.355
11026POPC   C1B69151  33.081  37.940   6.455
11026POPC   C2B69152  33.041  37.873   6.755
11026POPC   C3B69153  33.068  37.887   7.055
11026POPC   C4B69154  33.122  37.935   7.355
11027POPC   NC369155  32.203  33.848   5.555
11027POPC   PO469156  32.267  33.808   5.855
11027POPC   GL169157  32.237  33.787   6.155
11027POPC   GL269158  32.123  33.719   6.155
11027POPC   C1A69159  32.240  33.753   6.455
11027POPC   D2A69160  32.236  33.838   6.755
11027POPC   C3A69161  32.240  33.766   7.055
11027POPC   C4A69162  32.281  33.839   7.355
11027POPC   C1B69163  32.026  33.726   6.455
11027POPC   C2B69164  32.009  33.711   6.755
11027POPC   C3B69165  32.008  33.746   7.055
11027POPC   C4B69166  32.047  33.704   7.355
11028POPC   NC369167  39.252  41.549   5.555
11028POPC   PO469168  39.230  41.543   5.855
11028POPC   GL169169  39.235  41.538   6.155
11028POPC   GL269170  39.391  41.500   6.155
11028POPC   C1A69171  39.270  41.552   6.455
11028POPC   D2A69172  39.249  41.592   6.755
11028POPC   C3A69173  39.235  41.601   7.055
11028POPC   C4A69174  39.208  41.583   7.355
11028POPC   C1B69175  39.474  41.504   6.455
11028POPC   C2B69176  39.500  41.504   6.755
11028POPC   C3B69177  39.444  41.528   7.055
11028POPC   C4B69178  39.501  41.535   7.355
11029POPC   NC369179  28.372  40.830   5.555
11029POPC   PO469180  28.395  40.822   5.855
11029POPC   GL169181  28.339  40.805   6.155
11029POPC   GL269182  28.239  40.742   6.155
11029POPC   C1A69183  28.391  40.744   6.455
11029POPC   D2A69184  28.326  40.790   6.755
11029POPC   C3A69185  28.371  40.780   7.055
11029POPC   C4A69186  28.323  40.824   7.355
11029POPC   C1B69187  28.185  40.643   6.455
11029POPC   C2B69188  28.110  40.719   6.755
11029POPC   C3B69189  28.146  40.653   7.055
11029POPC   C4B69190  28.090  40.649   7.355
11030POPC   NC369191  12.100   5.883   5.555
11030POPC   PO469192  12.081   5.885   5.855
11030POPC   GL169193  12.045   5.912   6.155
11030POPC   GL269194  12.116   5.992   6.155
11030POPC   C1A69195  12.086   5.882   6.455
11030POPC   D2A69196  12.108   5.890   6.755
11030POPC   C3A69197  12.084   5.868   7.055
11030POPC   C4A69198  12.102   5.828   7.355
11030POPC   C1B69199  12.060   6.146   6.455
11030POPC   C2B69200  12.122   6.124   6.755
11030POPC   C3B69201  12.108   6.077   7.055
11030POPC   C4B69202  12.135   6.141   7.355
11031POPC   NC369203  19.792  42.349   5.555
11031POPC   PO469204  19.843  42.300   5.855
11031POPC   GL169205  19.881  42.351   6.155
11031POPC   GL269206  19.866  42.450   6.155
11031POPC   C1A69207  19.844  42.348   6.455
11031POPC   D2A69208  19.873  42.323   6.755
11031POPC   C3A69209  19.833  42.318   7.055
11031POPC   C4A69210  19.814  42.323   7.355
11031POPC   C1B69211  19.939  42.605   6.455
11031POPC   C2B69212  19.916  42.594   6.755
11031POPC   C3B69213  19.961  42.562   7.055
11031POPC   C4B69214  19.877  42.610   7.355
11032POPC   NC369215  31.432  13.648   5.555
11032POPC   PO469216  31.450  13.639   5.855
11032POPC   GL169217  31.436  13.625   6.155
11032POPC   GL269218  31.437  13.529   6.155
11032POPC   C1A69219  31.482  13.653   6.455
11032POPC   D2A69220  31.503  13.674   6.755
11032POPC   C3A69221  31.483  13.671   7.055
11032POPC   C4A69222  31.468  13.640   7.355
11032POPC   C1B69223  31.493  13.415   6.455
11032POPC   C2B69224  31.415  13.382   6.755
11032POPC   C3B69225  31.409  13.401   7.055
11032POPC   C4B69226  31.449  13.427   7.355
11033POPC   NC369227  41.600   0.446   5.555
11033POPC   PO469228  41.576   0.453   5.855
11033POPC   GL169229  41.517   0.486   6.155
11033POPC   GL269230  41.495   0.340   6.155
11033POPC   C1A69231  41.518   0.404   6.455
11033POPC   D2A69232  41.601   0.470   6.755
11033POPC   C3A69233  41.565   0.399   7.055
11033POPC   C4A69234  41.555   0.429   7.355
11033POPC   C1B69235  41.326   0.315   6.455
11033POPC   C2B69236  41.392   0.235   6.755
11033POPC   C3B69237  41.333   0.309   7.055
11033POPC   C4B69238  41.355   0.319   7.355
11034POPC   NC369239   3.542  15.208   5.555
11034POPC   PO469240   3.501  15.219   5.855
11034POPC   GL169241   3.539  15.222   6.155
11034POPC   GL269242   3.638  15.170   6.155
11034POPC   C1A69243   3.540  15.201   6.455
11034POPC   D2A69244   3.588  15.222   6.755
11034POPC   C3A69245   3.536  15.197   7.055
11034POPC   C4A69246   3.492  15.176   7.355
11034POPC   C1B69247   3.812  15.271   6.455
11034POPC   C2B69248   3.762  15.273   6.755
11034POPC   C3B69249   3.759  15.250   7.055
11034POPC   C4B69250   3.754  15.203   7.355
11035POPC   NC369251  33.004  28.377   5.555
11035POPC   PO469252  33.002  28.409   5.855
11035POPC   GL169253  33.013  28.390   6.155
11035POPC   GL269254  32.909  28.370   6.155
11035POPC   C1A69255  33.014  28.404   6.455
11035POPC   D2A69256  33.033  28.385   6.755
11035POPC   C3A69257  33.027  28.357   7.055
11035POPC   C4A69258  33.017  28.381   7.355
11035POPC   C1B69259  32.730  28.425   6.455
11035POPC   C2B69260  32.769  28.373   6.755
11035POPC   C3B69261  32.803  28.454   7.055
11035POPC   C4B69262  32.826  28.381   7.355
11036POPC   NC369263  10.554   3.586   5.555
11036POPC   PO469264  10.545   3.514   5.855
11036POPC   GL169265  10.492   3.581   6.155
11036POPC   GL269266  10.468   3.682   6.155
11036POPC   C1A69267  10.569   3.498   6.455
11036POPC   D2A69268  10.491   3.555   6.755
11036POPC   C3A69269  10.481   3.523   7.055
11036POPC   C4A69270  10.561   3.503   7.355
11036POPC   C1B69271  10.498   3.786   6.455
11036POPC   C2B69272  10.516   3.799   6.755
11036POPC   C3B69273  10.450   3.832   7.055
11036POPC   C4B69274  10.526   3.754   7.355
11037POPC   NC369275   5.113  25.285   5.555
11037POPC   PO469276   5.091  25.298   5.855
11037POPC   GL169277   5.073  25.246   6.155
11037POPC   GL269278   5.019  25.137   6.155
11037POPC   C1A69279   5.126  25.220   6.455
11037POPC   D2A69280   5.096  25.223   6.755
11037POPC   C3A69281   5.101  25.288   7.055
11037POPC   C4A69282   5.113  25.284   7.355
11037POPC   C1B69283   4.946  25.134   6.455
11037POPC   C2B69284   4.932  25.155   6.755
11037POPC   C3B69285   4.852  25.096   7.055
11037POPC   C4B69286   4.880  25.095   7.355
11038POPC   NC369287   6.659  12.857   5.555
11038POPC   PO469288   6.649  12.817   5.855
11038POPC   GL169289   6.676  12.871   6.155
11038POPC   GL269290   6.706  12.833   6.155
11038POPC   C1A69291   6.666  12.901   6.455
11038POPC   D2A69292   6.668  12.827   6.755
11038POPC   C3A69293   6.643  12.855   7.055
11038POPC   C4A69294   6.659  12.861   7.355
11038POPC   C1B69295   6.897  12.749   6.455
11038POPC   C2B69296   6.905  12.740   6.755
11038POPC   C3B69297   6.852  12.730   7.055
11038POPC   C4B69298   6.848  12.728   7.355
11039POPC   NC369299  14.409  19.829   5.555
11039POPC   PO469300  14.366  19.873   5.855
11039POPC   GL169301  14.395  19.840   6.155
11039POPC   GL269302  14.389  19.730   6.155
11039POPC   C1A69303  14.434  19.807   6.455
11039POPC   D2A69304  14.447  19.820   6.755
11039POPC   C3A69305  14.367  19.865   7.055
11039POPC   C4A69306  14.377  19.836   7.355
11039POPC   C1B69307  14.256  19.586   6.455
11039POPC   C2B69308  14.286  19.611   6.755
11039POPC   C3B69309  14.313  19.625   7.055
11039POPC   C4B69310  14.242  19.567   7.355
11040POPC   NC369311  11.325  21.426   5.555
11040POPC   PO469312  11.290  21.357   5.855
11040POPC   GL169313  11.277  21.397   6.155
11040POPC   GL269314  11.334  21.535   6.155
11040POPC   C1A69315  11.339  21.414   6.455
11040POPC   D2A69316  11.303  21.404   6.755
11040POPC   C3A69317  11.309  21.336   7.055
11040POPC   C4A69318  11.324  21.356   7.355
11040POPC   C1B69319  11.266  21.639   6.455
11040POPC   C2B69320  11.239  21.635   6.755
11040POPC   C3B69321  11.259  21.668   7.055
11040POPC   C4B69322  11.288  21.613   7.355
11041POPC   NC369323  36.902  28.401   5.555
11041POPC   PO469324  36.920  28.343   5.855
11041POPC   GL169325  36.945  28.417   6.155
11041POPC   GL269326  36.810  28.296   6.155
11041POPC   C1A69327  36.868  28.364   6.455
11041POPC   D2A69328  36.912  28.325   6.755
11041POPC   C3A69329  36.880  28.333   7.055
11041POPC   C4A69330  36.902  28.328   7.355
11041POPC   C1B69331  36.826  28.146   6.455
11041POPC   C2B69332  36.828  28.183   6.755
11041POPC   C3B69333  36.791  28.183   7.055
11041POPC   C4B69334  36.781  28.121   7.355
11042POPC   NC369335  29.149  43.129   5.555
11042POPC   PO469336  29.173  43.068   5.855
11042POPC   GL169337  29.185  43.085   6.155
11042POPC   GL269338  29.203  43.209   6.155
11042POPC   C1A69339  29.118  43.114   6.455
11042POPC   D2A69340  29.099  43.131   6.755
11042POPC   C3A69341  29.112  43.068   7.055
11042POPC   C4A69342  29.155  43.072   7.355
11042POPC   C1B69343  29.298  43.313   6.455
11042POPC   C2B69344  29.381  43.272   6.755
11042POPC   C3B69345  29.355  43.300   7.055
11042POPC   C4B69346  29.304  43.282   7.355
11043POPC   NC369347  36.921  13.647   5.555
11043POPC   PO469348  36.941  13.643   5.855
11043POPC   GL169349  36.906  13.612   6.155
11043POPC   GL269350  37.069  13.638   6.155
11043POPC   C1A69351  36.865  13.640   6.455
11043POPC   D2A69352  36.897  13.621   6.755
11043POPC   C3A69353  36.922  13.598   7.055
11043POPC   C4A69354  36.872  13.622   7.355
11043POPC   C1B69355  37.163  13.533   6.455
11043POPC   C2B69356  37.141  13.529   6.755
11043POPC   C3B69357  37.150  13.549   7.055
11043POPC   C4B69358  37.127  13.550   7.355
11044POPC   NC369359  22.149   6.644   5.555
11044POPC   PO469360  22.199   6.614   5.855
11044POPC   GL169361  22.161   6.631   6.155
11044POPC   GL269362  22.292   6.631   6.155
11044POPC   C1A69363  22.147   6.628   6.455
11044POPC   D2A69364  22.115   6.668   6.755
11044POPC   C3A69365  22.128   6.661   7.055
11044POPC   C4A69366  22.120   6.601   7.355
11044POPC   C1B69367  22.421   6.738   6.455
11044POPC   C2B69368  22.391   6.659   6.755
11044POPC   C3B69369  22.423   6.696   7.055
11044POPC   C4B69370  22.428   6.664   7.355
11045POPC   NC369371  29.887  15.169   5.555
11045POPC   PO469372  29.896  15.225   5.855
11045POPC   GL169373  29.898  15.196   6.155
11045POPC   GL269374  30.032  15.225   6.155
11045POPC   C1A69375  29.932  15.148   6.455
11045POPC   D2A69376  29.942  15.184   6.755
11045POPC   C3A69377  29.911  15.170   7.055
11045POPC   C4A69378  29.901  15.155   7.355
11045POPC   C1B69379  30.083  15.349   6.455
11045POPC   C2B69380  30.081  15.415   6.755
11045POPC   C3B69381  30.086  15.330   7.055
11045POPC   C4B69382  30.057  15.335   7.355
11046POPC   NC369383  40.810  12.811   5.555
11046POPC   PO469384  40.755  12.827   5.855
11046POPC   GL169385  40.796  12.812   6.155
11046POPC   GL269386  40.936  12.900   6.155
11046POPC   C1A69387  40.828  12.867   6.455
11046POPC   D2A69388  40.768  12.832   6.755
11046POPC   C3A69389  40.770  12.869   7.055
11046POPC   C4A69390  40.801  12.839   7.355
11046POPC   C1B69391  41.070  12.884   6.455
11046POPC   C2B69392  41.066  12.887   6.755
11046POPC   C3B69393  41.074  12.844   7.055
11046POPC   C4B69394  40.980  12.892   7.355
11047POPC   NC369395  27.610  36.854   5.555
11047POPC   PO469396  27.617  36.892   5.855
11047POPC   GL169397  27.606  36.854   6.155
11047POPC   GL269398  27.530  36.792   6.155
11047POPC   C1A69399  27.577  36.906   6.455
11047POPC   D2A69400  27.555  36.890   6.755
11047POPC   C3A69401  27.621  36.939   7.055
11047POPC   C4A69402  27.571  36.914   7.355
11047POPC   C1B69403  27.379  36.719   6.455
11047POPC   C2B69404  27.423  36.687   6.755
11047POPC   C3B69405  27.370  36.733   7.055
11047POPC   C4B69406  27.400  36.767   7.355
11048POPC   NC369407  29.121  37.633   5.555
11048POPC   PO469408  29.110  37.702   5.855
11048POPC   GL169409  29.184  37.700   6.155
11048POPC   GL269410  29.138  37.588   6.155
11048POPC   C1A69411  29.170  37.640   6.455
11048POPC   D2A69412  29.124  37.715   6.755
11048POPC   C3A69413  29.148  37.705   7.055
11048POPC   C4A69414  29.164  37.640   7.355
11048POPC   C1B69415  29.113  37.401   6.455
11048POPC   C2B69416  29.103  37.479   6.755
11048POPC   C3B69417  29.125  37.462   7.055
11048POPC   C4B69418  29.132  37.453   7.355
11049POPC   NC369419  38.462  33.061   5.555
11049POPC   PO469420  38.440  33.020   5.855
11049POPC   GL169421  38.405  33.060   6.155
11049POPC   GL269422  38.591  32.930   6.155
11049POPC   C1A69423  38.449  33.040   6.455
11049POPC   D2A69424  38.411  32.975   6.755
11049POPC   C3A69425  38.486  33.046   7.055
11049POPC   C4A69426  38.498  33.031   7.355
11049POPC   C1B69427  38.689  32.884   6.455
11049POPC   C2B69428  38.658  32.844   6.755
11049POPC   C3B69429  38.694  32.865   7.055
11049POPC   C4B69430  38.603  32.905   7.355
11050POPC   NC369431  12.084  15.225   5.555
11050POPC   PO469432  12.030  15.201   5.855
11050POPC   GL169433  12.080  15.141   6.155
11050POPC   GL269434  11.996  15.085   6.155
11050POPC   C1A69435  12.093  15.164   6.455
11050POPC   D2A69436  12.069  15.133   6.755
11050POPC   C3A69437  12.122  15.173   7.055
11050POPC   C4A69438  12.104  15.172   7.355
11050POPC   C1B69439  11.856  15.094   6.455
11050POPC   C2B69440  11.809  15.033   6.755
11050POPC   C3B69441  11.810  15.108   7.055
11050POPC   C4B69442  11.882  15.052   7.355
11051POPC   NC369443  10.542  29.185   5.555
11051POPC   PO469444  10.562  29.172   5.855
11051POPC   GL169445  10.499  29.105   6.155
11051POPC   GL269446  10.408  29.155   6.155
11051POPC   C1A69447  10.483  29.115   6.455
11051POPC   D2A69448  10.485  29.125   6.755
11051POPC   C3A69449  10.494  29.188   7.055
11051POPC   C4A69450  10.518  29.139   7.355
11051POPC   C1B69451  10.242  29.122   6.455
11051POPC   C2B69452  10.309  29.153   6.755
11051POPC   C3B69453  10.274  29.167   7.055
11051POPC   C4B69454  10.281  29.150   7.355
11052POPC   NC369455  23.731  43.077   5.555
11052POPC   PO469456  23.669  43.143   5.855
11052POPC   GL169457  23.722  43.111   6.155
11052POPC   GL269458  23.753  43.000   6.155
11052POPC   C1A69459  23.718  43.094   6.455
11052POPC   D2A69460  23.735  43.160   6.755
11052POPC   C3A69461  23.687  43.101   7.055
11052POPC   C4A69462  23.714  43.090   7.355
11052POPC   C1B69463  23.712  42.825   6.455
11052POPC   C2B69464  23.711  42.903   6.755
11052POPC   C3B69465  23.748  42.815   7.055
11052POPC   C4B69466  23.740  42.817   7.355
11053POPC   NC369467  32.985  25.308   5.555
11053POPC   PO469468  32.996  25.224   5.855
11053POPC   GL169469  33.020  25.304   6.155
11053POPC   GL269470  32.912  25.197   6.155
11053POPC   C1A69471  33.057  25.224   6.455
11053POPC   D2A69472  33.033  25.218   6.755
11053POPC   C3A69473  33.057  25.291   7.055
11053POPC   C4A69474  33.013  25.220   7.355
11053POPC   C1B69475  32.762  25.161   6.455
11053POPC   C2B69476  32.792  25.239   6.755
11053POPC   C3B69477  32.760  25.255   7.055
11053POPC   C4B69478  32.764  25.198   7.355
11054POPC   NC369479  36.173  12.040   5.555
11054POPC   PO469480  36.097  12.039   5.855
11054POPC   GL169481  36.089  12.080   6.155
11054POPC   GL269482  36.238  11.985   6.155
11054POPC   C1A69483  36.109  12.065   6.455
11054POPC   D2A69484  36.151  12.029   6.755
11054POPC   C3A69485  36.140  12.061   7.055
11054POPC   C4A69486  36.155  12.070   7.355
11054POPC   C1B69487  36.373  11.914   6.455
11054POPC   C2B69488  36.397  11.928   6.755
11054POPC   C3B69489  36.348  11.915   7.055
11054POPC   C4B69490  36.308  11.930   7.355
11055POPC   NC369491  27.642  16.709   5.555
11055POPC   PO469492  27.555  16.681   5.855
11055POPC   GL169493  27.619  16.755   6.155
11055POPC   GL269494  27.465  16.592   6.155
11055POPC   C1A69495  27.607  16.709   6.455
11055POPC   D2A69496  27.638  16.759   6.755
11055POPC   C3A69497  27.606  16.740   7.055
11055POPC   C4A69498  27.614  16.711   7.355
11055POPC   C1B69499  27.429  16.516   6.455
11055POPC   C2B69500  27.379  16.568   6.755
11055POPC   C3B69501  27.414  16.563   7.055
11055POPC   C4B69502  27.392  16.584   7.355
11056POPC   NC369503  29.126  26.818   5.555
11056POPC   PO469504  29.167  26.861   5.855
11056POPC   GL169505  29.160  26.768   6.155
11056POPC   GL269506  29.160  26.700   6.155
11056POPC   C1A69507  29.185  26.811   6.455
11056POPC   D2A69508  29.103  26.778   6.755
11056POPC   C3A69509  29.112  26.775   7.055
11056POPC   C4A69510  29.191  26.844   7.355
11056POPC   C1B69511  29.124  26.533   6.455
11056POPC   C2B69512  29.138  26.550   6.755
11056POPC   C3B69513  29.195  26.569   7.055
11056POPC   C4B69514  29.216  26.529   7.355
11057POPC   NC369515  17.555  32.202   5.555
11057POPC   PO469516  17.554  32.253   5.855
11057POPC   GL169517  17.462  32.222   6.155
11057POPC   GL269518  17.628  32.296   6.155
11057POPC   C1A69519  17.491  32.223   6.455
11057POPC   D2A69520  17.533  32.258   6.755
11057POPC   C3A69521  17.556  32.268   7.055
11057POPC   C4A69522  17.526  32.294   7.355
11057POPC   C1B69523  17.701  32.351   6.455
11057POPC   C2B69524  17.748  32.264   6.755
11057POPC   C3B69525  17.786  32.295   7.055
11057POPC   C4B69526  17.750  32.259   7.355
11058POPC   NC369527  15.977  22.894   5.555
11058POPC   PO469528  15.979  22.909   5.855
11058POPC   GL169529  15.966  22.980   6.155
11058POPC   GL269530  16.048  22.900   6.155
11058POPC   C1A69531  15.988  22.978   6.455
11058POPC   D2A69532  15.990  22.952   6.755
11058POPC   C3A69533  15.972  22.901   7.055
11058POPC   C4A69534  15.956  22.985   7.355
11058POPC   C1B69535  16.219  22.837   6.455
11058POPC   C2B69536  16.219  22.823   6.755
11058POPC   C3B69537  16.162  22.866   7.055
11058POPC   C4B69538  16.191  22.834   7.355
11059POPC   NC369539  44.634  12.890   5.555
11059POPC   PO469540  44.698  12.897   5.855
11059POPC   GL169541  44.658  12.894   6.155
11059POPC   GL269542  44.781  12.952   6.155
11059POPC   C1A69543  44.617  12.872   6.455
11059POPC   D2A69544  44.659  12.882   6.755
11059POPC   C3A69545  44.647  12.803   7.055
11059POPC   C4A69546  44.695  12.896   7.355
11059POPC   C1B69547  44.806  13.042   6.455
11059POPC   C2B69548  44.791  13.000   6.755
11059POPC   C3B69549  44.825  12.991   7.055
11059POPC   C4B69550  44.822  13.026   7.355
11060POPC   NC369551  32.266  25.302   5.555
11060POPC   PO469552  32.270  25.223   5.855
11060POPC   GL169553  32.296  25.308   6.155
11060POPC   GL269554  32.397  25.323   6.155
11060POPC   C1A69555  32.209  25.220   6.455
11060POPC   D2A69556  32.244  25.241   6.755
11060POPC   C3A69557  32.206  25.280   7.055
11060POPC   C4A69558  32.215  25.308   7.355
11060POPC   C1B69559  32.454  25.364   6.455
11060POPC   C2B69560  32.449  25.297   6.755
11060POPC   C3B69561  32.469  25.303   7.055
11060POPC   C4B69562  32.461  25.276   7.355
11061POPC   NC369563  22.933  43.111   5.555
11061POPC   PO469564  22.909  43.146   5.855
11061POPC   GL169565  22.900  43.111   6.155
11061POPC   GL269566  22.916  43.189   6.155
11061POPC   C1A69567  22.889  43.071   6.455
11061POPC   D2A69568  22.901  43.081   6.755
11061POPC   C3A69569  22.893  43.105   7.055
11061POPC   C4A69570  22.888  43.120   7.355
11061POPC   C1B69571  22.849  43.379   6.455
11061POPC   C2B69572  22.843  43.339   6.755
11061POPC   C3B69573  22.814  43.316   7.055
11061POPC   C4B69574  22.849  43.311   7.355
11062POPC   NC369575  26.779  26.008   5.555
11062POPC   PO469576  26.787  26.083   5.855
11062POPC   GL169577  26.826  26.072   6.155
11062POPC   GL269578  26.852  25.886   6.155
11062POPC   C1A69579  26.783  25.996   6.455
11062POPC   D2A69580  26.774  26.042   6.755
11062POPC   C3A69581  26.818  26.025   7.055
11062POPC   C4A69582  26.822  26.050   7.355
11062POPC   C1B69583  26.904  25.828   6.455
11062POPC   C2B69584  26.822  25.760   6.755
11062POPC   C3B69585  26.827  25.808   7.055
11062POPC   C4B69586  26.879  25.780   7.355
11063POPC   NC369587   1.195  14.430   5.555
11063POPC   PO469588   1.213  14.413   5.855
11063POPC   GL169589   1.259  14.365   6.155
11063POPC   GL269590   1.048  14.323   6.155
11063POPC   C1A69591   1.182  14.407   6.455
11063POPC   D2A69592   1.209  14.369   6.755
11063POPC   C3A69593   1.186  14.377   7.055
11063POPC   C4A69594   1.182  14.358   7.355
11063POPC   C1B69595   0.957  14.359   6.455
11063POPC   C2B69596   0.958  14.322   6.755
11063POPC   C3B69597   0.984  14.328   7.055
11063POPC   C4B69598   0.944  14.366   7.355
11064POPC   NC369599  38.459  11.311   5.555
11064POPC   PO469600  38.486  11.289   5.855
11064POPC   GL169601  38.499  11.289   6.155
11064POPC   GL269602  38.436  11.211   6.155
11064POPC   C1A69603  38.482  11.302   6.455
11064POPC   D2A69604  38.472  11.340   6.755
11064POPC   C3A69605  38.444  11.325   7.055
11064POPC   C4A69606  38.484  11.296   7.355
11064POPC   C1B69607  38.345  11.036   6.455
11064POPC   C2B69608  38.381  11.034   6.755
11064POPC   C3B69609  38.304  11.114   7.055
11064POPC   C4B69610  38.336  11.030   7.355
11065POPC   NC369611   5.114  43.110   5.555
11065POPC   PO469612   5.141  43.146   5.855
11065POPC   GL169613   5.120  43.065   6.155
11065POPC   GL269614   5.024  43.234   6.155
11065POPC   C1A69615   5.084  43.120   6.455
11065POPC   D2A69616   5.066  43.097   6.755
11065POPC   C3A69617   5.095  43.106   7.055
11065POPC   C4A69618   5.056  43.089   7.355
11065POPC   C1B69619   4.946  43.290   6.455
11065POPC   C2B69620   4.939  43.371   6.755
11065POPC   C3B69621   5.002  43.313   7.055
11065POPC   C4B69622   4.982  43.283   7.355
11066POPC   NC369623  36.896  41.531   5.555
11066POPC   PO469624  36.868  41.548   5.855
11066POPC   GL169625  36.866  41.594   6.155
11066POPC   GL269626  36.906  41.634   6.155
11066POPC   C1A69627  36.950  41.545   6.455
11066POPC   D2A69628  36.941  41.530   6.755
11066POPC   C3A69629  36.870  41.511   7.055
11066POPC   C4A69630  36.867  41.570   7.355
11066POPC   C1B69631  36.830  41.829   6.455
11066POPC   C2B69632  36.805  41.786   6.755
11066POPC   C3B69633  36.818  41.833   7.055
11066POPC   C4B69634  36.778  41.824   7.355
11067POPC   NC369635  35.384   2.014   5.555
11067POPC   PO469636  35.317   2.004   5.855
11067POPC   GL169637  35.363   1.985   6.155
11067POPC   GL269638  35.212   2.033   6.155
11067POPC   C1A69639  35.383   1.984   6.455
11067POPC   D2A69640  35.355   2.000   6.755
11067POPC   C3A69641  35.365   2.002   7.055
11067POPC   C4A69642  35.306   1.973   7.355
11067POPC   C1B69643  35.102   2.059   6.455
11067POPC   C2B69644  35.095   2.012   6.755
11067POPC   C3B69645  35.153   1.979   7.055
11067POPC   C4B69646  35.116   2.028   7.355
11068POPC   NC369647   5.097  16.704   5.555
11068POPC   PO469648   5.098  16.706   5.855
11068POPC   GL169649   5.081  16.768   6.155
11068POPC   GL269650   5.192  16.604   6.155
11068POPC   C1A69651   5.061  16.776   6.455
11068POPC   D2A69652   5.074  16.758   6.755
11068POPC   C3A69653   5.134  16.725   7.055
11068POPC   C4A69654   5.087  16.760   7.355
11068POPC   C1B69655   5.269  16.568   6.455
11068POPC   C2B69656   5.267  16.605   6.755
11068POPC   C3B69657   5.329  16.603   7.055
11068POPC   C4B69658   5.296  16.525   7.355
11069POPC   NC369659  12.124   5.127   5.555
11069POPC   PO469660  12.040   5.047   5.855
11069POPC   GL169661  12.104   5.111   6.155
11069POPC   GL269662  12.022   5.050   6.155
11069POPC   C1A69663  12.087   5.074   6.455
11069POPC   D2A69664  12.116   5.135   6.755
11069POPC   C3A69665  12.048   5.077   7.055
11069POPC   C4A69666  12.087   5.090   7.355
11069POPC   C1B69667  11.890   4.924   6.455
11069POPC   C2B69668  11.886   4.979   6.755
11069POPC   C3B69669  11.891   4.950   7.055
11069POPC   C4B69670  11.875   4.938   7.355
11070POPC   NC369671  12.077  17.457   5.555
11070POPC   PO469672  12.053  17.490   5.855
11070POPC   GL169673  12.073  17.511   6.155
11070POPC   GL269674  12.205  17.627   6.155
11070POPC   C1A69675  12.075  17.475   6.455
11070POPC   D2A69676  12.041  17.461   6.755
11070POPC   C3A69677  12.086  17.463   7.055
11070POPC   C4A69678  12.048  17.531   7.355
11070POPC   C1B69679  12.223  17.687   6.455
11070POPC   C2B69680  12.214  17.658   6.755
11070POPC   C3B69681  12.246  17.741   7.055
11070POPC   C4B69682  12.210  17.740   7.355
11071POPC   NC369683  32.256   0.408   5.555
11071POPC   PO469684  32.254   0.478   5.855
11071POPC   GL169685  32.221   0.474   6.155
11071POPC   GL269686  32.172   0.492   6.155
11071POPC   C1A69687  32.243   0.389   6.455
11071POPC   D2A69688  32.216   0.435   6.755
11071POPC   C3A69689  32.254   0.450   7.055
11071POPC   C4A69690  32.273   0.471   7.355
11071POPC   C1B69691  32.049   0.657   6.455
11071POPC   C2B69692  32.120   0.656   6.755
11071POPC   C3B69693  32.040   0.579   7.055
11071POPC   C4B69694  32.070   0.584   7.355
11072POPC   NC369695  15.223  13.635   5.555
11072POPC   PO469696  15.208  13.633   5.855
11072POPC   GL169697  15.219  13.667   6.155
11072POPC   GL269698  15.286  13.585   6.155
11072POPC   C1A69699  15.177  13.590   6.455
11072POPC   D2A69700  15.162  13.655   6.755
11072POPC   C3A69701  15.145  13.624   7.055
11072POPC   C4A69702  15.213  13.628   7.355
11072POPC   C1B69703  15.352  13.468   6.455
11072POPC   C2B69704  15.369  13.521   6.755
11072POPC   C3B69705  15.355  13.517   7.055
11072POPC   C4B69706  15.401  13.517   7.355
11073POPC   NC369707   0.477  21.367   5.555
11073POPC   PO469708   0.447  21.356   5.855
11073POPC   GL169709   0.398  21.431   6.155
11073POPC   GL269710   0.353  21.355   6.155
11073POPC   C1A69711   0.396  21.431   6.455
11073POPC   D2A69712   0.390  21.372   6.755
11073POPC   C3A69713   0.400  21.420   7.055
11073POPC   C4A69714   0.408  21.357   7.355
11073POPC   C1B69715   0.231  21.285   6.455
11073POPC   C2B69716   0.234  21.236   6.755
11073POPC   C3B69717   0.190  21.272   7.055
11073POPC   C4B69718   0.232  21.263   7.355
11074POPC   NC369719  44.641  32.290   5.555
11074POPC   PO469720  44.650  32.204   5.855
11074POPC   GL169721  44.616  32.288   6.155
11074POPC   GL269722  44.512  32.277   6.155
11074POPC   C1A69723  44.620  32.280   6.455
11074POPC   D2A69724  44.614  32.261   6.755
11074POPC   C3A69725  44.709  32.279   7.055
11074POPC   C4A69726  44.659  32.284   7.355
11074POPC   C1B69727  44.384  32.332   6.455
11074POPC   C2B69728  44.432  32.297   6.755
11074POPC   C3B69729  44.473  32.316   7.055
11074POPC   C4B69730  44.388  32.308   7.355
11075POPC   NC369731  33.771  39.962   5.555
11075POPC   PO469732  33.806  39.969   5.855
11075POPC   GL169733  33.760  40.023   6.155
11075POPC   GL269734  33.731  40.077   6.155
11075POPC   C1A69735  33.780  39.973   6.455
11075POPC   D2A69736  33.838  40.042   6.755
11075POPC   C3A69737  33.787  39.970   7.055
11075POPC   C4A69738  33.772  39.989   7.355
11075POPC   C1B69739  33.538  40.054   6.455
11075POPC   C2B69740  33.615  40.076   6.755
11075POPC   C3B69741  33.540  40.061   7.055
11075POPC   C4B69742  33.583  40.116   7.355
11076POPC   NC369743  33.801  19.857   5.555
11076POPC   PO469744  33.776  19.880   5.855
11076POPC   GL169745  33.848  19.824   6.155
11076POPC   GL269746  33.844  19.941   6.155
11076POPC   C1A69747  33.752  19.857   6.455
11076POPC   D2A69748  33.776  19.803   6.755
11076POPC   C3A69749  33.764  19.854   7.055
11076POPC   C4A69750  33.769  19.845   7.355
11076POPC   C1B69751  33.954  19.995   6.455
11076POPC   C2B69752  33.916  20.014   6.755
11076POPC   C3B69753  33.938  19.979   7.055
11076POPC   C4B69754  33.996  20.064   7.355
11077POPC   NC369755   9.756  40.031   5.555
11077POPC   PO469756   9.749  40.008   5.855
11077POPC   GL169757   9.748  39.993   6.155
11077POPC   GL269758   9.848  40.001   6.155
11077POPC   C1A69759   9.781  39.958   6.455
11077POPC   D2A69760   9.740  40.010   6.755
11077POPC   C3A69761   9.750  39.957   7.055
11077POPC   C4A69762   9.751  40.037   7.355
11077POPC   C1B69763   9.935  39.869   6.455
11077POPC   C2B69764   9.929  39.878   6.755
11077POPC   C3B69765   9.943  39.894   7.055
11077POPC   C4B69766   9.956  39.878   7.355
11078POPC   NC369767   7.441   9.714   5.555
11078POPC   PO469768   7.466   9.755   5.855
11078POPC   GL169769   7.380   9.776   6.155
11078POPC   GL269770   7.331   9.813   6.155
11078POPC   C1A69771   7.458   9.712   6.455
11078POPC   D2A69772   7.464   9.706   6.755
11078POPC   C3A69773   7.401   9.783   7.055
11078POPC   C4A69774   7.416   9.723   7.355
11078POPC   C1B69775   7.156   9.829   6.455
11078POPC   C2B69776   7.174   9.875   6.755
11078POPC   C3B69777   7.162   9.842   7.055
11078POPC   C4B69778   7.172   9.822   7.355
11079POPC   NC369779  12.125  39.206   5.555
11079POPC   PO469780  12.043  39.182   5.855
11079POPC   GL169781  12.090  39.273   6.155
11079POPC   GL269782  12.007  39.156   6.155
11079POPC   C1A69783  12.049  39.208   6.455
11079POPC   D2A69784  12.116  39.228   6.755
11079POPC   C3A69785  12.098  39.250   7.055
11079POPC   C4A69786  12.038  39.255   7.355
11079POPC   C1B69787  12.061  38.952   6.455
11079POPC   C2B69788  12.040  38.939   6.755
11079POPC   C3B69789  12.019  39.023   7.055
11079POPC   C4B69790  12.039  39.015   7.355
11080POPC   NC369791  36.854  25.246   5.555
11080POPC   PO469792  36.879  25.244   5.855
11080POPC   GL169793  36.937  25.312   6.155
11080POPC   GL269794  37.042  25.347   6.155
11080POPC   C1A69795  36.917  25.247   6.455
11080POPC   D2A69796  36.877  25.218   6.755
11080POPC   C3A69797  36.909  25.300   7.055
11080POPC   C4A69798  36.868  25.248   7.355
11080POPC   C1B69799  37.106  25.362   6.455
11080POPC   C2B69800  37.102  25.345   6.755
11080POPC   C3B69801  37.068  25.405   7.055
11080POPC   C4B69802  37.141  25.425   7.355
11081POPC   NC369803  19.829  29.957   5.555
11081POPC   PO469804  19.837  29.912   5.855
11081POPC   GL169805  19.810  29.887   6.155
11081POPC   GL269806  19.736  29.791   6.155
11081POPC   C1A69807  19.786  29.874   6.455
11081POPC   D2A69808  19.864  29.906   6.755
11081POPC   C3A69809  19.878  29.951   7.055
11081POPC   C4A69810  19.866  29.897   7.355
11081POPC   C1B69811  19.723  29.720   6.455
11081POPC   C2B69812  19.670  29.714   6.755
11081POPC   C3B69813  19.660  29.718   7.055
11081POPC   C4B69814  19.679  29.763   7.355
11082POPC   NC369815  37.700  24.475   5.555
11082POPC   PO469816  37.639  24.519   5.855
11082POPC   GL169817  37.659  24.524   6.155
11082POPC   GL269818  37.604  24.480   6.155
11082POPC   C1A69819  37.671  24.485   6.455
11082POPC   D2A69820  37.680  24.487   6.755
11082POPC   C3A69821  37.645  24.450   7.055
11082POPC   C4A69822  37.646  24.451   7.355
11082POPC   C1B69823  37.450  24.441   6.455
11082POPC   C2B69824  37.394  24.387   6.755
11082POPC   C3B69825  37.432  24.452   7.055
11082POPC   C4B69826  37.407  24.381   7.355
11083POPC   NC369827  41.513   2.787   5.555
11083POPC   PO469828  41.514   2.784   5.855
11083POPC   GL169829  41.540   2.803   6.155
11083POPC   GL269830  41.605   2.875   6.155
11083POPC   C1A69831  41.556   2.799   6.455
11083POPC   D2A69832  41.575   2.801   6.755
11083POPC   C3A69833  41.604   2.802   7.055
11083POPC   C4A69834  41.537   2.802   7.355
11083POPC   C1B69835  41.700   3.003   6.455
11083POPC   C2B69836  41.630   2.982   6.755
11083POPC   C3B69837  41.685   2.960   7.055
11083POPC   C4B69838  41.634   2.984   7.355
11084POPC   NC369839  36.911  23.749   5.555
11084POPC   PO469840  36.926  23.734   5.855
11084POPC   GL169841  36.921  23.701   6.155
11084POPC   GL269842  37.041  23.753   6.155
11084POPC   C1A69843  36.904  23.726   6.455
11084POPC   D2A69844  36.925  23.751   6.755
11084POPC   C3A69845  36.925  23.681   7.055
11084POPC   C4A69846  36.931  23.696   7.355
11084POPC   C1B69847  37.173  23.834   6.455
11084POPC   C2B69848  37.149  23.829   6.755
11084POPC   C3B69849  37.144  23.861   7.055
11084POPC   C4B69850  37.154  23.829   7.355
11085POPC   NC369851   0.450  29.900   5.555
11085POPC   PO469852   0.455  29.954   5.855
11085POPC   GL169853   0.453  29.893   6.155
11085POPC   GL269854   0.416  29.753   6.155
11085POPC   C1A69855   0.412  29.970   6.455
11085POPC   D2A69856   0.455  29.897   6.755
11085POPC   C3A69857   0.453  29.913   7.055
11085POPC   C4A69858   0.457  29.941   7.355
11085POPC   C1B69859   0.500  29.696   6.455
11085POPC   C2B69860   0.443  29.688   6.755
11085POPC   C3B69861   0.539  29.664   7.055
11085POPC   C4B69862   0.481  29.719   7.355
11086POPC   NC369863  38.462   7.384   5.555
11086POPC   PO469864  38.495   7.462   5.855
11086POPC   GL169865  38.467   7.429   6.155
11086POPC   GL269866  38.379   7.333   6.155
11086POPC   C1A69867  38.497   7.470   6.455
11086POPC   D2A69868  38.487   7.460   6.755
11086POPC   C3A69869  38.448   7.382   7.055
11086POPC   C4A69870  38.468   7.384   7.355
11086POPC   C1B69871  38.381   7.171   6.455
11086POPC   C2B69872  38.334   7.177   6.755
11086POPC   C3B69873  38.361   7.157   7.055
11086POPC   C4B69874  38.331   7.203   7.355
11087POPC   NC369875  10.552  21.409   5.555
11087POPC   PO469876  10.548  21.400   5.855
11087POPC   GL169877  10.479  21.377   6.155
11087POPC   GL269878  10.685  21.377   6.155
11087POPC   C1A69879  10.499  21.375   6.455
11087POPC   D2A69880  10.519  21.406   6.755
11087POPC   C3A69881  10.560  21.417   7.055
11087POPC   C4A69882  10.527  21.356   7.355
11087POPC   C1B69883  10.746  21.443   6.455
11087POPC   C2B69884  10.752  21.389   6.755
11087POPC   C3B69885  10.817  21.380   7.055
11087POPC   C4B69886  10.733  21.409   7.355
11088POPC   NC369887  44.700  33.787   5.555
11088POPC   PO469888  44.710  33.787   5.855
11088POPC   GL169889  44.643  33.822   6.155
11088POPC   GL269890  44.670  33.950   6.155
11088POPC   C1A69891  44.684  33.763   6.455
11088POPC   D2A69892  44.695  33.803   6.755
11088POPC   C3A69893  44.623  33.764   7.055
11088POPC   C4A69894  44.671  33.769   7.355
11088POPC   C1B69895  44.782  33.993   6.455
11088POPC   C2B69896  44.726  34.019   6.755
11088POPC   C3B69897  44.814  34.029   7.055
11088POPC   C4B69898  44.811  34.069   7.355
11089POPC   NC369899  44.626  20.638   5.555
11089POPC   PO469900  44.618  20.568   5.855
11089POPC   GL169901  44.617  20.622   6.155
11089POPC   GL269902  44.788  20.724   6.155
11089POPC   C1A69903  44.681  20.642   6.455
11089POPC   D2A69904  44.659  20.562   6.755
11089POPC   C3A69905  44.612  20.589   7.055
11089POPC   C4A69906  44.613  20.656   7.355
11089POPC   C1B69907  44.793  20.767   6.455
11089POPC   C2B69908  44.794  20.757   6.755
11089POPC   C3B69909  44.870  20.810   7.055
11089POPC   C4B69910  44.888  20.794   7.355
11090POPC   NC369911  29.970  12.888   5.555
11090POPC   PO469912  29.873  12.895   5.855
11090POPC   GL169913  29.939  12.878   6.155
11090POPC   GL269914  29.821  12.929   6.155
11090POPC   C1A69915  29.924  12.856   6.455
11090POPC   D2A69916  29.876  12.812   6.755
11090POPC   C3A69917  29.924  12.828   7.055
11090POPC   C4A69918  29.967  12.845   7.355
11090POPC   C1B69919  29.791  13.040   6.455
11090POPC   C2B69920  29.817  13.026   6.755
11090POPC   C3B69921  29.766  13.038   7.055
11090POPC   C4B69922  29.810  13.044   7.355
11091POPC   NC369923  15.161  23.722   5.555
11091POPC   PO469924  15.213  23.697   5.855
11091POPC   GL169925  15.209  23.695   6.155
11091POPC   GL269926  15.299  23.726   6.155
11091POPC   C1A69927  15.151  23.706   6.455
11091POPC   D2A69928  15.174  23.689   6.755
11091POPC   C3A69929  15.199  23.671   7.055
11091POPC   C4A69930  15.140  23.741   7.355
11091POPC   C1B69931  15.445  23.812   6.455
11091POPC   C2B69932  15.378  23.817   6.755
11091POPC   C3B69933  15.418  23.777   7.055
11091POPC   C4B69934  15.428  23.825   7.355
11092POPC   NC369935  37.717  31.455   5.555
11092POPC   PO469936  37.697  31.448   5.855
11092POPC   GL169937  37.643  31.473   6.155
11092POPC   GL269938  37.620  31.551   6.155
11092POPC   C1A69939  37.635  31.501   6.455
11092POPC   D2A69940  37.699  31.475   6.755
11092POPC   C3A69941  37.642  31.474   7.055
11092POPC   C4A69942  37.675  31.507   7.355
11092POPC   C1B69943  37.571  31.691   6.455
11092POPC   C2B69944  37.530  31.659   6.755
11092POPC   C3B69945  37.497  31.640   7.055
11092POPC   C4B69946  37.585  31.720   7.355
11093POPC   NC369947   5.072  32.278   5.555
11093POPC   PO469948   5.132  32.224   5.855
11093POPC   GL169949   5.120  32.262   6.155
11093POPC   GL269950   5.136  32.324   6.155
11093POPC   C1A69951   5.102  32.224   6.455
11093POPC   D2A69952   5.131  32.265   6.755
11093POPC   C3A69953   5.134  32.229   7.055
11093POPC   C4A69954   5.094  32.226   7.355
11093POPC   C1B69955   5.124  32.470   6.455
11093POPC   C2B69956   5.051  32.474   6.755
11093POPC   C3B69957   5.040  32.530   7.055
11093POPC   C4B69958   5.044  32.527   7.355
11094POPC   NC369959  41.591  13.629   5.555
11094POPC   PO469960  41.592  13.660   5.855
11094POPC   GL169961  41.510  13.634   6.155
11094POPC   GL269962  41.482  13.503   6.155
11094POPC   C1A69963  41.590  13.596   6.455
11094POPC   D2A69964  41.565  13.656   6.755
11094POPC   C3A69965  41.570  13.582   7.055
11094POPC   C4A69966  41.525  13.669   7.355
11094POPC   C1B69967  41.335  13.488   6.455
11094POPC   C2B69968  41.393  13.500   6.755
11094POPC   C3B69969  41.412  13.498   7.055
11094POPC   C4B69970  41.321  13.429   7.355
11095POPC   NC369971  23.669  42.351   5.555
11095POPC   PO469972  23.679  42.294   5.855
11095POPC   GL169973  23.681  42.318   6.155
11095POPC   GL269974  23.802  42.370   6.155
11095POPC   C1A69975  23.680  42.374   6.455
11095POPC   D2A69976  23.714  42.298   6.755
11095POPC   C3A69977  23.758  42.315   7.055
11095POPC   C4A69978  23.755  42.370   7.355
11095POPC   C1B69979  23.926  42.465   6.455
11095POPC   C2B69980  23.890  42.511   6.755
11095POPC   C3B69981  23.887  42.534   7.055
11095POPC   C4B69982  23.957  42.489   7.355
11096POPC   NC369983  37.678   2.733   5.555
11096POPC   PO469984  37.646   2.719   5.855
11096POPC   GL169985  37.698   2.780   6.155
11096POPC   GL269986  37.786   2.773   6.155
11096POPC   C1A69987  37.673   2.772   6.455
11096POPC   D2A69988  37.720   2.720   6.755
11096POPC   C3A69989  37.692   2.804   7.055
11096POPC   C4A69990  37.636   2.790   7.355
11096POPC   C1B69991  37.924   2.903   6.455
11096POPC   C2B69992  37.949   2.914   6.755
11096POPC   C3B69993  37.884   2.920   7.055
11096POPC   C4B69994  37.904   2.832   7.355
11097POPC   NC369995   9.766   1.233   5.555
11097POPC   PO469996   9.766   1.222   5.855
11097POPC   GL169997   9.705   1.199   6.155
11097POPC   GL269998   9.891   1.226   6.155
11097POPC   C1A69999   9.735   1.191   6.455
11097POPC   D2A70000   9.727   1.198   6.755
11097POPC   C3A70001   9.779   1.188   7.055
11097POPC   C4A70002   9.742   1.190   7.355
11097POPC   C1B70003  10.018   1.217   6.455
11097POPC   C2B70004  10.005   1.144   6.755
11097POPC   C3B70005   9.950   1.203   7.055
11097POPC   C4B70006  10.046   1.230   7.355
11098POPC   NC370007  16.776  33.054   5.555
11098POPC   PO470008  16.713  33.026   5.855
11098POPC   GL170009  16.726  33.001   6.155
11098POPC   GL270010  16.675  33.141   6.155
11098POPC   C1A70011  16.711  33.042   6.455
11098POPC   D2A70012  16.684  33.003   6.755
11098POPC   C3A70013  16.773  33.067   7.055
11098POPC   C4A70014  16.703  33.039   7.355
11098POPC   C1B70015  16.664  33.220   6.455
11098POPC   C2B70016  16.628  33.221   6.755
11098POPC   C3B70017  16.638  33.306   7.055
11098POPC   C4B70018  16.620  33.213   7.355
11099POPC   NC370019   8.974  40.759   5.555
11099POPC   PO470020   8.967  40.738   5.855
11099POPC   GL170021   8.984  40.757   6.155
11099POPC   GL270022   8.907  40.657   6.155
11099POPC   C1A70023   8.942  40.783   6.455
11099POPC   D2A70024   8.983  40.822   6.755
11099POPC   C3A70025   8.991  40.829   7.055
11099POPC   C4A70026   8.985  40.805   7.355
11099POPC   C1B70027   8.807  40.595   6.455
11099POPC   C2B70028   8.848  40.586   6.755
11099POPC   C3B70029   8.814  40.623   7.055
11099POPC   C4B70030   8.785  40.602   7.355
11100POPC   NC370031  11.251  36.909   5.555
11100POPC   PO470032  11.258  36.928   5.855
11100POPC   GL170033  11.326  36.897   6.155
11100POPC   GL270034  11.225  36.834   6.155
11100POPC   C1A70035  11.332  36.887   6.455
11100POPC   D2A70036  11.286  36.938   6.755
11100POPC   C3A70037  11.258  36.908   7.055
11100POPC   C4A70038  11.339  36.931   7.355
11100POPC   C1B70039  11.060  36.782   6.455
11100POPC   C2B70040  11.058  36.779   6.755
11100POPC   C3B70041  11.072  36.799   7.055
11100POPC   C4B70042  11.117  36.817   7.355
11101POPC   NC370043  34.557  33.816   5.555
11101POPC   PO470044  34.597  33.824   5.855
11101POPC   GL170045  34.577  33.753   6.155
11101POPC   GL270046  34.464  33.869   6.155
11101POPC   C1A70047  34.575  33.833   6.455
11101POPC   D2A70048  34.619  33.842   6.755
11101POPC   C3A70049  34.546  33.770   7.055
11101POPC   C4A70050  34.592  33.797   7.355
11101POPC   C1B70051  34.346  33.967   6.455
11101POPC   C2B70052  34.352  33.901   6.755
11101POPC   C3B70053  34.384  33.930   7.055
11101POPC   C4B70054  34.388  33.926   7.355
11102POPC   NC370055  13.628  20.620   5.555
11102POPC   PO470056  13.661  20.585   5.855
11102POPC   GL170057  13.628  20.570   6.155
11102POPC   GL270058  13.694  20.515   6.155
11102POPC   C1A70059  13.596  20.562   6.455
11102POPC   D2A70060  13.598  20.587   6.755
11102POPC   C3A70061  13.668  20.605   7.055
11102POPC   C4A70062  13.676  20.599   7.355
11102POPC   C1B70063  13.781  20.464   6.455
11102POPC   C2B70064  13.848  20.422   6.755
11102POPC   C3B70065  13.847  20.449   7.055
11102POPC   C4B70066  13.791  20.387   7.355
11103POPC   NC370067  40.796   6.609   5.555
11103POPC   PO470068  40.805   6.614   5.855
11103POPC   GL170069  40.765   6.648   6.155
11103POPC   GL270070  40.739   6.573   6.155
11103POPC   C1A70071  40.824   6.689   6.455
11103POPC   D2A70072  40.828   6.647   6.755
11103POPC   C3A70073  40.824   6.689   7.055
11103POPC   C4A70074  40.832   6.646   7.355
11103POPC   C1B70075  40.644   6.401   6.455
11103POPC   C2B70076  40.686   6.406   6.755
11103POPC   C3B70077  40.655   6.373   7.055
11103POPC   C4B70078  40.720   6.417   7.355
11104POPC   NC370079  32.989   2.018   5.555
11104POPC   PO470080  33.009   1.968   5.855
11104POPC   GL170081  33.039   1.981   6.155
11104POPC   GL270082  32.890   1.904   6.155
11104POPC   C1A70083  33.031   2.023   6.455
11104POPC   D2A70084  33.043   2.000   6.755
11104POPC   C3A70085  33.031   2.004   7.055
11104POPC   C4A70086  33.011   1.976   7.355
11104POPC   C1B70087  32.852   1.829   6.455
11104POPC   C2B70088  32.787   1.901   6.755
11104POPC   C3B70089  32.777   1.894   7.055
11104POPC   C4B70090  32.811   1.852   7.355
11105POPC   NC370091  31.458  21.350   5.555
11105POPC   PO470092  31.423  21.350   5.855
11105POPC   GL170093  31.447  21.339   6.155
11105POPC   GL270094  31.384  21.484   6.155
11105POPC   C1A70095  31.499  21.420   6.455
11105POPC   D2A70096  31.519  21.338   6.755
11105POPC   C3A70097  31.476  21.429   7.055
11105POPC   C4A70098  31.472  21.358   7.355
11105POPC   C1B70099  31.210  21.489   6.455
11105POPC   C2B70100  31.210  21.522   6.755
11105POPC   C3B70101  31.251  21.459   7.055
11105POPC   C4B70102  31.206  21.493   7.355
11106POPC   NC370103  22.181  28.366   5.555
11106POPC   PO470104  22.113  28.327   5.855
11106POPC   GL170105  22.130  28.388   6.155
11106POPC   GL270106  22.324  28.386   6.155
11106POPC   C1A70107  22.197  28.383   6.455
11106POPC   D2A70108  22.151  28.325   6.755
11106POPC   C3A70109  22.200  28.347   7.055
11106POPC   C4A70110  22.174  28.416   7.355
11106POPC   C1B70111  22.438  28.465   6.455
11106POPC   C2B70112  22.423  28.466   6.755
11106POPC   C3B70113  22.407  28.455   7.055
11106POPC   C4B70114  22.415  28.426   7.355
11107POPC   NC370115   9.768  16.755   5.555
11107POPC   PO470116   9.785  16.748   5.855
11107POPC   GL170117   9.707  16.769   6.155
11107POPC   GL270118   9.653  16.619   6.155
11107POPC   C1A70119   9.751  16.717   6.455
11107POPC   D2A70120   9.701  16.762   6.755
11107POPC   C3A70121   9.777  16.695   7.055
11107POPC   C4A70122   9.737  16.748   7.355
11107POPC   C1B70123   9.530  16.573   6.455
11107POPC   C2B70124   9.531  16.529   6.755
11107POPC   C3B70125   9.609  16.551   7.055
11107POPC   C4B70126   9.550  16.578   7.355
11108POPC   NC370127   0.480  41.554   5.555
11108POPC   PO470128   0.471  41.522   5.855
11108POPC   GL170129   0.413  41.535   6.155
11108POPC   GL270130   0.474  41.728   6.155
11108POPC   C1A70131   0.472  41.519   6.455
11108POPC   D2A70132   0.439  41.512   6.755
11108POPC   C3A70133   0.435  41.567   7.055
11108POPC   C4A70134   0.468  41.547   7.355
11108POPC   C1B70135   0.488  41.759   6.455
11108POPC   C2B70136   0.506  41.785   6.755
11108POPC   C3B70137   0.494  41.796   7.055
11108POPC   C4B70138   0.450  41.763   7.355
11109POPC   NC370139   2.803  35.336   5.555
11109POPC   PO470140   2.753  35.384   5.855
11109POPC   GL170141   2.794  35.354   6.155
11109POPC   GL270142   2.689  35.292   6.155
11109POPC   C1A70143   2.782  35.327   6.455
11109POPC   D2A70144   2.764  35.364   6.755
11109POPC   C3A70145   2.796  35.366   7.055
11109POPC   C4A70146   2.759  35.321   7.355
11109POPC   C1B70147   2.585  35.243   6.455
11109POPC   C2B70148   2.529  35.248   6.755
11109POPC   C3B70149   2.584  35.298   7.055
11109POPC   C4B70150   2.582  35.297   7.355
11110POPC   NC370151  24.487  42.314   5.555
11110POPC   PO470152  24.512  42.326   5.855
11110POPC   GL170153  24.460  42.317   6.155
11110POPC   GL270154  24.341  42.320   6.155
11110POPC   C1A70155  24.519  42.292   6.455
11110POPC   D2A70156  24.463  42.379   6.755
11110POPC   C3A70157  24.535  42.365   7.055
11110POPC   C4A70158  24.458  42.314   7.355
11110POPC   C1B70159  24.288  42.259   6.455
11110POPC   C2B70160  24.240  42.258   6.755
11110POPC   C3B70161  24.307  42.252   7.055
11110POPC   C4B70162  24.302  42.189   7.355
11111POPC   NC370163  29.095  22.114   5.555
11111POPC   PO470164  29.100  22.161   5.855
11111POPC   GL170165  29.116  22.124   6.155
11111POPC   GL270166  29.051  22.024   6.155
11111POPC   C1A70167  29.189  22.116   6.455
11111POPC   D2A70168  29.148  22.171   6.755
11111POPC   C3A70169  29.104  22.209   7.055
11111POPC   C4A70170  29.188  22.186   7.355
11111POPC   C1B70171  28.995  21.929   6.455
11111POPC   C2B70172  29.064  21.971   6.755
11111POPC   C3B70173  29.023  21.912   7.055
11111POPC   C4B70174  29.042  21.918   7.355
11112POPC   NC370175  22.191  30.739   5.555
11112POPC   PO470176  22.184  30.679   5.855
11112POPC   GL170177  22.135  30.658   6.155
11112POPC   GL270178  22.077  30.779   6.155
11112POPC   C1A70179  22.192  30.679   6.455
11112POPC   D2A70180  22.173  30.746   6.755
11112POPC   C3A70181  22.143  30.726   7.055
11112POPC   C4A70182  22.135  30.670   7.355
11112POPC   C1B70183  21.939  30.842   6.455
11112POPC   C2B70184  21.917  30.814   6.755
11112POPC   C3B70185  21.896  30.827   7.055
11112POPC   C4B70186  21.956  30.777   7.355
11113POPC   NC370187  31.516  29.107   5.555
11113POPC   PO470188  31.507  29.121   5.855
11113POPC   GL170189  31.511  29.154   6.155
11113POPC   GL270190  31.615  29.209   6.155
11113POPC   C1A70191  31.477  29.188   6.455
11113POPC   D2A70192  31.437  29.147   6.755
11113POPC   C3A70193  31.435  29.132   7.055
11113POPC   C4A70194  31.512  29.188   7.355
11113POPC   C1B70195  31.677  29.179   6.455
11113POPC   C2B70196  31.704  29.223   6.755
11113POPC   C3B70197  31.677  29.248   7.055
11113POPC   C4B70198  31.717  29.175   7.355
11114POPC   NC370199  20.610  42.352   5.555
11114POPC   PO470200  20.649  42.348   5.855
11114POPC   GL170201  20.632  42.350   6.155
11114POPC   GL270202  20.604  42.449   6.155
11114POPC   C1A70203  20.591  42.378   6.455
11114POPC   D2A70204  20.584  42.297   6.755
11114POPC   C3A70205  20.595  42.342   7.055
11114POPC   C4A70206  20.618  42.311   7.355
11114POPC   C1B70207  20.551  42.554   6.455
11114POPC   C2B70208  20.559  42.590   6.755
11114POPC   C3B70209  20.506  42.528   7.055
11114POPC   C4B70210  20.492  42.577   7.355
11115POPC   NC370211  10.569   7.427   5.555
11115POPC   PO470212  10.560   7.399   5.855
11115POPC   GL170213  10.510   7.417   6.155
11115POPC   GL270214  10.565   7.318   6.155
11115POPC   C1A70215  10.573   7.419   6.455
11115POPC   D2A70216  10.546   7.433   6.755
11115POPC   C3A70217  10.486   7.384   7.055
11115POPC   C4A70218  10.503   7.425   7.355
11115POPC   C1B70219  10.663   7.259   6.455
11115POPC   C2B70220  10.633   7.187   6.755
11115POPC   C3B70221  10.678   7.217   7.055
11115POPC   C4B70222  10.710   7.213   7.355
11116POPC   NC370223  18.257   1.944   5.555
11116POPC   PO470224  18.238   2.018   5.855
11116POPC   GL170225  18.321   1.967   6.155
11116POPC   GL270226  18.136   1.878   6.155
11116POPC   C1A70227  18.262   1.997   6.455
11116POPC   D2A70228  18.254   2.018   6.755
11116POPC   C3A70229  18.243   2.035   7.055
11116POPC   C4A70230  18.261   2.012   7.355
11116POPC   C1B70231  18.031   1.818   6.455
11116POPC   C2B70232  18.029   1.829   6.755
11116POPC   C3B70233  18.083   1.866   7.055
11116POPC   C4B70234  18.026   1.906   7.355
11117POPC   NC370235  11.350   5.890   5.555
11117POPC   PO470236  11.291   5.852   5.855
11117POPC   GL170237  11.332   5.833   6.155
11117POPC   GL270238  11.227   5.899   6.155
11117POPC   C1A70239  11.267   5.865   6.455
11117POPC   D2A70240  11.326   5.878   6.755
11117POPC   C3A70241  11.267   5.858   7.055
11117POPC   C4A70242  11.308   5.860   7.355
11117POPC   C1B70243  11.092   5.971   6.455
11117POPC   C2B70244  11.065   6.017   6.755
11117POPC   C3B70245  11.097   5.996   7.055
11117POPC   C4B70246  11.107   6.027   7.355
11118POPC   NC370247  12.078  38.497   5.555
11118POPC   PO470248  12.090  38.415   5.855
11118POPC   GL170249  12.049  38.408   6.155
11118POPC   GL270250  12.166  38.310   6.155
11118POPC   C1A70251  12.106  38.437   6.455
11118POPC   D2A70252  12.113  38.474   6.755
11118POPC   C3A70253  12.034  38.421   7.055
11118POPC   C4A70254  12.098  38.487   7.355
11118POPC   C1B70255  12.196  38.282   6.455
11118POPC   C2B70256  12.193  38.258   6.755
11118POPC   C3B70257  12.209  38.251   7.055
11118POPC   C4B70258  12.241  38.274   7.355
11119POPC   NC370259  12.070  16.711   5.555
11119POPC   PO470260  12.099  16.776   5.855
11119POPC   GL170261  12.090  16.700   6.155
11119POPC   GL270262  12.185  16.665   6.155
11119POPC   C1A70263  12.063  16.698   6.455
11119POPC   D2A70264  12.124  16.715   6.755
11119POPC   C3A70265  12.050  16.745   7.055
11119POPC   C4A70266  12.118  16.770   7.355
11119POPC   C1B70267  12.335  16.631   6.455
11119POPC   C2B70268  12.289  16.605   6.755
11119POPC   C3B70269  12.302  16.582   7.055
11119POPC   C4B70270  12.344  16.580   7.355
11120POPC   NC370271  19.030  12.871   5.555
11120POPC   PO470272  19.022  12.803   5.855
11120POPC   GL170273  19.038  12.837   6.155
11120POPC   GL270274  19.063  12.723   6.155
11120POPC   C1A70275  19.041  12.812   6.455
11120POPC   D2A70276  19.010  12.864   6.755
11120POPC   C3A70277  19.025  12.875   7.055
11120POPC   C4A70278  19.108  12.839   7.355
11120POPC   C1B70279  19.111  12.578   6.455
11120POPC   C2B70280  19.056  12.572   6.755
11120POPC   C3B70281  19.115  12.650   7.055
11120POPC   C4B70282  19.076  12.587   7.355
11121POPC   NC370283  38.473  41.601   5.555
11121POPC   PO470284  38.409  41.544   5.855
11121POPC   GL170285  38.502  41.537   6.155
11121POPC   GL270286  38.569  41.693   6.155
11121POPC   C1A70287  38.484  41.571   6.455
11121POPC   D2A70288  38.441  41.584   6.755
11121POPC   C3A70289  38.451  41.522   7.055
11121POPC   C4A70290  38.502  41.600   7.355
11121POPC   C1B70291  38.631  41.736   6.455
11121POPC   C2B70292  38.577  41.796   6.755
11121POPC   C3B70293  38.561  41.743   7.055
11121POPC   C4B70294  38.613  41.803   7.355
11122POPC   NC370295  31.471   1.205   5.555
11122POPC   PO470296  31.451   1.239   5.855
11122POPC   GL170297  31.506   1.206   6.155
11122POPC   GL270298  31.506   1.365   6.155
11122POPC   C1A70299  31.518   1.261   6.455
11122POPC   D2A70300  31.507   1.229   6.755
11122POPC   C3A70301  31.469   1.194   7.055
11122POPC   C4A70302  31.473   1.230   7.355
11122POPC   C1B70303  31.412   1.492   6.455
11122POPC   C2B70304  31.441   1.477   6.755
11122POPC   C3B70305  31.474   1.461   7.055
11122POPC   C4B70306  31.471   1.424   7.355
11123POPC   NC370307   8.242  36.167   5.555
11123POPC   PO470308   8.150  36.149   5.855
11123POPC   GL170309   8.191  36.101   6.155
11123POPC   GL270310   8.257  36.017   6.155
11123POPC   C1A70311   8.183  36.156   6.455
11123POPC   D2A70312   8.149  36.152   6.755
11123POPC   C3A70313   8.169  36.106   7.055
11123POPC   C4A70314   8.149  36.133   7.355
11123POPC   C1B70315   8.384  35.916   6.455
11123POPC   C2B70316   8.343  35.959   6.755
11123POPC   C3B70317   8.351  35.977   7.055
11123POPC   C4B70318   8.388  35.936   7.355
11124POPC   NC370319  19.836   0.396   5.555
11124POPC   PO470320  19.880   0.424   5.855
11124POPC   GL170321  19.871   0.403   6.155
11124POPC   GL270322  19.936   0.393   6.155
11124POPC   C1A70323  19.849   0.432   6.455
11124POPC   D2A70324  19.785   0.469   6.755
11124POPC   C3A70325  19.859   0.388   7.055
11124POPC   C4A70326  19.798   0.414   7.355
11124POPC   C1B70327  20.047   0.310   6.455
11124POPC   C2B70328  20.004   0.229   6.755
11124POPC   C3B70329  19.992   0.224   7.055
11124POPC   C4B70330  20.050   0.223   7.355
11125POPC   NC370331  29.185  24.453   5.555
11125POPC   PO470332  29.174  24.507   5.855
11125POPC   GL170333  29.155  24.506   6.155
11125POPC   GL270334  29.142  24.643   6.155
11125POPC   C1A70335  29.139  24.506   6.455
11125POPC   D2A70336  29.105  24.466   6.755
11125POPC   C3A70337  29.099  24.511   7.055
11125POPC   C4A70338  29.190  24.494   7.355
11125POPC   C1B70339  29.093  24.760   6.455
11125POPC   C2B70340  29.038  24.771   6.755
11125POPC   C3B70341  29.091  24.717   7.055
11125POPC   C4B70342  29.021  24.743   7.355
11126POPC   NC370343   1.979  40.816   5.555
11126POPC   PO470344   1.948  40.780   5.855
11126POPC   GL170345   1.961  40.806   6.155
11126POPC   GL270346   2.030  40.850   6.155
11126POPC   C1A70347   2.013  40.831   6.455
11126POPC   D2A70348   2.023  40.737   6.755
11126POPC   C3A70349   1.993  40.753   7.055
11126POPC   C4A70350   2.022  40.789   7.355
11126POPC   C1B70351   2.121  40.962   6.455
11126POPC   C2B70352   2.147  40.995   6.755
11126POPC   C3B70353   2.160  40.959   7.055
11126POPC   C4B70354   2.109  40.991   7.355
11127POPC   NC370355   3.577  18.296   5.555
11127POPC   PO470356   3.583  18.276   5.855
11127POPC   GL170357   3.578  18.247   6.155
11127POPC   GL270358   3.408  18.182   6.155
11127POPC   C1A70359   3.575  18.307   6.455
11127POPC   D2A70360   3.590  18.241   6.755
11127POPC   C3A70361   3.569  18.331   7.055
11127POPC   C4A70362   3.589  18.291   7.355
11127POPC   C1B70363   3.302  18.157   6.455
11127POPC   C2B70364   3.289  18.160   6.755
11127POPC   C3B70365   3.309  18.132   7.055
11127POPC   C4B70366   3.292  18.121   7.355
11128POPC   NC370367  37.689  37.727   5.555
11128POPC   PO470368  37.653  37.643   5.855
11128POPC   GL170369  37.639  37.639   6.155
11128POPC   GL270370  37.757  37.687   6.155
11128POPC   C1A70371  37.656  37.642   6.455
11128POPC   D2A70372  37.664  37.723   6.755
11128POPC   C3A70373  37.692  37.647   7.055
11128POPC   C4A70374  37.658  37.679   7.355
11128POPC   C1B70375  37.912  37.822   6.455
11128POPC   C2B70376  37.938  37.750   6.755
11128POPC   C3B70377  37.927  37.829   7.055
11128POPC   C4B70378  37.912  37.777   7.355
11129POPC   NC370379  22.146  44.697   5.555
11129POPC   PO470380  22.128  44.656   5.855
11129POPC   GL170381  22.168  44.666   6.155
11129POPC   GL270382  22.125  44.559   6.155
11129POPC   C1A70383  22.123  44.712   6.455
11129POPC   D2A70384  22.189  44.700   6.755
11129POPC   C3A70385  22.160  44.669   7.055
11129POPC   C4A70386  22.168  44.622   7.355
11129POPC   C1B70387  21.989  44.422   6.455
11129POPC   C2B70388  21.959  44.466   6.755
11129POPC   C3B70389  22.002  44.475   7.055
11129POPC   C4B70390  21.966  44.458   7.355
11130W        W70391  23.166  17.773  10.616
11131W        W70392  30.601  13.824  13.417
11132W        W70393  22.065  33.957  11.606
11133W        W70394  44.449  22.237  14.912
11134W        W70395  31.058  39.451   0.743
11135W        W70396  36.957  43.940  11.105
11136W        W70397  10.798  39.932  12.451
11137W        W70398  28.513  16.656  13.054
11138W        W70399   1.807  21.733  10.616
11139W        W70400  36.415  21.023  10.102
11140W        W70401   7.207  42.859   4.313
11141W        W70402  26.560  39.066  11.542
11142W        W70403  41.361  37.510  13.063
11143W        W70404  12.298  19.066   2.220
11144W        W70405   1.399  40.326   4.257
11145W        W70406  43.916   5.904  11.079
11146W        W70407  43.461  31.992   3.365
11147W        W70408  43.462  15.793   1.346
11148W        W70409  10.808  11.781  14.348
11149W        W70410   6.896  32.090  11.579
11150W        W70411  21.558  26.984  12.897
11151W        W70412  23.550   9.390   1.286
11152W        W70413  22.736  32.492  14.424
11153W        W70414  20.166   1.239   0.314
11154W        W70415  18.141  44.331   4.298
11155W        W70416  32.605   2.371   0.841
11156W        W70417  42.868  15.654  14.421
11157W        W70418  36.039  40.836  13.790
11158W        W70419   5.292   6.696   0.732
11159W        W70420   5.399  26.005  10.546
11160W        W70421  24.171  15.740  13.959
11161W        W70422   9.328  41.446   2.761
11162W        W70423  23.574  35.991   3.775
11163W        W70424   1.882  33.961   2.736
11164W        W70425  11.738   4.815  11.512
11165W        W70426  30.651   6.818   1.798
11166W        W70427  41.965  11.358   2.697
11167W        W70428   0.454  30.421  10.471
11168W        W70429   8.324  30.100  12.366
11169W        W70430   5.259  30.079  11.568
11170W        W70431  11.636  39.467  14.945
11171W        W70432  14.670  14.276  14.416
11172W        W70433   4.843   3.454  14.792
11173W        W70434  26.963  24.152   3.222
11174W        W70435  35.070   0.781  13.347
11175W        W70436  25.037   5.391  12.046
11176W        W70437  16.076  16.232  11.372
11177W        W70438  28.454  37.843  11.955
11178W        W70439  26.143  35.576  14.976
11179W        W70440  41.889  39.897   0.734
11180W        W70441  32.951  36.569   4.727
11181W        W70442   0.471   7.878   3.634
11182W        W70443  44.482  42.419  14.483
11183W        W70444  32.906   4.411   1.702
11184W        W70445  20.601  43.892   3.273
11185W        W70446  16.587  41.331  12.886
11186W        W70447  19.578  37.499  12.411
11187W        W70448  33.980  23.085   3.357
11188W        W70449  24.207  29.946   1.895
11189W        W70450  38.331  31.599   2.369
11190W        W70451  26.475  35.100  10.533
11191W        W70452  21.702  42.786   4.654
11192W        W70453  14.796  34.008  14.885
11193W        W70454  18.093  12.362  13.996
11194W        W70455  39.939  17.165  12.351
11195W        W70456  20.743  36.031   2.191
11196W        W70457  14.624  40.994  14.922
11197W        W70458  12.158  15.132  14.475
11198W        W70459  39.015  17.205  14.935
11199W        W70460   7.755   9.240   3.645
11200W        W70461   6.321   9.333  13.859
11201W        W70462  13.178  44.867  14.485
11202W        W70463  38.010  16.184  13.051
11203W        W70464  29.027  26.995   3.634
11204W        W70465  23.505   6.725   3.230
11205W        W70466  42.448  12.358   0.794
11206W        W70467   3.214  33.581   1.773
11207W        W70468   5.767  17.281  14.489
11208W        W70469  26.052  20.664   3.325
11209W        W70470  18.548  10.760  11.399
11210W        W70471   3.815  23.701  10.895
11211W        W70472  33.487   5.345   1.841
11212W        W70473  31.137  44.995   4.321
11213W        W70474   5.289  10.671   4.824
11214W        W70475  30.086   5.832  13.392
11215W        W70476  24.986  36.357   3.644
11216W        W70477  25.487  23.204   0.929
11217W        W70478   0.783  25.070  10.889
11218W        W70479  44.372  33.458  12.408
11219W        W70480  30.659  13.785  12.374
11220W        W70481  10.809  37.428  10.522
11221W        W70482  35.896  16.237   1.920
11222W        W70483  21.593  39.524  13.994
11223W        W70484  18.553  14.769  11.540
11224W        W70485  19.089   7.793  14.876
11225W        W70486  43.497  41.892   4.766
11226W        W70487   4.868   4.450   3.772
11227W        W70488  24.219   5.894   3.191
11228W        W70489  44.320  23.517   2.328
11229W        W70490   3.326   7.375   2.265
11230W        W70491  38.469  27.567  13.451
11231W        W70492  10.661  29.968   3.254
11232W        W70493   0.906  21.161   3.717
11233W        W70494  41.527  40.809  12.981
11234W        W70495  30.163  19.600   2.851
11235W        W70496  23.607   7.728  14.330
11236W        W70497  29.994   2.917   3.293
11237W        W70498  32.995  17.094  14.452
11238W        W70499  40.836   3.409  14.478
11239W        W70500  10.321   7.766  14.462
11240W        W70501  21.146   1.785   3.632
11241W        W70502  18.154   3.449  13.494
11242W        W70503   9.220   4.302   3.345
11243W        W70504   8.707  22.719   0.412
11244W        W70505  22.051  15.098  12.567
11245W        W70506   3.325   1.281  11.859
11246W        W70507  17.674  36.483   1.758
11247W        W70508   3.299  41.832   1.235
11248W        W70509  12.315  34.946   1.260
11249W        W70510  33.497  23.565  10.609
11250W        W70511   4.365   6.881  12.511
11251W        W70512  36.860  43.894  12.086
11252W        W70513  32.445  32.578  11.388
11253W        W70514  27.150  35.377   3.203
11254W        W70515  37.575  33.975   2.330
11255W        W70516   4.363  43.797   3.321
11256W        W70517  35.542  19.274  14.866
11257W        W70518  42.790   3.727  14.986
11258W        W70519  10.633  41.538  13.308
11259W        W70520  43.810  43.407   0.248
11260W        W70521  13.269   4.252   1.283
11261W        W70522  33.516  21.737  13.035
11262W        W70523  25.671  33.886   1.308
11263W        W70524  14.139  20.590  11.410
11264W        W70525  41.345   7.325   2.262
11265W        W70526  17.273   1.772  13.339
11266W        W70527  12.332  21.089   1.923
11267W        W70528   2.293  29.608  12.500
11268W        W70529   5.810   3.792   3.688
11269W        W70530   1.443  41.530   2.356
11270W        W70531  44.973  42.808  13.534
11271W        W70532   7.809  41.532   0.470
11272W        W70533  44.285   7.838   4.744
11273W        W70534  15.642  41.446  10.549
11274W        W70535  32.042  31.937  10.630
11275W        W70536  17.658  38.068   2.303
11276W        W70537   1.447  33.524   1.369
11277W        W70538  16.077  21.147   3.208
11278W        W70539  16.311  17.074   1.264
11279W        W70540   1.952  18.674   0.966
11280W        W70541  10.754  32.979   2.817
11281W        W70542  43.434  19.593   3.319
11282W        W70543   0.442  22.139  10.902
11283W        W70544  26.686  18.229   4.301
11284W        W70545  23.151  31.956   1.855
11285W        W70546  19.267  10.161   4.335
11286W        W70547  13.642   9.653  13.010
11287W        W70548  18.269  31.414   0.967
11288W        W70549  22.066   4.788   3.367
11289W        W70550  30.930  17.207   4.288
11290W        W70551  25.616  22.602  12.043
11291W        W70552  43.425  36.996  13.416
11292W        W70553  16.788   8.775  14.781
11293W        W70554  41.291  38.499  10.585
11294W        W70555  11.311   9.730  13.307
11295W        W70556   8.184  30.004  14.479
11296W        W70557  21.736  22.664   3.246
11297W        W70558  10.638  42.811   2.879
11298W        W70559  39.449   0.910  12.932
11299W        W70560  31.574  40.517  12.513
11300W        W70561   6.820  33.009   4.151
11301W        W70562  33.099  31.615  14.818
11302W        W70563   0.362  39.431  14.338
11303W        W70564  16.762  41.892   3.638
11304W        W70565  25.013  15.655   0.367
11305W        W70566  21.600  37.405  10.463
11306W        W70567  26.547  41.813  13.371
11307W        W70568  39.453   1.418   4.153
11308W        W70569  39.822  24.099   4.248
11309W        W70570  21.577  22.179   2.882
11310W        W70571   3.263  42.823  12.863
11311W        W70572  21.258   2.745  10.466
11312W        W70573  24.530  20.189   2.862
11313W        W70574   8.263  44.329  14.018
11314W        W70575   3.893  14.632  10.429
11315W        W70576   7.783   4.245  11.090
11316W        W70577  12.239  40.806   3.665
11317W        W70578  33.537  15.225  14.861
11318W        W70579   9.299  28.166  11.450
11319W        W70580  14.764   2.388  14.480
11320W        W70581  31.982  15.805   3.364
11321W        W70582  10.304   8.741   0.292
11322W        W70583  10.771   7.241  12.414
11323W        W70584  35.856  20.049   2.761
11324W        W70585  35.430  20.274  13.945
11325W        W70586  39.973  41.788   3.843
11326W        W70587  43.994  43.996  11.515
11327W        W70588  15.820  11.334   0.459
11328W        W70589  15.260  16.112   0.967
11329W        W70590  25.219  12.661  10.487
11330W        W70591  34.608  33.112  13.403
11331W        W70592  21.686  26.095   1.866
11332W        W70593  38.853  18.284   4.835
11333W        W70594  33.024  21.220   3.221
11334W        W70595  41.410  25.178  14.900
11335W        W70596  11.818   9.296  12.971
11336W        W70597  21.712  31.499   0.762
11337W        W70598  22.569   9.692  10.406
11338W        W70599  32.571  29.119   1.811
11339W        W70600  19.682  12.171  10.893
11340W        W70601  20.060  30.933   0.872
11341W        W70602  28.151  10.329   0.853
11342W        W70603  11.202  29.565  12.005
11343W        W70604  17.762   4.708   9.989
11344W        W70605  14.705  36.465   2.785
11345W        W70606   7.230  26.189   0.812
11346W        W70607   9.840   3.348   1.882
11347W        W70608  15.096  39.939  11.001
11348W        W70609  41.428  21.184   1.795
11349W        W70610  27.057   9.210  13.327
11350W        W70611  27.508  30.070   5.238
11351W        W70612  40.899   2.381  11.878
11352W        W70613   8.313  18.622   4.205
11353W        W70614  33.406  39.372  10.953
11354W        W70615  31.482  11.811   3.787
11355W        W70616  28.003   3.314  13.438
11356W        W70617  40.027   8.766   4.298
11357W        W70618  14.595  27.136   2.296
11358W        W70619  11.706  13.350   3.211
11359W        W70620  44.382  21.139  11.976
11360W        W70621   7.886   0.371   0.354
11361W        W70622  44.799  25.219  12.374
11362W        W70623  20.612  39.400  14.475
11363W        W70624  21.088  28.068   4.783
11364W        W70625  27.154   6.374  14.950
11365W        W70626  43.495  15.204   2.774
11366W        W70627  33.551   7.383   0.865
11367W        W70628   1.978  27.665  13.378
11368W        W70629  39.008  41.968  10.092
11369W        W70630  15.682  30.952   1.430
11370W        W70631  37.898  29.023   0.840
11371W        W70632  16.601   0.406   4.763
11372W        W70633  33.020  14.646  13.878
11373W        W70634   6.385  10.250   5.146
11374W        W70635   6.913  33.516   1.770
11375W        W70636   8.796  18.678  13.019
11376W        W70637  41.017  38.519  13.319
11377W        W70638  12.316  39.519   2.707
11378W        W70639  20.590  33.622   4.696
11379W        W70640  33.974  44.461  14.027
11380W        W70641  34.093  13.181  11.587
11381W        W70642  35.016  41.464  13.880
11382W        W70643  24.691   7.183  11.508
11383W        W70644  36.934  40.393   3.333
11384W        W70645   0.863  29.443  13.478
11385W        W70646   0.802  15.641   4.250
11386W        W70647   5.922  10.828  14.834
11387W        W70648  23.620  37.401  13.904
11388W        W70649  23.991  24.047   3.189
11389W        W70650   2.833  29.025  13.428
11390W        W70651  29.006  27.568   4.611
11391W        W70652  17.728  29.569   1.426
11392W        W70653  11.780  16.600  14.947
11393W        W70654  27.043  13.339  14.788
11394W        W70655  19.556  41.435  11.384
11395W        W70656  38.498  16.752  11.491
11396W        W70657  29.656  17.136  14.429
11397W        W70658   5.754  40.505  10.950
11398W        W70659   1.888  16.249  11.436
11399W        W70660  29.655  44.287   0.447
11400W        W70661  22.544  36.885   2.836
11401W        W70662  22.218  26.687  13.866
11402W        W70663  16.288  44.792  13.980
11403W        W70664  23.549  42.427   4.269
11404W        W70665   1.314  35.548   0.888
11405W        W70666   3.335  33.932   0.346
11406W        W70667  23.176   5.735  11.496
11407W        W70668  43.841  43.820  14.789
11408W        W70669  12.268  12.345  14.472
11409W        W70670   0.436  26.198  11.504
11410W        W70671  39.417   0.385   1.851
11411W        W70672  41.414   6.819  14.967
11412W        W70673  44.313  14.601   1.385
11413W        W70674   5.392  40.467  12.903
11414W        W70675  28.092  12.673  14.890
11415W        W70676   9.248  26.650   0.776
11416W        W70677  28.484  25.694  10.424
11417W        W70678  14.831  22.049  11.608
11418W        W70679   6.408  20.756   1.880
11419W        W70680  24.061  31.490  11.949
11420W        W70681   3.417  40.818  12.834
11421W        W70682  41.416  23.019  10.508
11422W        W70683  38.409   7.853   1.878
11423W        W70684  22.607  11.211   2.868
11424W        W70685  20.136   6.750   3.385
11425W        W70686   7.295  10.248  12.946
11426W        W70687  33.978  22.018  12.891
11427W        W70688  35.037   3.266   4.685
11428W        W70689  37.435  39.002  10.919
11429W        W70690  31.027  39.871  11.064
11430W        W70691  28.589  44.888   3.334
11431W        W70692  38.383  14.796   4.823
11432W        W70693   7.283  16.204   0.482
11433W        W70694  12.722  32.521   2.824
11434W        W70695   2.255  10.260   1.861
11435W        W70696  17.628  12.345  11.086
11436W        W70697  23.089  29.089  13.055
11437W        W70698   3.796  12.657  14.988
11438W        W70699  11.132  38.831  11.996
11439W        W70700   5.777  26.097   4.673
11440W        W70701  22.122  32.112  13.878
11441W        W70702  31.121  25.705  13.000
11442W        W70703  11.659   3.826   2.319
11443W        W70704  41.874   0.463  11.058
11444W        W70705  27.154  33.951  12.006
11445W        W70706  25.563  24.063   4.323
11446W        W70707  20.570  43.987   4.602
11447W        W70708  17.643   8.171  13.962
11448W        W70709  27.961  40.920   3.668
11449W        W70710  29.132  24.120  14.391
11450W        W70711   3.444  43.806  11.599
11451W        W70712  13.735   0.310   3.295
11452W        W70713  21.522  28.624  11.882
11453W        W70714  24.562  22.633   1.784
11454W        W70715  32.422  41.801   3.197
11455W        W70716  28.645  36.091   4.649
11456W        W70717   0.800  32.594  12.515
11457W        W70718  40.822  18.054   2.316
11458W        W70719  12.248  43.991  12.083
11459W        W70720  14.832  34.495   1.270
11460W        W70721  44.341  29.436   4.177
11461W        W70722  18.671   6.898   2.883
11462W        W70723  42.336  25.136   1.301
11463W        W70724   8.309  44.981   3.224
11464W        W70725  27.049  30.419   3.254
11465W        W70726  17.152  24.501   5.241
11466W        W70727  11.158  35.862   3.197
11467W        W70728   4.263  11.349   2.234
11468W        W70729  27.563  21.122   4.618
11469W        W70730  12.220  41.404   0.381
11470W        W70731  31.948  28.069  14.481
11471W        W70732  38.341  30.963   2.697
11472W        W70733  34.086  10.230   0.848
11473W        W70734  19.153   4.898  12.392
11474W        W70735  16.590  40.013   1.851
11475W        W70736  29.571  18.168   2.255
11476W        W70737   3.426  14.271  11.470
11477W        W70738  38.947  32.005  11.386
11478W        W70739  31.598   8.208   9.979
11479W        W70740   5.236  41.033   3.317
11480W        W70741  15.192  35.858  13.842
11481W        W70742   2.433   7.670  12.901
11482W        W70743  20.603  36.936  10.924
11483W        W70744  12.312  22.621   3.165
11484W        W70745   3.767  24.981  14.351
11485W        W70746  14.302  35.479  10.407
11486W        W70747   9.692  28.177   2.297
11487W        W70748  14.299  37.069  12.573
11488W        W70749  42.494  13.604  13.396
11489W        W70750   8.730  32.422  12.965
11490W        W70751  15.279   0.380   3.367
11491W        W70752  32.133  14.183  11.120
11492W        W70753   1.454  25.546  13.989
11493W        W70754   9.670  41.521   1.722
11494W        W70755  25.622  13.835   4.827
11495W        W70756  15.624  16.568   3.828
11496W        W70757   0.927  40.528   2.693
11497W        W70758  29.485  27.473  12.520
11498W        W70759   8.298  10.204   2.860
11499W        W70760  23.736   9.275  14.318
11500W        W70761  14.696  10.346   2.301
11501W        W70762  29.987   4.859  10.561
11502W        W70763  14.152  20.731   1.375
11503W        W70764   6.756  12.820  11.386
11504W        W70765  31.119   2.747  10.053
11505W        W70766   9.256  27.607   2.698
11506W        W70767   6.844   0.761   1.804
11507W        W70768  32.115  13.210   1.283
11508W        W70769  37.968  28.540  10.629
11509W        W70770  20.767  16.255  14.469
11510W        W70771  10.265  19.587   3.766
11511W        W70772  13.110  43.771  10.906
11512W        W70773  23.521  39.987   4.751
11513W        W70774  16.292  20.683  11.461
11514W        W70775   6.750  32.633   3.157
11515W        W70776  44.462  16.254   3.742
11516W        W70777   0.834  22.636  14.981
11517W        W70778  35.378  31.896  12.921
11518W        W70779  15.104  41.390  12.910
11519W        W70780  18.751   5.857   2.743
11520W        W70781  41.981  44.760  13.479
11521W        W70782  35.057  30.163  14.788
11522W        W70783  41.395   0.320   1.925
11523W        W70784  13.215  36.040   1.370
11524W        W70785   9.815  33.602   3.176
11525W        W70786  23.517  36.853  11.401
11526W        W70787  27.100  44.890  13.824
11527W        W70788   5.788  42.913   4.346
11528W        W70789   1.893  41.491   1.435
11529W        W70790   7.194  38.521  12.955
11530W        W70791  30.590  31.558  12.339
11531W        W70792  37.991   7.186   3.356
11532W        W70793  15.295   0.481   0.856
11533W        W70794   9.265  12.822   1.339
11534W        W70795   4.919  38.016   1.779
11535W        W70796  12.698  39.401   2.225
11536W        W70797  29.431  20.193   3.359
11537W        W70798  37.083   4.360   2.701
11538W        W70799  40.895   1.250  13.317
11539W        W70800  35.056  31.024   3.152
11540W        W70801  39.481  42.334   3.229
11541W        W70802  42.293  40.927   3.153
11542W        W70803  28.636   6.333  10.161
11543W        W70804  30.989  31.040   2.408
11544W        W70805  27.655  33.882  13.451
11545W        W70806  16.245  16.657  11.041
11546W        W70807   2.332   7.718   1.827
11547W        W70808  15.269  18.140  10.595
11548W        W70809   7.838  10.345   5.264
11549W        W70810  36.949  25.657  12.952
11550W        W70811  22.127   9.700  14.491
11551W        W70812   1.479   0.983   1.883
11552W        W70813  17.306  37.060   1.861
11553W        W70814  22.109  19.226   0.249
11554W        W70815  35.967  21.165  14.855
11555W        W70816  43.797  18.230   9.959
11556W        W70817   3.904  14.158  14.811
11557W        W70818   2.856  37.366   0.826
11558W        W70819  39.388  44.463  14.798
11559W        W70820   0.916   3.823   2.757
11560W        W70821  40.371  30.553   0.858
11561W        W70822  20.131  39.829  14.792
11562W        W70823   0.256  29.975   2.678
11563W        W70824  23.172   2.739   0.929
11564W        W70825  35.079   2.952   3.845
11565W        W70826   5.209  34.487   0.770
11566W        W70827   8.765  33.008   2.745
11567W        W70828   9.288  39.049  12.372
11568W        W70829  16.158  20.163   0.812
11569W        W70830  37.062  29.491   2.739
11570W        W70831  32.957  42.521  11.527
11571W        W70832  32.512  32.070   2.765
11572W        W70833  41.804  22.656  14.403
11573W        W70834  36.539   6.780   2.408
11574W        W70835  27.152  27.591  12.577
11575W        W70836  40.950  31.468   3.735
11576W        W70837  11.661  17.250  12.047
11577W        W70838  16.793  21.651   1.880
11578W        W70839  27.528  10.691  11.586
11579W        W70840  38.893  19.281  12.363
11580W        W70841   9.284  32.926   3.698
11581W        W70842  13.652  21.028   0.482
11582W        W70843   1.745  32.918  14.491
11583W        W70844  16.775  40.351   3.766
11584W        W70845   0.861  19.776  14.970
11585W        W70846  35.427  19.174   4.142
11586W        W70847   2.947   5.437  12.457
11587W        W70848  33.598   5.401  11.979
11588W        W70849   0.396   5.431   4.132
11589W        W70850  22.570  27.161  11.008
11590W        W70851  11.161  42.383  12.519
11591W        W70852  29.426   6.881   0.297
11592W        W70853  23.507  33.041  11.921
11593W        W70854  25.214  26.990  14.283
11594W        W70855  25.193  17.789   2.886
11595W        W70856  26.100  35.514   3.186
11596W        W70857   2.372  33.898   2.803
11597W        W70858  19.131   4.323   3.860
11598W        W70859  17.654  23.608  12.451
11599W        W70860   9.201  18.222   4.689
11600W        W70861  33.954   1.441   1.731
11601W        W70862  43.499  25.170   0.749
11602W        W70863  25.126  12.637   3.194
11603W        W70864  36.540  25.154   1.883
11604W        W70865  37.935  28.606  12.988
11605W        W70866  23.203  25.486  14.860
11606W        W70867  29.477   7.737   4.717
11607W        W70868   5.438  32.487  11.976
11608W        W70869  17.199  10.661   0.461
11609W        W70870   3.308  19.280  12.357
11610W        W70871   4.869   2.753   4.202
11611W        W70872   1.814   6.678  13.394
11612W        W70873  22.204  30.012   2.665
11613W        W70874  33.402  30.638  13.401
11614W        W70875   1.759  16.291  13.474
11615W        W70876  13.196  40.512   4.657
11616W        W70877  38.547  26.057  14.875
11617W        W70878  31.908  37.982  12.921
11618W        W70879  14.291   2.879  11.377
11619W        W70880  43.486  21.113  13.514
11620W        W70881  28.484  41.985   1.221
11621W        W70882  33.935  25.539  12.450
11622W        W70883  23.591   9.847  14.474
11623W        W70884  17.216  11.223  10.105
11624W        W70885  16.808  41.447  13.312
11625W        W70886   6.360  39.866   2.758
11626W        W70887  29.603  41.859   2.890
11627W        W70888  36.509  22.197   3.265
11628W        W70889  11.746  11.741  13.457
11629W        W70890  14.338  41.516   3.299
11630W        W70891  33.529   4.890  14.787
11631W        W70892  25.066  14.599  14.373
11632W        W70893  26.575  28.006   4.666
11633W        W70894  32.553  36.473   3.641
11634W        W70895   2.430  31.519  12.464
11635W        W70896  19.539  30.964  12.834
11636W        W70897   4.294  40.941  10.961
11637W        W70898  17.688  43.936   3.373
11638W        W70899  41.397   1.739  10.558
11639W        W70900   1.889  18.059  14.964
11640W        W70901  43.505  37.441   0.965
11641W        W70902   5.742  12.307   1.932
11642W        W70903  24.014  32.584   2.834
11643W        W70904  31.950  32.070   2.739
11644W        W70905   3.955  44.269   0.895
11645W        W70906  17.608  20.684   3.738
11646W        W70907  35.601  37.340   0.910
11647W        W70908  22.588   5.933  12.049
11648W        W70909  35.501  29.566   4.642
11649W        W70910  12.200  39.012   1.294
11650W        W70911  10.341  20.711  11.089
11651W        W70912  25.492  18.287   1.309
11652W        W70913  23.526  30.119   0.925
11653W        W70914  36.384  19.713   1.287
11654W        W70915  41.465  13.347  12.389
11655W        W70916  27.098  44.276  14.302
11656W        W70917  19.203   4.258   0.418
11657W        W70918  22.207   6.771   2.272
11658W        W70919  22.029  27.467  12.080
11659W        W70920   7.812  43.411   3.830
11660W        W70921  26.010  33.914  12.422
11661W        W70922  36.488  40.390  14.812
11662W        W70923  31.498  24.222  11.447
11663W        W70924  34.554   0.456  12.075
11664W        W70925  26.088   3.415  11.602
11665W        W70926  39.487   5.355   2.680
11666W        W70927   4.291  27.103   3.309
11667W        W70928  33.476  33.507  10.551
11668W        W70929  18.269  22.233   1.415
11669W        W70930  15.583  11.674   4.260
11670W        W70931   0.968  15.266  14.009
11671W        W70932  18.277  25.493  12.393
11672W        W70933  20.033  22.638   0.473
11673W        W70934  22.671   0.814   1.218
11674W        W70935  25.976  42.794  12.093
11675W        W70936  13.294  26.149  10.645
11676W        W70937  26.035   6.281   3.782
11677W        W70938  17.573   5.725   0.907
11678W        W70939  23.628  25.620   1.302
11679W        W70940  33.491   5.433  14.324
11680W        W70941  10.673  26.992  13.383
11681W        W70942   7.748  10.752   3.326
11682W        W70943   6.366  30.046  10.517
11683W        W70944  15.125  21.754   1.705
11684W        W70945   5.263  37.471  13.532
11685W        W70946  36.446  29.603   2.715
11686W        W70947  15.668  30.942  14.901
11687W        W70948  12.355  43.779  10.932
11688W        W70949   7.857  11.174  11.102
11689W        W70950  29.578  39.327   0.285
11690W        W70951  28.008  34.576   0.320
11691W        W70952   3.895  33.473   3.737
11692W        W70953  13.176  33.086   0.751
11693W        W70954   9.802  19.554  13.858
11694W        W70955  37.049  32.558   0.895
11695W        W70956   2.440  41.478   2.708
11696W        W70957  23.044  14.828  14.505
11697W        W70958  17.274  38.052   1.847
11698W        W70959  15.794   6.839  14.860
11699W        W70960  12.625  18.131  13.855
11700W        W70961   9.206  25.178   0.280
11701W        W70962  17.700  34.022   4.616
11702W        W70963  15.747  31.526   3.808
11703W        W70964  24.069  22.098   2.747
11704W        W70965  44.771   8.705   1.701
11705W        W70966  38.916  37.339  14.324
11706W        W70967  12.698  28.626  11.088
11707W        W70968  37.862  44.841   1.339
11708W        W70969  27.669  28.571   1.322
11709W        W70970  34.445  26.477   4.762
11710W        W70971  29.172  34.963   0.435
11711W        W70972  19.587   0.941   0.344
11712W        W70973   4.838  24.580   3.774
11713W        W70974  22.199  40.921  13.915
11714W        W70975  37.436  13.785   4.636
11715W        W70976  29.537  17.645   3.821
11716W        W70977  18.572  40.321   4.704
11717W        W70978  17.255  32.440  14.330
11718W        W70979  30.048   8.384   3.815
11719W        W70980  13.842  38.472  10.958
11720W        W70981  34.371  30.148   3.302
11721W        W70982   5.720  31.433  11.947
11722W        W70983   7.697  26.104  13.495
11723W        W70984   0.895  29.527  12.389
11724W        W70985  40.976   9.209  12.841
11725W        W70986   0.823  28.564  10.426
11726W        W70987  21.704  37.390   0.791
11727W        W70988  22.698  41.981  10.918
11728W        W70989  38.041  21.208   0.842
11729W        W70990  24.093  38.070  14.304
11730W        W70991  33.924  39.956   3.251
11731W        W70992  31.003  25.127   0.932
11732W        W70993  12.783  32.551  11.073
11733W        W70994  23.133  41.008   0.291
11734W        W70995  13.159  37.497   3.323
11735W        W70996  35.459  42.509  12.368
11736W        W70997   4.713   9.191  11.410
11737W        W70998  30.494  26.499   0.317
11738W        W70999  25.674   1.968   0.905
11739W        W71000  32.917  26.459   1.367
11740W        W71001  39.413  29.930  12.007
11741W        W71002   3.285  14.692  12.488
11742W        W71003  35.432   3.455   1.304
11743W        W71004  32.092  42.837  13.796
11744W        W71005  20.761  40.886  12.045
11745W        W71006  18.122  24.224   4.187
11746W        W71007  17.610  37.011   1.734
11747W        W71008  20.537  15.237   0.427
11748W        W71009  17.673   7.312   2.329
11749W        W71010  42.841  21.122  14.802
11750W        W71011  11.262  24.630  13.943
11751W        W71012  38.948   9.272   1.813
11752W        W71013  14.715  40.017  11.429
11753W        W71014  43.448  27.491   3.674
11754W        W71015  21.607  26.686   5.247
11755W        W71016  11.762  40.817  11.486
11756W        W71017  13.790  30.653   2.868
11757W        W71018  20.141  39.979  11.119
11758W        W71019   0.365  29.976   3.245
11759W        W71020  42.794   7.883   1.929
11760W        W71021   1.279   0.377   1.381
11761W        W71022  22.518  23.508  14.285
11762W        W71023   3.397  33.424  12.472
11763W        W71024  27.120  16.249   2.368
11764W        W71025  33.440  32.942   3.633
11765W        W71026  17.567  20.116  14.333
11766W        W71027  23.987  35.098   3.365
11767W        W71028   5.761  28.575   1.424
11768W        W71029  38.850   4.791  12.423
11769W        W71030  33.572  39.354   0.291
11770W        W71031  36.443  23.560   1.257
11771W        W71032  18.765  34.097  12.470
11772W        W71033  43.834  14.769  11.468
11773W        W71034  15.660  43.333   4.697
11774W        W71035  18.634  36.042  14.875
11775W        W71036   0.936  33.537  13.415
11776W        W71037  12.772  20.755   3.652
11777W        W71038  21.180  25.694   0.460
11778W        W71039  22.538  42.002   2.896
11779W        W71040  40.353   7.700  13.467
11780W        W71041  28.513  19.173   4.191
11781W        W71042  28.049  44.392  11.030
11782W        W71043  28.064  40.851   0.306
11783W        W71044   8.792  27.083   4.664
11784W        W71045  14.689  13.770  14.850
11785W        W71046   6.408  43.962  11.052
11786W        W71047   0.372  12.659   2.807
11787W        W71048  10.175  34.121   0.889
11788W        W71049  21.220   9.308   2.179
11789W        W71050   7.773  24.488  11.101
11790W        W71051  10.690  37.353   4.757
11791W        W71052  29.107  12.614  11.390
11792W        W71053  32.458  18.575  12.348
11793W        W71054   9.349  40.942  12.514
11794W        W71055  12.317  43.824   2.296
11795W        W71056  32.504  15.645  13.961
11796W        W71057  13.153  29.580  11.008
11797W        W71058  37.541   8.326   4.640
11798W        W71059  10.649  39.032   2.714
11799W        W71060   3.895  33.470   2.751
11800W        W71061  18.781  32.631   1.697
11801W        W71062  26.197   8.248  12.096
11802W        W71063   2.335   6.676  11.471
11803W        W71064   7.185   8.839  10.579
11804W        W71065  33.067  21.078   3.733
11805W        W71066  24.545  25.674  11.971
11806W        W71067  34.523  30.561  14.949
11807W        W71068  14.639   4.918  10.581
11808W        W71069  35.861   8.344  14.843
11809W        W71070   6.889   3.739   4.645
11810W        W71071  22.515  34.600  12.357
11811W        W71072  28.627  42.527  10.556
11812W        W71073  15.238   0.454  14.813
11813W        W71074  37.467  34.951   5.175
11814W        W71075  19.178  15.317  11.588
11815W        W71076  38.472  32.467  14.928
11816W        W71077  39.049  16.280  14.842
11817W        W71078  16.808  32.448  10.598
11818W        W71079   4.894  21.578  14.779
11819W        W71080  39.895  32.590   1.907
11820W        W71081  10.347  33.557  13.017
11821W        W71082   9.687  10.842  13.486
11822W        W71083  28.615  42.789  12.404
11823W        W71084  10.751  42.330   4.668
11824W        W71085  19.273   0.742  11.060
11825W        W71086  10.874  21.671  11.434
11826W        W71087  24.188  20.694  10.631
11827W        W71088  31.125  17.741   3.833
11828W        W71089  43.997  26.643   5.238
11829W        W71090  16.198  44.934   3.374
11830W        W71091  41.912   0.861  10.930
11831W        W71092  40.821  17.657   9.451
11832W        W71093  31.557  21.736  13.963
11833W        W71094  16.258  41.409  12.531
11834W        W71095  35.573   6.711  13.310
11835W        W71096   9.869  35.949   2.893
11836W        W71097  31.023  22.200   1.751
11837W        W71098  26.022  16.746  14.850
11838W        W71099  26.976  25.192  13.907
11839W        W71100   8.794  32.120  10.418
11840W        W71101  17.664  44.402  11.377
11841W        W71102  14.160   4.377   3.832
11842W        W71103  26.152  28.009   3.169
11843W        W71104  13.657   8.249   2.898
11844W        W71105  39.916  35.534   1.811
11845W        W71106   5.279  33.129   0.283
11846W        W71107  37.500   2.877   0.440
11847W        W71108  24.124   3.234  13.983
11848W        W71109   8.698  41.467  13.955
11849W        W71110  23.153  17.249   2.261
11850W        W71111   9.885  25.648  11.017
11851W        W71112  31.570  42.827  10.599
11852W        W71113  26.088  29.540  14.772
11853W        W71114  33.050  37.389   2.680
11854W        W71115   1.408  23.648  14.810
11855W        W71116   0.801  32.543  13.498
11856W        W71117  36.348  40.518   0.388
11857W        W71118  44.758  15.598   3.804
11858W        W71119  34.030  21.028   2.268
11859W        W71120  20.600   9.798   3.799
11860W        W71121  31.553  37.417   3.147
11861W        W71122  36.990  27.572   1.917
11862W        W71123  43.274  27.159   4.260
11863W        W71124  43.962  31.611   1.775
11864W        W71125  10.786   0.787  11.949
11865W        W71126  15.316  36.382  11.008
11866W        W71127  42.857  43.510   1.825
11867W        W71128  44.365  39.329   0.380
11868W        W71129  17.639  39.875   2.716
11869W        W71130  11.243  44.769  10.537
11870W        W71131  44.260  29.461  11.929
11871W        W71132  32.138  42.996   4.257
11872W        W71133   7.228  43.379   1.238
11873W        W71134  31.419  27.520   3.830
11874W        W71135   0.322   0.478   1.910
11875W        W71136  42.486  27.986  14.441
11876W        W71137  15.287   7.185  13.062
11877W        W71138  12.637  21.210  12.534
11878W        W71139  16.156  35.379   2.413
11879W        W71140  24.504  19.145  11.961
11880W        W71141   8.748  28.565  14.477
11881W        W71142  16.750  22.585  12.494
11882W        W71143  35.066  30.035  14.456
11883W        W71144  24.222  23.140  14.481
11884W        W71145   4.765   0.986  12.379
11885W        W71146  34.048  17.678   1.702
11886W        W71147  15.771  39.058  11.108
11887W        W71148  33.117  29.085   3.306
11888W        W71149   2.250  32.084   4.608
11889W        W71150  29.587  12.685  14.029
11890W        W71151  17.601   5.425  12.007
11891W        W71152  23.537  41.901   0.907
11892W        W71153  21.572  12.281  12.453
11893W        W71154  23.632  24.074   2.888
11894W        W71155  32.927  29.623   4.663
11895W        W71156  36.855   0.900   1.851
11896W        W71157  37.854  19.624   3.189
11897W        W71158   1.752  12.269  13.972
11898W        W71159  19.233  26.600  13.408
11899W        W71160  34.396  28.104   3.754
11900W        W71161  29.471  26.019  10.916
11901W        W71162  15.170   8.174  14.811
11902W        W71163  44.381   3.403  11.571
11903W        W71164   0.414  19.180   9.974
11904W        W71165  33.091   2.423   0.474
11905W        W71166  30.136  27.489   3.333
11906W        W71167  26.509  33.118   0.366
11907W        W71168  29.148  20.720  13.000
11908W        W71169  21.535  24.086  14.967
11909W        W71170   0.848  33.937  13.933
11910W        W71171  29.519   2.288   2.320
11911W        W71172  40.472   9.270   2.264
11912W        W71173  36.059  35.445   1.902
11913W        W71174  40.504  38.926   3.638
11914W        W71175  36.948  43.378   1.228
11915W        W71176  32.439  20.131   3.281
11916W        W71177  21.720  24.051  10.417
11917W        W71178   3.432  12.279  12.948
11918W        W71179  15.205  25.593   4.163
11919W        W71180  28.951   1.462  13.315
11920W        W71181  44.381  28.113  12.935
11921W        W71182  12.247  13.699  12.059
11922W        W71183  20.033  24.057   0.315
11923W        W71184  14.626  11.664  11.593
11924W        W71185  24.624  21.569   0.419
11925W        W71186  26.683  19.672   0.833
11926W        W71187  14.206   7.293  12.577
11927W        W71188   1.359  24.693  12.452
11928W        W71189  32.461   4.803   4.130
11929W        W71190   2.283   1.852  10.996
11930W        W71191   0.934   7.308  14.840
11931W        W71192   2.470  28.138  12.970
11932W        W71193  22.710  44.897   1.257
11933W        W71194  11.639  16.272  14.513
11934W        W71195  42.883  21.615   3.235
11935W        W71196  42.931  26.991  11.468
11936W        W71197  42.911  16.241  11.998
11937W        W71198  44.386   4.801  14.976
11938W        W71199   4.290   5.280   9.552
11939W        W71200  19.192   8.759  13.310
11940W        W71201   3.420  17.284  14.491
11941W        W71202   4.266  44.941   4.305
11942W        W71203  33.579  23.214  12.506
11943W        W71204   9.202  19.088   2.745
11944W        W71205  12.256  44.433  13.447
11945W        W71206   3.782  28.135  14.912
11946W        W71207   1.334  37.550  11.926
11947W        W71208   3.281  36.053  13.797
11948W        W71209  29.165   0.422  10.502
11949W        W71210  26.607  38.074  14.435
11950W        W71211  39.890  39.516  13.380
11951W        W71212  22.152   1.827  12.382
11952W        W71213  21.717  12.726  12.027
11953W        W71214  11.215  37.505   4.676
11954W        W71215   5.367  40.917   1.387
11955W        W71216  15.319  40.002  12.956
11956W        W71217   2.871  44.911   4.156
11957W        W71218   5.694  43.298   1.864
11958W        W71219  34.497  26.149   0.287
11959W        W71220  35.109  11.226  11.073
11960W        W71221  10.236  42.948  11.866
11961W        W71222  28.170   1.865  13.872
11962W        W71223  19.689   6.696  11.439
11963W        W71224  19.107  11.800  14.280
11964W        W71225  24.592  14.190  10.641
11965W        W71226   0.948  38.047  12.018
11966W        W71227   3.727  39.862  14.440
11967W        W71228  42.027  22.236  12.957
11968W        W71229   5.896   8.779  13.340
11969W        W71230  11.737  11.658  14.862
11970W        W71231  36.082  43.930   3.667
11971W        W71232   7.812  25.975   0.404
11972W        W71233  36.003  13.108  11.080
11973W        W71234  25.220  13.224  11.424
11974W        W71235  23.114  41.410   4.247
11975W        W71236  38.545  39.476   0.276
11976W        W71237  10.664  32.003  10.409
11977W        W71238   4.924  12.804  10.452
11978W        W71239  25.085  31.967  13.017
11979W        W71240  39.536  18.174  10.614
11980W        W71241  21.673  36.357   0.475
11981W        W71242  17.725  32.947   2.225
11982W        W71243  21.076  17.591  14.763
11983W        W71244  15.797  14.710   2.852
11984W        W71245  34.383  18.164  11.127
11985W        W71246  29.665  23.074  10.477
11986W        W71247  38.920  35.917  12.571
11987W        W71248  37.355  25.611  10.942
11988W        W71249   8.712  23.505  11.605
11989W        W71250  41.330  15.186   2.406
11990W        W71251   4.299  18.627   1.827
11991W        W71252  23.190  32.481  13.393
11992W        W71253   0.926   1.871   3.327
11993W        W71254  25.563  35.940  14.406
11994W        W71255  28.598   6.281  12.085
11995W        W71256  42.780  37.923  11.026
11996W        W71257  12.259  32.561  14.946
11997W        W71258  33.526  33.585  11.054
11998W        W71259  38.943  43.347  10.547
11999W        W71260  31.107   7.334  14.008
12000W        W71261   9.781   1.253  10.918
12001W        W71262  27.467   1.833   2.381
12002W        W71263  40.420  35.927   0.365
12003W        W71264  29.059  14.648   1.327
12004W        W71265  27.481  14.163   1.335
12005W        W71266  19.053  22.714   2.693
12006W        W71267  27.073  20.575   3.674
12007W        W71268  34.894   6.298   4.156
12008W        W71269  31.482  39.959   4.150
12009W        W71270  20.204  32.482  14.860
12010W        W71271  33.582  33.119  14.416
12011W        W71272  11.866  16.227   2.796
12012W        W71273  19.060  32.961   2.279
12013W        W71274  41.464  11.759   4.243
12014W        W71275  11.776  39.409   2.222
12015W        W71276   9.168  39.440   3.644
12016W        W71277  43.960  27.080   0.952
12017W        W71278  24.227  23.208   4.201
12018W        W71279  21.718  38.931   4.146
12019W        W71280  35.535  12.318  11.434
12020W        W71281  29.503  22.132   3.795
12021W        W71282  42.385  31.471  10.551
12022W        W71283  23.102   6.760   4.322
12023W        W71284   6.868   8.756  11.607
12024W        W71285  15.823  43.021   4.255
12025W        W71286  13.129  42.486  12.091
12026W        W71287  39.878  16.261   1.345
12027W        W71288  32.097  40.535  11.856
12028W        W71289  39.848  10.682   0.388
12029W        W71290   8.396  25.638  11.459
12030W        W71291  35.967   2.748  13.992
12031W        W71292  14.229  32.393  11.858
12032W        W71293  26.685   6.830  14.832
12033W        W71294  28.072   6.853   3.671
12034W        W71295  23.657   2.904   1.242
12035W        W71296  18.608  17.663  10.456
12036W        W71297  11.725  20.588  13.956
12037W        W71298  20.678  30.968  10.893
12038W        W71299  40.510  24.146   5.280
12039W        W71300  18.618   8.754   3.372
12040W        W71301  21.611  23.606  14.798
12041W        W71302  25.487  33.462  12.455
12042W        W71303  42.412  44.005   2.328
12043W        W71304   0.857  33.057  12.009
12044W        W71305   6.349  42.898   0.372
12045W        W71306  11.282  19.064  12.899
12046W        W71307  10.826  19.586  10.975
12047W        W71308  39.846  44.430   2.802
12048W        W71309  20.266  28.437  14.295
12049W        W71310  15.253   3.917   4.247
12050W        W71311  39.494  43.775   2.880
12051W        W71312   8.874  11.737   4.314
12052W        W71313  39.888   6.427  10.935
12053W        W71314  44.932  44.388   4.837
12054W        W71315  19.632  20.683  12.953
12055W        W71316  26.996  10.739   3.748
12056W        W71317  41.831  18.765   3.754
12057W        W71318  22.157  13.622   1.834
12058W        W71319   5.338  32.411  11.037
12059W        W71320  38.070   4.449   0.821
12060W        W71321  30.096  18.076   4.286
12061W        W71322   7.885   6.325   2.672
12062W        W71323  18.272   5.216   3.728
12063W        W71324   3.347   2.368   4.623
12064W        W71325  28.956  19.163   2.837
12065W        W71326  12.637  44.975  12.012
12066W        W71327  23.203  19.547   0.874
12067W        W71328  25.475  10.853  10.628
12068W        W71329   3.774   4.724   4.628
12069W        W71330  12.115   8.719   4.665
12070W        W71331  34.480  43.470  10.992
12071W        W71332  20.719  12.692   0.851
12072W        W71333  36.059  10.813   3.735
12073W        W71334  16.682  38.346  10.594
12074W        W71335  12.833   2.448   0.322
12075W        W71336  28.161  42.915  11.535
12076W        W71337  36.472  20.712   0.249
12077W        W71338  34.458   8.670  10.085
12078W        W71339  20.585   3.716  12.928
12079W        W71340   1.868  29.932  10.573
12080W        W71341   6.381  41.494  12.059
12081W        W71342  14.678  43.307   0.353
12082W        W71343  31.118  29.940   1.888
12083W        W71344   8.710  15.148  11.959
12084W        W71345  17.295  19.041  12.086
12085W        W71346  38.363  20.561  12.037
12086W        W71347  12.833   2.360   3.176
12087W        W71348  32.417  34.997   1.408
12088W        W71349   9.837  35.043  12.997
12089W        W71350   1.298  38.476   1.256
12090W        W71351  44.321  36.468   3.852
12091W        W71352  22.044  29.572  11.377
12092W        W71353   5.711  35.436   2.246
12093W        W71354  34.485  10.756  14.326
12094W        W71355  23.710  18.191   1.928
12095W        W71356  18.124  22.721  11.028
12096W        W71357  35.583   2.363  14.839
12097W        W71358   0.881  27.030   2.785
12098W        W71359  27.461  33.556  14.942
12099W        W71360  21.579  18.777  10.945
12100W        W71361  29.564   0.950   4.824
12101W        W71362  35.100  15.768  14.399
12102W        W71363  26.535  16.207   2.340
12103W        W71364   5.720  43.421   4.632
12104W        W71365  27.087   5.692   4.210
12105W        W71366  18.070   1.806   3.852
12106W        W71367  29.086  37.563  12.032
12107W        W71368  44.409   0.398   9.938
12108W        W71369  33.575  11.647  12.558
12109W        W71370  24.704  28.504  11.394
12110W        W71371   3.262  21.207  10.610
12111W        W71372  24.044  18.212   1.449
12112W        W71373  36.470   9.813   4.195
12113W        W71374   4.427  13.716  10.586
12114W        W71375  41.897  31.427   2.337
12115W        W71376  25.203  43.299  11.125
12116W        W71377  41.315   4.320  11.490
12117W        W71378  41.373  26.970  12.942
12118W        W71379  17.082  44.350  10.580
12119W        W71380  22.743  24.709   2.334
12120W        W71381  37.831   6.397   1.222
12121W        W71382  24.612  14.631  14.998
12122W        W71383  35.881  26.600   0.402
12123W        W71384  20.547  32.560   0.874
12124W        W71385  22.658  26.169   1.895
12125W        W71386  27.595  21.633  11.458
12126W        W71387  38.468   8.761  13.895
12127W        W71388  10.874  27.109   4.604
12128W        W71389   9.688  30.023  13.975
12129W        W71390   4.798  44.843  13.958
12130W        W71391   1.384  28.669  12.350
12131W        W71392   8.234  11.256   3.669
12132W        W71393   2.376   4.768   0.726
12133W        W71394  42.961   7.860  13.387
12134W        W71395   1.448  18.238  12.953
12135W        W71396   1.755   0.279   3.841
12136W        W71397   3.243  30.632   2.361
12137W        W71398  25.102  38.827   3.245
12138W        W71399   6.356  25.498   1.444
12139W        W71400   4.433   5.336  14.872
12140W        W71401  34.914  39.373  10.910
12141W        W71402  42.845  16.745  12.030
12142W        W71403   9.355  15.213  14.925
12143W        W71404  34.985  26.545  14.442
12144W        W71405  26.008  36.932   2.244
12145W        W71406  28.984  24.992   5.250
12146W        W71407  21.068  10.717  11.371
12147W        W71408   4.287   8.818  14.450
12148W        W71409  15.613  44.762   2.341
12149W        W71410   0.910   3.710  10.637
12150W        W71411  38.877  15.719  13.050
12151W        W71412  32.097  32.468   1.894
12152W        W71413   9.708  42.527   1.921
12153W        W71414  22.023  40.423  13.003
12154W        W71415  36.090   1.291  13.022
12155W        W71416   6.869  24.559  12.039
12156W        W71417   9.743  28.557  14.835
12157W        W71418  27.105  35.013  10.085
12158W        W71419   9.886  41.017  14.352
12159W        W71420  20.591  36.975  14.897
12160W        W71421  13.793  30.462  11.516
12161W        W71422  22.721  27.547   4.115
12162W        W71423   7.905  42.480   4.274
12163W        W71424  38.397  34.917  13.348
12164W        W71425  37.567  41.528  11.372
12165W        W71426  19.623   9.285   5.149
12166W        W71427   7.830  11.163  11.393
12167W        W71428  14.106  23.037  11.556
12168W        W71429  21.035   5.427   0.790
12169W        W71430  30.468  28.099  12.955
12170W        W71431  16.709  28.591  11.987
12171W        W71432  43.014  27.007   3.321
12172W        W71433  22.078  16.211  11.909
12173W        W71434  25.023  23.710   0.746
12174W        W71435   4.819  39.992   0.782
12175W        W71436   0.348  14.708  11.859
12176W        W71437  13.316  25.112   2.772
12177W        W71438  44.280   9.225  14.865
12178W        W71439  33.022  41.885   1.904
12179W        W71440  36.489  36.851   4.148
12180W        W71441  19.534  36.581  10.581
12181W        W71442  23.681   0.785   1.886
12182W        W71443  24.195  20.162  12.939
12183W        W71444   1.845   3.306  13.331
12184W        W71445  30.486  24.665   3.717
12185W        W71446  39.319  33.552  14.936
12186W        W71447  43.424  10.209  13.543
12187W        W71448  37.066  41.970   0.856
12188W        W71449  13.162  33.469  11.994
12189W        W71450  17.579  15.797  11.120
12190W        W71451  34.975  37.031   4.635
12191W        W71452  25.135  40.897  12.477
12192W        W71453  40.515   0.774  14.004
12193W        W71454  20.076  13.703   3.751
12194W        W71455  40.027   9.859   1.315
12195W        W71456  24.165   3.890   3.151
12196W        W71457   9.155  44.273   0.879
12197W        W71458  20.523  31.035   4.702
12198W        W71459  41.296  19.052   0.469
12199W        W71460   2.898  42.289  14.425
12200W        W71461  18.757  28.482   5.227
12201W        W71462   5.221  22.514   1.332
12202W        W71463   4.876   8.693  13.812
12203W        W71464  35.886   5.290  11.077
12204W        W71465  27.687  21.030   1.385
12205W        W71466   7.680  11.248  12.463
12206W        W71467  28.630  18.151  13.902
12207W        W71468  38.429  41.329  11.950
12208W        W71469  34.564  35.592  11.475
12209W        W71470  24.156  40.542  12.442
12210W        W71471  36.869  10.695   2.418
12211W        W71472  15.761   0.859   5.086
12212W        W71473  43.282  20.562   1.406
12213W        W71474  44.405   1.807  12.553
12214W        W71475  34.596  15.318   2.184
12215W        W71476  27.087  25.540  11.897
12216W        W71477   4.817  30.588  10.890
12217W        W71478  44.415  27.064   0.252
12218W        W71479  22.997  19.120   1.241
12219W        W71480  18.145  41.311   1.778
12220W        W71481   2.875  31.550  12.415
12221W        W71482  17.738  20.705   0.833
12222W        W71483  33.382  16.105  14.018
12223W        W71484  25.046  41.007   1.694
12224W        W71485  24.551  43.900  11.079
12225W        W71486   4.324  23.590  13.796
12226W        W71487  28.938  38.976  10.539
12227W        W71488   1.886  32.006   1.332
12228W        W71489  33.502  22.132  11.406
12229W        W71490  32.907  43.339  13.844
12230W        W71491  42.997  17.707  12.063
12231W        W71492  38.846  35.441   2.748
12232W        W71493  22.102  19.537  10.091
12233W        W71494  41.999  39.495  13.399
12234W        W71495  38.486   1.913   2.742
12235W        W71496  33.577  40.387  12.580
12236W        W71497  22.245  17.796   4.279
12237W        W71498  12.290  26.113  12.004
12238W        W71499  28.016  19.647   5.231
12239W        W71500  39.051  43.303  12.438
12240W        W71501  20.647  24.491  11.112
12241W        W71502  19.604  20.623  10.958
12242W        W71503  28.589  38.345   3.820
12243W        W71504   6.733  28.586  14.403
12244W        W71505  29.498  43.449   2.704
12245W        W71506  40.876  37.504  12.897
12246W        W71507  24.631  17.763  10.566
12247W        W71508  28.098  37.415   2.733
12248W        W71509  35.555  29.594   1.763
12249W        W71510  11.759  16.292   2.330
12250W        W71511  23.560  17.770   3.822
12251W        W71512  31.515   6.770   0.914
12252W        W71513   6.221  41.480  12.419
12253W        W71514  28.055  27.073   2.810
12254W        W71515  18.577  13.711  12.068
12255W        W71516  37.973  17.739  13.427
12256W        W71517  36.889  15.144   4.128
12257W        W71518  21.023  36.426  14.858
12258W        W71519  33.083  25.478  11.012
12259W        W71520   9.354   2.320  14.349
12260W        W71521  25.547   2.357   0.852
12261W        W71522   7.399  32.551  11.022
12262W        W71523  37.939  13.625   1.839
12263W        W71524  20.136  24.702   2.874
12264W        W71525  36.874  40.038   3.174
12265W        W71526  44.860  22.249   0.776
12266W        W71527  33.542   1.273  13.811
12267W        W71528  24.207  41.978   0.887
12268W        W71529   6.350  34.119   0.411
12269W        W71530   6.814   6.916  13.510
12270W        W71531  27.548  26.532   2.363
12271W        W71532  37.039  41.407   3.365
12272W        W71533  44.981  41.309   0.451
12273W        W71534  18.155  30.467   3.864
12274W        W71535  22.063  14.206  13.334
12275W        W71536  20.752  16.152  12.915
12276W        W71537  38.408   1.455  11.054
12277W        W71538  33.616   7.230   3.235
12278W        W71539  44.336   3.239  12.532
12279W        W71540   0.286  19.241  12.569
12280W        W71541  26.951  15.228  10.599
12281W        W71542  10.776  30.652   3.359
12282W        W71543  13.836  27.578  14.790
12283W        W71544   9.261  34.461  11.880
12284W        W71545   7.188   0.250   0.886
12285W        W71546  22.124  32.601   5.102
12286W        W71547  11.309  12.708  11.868
12287W        W71548   4.712  12.668   4.705
12288W        W71549  39.474  31.582  13.505
12289W        W71550  10.244  27.541  10.530
12290W        W71551  16.277  14.206   4.811
12291W        W71552  13.193  27.479   5.286
12292W        W71553   4.229  16.247   2.680
12293W        W71554  25.024  28.034  13.876
12294W        W71555  40.982  39.489   4.703
12295W        W71556  26.059  32.010   3.632
12296W        W71557  18.671   2.904   0.392
12297W        W71558  34.397   9.274   4.196
12298W        W71559  22.070  43.401   0.884
12299W        W71560  18.225  43.278   0.927
12300W        W71561  43.007  29.443   0.946
12301W        W71562  17.075  21.143   1.213
12302W        W71563   7.211   5.388   3.847
12303W        W71564   0.292  40.502  13.816
12304W        W71565   3.259  23.504  11.417
12305W        W71566  28.174   5.733  10.010
12306W        W71567  13.763   2.446   2.717
12307W        W71568  10.206  44.466   3.743
12308W        W71569  35.949   1.271  14.373
12309W        W71570  10.207   0.812  13.905
12310W        W71571  42.493   0.321  13.862
12311W        W71572  40.518  37.001  14.441
12312W        W71573  16.318  31.527   0.345
12313W        W71574  41.383  44.761  14.870
12314W        W71575  28.186  25.488  11.396
12315W        W71576  23.533  28.640  13.502
12316W        W71577  11.324  19.700  14.353
12317W        W71578  39.033  22.151   1.288
12318W        W71579  28.563   7.868  12.445
12319W        W71580  28.163   0.429   2.359
12320W        W71581  33.518   9.881  14.500
12321W        W71582  30.522   9.357  10.899
12322W        W71583  10.854  18.558  12.050
12323W        W71584  43.894  43.841   3.643
12324W        W71585   4.367   8.175  10.907
12325W        W71586  20.251  21.089   2.395
12326W        W71587  13.205  40.960   3.353
12327W        W71588   6.218  21.735   1.359
12328W        W71589  20.059  13.629   4.176
12329W        W71590  10.141  39.011  11.937
12330W        W71591   0.271   3.242  14.809
12331W        W71592   0.940  20.681   4.638
12332W        W71593  39.463   4.940   4.173
12333W        W71594  19.743   4.846  11.450
12334W        W71595  31.139  34.986   3.635
12335W        W71596   0.421  30.991  14.499
12336W        W71597   7.854   4.845   1.217
12337W        W71598  38.429  43.802   2.772
12338W        W71599   0.872  36.092  10.920
12339W        W71600  38.552  19.245   2.725
12340W        W71601   9.859  33.534  12.006
12341W        W71602  12.630  43.449   4.782
12342W        W71603  22.997  19.165   0.256
12343W        W71604   7.287   3.755   2.694
12344W        W71605  39.025  21.147   4.796
12345W        W71606  18.156  37.860   3.379
12346W        W71607  40.013  25.499  14.008
12347W        W71608   9.156  30.976  12.898
12348W        W71609   4.827  34.010  11.551
12349W        W71610  40.383  44.932  12.959
12350W        W71611  35.914  12.760  11.070
12351W        W71612   4.344  19.177  14.935
12352W        W71613  17.567  36.987   3.726
12353W        W71614   0.846  20.037   0.784
12354W        W71615  38.857  35.987   1.704
12355W        W71616  13.113  36.855  10.544
12356W        W71617   6.266  28.591  14.307
12357W        W71618   7.302  15.188   0.377
12358W        W71619   0.825  26.176  11.576
12359W        W71620  28.966   2.930   3.847
12360W        W71621  24.664  24.157   1.705
12361W        W71622  41.517  22.678   2.793
12362W        W71623  44.417  31.539   3.365
12363W        W71624  31.619   8.305   2.807
12364W        W71625   5.350  35.872   4.130
12365W        W71626   9.777  20.628  13.392
12366W        W71627  10.670   2.929   1.920
12367W        W71628  36.032  39.976   2.357
12368W        W71629  25.569  18.725  14.980
12369W        W71630   2.470   0.927   5.297
12370W        W71631  39.558  12.254  14.427
12371W        W71632  33.066  22.064   2.823
12372W        W71633  19.749  12.351  10.472
12373W        W71634  15.183  18.760   2.353
12374W        W71635   5.421  20.708  14.024
12375W        W71636  36.510  44.766  13.828
12376W        W71637   8.283  16.644   3.253
12377W        W71638  19.047   3.946   0.326
12378W        W71639  24.581  33.961   1.735
12379W        W71640  35.935  28.056   2.896
12380W        W71641   3.783  35.568  11.410
12381W        W71642  34.375  25.084   3.645
12382W        W71643  42.518   1.794   1.898
12383W        W71644   9.207  44.348   4.621
12384W        W71645  10.728  35.393   1.710
12385W        W71646  40.879   0.947   3.348
12386W        W71647   6.716  19.699  14.832
12387W        W71648  31.955  38.951   1.220
12388W        W71649  44.771  44.317  10.592
12389W        W71650  34.408  30.438   2.684
12390W        W71651  11.359   1.430  14.411
12391W        W71652   4.281  43.817   2.668
12392W        W71653  34.091  34.027   2.287
12393W        W71654  42.920  19.213  13.511
12394W        W71655   4.699   7.375  13.409
12395W        W71656  13.796  24.568  10.447
12396W        W71657  26.033  42.881  12.983
12397W        W71658  10.162  27.066  11.479
12398W        W71659  14.731  13.113  12.032
12399W        W71660   3.284  24.581   1.223
12400W        W71661  31.993  37.933   3.732
12401W        W71662  30.046  39.004  14.400
12402W        W71663  38.423  14.222  11.909
12403W        W71664  30.452   8.747   3.749
12404W        W71665  23.121  43.941   1.724
12405W        W71666  23.711  34.531   4.662
12406W        W71667  10.814   0.781  11.094
12407W        W71668  13.105  31.071   1.715
12408W        W71669   1.825  13.799  10.966
12409W        W71670  40.851   0.291  10.939
12410W        W71671  15.155  39.400  11.538
12411W        W71672   8.282  33.931  10.995
12412W        W71673  35.385  36.364  12.023
12413W        W71674  16.100  15.306   3.227
12414W        W71675   5.244   3.755   3.278
12415W        W71676  26.500   2.735  12.898
12416W        W71677  38.417   2.966   4.280
12417W        W71678  16.623  37.557  13.888
12418W        W71679  31.444  20.207   4.311
12419W        W71680   4.251   8.369   0.448
12420W        W71681  44.377  25.143   2.715
12421W        W71682  18.556  10.867  12.997
12422W        W71683  18.769  40.357   0.821
12423W        W71684   6.846   3.815  10.025
12424W        W71685  31.986   4.896  12.056
12425W        W71686  22.746   9.872   3.631
12426W        W71687  25.132  25.569  12.353
12427W        W71688   9.349  32.973   0.948
12428W        W71689  35.054  33.584  11.042
12429W        W71690  28.466   0.472   4.274
12430W        W71691  15.109  34.104  10.916
12431W        W71692   4.741  36.572   2.243
12432W        W71693   4.759  36.533  12.908
12433W        W71694  31.909  18.618   5.092
12434W        W71695  28.465  23.076  10.443
12435W        W71696   8.665  19.676   2.888
12436W        W71697  10.165  20.710  12.977
12437W        W71698  15.326  21.663   3.159
12438W        W71699  16.721  26.104   2.679
12439W        W71700  29.441   1.888   0.854
12440W        W71701  37.582  38.443  10.911
12441W        W71702  23.607  26.631  13.988
12442W        W71703  18.213   1.941  14.850
12443W        W71704  41.429  35.945  14.805
12444W        W71705  39.062  29.152  12.970
12445W        W71706  38.839  15.644  13.527
12446W        W71707   6.329  28.649  10.029
12447W        W71708  33.040  30.027  13.807
12448W        W71709   0.909  40.850  13.878
12449W        W71710  14.834  33.526  11.016
12450W        W71711  28.081  26.187  13.314
12451W        W71712  11.161  20.074  10.444
12452W        W71713  19.733  32.401  14.434
12453W        W71714   6.186  39.952   4.758
12454W        W71715  39.409  29.019  10.458
12455W        W71716  21.102  37.504   4.628
12456W        W71717  14.815   0.375   1.429
12457W        W71718  34.472  21.639   1.749
12458W        W71719  32.506  44.917   3.314
12459W        W71720  43.485  20.694  12.555
12460W        W71721  22.706  13.196   1.793
12461W        W71722  36.883  31.409  12.970
12462W        W71723  40.448  35.437  13.816
12463W        W71724  33.937   2.343  13.362
12464W        W71725  40.519  17.149   2.724
12465W        W71726  30.595  12.641   0.378
12466W        W71727  29.963  27.116  11.580
12467W        W71728  31.961  24.197  10.420
12468W        W71729  37.042  13.773  13.538
12469W        W71730  20.101  15.259   1.378
12470W        W71731  44.440  31.496   2.699
12471W        W71732  12.828   8.705   1.307
12472W        W71733   6.729   7.396  12.441
12473W        W71734  23.171   5.889  14.303
12474W        W71735  20.246  25.160   4.608
12475W        W71736  23.698  34.998  13.904
12476W        W71737   1.807  28.987   2.868
12477W        W71738  36.986  41.937   2.417
12478W        W71739   6.312  10.315  12.957
12479W        W71740  13.222  31.568   2.683
12480W        W71741  14.693  14.758   3.676
12481W        W71742  16.207  20.737   5.797
12482W        W71743  19.216   9.644   1.300
12483W        W71744  34.013   6.698  12.447
12484W        W71745  24.572  25.480  12.564
12485W        W71746  34.416  42.326  12.051
12486W        W71747  16.143  10.171   2.719
12487W        W71748  34.096  11.314   0.330
12488W        W71749  11.255  29.613  14.423
12489W        W71750  21.077  25.494  11.045
12490W        W71751  35.092   9.388   0.808
12491W        W71752   0.358  37.474  14.509
12492W        W71753  42.904   6.346   4.631
12493W        W71754  30.461  20.265   4.752
12494W        W71755  22.606  34.096   4.328
12495W        W71756  26.103  35.889   3.233
12496W        W71757  40.860  19.634   2.712
12497W        W71758  22.995  19.150   1.834
12498W        W71759  30.591  32.562  11.428
12499W        W71760  14.304   2.234   1.445
12500W        W71761   5.858  33.091  14.966
12501W        W71762   6.696  18.206   2.764
12502W        W71763   1.949  15.259  12.397
12503W        W71764   8.319  20.671  11.984
12504W        W71765  27.458  36.460   2.810
12505W        W71766   0.305   8.225  11.982
12506W        W71767  17.692  41.888   2.277
12507W        W71768  31.486  35.962   1.915
12508W        W71769  27.551   8.832   3.364
12509W        W71770  12.300   3.276   0.254
12510W        W71771  15.593   1.888   0.282
12511W        W71772  33.089   4.921  14.967
12512W        W71773  23.550  44.925  10.944
12513W        W71774   6.896  37.956  13.958
12514W        W71775  33.489  24.094  11.385
12515W        W71776  21.064  32.092   3.751
12516W        W71777   0.824  37.914   1.411
12517W        W71778  21.169  11.237  13.031
12518W        W71779  34.102   6.813   0.884
12519W        W71780  30.469  42.842  14.477
12520W        W71781  43.500  25.152   3.216
12521W        W71782  41.818   4.855   3.772
12522W        W71783  43.781   7.884  14.902
12523W        W71784  19.102  27.462  13.852
12524W        W71785  10.676  20.640   3.748
12525W        W71786  12.300  24.046  13.989
12526W        W71787  43.987  16.790  10.029
12527W        W71788   0.960  27.022  11.610
12528W        W71789  12.246  28.540   4.129
12529W        W71790  13.744  28.530  13.864
12530W        W71791  16.083  11.356  10.920
12531W        W71792   4.902  23.076  13.882
12532W        W71793  30.420  26.621  13.520
12533W        W71794   6.420  38.956  12.549
12534W        W71795  34.378  19.259   4.130
12535W        W71796  36.858  30.549   0.765
12536W        W71797  35.863  38.358  11.045
12537W        W71798  40.935  21.670   1.754
12538W        W71799  34.887  27.180  11.394
12539W        W71800   2.288   1.939   4.186
12540W        W71801   3.935  35.021   9.962
12541W        W71802  34.089  35.074   3.250
12542W        W71803   2.773  21.677  10.910
12543W        W71804  15.736  35.856   3.666
12544W        W71805  26.585  36.051  13.327
12545W        W71806  27.181  28.592  10.962
12546W        W71807   6.358  39.534   0.402
12547W        W71808   7.354  18.586   3.340
12548W        W71809  34.592  30.630  13.390
12549W        W71810  34.012  25.682   4.669
12550W        W71811  20.738  29.488  10.506
12551W        W71812   7.264   2.844   4.201
12552W        W71813   2.403  40.433   0.837
12553W        W71814  23.651  17.754  10.443
12554W        W71815  41.794  31.036   1.213
12555W        W71816   1.379  28.936  12.445
12556W        W71817  15.688  15.710  14.868
12557W        W71818   5.689  38.560  12.883
12558W        W71819   1.363  38.908  13.818
12559W        W71820  30.609   0.373   4.831
12560W        W71821  12.828   3.393  11.457
12561W        W71822  22.527   6.356   2.319
12562W        W71823  14.778   2.390  10.612
12563W        W71824   9.236  19.262  12.527
12564W        W71825  18.693  31.138  12.841
12565W        W71826  14.795  33.419   0.452
12566W        W71827  13.636  29.626   2.378
12567W        W71828  31.482   3.839   4.124
12568W        W71829  22.695  17.770  11.606
12569W        W71830   9.739  14.327   5.117
12570W        W71831   0.406   5.769  10.544
12571W        W71832  19.109  26.099  12.849
12572W        W71833  18.179  43.003   3.635
12573W        W71834  31.430   9.169   2.668
12574W        W71835  38.845   2.866   1.934
12575W        W71836  20.176  16.767   4.623
12576W        W71837  44.945   9.259  11.483
12577W        W71838  26.006  28.489  10.976
12578W        W71839   3.421   9.368   2.856
12579W        W71840   4.865  23.228  13.417
12580W        W71841  18.582   0.797   2.394
12581W        W71842  21.156  10.221  14.029
12582W        W71843  14.105  13.829  14.284
12583W        W71844  41.331   3.260  14.941
12584W        W71845  14.232  28.502  13.454
12585W        W71846  33.062  25.676   1.806
12586W        W71847  18.662   2.253   2.294
12587W        W71848  26.583   7.336   4.347
12588W        W71849   1.736   6.317  14.821
12589W        W71850  27.653  11.235   0.831
12590W        W71851  24.644   1.783  12.426
12591W        W71852  29.103  27.019  11.402
12592W        W71853  11.787   0.483  14.420
12593W        W71854  33.591  30.505   2.706
12594W        W71855  11.135  43.983   3.271
12595W        W71856   5.810  13.796  10.546
12596W        W71857  35.897  13.143  14.966
12597W        W71858  38.393   2.261   0.416
12598W        W71859  13.662  27.153  12.377
12599W        W71860  40.427  16.215  13.334
12600W        W71861  38.974   7.259   1.697
12601W        W71862  15.298  38.516   4.784
12602W        W71863  14.095  11.670   2.769
12603W        W71864  17.616  15.249   2.401
12604W        W71865  28.931  15.668   0.930
12605W        W71866  27.567  43.894  10.951
12606W        W71867  43.839  30.093   3.319
12607W        W71868  38.951  14.286  14.479
12608W        W71869  27.999  30.924  14.340
12609W        W71870  31.146  12.262   4.707
12610W        W71871   6.779  26.168  10.480
12611W        W71872  24.226  12.700   3.704
12612W        W71873  36.373  34.047  10.473
12613W        W71874  36.874   8.757   4.788
12614W        W71875  10.244  34.003   4.242
12615W        W71876  15.632   6.397   2.222
12616W        W71877  39.380   6.396  14.403
12617W        W71878  11.679  18.722  14.348
12618W        W71879  32.902   3.900   0.945
12619W        W71880  24.098   3.879   0.327
12620W        W71881  24.568   9.645  10.571
12621W        W71882  38.944  30.466   1.853
12622W        W71883  30.461  29.587  11.902
12623W        W71884   7.300  42.481   4.756
12624W        W71885   2.747  23.993  11.520
12625W        W71886  39.897  13.601   3.798
12626W        W71887  37.857  15.797   1.335
12627W        W71888   8.365  17.676  13.964
12628W        W71889  16.082  40.508  11.486
12629W        W71890  11.227   7.866   1.906
12630W        W71891  29.958  43.895   2.336
12631W        W71892  41.430  36.043   2.391
12632W        W71893  25.988  29.170   0.441
12633W        W71894  34.524  34.958   4.280
12634W        W71895  14.827   5.210   0.323
12635W        W71896   4.269   0.889   4.153
12636W        W71897   1.354  24.591   2.266
12637W        W71898  35.911  15.290  10.568
12638W        W71899  34.971  37.423   3.631
12639W        W71900  19.252  35.449  13.541
12640W        W71901  10.253  27.068   1.317
12641W        W71902   6.365  31.921   4.237
12642W        W71903  26.016   7.769  12.358
12643W        W71904  36.410  32.571   3.673
12644W        W71905  11.171   1.427   4.729
12645W        W71906  29.953  23.989   3.778
12646W        W71907  12.801  22.108  12.412
12647W        W71908  17.624  21.140  13.541
12648W        W71909  29.517  37.458   2.738
12649W        W71910  35.934   1.849   4.190
12650W        W71911   1.835  17.595   3.666
12651W        W71912   2.800  24.078   0.894
12652W        W71913  19.732  12.825   4.177
12653W        W71914  34.886  30.977   0.297
12654W        W71915  13.232  36.379   4.148
12655W        W71916  36.438  24.659   3.829
12656W        W71917  33.553  10.752  12.850
12657W        W71918   9.752   9.217  13.454
12658W        W71919  37.495  28.543  10.991
12659W        W71920  15.210  13.254   3.203
12660W        W71921  20.265  33.072   4.620
12661W        W71922  43.493   5.922  13.402
12662W        W71923  24.617  31.468  13.335
12663W        W71924  24.006  42.876   1.252
12664W        W71925  37.370  23.680  12.544
12665W        W71926  34.575  37.570  10.415
12666W        W71927   8.798  41.398   0.309
12667W        W71928  15.608  38.907  13.412
12668W        W71929  25.161   8.199   4.641
12669W        W71930  36.056  14.206   3.183
12670W        W71931  40.523  24.539   4.235
12671W        W71932   4.412  40.811   2.236
12672W        W71933  29.580  33.966   3.751
12673W        W71934  39.880  30.624   4.598
12674W        W71935  25.983  14.312  13.944
12675W        W71936  18.133  10.343  14.840
12676W        W71937  30.590  43.359  13.502
12677W        W71938  19.755   3.420  14.775
12678W        W71939  13.141  16.656  10.405
12679W        W71940  12.133  20.095  10.619
12680W        W71941  28.480  11.785   1.411
12681W        W71942  27.672  15.093  11.015
12682W        W71943  38.479  24.202   4.179
12683W        W71944   8.802  11.688   3.816
12684W        W71945  41.790  33.626  10.500
12685W        W71946  25.053  12.302   0.815
12686W        W71947  27.614  20.632   3.777
12687W        W71948  28.443  17.066  11.006
12688W        W71949  26.547  20.075  13.482
12689W        W71950  17.156  24.700   2.807
12690W        W71951  22.691  32.976   2.183
12691W        W71952  19.061  30.952   2.400
12692W        W71953  28.480  18.632   0.922
12693W        W71954   4.745  16.787   3.780
12694W        W71955  36.944  24.051   1.810
12695W        W71956  27.171  24.072   4.701
12696W        W71957  18.195  38.436   1.291
12697W        W71958   2.887  13.644   4.616
12698W        W71959   7.793  18.133   2.857
12699W        W71960  20.028   6.910   1.780
12700W        W71961  19.265  10.306   2.817
12701W        W71962  35.098  11.826  10.918
12702W        W71963  43.279   5.294   0.344
12703W        W71964  19.687  33.897   3.275
12704W        W71965  41.434  17.631  14.994
12705W        W71966   8.374  37.028   0.775
12706W        W71967  43.307  36.072   3.366
12707W        W71968  28.034  12.222   1.798
12708W        W71969  23.734  19.220   1.428
12709W        W71970  31.152   8.218  11.560
12710W        W71971  36.385  20.156  12.857
12711W        W71972  15.113  11.361   1.863
12712W        W71973  16.208  23.094  12.079
12713W        W71974  41.495  35.045   2.319
12714W        W71975  43.808   2.380   0.427
12715W        W71976  44.932   4.244  12.007
12716W        W71977   6.702   9.871   9.538
12717W        W71978  37.512  39.349   1.443
12718W        W71979  19.283  38.355  13.993
12719W        W71980  22.644  11.802   2.837
12720W        W71981  40.910   4.442  14.868
12721W        W71982  18.065  44.435  11.037
12722W        W71983  23.189  28.632  12.426
12723W        W71984   1.929   9.806  10.991
12724W        W71985   1.972  41.879   1.910
12725W        W71986  44.481  43.797  13.385
12726W        W71987  23.162   7.912   1.310
12727W        W71988  37.981  37.059   5.144
12728W        W71989  29.427  30.943   3.777
12729W        W71990  39.322  36.862   1.417
12730W        W71991  36.844  42.934   4.814
12731W        W71992  41.954  22.555  11.023
12732W        W71993   5.731  36.463   1.232
12733W        W71994  22.007  29.453  14.018
12734W        W71995  41.452  21.159   2.238
12735W        W71996  14.713  30.651   1.281
12736W        W71997  14.306  30.558   4.128
12737W        W71998  16.197  35.932   4.307
12738W        W71999   1.770  33.582  14.897
12739W        W72000  37.937  32.491   4.796
12740W        W72001  24.068   4.762   5.097
12741W        W72002  22.514  34.401  10.906
12742W        W72003  22.196   6.323  12.047
12743W        W72004  38.361   2.413  13.904
12744W        W72005  27.128   7.683   3.386
12745W        W72006  10.327   4.402   0.336
12746W        W72007   2.757  31.638  11.023
12747W        W72008  34.613  36.051   1.320
12748W        W72009   1.261  24.155   4.727
12749W        W72010  21.189  31.472  11.043
12750W        W72011   2.785  31.958  12.885
12751W        W72012  21.703   4.387  13.049
12752W        W72013   9.209  23.009  13.392
12753W        W72014  32.128  39.439   4.771
12754W        W72015  30.057  36.850  13.918
12755W        W72016  27.471  30.973  11.864
12756W        W72017  12.684  26.622   3.712
12757W        W72018  26.590   4.412  12.052
12758W        W72019  35.376  28.595   4.159
12759W        W72020  35.484  11.633   0.846
12760W        W72021   4.306  26.671   1.412
12761W        W72022  16.152   9.362  10.960
12762W        W72023  27.979  10.647  12.950
12763W        W72024  29.517   2.929  10.046
12764W        W72025   0.344  28.630  12.558
12765W        W72026  12.676  11.720  14.000
12766W        W72027  12.830  22.672   1.806
12767W        W72028  12.799  34.993   2.242
12768W        W72029  38.905  25.151   9.535
12769W        W72030  21.210  27.195  11.124
12770W        W72031  44.489  26.030  10.907
12771W        W72032  28.967  28.485   4.629
12772W        W72033  24.060  36.065   0.797
12773W        W72034   0.919   4.763  10.143
12774W        W72035  38.537  37.439  13.856
12775W        W72036  34.378  29.573   4.735
12776W        W72037  33.067  44.341  11.118
12777W        W72038  19.579  12.216   4.793
12778W        W72039  30.498  30.927  12.982
12779W        W72040   6.747  29.013   3.806
12780W        W72041  24.155  43.974  11.467
12781W        W72042  23.640  41.402   1.399
12782W        W72043  27.680   0.836  13.427
12783W        W72044  16.193  30.442   2.297
12784W        W72045  42.018  39.383   0.351
12785W        W72046   2.955  19.769   0.842
12786W        W72047  25.552   7.835   3.224
12787W        W72048  24.052  19.762  10.430
12788W        W72049  15.133  19.107   2.321
12789W        W72050  30.638  20.115   3.673
12790W        W72051  12.721  12.280  10.458
12791W        W72052  13.629  37.515   0.833
12792W        W72053   4.778  15.200   0.438
12793W        W72054  44.483  12.662   0.942
12794W        W72055  43.860   6.395  13.356
12795W        W72056  27.197  24.216  13.487
12796W        W72057  40.521  31.130  14.466
12797W        W72058   1.878  20.545  11.947
12798W        W72059  41.381  42.786   2.670
12799W        W72060  26.985  18.707   3.697
12800W        W72061  39.347  24.512  10.090
12801W        W72062  20.593  23.526  11.030
12802W        W72063   4.298  42.996   1.826
12803W        W72064  22.615  23.621  13.356
12804W        W72065  34.924  23.241   0.960
12805W        W72066  36.061  19.539   0.810
12806W        W72067  25.580  39.361  14.938
12807W        W72068  22.100   1.481   1.765
12808W        W72069   4.404  34.522  13.319
12809W        W72070  33.016   5.245  13.536
12810W        W72071  24.568  11.865   3.671
12811W        W72072  38.834  22.538   3.306
12812W        W72073   3.251  30.928   0.884
12813W        W72074  40.353  12.823  12.391
12814W        W72075  15.595   0.838  13.904
12815W        W72076  10.765  24.500   2.760
12816W        W72077   8.332  38.540   4.730
12817W        W72078   8.262  41.856  11.932
12818W        W72079  20.679  18.553   2.228
12819W        W72080  21.560  19.081  13.986
12820W        W72081  27.594   1.804   1.810
12821W        W72082   5.365  14.325   4.192
12822W        W72083  11.346  13.800   3.155
12823W        W72084  30.068  11.761   2.779
12824W        W72085   4.261  27.562   2.354
12825W        W72086  29.152  42.415   0.324
12826W        W72087   8.825  33.401   2.412
12827W        W72088   9.666  21.625  12.000
12828W        W72089  36.362   2.909  10.454
12829W        W72090  10.273   5.750   4.641
12830W        W72091   9.205  42.033  10.899
12831W        W72092   2.439  32.951   2.325
12832W        W72093   7.671   9.373  10.567
12833W        W72094  22.156  36.449   4.743
12834W        W72095  14.276  34.387   9.925
12835W        W72096  20.230  11.240   4.342
12836W        W72097  28.456  32.075  11.484
12837W        W72098  11.667  34.066   0.303
12838W        W72099  32.610  41.511   1.799
12839W        W72100  24.545  32.886   2.815
12840W        W72101   6.237   7.763  13.862
12841W        W72102  23.113  28.572   1.399
12842W        W72103  44.343  39.381  14.769
12843W        W72104  37.516  40.542  13.512
12844W        W72105  12.193  38.896  11.474
12845W        W72106   0.320  38.325   1.929
12846W        W72107  16.088  29.123   4.279
12847W        W72108  28.127  10.735   3.147
12848W        W72109  32.016   0.795  13.868
12849W        W72110   5.233  33.026  14.873
12850W        W72111   8.330  30.914  12.528
12851W        W72112  25.165  32.556   1.410
12852W        W72113  21.565  10.811   3.718
12853W        W72114   4.905  44.909   3.707
12854W        W72115  31.995   2.910  10.927
12855W        W72116  43.305   5.317  14.426
12856W        W72117  29.538   3.302  13.846
12857W        W72118   4.266  37.418   2.382
12858W        W72119  28.464  43.016   1.442
12859W        W72120   1.800  10.681  10.994
12860W        W72121   0.873  36.903  11.124
12861W        W72122  34.118  10.807  13.482
12862W        W72123  25.127   9.861  14.509
12863W        W72124  13.620  24.219  11.518
12864W        W72125   6.326  31.928  11.114
12865W        W72126  32.983  11.277  12.840
12866W        W72127  33.567   5.835   0.868
12867W        W72128  33.613  33.426   3.822
12868W        W72129  26.590  32.029   5.679
12869W        W72130  44.313   6.360   1.733
12870W        W72131  16.800  23.133  13.029
12871W        W72132  15.765  12.666  14.856
12872W        W72133  35.501  27.535  11.921
12873W        W72134  12.127   5.774   2.871
12874W        W72135  18.206  42.509  11.444
12875W        W72136   9.699  25.218   4.255
12876W        W72137  13.150   6.319   2.720
12877W        W72138   7.225   3.918   3.307
12878W        W72139   6.263  31.631  14.866
12879W        W72140  24.692  18.755   4.264
12880W        W72141  16.234   1.325  11.554
12881W        W72142  41.031  38.876   1.374
12882W        W72143  33.064  19.189  14.282
12883W        W72144   9.275  34.956  10.993
12884W        W72145  15.189  25.119  14.308
12885W        W72146  39.379  39.481   1.390
12886W        W72147  31.487   2.810   3.789
12887W        W72148  37.858  28.489  13.477
12888W        W72149  44.831  25.488   4.317
12889W        W72150  21.557  24.590  10.421
12890W        W72151  17.245   5.240  14.446
12891W        W72152  44.317  25.142   0.886
12892W        W72153  10.700   8.691  11.984
12893W        W72154   3.768  40.947  12.449
12894W        W72155  10.324  43.503   4.655
12895W        W72156  24.551  24.196  12.865
12896W        W72157   4.204  32.923  12.843
12897W        W72158  23.710   8.184  13.420
12898W        W72159  17.742  14.627  11.064
12899W        W72160   0.780   5.320  12.079
12900W        W72161  12.306   7.217   3.162
12901W        W72162  23.608  33.877   0.928
12902W        W72163   8.818   3.370   2.293
12903W        W72164   2.760   2.961  12.419
12904W        W72165  30.612   1.875   0.357
12905W        W72166  17.126  43.400   0.425
12906W        W72167  34.081   0.754   1.290
12907W        W72168  39.850  34.884  13.882
12908W        W72169   0.813  10.658   2.287
12909W        W72170  24.509  37.999  11.017
12910W        W72171  20.115  30.060  11.989
12911W        W72172  39.350  26.039  14.442
12912W        W72173  10.239   8.168  13.384
12913W        W72174  25.676   1.735   1.324
12914W        W72175  26.998  24.142   1.338
12915W        W72176   5.387   6.766  13.973
12916W        W72177  35.977  34.565  13.400
12917W        W72178   3.296   4.934  10.554
12918W        W72179  17.061   1.758   3.281
12919W        W72180  22.715  19.094  12.361
12920W        W72181  22.012   8.322  13.467
12921W        W72182   5.317  41.376  13.353
12922W        W72183  33.972  12.653  13.465
12923W        W72184  28.004  43.470   0.748
12924W        W72185  26.986   1.444   0.760
12925W        W72186  44.905   4.772   0.477
12926W        W72187   6.352  16.800  11.861
12927W        W72188   5.228  39.446  14.819
12928W        W72189   7.379   9.392   2.668
12929W        W72190  21.252   3.738  13.798
12930W        W72191  44.456  33.459   0.833
12931W        W72192   7.782  22.061  12.071
12932W        W72193  12.797  41.464  12.023
12933W        W72194  25.069  15.119   0.755
12934W        W72195   7.702  22.545   1.404
12935W        W72196  20.751  26.173  12.964
12936W        W72197  25.144  32.113  12.454
12937W        W72198   0.279  29.007   0.831
12938W        W72199  28.935  22.678   4.346
12939W        W72200  38.828   1.338  10.493
12940W        W72201   8.190  15.306   1.882
12941W        W72202   1.405  16.143  12.090
12942W        W72203  22.605   4.364   4.154
12943W        W72204  33.545  29.516   1.279
12944W        W72205  23.060   6.857   1.377
12945W        W72206  22.152  20.234   3.748
12946W        W72207  37.004   7.250   0.357
12947W        W72208  44.284  28.078  11.007
12948W        W72209  31.965  20.160   3.183
12949W        W72210  26.694  16.698   0.438
12950W        W72211  14.657  40.423  10.110
12951W        W72212  13.801  42.934   1.211
12952W        W72213  30.907  36.023  12.512
12953W        W72214  11.639  41.327   2.870
12954W        W72215  31.437  31.609   1.214
12955W        W72216  38.324  26.963  12.970
12956W        W72217  41.793  40.488   0.257
12957W        W72218  40.365   9.791   2.399
12958W        W72219   3.324  23.001   4.271
12959W        W72220  42.304  19.658   3.799
12960W        W72221  27.616  37.495   2.721
12961W        W72222  34.434  19.079   2.320
12962W        W72223  24.508  25.053   4.709
12963W        W72224  27.981  24.124   2.240
12964W        W72225  14.110  35.421   2.259
12965W        W72226  13.333   5.276  14.327
12966W        W72227  22.618  12.699   1.408
12967W        W72228  31.099  14.196   0.830
12968W        W72229  30.514  29.460  12.506
12969W        W72230   7.766  14.633   1.746
12970W        W72231  23.109  36.935  12.573
12971W        W72232  32.122   8.269  13.004
12972W        W72233   6.267  21.053   1.256
12973W        W72234  14.826  27.468  13.510
12974W        W72235  26.470   8.696  13.878
12975W        W72236  42.398  21.600   3.846
12976W        W72237  43.010   7.911  10.527
12977W        W72238  29.936  27.467  13.340
12978W        W72239  11.788   3.944   1.772
12979W        W72240  17.101   0.410   0.844
12980W        W72241   0.914  24.043   2.291
12981W        W72242  28.494  19.548  11.393
12982W        W72243  23.144   6.184   2.852
12983W        W72244   9.712  24.224   2.722
12984W        W72245  27.045  13.830   3.802
12985W        W72246  34.047  30.141   3.340
12986W        W72247  21.556  27.989   2.785
12987W        W72248  41.436   8.714   1.221
12988W        W72249  19.616  19.197   2.697
12989W        W72250   9.334  18.285  12.069
12990W        W72251  28.456  32.595   4.191
12991W        W72252  17.271  23.671  12.500
12992W        W72253   7.719  37.979  11.396
12993W        W72254  16.197  25.645   4.689
12994W        W72255  24.032  44.981  13.801
12995W        W72256   7.414  35.047  12.495
12996W        W72257  35.940  36.575  13.959
12997W        W72258   1.923  18.127   4.801
12998W        W72259  15.594  31.121  11.390
12999W        W72260  42.026  24.027   4.221
13000W        W72261   8.744  29.166   1.851
13001W        W72262   5.746  28.608   0.436
13002W        W72263  10.679  44.758  11.906
13003W        W72264  33.517  30.597   4.777
13004W        W72265  29.001  23.011  14.305
13005W        W72266  16.678  11.741   3.860
13006W        W72267  26.021   9.686   2.792
13007W        W72268   1.737  26.692   4.755
13008W        W72269   2.773   9.197  13.903
13009W        W72270   9.727  23.994   0.445
13010W        W72271   4.934  11.659  12.976
13011W        W72272   2.878   7.393  13.490
13012W        W72273  31.476  14.733  14.463
13013W        W72274  32.443  40.392  13.807
13014W        W72275  42.314  36.402   2.331
13015W        W72276  23.605  13.137  12.501
13016W        W72277  42.795  31.996   3.787
13017W        W72278  11.153  10.227   2.319
13018W        W72279  44.947  23.491  14.815
13019W        W72280   9.226  35.911  11.024
13020W        W72281  28.563  15.184   3.167
13021W        W72282   9.804  36.358   2.364
13022W        W72283  27.941  30.581   0.818
13023W        W72284  27.017  37.494  11.600
13024W        W72285  22.610  41.437  12.873
13025W        W72286  11.131   3.803   0.450
13026W        W72287  15.759  36.419  14.349
13027W        W72288  26.100   9.156  12.985
13028W        W72289   1.362  14.246  13.906
13029W        W72290  40.882  23.597  10.626
13030W        W72291   3.307  12.787   3.679
13031W        W72292  41.506  37.441  13.498
13032W        W72293  34.573  32.511  12.341
13033W        W72294  40.801  12.317  10.479
13034W        W72295  32.955   7.366  13.430
13035W        W72296  42.899   4.770  13.517
13036W        W72297  43.272   2.298   2.724
13037W        W72298  17.244  40.349   3.175
13038W        W72299  24.524  37.003   4.211
13039W        W72300  25.646  18.238   0.965
13040W        W72301   7.705  11.629  11.380
13041W        W72302  42.301   3.279   5.130
13042W        W72303  18.219  43.963   4.326
13043W        W72304  41.415  36.448   4.626
13044W        W72305   8.342  24.199  11.859
13045W        W72306  38.384  18.752  13.938
13046W        W72307   6.350   4.837   0.947
13047W        W72308  13.709  26.516  14.916
13048W        W72309  24.491  26.952   2.395
13049W        W72310  44.929  22.633  10.921
13050W        W72311   7.273  12.144  11.997
13051W        W72312  31.570   8.801  12.848
13052W        W72313  10.755  36.980   0.431
13053W        W72314  14.660  41.494  14.002
13054W        W72315  15.319  36.536  10.511
13055W        W72316  27.190  41.845   2.865
13056W        W72317  14.687   2.466  11.058
13057W        W72318  43.969  15.631  14.512
13058W        W72319   5.225  21.107  11.403
13059W        W72320  41.470  14.614   5.180
13060W        W72321  24.108  40.486   3.334
13061W        W72322  41.482  21.039   2.889
13062W        W72323   1.922  31.024  13.423
13063W        W72324  11.722  26.140   1.396
13064W        W72325  28.997  13.220   3.730
13065W        W72326  38.498  20.759   1.741
13066W        W72327  35.434  14.283  14.471
13067W        W72328   7.902  24.127  13.402
13068W        W72329  32.626  24.527  10.618
13069W        W72330  33.892  37.891  12.405
13070W        W72331  11.232  17.183   2.304
13071W        W72332  13.110  21.748  10.430
13072W        W72333  38.979   9.644   0.767
13073W        W72334  31.586  42.994  10.910
13074W        W72335  14.150   0.986   3.692
13075W        W72336  26.601   0.443   2.330
13076W        W72337  36.045  44.780  10.999
13077W        W72338  43.404   9.851   4.632
13078W        W72339  14.115  24.132  11.507
13079W        W72340   9.291  14.212  12.936
13080W        W72341   5.368  23.115  11.376
13081W        W72342  21.623  13.738  14.770
13082W        W72343  42.787  35.976  13.054
13083W        W72344  16.768  10.154   4.792
13084W        W72345  25.180  32.562  14.942
13085W        W72346  17.689   4.858   9.637
13086W        W72347  30.151  40.051  10.504
13087W        W72348  24.556  40.331   1.313
13088W        W72349  22.060  24.489   2.781
13089W        W72350  35.561  43.336  13.031
13090W        W72351  20.066  39.952  12.426
13091W        W72352  14.327  29.448  13.354
13092W        W72353  26.650  29.640  10.446
13093W        W72354  38.564  20.612  14.283
13094W        W72355  33.569  25.997  11.893
13095W        W72356  29.164  12.169   4.247
13096W        W72357  33.100  17.079  10.479
13097W        W72358  38.994  33.980  14.831
13098W        W72359  36.987  23.049  12.554
13099W        W72360  26.681  29.535   3.636
13100W        W72361  17.138  40.867   1.934
13101W        W72362  31.433   0.795  14.915
13102W        W72363   5.233  30.459  13.859
13103W        W72364  24.121  33.028   2.251
13104W        W72365   2.325  40.455   3.304
13105W        W72366  12.698  10.827  14.951
13106W        W72367  28.931  44.813   2.366
13107W        W72368  20.728   0.429  11.450
13108W        W72369  44.369   2.347  13.981
13109W        W72370  25.710  34.510  10.940
13110W        W72371  31.412  16.772  14.385
13111W        W72372  20.100  43.877  11.539
13112W        W72373  35.436   7.339   1.352
13113W        W72374  18.116   3.315   2.689
13114W        W72375   4.340  20.734   3.252
13115W        W72376  17.115  11.625   4.189
13116W        W72377  10.269  23.499   2.876
13117W        W72378  29.584  36.041   5.283
13118W        W72379  35.437  32.453   4.824
13119W        W72380  34.913   5.734  10.510
13120W        W72381   9.648  41.935  10.441
13121W        W72382   9.829  10.152   0.881
13122W        W72383   8.382  19.207  13.428
13123W        W72384  10.730  11.800   2.195
13124W        W72385   3.226  12.302   1.705
13125W        W72386  42.972  21.051   5.180
13126W        W72387  35.925  12.236   3.180
13127W        W72388  22.690   0.257   4.606
13128W        W72389  38.052   3.758   4.757
13129W        W72390   0.458  36.570   1.787
13130W        W72391  44.813  24.647   4.701
13131W        W72392   8.243  11.274   3.302
13132W        W72393  38.456  19.069   1.291
13133W        W72394   8.207  25.643   3.343
13134W        W72395  28.446  32.025   4.156
13135W        W72396   1.828  22.685   4.268
13136W        W72397   4.391   4.752   0.248
13137W        W72398  40.860  28.635   0.387
13138W        W72399  17.128   9.165  14.975
13139W        W72400   7.823  22.143   1.436
13140W        W72401  19.209   4.738  10.987
13141W        W72402   7.406  34.483  12.063
13142W        W72403  39.345  39.814  10.574
13143W        W72404  38.866  28.662   3.752
13144W        W72405  42.498  41.910   3.736
13145W        W72406  28.944  23.662  13.532
13146W        W72407  32.586  29.614  12.006
13147W        W72408   0.256  19.056  14.387
13148W        W72409   9.746  29.574  11.014
13149W        W72410  43.476   0.765  11.931
13150W        W72411  10.258  23.538  11.602
13151W        W72412  20.584  28.532   0.345
13152W        W72413   8.830  18.762   3.310
13153W        W72414  33.120  34.039   3.273
13154W        W72415  16.614  15.271   2.316
13155W        W72416  41.804  22.671   0.799
13156W        W72417  19.146  24.688  14.335
13157W        W72418  33.895  43.942  14.502
13158W        W72419  43.790  11.247  12.523
13159W        W72420  35.879   4.241  11.470
13160W        W72421  43.400  21.726  10.962
13161W        W72422  25.468  13.139   0.888
13162W        W72423  22.515   1.382   4.820
13163W        W72424  37.867  36.957  13.865
13164W        W72425   8.322   1.894  11.566
13165W        W72426   8.194  30.557  14.359
13166W        W72427   4.722   2.755  14.899
13167W        W72428  22.007   3.869  10.454
13168W        W72429  11.193  42.790  14.442
13169W        W72430  26.191  20.093   0.966
13170W        W72431   6.858  19.649  11.079
13171W        W72432  31.469  28.048  14.830
13172W        W72433  23.623  17.297  11.076
13173W        W72434  41.451  36.513  11.102
13174W        W72435  19.249  12.828  10.992
13175W        W72436  44.467  44.769   1.224
13176W        W72437  21.551  43.981   4.320
13177W        W72438  26.696  24.653  13.377
13178W        W72439  33.396  30.601   5.147
13179W        W72440  37.918  38.509  10.443
13180W        W72441  12.762   4.767   1.242
13181W        W72442  40.955  44.936   1.234
13182W        W72443  40.832  44.291  14.929
13183W        W72444  33.418  15.237   1.370
13184W        W72445  15.285  13.662  10.605
13185W        W72446   8.264  41.376  10.473
13186W        W72447  19.726   9.704   2.196
13187W        W72448  25.628  36.558   0.891
13188W        W72449  36.397  19.733   4.789
13189W        W72450  25.607  11.670  14.977
13190W        W72451  14.637   5.244   5.701
13191W        W72452  27.121  11.685   0.252
13192W        W72453   7.310   0.853   4.821
13193W        W72454  13.815  20.764  13.336
13194W        W72455  26.469   8.810  12.887
13195W        W72456  29.434  27.148  10.452
13196W        W72457   4.262  25.588  12.998
13197W        W72458  21.606   5.220  12.016
13198W        W72459  41.031   7.698   1.877
13199W        W72460  14.272  41.880  11.488
13200W        W72461  22.009  40.956   1.890
13201W        W72462  25.571   8.166   3.178
13202W        W72463   7.835  43.916  14.381
13203W        W72464  23.564  17.277   4.797
13204W        W72465  13.801   6.708   0.403
13205W        W72466  37.874  35.995   1.722
13206W        W72467  33.888  20.080  13.448
13207W        W72468  14.596   6.889   0.283
13208W        W72469  19.699   7.182   3.852
13209W        W72470  12.320  17.170  11.941
13210W        W72471  14.597  18.583   0.835
13211W        W72472  28.602  14.151   3.741
13212W        W72473  31.106   0.897   0.455
13213W        W72474  22.720  38.382  12.934
13214W        W72475  37.987  25.478  11.430
13215W        W72476  13.175   9.329  14.336
13216W        W72477  20.677  30.651   3.789
13217W        W72478   3.934  42.830  10.626
13218W        W72479  27.522   7.829  10.497
13219W        W72480  26.602  41.296   2.292
13220W        W72481  29.521   2.286  11.522
13221W        W72482  26.020  10.169   3.384
13222W        W72483  27.105   1.299   2.414
13223W        W72484   0.380  31.091  14.806
13224W        W72485  11.278  22.545   3.673
13225W        W72486  13.764  33.943   1.737
13226W        W72487  24.155  40.804  11.426
13227W        W72488  24.675  15.784  14.399
13228W        W72489  30.975  17.733  14.845
13229W        W72490  26.151  34.911   2.288
13230W        W72491  11.360  19.191   1.287
13231W        W72492  25.210  44.982  11.878
13232W        W72493  24.185  38.900   0.397
13233W        W72494   5.293  12.650   0.882
13234W        W72495  13.778  17.099  10.581
13235W        W72496  17.760  23.227   2.278
13236W        W72497  13.662   4.928   1.227
13237W        W72498  27.167  27.683   4.141
13238W        W72499  27.522  21.056   1.698
13239W        W72500  24.171  24.996   0.803
13240W        W72501  12.151   0.779  14.766
13241W        W72502  28.495  30.114   2.312
13242W        W72503  27.147  20.686  13.494
13243W        W72504  40.392  36.591   2.903
13244W        W72505  20.711  21.664  12.960
13245W        W72506  26.525  33.562   1.359
13246W        W72507  16.158  41.436  10.439
13247W        W72508  30.649  23.736  11.480
13248W        W72509   3.770  16.289  10.627
13249W        W72510  33.042  25.035  13.802
13250W        W72511  13.838   7.406  13.817
13251W        W72512  34.377  15.244  13.528
13252W        W72513  26.975  31.431  13.449
13253W        W72514   5.324  19.679   2.839
13254W        W72515  35.052  44.469   3.824
13255W        W72516  16.243  28.117   3.210
13256W        W72517   7.803   3.313   1.736
13257W        W72518   0.874  32.453   2.896
13258W        W72519   0.345  32.580   0.828
13259W        W72520  24.547  32.518   1.858
13260W        W72521  33.616  40.459   4.209
13261W        W72522  21.261  24.531  14.313
13262W        W72523  37.502  33.094  11.435
13263W        W72524  11.829  26.953   1.915
13264W        W72525  26.663   8.399  14.896
13265W        W72526  41.838  39.960  13.801
13266W        W72527  39.475  29.519   2.301
13267W        W72528  15.665   2.798   1.409
13268W        W72529   9.259  17.606   2.751
13269W        W72530  12.241  29.020  12.369
13270W        W72531  30.047  38.497  11.051
13271W        W72532  15.268  14.114   3.772
13272W        W72533  38.419   2.305  11.399
13273W        W72534  36.914  20.637   2.285
13274W        W72535  28.551   8.719  10.502
13275W        W72536  21.580  32.015   1.305
13276W        W72537   2.341  38.862   4.125
13277W        W72538  27.500  42.908   0.873
13278W        W72539  42.845  31.551   4.170
13279W        W72540  44.312  17.203   3.707
13280W        W72541   7.300   8.762   0.841
13281W        W72542  43.946   1.424   1.295
13282W        W72543  44.452  15.660   2.395
13283W        W72544  20.634  41.421  11.386
13284W        W72545  12.295   0.402   2.299
13285W        W72546   9.856  38.049  12.911
13286W        W72547   0.276  37.070   5.098
13287W        W72548  18.186  10.199   0.402
13288W        W72549  43.271  43.424   0.745
13289W        W72550  33.486  39.412  13.929
13290W        W72551  15.203  24.008   0.392
13291W        W72552  29.499  14.834  14.922
13292W        W72553  22.155  15.242   4.195
13293W        W72554  35.009  20.122  10.598
13294W        W72555  24.000  17.600   3.212
13295W        W72556   3.849   4.889  11.931
13296W        W72557  11.306   7.363   3.289
13297W        W72558  39.066  41.411  12.571
13298W        W72559  16.678  27.154   2.711
13299W        W72560  42.468  20.134   3.836
13300W        W72561  38.002  21.229  14.928
13301W        W72562  30.583  17.096   2.393
13302W        W72563   2.894  10.215  12.547
13303W        W72564   2.423   4.875   3.206
13304W        W72565   9.792  39.043   1.302
13305W        W72566   7.856  20.212   3.219
13306W        W72567  17.617  22.228   2.678
13307W        W72568  29.592   3.396   4.140
13308W        W72569   6.318  28.960  12.875
13309W        W72570  39.315  27.544   1.850
13310W        W72571  17.641  16.653   4.758
13311W        W72572   0.868  29.095   2.414
13312W        W72573  34.960  28.092  11.090
13313W        W72574  19.564  35.438   1.316
13314W        W72575  35.093  10.765  13.978
13315W        W72576  43.348   4.700   1.857
13316W        W72577  29.646  44.329   1.880
13317W        W72578  10.193  38.969   0.912
13318W        W72579   7.765  26.072  10.597
13319W        W72580  25.147  36.099   2.774
13320W        W72581  43.356  40.009   4.615
13321W        W72582  13.599  30.616  13.063
13322W        W72583   7.175  27.014   0.291
13323W        W72584  33.481  31.623   0.479
13324W        W72585   3.305   7.191  12.503
13325W        W72586  43.931  28.474   4.252
13326W        W72587   3.257  29.525   2.838
13327W        W72588  13.762  15.191  12.025
13328W        W72589   6.679  12.753   4.200
13329W        W72590  16.297  10.795  12.486
13330W        W72591  10.878  18.112   3.705
13331W        W72592  12.203  10.329  13.007
13332W        W72593  18.601  27.045  10.938
13333W        W72594  16.119   4.231   3.332
13334W        W72595  28.112  14.167  10.526
13335W        W72596  23.571  36.886   0.408
13336W        W72597  11.331  30.426   3.149
13337W        W72598  22.098   2.347   3.278
13338W        W72599  13.824  24.985  13.376
13339W        W72600  29.170  31.978  12.942
13340W        W72601  38.945  39.000  12.971
13341W        W72602   8.299  44.857  14.498
13342W        W72603  37.889   5.226   4.306
13343W        W72604  25.023  33.997   4.803
13344W        W72605  44.973  19.745   1.908
13345W        W72606  19.150  10.673   1.298
13346W        W72607  31.993  15.251  12.014
13347W        W72608  24.525  13.622  14.504
13348W        W72609  33.416  17.225  10.614
13349W        W72610  42.461  29.962   0.953
13350W        W72611  26.503  23.177   3.753
13351W        W72612  27.024  12.782  13.462
13352W        W72613  19.661  12.177   1.267
13353W        W72614  39.987   8.738   0.906
13354W        W72615  18.675  39.401   4.157
13355W        W72616  25.508   6.803  13.982
13356W        W72617  16.606  44.898  13.491
13357W        W72618  11.196  18.187   0.760
13358W        W72619  16.672   9.844  11.459
13359W        W72620  25.995  29.961   9.949
13360W        W72621  35.881   4.716  13.897
13361W        W72622  40.517  33.128  13.449
13362W        W72623  22.694  12.751   3.381
13363W        W72624  38.843  23.067  11.932
13364W        W72625  23.126  28.474  13.311
13365W        W72626  20.216  34.897   1.801
13366W        W72627  12.242  33.528   0.767
13367W        W72628  44.867  24.119  13.850
13368W        W72629   3.251  16.151   0.450
13369W        W72630  30.966   7.295   1.745
13370W        W72631  40.823   9.347   3.730
13371W        W72632  21.182  36.523   2.849
13372W        W72633  35.876  20.736   3.831
13373W        W72634  30.039  18.608   0.899
13374W        W72635   2.291  34.979  13.545
13375W        W72636  43.447   2.958   1.275
13376W        W72637  32.460  35.039   3.359
13377W        W72638   5.414  13.201  13.944
13378W        W72639  29.609  39.987  14.420
13379W        W72640  16.711  21.736   2.219
13380W        W72641  13.704  25.555  11.558
13381W        W72642  40.379   3.779   1.859
13382W        W72643  43.878   1.430  12.050
13383W        W72644  29.464  34.512   2.362
13384W        W72645  32.555  19.158  14.492
13385W        W72646  21.697   2.875   2.189
13386W        W72647  33.615  31.978   4.339
13387W        W72648  27.584  17.148  13.020
13388W        W72649  43.924   2.739  11.036
13389W        W72650  14.609  37.843   4.304
13390W        W72651  31.044  10.249   3.307
13391W        W72652   1.752  20.657  12.845
13392W        W72653  18.101  42.446  12.013
13393W        W72654  37.836  40.426   4.199
13394W        W72655  29.667  23.620   4.128
13395W        W72656  35.414  27.610   0.753
13396W        W72657  23.128  34.973   1.808
13397W        W72658  24.102  28.972  11.031
13398W        W72659  39.451  42.848   0.319
13399W        W72660  43.341  18.652   2.892
13400W        W72661  17.197  13.810  13.985
13401W        W72662  16.270   3.760  13.946
13402W        W72663  41.881  24.638   2.723
13403W        W72664   6.804  35.050  12.927
13404W        W72665  33.126  44.354  10.621
13405W        W72666  36.566   2.782  11.577
13406W        W72667  36.944   3.816  11.094
13407W        W72668  36.010   1.857   3.248
13408W        W72669  39.547   6.398   3.201
13409W        W72670  18.147   0.419  14.027
13410W        W72671  10.293  26.025  14.361
13411W        W72672  28.597  17.663  11.451
13412W        W72673  29.114   8.370   3.867
13413W        W72674  27.644  32.565   3.734
13414W        W72675  32.944  18.228  12.089
13415W        W72676  43.872  34.468   2.843
13416W        W72677  21.650  43.456   2.323
13417W        W72678  18.752  23.667  10.509
13418W        W72679  40.535  14.647  11.401
13419W        W72680  18.571  44.409   1.902
13420W        W72681  39.816   9.269   3.200
13421W        W72682  34.094  21.521  14.939
13422W        W72683  24.120   5.403   1.754
13423W        W72684  44.475   1.402   2.902
13424W        W72685  38.954   2.258  12.944
13425W        W72686  13.245  44.500   0.798
13426W        W72687  41.986  22.629  11.594
13427W        W72688  39.992  16.274   0.256
13428W        W72689  30.102  43.765  10.922
13429W        W72690   3.779  21.732   0.421
13430W        W72691  27.073   5.371   0.821
13431W        W72692  22.715  29.646  13.424
13432W        W72693  21.260  29.166   1.354
13433W        W72694  37.374  39.996   1.267
13434W        W72695  16.620  22.531  14.885
13435W        W72696   9.196  28.571   0.751
13436W        W72697  36.530  33.395   4.801
13437W        W72698  11.658  12.203   1.920
13438W        W72699  35.965   5.343   2.347
13439W        W72700  40.034  25.587   2.735
13440W        W72701  14.647  39.900  10.902
13441W        W72702  11.328   1.881  12.897
13442W        W72703  10.685  23.005  13.418
13443W        W72704   3.828  43.973  12.848
13444W        W72705   9.317  21.738   0.373
13445W        W72706  19.168  33.397  13.896
13446W        W72707  20.267  23.615   0.333
13447W        W72708  16.613  42.435   3.820
13448W        W72709   5.289  21.512   0.391
13449W        W72710   3.441  33.592   2.719
13450W        W72711  36.071  32.583  13.812
13451W        W72712   0.856  13.122   0.372
13452W        W72713  31.090  12.285   0.731
13453W        W72714   0.253  18.775   2.760
13454W        W72715   2.877  24.001  11.100
13455W        W72716  44.299  34.031  14.390
13456W        W72717  38.526  24.993  12.038
13457W        W72718  44.340  32.013  14.931
13458W        W72719   6.896  12.283  11.978
13459W        W72720  42.503  25.683   0.838
13460W        W72721  38.954  17.722   1.785
13461W        W72722   5.828  17.289   1.706
13462W        W72723  34.974  38.390  14.516
13463W        W72724   9.282  14.109  14.784
13464W        W72725  42.344  29.464   2.691
13465W        W72726   4.914  39.848   5.096
13466W        W72727  18.734  15.094  12.055
13467W        W72728  26.518  34.946   3.189
13468W        W72729  22.129  28.004  12.560
13469W        W72730  43.767   9.385  14.816
13470W        W72731  11.662  16.732  13.926
13471W        W72732  35.092  28.039  13.905
13472W        W72733  42.446  26.545  12.471
13473W        W72734  31.458  23.064  12.564
13474W        W72735  26.960  29.146  12.430
13475W        W72736  21.082  36.047   2.777
13476W        W72737  34.882  16.605  14.313
13477W        W72738   2.231  41.804   3.647
13478W        W72739  43.938  10.197  14.812
13479W        W72740  32.427  16.301   2.875
13480W        W72741  43.482  32.983   3.686
13481W        W72742  26.967  25.640   3.329
13482W        W72743  40.902  10.776   1.697
13483W        W72744   4.849  12.752   0.443
13484W        W72745  41.486  42.322   3.847
13485W        W72746   8.872  12.307  11.944
13486W        W72747  40.999  21.017   3.767
13487W        W72748   9.875  20.577  12.465
13488W        W72749  44.429   0.335   5.320
13489W        W72750   3.298   1.783   2.418
13490W        W72751   7.741  28.616  14.482
13491W        W72752  26.005  11.830   1.291
13492W        W72753  11.844   4.438   3.202
13493W        W72754  41.885  22.123  13.962
13494W        W72755  41.415  29.439  13.412
13495W        W72756   5.866   3.831   2.866
13496W        W72757  11.779  43.817  10.474
13497W        W72758  19.629   6.851   1.394
13498W        W72759  27.097  22.729   2.391
13499W        W72760  39.808  17.721  11.901
13500W        W72761   2.404  26.632   1.752
13501W        W72762  28.168  22.586  11.031
13502W        W72763  35.423  33.462  12.952
13503W        W72764  26.063  44.423  14.404
13504W        W72765  11.317  43.486   3.274
13505W        W72766  14.744  29.142   1.445
13506W        W72767  38.497  43.929  11.499
13507W        W72768  22.035  28.951  10.554
13508W        W72769   4.744  16.128  12.940
13509W        W72770  12.283  26.164   4.690
13510W        W72771  22.558  29.479   3.820
13511W        W72772  37.868  22.045  14.346
13512W        W72773  29.920   8.222   3.289
13513W        W72774  18.561  25.133   3.200
13514W        W72775  36.080  11.648   2.395
13515W        W72776  42.364  24.107  11.959
13516W        W72777  23.148  29.069  10.940
13517W        W72778  10.714  33.548  11.581
13518W        W72779  23.004  38.552   3.816
13519W        W72780  12.278  41.884   4.260
13520W        W72781  21.102   0.906  14.999
13521W        W72782  14.610  37.006  14.989
13522W        W72783  17.071  31.952   1.371
13523W        W72784  20.044   5.374   2.322
13524W        W72785  39.843  23.672  12.413
13525W        W72786  29.114  42.363  10.546
13526W        W72787  27.991  22.558  12.040
13527W        W72788   3.457  34.905   3.347
13528W        W72789  36.525  44.398   1.350
13529W        W72790  13.668  36.379   1.799
13530W        W72791   7.770   1.283   1.420
13531W        W72792  22.247  37.977   4.212
13532W        W72793  27.509  36.029   2.265
13533W        W72794  32.118   8.868   3.842
13534W        W72795  14.654  41.481  12.566
13535W        W72796  15.694  26.583  12.897
13536W        W72797  28.101  23.169  11.510
13537W        W72798  25.094   1.943  12.374
13538W        W72799  21.735  11.858   3.371
13539W        W72800  23.059  27.133  13.018
13540W        W72801   3.229  12.197  11.114
13541W        W72802  35.022  25.713   2.869
13542W        W72803  16.312  30.419  14.438
13543W        W72804  27.159  32.471   2.288
13544W        W72805  19.541  17.197  12.534
13545W        W72806  39.015  16.134  13.374
13546W        W72807  43.346  26.564   0.379
13547W        W72808  32.538  20.247  12.055
13548W        W72809  13.769  13.170   2.377
13549W        W72810   7.698  34.987   2.802
13550W        W72811   8.836  36.866  14.463
13551W        W72812  37.402  24.543   3.758
13552W        W72813  34.942  18.594   2.244
13553W        W72814  37.518   2.336   2.750
13554W        W72815   2.783  37.450   2.240
13555W        W72816  18.222  38.877  11.513
13556W        W72817  38.513  14.809  14.345
13557W        W72818  30.048  22.010  11.463
13558W        W72819  33.551   9.273  14.399
13559W        W72820  23.681  24.986   3.245
13560W        W72821  24.611  35.575   3.277
13561W        W72822   4.840  25.039   1.918
13562W        W72823  36.559  20.030  11.547
13563W        W72824  40.800  17.731  12.926
13564W        W72825  44.377   5.820  12.832
13565W        W72826  42.846   6.337  14.973
13566W        W72827  19.100   6.301   0.951
13567W        W72828  23.073  10.288  13.008
13568W        W72829  19.127  11.279   3.353
13569W        W72830   6.181  12.719   1.789
13570W        W72831  11.779  30.931   2.900
13571W        W72832  17.730   0.879   4.257
13572W        W72833   4.287  40.516  12.427
13573W        W72834  28.441  34.375   3.797
13574W        W72835  35.005  22.066   3.647
13575W        W72836  20.064  11.844  11.526
13576W        W72837  32.009   8.301  11.986
13577W        W72838  17.206  40.522   0.455
13578W        W72839  12.643  10.309   0.759
13579W        W72840   6.755  41.807   2.880
13580W        W72841   8.871  11.167   2.828
13581W        W72842  32.601  24.033   3.852
13582W        W72843  16.605  42.002  14.456
13583W        W72844  36.463  36.369   4.236
13584W        W72845  22.071   1.823   1.439
13585W        W72846  36.548  33.568   4.151
13586W        W72847  41.993  28.448   9.532
13587W        W72848  17.786  39.342  12.885
13588W        W72849  39.364   2.328  12.081
13589W        W72850  37.892  31.500   0.423
13590W        W72851  44.888  20.040   3.732
13591W        W72852   8.218   9.716   5.214
13592W        W72853  30.063  36.353   0.474
13593W        W72854  31.090  35.552   2.771
13594W        W72855  17.735  17.691   0.282
13595W        W72856  33.906  41.407   4.305
13596W        W72857  15.699  14.113   4.259
13597W        W72858  42.514   2.280  12.386
13598W        W72859   6.704  14.721   2.244
13599W        W72860   4.281  18.594  11.887
13600W        W72861  31.647  40.902   0.479
13601W        W72862  37.057  25.200   2.883
13602W        W72863   6.398  37.048  14.413
13603W        W72864  32.577   6.723  12.536
13604W        W72865  43.786  43.868   2.822
13605W        W72866  38.524  24.630   2.737
13606W        W72867   3.337  42.859   0.370
13607W        W72868  24.010  28.098  12.030
13608W        W72869  43.847  31.606  14.442
13609W        W72870  24.563  44.459  12.943
13610W        W72871   1.308  20.061   3.863
13611W        W72872  16.269  31.013  11.952
13612W        W72873  21.603  44.265  13.912
13613W        W72874  32.070  21.096   0.726
13614W        W72875  39.024  10.664   0.926
13615W        W72876   1.359   1.366   2.326
13616W        W72877   9.275  10.872  13.942
13617W        W72878  15.792  13.638   0.770
13618W        W72879  39.438  23.600  14.301
13619W        W72880  10.245   2.944   0.271
13620W        W72881  30.929  34.005   3.799
13621W        W72882  33.122  37.529   2.303
13622W        W72883  35.863  35.420  11.550
13623W        W72884   4.367  18.150  14.394
13624W        W72885  44.475  29.121  14.976
13625W        W72886  39.012  32.105   0.865
13626W        W72887  28.031  30.431   3.310
13627W        W72888   7.746  38.002   0.949
13628W        W72889  31.113  42.889   1.857
13629W        W72890  26.634  25.002  11.380
13630W        W72891   6.362   0.960   2.734
13631W        W72892   0.788   6.800  12.918
13632W        W72893  11.721  44.360   0.848
13633W        W72894   2.262  43.941  10.966
13634W        W72895  35.924  30.611  14.304
13635W        W72896  24.196  37.393   4.799
13636W        W72897  27.058  36.394   4.267
13637W        W72898  42.414   9.703   4.619
13638W        W72899  37.949  17.582  12.570
13639W        W72900  15.231  38.070  11.484
13640W        W72901  32.623  34.038   2.841
13641W        W72902  33.951  32.004   2.350
13642W        W72903  22.663  32.622   1.735
13643W        W72904  16.712  24.123  12.476
13644W        W72905  34.934   3.895   4.153
13645W        W72906  40.946  30.099   0.779
13646W        W72907   5.345   7.798  14.893
13647W        W72908   2.392  16.584  14.301
13648W        W72909   8.844   1.872  13.381
13649W        W72910  26.143  18.102   0.815
13650W        W72911  35.554  28.501  14.427
13651W        W72912  25.086  15.249   3.224
13652W        W72913  38.377  24.692  14.437
13653W        W72914  25.166   5.768  11.372
13654W        W72915  34.108  12.801  14.410
13655W        W72916  20.044  25.657   4.233
13656W        W72917  29.117  31.488   4.140
13657W        W72918  35.000   6.419   1.270
13658W        W72919  26.983  41.472  10.478
13659W        W72920   3.338  44.940   4.758
13660W        W72921  30.048   0.798  11.523
13661W        W72922  13.823  22.050   0.378
13662W        W72923  39.867   0.352   4.244
13663W        W72924  22.217  28.576  11.907
13664W        W72925  39.437  19.584   1.900
13665W        W72926   8.206  30.476   4.618
13666W        W72927  32.395  24.692   3.293
13667W        W72928   0.407  18.771   3.209
13668W        W72929  11.227  24.988   3.867
13669W        W72930   9.327  18.708   0.378
13670W        W72931  37.833  17.144   1.439
13671W        W72932   8.742  14.102  13.064
13672W        W72933   1.765  42.820   3.221
13673W        W72934  38.430  41.822   2.858
13674W        W72935  28.005   7.753   4.671
13675W        W72936   1.740  42.508   0.363
13676W        W72937  23.000  25.667   3.772
13677W        W72938   8.360  22.122   4.198
13678W        W72939  43.303   5.851  13.822
13679W        W72940   8.868  20.533  10.478
13680W        W72941  26.576  25.055  12.571
13681W        W72942   5.321   6.393   5.097
13682W        W72943  33.561   5.799   2.811
13683W        W72944  22.046  18.250   1.809
13684W        W72945  17.566  39.446   1.757
13685W        W72946  34.951   8.817  10.459
13686W        W72947   4.855   4.380   2.295
13687W        W72948  24.577  34.086  13.424
13688W        W72949   4.364  32.966  10.989
13689W        W72950   1.968  21.716  14.357
13690W        W72951   0.969   3.249   5.100
13691W        W72952  18.271   4.836  11.376
13692W        W72953  22.533  37.953   4.808
13693W        W72954  13.674   9.761   0.728
13694W        W72955  24.073   0.958  11.988
13695W        W72956  16.615  38.367   1.363
13696W        W72957  32.498  37.998  13.805
13697W        W72958   3.423   0.755   5.120
13698W        W72959  44.487  41.418  14.343
13699W        W72960   3.770  44.470   4.161
13700W        W72961   5.775  12.843   4.336
13701W        W72962   2.865  37.558  14.021
13702W        W72963  33.461  34.924  12.382
13703W        W72964   3.286  35.933  11.485
13704W        W72965  13.171   4.747   1.716
13705W        W72966  21.672  16.589   3.193
13706W        W72967  24.684  27.560   2.674
13707W        W72968  23.129  41.795   1.286
13708W        W72969   2.259  27.046   0.257
13709W        W72970  36.955  12.794   2.357
13710W        W72971  19.218  40.877  10.952
13711W        W72972  11.849  42.397  14.461
13712W        W72973  22.105  11.305  12.978
13713W        W72974  28.456  32.957   1.823
13714W        W72975   6.904  12.277  13.411
13715W        W72976  21.234  19.778   3.320
13716W        W72977  38.333  22.137   3.231
13717W        W72978  29.131  37.997   2.391
13718W        W72979  29.150  29.935  10.604
13719W        W72980  23.058  41.334   0.809
13720W        W72981  28.165  41.963   1.908
13721W        W72982  18.119  44.955   0.843
13722W        W72983  18.188  40.802  10.589
13723W        W72984  41.972  38.403  13.932
13724W        W72985  25.665  35.979  12.018
13725W        W72986  34.050   2.423  14.309
13726W        W72987   9.263   6.859  12.540
13727W        W72988   1.802  35.512   4.294
13728W        W72989  36.434  32.112   4.797
13729W        W72990   6.681  14.165  12.509
13730W        W72991  17.627  40.900  10.921
13731W        W72992  29.987  24.716   3.280
13732W        W72993   6.295   9.326  12.562
13733W        W72994   0.803  12.164  11.588
13734W        W72995  43.392  37.355  11.905
13735W        W72996   4.714  25.508   3.181
13736W        W72997  37.562  41.324  10.589
13737W        W72998  26.183  17.079  14.016
13738W        W72999   2.802  29.448   1.428
13739W        W73000  21.220  21.520   3.194
13740W        W73001  12.670   9.702  13.404
13741W        W73002  18.213  15.732  13.003
13742W        W73003  22.611   8.385   3.805
13743W        W73004  25.546  17.220   2.696
13744W        W73005   1.918   1.868  11.860
13745W        W73006  36.458  15.310   1.355
13746W        W73007  35.099   5.742  13.034
13747W        W73008  11.184  10.743  11.042
13748W        W73009  11.223   5.407   5.605
13749W        W73010  14.253  22.677   2.418
13750W        W73011  30.637  31.956   4.234
13751W        W73012   7.238  25.589  10.588
13752W        W73013  25.200  36.426  11.402
13753W        W73014  25.690  43.859   3.310
13754W        W73015  34.585  22.153  14.396
13755W        W73016  35.380  17.160   4.780
13756W        W73017  13.665  32.941   4.174
13757W        W73018  18.142  33.624   3.708
13758W        W73019   2.865  44.414  10.982
13759W        W73020  28.104  38.353   0.807
13760W        W73021  20.252  39.478  11.856
13761W        W73022  23.563   5.789   2.271
13762W        W73023  31.412  17.280   4.744
13763W        W73024  40.542  40.919  11.969
13764W        W73025  32.391  29.625  14.433
13765W        W73026  26.054  10.155   3.733
13766W        W73027  11.716  18.713  13.525
13767W        W73028  42.976   9.339  13.521
13768W        W73029  23.239  22.573  11.611
13769W        W73030  44.986  33.580  11.432
13770W        W73031  31.122  41.791   2.793
13771W        W73032  37.340  18.086   1.310
13772W        W73033  13.214  41.513   4.316
13773W        W73034  24.050  44.327  12.356
13774W        W73035  22.571  40.004   2.743
13775W        W73036   0.406  21.081   0.836
13776W        W73037  34.605  30.640  14.458
13777W        W73038  17.713  13.805  10.494
13778W        W73039   8.780   4.935  10.038
13779W        W73040  14.766  38.067   1.332
13780W        W73041  19.206   9.331   2.352
13781W        W73042  44.765  35.363   0.867
13782W        W73043  13.274   5.715  11.543
13783W        W73044  12.197  44.502  14.833
13784W        W73045   7.329   7.901  10.106
13785W        W73046  38.872  19.734  10.622
13786W        W73047  24.982   9.344  11.510
13787W        W73048  31.922  22.039   1.704
13788W        W73049  13.150  21.643   4.736
13789W        W73050  28.122  20.065  13.331
13790W        W73051  16.232  36.451   0.870
13791W        W73052  31.977  34.419  13.529
13792W        W73053  23.511   5.275  12.852
13793W        W73054   0.466  32.109  14.337
13794W        W73055  28.500  32.469   0.797
13795W        W73056  42.480  40.453  11.058
13796W        W73057  19.139   0.803  11.922
13797W        W73058  34.883  20.228  13.472
13798W        W73059  20.699  20.147   0.959
13799W        W73060  35.382  23.518   3.781
13800W        W73061  30.496  40.526  13.514
13801W        W73062  41.524  28.652   4.807
13802W        W73063  10.725   2.362  11.976
13803W        W73064  37.515   4.843  12.523
13804W        W73065  14.138  40.848  11.111
13805W        W73066  12.835  14.731   4.130
13806W        W73067  41.451  11.291  14.397
13807W        W73068   5.289  32.129  14.358
13808W        W73069  33.577  14.602   0.726
13809W        W73070  15.588   7.871  13.903
13810W        W73071  41.379   3.252   0.309
13811W        W73072  25.059  41.366  10.986
13812W        W73073  20.070  21.144  12.519
13813W        W73074  22.647  28.974   4.161
13814W        W73075  15.318  27.129   2.232
13815W        W73076  27.681  38.071  13.922
13816W        W73077  17.569  40.535   0.814
13817W        W73078  36.486  21.750   3.149
13818W        W73079   3.458  26.027   4.609
13819W        W73080  20.052  13.128   4.128
13820W        W73081  26.969  17.662   2.817
13821W        W73082  40.407  19.130  13.912
13822W        W73083  27.958  36.416   3.709
13823W        W73084  13.745   2.391   3.198
13824W        W73085  19.590  38.063  12.066
13825W        W73086  26.183  32.089   3.297
13826W        W73087  12.352  34.421   1.409
13827W        W73088   3.940  33.008  13.898
13828W        W73089  11.753  22.570  14.338
13829W        W73090  27.135   9.150  11.534
13830W        W73091  32.908  16.774  13.887
13831W        W73092  29.084   3.419   4.713
13832W        W73093   7.746  32.039  10.948
13833W        W73094  15.227  42.292  13.464
13834W        W73095  34.461   8.709   2.231
13835W        W73096  10.281  32.892  11.450
13836W        W73097  10.345  28.182  13.364
13837W        W73098  35.887  17.650   1.764
13838W        W73099  26.027  34.548   3.271
13839W        W73100  32.471  21.146  12.028
13840W        W73101  14.607  42.813  13.891
13841W        W73102  12.635  11.324   0.958
13842W        W73103  34.563  31.953   0.884
13843W        W73104  30.104  23.566  14.025
13844W        W73105  25.130  33.450   2.221
13845W        W73106  36.881  44.455   2.885
13846W        W73107  31.402  39.972   2.357
13847W        W73108   8.209  25.073  14.974
13848W        W73109  17.129  17.174  12.546
13849W        W73110  15.218   9.390   4.764
13850W        W73111  14.597  35.476   2.387
13851W        W73112  13.231  17.787   4.693
13852W        W73113  22.028  37.460  10.552
13853W        W73114  12.320   8.334  12.886
13854W        W73115  10.812   6.821   1.428
13855W        W73116  15.661   5.765  13.962
13856W        W73117   4.917  15.700   2.289
13857W        W73118  13.284  15.272  13.526
13858W        W73119  22.211  11.795  10.888
13859W        W73120  19.265  21.123   3.211
13860W        W73121  42.463  21.617  11.003
13861W        W73122  14.152  36.576  13.380
13862W        W73123  27.121  12.284   1.409
13863W        W73124  23.037  10.154   4.189
13864W        W73125   8.756  42.467   4.324
13865W        W73126  18.586   4.915  13.021
13866W        W73127   7.396   0.433  13.413
13867W        W73128  14.338  20.067   4.122
13868W        W73129   5.366  23.235   0.280
13869W        W73130  23.523  39.903  13.525
13870W        W73131  39.008  38.392   1.741
13871W        W73132  29.662  24.114   1.403
13872W        W73133  19.171  10.247  11.478
13873W        W73134   3.305  15.752  12.430
13874W        W73135   6.364  26.571   0.393
13875W        W73136  26.978  12.709   1.817
13876W        W73137  10.860  43.878   1.768
13877W        W73138  20.757  36.847   3.146
13878W        W73139  28.628  10.751  12.358
13879W        W73140  13.241  14.737  13.404
13880W        W73141   8.655  13.836  13.939
13881W        W73142   9.726  17.779   0.728
13882W        W73143   5.364   6.318   1.366
13883W        W73144  19.645  23.585   1.393
13884W        W73145  10.840  21.544  12.402
13885W        W73146  42.469  13.776  13.875
13886W        W73147  31.020  27.675   0.260
13887W        W73148   6.819  12.614   3.321
13888W        W73149  11.863  32.999  10.569
13889W        W73150  38.053  10.165  14.827
13890W        W73151   3.769  29.523   3.308
13891W        W73152  22.176  13.208  10.457
13892W        W73153  43.811  13.835   2.886
13893W        W73154  35.365  26.509  12.998
13894W        W73155  23.550  33.990  11.080
13895W        W73156  17.092  11.626   1.930
13896W        W73157  28.629  39.847   4.749
13897W        W73158  43.798  33.530   1.929
13898W        W73159  44.437   3.756  13.936
13899W        W73160  14.287   3.326   0.831
13900W        W73161   0.965  32.010  12.860
13901W        W73162  43.938  37.872   4.122
13902W        W73163   2.241  25.648  12.442
13903W        W73164   1.389  36.349   0.727
13904W        W73165  14.776  23.223  12.956
13905W        W73166  24.046  41.011  11.860
13906W        W73167  41.314  43.486   4.150
13907W        W73168  11.710  33.946  14.405
13908W        W73169  31.045  33.612  14.300
13909W        W73170   1.859   9.882   0.264
13910W        W73171   8.819  35.368  10.438
13911W        W73172   4.809  14.291   2.802
13912W        W73173  27.101  34.966   0.412
13913W        W73174   5.881  39.876   4.252
13914W        W73175   6.374  25.120   1.312
13915W        W73176   2.364  35.032   4.700
13916W        W73177   4.925  41.833  14.399
13917W        W73178  31.079  35.062  10.622
13918W        W73179  16.293  44.838   4.693
13919W        W73180  32.612  13.159   1.829
13920W        W73181  37.838  33.462   4.734
13921W        W73182  37.524  28.054  11.083
13922W        W73183  24.993  28.998   0.379
13923W        W73184   4.255  28.640  13.870
13924W        W73185  15.677  30.561   3.236
13925W        W73186  41.816  19.602   2.233
13926W        W73187   4.394  16.196  10.934
13927W        W73188  28.586   0.420  13.838
13928W        W73189   5.912  15.156  14.871
13929W        W73190  41.807  24.987   1.765
13930W        W73191  27.066  21.254   2.674
13931W        W73192  20.683  41.790  14.888
13932W        W73193  32.634   9.699   1.848
13933W        W73194  38.489   9.711   4.750
13934W        W73195   4.245  39.543   0.271
13935W        W73196  16.738  24.535   4.816
13936W        W73197  28.634   5.403  14.300
13937W        W73198  23.506  42.802   1.735
13938W        W73199  32.431  30.141  13.975
13939W        W73200  14.175  18.668  14.916
13940W        W73201  26.115  12.695   4.214
13941W        W73202  34.881  21.055  12.572
13942W        W73203  17.650  36.098   1.797
13943W        W73204   5.698  25.151   1.873
13944W        W73205  21.670   7.787   3.234
13945W        W73206  12.756   1.314  13.481
13946W        W73207  40.948  13.141  10.932
13947W        W73208  17.236  19.603   1.270
13948W        W73209  14.789   9.204   3.188
13949W        W73210   3.793  12.654   4.286
13950W        W73211   3.785  31.532  10.586
13951W        W73212  19.216  25.196  13.424
13952W        W73213  27.111  38.376   4.719
13953W        W73214   8.309   7.254  13.046
13954W        W73215  25.206   6.214  14.326
13955W        W73216  19.682  28.496  12.979
13956W        W73217  40.011  39.389  12.882
13957W        W73218   9.161  37.878   0.348
13958W        W73219  35.521  17.133  11.071
13959W        W73220  15.805   8.830  10.040
13960W        W73221   5.400  27.959   1.728
13961W        W73222  40.827  34.584  13.804
13962W        W73223  37.384  26.620  11.894
13963W        W73224  17.246  16.665   2.731
13964W        W73225  37.481   5.835   3.739
13965W        W73226  10.705  34.581   2.677
13966W        W73227  29.147  18.258  12.092
13967W        W73228  30.635  22.673   3.803
13968W        W73229  27.596  24.989   1.891
13969W        W73230  20.736  41.457   3.264
13970W        W73231  16.601  14.164  11.914
13971W        W73232  39.885  24.123   0.764
13972W        W73233  16.170  23.694   1.777
13973W        W73234  38.325   2.422  11.028
13974W        W73235  15.187  11.265   1.349
13975W        W73236  21.712   7.362   0.461
13976W        W73237  24.213   8.880  11.023
13977W        W73238  26.544  33.500  14.510
13978W        W73239  33.899  28.176   2.224
13979W        W73240  40.910   2.948   1.326
13980W        W73241  44.463  44.294   2.268
13981W        W73242   7.888  33.085  14.418
13982W        W73243  34.087  39.048  10.563
13983W        W73244  12.684  24.540  12.527
13984W        W73245  38.914  28.558  12.569
13985W        W73246  32.450  22.072  11.574
13986W        W73247  10.198   6.328  12.890
13987W        W73248  26.644  25.163  12.956
13988W        W73249  23.708  30.089  12.832
13989W        W73250  19.584  16.311  11.538
13990W        W73251  16.091   7.881  14.326
13991W        W73252  35.977  23.212   3.241
13992W        W73253  10.869   1.263   2.253
13993W        W73254  42.001   1.352  12.350
13994W        W73255  18.570   3.729   3.192
13995W        W73256  38.524  21.612   1.362
13996W        W73257   2.356   1.332   3.361
13997W        W73258   9.164  21.250   4.314
13998W        W73259  26.991  20.619   1.425
13999W        W73260  11.644  43.885   3.659
14000W        W73261  29.135  16.705   4.302
14001W        W73262  13.122   4.409  11.084
14002W        W73263   8.355  19.101  11.080
14003W        W73264   4.879  31.634  13.013
14004W        W73265  22.010  41.386   3.300
14005W        W73266  40.956  43.836   4.749
14006W        W73267  34.097  38.462   2.376
14007W        W73268  35.424  29.473  12.029
14008W        W73269  25.133  16.591  11.026
14009W        W73270  38.974  37.857  10.590
14010W        W73271  39.956  18.284   2.381
14011W        W73272  40.522  22.149  13.820
14012W        W73273   2.818   2.862  11.420
14013W        W73274  38.403  11.185  14.865
14014W        W73275  22.553  36.535   1.878
14015W        W73276  11.260  44.762  12.489
14016W        W73277  44.403  33.499   2.185
14017W        W73278  37.075  11.336   9.949
14018W        W73279   6.774  44.800   2.314
14019W        W73280  16.645   9.656   2.852
14020W        W73281  38.074  16.727   1.386
14021W        W73282  36.890   9.875  12.058
14022W        W73283  37.026  17.091   4.331
14023W        W73284  32.033  32.407   1.316
14024W        W73285  11.342  21.233   3.196
14025W        W73286   9.329  25.969  11.531
14026W        W73287   8.787   8.698  11.533
14027W        W73288   3.388  19.740   0.932
14028W        W73289  30.069  33.046   2.297
14029W        W73290  13.110  22.174  14.775
14030W        W73291  39.925  10.261  11.096
14031W        W73292  26.631  10.850   0.815
14032W        W73293   2.460   3.899  13.426
14033W        W73294  31.929   3.878  11.964
14034W        W73295  19.579  26.518  14.502
14035W        W73296  19.161  16.631  12.902
14036W        W73297   6.822  29.481   1.288
14037W        W73298   0.451  21.564   4.223
14038W        W73299  22.098   7.672  10.625
14039W        W73300   7.849  39.348  13.801
14040W        W73301   1.403  17.269   0.882
14041W        W73302  26.556  17.067   3.376
14042W        W73303   6.228   5.783  12.957
14043W        W73304   6.286   3.874   3.382
14044W        W73305  39.488  13.133  13.944
14045W        W73306  39.498   3.359  10.910
14046W        W73307  28.079  30.589   1.860
14047W        W73308  12.142  35.598  10.910
14048W        W73309   5.302  13.806   3.346
14049W        W73310  41.024  28.509  12.839
14050W        W73311  17.709  26.485   1.230
14051W        W73312  15.163  19.654  14.486
14052W        W73313   6.851  18.114   4.669
14053W        W73314  37.021  42.488   3.766
14054W        W73315   9.178  16.667   0.252
14055W        W73316  26.999  30.085  12.536
14056W        W73317  10.655  36.889  13.502
14057W        W73318  13.349  33.022   4.303
14058W        W73319  10.378  20.234  14.292
14059W        W73320  13.176   9.369   1.274
14060W        W73321  32.611   1.366   3.156
14061W        W73322  43.842  35.007   4.290
14062W        W73323  21.609   4.397  13.464
14063W        W73324  29.497  41.825   4.232
14064W        W73325  39.371  35.097   5.767
14065W        W73326  29.532  39.442  12.937
14066W        W73327   6.408  38.978  13.512
14067W        W73328  24.514  24.111   1.267
14068W        W73329  12.251  43.907   4.155
14069W        W73330  39.896  21.645   3.818
14070W        W73331  41.790  39.032   4.131
14071W        W73332  39.413  34.937   3.267
14072W        W73333  41.343  12.260  13.450
14073W        W73334  39.823  41.960   3.323
14074W        W73335  22.171  34.098   2.266
14075W        W73336  20.570   3.444   2.712
14076W        W73337  42.422  32.430   1.810
14077W        W73338  39.559  14.795  12.388
14078W        W73339  37.427  34.508   2.380
14079W        W73340  38.553  23.600   2.415
14080W        W73341   1.266  34.988  10.413
14081W        W73342   2.773  20.759  11.511
14082W        W73343   1.464   1.962   2.758
14083W        W73344  19.268  27.007   4.599
14084W        W73345  21.234   4.415   0.788
14085W        W73346  17.577  44.467  10.595
14086W        W73347  10.323  44.364   4.739
14087W        W73348  13.719   8.159   1.903
14088W        W73349   1.896   6.192   1.906
14089W        W73350  43.928  27.080  13.524
14090W        W73351  19.106  23.591  14.386
14091W        W73352  26.462   9.337  13.401
14092W        W73353  43.896  10.336   1.909
14093W        W73354  11.211  12.809  10.951
14094W        W73355  43.427  44.371   3.739
14095W        W73356  41.790  18.695   3.289
14096W        W73357  35.410   9.824  14.030
14097W        W73358  42.403   2.872  11.987
14098W        W73359  32.986  42.888   3.371
14099W        W73360  31.478  25.714  11.381
14100W        W73361  15.728   4.371   2.805
14101W        W73362  31.942  44.825  12.518
14102W        W73363   4.370  21.039  13.541
14103W        W73364  31.970  25.472  12.512
14104W        W73365  21.579  16.578  14.418
14105W        W73366  10.254   2.229   1.840
14106W        W73367  12.742  44.443  12.960
14107W        W73368  13.242   8.406  11.375
14108W        W73369  12.765  33.970  12.507
14109W        W73370   4.873  41.953  13.060
14110W        W73371  29.568  11.200   0.253
14111W        W73372   3.806  40.501   4.169
14112W        W73373  35.996   2.420   2.288
14113W        W73374  23.611   7.416  14.285
14114W        W73375  42.883  14.737  13.423
14115W        W73376   9.314  16.276  14.804
14116W        W73377   6.267  29.518   1.349
14117W        W73378  32.433  35.886  10.519
14118W        W73379  35.868   7.201  12.834
14119W        W73380  28.539   5.233   4.680
14120W        W73381  33.552  42.977  13.027
14121W        W73382   3.809   4.331   4.689
14122W        W73383  13.663  27.565   1.833
14123W        W73384  37.831  19.055   3.340
14124W        W73385  38.853  37.898   1.801
14125W        W73386  14.171  41.997   4.301
14126W        W73387  39.852  41.834   0.421
14127W        W73388  44.788  12.236  10.494
14128W        W73389  26.647  44.958  13.868
14129W        W73390   4.898  40.949   0.783
14130W        W73391   2.232  33.024  11.470
14131W        W73392   2.832  31.093   3.726
14132W        W73393  19.144  40.418   3.778
14133W        W73394  21.147   9.337   1.737
14134W        W73395   6.736  12.750  11.095
14135W        W73396  31.060   3.277  13.842
14136W        W73397  44.308   9.367   4.640
14137W        W73398  19.650  36.457  13.540
14138W        W73399  20.044   1.809  14.913
14139W        W73400  21.037   3.880  11.518
14140W        W73401   7.180  20.576   1.323
14141W        W73402  14.765  38.450  13.460
14142W        W73403  19.724   9.273   0.394
14143W        W73404  12.631  20.113   3.260
14144W        W73405  36.851   0.476  13.892
14145W        W73406  36.465  36.382  11.578
14146W        W73407  27.960  40.400  12.347
14147W        W73408  35.959  10.168  10.487
14148W        W73409   4.431  31.483   0.801
14149W        W73410  21.092  33.963  11.996
14150W        W73411  23.152  22.210  10.545
14151W        W73412  25.128  41.424  13.345
14152W        W73413  24.197  22.537  11.064
14153W        W73414  13.688  26.557   4.763
14154W        W73415  44.764  21.690   4.809
14155W        W73416  30.490  18.785  11.479
14156W        W73417   7.328  29.057  12.469
14157W        W73418  42.408   8.245   2.811
14158W        W73419   6.698  17.579  13.944
14159W        W73420   7.192  33.972   3.645
14160W        W73421   3.333   1.382   0.769
14161W        W73422  27.460  39.029  11.086
14162W        W73423   3.349  30.014   0.332
14163W        W73424  39.843  33.599   2.716
14164W        W73425  21.611  44.363  10.583
14165W        W73426  16.242  33.521  11.559
14166W        W73427  41.953  10.653   3.752
14167W        W73428  20.663  26.093  11.400
14168W        W73429  34.936  41.980   4.697
14169W        W73430  26.055  18.100  12.544
14170W        W73431  16.193   9.393   2.770
14171W        W73432  35.101  33.414   0.388
14172W        W73433  41.808  21.167  11.549
14173W        W73434  43.786  31.482   4.297
14174W        W73435  34.046   4.433  14.279
14175W        W73436  11.629  16.667   4.624
14176W        W73437  17.173  38.012   2.781
14177W        W73438  23.563   4.742  11.447
14178W        W73439   7.911  26.008   2.233
14179W        W73440  35.581  41.035  14.890
14180W        W73441  21.535   2.449  12.520
14181W        W73442  19.185  33.899   3.700
14182W        W73443  11.651  44.472   2.278
14183W        W73444  30.057  26.540   1.819
14184W        W73445  29.445  36.482   4.685
14185W        W73446  30.115   9.348   4.120
14186W        W73447  25.079   9.883   1.922
14187W        W73448   4.698  37.343  10.588
14188W        W73449  21.724  11.128  13.335
14189W        W73450  11.161  29.443   2.711
14190W        W73451  11.657  26.492   3.661
14191W        W73452  37.859  16.093  12.361
14192W        W73453  12.310   1.917   3.292
14193W        W73454  13.743  32.604   1.913
14194W        W73455  24.058  22.216   4.733
14195W        W73456   6.273   6.771   2.254
14196W        W73457  14.699  23.537  12.913
14197W        W73458   5.791  23.536  12.998
14198W        W73459  25.062  17.298   0.780
14199W        W73460  16.223  29.031   0.816
14200W        W73461  26.682  17.794  13.493
14201W        W73462  40.928  12.247  14.832
14202W        W73463   8.269  39.488  12.020
14203W        W73464  43.809  33.602   3.310
14204W        W73465  43.815  31.924  14.975
14205W        W73466  20.766  26.022   0.482
14206W        W73467  18.272  18.640   1.775
14207W        W73468  19.123  34.081  14.470
14208W        W73469   0.460  12.276  14.898
14209W        W73470  29.498  28.500   0.348
14210W        W73471  22.205  25.141   2.409
14211W        W73472  27.974   9.753  13.398
14212W        W73473  28.004  14.339  12.458
14213W        W73474   3.283  34.989   2.675
14214W        W73475  36.932  24.687  12.861
14215W        W73476   4.272  30.518   2.244
14216W        W73477  12.731  26.536  11.977
14217W        W73478  24.480  37.889   4.301
14218W        W73479  18.781  22.232  12.488
14219W        W73480  38.969  17.767  10.986
14220W        W73481   1.873  43.291  13.875
14221W        W73482   9.243   6.724   3.823
14222W        W73483  18.603  29.057   2.682
14223W        W73484  30.567   0.906  13.798
14224W        W73485   2.915  29.669  14.824
14225W        W73486  18.243  32.573   4.307
14226W        W73487  25.015  34.536  14.862
14227W        W73488  18.285  42.355   0.799
14228W        W73489  11.134   3.730   4.316
14229W        W73490  40.463  40.904   3.712
14230W        W73491  15.805  10.274  12.915
14231W        W73492  33.887  26.556  12.489
14232W        W73493  27.670  18.265   3.666
14233W        W73494   7.812  33.015  14.985
14234W        W73495  27.612  18.608  14.811
14235W        W73496   2.877   7.186   1.810
14236W        W73497  25.104  41.946   2.265
14237W        W73498  38.346  22.502   4.614
14238W        W73499  33.559  41.790   2.863
14239W        W73500  27.684  27.496  13.403
14240W        W73501  30.137  35.501   4.219
14241W        W73502   7.356   6.398  11.471
14242W        W73503  17.793   0.257  12.381
14243W        W73504  19.166  22.716  11.882
14244W        W73505  20.741  23.545  14.508
14245W        W73506  20.050  18.195   1.372
14246W        W73507  35.945  23.492  11.382
14247W        W73508  38.064   9.785  11.470
14248W        W73509  35.070  14.298   1.702
14249W        W73510   0.387  40.014   2.230
14250W        W73511  30.146  30.547   2.207
14251W        W73512  13.688  25.645  13.034
14252W        W73513  21.112  28.007   3.262
14253W        W73514  38.408  35.373   3.231
14254W        W73515  28.450  42.507  11.880
14255W        W73516  44.472  26.098   2.235
14256W        W73517  10.648  41.948  10.483
14257W        W73518  19.245  11.367   2.207
14258W        W73519  30.987  42.374  13.412
14259W        W73520  23.153  22.184   2.348
14260W        W73521  19.651   5.815   4.679
14261W        W73522  19.247   5.268  10.944
14262W        W73523  34.450  43.403  13.955
14263W        W73524  19.099   2.856   4.197
14264W        W73525   8.728  26.176  11.897
14265W        W73526   0.494  30.921   3.299
14266W        W73527   2.790  20.268   3.175
14267W        W73528  32.998  39.457   3.250
14268W        W73529  23.567  33.987   2.848
14269W        W73530  18.132  35.931  10.539
14270W        W73531  25.554   5.776  11.552
14271W        W73532  11.804   0.761  13.830
14272W        W73533  21.133  33.394   2.801
14273W        W73534  13.244  30.108   2.872
14274W        W73535  31.500  43.437   1.407
14275W        W73536  26.691  11.330  11.976
14276W        W73537  10.879  37.508  10.887
14277W        W73538  32.968  12.264   2.679
14278W        W73539  31.467  26.701   4.248
14279W        W73540  23.672  41.346  10.495
14280W        W73541  21.201  42.817  14.954
14281W        W73542  28.151   0.831   3.259
14282W        W73543   4.759  17.223  11.453
14283W        W73544  10.192  26.515  14.890
14284W        W73545   6.696  33.914   0.821
14285W        W73546  37.885   4.700   0.831
14286W        W73547  40.372  33.893   9.482
14287W        W73548   6.410  41.961  14.280
14288W        W73549  33.407   0.809   1.340
14289W        W73550   3.416  12.703  14.829
14290W        W73551  32.088  34.591   3.708
14291W        W73552  16.286  43.814   3.339
14292W        W73553  44.894  15.151  11.967
14293W        W73554  44.004  20.642   2.411
14294W        W73555  37.365  13.828  12.073
14295W        W73556  29.166  19.647  10.515
14296W        W73557  29.982  40.828  13.546
14297W        W73558  36.416  20.653   2.292
14298W        W73559  28.439  44.794  13.487
14299W        W73560  36.510   9.760   2.855
14300W        W73561  25.653   3.938  14.767
14301W        W73562  39.034  15.819   4.779
14302W        W73563   3.433   1.824  12.404
14303W        W73564  31.602  34.018  13.474
14304W        W73565  40.464  16.114  14.956
14305W        W73566  33.415  20.693   3.159
14306W        W73567  18.775  23.035  12.829
14307W        W73568  13.669   6.828   4.704
14308W        W73569  23.235  36.998   3.859
14309W        W73570  35.879  31.010  13.042
14310W        W73571  10.765   8.376   2.727
14311W        W73572  15.313   7.354  10.977
14312W        W73573  24.085  16.205  10.999
14313W        W73574  38.345   2.771  14.341
14314W        W73575  32.083  31.614   3.243
14315W        W73576  26.174   2.795   0.856
14316W        W73577  10.767  40.914  12.433
14317W        W73578  16.800  10.184  10.029
14318W        W73579  37.575  31.598  14.990
14319W        W73580  21.590  24.646   1.266
14320W        W73581   8.389  13.224   2.245
14321W        W73582  15.307  44.359   1.842
14322W        W73583  30.065  43.281   1.309
14323W        W73584  44.833  22.036  14.287
14324W        W73585  35.876  24.551  13.835
14325W        W73586  20.621  26.551  13.997
14326W        W73587  15.262  11.218  11.412
14327W        W73588  37.475  29.548  12.992
14328W        W73589  16.245  39.363   3.647
14329W        W73590  24.697  13.181   1.801
14330W        W73591  36.401  22.640  11.950
14331W        W73592   0.363   4.717  10.907
14332W        W73593  42.920  43.441  11.386
14333W        W73594   9.778   1.288  14.863
14334W        W73595  29.033  23.991  10.584
14335W        W73596  13.716   5.246  14.910
14336W        W73597  18.748  31.551   2.253
14337W        W73598   2.362  33.402  12.424
14338W        W73599  17.101   4.832   2.702
14339W        W73600  11.291  20.127   4.312
14340W        W73601  37.490  43.793   2.804
14341W        W73602  14.120  25.001   2.203
14342W        W73603  34.505  35.004   3.382
14343W        W73604  22.627  29.541   2.287
14344W        W73605  13.805  39.839  14.945
14345W        W73606  30.602  21.182  10.455
14346W        W73607   3.344  30.613  10.429
14347W        W73608  25.707  24.975  11.536
14348W        W73609  43.337  34.612  10.619
14349W        W73610  11.177   2.774   0.820
14350W        W73611  14.666  38.507   1.246
14351W        W73612   1.398  36.925   4.351
14352W        W73613  37.415  10.698   4.665
14353W        W73614  21.183   4.441   1.212
14354W        W73615  24.586   7.363  14.498
14355W        W73616  40.847  40.798   2.193
14356W        W73617  20.157   5.790   4.308
14357W        W73618  15.817  21.258  14.981
14358W        W73619   0.471  31.458   2.290
14359W        W73620  32.437   9.785  11.410
14360W        W73621  16.626   6.229   4.688
14361W        W73622  34.976  19.548  14.435
14362W        W73623  38.566  29.428   4.681
14363W        W73624   1.328  44.425  13.927
14364W        W73625  44.946  22.187   3.258
14365W        W73626   5.219  42.981   0.732
14366W        W73627  29.522  16.720  13.928
14367W        W73628  41.843  10.205   2.810
14368W        W73629  22.225  39.828   1.257
14369W        W73630  26.099  22.217   2.837
14370W        W73631  23.112  38.446  14.390
14371W        W73632  39.031  41.500   0.881
14372W        W73633   9.676  27.197  13.982
14373W        W73634  30.572  42.397  11.903
14374W        W73635  40.526  30.439   2.903
14375W        W73636  14.293   4.216   4.759
14376W        W73637  36.391   3.314   4.283
14377W        W73638   9.227  24.042  11.488
14378W        W73639  15.579  35.878  12.488
14379W        W73640  25.033  13.820  11.931
14380W        W73641  41.376   1.770   2.888
14381W        W73642  44.282  20.138   2.363
14382W        W73643  44.373  14.318   4.814
14383W        W73644  19.166   5.392  14.876
14384W        W73645  23.047  40.479  10.490
14385W        W73646  40.049  16.606   0.426
14386W        W73647  39.497  38.357  11.547
14387W        W73648  39.972  15.690  13.535
14388W        W73649  27.030  39.375   1.407
14389W        W73650   5.325   9.367   1.235
14390W        W73651  26.132  11.860   2.315
14391W        W73652   8.261   6.768  11.994
14392W        W73653  36.390  16.150  12.576
14393W        W73654  27.473  19.155   3.332
14394W        W73655  32.102  33.609   2.874
14395W        W73656  15.724  35.515   4.330
14396W        W73657  28.539  12.290   1.885
14397W        W73658  17.269   4.355   3.352
14398W        W73659  43.298  19.688   1.381
14399W        W73660  16.297  43.384  14.007
14400W        W73661   3.345  10.278   3.293
14401W        W73662  21.602  27.181  13.529
14402W        W73663  38.961  38.348  10.998
14403W        W73664   4.290   3.349   4.733
14404W        W73665  44.366  33.586  14.443
14405W        W73666   9.723   2.463  10.589
14406W        W73667  43.908   5.438  13.054
14407W        W73668  19.714  40.448   1.424
14408W        W73669  17.671  43.770   4.627
14409W        W73670   0.311  43.278   2.840
14410W        W73671   2.842  25.571  11.399
14411W        W73672  34.548  19.752  14.330
14412W        W73673   9.651  10.700   4.201
14413W        W73674  23.232  32.443   3.740
14414W        W73675  40.963  39.469   2.327
14415W        W73676  32.506  29.935   3.165
14416W        W73677  40.874  28.025  10.632
14417W        W73678  20.237  22.543   3.778
14418W        W73679  28.587  24.686  13.938
14419W        W73680  36.915  24.578  10.411
14420W        W73681  43.954  36.416   4.287
14421W        W73682  11.639  18.654   4.175
14422W        W73683  42.322  24.693   1.228
14423W        W73684  42.871  36.551   2.770
14424W        W73685  20.155  39.908   3.832
14425W        W73686   8.817  13.169  10.601
14426W        W73687   5.753  10.749  12.094
14427W        W73688  28.623  29.526  14.340
14428W        W73689  33.406   4.778   5.280
14429W        W73690  11.758  17.735  13.936
14430W        W73691   7.280  15.180  11.515
14431W        W73692  17.078  30.615  11.538
14432W        W73693   8.275  22.031   0.798
14433W        W73694  18.558   8.403   0.896
14434W        W73695  42.402   3.909   3.360
14435W        W73696  26.049  35.531  14.298
14436W        W73697   2.256  41.015  10.545
14437W        W73698  34.947  41.986  14.473
14438W        W73699  39.489   2.806  13.859
14439W        W73700  30.483  11.327   2.288
14440W        W73701   4.331   7.406  12.451
14441W        W73702  14.647   9.290   2.675
14442W        W73703  32.525   9.697  13.854
14443W        W73704  20.240  32.979   0.919
14444W        W73705  36.853  38.835  12.883
14445W        W73706  42.836  39.346  13.459
14446W        W73707   4.333   7.364   1.799
14447W        W73708  22.565  18.755   9.997
14448W        W73709   0.865   2.288   1.264
14449W        W73710  22.189  20.260   1.716
14450W        W73711  16.644   8.680   2.775
14451W        W73712  31.984   0.269   1.223
14452W        W73713  18.157  40.344   3.255
14453W        W73714   6.211  12.266  13.391
14454W        W73715  14.686  17.105  11.483
14455W        W73716  34.925  36.585  12.387
14456W        W73717  19.089  10.842  11.439
14457W        W73718  33.602  16.093   1.429
14458W        W73719   5.208  27.053  11.482
14459W        W73720   1.365  14.154  11.443
14460W        W73721  43.985  16.682  10.963
14461W        W73722  20.697  38.989   0.350
14462W        W73723  25.710  38.935  12.484
14463W        W73724  29.634  20.564   2.859
14464W        W73725  25.203  37.567   2.304
14465W        W73726  40.342  19.741  12.861
14466W        W73727  27.087  34.887  13.435
14467W        W73728   5.197  40.915  11.063
14468W        W73729   8.283  11.636  10.980
14469W        W73730  27.620  32.489   3.259
14470W        W73731   4.759  18.573  12.517
14471W        W73732   0.944   7.397  10.986
14472W        W73733  26.628  21.099  12.571
14473W        W73734  32.602  39.518  13.810
14474W        W73735   9.821  28.065  12.968
14475W        W73736   8.353  26.677   3.149
14476W        W73737  16.249  14.725  11.560
14477W        W73738  29.145  39.505   4.263
14478W        W73739  11.663   9.704   2.242
14479W        W73740  29.919  37.398  10.978
14480W        W73741  39.479   5.713   4.630
14481W        W73742   0.386  15.268  13.054
14482W        W73743  32.475  26.022  14.839
14483W        W73744  21.567  17.178   2.189
14484W        W73745  24.483  20.220  10.932
14485W        W73746  11.202  39.044   2.765
14486W        W73747   4.805  14.100   0.726
14487W        W73748  30.532  13.242  11.052
14488W        W73749  31.082   8.228   2.362
14489W        W73750  44.760  15.620   2.808
14490W        W73751   2.369  34.922   3.255
14491W        W73752   6.267   2.436  12.028
14492W        W73753  22.721  24.108  12.370
14493W        W73754  25.982  20.035   3.165
14494W        W73755  39.437   4.324  10.630
14495W        W73756   8.281  30.657   3.777
14496W        W73757  35.478  41.449  10.538
14497W        W73758  26.012  15.724   5.242
14498W        W73759   7.218  37.459   1.294
14499W        W73760  30.078  40.338   3.250
14500W        W73761  37.463  10.860  10.592
14501W        W73762  22.026  32.569   0.903
14502W        W73763  38.039  14.811   3.159
14503W        W73764  13.732  36.909   4.679
14504W        W73765  22.512  33.000   4.671
14505W        W73766  15.261  42.989  14.509
14506W        W73767  35.475  25.060  13.505
14507W        W73768   2.381  37.375  11.014
14508W        W73769  20.613  12.222   1.390
14509W        W73770  37.338  16.203   0.364
14510W        W73771  18.122  30.028  13.509
14511W        W73772   9.842  11.854   1.345
14512W        W73773  37.362   1.922  11.983
14513W        W73774  18.551  20.698   0.363
14514W        W73775  22.508   6.346   0.273
14515W        W73776  27.172  41.497  12.526
14516W        W73777   0.427  27.942  14.479
14517W        W73778   3.767  42.416   0.737
14518W        W73779  42.929   4.828   2.368
14519W        W73780  24.646  35.946   3.674
14520W        W73781  27.172  32.424  11.879
14521W        W73782   7.814  22.076   1.923
14522W        W73783  18.107  26.992  11.610
14523W        W73784  14.764  43.939   3.699
14524W        W73785   5.374  15.818  10.894
14525W        W73786   2.266   7.779  14.420
14526W        W73787  29.948  18.756  14.462
14527W        W73788  32.060  22.195   0.797
14528W        W73789  27.991  23.545  13.884
14529W        W73790  22.563  41.324  14.807
14530W        W73791  41.508  12.652   2.838
14531W        W73792  31.100   5.931   3.162
14532W        W73793  37.841  17.715  12.963
14533W        W73794   4.331   5.695   0.274
14534W        W73795  34.407  40.050  11.861
14535W        W73796  36.935  20.096   2.327
14536W        W73797  36.566  40.893   3.259
14537W        W73798  23.106   7.682   3.789
14538W        W73799  18.679   3.316   2.881
14539W        W73800  43.372  26.684   2.244
14540W        W73801  18.058   9.170   1.435
14541W        W73802  18.749  13.724  13.839
14542W        W73803  26.197  20.192   2.374
14543W        W73804  34.040  37.528  11.402
14544W        W73805  15.087  25.967  14.391
14545W        W73806  14.249  12.804   4.337
14546W        W73807  17.756  36.883  12.084
14547W        W73808  41.537  40.467   3.812
14548W        W73809   4.919   8.710  13.311
14549W        W73810  37.526  23.721  12.953
14550W        W73811  11.261  33.467  11.125
14551W        W73812  13.639   4.850  11.109
14552W        W73813   5.348  37.940  11.918
14553W        W73814  20.102  32.048   1.859
14554W        W73815  21.149  10.865   4.311
14555W        W73816  39.323  39.361  13.917
14556W        W73817  34.552  34.108  13.464
14557W        W73818  43.909  34.951   2.752
14558W        W73819   0.282  37.870  10.468
14559W        W73820  17.161  21.214   2.276
14560W        W73821   2.916   1.425  13.005
14561W        W73822  32.899  34.066  10.971
14562W        W73823   9.251  22.129  11.072
14563W        W73824  31.626  16.664   2.187
14564W        W73825  14.124   4.882  11.488
14565W        W73826   1.946  28.623   0.342
14566W        W73827   4.416  43.976  12.982
14567W        W73828  28.122  36.084  12.983
14568W        W73829  40.961  14.249   2.383
14569W        W73830  32.592  28.156  14.348
14570W        W73831  12.246  31.999  10.889
14571W        W73832  41.295  33.619   0.859
14572W        W73833  24.700  26.197  11.581
14573W        W73834   5.205  26.020  14.997
14574W        W73835  43.828  20.081  12.933
14575W        W73836  23.036  29.430  10.609
14576W        W73837  21.523  30.080   2.297
14577W        W73838  19.222   0.748   3.791
14578W        W73839   9.299  15.211   0.350
14579W        W73840  29.657   2.288   4.695
14580W        W73841  37.481  35.587   2.819
14581W        W73842   9.782   1.415   1.896
14582W        W73843  17.776  44.273   0.271
14583W        W73844  40.350  41.022   4.164
14584W        W73845  29.557  38.425  12.870
14585W        W73846  42.802  15.249   0.892
14586W        W73847   7.780  29.539  13.519
14587W        W73848   8.246  38.911  14.957
14588W        W73849   2.838  38.523   3.374
14589W        W73850  10.142  20.710   1.822
14590W        W73851  29.936  13.254   1.324
14591W        W73852  44.845  11.258   3.635
14592W        W73853  21.540  42.422   0.932
14593W        W73854  44.892  15.800  11.432
14594W        W73855  16.145  34.916  12.862
14595W        W73856  29.143  31.408   3.826
14596W        W73857  12.286  32.562  13.532
14597W        W73858   0.384  38.066   3.160
14598W        W73859  35.449  39.400  14.434
14599W        W73860  37.957  13.730   0.481
14600W        W73861   9.183  11.708   3.785
14601W        W73862   0.876  15.732   2.385
14602W        W73863  38.507   7.806  10.538
14603W        W73864  10.663  36.461  12.479
14604W        W73865  26.655  12.838   2.799
14605W        W73866  27.558   5.262   1.766
14606W        W73867  18.088  20.101  11.908
14607W        W73868  25.629   2.232  13.840
14608W        W73869  22.095  43.968   3.731
14609W        W73870  42.875  12.328   1.265
14610W        W73871  26.977   6.255  12.862
14611W        W73872  37.412  24.714   4.833
14612W        W73873  36.401  33.123   0.864
14613W        W73874  17.695   1.479  11.601
14614W        W73875   6.801  18.111  12.984
14615W        W73876   3.450  19.166  11.890
14616W        W73877  19.070   6.842   3.734
14617W        W73878  30.522   6.732  10.438
14618W        W73879   1.479  35.437   2.307
14619W        W73880   1.405  37.442  14.330
14620W        W73881  26.624   8.168  13.028
14621W        W73882  35.883  15.283   4.115
14622W        W73883   7.737  25.467  11.535
14623W        W73884  13.701   3.446  10.634
14624W        W73885  19.761  21.595  14.974
14625W        W73886  33.954  22.125  12.530
14626W        W73887  44.844   0.897   3.663
14627W        W73888  44.868  25.986  14.823
14628W        W73889  36.557  30.982  12.998
14629W        W73890  42.989  30.612   4.222
14630W        W73891   7.841  16.644   3.818
14631W        W73892  22.558   9.745  14.852
14632W        W73893  41.431   9.287   0.442
14633W        W73894  18.071   4.826  14.469
14634W        W73895  41.859  18.207   2.681
14635W        W73896  12.157   7.189   1.221
14636W        W73897   2.303  36.073   2.185
14637W        W73898  15.239  30.014  12.886
14638W        W73899  14.796  38.499   3.316
14639W        W73900  23.200  41.970   4.297
14640W        W73901  36.497  12.358  14.489
14641W        W73902  44.296  13.139   0.462
14642W        W73903  17.690  15.175   4.251
14643W        W73904  11.770   7.229  10.040
14644W        W73905   8.258   4.269  10.991
14645W        W73906  20.653  34.077   0.259
14646W        W73907  26.679  36.546   3.703
14647W        W73908  16.715  32.401  14.455
14648W        W73909  36.513   4.349   4.302
14649W        W73910   8.300  21.618   3.757
14650W        W73911  35.860   7.687  10.633
14651W        W73912  15.688  37.357  13.929
14652W        W73913  31.016  33.902   0.315
14653W        W73914  23.130  19.239  12.055
14654W        W73915   1.949   6.741   0.919
14655W        W73916  37.869  41.453   2.247
14656W        W73917   1.804  10.719   2.407
14657W        W73918   4.935  35.504  12.033
14658W        W73919  31.489  30.521   3.165
14659W        W73920  44.411  42.487  14.997
14660W        W73921  36.004  27.447   4.826
14661W        W73922  30.513  15.260  13.905
14662W        W73923   0.986  37.530  11.861
14663W        W73924  15.087  11.818  10.474
14664W        W73925   3.254  30.542  14.766
14665W        W73926  43.904  42.406  12.970
14666W        W73927  35.547  18.584  14.900
14667W        W73928  33.009  40.489   4.215
14668W        W73929  14.773  41.896  11.973
14669W        W73930  16.207  31.067   0.915
14670W        W73931  23.127  43.400  13.027
14671W        W73932  25.085  13.617   2.830
14672W        W73933   5.717  31.534   3.681
14673W        W73934  31.481  13.691  11.957
14674W        W73935   3.896  16.153  12.005
14675W        W73936  14.163   8.873   1.265
14676W        W73937  32.504  41.857  13.894
14677W        W73938  40.921  22.590  13.002
14678W        W73939  39.506  31.930  11.122
14679W        W73940   6.197  11.826   3.846
14680W        W73941  42.868  40.487   2.727
14681W        W73942  31.570  27.675   1.280
14682W        W73943  11.737   1.433   1.908
14683W        W73944  16.713  40.490   0.259
14684W        W73945  44.825  20.564   1.915
14685W        W73946  30.492  44.410  14.973
14686W        W73947  24.167  42.375   1.362
14687W        W73948  35.876   4.891   4.836
14688W        W73949  19.109  35.378   0.910
14689W        W73950   3.416   0.934  14.838
14690W        W73951  23.127  35.975   3.829
14691W        W73952   1.411   7.747   1.786
14692W        W73953  44.336  17.675   5.127
14693W        W73954   2.814  37.423   4.204
14694W        W73955  16.721  27.155   0.798
14695W        W73956  30.464  12.226   4.703
14696W        W73957   8.347   7.288   2.189
14697W        W73958   2.287  33.880   2.241
14698W        W73959  34.041  21.085  11.000
14699W        W73960  25.142  32.608   4.162
14700W        W73961   6.296  27.582  10.462
14701W        W73962  23.231  14.795  12.403
14702W        W73963  30.058  31.609   5.085
14703W        W73964  10.851  15.778  10.588
14704W        W73965  23.634  26.486  14.320
14705W        W73966  10.267   0.847  12.500
14706W        W73967  26.046  15.749  11.479
14707W        W73968   4.786  19.186  13.547
14708W        W73969   6.385  33.598   5.300
14709W        W73970  14.745   7.397   4.247
14710W        W73971  36.892   1.353  11.434
14711W        W73972  29.971  16.682   2.232
14712W        W73973  29.605  28.022   1.911
14713W        W73974   2.366  14.209  10.963
14714W        W73975  14.319  10.837  10.921
14715W        W73976   7.701  25.062   0.417
14716W        W73977  38.518   0.483  12.572
14717W        W73978  35.068  29.614   1.844
14718W        W73979  23.653  36.915   4.171
14719W        W73980  39.004  43.290   0.916
14720W        W73981  39.963  38.481  14.936
14721W        W73982  16.640  11.221  11.040
14722W        W73983  36.496  19.211   3.201
14723W        W73984  21.521  28.978  11.560
14724W        W73985  14.117  15.223   4.711
14725W        W73986   8.252  18.090  14.367
14726W        W73987  13.304  30.515  14.475
14727W        W73988  31.486  15.156   2.793
14728W        W73989  17.072  41.373   3.161
14729W        W73990  28.515  16.221  13.424
14730W        W73991  14.205  29.954   2.281
14731W        W73992  40.848  21.043   1.830
14732W        W73993  42.955  24.221   2.336
14733W        W73994  44.908  23.131   0.474
14734W        W73995  43.983   4.878  12.885
14735W        W73996  43.388   4.840  12.462
14736W        W73997   8.866  18.789   2.688
14737W        W73998  13.634   7.786   4.292
14738W        W73999  16.270  39.003   0.867
14739W        W74000  32.572  31.466  13.934
14740W        W74001  10.269  17.620   3.864
14741W        W74002  24.601  11.336  14.804
14742W        W74003   1.786  37.860   4.788
14743W        W74004  21.094  19.193   0.887
14744W        W74005  27.965  10.706  11.399
14745W        W74006  12.726  35.972   3.693
14746W        W74007   3.930   5.906  11.435
14747W        W74008   8.298  43.842   4.690
14748W        W74009  15.672  30.909  11.867
14749W        W74010  16.100   8.775   3.292
14750W        W74011  40.359  37.836   1.432
14751W        W74012  40.997   5.906   0.888
14752W        W74013  24.039  44.918  13.492
14753W        W74014  19.274  42.376   4.806
14754W        W74015  20.765  35.891  13.388
14755W        W74016  42.992  43.300   4.300
14756W        W74017  35.398  10.660  14.425
14757W        W74018  19.169  44.281  11.597
14758W        W74019  21.028  43.812  11.877
14759W        W74020  30.602  42.953  12.449
14760W        W74021  44.767  21.145  14.298
14761W        W74022  20.253  14.167   0.902
14762W        W74023  24.996  12.733   1.404
14763W        W74024  32.020  30.985   1.714
14764W        W74025  17.201  43.514  10.920
14765W        W74026  41.959   9.315   3.792
14766W        W74027  14.284  23.133  10.940
14767W        W74028  28.665  21.198  14.365
14768W        W74029  28.477   5.400  12.835
14769W        W74030   3.807  15.308  14.443
14770W        W74031  16.813   1.776   4.816
14771W        W74032  13.792  10.197  11.596
14772W        W74033   1.398   5.215   4.331
14773W        W74034   6.259  34.116   2.196
14774W        W74035   1.419   9.356   3.251
14775W        W74036   7.899  42.971  14.916
14776W        W74037   8.319  16.231  13.405
14777W        W74038  15.680  34.595  14.810
14778W        W74039   4.725  21.075  12.020
14779W        W74040  12.164  30.933  12.898
14780W        W74041  17.660  40.311   3.299
14781W        W74042  25.677  14.793  11.957
14782W        W74043  28.518  14.720  14.496
14783W        W74044  34.944  44.330  11.019
14784W        W74045  38.977  27.983   1.778
14785W        W74046  19.674   3.215   2.764
14786W        W74047   3.324   8.879  14.300
14787W        W74048  14.198   6.915   1.749
14788W        W74049  42.922  22.656   5.093
14789W        W74050  26.522   5.835  10.558
14790W        W74051  25.168   6.185   3.296
14791W        W74052  22.206  26.604   2.403
14792W        W74053   3.836  27.540  14.995
14793W        W74054  18.120  27.479  11.565
14794W        W74055  25.160  18.632  11.086
14795W        W74056  19.736  10.835  10.413
14796W        W74057   9.704  16.193   4.185
14797W        W74058  23.621   0.321  12.478
14798W        W74059  43.504  37.348   1.840
14799W        W74060  25.206  22.228   1.299
14800W        W74061  17.755  17.265   0.820
14801W        W74062  39.521  39.885  12.926
14802W        W74063  12.657  31.604  12.435
14803W        W74064   3.261  42.808   2.210
14804W        W74065   1.936  14.103   0.289
14805W        W74066  24.639  26.005  10.903
14806W        W74067  34.073   3.376  10.498
14807W        W74068  41.398   8.808   1.865
14808W        W74069  37.519   9.292  10.907
14809W        W74070  24.643   1.969  14.969
14810W        W74071  44.429  26.138   5.151
14811W        W74072  40.341   3.905   1.317
14812W        W74073  17.802  16.795   3.177
14813W        W74074  22.617  13.257  12.825
14814W        W74075  31.993  37.932  10.961
14815W        W74076  22.122  36.423   3.748
14816W        W74077  11.131  39.514   3.857
14817W        W74078  10.810  32.414   3.293
14818W        W74079  11.792   5.721  12.495
14819W        W74080  32.925  44.307  11.438
14820W        W74081  26.641   9.699   3.813
14821W        W74082  41.406  10.805  14.425
14822W        W74083   0.399   4.375  11.089
14823W        W74084  21.541  28.127   2.222
14824W        W74085  27.015  20.591  11.100
14825W        W74086  21.578  35.890   0.889
14826W        W74087  13.610  31.933   4.683
14827W        W74088  39.920  40.804   2.730
14828W        W74089  34.120  11.798   3.284
14829W        W74090  36.447  19.214  13.061
14830W        W74091  24.133  23.084   0.277
14831W        W74092  12.338  35.421  13.822
14832W        W74093  27.489  25.992  13.534
14833W        W74094  35.598   7.313   4.282
14834W        W74095  40.855  16.599   3.300
14835W        W74096  10.264  43.793   3.681
14836W        W74097  13.250  39.824   2.733
14837W        W74098   2.904  27.470  14.408
14838W        W74099  11.207   0.373  11.372
14839W        W74100  32.624  37.065   3.768
14840W        W74101  28.628  33.885  13.538
14841W        W74102  42.339  32.606   3.330
14842W        W74103  16.727  13.346   3.237
14843W        W74104  13.830  24.130  10.940
14844W        W74105  40.816  15.103   0.885
14845W        W74106  44.343  11.273   3.659
14846W        W74107  39.007  28.520   3.160
14847W        W74108   7.324  38.979  12.409
14848W        W74109   3.335  21.164  12.448
14849W        W74110  36.005   3.434  13.489
14850W        W74111  43.388   8.338  13.493
14851W        W74112  19.750   7.910  12.426
14852W        W74113  20.525  27.127  12.076
14853W        W74114  38.861  25.031  11.460
14854W        W74115  16.773  42.483   2.301
14855W        W74116  27.588  26.096   1.401
14856W        W74117  40.407   3.323  12.986
14857W        W74118   5.329  20.568   1.324
14858W        W74119  15.226   6.337   1.720
14859W        W74120   4.360  41.313  10.551
14860W        W74121  26.680   3.763   5.223
14861W        W74122  41.939  36.541   4.800
14862W        W74123   8.808   9.215  12.991
14863W        W74124  40.002  42.295   3.376
14864W        W74125   6.805  43.797  10.573
14865W        W74126   2.839  37.969   0.790
14866W        W74127  16.666  11.226  13.954
14867W        W74128  20.069  20.671   0.462
14868W        W74129  41.440  11.798  10.615
14869W        W74130  24.514  33.918   3.694
14870W        W74131   1.823  40.913   0.429
14871W        W74132   2.733   4.204   0.338
14872W        W74133  37.062   3.899   1.886
14873W        W74134  42.446  36.967   2.829
14874W        W74135  17.718   8.783   2.184
14875W        W74136   2.274  25.654  14.472
14876W        W74137   6.720  24.103  12.502
14877W        W74138   8.886  10.833   4.777
14878W        W74139   2.785  14.750   0.792
14879W        W74140  35.876  28.080   3.870
14880W        W74141  42.985  23.551   1.729
14881W        W74142  23.555  33.538  12.025
14882W        W74143  41.424  38.488   1.343
14883W        W74144  35.071  27.124  11.975
14884W        W74145  33.088  18.614   2.398
14885W        W74146   1.854  44.381   4.311
14886W        W74147  12.809  15.821   1.269
14887W        W74148  26.524  23.530  13.998
14888W        W74149  24.664   8.294  11.066
14889W        W74150  14.716  12.742   0.747
14890W        W74151   3.944  22.104  11.543
14891W        W74152   7.676  33.457   4.313
14892W        W74153  12.133  19.187  12.827
14893W        W74154  24.679  22.227   3.674
14894W        W74155  21.699  11.320   3.357
14895W        W74156  10.794   9.652   4.793
14896W        W74157  36.584  23.726   2.224
14897W        W74158  12.184   4.768  10.543
14898W        W74159  19.692  42.302   0.925
14899W        W74160  17.677  10.295   2.382
14900W        W74161  22.015  33.991   1.275
14901W        W74162  40.806   0.360  13.469
14902W        W74163  28.993  10.824  12.967
14903W        W74164  17.771   0.795   1.374
14904W        W74165   0.748  15.231   2.864
14905W        W74166  38.496  14.224   0.954
14906W        W74167   6.325  37.086  14.867
14907W        W74168  12.661  22.234  14.501
14908W        W74169  22.013   9.298  13.413
14909W        W74170   0.942  18.549   3.163
14910W        W74171   6.754  14.795  13.017
14911W        W74172   4.228  13.122  12.012
14912W        W74173   6.310  33.617  12.986
14913W        W74174   1.866  38.914   2.249
14914W        W74175  10.340  29.500   0.795
14915W        W74176  16.272  17.624   0.890
14916W        W74177  25.010   7.221   1.338
14917W        W74178  41.513  17.581   2.267
14918W        W74179  24.525   0.454  11.540
14919W        W74180   5.427  40.863   1.769
14920W        W74181  27.026  11.629  12.899
14921W        W74182  22.506  34.575  13.331
14922W        W74183  34.567  29.578   1.283
14923W        W74184  22.153   3.349  10.483
14924W        W74185  13.130  19.555   4.194
14925W        W74186   0.930  20.050   0.320
14926W        W74187  42.428  34.108   4.678
14927W        W74188  31.902  12.230  10.929
14928W        W74189  37.856  44.912  11.886
14929W        W74190   1.861  38.864  14.015
14930W        W74191  30.423  29.123   2.840
14931W        W74192  10.153  38.569   1.434
14932W        W74193   0.950  33.465   4.707
14933W        W74194   8.384   5.390  13.414
14934W        W74195  10.160  27.007   1.733
14935W        W74196  20.147  36.489  12.370
14936W        W74197  21.226  26.113   2.863
14937W        W74198  21.643  23.097   3.215
14938W        W74199  23.575  24.653   3.810
14939W        W74200   3.786   7.282   5.111
14940W        W74201  39.921  21.208  14.943
14941W        W74202   5.902   3.398   0.923
14942W        W74203  36.927  17.252   3.160
14943W        W74204  39.949  24.631   1.413
14944W        W74205  40.543   2.891   1.830
14945W        W74206   3.881   3.722   3.227
14946W        W74207   1.376  32.450   3.815
14947W        W74208  27.621  32.560   4.751
14948W        W74209  23.603  24.180  14.837
14949W        W74210  35.598  18.138  10.503
14950W        W74211  14.100  24.159  11.085
14951W        W74212  36.052   4.442   2.329
14952W        W74213  30.626   8.380   4.711
14953W        W74214  10.809  22.617  14.917
14954W        W74215  32.102  13.187   4.719
14955W        W74216  20.163  31.460   3.223
14956W        W74217  17.270   0.742   4.738
14957W        W74218  11.229  43.432   3.766
14958W        W74219  37.445  36.914   0.357
14959W        W74220  12.236  39.458  11.939
14960W        W74221   7.887  17.156   1.258
14961W        W74222  12.210   9.335   1.836
14962W        W74223  10.778   2.412   4.748
14963W        W74224   3.801  16.649   4.207
14964W        W74225   1.447  14.745   4.162
14965W        W74226  23.507  23.161   0.445
14966W        W74227  43.486  33.060  11.518
14967W        W74228  17.087  17.763  11.978
14968W        W74229  29.470   7.735   3.706
14969W        W74230   2.960  31.086   0.324
14970W        W74231  40.917  27.112  11.999
14971W        W74232   4.332  13.173  14.980
14972W        W74233   0.953   7.203   4.163
14973W        W74234  31.415  11.718  11.076
14974W        W74235   3.846  30.928   2.219
14975W        W74236  44.336  24.187  13.385
14976W        W74237  27.127  12.312   4.258
14977W        W74238  23.110  27.984   0.395
14978W        W74239  21.223  29.050  10.434
14979W        W74240  31.447   3.788   1.750
14980W        W74241  38.885  41.494   1.835
14981W        W74242  36.094   1.341   2.345
14982W        W74243  11.228  41.345  12.876
14983W        W74244   9.743   3.413  10.122
14984W        W74245  33.037  15.610  13.797
14985W        W74246   2.874   0.758  13.538
14986W        W74247  37.408  17.289  11.093
14987W        W74248  42.940  40.377  10.545
14988W        W74249  26.501   5.386   3.195
14989W        W74250   6.237  42.870   2.286
14990W        W74251  34.951   6.244  14.427
14991W        W74252  22.745  15.817   1.704
14992W        W74253   7.410  34.401   0.465
14993W        W74254  30.097  25.098   3.370
14994W        W74255   4.434  25.531   2.253
14995W        W74256   1.258  35.432  11.401
14996W        W74257  42.811  23.060  11.495
14997W        W74258  12.244  16.200   4.250
14998W        W74259  41.336  21.725   9.970
14999W        W74260   2.844  11.264   3.251
15000W        W74261   3.271  13.830   2.378
15001W        W74262   1.882  36.535  10.948
15002W        W74263  44.982   9.652   4.677
15003W        W74264  38.484  44.307  10.455
15004W        W74265  20.718  11.146  14.337
15005W        W74266  37.452  27.460  14.815
15006W        W74267  40.497   8.834   9.956
15007W        W74268   4.870  23.492  10.002
15008W        W74269  13.740  21.737   2.220
15009W        W74270   2.779  10.178   4.813
15010W        W74271   9.802  18.634  14.516
15011W        W74272  40.441  21.702  13.869
15012W        W74273   7.803  15.740  12.927
15013W        W74274  13.604  42.794  10.440
15014W        W74275  25.983  35.509  13.321
15015W        W74276  11.724  43.767   4.232
15016W        W74277  21.707  42.527   4.751
15017W        W74278  10.801  16.184   0.422
15018W        W74279   1.250  44.352   3.772
15019W        W74280   1.841  15.324   1.341
15020W        W74281  22.573  27.956  10.899
15021W        W74282  23.179  15.762   4.690
15022W        W74283  33.880  22.134   3.636
15023W        W74284  43.417   5.745   1.211
15024W        W74285  32.953  20.264  13.933
15025W        W74286  42.834   5.259  12.931
15026W        W74287  18.729   1.459   3.835
15027W        W74288  41.369  15.233   0.729
15028W        W74289  41.377  30.040   1.809
15029W        W74290  22.105  20.766  12.398
15030W        W74291  27.661  19.711  14.301
15031W        W74292   9.699  16.129  13.360
15032W        W74293  43.914  29.166  11.456
15033W        W74294  39.970   4.830  10.540
15034W        W74295  41.401  11.719   4.611
15035W        W74296  33.534  40.041  14.824
15036W        W74297  10.151   4.253   2.800
15037W        W74298  37.503  27.514   1.748
15038W        W74299  15.623  28.648  14.501
15039W        W74300  28.947  44.505  11.080
15040W        W74301  19.679  37.972   3.706
15041W        W74302   6.702  28.510   4.336
15042W        W74303  25.474   8.842  11.111
15043W        W74304  11.302   3.890  14.413
15044W        W74305  11.312  41.028   3.768
15045W        W74306  11.289  12.699  12.970
15046W        W74307  19.544  25.614   1.388
15047W        W74308  14.168  25.652  12.011
15048W        W74309  27.053  27.622   5.225
15049W        W74310  20.044  32.624  11.051
15050W        W74311  21.130  42.401  10.995
15051W        W74312   5.425  19.567   3.250
15052W        W74313   1.732  14.640   1.925
15053W        W74314   6.802  31.993  12.476
15054W        W74315  43.384  23.617  14.295
15055W        W74316   1.942  24.054  10.508
15056W        W74317   3.225  41.425  11.436
15057W        W74318  25.681  21.096  11.533
15058W        W74319  41.402   3.882  12.023
15059W        W74320  31.426  31.945  11.937
15060W        W74321  16.076  28.675   2.861
15061W        W74322  34.531  39.463  13.507
15062W        W74323  16.228   3.246   2.718
15063W        W74324  42.292  17.724   9.521
15064W        W74325  16.695   2.725  11.595
15065W        W74326  37.860  37.555  10.406
15066W        W74327  25.963  34.604  11.921
15067W        W74328  33.381  13.155  13.040
15068W        W74329  18.783  12.330  14.800
15069W        W74330  14.733  43.324  10.990
15070W        W74331   9.382  16.725  13.935
15071W        W74332   5.865  11.355   0.370
15072W        W74333   4.750  38.025  13.803
15073W        W74334  44.291  22.699   4.310
15074W        W74335   8.397  42.375  13.914
15075W        W74336  42.338  18.630  11.405
15076W        W74337  23.670  42.822  12.356
15077W        W74338  24.100  33.881   1.914
15078W        W74339  41.816  10.141   0.880
15079W        W74340  18.548  19.698  11.928
15080W        W74341  13.662  15.590  12.828
15081W        W74342  34.506  44.856  12.573
15082W        W74343  30.601  38.995  14.027
15083W        W74344   8.777  33.409  14.895
15084W        W74345  23.497  10.712   1.252
15085W        W74346   8.391  11.768  14.833
15086W        W74347  28.675  11.210   0.931
15087W        W74348   5.861  33.397  14.429
15088W        W74349  41.841  15.713  12.962
15089W        W74350  33.064  27.679   0.474
15090W        W74351  28.081   8.770   0.308
15091W        W74352  38.522  35.479  11.993
15092W        W74353  14.250  24.606   4.330
15093W        W74354  28.541  20.088  11.947
15094W        W74355  36.917   8.186   4.264
15095W        W74356  32.978  42.861  10.553
15096W        W74357  11.838  17.735   4.662
15097W        W74358  33.573   8.835  14.450
15098W        W74359   7.908  34.008   2.242
15099W        W74360   2.853  44.910   0.942
15100W        W74361  41.340  27.480   3.270
15101W        W74362  38.895  21.645  13.527
15102W        W74363  38.339   8.680   2.727
15103W        W74364  32.904  20.753  10.916
15104W        W74365  43.512   0.937   1.212
15105W        W74366  38.919   6.236  11.043
15106W        W74367  35.106  44.825  12.912
15107W        W74368  34.547  30.953  14.344
15108W        W74369   4.839  32.026   5.089
15109W        W74370  19.064  42.310  11.945
15110W        W74371  19.053  34.867  14.915
15111W        W74372  15.605  14.791   4.642
15112W        W74373   4.856   3.721  13.879
15113W        W74374  24.611  11.137  10.974
15114W        W74375  12.650   0.407  14.346
15115W        W74376  12.212  23.120  10.516
15116W        W74377  13.707  20.524  14.801
15117W        W74378  38.485  37.367   2.878
15118W        W74379  31.972  19.663  12.828
15119W        W74380  36.021  38.856  14.825
15120W        W74381  15.166  42.875   3.847
15121W        W74382  35.552  24.510  13.431
15122W        W74383  26.198  20.195  12.435
15123W        W74384  37.399  34.986  10.119
15124W        W74385  14.201  37.437  10.015
15125W        W74386   1.428  13.627  10.929
15126W        W74387  19.277   1.243   1.405
15127W        W74388  44.476  11.772  11.943
15128W        W74389  11.738  34.516  13.905
15129W        W74390  29.988  17.232   4.302
15130W        W74391  11.172   2.325   0.317
15131W        W74392  17.664  44.502  10.982
15132W        W74393   4.213   3.912   0.434
15133W        W74394  32.524  44.466  12.444
15134W        W74395   7.248  30.043   0.902
15135W        W74396  22.181  13.316   0.413
15136W        W74397  17.754  35.995   3.310
15137W        W74398  13.196  42.460  11.569
15138W        W74399   7.400  25.467   3.783
15139W        W74400  37.407  19.730   4.602
15140W        W74401  21.211  18.608  11.982
15141W        W74402  22.597  23.173   3.673
15142W        W74403  17.157   6.775  11.909
15143W        W74404  10.752  23.131   4.168
15144W        W74405   8.227  28.502   2.757
15145W        W74406  23.698   6.733   2.710
15146W        W74407  13.790  38.481   1.737
15147W        W74408  20.105  31.429   2.853
15148W        W74409  14.650  24.612  11.988
15149W        W74410  25.127  23.678   3.675
15150W        W74411  41.790   8.349  11.093
15151W        W74412  24.222  10.213   0.419
15152W        W74413   6.248  37.883   0.445
15153W        W74414  15.718   0.833   1.367
15154W        W74415  10.701  35.568  12.970
15155W        W74416  40.416  29.017  14.844
15156W        W74417  17.137   3.753  12.849
15157W        W74418   4.221  17.782   0.335
15158W        W74419  25.508  24.078   3.681
15159W        W74420   9.735  14.153   1.321
15160W        W74421   9.329  12.123  11.858
15161W        W74422  21.751  32.600  11.450
15162W        W74423  23.149  29.063  12.346
15163W        W74424  18.067  28.591   9.971
15164W        W74425  21.724  42.960   2.334
15165W        W74426   4.331  42.847   4.195
15166W        W74427  13.726  41.814  12.909
15167W        W74428  44.793  38.355   3.838
15168W        W74429  18.181   3.877  11.899
15169W        W74430   4.856  12.753  11.902
15170W        W74431  36.484  39.444   3.364
15171W        W74432   4.305  14.829  13.823
15172W        W74433  26.966   9.257   0.790
15173W        W74434   0.939  28.978  11.602
15174W        W74435  15.787  38.860   2.224
15175W        W74436  38.851  20.068   2.814
15176W        W74437  20.654  20.267  13.449
15177W        W74438  24.503   3.714   2.897
15178W        W74439  40.010  30.020  10.458
15179W        W74440   6.367  39.982  12.907
15180W        W74441  18.551  13.800   2.780
15181W        W74442  36.049  11.799  12.913
15182W        W74443  19.605  17.175   3.182
15183W        W74444  39.511  36.468  10.413
15184W        W74445  15.212  14.817   1.448
15185W        W74446  28.128  20.698  13.456
15186W        W74447   9.655  42.861  12.493
15187W        W74448   2.804  21.719  12.051
15188W        W74449  33.409   6.858   5.319
15189W        W74450   6.328   4.806   1.870
15190W        W74451  38.377   4.935  14.767
15191W        W74452  37.954  43.357  12.383
15192W        W74453  14.252  14.317   4.159
15193W        W74454   7.205  34.045   0.398
15194W        W74455  39.414  27.039   3.675
15195W        W74456   9.213   1.908  13.528
15196W        W74457  12.196  43.787   4.599
15197W        W74458  41.417  29.465  11.868
15198W        W74459  34.523  10.322  12.535
15199W        W74460   1.736  38.450   2.337
15200W        W74461  10.345  35.063  11.939
15201W        W74462  35.537  13.130   4.668
15202W        W74463  13.832  24.191   2.381
15203W        W74464   2.353  11.295  14.321
15204W        W74465  16.233  34.473  14.361
15205W        W74466  34.084   6.321  10.025
15206W        W74467  23.235  32.958  12.867
15207W        W74468   2.844  12.714  11.976
15208W        W74469  22.210  18.625  14.947
15209W        W74470   0.478  41.408   3.669
15210W        W74471   5.257  42.453   3.725
15211W        W74472  20.046  34.974  14.853
15212W        W74473  39.929  20.060   9.965
15213W        W74474  16.640  14.780  14.338
15214W        W74475  14.226  13.227  12.456
15215W        W74476   7.832   1.777  13.957
15216W        W74477   4.881  28.625  14.784
15217W        W74478  35.588  29.104   4.348
15218W        W74479  17.101  24.492   3.854
15219W        W74480  41.836   3.352   3.342
15220W        W74481  11.345   6.373  11.005
15221W        W74482  27.953  35.488   2.257
15222W        W74483   2.302  32.431   4.654
15223W        W74484   9.693  29.456  10.416
15224W        W74485   7.256  14.624  13.003
15225W        W74486  33.383  43.421   0.787
15226W        W74487  27.599  13.763  11.050
15227W        W74488  18.163  20.691   0.269
15228W        W74489  35.887  28.061  10.567
15229W        W74490  14.280   0.864  10.464
15230W        W74491  38.005  43.419   0.943
15231W        W74492  44.871   4.231   0.440
15232W        W74493  17.749  42.959  11.407
15233W        W74494   0.300  12.636  12.442
15234W        W74495  26.968  35.556  13.987
15235W        W74496  38.433  34.480   3.214
15236W        W74497  28.583  25.096  14.908
15237W        W74498  20.579  14.656  10.457
15238W        W74499   5.437  23.542   4.141
15239W        W74500  38.016   5.429  14.942
15240W        W74501  25.115  20.589  14.395
15241W        W74502  11.188  26.491  10.133
15242W        W74503   6.889  38.066  11.050
15243W        W74504  24.161  23.674   2.240
15244W        W74505  14.675  10.835   1.920
15245W        W74506  26.497  26.568  10.139
15246W        W74507  44.333  21.639  11.895
15247W        W74508  25.480  24.695   0.429
15248W        W74509   7.267  23.564   4.798
15249W        W74510  33.566  34.565   2.404
15250W        W74511  23.665   4.328  13.308
15251W        W74512  12.166  38.876   0.906
15252W        W74513  10.699  15.795  13.820
15253W        W74514  31.465  32.552  14.972
15254W        W74515   3.896  30.611  13.874
15255W        W74516  17.227   0.921   5.164
15256W        W74517  10.348  43.452   4.248
15257W        W74518  31.051   1.935   4.214
15258W        W74519  34.437   3.275  10.498
15259W        W74520  31.594  41.878   0.732
15260W        W74521  16.241  37.964  14.959
15261W        W74522   1.251  10.829   2.669
15262W        W74523  39.879   0.776  14.393
15263W        W74524  35.597  13.150  12.553
15264W        W74525  10.325  19.777  13.353
15265W        W74526  39.552  20.092  14.846
15266W        W74527  38.885  29.076   2.851
15267W        W74528  28.030  38.396  11.523
15268W        W74529  20.069  11.817   4.353
15269W        W74530  32.008  17.094   3.717
15270W        W74531  21.230  36.881   4.789
15271W        W74532  42.509  22.581  14.762
15272W        W74533  41.525  21.194   5.157
15273W        W74534  42.832  15.299  14.771
15274W        W74535  37.942   3.413   1.293
15275W        W74536  40.015  29.958  11.459
15276W        W74537  36.523  21.617  10.941
15277W        W74538   4.291  41.304   2.281
15278W        W74539   2.814   5.820   2.241
15279W        W74540  35.073  34.610   2.713
15280W        W74541   6.294   0.365  11.870
15281W        W74542   7.233  42.860  10.430
15282W        W74543  43.996  25.020  11.956
15283W        W74544  19.570   4.903  13.858
15284W        W74545  25.648  31.543   1.777
15285W        W74546  26.040  10.187  11.985
15286W        W74547   0.873  41.474  14.427
15287W        W74548  42.837  30.644   2.705
15288W        W74549   4.912   6.232  14.852
15289W        W74550  18.136  26.498   2.399
15290W        W74551   6.181  42.997  12.899
15291W        W74552  31.489  29.501   1.890
15292W        W74553  41.379  16.137  14.514
15293W        W74554  38.848   1.287   3.803
15294W        W74555  41.346  28.144   0.254
15295W        W74556  15.102  33.482  12.347
15296W        W74557  22.610  34.944  14.980
15297W        W74558  18.117  25.663  13.983
15298W        W74559  14.337  43.358   1.750
15299W        W74560  35.976  42.873  11.862
15300W        W74561  31.051  34.996  13.950
15301W        W74562  43.909  18.190   3.665
15302W        W74563  24.048  38.458  13.397
15303W        W74564   9.769   5.408  11.103
15304W        W74565   2.757  28.587  13.399
15305W        W74566   2.408  17.219  12.854
15306W        W74567  39.902  30.151  10.962
15307W        W74568  16.168  13.782   4.126
15308W        W74569  41.876  21.605  10.507
15309W        W74570  15.316  15.096  11.459
15310W        W74571  42.460  20.114   0.805
15311W        W74572  24.097   5.412  12.477
15312W        W74573  11.713   8.170  13.493
15313W        W74574  17.685  13.722  14.032
15314W        W74575  35.476  22.506  12.869
15315W        W74576  33.616  44.330   1.841
15316W        W74577  26.093  32.915   0.338
15317W        W74578  18.763  16.317   1.305
15318W        W74579  37.895  35.422  13.421
15319W        W74580  15.675  41.433  11.407
15320W        W74581  18.586  23.181  12.071
15321W        W74582  27.978   9.368  10.549
15322W        W74583  32.065   8.813   0.811
15323W        W74584  37.874  23.514  10.088
15324W        W74585  30.953  13.836   2.746
15325W        W74586  19.194  41.881   1.880
15326W        W74587  42.488  41.485  13.318
15327W        W74588  26.055   9.844   3.345
15328W        W74589  29.117  28.012  10.902
15329W        W74590  35.475  12.268  11.024
15330W        W74591  25.078   3.942   3.679
15331W        W74592  25.528   4.426  12.866
15332W        W74593  42.524  44.812  14.030
15333W        W74594  38.076  31.627   1.705
15334W        W74595  22.007  11.813  14.457
15335W        W74596  19.203  14.612   2.181
15336W        W74597  31.944  36.575   5.307
15337W        W74598   5.797  22.233   2.662
15338W        W74599  38.530  42.523   2.375
15339W        W74600  39.356  18.261   0.442
15340W        W74601   3.454  12.136  13.434
15341W        W74602  41.424  15.315  11.403
15342W        W74603  42.417  37.573   3.383
15343W        W74604  35.418  26.071   1.401
15344W        W74605  14.714   3.892  13.845
15345W        W74606  42.324  18.741   4.136
15346W        W74607  33.912  40.411   2.389
15347W        W74608  43.310  13.182   1.889
15348W        W74609  12.694  20.204  12.360
15349W        W74610   7.865  14.700  12.852
15350W        W74611  19.090  30.079   2.242
15351W        W74612  15.775   6.275   0.737
15352W        W74613  16.663  23.619   0.427
15353W        W74614  36.583  24.643  14.009
15354W        W74615  30.994   1.319  10.516
15355W        W74616  29.630  38.436  14.852
15356W        W74617   0.805  10.236  14.951
15357W        W74618  32.463   3.725   4.775
15358W        W74619  24.204  33.563   1.713
15359W        W74620  17.705  38.354   4.267
15360W        W74621  20.665   1.845   3.649
15361W        W74622  28.489  14.281   1.796
15362W        W74623  11.290  27.615  12.067
15363W        W74624  26.126  35.596   2.718
15364W        W74625   5.330  16.128  11.979
15365W        W74626  26.589  36.071   9.997
15366W        W74627  42.793  29.127   4.725
15367W        W74628  37.071  12.154  14.911
15368W        W74629  18.748  14.294  12.018
15369W        W74630  40.381  33.388   3.661
15370W        W74631   4.796  42.289   1.298
15371W        W74632   3.298   5.256  14.371
15372W        W74633  33.959  31.994  12.427
15373W        W74634  11.211  29.967  14.824
15374W        W74635   5.258  26.649   2.336
15375W        W74636  16.137  26.022  10.011
15376W        W74637  16.246  13.310  13.420
15377W        W74638  27.590  36.842   4.755
15378W        W74639   8.703  27.493   3.656
15379W        W74640  32.008  43.452  12.022
15380W        W74641  18.056  42.526   3.210
15381W        W74642  14.289  25.992  11.124
15382W        W74643  42.519  23.515  11.564
15383W        W74644  13.203  26.547  12.557
15384W        W74645  15.769  41.974   1.359
15385W        W74646   9.286   8.235  13.436
15386W        W74647  26.186  35.550   4.678
15387W        W74648  16.211  41.330   4.209
15388W        W74649   4.849   5.859  14.875
15389W        W74650  15.256  38.356  14.312
15390W        W74651   7.277   9.217   4.662
15391W        W74652  40.317   0.438   4.352
15392W        W74653  44.832   3.812  12.095
15393W        W74654  17.648  41.432  13.044
15394W        W74655  35.039  41.468  12.873
15395W        W74656  19.592  38.062   4.666
15396W        W74657  42.516  28.585   1.709
15397W        W74658  21.176  11.855  14.015
15398W        W74659  25.602  26.609  11.443
15399W        W74660  32.531  10.266   4.236
15400W        W74661   3.325  41.320  14.853
15401W        W74662  16.307   4.381   4.708
15402W        W74663  31.068  13.275   2.872
15403W        W74664  33.426   0.258  10.573
15404W        W74665  24.567  35.884  11.042
15405W        W74666   8.314  44.789  11.965
15406W        W74667  35.381   9.191   0.744
15407W        W74668  30.430  41.835  14.295
15408W        W74669   6.847  34.016  12.387
15409W        W74670  43.010  25.023   5.229
15410W        W74671  37.366  40.371  10.536
15411W        W74672   1.346  23.200   2.315
15412W        W74673  21.070  35.465   4.266
15413W        W74674  18.093   4.440   0.316
15414W        W74675  34.112  23.523   4.219
15415W        W74676  44.770  41.476   1.900
15416W        W74677  10.633  25.070   4.658
15417W        W74678  12.807  32.448  11.599
15418W        W74679  18.288  38.848  13.337
15419W        W74680  19.546  11.862  13.016
15420W        W74681  36.472  33.122   2.385
15421W        W74682  38.528  14.295  14.794
15422W        W74683  26.161  27.136   2.369
15423W        W74684   7.692  41.012   0.879
15424W        W74685  23.082   5.302   2.223
15425W        W74686  26.501  10.283   1.234
15426W        W74687   7.344  19.703   1.719
15427W        W74688  42.975   2.269   1.760
15428W        W74689   3.767  11.676  11.471
15429W        W74690  16.192  30.063   1.842
15430W        W74691  31.045  16.597  12.546
15431W        W74692   5.903  20.532  13.014
15432W        W74693  33.082  21.588   2.228
15433W        W74694  22.105  35.554   4.336
15434W        W74695   2.734  31.963   1.766
15435W        W74696  13.340  30.913   2.247
15436W        W74697   5.846  33.957   3.288
15437W        W74698  41.952  29.557  11.895
15438W        W74699  38.075   1.406  12.996
15439W        W74700  26.181  16.637   0.405
15440W        W74701  16.809  36.096   4.669
15441W        W74702  11.812  17.180   0.865
15442W        W74703  42.006  10.157  13.855
15443W        W74704  27.138   0.782  12.490
15444W        W74705   7.195  11.259   4.316
15445W        W74706  40.920  39.514   2.812
15446W        W74707   7.715  34.950  14.487
15447W        W74708  37.049  10.231  11.914
15448W        W74709   3.435   7.729  14.835
15449W        W74710  42.785  18.172   0.436
15450W        W74711   6.248  42.432   1.883
15451W        W74712  19.211  19.049  13.416
15452W        W74713  42.495  10.294  11.867
15453W        W74714  13.267   9.670  12.036
15454W        W74715  38.030  35.586  14.472
15455W        W74716  31.413   9.322  13.843
15456W        W74717  37.400   3.822   1.868
15457W        W74718  37.571  35.995   2.359
15458W        W74719   4.848  41.354  14.883
15459W        W74720   4.819  21.062  11.079
15460W        W74721  11.364  31.466  14.311
15461W        W74722  41.854  44.317  14.325
15462W        W74723   5.727  44.816  14.360
15463W        W74724   0.760  22.234  14.786
15464W        W74725  35.375   9.780  14.777
15465W        W74726  18.159   8.771   3.331
15466W        W74727  27.598  10.282  14.763
15467W        W74728  18.681  15.684   3.222
15468W        W74729  34.506   5.917   2.204
15469W        W74730   2.961  29.508   0.475
15470W        W74731  22.747  37.904   0.780
15471W        W74732   3.915  30.484   4.722
15472W        W74733   5.815   2.260  14.501
15473W        W74734  22.180  28.119   2.283
15474W        W74735  12.851   1.265   1.429
15475W        W74736   8.361  29.585  10.612
15476W        W74737  44.956  17.709  14.843
15477W        W74738  33.904  44.494  13.376
15478W        W74739  32.045  23.679  11.412
15479W        W74740  13.710   5.881   1.284
15480W        W74741   3.380  31.519  13.362
15481W        W74742  15.714  43.011   3.665
15482W        W74743   8.361  27.946   3.824
15483W        W74744   9.237  20.084   3.850
15484W        W74745  39.930   0.863  14.882
15485W        W74746  26.644  16.796   3.642
15486W        W74747  35.876  22.082  11.998
15487W        W74748   2.297  35.108   2.673
15488W        W74749  44.315  42.978  10.077
15489W        W74750  14.780  21.041  12.953
15490W        W74751   0.493   4.351   1.380
15491W        W74752  22.671  18.069   2.890
15492W        W74753   9.836   9.862   3.367
15493W        W74754  27.498   6.235  12.072
15494W        W74755   5.917  19.134  12.479
15495W        W74756   2.814  23.554  12.949
15496W        W74757  22.116  35.424   3.153
15497W        W74758  42.393   3.248   1.878
15498W        W74759  33.110  29.426   3.697
15499W        W74760  19.216  31.554  13.537
15500W        W74761   3.942  14.764   4.751
15501W        W74762  12.843  36.890  14.491
15502W        W74763  43.317  26.133  14.788
15503W        W74764  12.620  10.237   1.723
15504W        W74765  19.063  21.585   4.617
15505W        W74766  28.090  18.185   2.199
15506W        W74767  25.587  36.398  14.329
15507W        W74768  37.537  35.985   3.312
15508W        W74769  26.087   2.927   3.333
15509W        W74770   5.401  17.725  14.393
15510W        W74771  34.114   6.223  13.355
15511W        W74772  40.862   6.702  14.494
15512W        W74773   3.806  15.697  14.346
15513W        W74774  24.176   6.232   1.846
15514W        W74775  18.574  12.187   1.297
15515W        W74776  17.274  41.997  13.816
15516W        W74777  33.381  34.962   1.431
15517W        W74778  26.108  20.703  11.121
15518W        W74779  13.179  12.670  11.592
15519W        W74780   9.643  32.102   2.879
15520W        W74781   2.278  24.163  12.517
15521W        W74782  12.287  44.800   3.829
15522W        W74783   3.877  35.525  10.554
15523W        W74784   0.815  22.157  11.860
15524W        W74785  35.882  33.418  12.986
15525W        W74786  30.978  42.355   3.280
15526W        W74787  26.185  27.660   4.817
15527W        W74788   1.877  11.346  13.494
15528W        W74789  40.399  27.949   2.728
15529W        W74790   6.918  23.024   3.383
15530W        W74791  28.607  43.492   2.218
15531W        W74792  42.782  31.570   1.277
15532W        W74793  39.811  30.076   2.755
15533W        W74794  28.462   0.283   0.803
15534W        W74795  26.153  39.455  14.813
15535W        W74796   4.236   7.196  11.388
15536W        W74797  33.389   6.821   2.686
15537W        W74798  38.555  22.592   0.373
15538W        W74799  38.911   5.224   2.276
15539W        W74800  36.569  38.488   4.261
15540W        W74801  27.508   7.215  11.870
15541W        W74802  18.192   6.292   1.795
15542W        W74803  15.128   7.753   4.113
15543W        W74804  21.664   1.925   4.837
15544W        W74805  10.281  20.216   3.250
15545W        W74806   5.811  41.914   0.889
15546W        W74807  42.484   5.293  11.078
15547W        W74808  17.689   1.749   3.720
15548W        W74809   4.383  19.776   1.287
15549W        W74810  40.312  39.982  11.109
15550W        W74811  30.655  33.588  14.848
15551W        W74812  10.701  33.443  14.512
15552W        W74813  37.339  40.347  12.944
15553W        W74814   1.827  33.514  12.861
15554W        W74815   7.228  21.070   0.779
15555W        W74816  16.758   0.881  11.078
15556W        W74817  19.758   9.646  12.428
15557W        W74818  11.320  39.830   4.621
15558W        W74819  15.153   8.181   2.399
15559W        W74820   3.272  24.101  14.774
15560W        W74821  33.500   0.390   1.898
15561W        W74822  27.994  33.494  12.848
15562W        W74823   0.810  14.694  12.401
15563W        W74824  36.841  13.751   0.458
15564W        W74825  17.753  38.993   0.793
15565W        W74826  16.248  44.394   4.327
15566W        W74827  24.699  39.043  13.330
15567W        W74828   3.916  28.050   2.372
15568W        W74829   7.216  16.808  12.466
15569W        W74830  16.074  27.604   2.333
15570W        W74831   3.378  11.664   1.761
15571W        W74832  39.517  12.732  13.403
15572W        W74833  31.945  30.469   0.433
15573W        W74834   3.944  43.855   2.276
15574W        W74835  38.860  19.139   3.347
15575W        W74836  27.680  44.425   2.344
15576W        W74837  43.276   4.800   1.278
15577W        W74838  12.774  15.259   4.757
15578W        W74839   6.832  15.321   2.319
15579W        W74840  39.521  43.305   1.930
15580W        W74841   8.236  14.152   4.688
15581W        W74842  27.518  30.536  14.956
15582W        W74843  42.794  12.784  11.896
15583W        W74844  17.117   9.369  12.058
15584W        W74845  35.576   4.785   0.284
15585W        W74846  15.713  36.941   3.750
15586W        W74847  22.007  32.057   1.924
15587W        W74848  28.021  35.376   4.154
15588W        W74849  29.134  28.082  12.023
15589W        W74850   7.814  41.394  10.597
15590W        W74851  22.599  10.307   2.191
15591W        W74852  27.678   9.841  11.427
15592W        W74853   1.977  12.299  14.348
15593W        W74854  19.231  37.867  13.506
15594W        W74855  11.767   0.360   0.790
15595W        W74856   7.404  41.003   1.263
15596W        W74857  17.708  42.326   0.866
15597W        W74858   2.393  15.101  14.414
15598W        W74859  22.204   3.374  13.901
15599W        W74860  33.940  18.074   0.803
15600W        W74861  12.358  12.705   3.221
15601W        W74862  10.815  34.411   4.147
15602W        W74863  16.638   9.315   3.194
15603W        W74864   8.252  36.890  10.444
15604W        W74865  24.977  21.623   3.197
15605W        W74866  30.533  17.610  13.942
15606W        W74867   1.447  21.628  10.534
15607W        W74868   8.798  26.581   1.358
15608W        W74869  19.198  26.547  10.422
15609W        W74870   2.256  34.080  10.564
15610W        W74871  36.467   7.819   4.315
15611W        W74872  36.048  14.614   0.457
15612W        W74873  43.343   0.254   4.220
15613W        W74874  20.233   8.162   0.354
15614W        W74875  25.494   0.814   3.869
15615W        W74876   9.655  32.904   3.769
15616W        W74877   8.753  25.018   9.968
15617W        W74878  15.184   8.262   4.268
15618W        W74879  17.671  44.370  12.511
15619W        W74880  38.451  30.118  13.432
15620W        W74881  23.717  36.995  13.355
15621W        W74882  26.556  32.562   3.235
15622W        W74883  44.302   2.771  12.897
15623W        W74884  13.331  22.222  11.596
15624W        W74885  10.840  38.007  11.882
15625W        W74886  38.929  18.618   3.252
15626W        W74887  37.084  16.311   0.932
15627W        W74888   7.759   4.856  12.462
15628W        W74889  21.682  10.208   4.300
15629W        W74890  41.847  39.952   1.835
15630W        W74891   4.744   0.780  12.874
15631W        W74892  25.507   5.907  12.544
15632W        W74893  22.094  37.996   2.670
15633W        W74894  30.038  40.876  11.928
15634W        W74895   5.368  10.693  12.463
15635W        W74896  36.855   9.344   5.692
15636W        W74897  26.079  26.698   5.081
15637W        W74898  10.360  35.440   3.863
15638W        W74899  16.696  19.275   9.566
15639W        W74900  24.677  33.932   0.363
15640W        W74901   3.919   4.740  13.351
15641W        W74902  26.005  40.038   0.297
15642W        W74903  16.154  35.434   1.706
15643W        W74904  44.819  34.078   4.783
15644W        W74905  10.168  19.553  10.630
15645W        W74906  11.708   1.932  14.509
15646W        W74907  37.339   1.791  14.422
15647W        W74908  29.009  42.300   2.724
15648W        W74909  35.427   8.871   0.788
15649W        W74910   1.307  11.258   2.788
15650W        W74911  32.392   4.710  10.444
15651W        W74912  10.247   2.367  12.093
15652W        W74913  41.346  24.507   0.927
15653W        W74914   9.867  26.042   2.230
15654W        W74915  20.257  28.596  11.950
15655W        W74916  14.738  40.349  10.453
15656W        W74917   6.363  11.208  10.556
15657W        W74918  27.017  32.615   2.761
15658W        W74919  30.456  12.693   2.286
15659W        W74920  38.570  31.021   2.412
15660W        W74921  26.117  19.561   0.905
15661W        W74922   3.284  13.329   5.116
15662W        W74923  43.478   8.806  10.441
15663W        W74924   3.733  29.950   2.842
15664W        W74925   2.726   8.251  12.938
15665W        W74926   4.314  29.543  13.312
15666W        W74927  15.291  28.451   1.821
15667W        W74928  40.337  41.531   2.184
15668W        W74929  28.965  24.575  10.558
15669W        W74930  21.552  20.160   4.640
15670W        W74931   4.382  14.635   1.450
15671W        W74932  37.932  18.681   3.807
15672W        W74933  41.987  23.154   3.752
15673W        W74934  19.252  21.652   9.480
15674W        W74935  40.345  44.492   0.791
15675W        W74936  28.098  21.060   0.952
15676W        W74937  17.591  42.521   1.429
15677W        W74938  37.508  29.629   0.435
15678W        W74939  38.932  11.714   2.856
15679W        W74940   0.858  36.511   2.330
15680W        W74941  43.771   6.296  14.792
15681W        W74942  35.976  20.035   1.911
15682W        W74943   0.942  17.643   3.845
15683W        W74944  12.145  29.511   2.851
15684W        W74945  30.955  36.356   4.168
15685W        W74946  24.546  15.139  14.455
15686W        W74947   8.754  41.447  10.996
15687W        W74948  37.477   9.758   4.116
15688W        W74949  18.715   4.890   1.856
15689W        W74950   1.377  27.540   3.152
15690W        W74951  28.107  25.698   1.303
15691W        W74952  16.201   0.315   2.751
15692W        W74953   8.884  10.240  12.350
15693W        W74954  24.977  31.971   0.964
15694W        W74955  42.803  37.883  14.792
15695W        W74956   3.457   7.889   0.449
15696W        W74957  24.533  37.506  14.401
15697W        W74958  41.879  24.988  12.012
15698W        W74959  16.610  36.894   4.127
15699W        W74960  21.751  35.465   0.411
15700W        W74961  15.179   8.269  12.461
15701W        W74962  32.889  23.569  11.408
15702W        W74963  24.164   5.367   2.316
15703W        W74964  42.952  42.524   4.666
15704W        W74965   2.777  39.911   2.392
15705W        W74966  13.209  19.702   3.639
15706W        W74967   4.320  43.880   0.936
15707W        W74968  15.173  25.535  14.846
15708W        W74969  34.527  18.228  12.381
15709W        W74970  35.565   1.349   0.477
15710W        W74971   2.740  24.998  11.940
15711W        W74972  21.727   9.846   0.393
15712W        W74973  26.626  42.322   1.319
15713W        W74974   1.404  40.519  14.965
15714W        W74975  33.123  18.059   3.325
15715W        W74976  30.032  27.000   0.355
15716W        W74977  40.850  34.051  12.405
15717W        W74978   0.790  17.797  13.338
15718W        W74979  29.061  21.538   1.388
15719W        W74980  43.357  21.137  10.894
15720W        W74981  43.484  19.111  12.540
15721W        W74982  32.091  22.035  12.480
15722W        W74983  22.539  27.540   2.727
15723W        W74984  33.593  30.088  10.888
15724W        W74985  23.215  27.163  13.467
15725W        W74986  28.455  25.114   0.279
15726W        W74987  43.931  24.119   3.305
15727W        W74988  26.540   7.302   1.401
15728W        W74989  29.090   3.282  14.978
15729W        W74990  11.704  26.077  12.919
15730W        W74991   2.862  16.078   1.437
15731W        W74992  38.070   4.789  12.873
15732W        W74993  27.020  10.173  11.857
15733W        W74994  10.744  34.061   0.886
15734W        W74995  43.459  44.368  14.876
15735W        W74996  39.861  42.024   1.446
15736W        W74997  22.697  17.174  11.395
15737W        W74998  11.349  39.926  13.309
15738W        W74999  41.964  17.688  14.876
15739W        W75000  27.469  28.482   0.300
15740W        W75001   2.451   4.396   2.721
15741W        W75002  23.131   7.868  11.081
15742W        W75003   7.345  21.072  11.938
15743W        W75004   8.665  23.699  13.012
15744W        W75005  23.235   7.409   4.331
15745W        W75006   6.374   1.789   4.773
15746W        W75007  36.032  43.982   0.935
15747W        W75008  31.044  35.091   4.653
15748W        W75009  21.514  39.384   3.654
15749W        W75010  29.513  13.735   0.963
15750W        W75011  13.600  11.264  14.315
15751W        W75012  13.636  36.905   3.707
15752W        W75013  24.199  23.696   4.264
15753W        W75014  11.750  12.666   0.783
15754W        W75015   1.466  12.163   2.291
15755W        W75016  16.170   8.277   4.188
15756W        W75017  27.451  10.720  13.529
15757W        W75018  22.182  25.592   3.250
15758W        W75019  41.404  29.600  12.969
15759W        W75020  26.696   7.769   4.298
15760W        W75021   3.919  20.649  14.804
15761W        W75022   3.342  13.326  11.532
15762W        W75023   3.250   7.808   3.182
15763W        W75024  26.157  18.153   3.719
15764W        W75025  15.237   7.686   3.763
15765W        W75026  20.070  12.661   4.751
15766W        W75027  22.040  16.186  12.957
15767W        W75028   0.380   4.436   0.395
15768W        W75029   0.343  24.041   4.729
15769W        W75030  39.999  19.087   4.745
15770W        W75031  20.537  37.078   0.816
15771W        W75032  41.305  28.095  12.018
15772W        W75033  11.365  19.632   4.766
15773W        W75034  40.400  44.273  13.471
15774W        W75035  39.505   1.405   3.777
15775W        W75036  34.568   8.743   0.752
15776W        W75037  20.045  21.542   4.759
15777W        W75038  39.814  33.946   4.816
15778W        W75039  44.391  32.510  14.898
15779W        W75040  24.493   3.818  11.003
15780W        W75041  25.712   0.943  11.608
15781W        W75042  42.795  34.569  14.480
15782W        W75043   6.816  44.892  12.080
15783W        W75044  40.365   3.936   0.729
15784W        W75045  28.075  20.638  12.396
15785W        W75046   8.334  33.009   1.791
15786W        W75047   8.276  14.132  14.465
15787W        W75048  16.289   4.856   2.880
15788W        W75049  33.591  12.262  11.128
15789W        W75050   5.366  43.982  11.408
15790W        W75051   2.406  27.563  13.984
15791W        W75052  30.098  38.965   1.447
15792W        W75053  38.344  40.017   0.258
15793W        W75054  12.183  41.010   0.428
15794W        W75055   7.906  23.166  10.595
15795W        W75056  44.453  12.767   4.177
15796W        W75057  13.674  44.420  13.942
15797W        W75058   1.478  38.023   4.598
15798W        W75059  14.783  16.698  13.375
15799W        W75060  40.031  43.875   2.800
15800W        W75061  25.621  21.101  12.015
15801W        W75062  44.804  22.087  10.516
15802W        W75063  35.008  20.173  12.523
15803W        W75064  16.315  28.523   0.958
15804W        W75065  22.130  14.730   4.778
15805W        W75066  33.567  21.515  14.334
15806W        W75067  37.920   6.276   3.797
15807W        W75068  28.058  12.235  12.829
15808W        W75069  34.449   9.307  11.489
15809W        W75070  14.819  27.946   1.343
15810W        W75071   2.423  40.540   2.261
15811W        W75072  18.567  43.980  12.872
15812W        W75073   9.672  29.130   4.804
15813W        W75074  21.123  16.659   2.786
15814W        W75075  24.205   2.294  11.506
15815W        W75076  35.513  32.098   4.689
15816W        W75077  36.549  41.414   4.667
15817W        W75078  17.145  35.886   0.456
15818W        W75079  19.637  25.535  11.378
15819W        W75080  12.816  30.051   4.775
15820W        W75081  24.551   7.201  11.955
15821W        W75082   6.858   3.402  14.423
15822W        W75083  20.206  24.222  14.374
15823W        W75084  44.949  19.544  10.574
15824W        W75085  17.693  32.622  14.403
15825W        W75086  39.543  34.059   2.388
15826W        W75087   6.304  12.758   2.817
15827W        W75088   7.177   5.768   0.282
15828W        W75089  21.162  25.477   0.939
15829W        W75090  20.597  40.395   2.900
15830W        W75091  20.664  25.636  12.963
15831W        W75092  14.801   1.275  12.905
15832W        W75093  10.837  10.733   4.299
15833W        W75094   1.367  35.003   2.853
15834W        W75095  26.186  16.194  12.930
15835W        W75096  39.022  26.963   0.279
15836W        W75097  30.583  38.507  13.435
15837W        W75098  30.108  19.686   1.411
15838W        W75099  44.504  12.256   3.693
15839W        W75100  18.689  16.601   1.794
15840W        W75101  10.674  34.008  11.382
15841W        W75102  44.452  21.049  13.030
15842W        W75103   5.850   2.900   4.167
15843W        W75104  40.307   4.777   3.718
15844W        W75105  33.942   7.890  11.058
15845W        W75106   4.881  40.305   4.286
15846W        W75107  43.288  23.143  10.987
15847W        W75108  33.112  29.949   4.623
15848W        W75109   3.238   7.884  12.354
15849W        W75110  12.320  18.612  14.326
15850W        W75111   3.868  33.405   0.866
15851W        W75112   2.320  43.501  13.425
15852W        W75113  25.018   2.329  13.825
15853W        W75114  29.977  43.816   3.320
15854W        W75115  44.272  40.335   1.254
15855W        W75116  31.440  40.536  13.313
15856W        W75117  35.867  43.931  14.404
15857W        W75118  20.725   6.815   3.767
15858W        W75119  25.504  15.290  13.982
15859W        W75120  29.999  32.925  11.505
15860W        W75121  43.398  29.098  10.479
15861W        W75122  23.161  33.922  10.955
15862W        W75123   5.316  33.974  10.976
15863W        W75124  38.370  13.782   0.401
15864W        W75125  42.994  32.127   1.778
15865W        W75126  26.653  22.672   5.247
15866W        W75127  24.169   9.271  14.901
15867W        W75128  41.303  18.641   4.221
15868W        W75129  30.013  15.764   1.869
15869W        W75130  19.732  42.815  12.861
15870W        W75131   6.863  19.281  12.352
15871W        W75132  19.173   1.394   3.335
15872W        W75133  13.816  43.018  12.871
15873W        W75134  44.286  32.893  14.827
15874W        W75135  15.238   6.229  12.469
15875W        W75136  21.231   6.710  10.460
15876W        W75137  30.562  13.791  14.279
15877W        W75138  15.626  12.203  14.800
15878W        W75139  28.074   7.860   3.818
15879W        W75140   3.460   9.882  11.490
15880W        W75141  43.406   6.314   1.805
15881W        W75142  11.762  21.670   4.150
15882W        W75143  42.855  38.561  12.082
15883W        W75144  38.452  23.593  13.964
15884W        W75145  17.258  30.155  13.521
15885W        W75146  37.452  15.154   2.329
15886W        W75147  19.260  32.407  14.786
15887W        W75148   0.946  29.486   1.827
15888W        W75149  40.404   1.314   0.301
15889W        W75150  13.126  34.583  12.981
15890W        W75151  20.032   1.771  12.900
15891W        W75152  20.722  40.327   1.276
15892W        W75153   5.925   5.860   0.931
15893W        W75154  21.031  40.906   2.246
15894W        W75155  13.266   2.461   4.730
15895W        W75156  16.196  39.819  12.949
15896W        W75157  24.139  15.176   3.656
15897W        W75158   7.856  30.460  14.886
15898W        W75159   6.761  17.665  14.301
15899W        W75160  22.050  42.962  12.001
15900W        W75161  41.857  43.795  14.500
15901W        W75162  34.005  16.140  14.892
15902W        W75163  42.328  42.998  12.409
15903W        W75164  36.458  27.517   3.346
15904W        W75165  27.514  14.172  10.449
15905W        W75166  28.653  14.804   4.671
15906W        W75167  22.741  34.941   3.771
15907W        W75168   5.690   0.370   2.209
15908W        W75169  13.846   1.920  11.994
15909W        W75170   6.315  37.855  12.828
15910W        W75171  20.695  11.142  13.045
15911W        W75172  19.667   2.458  11.038
15912W        W75173  30.560  18.132  12.063
15913W        W75174  29.133  13.647  10.415
15914W        W75175  34.397   9.332  14.888
15915W        W75176   1.906   4.336  14.327
15916W        W75177  18.072   0.827  10.915
15917W        W75178  16.318   8.770  10.627
15918W        W75179  23.005  22.741  13.319
15919W        W75180  10.636   1.433   3.861
15920W        W75181   0.466  35.439   3.150
15921W        W75182  13.190  22.549  12.845
15922W        W75183  39.914  21.239   2.879
15923W        W75184   5.289  33.411   4.798
15924W        W75185  26.983  43.417   1.873
15925W        W75186  43.869  39.454   2.306
15926W        W75187  21.713  15.248   4.119
15927W        W75188  23.596   5.302   3.842
15928W        W75189  43.313  33.619  11.993
15929W        W75190  24.688  32.904  11.985
15930W        W75191  18.198  39.384  10.498
15931W        W75192  10.818   4.315   9.504
15932W        W75193   6.922   2.310  10.053
15933W        W75194  35.104   3.321  14.842
15934W        W75195  22.701  23.192   2.774
15935W        W75196  43.507  13.753   3.831
15936W        W75197  16.683  16.613   4.837
15937W        W75198  23.037  26.604   3.336
15938W        W75199  43.444  24.979  14.856
15939W        W75200   1.893  40.040  10.596
15940W        W75201  20.205  29.595   1.354
15941W        W75202  36.560  36.064   3.146
15942W        W75203   3.732   8.662   5.251
15943W        W75204  30.473  32.915   4.277
15944W        W75205  23.516   8.823   0.350
15945W        W75206  30.914  30.138   2.279
15946W        W75207  40.454  35.386  12.359
15947W        W75208   4.239   6.776   1.294
15948W        W75209  20.261  41.385   4.202
15949W        W75210   7.264   8.819   3.177
15950W        W75211   9.375  35.443  14.959
15951W        W75212  32.927  27.453  12.046
15952W        W75213  25.517  44.404  13.974
15953W        W75214  14.630  44.287  13.495
15954W        W75215  21.200  39.975  13.489
15955W        W75216  10.376   8.180  10.628
15956W        W75217  14.697  15.729   2.212
15957W        W75218  25.696  20.196  11.120
15958W        W75219   6.423  39.416   2.217
15959W        W75220  35.496  41.296  12.340
15960W        W75221  38.866   3.440  12.502
15961W        W75222  29.603   1.905   4.150
15962W        W75223  30.986   1.377   1.379
15963W        W75224  18.673  16.214   0.931
15964W        W75225   6.699   7.910   3.843
15965W        W75226  34.490   6.859  12.918
15966W        W75227   2.950  31.017  14.337
15967W        W75228   3.912  34.966   2.699
15968W        W75229  24.126   6.204  14.917
15969W        W75230   9.792  16.183  12.083
15970W        W75231  32.572  19.560   4.772
15971W        W75232   2.453  24.152   3.673
15972W        W75233  23.714  14.303  12.009
15973W        W75234  27.197  18.132  13.499
15974W        W75235  27.148  14.184  10.937
15975W        W75236  21.183  31.413   4.251
15976W        W75237  27.136   1.759   0.823
15977W        W75238  39.327  24.975   2.858
15978W        W75239  33.956  23.524   2.741
15979W        W75240   6.278  35.536   0.444
15980W        W75241  30.912  28.500   2.186
15981W        W75242  37.867   3.832   1.345
15982W        W75243  10.221   3.265   2.352
15983W        W75244   9.742  21.254   4.195
15984W        W75245  28.518  24.664   0.298
15985W        W75246  31.932  26.204  14.011
15986W        W75247  37.385   8.325   4.229
15987W        W75248  44.981   0.759   2.835
15988W        W75249  10.874  39.823  13.877
15989W        W75250  31.633  30.950  14.959
15990W        W75251  36.547  33.881   3.820
15991W        W75252  19.090  34.544   2.890
15992W        W75253  30.457  16.308   2.708
15993W        W75254  30.631  13.819  13.809
15994W        W75255  28.035  19.719  14.968
15995W        W75256  22.641  37.464   3.201
15996W        W75257  17.101   0.400  14.382
15997W        W75258   2.946  22.066   3.720
15998W        W75259  42.816  36.949  13.916
15999W        W75260  38.428  21.734   4.191
16000W        W75261  30.017   7.698   1.911
16001W        W75262  22.188  25.003   3.829
16002W        W75263   8.672  27.578  12.442
16003W        W75264   9.363  24.713   0.860
16004W        W75265  29.501  24.501  11.992
16005W        W75266   8.366  12.666  10.481
16006W        W75267   5.748  17.216   0.380
16007W        W75268  39.464  29.047  14.000
16008W        W75269   0.348   0.281   1.220
16009W        W75270  16.628  14.184   4.654
16010W        W75271  23.608  13.611   0.749
16011W        W75272  21.230   2.447  11.443
16012W        W75273  42.450   0.799  12.460
16013W        W75274  40.048  32.982  11.867
16014W        W75275   3.308  35.559  12.471
16015W        W75276   6.255  30.918  11.883
16016W        W75277  36.868  20.208  13.436
16017W        W75278  12.653  15.673   2.899
16018W        W75279  28.533  32.980   1.360
16019W        W75280  27.553   7.296   3.749
16020W        W75281  24.574  41.483  13.955
16021W        W75282   7.749  32.616  11.890
16022W        W75283  39.997  27.669   0.824
16023W        W75284  15.155  11.777   0.926
16024W        W75285  30.593  12.318   1.367
16025W        W75286  34.482  21.696   0.845
16026W        W75287  28.945   2.248   1.394
16027W        W75288  39.329  20.737   2.296
16028W        W75289  22.662  22.023  12.352
16029W        W75290  32.574  12.236  12.831
16030W        W75291  25.647  41.873   0.345
16031W        W75292  27.971   5.245   4.688
16032W        W75293   3.812  31.927   1.391
16033W        W75294  36.502  40.463  12.916
16034W        W75295  29.508  28.574  14.510
16035W        W75296  15.698  36.074  14.008
16036W        W75297  40.802  39.931  13.880
16037W        W75298  10.825  40.454  13.492
16038W        W75299  23.129  23.694   0.433
16039W        W75300  22.031  40.497   0.865
16040W        W75301   5.408   0.305  13.499
16041W        W75302  28.437   7.803  11.973
16042W        W75303  44.949  32.106   3.180
16043W        W75304  12.209  17.197  14.925
16044W        W75305  21.657  11.808  12.936
16045W        W75306  41.453   4.277   0.446
16046W        W75307  24.046  42.411   2.814
16047W        W75308  21.646  10.809  14.881
16048W        W75309  40.470  35.039   1.273
16049W        W75310  22.661   5.257  12.072
16050W        W75311  14.296  34.914   1.929
16051W        W75312  43.950  36.852  12.069
16052W        W75313   5.438  20.154   4.200
16053W        W75314  10.167  23.060  11.599
16054W        W75315  36.074  25.580  14.986
16055W        W75316  16.264  42.849   0.872
16056W        W75317  37.085  18.259   2.897
16057W        W75318  10.758  38.880  11.080
16058W        W75319  38.513  37.484   0.349
16059W        W75320   8.897  17.690  10.461
16060W        W75321  39.337  41.297  14.435
16061W        W75322  22.225  18.166  10.965
16062W        W75323  34.893  39.431   3.839
16063W        W75324  42.839  27.602   4.685
16064W        W75325  28.500  24.637   4.338
16065W        W75326  33.456  22.657   4.298
16066W        W75327  29.482  14.603   1.803
16067W        W75328  36.078  10.850   0.370
16068W        W75329  41.353  44.375   1.839
16069W        W75330  25.496  23.106  10.585
16070W        W75331   9.802   7.754  10.608
16071W        W75332   7.259  10.798  11.463
16072W        W75333  27.642  24.227  10.888
16073W        W75334  11.268  33.990  13.460
16074W        W75335  35.004  17.643   3.769
16075W        W75336  34.427  26.022  12.966
16076W        W75337  30.649  33.545  14.407
16077W        W75338  39.008   7.716   2.346
16078W        W75339  15.637  16.612   1.847
16079W        W75340  27.502  40.035  14.350
16080W        W75341  36.382  33.952  13.992
16081W        W75342  39.443   8.763  14.376
16082W        W75343  32.931  36.946   2.820
16083W        W75344   4.774  43.002   3.187
16084W        W75345  20.649  21.100   3.834
16085W        W75346   7.354  23.209   0.292
16086W        W75347  43.905   1.907  14.367
16087W        W75348  44.468  13.743  12.834
16088W        W75349  13.346   7.908   1.813
16089W        W75350  35.946   5.886   4.192
16090W        W75351  44.325  15.275   4.161
16091W        W75352  10.733  43.499  11.428
16092W        W75353  28.040  21.748  12.998
16093W        W75354  20.075  21.710  14.793
16094W        W75355  34.418  29.966   0.386
16095W        W75356  17.079  16.180  13.431
16096W        W75357  27.508  34.541  12.967
16097W        W75358  24.142  26.647  14.947
16098W        W75359  12.300   0.371  10.979
16099W        W75360  15.199  26.547  12.092
16100W        W75361  13.634  18.168   1.266
16101W        W75362  10.672  43.313  13.811
16102W        W75363   6.782  14.211   0.446
16103W        W75364  10.314  25.596  12.986
16104W        W75365  27.977  11.694  11.582
16105W        W75366  11.281  14.222  14.387
16106W        W75367  12.265  20.162  14.309
16107W        W75368   1.893   4.450  10.571
16108W        W75369  37.439  17.659   1.699
16109W        W75370  15.149  19.536   3.650
16110W        W75371   1.377  44.855   1.385
16111W        W75372   3.742   7.679  13.528
16112W        W75373  19.752   8.201   1.858
16113W        W75374  28.022   9.148   2.827
16114W        W75375   8.361  21.604   4.715
16115W        W75376   4.744   0.489  14.835
16116W        W75377   9.868  38.435   2.214
16117W        W75378  34.082  39.818  11.544
16118W        W75379  39.901   2.764  12.861
16119W        W75380  10.633  13.690   3.841
16120W        W75381  23.629  28.001   3.663
16121W        W75382  26.164   7.821   1.788
16122W        W75383  38.365  26.642  12.053
16123W        W75384  23.237  11.290   1.330
16124W        W75385  19.666  21.703  11.024
16125W        W75386  21.724   4.365   2.801
16126W        W75387  32.101   7.318  10.041
16127W        W75388  25.513  43.463  14.027
16128W        W75389  21.689  16.700   4.631
16129W        W75390  42.429  23.579  14.845
16130W        W75391  37.039  35.887  14.462
16131W        W75392  31.410  33.074  13.997
16132W        W75393   8.165  27.071   4.822
16133W        W75394  28.528  23.532  10.598
16134W        W75395   7.720  18.660  10.555
16135W        W75396  17.277  18.598   1.773
16136W        W75397  36.904   1.831   3.666
16137W        W75398  16.311   7.364   1.778
16138W        W75399   7.736  19.679   1.854
16139W        W75400  10.643   6.759   5.266
16140W        W75401  42.335  44.409  12.518
16141W        W75402  12.696   1.810  12.347
16142W        W75403  33.055   7.859  14.843
16143W        W75404  19.607  25.010  11.058
16144W        W75405  36.035  20.273   5.306
16145W        W75406  37.441  43.939  13.933
16146W        W75407  12.249   5.295   4.639
16147W        W75408  14.243  38.889  11.575
16148W        W75409  27.163  16.313  13.964
16149W        W75410  22.726   5.363  12.938
16150W        W75411   2.459  41.295   1.786
16151W        W75412  29.013   8.228   2.350
16152W        W75413  42.393  43.986   4.720
16153W        W75414  29.989  24.503  13.793
16154W        W75415  19.742  34.095  14.398
16155W        W75416   7.318  42.985  14.971
16156W        W75417   3.877  30.027  14.952
16157W        W75418   2.867  17.734  10.479
16158W        W75419  42.900  23.999  14.841
16159W        W75420   9.690  34.982   0.306
16160W        W75421  24.679  23.075  14.914
16161W        W75422  40.027  37.353  12.344
16162W        W75423  31.552   1.341   2.863
16163W        W75424   5.763  17.243   2.285
16164W        W75425  41.415  24.582  11.414
16165W        W75426   8.720  13.743   0.845
16166W        W75427  31.562  21.536   4.227
16167W        W75428   5.332   4.745   5.748
16168W        W75429  35.023  12.184  14.956
16169W        W75430  44.317  17.606  14.405
16170W        W75431  27.604   8.700  11.580
16171W        W75432  15.251  12.336  14.803
16172W        W75433  34.876  29.529  12.871
16173W        W75434  35.555  21.720  11.882
16174W        W75435  23.679   5.733  14.988
16175W        W75436  39.026  29.971  10.898
16176W        W75437  15.117  28.448   5.272
16177W        W75438  34.936  18.615  10.604
16178W        W75439  36.478   4.313  14.763
16179W        W75440  31.974   1.741  12.484
16180W        W75441   2.302  27.152  13.486
16181W        W75442  22.548  33.617  13.832
16182W        W75443  42.933  14.152  14.357
16183W        W75444  15.172  17.293   1.713
16184W        W75445  42.410  27.118   4.801
16185W        W75446  12.736  39.519  13.806
16186W        W75447   5.236  30.447   1.821
16187W        W75448   2.302  16.192   2.212
16188W        W75449  43.831  22.711   1.301
16189W        W75450   9.322  17.747  13.935
16190W        W75451  25.099  28.166   2.312
16191W        W75452  42.974  24.120  13.806
16192W        W75453   5.751  26.084  14.891
16193W        W75454  25.563  39.988   0.385
16194W        W75455  25.690  32.417  13.815
16195W        W75456  12.274  40.321  10.448
16196W        W75457  19.702  32.469   0.750
16197W        W75458  30.602  39.946   3.685
16198W        W75459  35.579  12.215   2.357
16199W        W75460  34.880   0.379   0.327
16200W        W75461   1.737   1.421  10.434
16201W        W75462   8.404  43.854   2.880
16202W        W75463  24.503  20.642  14.354
16203W        W75464  10.337  23.230   2.842
16204W        W75465  39.388   1.792  14.847
16205W        W75466  38.940   8.354   0.925
16206W        W75467  30.645   7.172  12.465
16207W        W75468  14.098   2.936  10.567
16208W        W75469  39.554  14.308   0.936
16209W        W75470  33.041  19.552   2.331
16210W        W75471  18.576  42.885   1.867
16211W        W75472   7.195   5.381  10.556
16212W        W75473   0.794  38.935  11.084
16213W        W75474   9.880  42.880   0.349
16214W        W75475  19.145  35.566   4.725
16215W        W75476  19.745   8.160   2.231
16216W        W75477  16.247  27.636  12.521
16217W        W75478  27.980   2.937   0.892
16218W        W75479  33.894  31.443  13.956
16219W        W75480  15.196  15.146  12.492
16220W        W75481  11.842  13.702  12.019
16221W        W75482  25.193  24.171   4.293
16222W        W75483  42.970  13.202  11.571
16223W        W75484  19.653  20.150  12.352
16224W        W75485   6.747  43.887  10.932
16225W        W75486  25.081   6.677   1.744
16226W        W75487  44.300  27.118  13.004
16227W        W75488  22.058  24.707   0.367
16228W        W75489   8.295   3.346   2.851
16229W        W75490  24.575  43.842   3.239
16230W        W75491  44.415  22.665   2.334
16231W        W75492   3.261   5.374  12.928
16232W        W75493  36.003   3.925  11.485
16233W        W75494   8.236   7.819   5.142
16234W        W75495  17.217  32.913   3.713
16235W        W75496  12.291  22.099   2.729
16236W        W75497   3.274  22.195   1.433
16237W        W75498  33.104  10.838  12.082
16238W        W75499  24.184  37.436   3.207
16239W        W75500  18.617   9.862  11.382
16240W        W75501  36.892  36.867  11.437
16241W        W75502  34.565   4.284  13.353
16242W        W75503   6.771  10.859  12.418
16243W        W75504  23.064  42.986  13.885
16244W        W75505  22.538  30.591   3.267
16245W        W75506  14.125   4.832   0.859
16246W        W75507  16.579  34.507  12.858
16247W        W75508  40.825  12.814   0.930
16248W        W75509   3.828   2.267   3.810
16249W        W75510  26.594  36.967  12.001
16250W        W75511  29.555  29.467   1.275
16251W        W75512  28.542  16.793  10.564
16252W        W75513   0.290  31.613   0.341
16253W        W75514   1.813   5.366   1.363
16254W        W75515  21.092  14.116  10.437
16255W        W75516  29.520   7.345   0.806
16256W        W75517   4.769  12.361   4.706
16257W        W75518  16.711  12.174   2.856
16258W        W75519  10.232  10.285   1.216
16259W        W75520  17.672  33.980  10.968
16260W        W75521  22.015  42.995  10.966
16261W        W75522  23.600  19.664  13.540
16262W        W75523  27.999  11.809   4.158
16263W        W75524  39.918  10.270   1.814
16264W        W75525  17.280  13.177  12.376
16265W        W75526  24.704  23.115  13.384
16266W        W75527  23.148  17.282  12.479
16267W        W75528  30.147  20.642   0.300
16268W        W75529  42.958  29.426   0.367
16269W        W75530  21.069  17.212  12.395
16270W        W75531  17.608  26.694   3.251
16271W        W75532  41.499  38.355   1.935
16272W        W75533  41.466  40.406  12.893
16273W        W75534  22.609  28.947  10.095
16274W        W75535  34.426   7.341  10.540
16275W        W75536  32.495  10.183  11.042
16276W        W75537  14.304  35.928   1.278
16277W        W75538  19.682   2.259   4.690
16278W        W75539  24.503  29.530   0.885
16279W        W75540   1.350   1.900   3.315
16280W        W75541   8.387  25.506  12.076
16281W        W75542   8.177  19.168  12.548
16282W        W75543  18.194  32.940  13.837
16283W        W75544   5.717   2.240  12.578
16284W        W75545  42.337  10.287  13.798
16285W        W75546   4.928   5.223  11.055
16286W        W75547  38.820  42.364  10.631
16287W        W75548  16.790  19.723   5.142
16288W        W75549  18.667  23.603  13.335
16289W        W75550  30.952  27.945   3.741
16290W        W75551  34.989   7.388  13.465
16291W        W75552  20.538  43.445  12.377
16292W        W75553  24.978   7.341   1.872
16293W        W75554  26.654  31.505   1.212
16294W        W75555  12.209  12.662   1.223
16295W        W75556  28.137  16.125  13.349
16296W        W75557  26.634  12.244   3.194
16297W        W75558  33.588  19.614  12.396
16298W        W75559  42.898  36.900  10.939
16299W        W75560  28.066  32.123   3.783
16300W        W75561  29.615   9.315  13.391
16301W        W75562   5.272  17.755  14.793
16302W        W75563  19.081  26.499  14.494
16303W        W75564  36.987  11.705   5.111
16304W        W75565  39.871  11.811  13.357
16305W        W75566   4.713  42.842   0.273
16306W        W75567   5.257  15.327   1.931
16307W        W75568  31.564  39.998   0.916
16308W        W75569  26.092   8.697  14.414
16309W        W75570  39.428  35.594   1.242
16310W        W75571  17.782   0.461  14.506
16311W        W75572  11.220  14.102  11.051
16312W        W75573  32.415  25.698   3.159
16313W        W75574  26.080  17.709  14.825
16314W        W75575  35.460  15.673   1.260
16315W        W75576  13.712  41.348  12.051
16316W        W75577   6.792  33.507   0.922
16317W        W75578  19.162   0.837  14.341
16318W        W75579   5.901  16.670   4.633
16319W        W75580  40.392  12.640  14.972
16320W        W75581   7.386   6.699  10.138
16321W        W75582  11.232  10.298  11.898
16322W        W75583  23.193  17.671  12.529
16323W        W75584   2.284  41.437   3.267
16324W        W75585  33.509  18.167  11.609
16325W        W75586  30.574  44.449  13.895
16326W        W75587  37.558  21.737   2.351
16327W        W75588  40.424   1.815   2.327
16328W        W75589  24.224  20.129   1.913
16329W        W75590  12.321  37.853  10.554
16330W        W75591  26.505  35.928   2.701
16331W        W75592  29.963   2.879  14.826
16332W        W75593  27.094  26.206   1.781
16333W        W75594  29.995  42.911   2.865
16334W        W75595   4.328   8.249  12.527
16335W        W75596  37.493  18.120  12.409
16336W        W75597  11.639  40.010   0.305
16337W        W75598  21.033  42.008  13.468
16338W        W75599  16.612  33.068  14.832
16339W        W75600  36.917  11.193   3.237
16340W        W75601  35.369  23.028  11.924
16341W        W75602   6.786   2.756   5.281
16342W        W75603  31.533  22.208   4.832
16343W        W75604  10.836  24.122  11.975
16344W        W75605  20.682  12.322   3.763
16345W        W75606  31.989  28.590   0.906
16346W        W75607  14.260   1.286  13.905
16347W        W75608   1.393  15.682   4.711
16348W        W75609   5.913  11.624   3.345
16349W        W75610  30.920  25.690   2.197
16350W        W75611  19.609  21.071  12.043
16351W        W75612  39.053   8.401  10.907
16352W        W75613  32.469  18.159   4.645
16353W        W75614   9.231  37.381   9.984
16354W        W75615  13.619  29.595   1.864
16355W        W75616   1.271  21.237  12.553
16356W        W75617   9.235   9.387  12.899
16357W        W75618  28.662  14.108   2.192
16358W        W75619  25.107  20.553   1.927
16359W        W75620  39.368  21.690  11.859
16360W        W75621  41.349  36.561   2.182
16361W        W75622  13.717  21.659   1.310
16362W        W75623  30.433  38.385   0.768
16363W        W75624  40.958  44.834  11.931
16364W        W75625  18.753  22.037  11.479
16365W        W75626  36.095   1.808  14.311
16366W        W75627  29.077  33.072   4.147
16367W        W75628  41.931  23.995   0.741
16368W        W75629  24.109  39.524  11.054
16369W        W75630  19.202  40.395  13.520
16370W        W75631  21.532   1.742  13.794
16371W        W75632  19.283   6.913  10.606
16372W        W75633  24.147   2.235   4.298
16373W        W75634   0.298  27.191   4.328
16374W        W75635   6.191  35.020  11.054
16375W        W75636   8.363  10.177   3.682
16376W        W75637   9.221   3.380   2.819
16377W        W75638  19.557  35.081  13.917
16378W        W75639   5.355  29.974   3.845
16379W        W75640  34.390  38.832   1.257
16380W        W75641  14.269  26.001   1.300
16381W        W75642   0.815  21.050   2.757
16382W        W75643  22.611   4.698   0.310
16383W        W75644  13.257   1.795  14.992
16384W        W75645  16.799   3.808   4.605
16385W        W75646  42.440   3.859  13.502
16386W        W75647  41.940  35.033   2.722
16387W        W75648  10.725  11.319  12.476
16388W        W75649  31.421  16.251  13.889
16389W        W75650  17.092  17.143  10.595
16390W        W75651  16.134  13.146  14.917
16391W        W75652  40.324   2.857   1.445
16392W        W75653  21.081   6.417  11.090
16393W        W75654   4.372  10.303  14.394
16394W        W75655   7.733  33.877  11.977
16395W        W75656  18.088   5.294   3.270
16396W        W75657  19.637  32.591  11.875
16397W        W75658  11.198  20.750   1.704
16398W        W75659   8.183   3.835  14.791
16399W        W75660  19.579  33.097  10.453
16400W        W75661   5.841   4.700   1.420
16401W        W75662   9.775  30.066  14.380
16402W        W75663  17.670   7.743  11.935
16403W        W75664  11.721  33.508  13.461
16404W        W75665  37.925  43.820   4.119
16405W        W75666  20.582   2.818   1.873
16406W        W75667   0.455   8.787   2.825
16407W        W75668  38.365  33.578   4.213
16408W        W75669  40.930   9.196   0.256
16409W        W75670  15.110   8.885   1.796
16410W        W75671  36.041  15.761   3.695
16411W        W75672   0.965  16.246   4.603
16412W        W75673   5.207  36.053   1.870
16413W        W75674  25.645   9.763   1.795
16414W        W75675  43.012   5.885   2.206
16415W        W75676  15.584  30.117  11.383
16416W        W75677  35.369  33.416   0.853
16417W        W75678  37.897  28.651  11.996
16418W        W75679  32.470  35.581   1.424
16419W        W75680  39.320  32.042   4.750
16420W        W75681  24.713  36.844   2.766
16421W        W75682  25.044  10.686  13.805
16422W        W75683  11.814  10.240   2.180
16423W        W75684  40.337  13.141   1.230
16424W        W75685   2.435  26.027   0.369
16425W        W75686   8.218   8.352  10.569
16426W        W75687  31.646  13.722  12.467
16427W        W75688   1.946   9.233  14.810
16428W        W75689  39.491  30.070   0.943
16429W        W75690  37.913  19.074  12.349
16430W        W75691   8.752  33.600  12.863
16431W        W75692  25.177  21.150   3.259
16432W        W75693  32.085  33.056  10.641
16433W        W75694  37.499  18.767  11.542
16434W        W75695  43.511   7.341  13.453
16435W        W75696   1.272  16.598   3.677
16436W        W75697  21.208  11.143  13.364
16437W        W75698  17.075   1.334   0.315
16438W        W75699  40.026  40.827  14.912
16439W        W75700  33.466  42.329  12.499
16440W        W75701  27.011   4.385  12.411
16441W        W75702  15.179   2.298   0.304
16442W        W75703   2.397   4.861   1.862
16443W        W75704  42.022   2.386   0.836
16444W        W75705   5.331  22.034   3.162
16445W        W75706  20.691  41.500   1.221
16446W        W75707  44.490   1.795   0.477
16447W        W75708  10.860  31.596   4.119
16448W        W75709  37.343  37.547   2.805
16449W        W75710   9.655  25.197  13.852
16450W        W75711  42.799  13.688   4.203
16451W        W75712  18.190  17.179  13.048
16452W        W75713   3.308  23.100  14.387
16453W        W75714  37.430  31.582   2.289
16454W        W75715  35.971  24.514  11.942
16455W        W75716   4.772  44.464  10.032
16456W        W75717  12.642  21.096   2.814
16457W        W75718  21.649  21.541  13.805
16458W        W75719   3.715  22.522  13.392
16459W        W75720   0.977  23.053   2.733
16460W        W75721  33.439  21.729   0.777
16461W        W75722  35.871   5.439   3.630
16462W        W75723  10.739  26.986   3.158
16463W        W75724  37.045   6.909  12.096
16464W        W75725  28.607  15.663  10.490
16465W        W75726  43.020  20.581   0.907
16466W        W75727   3.772  18.776   4.205
16467W        W75728  43.398  30.608  11.560
16468W        W75729  33.497  24.051   5.171
16469W        W75730   5.414   9.820   2.398
16470W        W75731   2.955  17.065   1.755
16471W        W75732   4.289  32.966   0.278
16472W        W75733  30.628  42.384   2.846
16473W        W75734  29.997  11.132  14.889
16474W        W75735  44.806  28.071   1.316
16475W        W75736  24.224  34.884  11.873
16476W        W75737  41.521  12.132   4.205
16477W        W75738  30.064   8.328  11.028
16478W        W75739  41.998   0.860   2.704
16479W        W75740  18.294  17.083   2.269
16480W        W75741  16.294  29.426  11.436
16481W        W75742  13.120  35.910  12.830
16482W        W75743  30.076  36.863  12.931
16483W        W75744  19.733   7.321  11.432
16484W        W75745  20.085  33.552   3.828
16485W        W75746  11.179  37.884   2.691
16486W        W75747   3.916   4.440   0.415
16487W        W75748   1.356   7.206   1.885
16488W        W75749  32.031  39.064   3.310
16489W        W75750  15.198  42.806  10.998
16490W        W75751  42.499  38.867   2.803
16491W        W75752  27.990   9.848  10.931
16492W        W75753   2.748  22.163  10.477
16493W        W75754  29.037  43.801  13.791
16494W        W75755  35.422  34.095  13.507
16495W        W75756   5.884  14.186   3.155
16496W        W75757  27.950  40.862  13.829
16497W        W75758  23.186  16.272  11.912
16498W        W75759  43.921  31.624  12.834
16499W        W75760  12.214  25.504   2.720
16500W        W75761  22.036  26.044   4.210
16501W        W75762   0.899   9.208   1.425
16502W        W75763  12.138   0.472  13.975
16503W        W75764  33.025   9.375  12.468
16504W        W75765  11.630  41.431  11.012
16505W        W75766  31.979  20.704   1.215
16506W        W75767  27.009  31.642   9.490
16507W        W75768  24.074  44.274   2.319
16508W        W75769  23.515  27.554  13.938
16509W        W75770   4.887  12.343  12.982
16510W        W75771  43.379   3.816  14.276
16511W        W75772  17.574  13.235   3.281
16512W        W75773  12.150  44.894  11.496
16513W        W75774   4.834  16.136   2.229
16514W        W75775   0.415  34.916  13.030
16515W        W75776  13.208   0.363   3.214
16516W        W75777  15.167  15.717  13.895
16517W        W75778  24.208  33.108   4.699
16518W        W75779  16.298  43.782   3.690
16519W        W75780  19.143  13.815  10.903
16520W        W75781  41.907   3.802  11.505
16521W        W75782  27.467  37.846  11.946
16522W        W75783   7.849  24.614   4.222
16523W        W75784  11.773  43.309  11.509
16524W        W75785  23.204  30.990   3.371
16525W        W75786  40.482  11.697  14.011
16526W        W75787  17.292  14.711  12.575
16527W        W75788  33.957  12.149   3.736
16528W        W75789  16.226  44.926   3.859
16529W        W75790  24.197  31.122   0.894
16530W        W75791  12.789  31.449  10.895
16531W        W75792  36.869   3.432  11.548
16532W        W75793  31.066  35.037   0.473
16533W        W75794  21.128  38.884   5.087
16534W        W75795  41.502  14.160   2.691
16535W        W75796  10.260   3.264  10.927
16536W        W75797  10.177   7.693   4.154
16537W        W75798  30.065   2.816   0.477
16538W        W75799  28.480  36.470  14.026
16539W        W75800   3.407   5.204  13.468
16540W        W75801  38.508  32.971  10.986
16541W        W75802  29.142  24.572   1.219
16542W        W75803  35.438  35.404  11.860
16543W        W75804  10.199  25.022  10.973
16544W        W75805   7.905   2.471  12.050
16545W        W75806  29.029   7.206   2.255
16546W        W75807  18.128  40.435  11.897
16547W        W75808  22.518  31.003   1.698
16548W        W75809   4.236  18.556   4.716
16549W        W75810   4.795  13.260  10.463
16550W        W75811  43.965   5.321   4.263
16551W        W75812  28.145  28.059  10.605
16552W        W75813  28.933  42.502  13.393
16553W        W75814  14.275  29.071  12.361
16554W        W75815  12.741   4.343  10.554
16555W        W75816  14.616  12.750   3.155
16556W        W75817  32.064  21.746   1.905
16557W        W75818  25.585  19.226   4.616
16558W        W75819  10.157  30.484   3.788
16559W        W75820  30.481  31.043   3.294
16560W        W75821   2.338   0.310  10.987
16561W        W75822  21.678   6.254   3.666
16562W        W75823  41.843  23.190   5.309
16563W        W75824  44.370  37.937   0.743
16564W        W75825  36.376  15.729   3.817
16565W        W75826  23.490   0.402   4.339
16566W        W75827  34.967  18.161  14.511
16567W        W75828  30.563  36.928   3.368
16568W        W75829  10.356  27.571  12.407
16569W        W75830   7.334  17.242   0.934
16570W        W75831  44.456  13.299  14.469
16571W        W75832  29.464  21.716  12.519
16572W        W75833  10.879  15.209  14.794
16573W        W75834  35.519  26.659   4.735
16574W        W75835  21.750   3.266   3.842
16575W        W75836  32.964  16.186  12.914
16576W        W75837  25.712   8.770   1.257
16577W        W75838  31.542   4.901   1.450
16578W        W75839  19.609  10.199  12.856
16579W        W75840  38.019   8.238  11.491
16580W        W75841  21.532   5.750   0.267
16581W        W75842  28.436  24.613   3.694
16582W        W75843   7.360  27.041  13.975
16583W        W75844  11.132   4.389  14.300
16584W        W75845  25.616   2.737  13.533
16585W        W75846  32.600   7.712   9.560
16586W        W75847   1.242  22.006  12.558
16587W        W75848  31.567  41.806  11.491
16588W        W75849  15.269  20.729   2.289
16589W        W75850  36.405  35.393   1.822
16590W        W75851  17.140  33.043   1.379
16591W        W75852  28.476  30.950   2.386
16592W        W75853   8.749   9.291  11.476
16593W        W75854  20.656  25.683   2.666
16594W        W75855  27.450  11.756   2.903
16595W        W75856   6.282  10.237   1.890
16596W        W75857   0.377   2.757   3.631
16597W        W75858   1.741  33.091  14.780
16598W        W75859  17.076  19.677   4.835
16599W        W75860  43.325  22.714  12.357
16600W        W75861  23.224   3.345   9.943
16601W        W75862  20.030  12.128   4.787
16602W        W75863  30.999   9.305  12.906
16603W        W75864   0.346  11.805  10.543
16604W        W75865   7.899  32.423   0.370
16605W        W75866  39.333  30.031  10.410
16606W        W75867  14.810  16.720   0.344
16607W        W75868  40.335  22.022  12.029
16608W        W75869  15.773  44.282   0.378
16609W        W75870   5.906  29.645  12.451
16610W        W75871  28.050  23.172   2.310
16611W        W75872  34.414  27.031  14.023
16612W        W75873  25.127  38.061   1.408
16613W        W75874  28.967   2.447   5.093
16614W        W75875   7.870  27.571  11.107
16615W        W75876  27.043  20.158   2.782
16616W        W75877  27.138   2.864   0.315
16617W        W75878   2.437  16.769   3.157
16618W        W75879  22.507  22.560   4.616
16619W        W75880  25.480   3.771   0.835
16620W        W75881  13.623   6.776  12.063
16621W        W75882  36.930  37.573   4.304
16622W        W75883  41.445   9.853  12.543
16623W        W75884  32.108  12.852   1.776
16624W        W75885  44.837  25.215  12.002
16625W        W75886   4.435  16.315   2.237
16626W        W75887  14.768  38.069   2.366
16627W        W75888  26.604  36.887  14.465
16628W        W75889  18.221  36.052  11.022
16629W        W75890  24.085   6.397  10.000
16630W        W75891  13.250  24.040  10.933
16631W        W75892  11.200  18.666   4.312
16632W        W75893  37.085  42.518  14.297
16633W        W75894  11.372  26.028   0.804
16634W        W75895  44.981   9.272   2.668
16635W        W75896  44.298   9.355  12.531
16636W        W75897  16.317   0.824  11.863
16637W        W75898   1.917  13.274  14.958
16638W        W75899   2.442  39.454  14.314
16639W        W75900  32.496  24.041   1.762
16640W        W75901  27.571  44.782  11.530
16641W        W75902  23.494  44.979   1.764
16642W        W75903  32.483  23.589   3.336
16643W        W75904  32.899  42.790  12.020
16644W        W75905   5.833   4.423   2.254
16645W        W75906  38.039  44.359   3.838
16646W        W75907  10.785  13.648   2.220
16647W        W75908  15.792   7.718  11.982
16648W        W75909  31.048  27.607  14.305
16649W        W75910  32.609  17.758   1.854
16650W        W75911  23.216  17.125   1.743
16651W        W75912  22.211  11.278   3.200
16652W        W75913   5.732  17.686  11.417
16653W        W75914  33.893  14.233  14.926
16654W        W75915  15.637  19.703  10.539
16655W        W75916  44.894  11.790  11.444
16656W        W75917  18.772  14.241   4.338
16657W        W75918  33.536   3.410  12.895
16658W        W75919  39.880  28.645  10.988
16659W        W75920  35.084  11.136   0.377
16660W        W75921  40.442  17.744   2.307
16661W        W75922  33.931  41.836   0.352
16662W        W75923   4.289   9.883   2.750
16663W        W75924  27.636  30.629   2.216
16664W        W75925  41.799  35.557   0.736
16665W        W75926  16.110  20.236  14.021
16666W        W75927  40.853  38.870  11.866
16667W        W75928  11.842   2.751   3.285
16668W        W75929  16.677   1.763  11.935
16669W        W75930  13.731  27.457   5.725
16670W        W75931  14.811  13.697   0.932
16671W        W75932   6.330  39.393  14.437
16672W        W75933  28.967   0.777  10.560
16673W        W75934  28.669  34.600  10.441
16674W        W75935  44.305  16.645  12.838
16675W        W75936  35.957   4.253  14.887
16676W        W75937  33.101  37.552  12.492
16677W        W75938  35.876  14.709   1.705
16678W        W75939  29.996  37.881   3.245
16679W        W75940  28.586  22.132  13.965
16680W        W75941  13.185  24.634   2.293
16681W        W75942   3.456  14.243  14.497
16682W        W75943   0.303  34.910   2.182
16683W        W75944  25.660  39.843  13.933
16684W        W75945  11.700  44.369   4.195
16685W        W75946   3.268  30.574   1.910
16686W        W75947   8.262  20.129   3.370
16687W        W75948  12.300  40.817  11.467
16688W        W75949  10.163   8.782  10.906
16689W        W75950  35.950  30.440  14.970
16690W        W75951  44.424  34.509  14.841
16691W        W75952  18.050   2.330  13.402
16692W        W75953  30.964  42.517  13.970
16693W        W75954   5.775  25.517  12.923
16694W        W75955  35.411  26.071   0.967
16695W        W75956  16.146   2.288   4.141
16696W        W75957   1.929  15.637  11.516
16697W        W75958  39.504  29.103   3.634
16698W        W75959  22.690  29.941  11.436
16699W        W75960   8.321  35.589  10.911
16700W        W75961  22.244  25.649   0.877
16701W        W75962  33.551  40.502  11.544
16702W        W75963  40.499   9.828  10.545
16703W        W75964  16.129  14.167   0.451
16704W        W75965  18.666   5.888   2.220
16705W        W75966   3.425  10.810   2.373
16706W        W75967   7.765  33.567  11.560
16707W        W75968  29.936  12.145  14.799
16708W        W75969  36.366   3.218  12.507
16709W        W75970  40.809  24.670   2.848
16710W        W75971   1.326  32.133  13.890
16711W        W75972  40.049  11.212   3.865
16712W        W75973  33.444  14.685  12.018
16713W        W75974  20.254   1.875   1.218
16714W        W75975   0.877  44.431   4.160
16715W        W75976  19.732  30.570   2.841
16716W        W75977   8.358  40.798   3.831
16717W        W75978  30.481  43.329   1.361
16718W        W75979   7.240  27.568   2.322
16719W        W75980  19.660   6.249   1.449
16720W        W75981  41.456  36.888  11.608
16721W        W75982  29.128  26.975   2.869
16722W        W75983  17.178   0.874   0.825
16723W        W75984  19.102  22.611  14.318
16724W        W75985  21.751  18.702   5.202
16725W        W75986  19.752  18.583  14.898
16726W        W75987  26.134   5.272   2.232
16727W        W75988   7.212  10.829  14.942
16728W        W75989   2.275  44.813  13.545
16729W        W75990  20.072  38.022   0.350
16730W        W75991  43.992   3.453  13.918
16731W        W75992   3.923  43.817   1.791
16732W        W75993  11.740  33.485  12.981
16733W        W75994   8.808  16.628   4.750
16734W        W75995  44.912  28.503  13.530
16735W        W75996  43.319  33.950  14.970
16736W        W75997   4.863  39.528   1.851
16737W        W75998  31.599   7.844   1.211
16738W        W75999  37.065  37.375  14.878
16739W        W76000  10.789  17.596  13.967
16740W        W76001  30.111   2.822  10.419
16741W        W76002   3.236  33.553   3.340
16742W        W76003  27.062  41.320  13.913
16743W        W76004  39.006  27.549  14.821
16744W        W76005  23.583  39.398   0.426
16745W        W76006  26.599  44.395   0.879
16746W        W76007  28.493   3.922  14.331
16747W        W76008  11.162  30.011   0.359
16748W        W76009  29.543  36.550  14.382
16749W        W76010  31.437  44.836   1.781
16750W        W76011  29.475  31.459  11.975
16751W        W76012  44.935  14.781  12.863
16752W        W76013   9.651  19.169  10.607
16753W        W76014  14.209   8.821   2.178
16754W        W76015  28.145   1.752   3.219
16755W        W76016  20.693   1.353   4.193
16756W        W76017   1.773  11.835  14.449
16757W        W76018  15.304  40.807  13.338
16758W        W76019  43.467   7.832  12.096
16759W        W76020   5.387   5.337   9.545
16760W        W76021  30.453  39.553   1.348
16761W        W76022   1.465  15.316   3.685
16762W        W76023  39.523  23.686  11.866
16763W        W76024  19.057  17.597   3.767
16764W        W76025  38.958  23.165   1.239
16765W        W76026  33.085  10.165  11.059
16766W        W76027  40.944  21.661  11.488
16767W        W76028   6.776  40.836  13.536
16768W        W76029  23.595  36.440  10.542
16769W        W76030  36.366  41.513  12.468
16770W        W76031  29.456  36.912  10.495
16771W        W76032  23.996  27.613   3.208
16772W        W76033  26.457  19.542   5.258
16773W        W76034  10.203   5.818   1.268
16774W        W76035  10.330  25.997   0.848
16775W        W76036   4.286  15.626   4.189
16776W        W76037   3.915  22.193  12.506
16777W        W76038  30.078  23.727  12.081
16778W        W76039   4.834  33.455  12.427
16779W        W76040  40.380  22.077  10.898
16780W        W76041  11.753  44.326   5.159
16781W        W76042  32.057  29.544  11.857
16782W        W76043  40.887  35.376  14.906
16783W        W76044  38.968  23.492  12.545
16784W        W76045   4.305  17.306  13.888
16785W        W76046  37.926  24.043   1.859
16786W        W76047  34.025  16.642   4.335
16787W        W76048  27.181  34.527  14.297
16788W        W76049   0.455   2.329   3.182
16789W        W76050  10.820  22.015  14.998
16790W        W76051  17.182  39.877   4.602
16791W        W76052  21.099  38.841  14.388
16792W        W76053  37.020   5.204   2.324
16793W        W76054  31.116  32.126   4.239
16794W        W76055  34.008  15.130  13.032
16795W        W76056  31.018   7.271  14.840
16796W        W76057   3.738  41.338  11.579
16797W        W76058  38.904  16.277   3.852
16798W        W76059  18.604   5.806   1.265
16799W        W76060  14.764  34.099   1.382
16800W        W76061  22.071  35.525   1.287
16801W        W76062   7.241  38.831  11.386
16802W        W76063  38.893  39.403   1.210
16803W        W76064  36.453  13.644  12.030
16804W        W76065  17.171  30.587   4.225
16805W        W76066  13.673  30.032   0.455
16806W        W76067   1.355   3.765   1.366
16807W        W76068  31.499  28.113  10.904
16808W        W76069  32.947  32.978  10.488
16809W        W76070  26.611  17.587   2.332
16810W        W76071  41.977  31.139  12.016
16811W        W76072  36.926  35.090  12.910
16812W        W76073  17.660   5.891   0.423
16813W        W76074   6.296  22.130  12.027
16814W        W76075  11.721  43.280  13.854
16815W        W76076  29.997   1.859   0.791
16816W        W76077  22.237  22.714   2.340
16817W        W76078  14.297   3.326   3.238
16818W        W76079   8.388  15.251   0.929
16819W        W76080  44.408  32.584  11.569
16820W        W76081  31.065  13.133   3.722
16821W        W76082  15.294  20.109   1.840
16822W        W76083  23.167  19.738  14.281
16823W        W76084  38.071   1.741  13.863
16824W        W76085  21.192  25.551   3.312
16825W        W76086  33.972   7.218  11.985
16826W        W76087  37.980  14.789   1.361
16827W        W76088   9.749  37.502   0.838
16828W        W76089  26.040  31.410   0.811
16829W        W76090  33.103  15.807   3.238
16830W        W76091  15.308  19.258  14.857
16831W        W76092  12.273  38.450  11.069
16832W        W76093  44.447  41.311  13.001
16833W        W76094  35.582   0.317   0.435
16834W        W76095  35.010  30.509   3.236
16835W        W76096   8.668  16.604   1.229
16836W        W76097   1.332  40.926  11.533
16837W        W76098  26.581  15.601   0.824
16838W        W76099  15.608   1.475   4.230
16839W        W76100   3.948  25.209  11.527
16840W        W76101  36.487  14.315   1.276
16841W        W76102  34.947  32.504   4.144
16842W        W76103  28.557  17.688   4.333
16843W        W76104  25.981  21.674  13.860
16844W        W76105  13.196  30.423  13.523
16845W        W76106  13.188  29.019  11.388
16846W        W76107  27.052  17.567  10.640
16847W        W76108   2.303   2.405  13.828
16848W        W76109  14.101  19.619   1.283
16849W        W76110   0.815  30.973  14.328
16850W        W76111  19.046  30.549   0.461
16851W        W76112   7.180  30.974  13.979
16852W        W76113   5.262  10.288  10.051
16853W        W76114   1.458   8.404   0.806
16854W        W76115  22.612  40.408  12.065
16855W        W76116  41.533   2.880   4.282
16856W        W76117  25.039  35.906  11.032
16857W        W76118  13.654   6.842  13.445
16858W        W76119  32.083  28.530  13.500
16859W        W76120  18.651  36.094   1.230
16860W        W76121   8.374  39.558   2.360
16861W        W76122  10.853   4.440  10.106
16862W        W76123  43.342  28.174   2.315
16863W        W76124   6.712  40.525  10.546
16864W        W76125  18.561   1.754  13.462
16865W        W76126   7.216  29.980   3.649
16866W        W76127  12.805  24.689  14.839
16867W        W76128  34.419  11.367  12.422
16868W        W76129  25.170  17.145   3.288
16869W        W76130   5.856  22.997  13.425
16870W        W76131  17.084  31.969  10.558
16871W        W76132  35.523  18.254   3.176
16872W        W76133  43.811  11.721  13.882
16873W        W76134  19.573  31.942  13.992
16874W        W76135  19.132   4.706   3.264
16875W        W76136  10.212  37.904  12.424
16876W        W76137  16.801  33.957   0.390
16877W        W76138  40.315  38.518  13.940
16878W        W76139  29.485  18.638  11.876
16879W        W76140  20.683  44.308   3.205
16880W        W76141  15.707  32.627  11.028
16881W        W76142  10.384  43.480   0.840
16882W        W76143  35.030   6.262   2.880
16883W        W76144  44.489  34.906  14.909
16884W        W76145  29.484  43.991   4.603
16885W        W76146  32.057   3.286  11.976
16886W        W76147  12.308  19.625   2.688
16887W        W76148  16.293  24.567   3.683
16888W        W76149  38.055  24.054  14.023
16889W        W76150  43.472  14.688   2.666
16890W        W76151  44.841  23.062  13.413
16891W        W76152  39.418  29.952  13.329
16892W        W76153   2.310  23.153   3.312
16893W        W76154  23.100  32.563  14.416
16894W        W76155  30.935  16.274  10.627
16895W        W76156  18.278  39.559  13.446
16896W        W76157   5.225  36.959   4.260
16897W        W76158  44.857  14.719  10.437
16898W        W76159  24.533  15.196   1.344
16899W        W76160  19.580   5.881   0.286
16900W        W76161  22.641  37.465   1.728
16901W        W76162  40.324  29.593  10.509
16902W        W76163  28.675   2.805  10.600
16903W        W76164   9.798  31.491   4.828
16904W        W76165  26.208  43.778   1.368
16905W        W76166  26.990  18.198  14.814
16906W        W76167  35.389  32.601   3.702
16907W        W76168  17.678  10.641   2.335
16908W        W76169  35.499  10.802  13.983
16909W        W76170  24.029  14.721  10.639
16910W        W76171  22.555   0.395  14.357
16911W        W76172  42.440   6.220  14.366
16912W        W76173  13.718  35.031  14.929
16913W        W76174  26.543  35.389   0.757
16914W        W76175   7.701  25.095   2.824
16915W        W76176   2.803   0.411  12.574
16916W        W76177  30.105  44.431  12.485
16917W        W76178  23.684  23.620  10.578
16918W        W76179  29.974  37.425   3.639
16919W        W76180  19.613  35.411  11.012
16920W        W76181  21.718  14.603   0.335
16921W        W76182  28.094  11.358  13.342
16922W        W76183  40.470   6.800  10.946
16923W        W76184   4.438   3.784  13.905
16924W        W76185   8.383  17.246  11.923
16925W        W76186  34.540  19.281   1.317
16926W        W76187   0.377   1.846   2.725
16927W        W76188  20.229  18.089  13.063
16928W        W76189  29.050  28.583   3.642
16929W        W76190   6.705  17.263   0.776
16930W        W76191  10.216  21.036   2.859
16931W        W76192   0.447  14.179  12.473
16932W        W76193   1.248  39.329  12.539
16933W        W76194  43.307  26.628  14.459
16934W        W76195  30.456  34.949   5.317
16935W        W76196  23.638  11.701   4.662
16936W        W76197  21.095  10.678   0.411
16937W        W76198  10.141  39.437  10.643
16938W        W76199  37.477  15.186  11.564
16939W        W76200   7.781  16.098  14.844
16940W        W76201   5.814  39.323  11.861
16941W        W76202  41.407   8.887  14.027
16942W        W76203  37.030  12.662  11.475
16943W        W76204   3.277  37.907   3.281
16944W        W76205  13.283   4.303   3.153
16945W        W76206  22.103  18.752  13.429
16946W        W76207   3.220  30.414   4.628
16947W        W76208  37.479   3.356   2.279
16948W        W76209   1.462  30.428   3.799
16949W        W76210   2.922  38.413   4.333
16950W        W76211  23.528  10.875  10.895
16951W        W76212  12.817  23.002  10.436
16952W        W76213  17.088  30.071   1.375
16953W        W76214  33.596  19.179   0.455
16954W        W76215  44.754   0.969   4.746
16955W        W76216  39.876  24.484  14.860
16956W        W76217   5.223  31.401   3.151
16957W        W76218   7.216  19.668  11.499
16958W        W76219  32.985  35.428   4.607
16959W        W76220  24.716  37.489   1.787
16960W        W76221  17.639   5.856  12.448
16961W        W76222  38.920  19.240   1.305
16962W        W76223   0.270  11.778  12.858
16963W        W76224  33.897  26.134  12.346
16964W        W76225  44.913  43.500  11.509
16965W        W76226  37.858   1.839   1.770
16966W        W76227  18.667  41.021   1.438
16967W        W76228   5.927  22.211  12.455
16968W        W76229  26.123  40.904   2.395
16969W        W76230  20.247  17.632   9.527
16970W        W76231  32.906  25.633  14.308
16971W        W76232  36.088  41.979   1.371
16972W        W76233  26.469   3.352  10.151
16973W        W76234  22.679  19.552   1.795
16974W        W76235  23.175   7.260   2.841
16975W        W76236  31.130   0.358  12.481
16976W        W76237  35.528  38.904   4.312
16977W        W76238  24.572   4.788  13.513
16978W        W76239  43.874  22.136   3.723
16979W        W76240  13.709  18.596  14.904
16980W        W76241  34.949  17.648  12.496
16981W        W76242   6.270  10.152  12.382
16982W        W76243   4.369  10.782  13.450
16983W        W76244  43.926  12.347   1.890
16984W        W76245  43.982   5.330   4.649
16985W        W76246  14.105  22.672  11.608
16986W        W76247  44.758  12.157   0.952
16987W        W76248  33.050  35.871  12.375
16988W        W76249  20.254   9.828  11.548
16989W        W76250  32.598   4.364  12.951
16990W        W76251  28.151   8.246   3.157
16991W        W76252  36.490  13.126   3.386
16992W        W76253  43.865   8.396   1.367
16993W        W76254  31.607  13.636   3.671
16994W        W76255  41.959  44.384   4.660
16995W        W76256  16.115   0.371  13.337
16996W        W76257  43.991  31.144   4.656
16997W        W76258  26.134  11.306  10.427
16998W        W76259  21.614  31.057  11.931
16999W        W76260  21.231  37.924  12.006
17000W        W76261   4.325   1.754  14.487
17001W        W76262  15.242  29.620  11.981
17002W        W76263  10.649  12.160  11.547
17003W        W76264  44.984  32.597   1.808
17004W        W76265  11.161  11.763   3.840
17005W        W76266  38.969  24.147  11.074
17006W        W76267  14.151  14.134   3.845
17007W        W76268  36.900  35.969   2.836
17008W        W76269  38.468  43.425  10.933
17009W        W76270   4.825  13.677   3.283
17010W        W76271  21.096  43.511   0.398
17011W        W76272   0.295   4.858   1.833
17012W        W76273  44.967  43.309  14.808
17013W        W76274  13.202  39.929   4.730
17014W        W76275  27.155   7.301   0.787
17015W        W76276  40.845   3.222   4.779
17016W        W76277  22.182   1.270  14.996
17017W        W76278  35.098  38.995   1.840
17018W        W76279   0.979  11.740  14.759
17019W        W76280  32.594   6.219   1.322
17020W        W76281  21.669  32.950  13.424
17021W        W76282  21.513  37.466   4.317
17022W        W76283  38.956   9.884  11.937
17023W        W76284  41.417  43.336  10.577
17024W        W76285  33.973   2.765  12.469
17025W        W76286  19.568   8.378  12.386
17026W        W76287  26.566   1.371  12.892
17027W        W76288  38.385  14.120   3.216
17028W        W76289  32.581  37.030   1.847
17029W        W76290  37.467  44.335  14.896
17030W        W76291   0.885  38.929  13.980
17031W        W76292  27.625  26.546  14.886
17032W        W76293  39.482   7.256  10.950
17033W        W76294  11.224  40.324  13.542
17034W        W76295  43.865  10.198  11.493
17035W        W76296  24.094  25.608  13.535
17036W        W76297  35.368  17.712  14.306
17037W        W76298  17.675   9.725   5.682
17038W        W76299  18.270  28.080  13.903
17039W        W76300  28.937   9.281   4.780
17040W        W76301  18.765  27.160  12.989
17041W        W76302  33.883  23.039  10.513
17042W        W76303  31.451  43.351  14.380
17043W        W76304  26.975  29.493  11.027
17044W        W76305  17.701  27.076  10.555
17045W        W76306  44.329  35.450   2.698
17046W        W76307   9.788  21.539  11.035
17047W        W76308  24.678  39.918  14.940
17048W        W76309  33.909  37.053   2.749
17049W        W76310   6.381   2.336   2.893
17050W        W76311  40.455  19.676  12.554
17051W        W76312  23.714  42.419  11.098
17052W        W76313   5.831  41.302   3.851
17053W        W76314  23.075   6.712   2.751
17054W        W76315  44.961  41.340  12.407
17055W        W76316  28.660  18.120  13.406
17056W        W76317   2.830  15.823  11.555
17057W        W76318  40.440  14.338   5.295
17058W        W76319   8.720  10.214   0.333
17059W        W76320  29.429  28.035   1.374
17060W        W76321  25.160  39.012  12.919
17061W        W76322  24.633   8.398  11.501
17062W        W76323  26.012  25.210   4.818
17063W        W76324   5.778  37.365  10.129
17064W        W76325  28.081   9.310  13.320
17065W        W76326   8.826  30.032  12.929
17066W        W76327  10.823  25.219   3.336
17067W        W76328  34.439  24.691   1.716
17068W        W76329  26.613  19.135  13.952
17069W        W76330  42.308  16.774  11.555
17070W        W76331  34.551   2.896  11.516
17071W        W76332  12.213  19.557   5.109
17072W        W76333  34.407  30.416  12.028
17073W        W76334  22.561  26.958  14.978
17074W        W76335  16.078  43.516  13.537
17075W        W76336  31.021   2.860  14.502
17076W        W76337  38.399  16.708   5.236
17077W        W76338   7.856   8.673   0.925
17078W        W76339   0.311  15.223   0.477
17079W        W76340  21.191  15.213   3.243
17080W        W76341   1.948   8.873   2.327
17081W        W76342  28.464  43.275  12.965
17082W        W76343  17.182  33.877   0.302
17083W        W76344  31.105  39.394  14.507
17084W        W76345   9.759  12.834   0.862
17085W        W76346  35.516   3.442   4.665
17086W        W76347  35.404  40.802  14.381
17087W        W76348   8.718  12.144   0.378
17088W        W76349  13.732   8.307   3.854
17089W        W76350  42.940  14.332   5.181
17090W        W76351  16.575  27.681  14.514
17091W        W76352   7.224   2.343   4.813
17092W        W76353  25.091  10.343   2.783
17093W        W76354  20.724  17.774  11.943
17094W        W76355  41.430  40.549   3.191
17095W        W76356  23.713  44.401   3.658
17096W        W76357  14.716  36.941  14.307
17097W        W76358  41.960  14.711   3.215
17098W        W76359  13.210  14.704  12.537
17099W        W76360  27.052   4.233  10.439
17100W        W76361  43.468  22.064   1.797
17101W        W76362  33.383  35.970  13.987
17102W        W76363   4.320  24.505  11.420
17103W        W76364   0.895  44.796   1.759
17104W        W76365  34.485  24.021   2.330
17105W        W76366  16.285  22.576  14.890
17106W        W76367  20.717   6.392   0.311
17107W        W76368  11.836  44.824   0.366
17108W        W76369  30.466   5.780  10.470
17109W        W76370   2.339   4.861   2.720
17110W        W76371   1.906  15.298  12.968
17111W        W76372  44.801   3.237   2.394
17112W        W76373  41.001  42.298  13.039
17113W        W76374  10.655  35.418  10.925
17114W        W76375  12.236  30.105   4.766
17115W        W76376  29.948  21.096   0.360
17116W        W76377  16.312  19.062  12.508
17117W        W76378   0.418  40.931   1.346
17118W        W76379  26.024  10.370  13.503
17119W        W76380  31.071  31.539  10.888
17120W        W76381  29.140  43.367  13.465
17121W        W76382  26.961  18.683  11.052
17122W        W76383  39.013   5.773  10.102
17123W        W76384  33.427  29.949  12.551
17124W        W76385   0.404   0.774  10.550
17125W        W76386  23.607   0.827  13.931
17126W        W76387  24.684   2.961   5.249
17127W        W76388  20.057  12.275  12.398
17128W        W76389  40.322  29.163   0.828
17129W        W76390  35.365  43.483   2.189
17130W        W76391   1.318  25.513   3.641
17131W        W76392   6.252  40.961   0.789
17132W        W76393   3.760  44.945   1.845
17133W        W76394   2.305  11.335   0.262
17134W        W76395   9.854  11.729  12.837
17135W        W76396  34.544  34.431   2.283
17136W        W76397  37.416   1.257   0.456
17137W        W76398  37.400  29.936  12.020
17138W        W76399  32.552  31.970   3.871
17139W        W76400  29.993  29.454   3.752
17140W        W76401  37.467  14.664   5.216
17141W        W76402  39.470  16.117  13.367
17142W        W76403  38.002  27.131  13.845
17143W        W76404  11.357  36.396   3.382
17144W        W76405   5.282  31.551  11.016
17145W        W76406  14.833   6.698   3.287
17146W        W76407  13.794  44.502   4.827
17147W        W76408   8.794  43.986   1.369
17148W        W76409  27.007   4.733   4.781
17149W        W76410  37.902   2.961   0.310
17150W        W76411  28.545  33.470  12.451
17151W        W76412  34.904  18.109  13.396
17152W        W76413  41.902  36.446  12.885
17153W        W76414   7.293  40.409   2.198
17154W        W76415  27.012  42.392   2.747
17155W        W76416  36.001  12.116  13.045
17156W        W76417  32.615  37.875   3.356
17157W        W76418  17.126  13.304   0.279
17158W        W76419   2.259  25.060  12.526
17159W        W76420  17.205  43.883  14.286
17160W        W76421  28.575  28.467  13.049
17161W        W76422  43.892  44.957   4.284
17162W        W76423   4.436  39.042  11.981
17163W        W76424   8.362  31.503  10.529
17164W        W76425   4.899  38.487   1.762
17165W        W76426  34.061   1.893   0.437
17166W        W76427  43.433   3.220  11.038
17167W        W76428  30.924  32.110  10.459
17168W        W76429  21.091  29.171   3.814
17169W        W76430   5.851   7.309  12.080
17170W        W76431  35.958  42.370  11.559
17171W        W76432  32.613  43.851  13.948
17172W        W76433  14.108   0.424  13.817
17173W        W76434   0.456  30.919   2.327
17174W        W76435  30.531  42.969   0.388
17175W        W76436  10.312  17.142  14.819
17176W        W76437  31.134   7.339   4.800
17177W        W76438  20.755  15.783  13.970
17178W        W76439  41.345  11.244   2.224
17179W        W76440  40.826   7.251   3.768
17180W        W76441  33.456  37.878  13.309
17181W        W76442  30.550  32.474   1.434
17182W        W76443  41.383  24.087   4.601
17183W        W76444  41.476  42.820   3.828
17184W        W76445  34.972  43.347   2.214
17185W        W76446  35.921  44.848  12.851
17186W        W76447  13.290  14.637   0.454
17187W        W76448  34.089  31.016  14.308
17188W        W76449  21.237  11.232  14.303
17189W        W76450   7.822  41.441   1.724
17190W        W76451   9.319  42.385   1.834
17191W        W76452  20.655  39.880  12.931
17192W        W76453  16.205  25.209  12.083
17193W        W76454  28.150  16.630  14.471
17194W        W76455  14.252  31.456  12.845
17195W        W76456  10.811  37.951   4.671
17196W        W76457  40.023  38.521   3.183
17197W        W76458  27.103  29.038   1.711
17198W        W76459  27.078   7.246   0.393
17199W        W76460   6.200  41.973  10.453
17200W        W76461  27.172   2.292   1.315
17201W        W76462  27.577  31.034  13.548
17202W        W76463   5.889  44.819   1.317
17203W        W76464  25.691  10.363   0.478
17204W        W76465  29.160  14.288   2.724
17205W        W76466  37.869  27.988   3.790
17206W        W76467   6.396  43.376  14.382
17207W        W76468  37.840  39.456  11.567
17208W        W76469  27.540   3.828   4.781
17209W        W76470  20.696  19.056   2.278
17210W        W76471  35.979  11.314   1.796
17211W        W76472  30.990  19.673   4.606
17212W        W76473  22.056   7.260   3.201
17213W        W76474   9.820   0.431   4.635
17214W        W76475  41.924  22.098  14.875
17215W        W76476  15.199  26.515   4.341
17216W        W76477  25.015  30.508  13.955
17217W        W76478   9.346  37.359   3.289
17218W        W76479  43.306  16.302   2.302
17219W        W76480  28.471  40.339  10.991
17220W        W76481   4.339  28.977  10.889
17221W        W76482  27.040  20.163  13.799
17222W        W76483   1.431   6.890  12.351
17223W        W76484  40.409   8.163   4.619
17224W        W76485  34.402  13.319   0.857
17225W        W76486   2.247   8.743  14.024
17226W        W76487  41.891  22.525   5.227
17227W        W76488  27.101  31.914  12.569
17228W        W76489   8.847  39.442   0.421
17229W        W76490  26.639  30.041  12.901
17230W        W76491  12.745  36.094   0.463
17231W        W76492  43.792  40.356   0.915
17232W        W76493  18.155  13.632  12.885
17233W        W76494  44.301  20.109  10.414
17234W        W76495  20.570  42.961   2.386
17235W        W76496   9.283  22.182  14.416
17236W        W76497  14.732  41.854   1.809
17237W        W76498   6.261  37.426  14.995
17238W        W76499   0.906  36.960   5.104
17239W        W76500   8.380  22.721  14.328
17240W        W76501  17.785  29.174  14.420
17241W        W76502  32.111  10.732  12.566
17242W        W76503  12.131  15.647  13.521
17243W        W76504  43.424  33.520   3.208
17244W        W76505  44.892  11.848   0.251
17245W        W76506  41.874  28.177   0.406
17246W        W76507  41.485  29.988  11.415
17247W        W76508  35.406  26.008  12.539
17248W        W76509  21.647  15.729   2.809
17249W        W76510  25.120  27.503   3.686
17250W        W76511  20.659  31.502   0.953
17251W        W76512   2.328  35.434   4.265
17252W        W76513   2.365  22.028   1.883
17253W        W76514  11.722  23.697  10.430
17254W        W76515   4.916  28.115   0.756
17255W        W76516  44.277  21.152   0.294
17256W        W76517  35.598  43.845  14.345
17257W        W76518  37.064   5.790   0.437
17258W        W76519  13.144  35.985   9.926
17259W        W76520  44.402  23.043   3.163
17260W        W76521  36.882  26.519  14.342
17261W        W76522  37.495  21.194  13.353
17262W        W76523  29.483  14.292   3.251
17263W        W76524   2.949  25.151   3.189
17264W        W76525  12.800  27.489   0.733
17265W        W76526  44.938  21.103   1.350
17266W        W76527  40.994   8.333  12.428
17267W        W76528  33.938  21.183   1.367
17268W        W76529  33.442   1.842  12.024
17269W        W76530   6.408   2.402  13.799
17270W        W76531  33.502  17.787  11.533
17271W        W76532   4.274  40.915  12.451
17272W        W76533  30.980  38.365   1.337
17273W        W76534  14.122  24.141  14.870
17274W        W76535  24.158  24.700   3.246
17275W        W76536  15.100  17.286  14.422
17276W        W76537   5.791  18.682   4.170
17277W        W76538   4.751  33.387  13.060
17278W        W76539  35.584   7.180   2.383
17279W        W76540  44.442  11.728  12.483
17280W        W76541  16.738  40.539  12.891
17281W        W76542   9.708  41.857  11.916
17282W        W76543  14.225  31.943  10.966
17283W        W76544  27.628  29.638   4.705
17284W        W76545  22.034  42.815   5.157
17285W        W76546  19.565  37.402  10.560
17286W        W76547  38.446  31.109   4.253
17287W        W76548  19.695  29.537   1.845
17288W        W76549  31.075   3.844   1.223
17289W        W76550   1.832  24.712  11.454
17290W        W76551   2.838  19.063  13.343
17291W        W76552  16.197   9.359  10.415
17292W        W76553   2.746  36.936   2.788
17293W        W76554  40.015  24.567   2.821
17294W        W76555  35.031  41.317   5.202
17295W        W76556  29.471  28.483  11.107
17296W        W76557  41.357  24.168   1.394
17297W        W76558  44.901   6.361  10.161
17298W        W76559   8.348   1.840  12.043
17299W        W76560  25.491  23.632  14.874
17300W        W76561   8.260  24.164   4.354
17301W        W76562   8.779   2.952  14.364
17302W        W76563  35.484  14.177   1.435
17303W        W76564   0.357  32.432   0.451
17304W        W76565  34.083  16.107  11.506
17305W        W76566  40.013  23.717  12.986
17306W        W76567   7.848  22.555   4.285
17307W        W76568  23.203  26.494   1.259
17308W        W76569  10.358   8.237   3.652
17309W        W76570  36.390   6.842   2.807
17310W        W76571  34.949  12.252  14.426
17311W        W76572  10.721  43.954   1.299
17312W        W76573  40.797  16.257   1.933
17313W        W76574  10.677   8.362  13.352
17314W        W76575   9.801   5.725  11.591
17315W        W76576   8.674   8.679  13.522
17316W        W76577  35.018  18.661   2.721
17317W        W76578   7.401   1.287   1.442
17318W        W76579  24.607  38.980  12.340
17319W        W76580  34.591  17.582  10.516
17320W        W76581   7.218  21.156  10.968
17321W        W76582   6.365  43.904   1.791
17322W        W76583  11.147  13.822  12.041
17323W        W76584  10.748  40.408   1.270
17324W        W76585  41.448  14.626   2.393
17325W        W76586  33.448  30.492  12.537
17326W        W76587  23.027  20.220   2.704
17327W        W76588  12.186  25.630  11.548
17328W        W76589   7.389   3.286  14.287
17329W        W76590  39.820   7.741   3.206
17330W        W76591  29.024  44.487  12.933
17331W        W76592  41.463  35.514   3.658
17332W        W76593  15.084  27.983  13.384
17333W        W76594   6.873  29.974  13.035
17334W        W76595  10.144  42.804   0.756
17335W        W76596  44.286  38.875  11.422
17336W        W76597  40.478  37.832  13.367
17337W        W76598  23.150  30.935   5.691
17338W        W76599  27.040  21.683   3.228
17339W        W76600  17.210  29.528   3.839
17340W        W76601  13.666  16.780  14.291
17341W        W76602  29.060  23.134   0.382
17342W        W76603   6.755  14.254  11.570
17343W        W76604  38.874   0.743  12.047
17344W        W76605  44.807  38.003  13.916
17345W        W76606  38.330  34.963  13.993
17346W        W76607  41.314  15.226   2.759
17347W        W76608   4.735   9.310  12.919
17348W        W76609  42.002  41.366   2.320
17349W        W76610  22.501  27.976  14.983
17350W        W76611  15.321  22.122   3.858
17351W        W76612  22.112  39.502   2.271
17352W        W76613  12.166  30.978   3.185
17353W        W76614   4.405   0.381  14.278
17354W        W76615  22.746  36.066   3.630
17355W        W76616  16.698  43.385   1.777
17356W        W76617  25.568  29.576  10.961
17357W        W76618  44.882  36.013  12.024
17358W        W76619  24.104  23.213   2.734
17359W        W76620   1.357  13.735   3.832
17360W        W76621  17.776  35.041  13.380
17361W        W76622  21.743  13.752   2.358
17362W        W76623  19.039  37.897  12.928
17363W        W76624  28.504  32.422  13.337
17364W        W76625   5.910  26.123   1.421
17365W        W76626  23.034  14.106  12.843
17366W        W76627  12.808   3.933  10.564
17367W        W76628  34.484  43.352   3.733
17368W        W76629  13.132  30.103   2.292
17369W        W76630  37.959  31.554  13.911
17370W        W76631  32.592  41.848   0.836
17371W        W76632  31.908  18.102  11.901
17372W        W76633  21.624   0.908  13.971
17373W        W76634  16.729  13.606   2.827
17374W        W76635   9.806  21.172  13.032
17375W        W76636   3.424   9.164  14.467
17376W        W76637  44.885   7.285  14.377
17377W        W76638  29.130  21.078   4.347
17378W        W76639  20.539  42.381   2.203
17379W        W76640  37.858  15.185   0.951
17380W        W76641  19.622   6.333   2.254
17381W        W76642  22.025  10.659   4.129
17382W        W76643   9.802  11.196  12.404
17383W        W76644  13.330  30.493  11.008
17384W        W76645  31.460   5.411  12.565
17385W        W76646  21.595  29.974  12.375
17386W        W76647  29.659  37.926  11.595
17387W        W76648  33.894  19.614   4.685
17388W        W76649  38.353  36.085  13.514
17389W        W76650  39.320  43.793  13.976
17390W        W76651  12.264   4.832  10.936
17391W        W76652  35.447   1.893   2.786
17392W        W76653  22.034  19.600   2.261
17393W        W76654  36.941  12.290  11.945
17394W        W76655   5.338  28.652   2.748
17395W        W76656  27.686   5.256   4.201
17396W        W76657  34.893  43.841   1.911
17397W        W76658  24.497  26.021  12.857
17398W        W76659  23.713   9.837   1.751
17399W        W76660  43.318  28.087  13.951
17400W        W76661  23.109  10.652   4.160
17401W        W76662   9.221  26.462  12.347
17402W        W76663   2.849  26.157  11.096
17403W        W76664  33.009  11.695  12.945
17404W        W76665  29.511   2.831   5.199
17405W        W76666  10.344  26.957   0.258
17406W        W76667  28.044  32.486   3.699
17407W        W76668  28.048  13.295  10.989
17408W        W76669  28.529  11.794   1.780
17409W        W76670  43.303  10.162   3.633
17410W        W76671  14.328  34.466   2.304
17411W        W76672   5.321  38.059  14.915
17412W        W76673  32.910   3.453  13.363
17413W        W76674  19.131  38.846   0.328
17414W        W76675  32.885  14.591  12.017
17415W        W76676  33.000  30.504   1.353
17416W        W76677  17.223  21.089   1.881
17417W        W76678  16.764   7.389   0.381
17418W        W76679   0.349  18.204   4.728
17419W        W76680  35.590  40.411   1.282
17420W        W76681   3.947  12.188   0.797
17421W        W76682  24.022  37.961   0.338
17422W        W76683  37.022   3.736  14.414
17423W        W76684  15.796  27.667   1.903
17424W        W76685  31.924  21.241  10.643
17425W        W76686  43.871  26.063  10.597
17426W        W76687  44.825  18.239  10.501
17427W        W76688  41.971  15.252   1.446
17428W        W76689   5.688  30.977  12.865
17429W        W76690  11.648  38.399   2.755
17430W        W76691  11.129  21.251  11.609
17431W        W76692  18.273  44.282  14.450
17432W        W76693  27.001  44.408  10.937
17433W        W76694  32.449  43.492  12.513
17434W        W76695  32.470  28.020   1.919
17435W        W76696  32.893   9.818  13.033
17436W        W76697  37.062  16.092   1.857
17437W        W76698  19.765  38.006   2.726
17438W        W76699  26.199  29.103  10.080
17439W        W76700  10.640   4.919  11.434
17440W        W76701  32.455  26.013  11.521
17441W        W76702   8.844  36.449  12.402
17442W        W76703  19.569  24.570  11.992
17443W        W76704   0.470  16.166  11.376
17444W        W76705  24.059  27.176   4.627
17445W        W76706  40.445  35.598  14.898
17446W        W76707   5.706  41.975   4.149
17447W        W76708   0.269   1.768  12.854
17448W        W76709  14.233  33.098   2.715
17449W        W76710   3.331   4.409  14.914
17450W        W76711  37.544  36.964  10.918
17451W        W76712  12.324  44.008   1.292
17452W        W76713  34.916   6.278  12.939
17453W        W76714  40.531  42.901   3.651
17454W        W76715  38.968  34.073  12.446
17455W        W76716  26.992  37.449   1.780
17456W        W76717  20.124  17.263  12.475
17457W        W76718  40.941  41.391   4.251
17458W        W76719  27.981  39.823   2.377
17459W        W76720  29.992  18.091   4.670
17460W        W76721  16.263   7.724   9.932
17461W        W76722  23.037  34.875   2.219
17462W        W76723  18.206  41.904   2.733
17463W        W76724   1.850  28.604  10.955
17464W        W76725  10.712  39.019   4.298
17465W        W76726  26.582  12.682  14.371
17466W        W76727  23.653   4.211  14.497
17467W        W76728  11.345  20.043  12.065
17468W        W76729   7.891  39.525   2.735
17469W        W76730  10.764  26.462   2.359
17470W        W76731  32.592  15.703  11.080
17471W        W76732  26.062  15.156   3.831
17472W        W76733  22.547   1.756  12.046
17473W        W76734  14.164  31.929  12.470
17474W        W76735  21.150   6.286  12.007
17475W        W76736  35.522  43.955   1.735
17476W        W76737  39.543  27.610  13.382
17477W        W76738  43.921  41.291   3.268
17478W        W76739  20.254   9.878  13.357
17479W        W76740   4.745  25.677  11.080
17480W        W76741  29.025  31.143   0.422
17481W        W76742   1.734   0.786   0.798
17482W        W76743  16.169  29.069  11.934
17483W        W76744   1.328   5.831  13.028
17484W        W76745  11.728   4.292   3.709
17485W        W76746  23.575  13.782  13.531
17486W        W76747  30.942   5.216  12.823
17487W        W76748  39.973  19.655  11.071
17488W        W76749  21.214   5.210   5.124
17489W        W76750  32.428  42.469  12.884
17490W        W76751  25.630  14.814  13.959
17491W        W76752  33.122  19.615   1.762
17492W        W76753  14.808  13.602   1.350
17493W        W76754  41.946  31.629  11.565
17494W        W76755   1.475  13.747   4.835
17495W        W76756  13.808  26.987   2.178
17496W        W76757  24.149  18.117  14.416
17497W        W76758  32.487   5.769   1.228
17498W        W76759  18.777  16.738   2.752
17499W        W76760  18.253   2.721  13.516
17500W        W76761  16.158   4.788  13.836
17501W        W76762  20.548   9.214  11.590
17502W        W76763  44.289  23.053  10.644
17503W        W76764  32.524   0.426   4.800
17504W        W76765  43.001  26.026   2.196
17505W        W76766   4.805   0.398   3.633
17506W        W76767  27.622  31.930   0.389
17507W        W76768  41.930  30.447   2.400
17508W        W76769  13.817  40.377  10.440
17509W        W76770  13.740  11.283   0.853
17510W        W76771  15.268  38.872   1.241
17511W        W76772  17.753  35.070  11.109
17512W        W76773   2.399  12.356  14.822
17513W        W76774  28.084   2.960  13.891
17514W        W76775  43.300  26.067  13.428
17515W        W76776  34.064  18.771  13.363
17516W        W76777   1.914  21.249  11.951
17517W        W76778  37.913  35.459   2.786
17518W        W76779  17.731  25.686  12.892
17519W        W76780  22.195  42.022   4.717
17520W        W76781  30.073  10.677   4.827
17521W        W76782  29.169   4.793   4.695
17522W        W76783   6.859  36.886  13.320
17523W        W76784  24.083  32.577  12.886
17524W        W76785  22.600  13.762   0.476
17525W        W76786  43.385  35.916  13.013
17526W        W76787  14.114  34.459  13.510
17527W        W76788  17.703  16.803  11.879
17528W        W76789  25.000   9.775  11.388
17529W        W76790  12.808   2.437  12.522
17530W        W76791  24.220  14.175   4.695
17531W        W76792  35.891   6.289   3.369
17532W        W76793   5.415  31.089  11.494
17533W        W76794  13.727   1.897  13.017
17534W        W76795  10.817  19.167   2.404
17535W        W76796  14.810  25.510  12.536
17536W        W76797  24.182  26.112  13.841
17537W        W76798  27.496  19.219   2.757
17538W        W76799  22.017  41.822   1.742
17539W        W76800  32.577  14.655   0.480
17540W        W76801  22.068  14.682  11.082
17541W        W76802  13.703  31.514  13.848
17542W        W76803  14.650  37.578   0.864
17543W        W76804  38.847  32.578  10.594
17544W        W76805  17.780  44.472   3.278
17545W        W76806  39.409  24.186   0.728
17546W        W76807  15.580  17.715  12.005
17547W        W76808  11.623  10.170  14.399
17548W        W76809  19.582  33.601   0.899
17549W        W76810  19.170  33.420   3.314
17550W        W76811  44.804   7.734   2.802
17551W        W76812  20.755  19.601  14.959
17552W        W76813  38.873  36.559  13.009
17553W        W76814  19.276  28.510   1.368
17554W        W76815   4.859  23.627  13.522
17555W        W76816  27.683  25.012  10.503
17556W        W76817   3.737  33.399  13.807
17557W        W76818  43.288  31.480  12.457
17558W        W76819  42.868  39.992  10.643
17559W        W76820  38.825  20.150   3.727
17560W        W76821  35.964  21.254   3.783
17561W        W76822   8.391  36.415   2.257
17562W        W76823  25.187  35.523   0.324
17563W        W76824   9.231  22.581  14.770
17564W        W76825   5.794  36.589  13.381
17565W        W76826  14.671  24.022  14.006
17566W        W76827  15.275   5.291   0.396
17567W        W76828   2.305   0.419  14.812
17568W        W76829  11.802  23.122   0.964
17569W        W76830  37.020  10.169   4.720
17570W        W76831  27.592  21.696  14.509
17571W        W76832  34.460  40.988  10.430
17572W        W76833  24.722  31.013   3.755
17573W        W76834  17.163   2.881  11.989
17574W        W76835   3.915   9.161  10.640
17575W        W76836  42.422  27.102  13.896
17576W        W76837   0.437  33.600  11.863
17577W        W76838  37.377  13.178   3.179
17578W        W76839  12.300   1.868   2.702
17579W        W76840   2.792  22.673   2.718
17580W        W76841  19.263   3.236  11.953
17581W        W76842   1.766  21.655   4.282
17582W        W76843   4.871  18.132   1.842
17583W        W76844   5.859   5.873  12.512
17584W        W76845  29.550   3.852   3.766
17585W        W76846   2.916  33.590   0.458
17586W        W76847  13.341  44.868   4.615
17587W        W76848   0.345   7.809   1.892
17588W        W76849  37.527  31.051  12.521
17589W        W76850   0.752   2.422   2.785
17590W        W76851  34.533  25.992   4.278
17591W        W76852  10.776  13.749  12.978
17592W        W76853   5.249  35.982   2.343
17593W        W76854  29.541  27.104   0.898
17594W        W76855  38.990  17.717   1.219
17595W        W76856  11.258   9.801  11.050
17596W        W76857  40.360   6.400   3.224
17597W        W76858   4.711  37.561   0.751
17598W        W76859  44.888  11.645  12.449
17599W        W76860  25.010  41.855  12.517
17600W        W76861  16.677  29.633  14.014
17601W        W76862  14.111  26.480  12.417
17602W        W76863   9.673  14.114   4.306
17603W        W76864  36.544  36.564  13.477
17604W        W76865  44.273  20.179  14.876
17605W        W76866  28.645  39.338   4.756
17606W        W76867  11.789   6.220  11.128
17607W        W76868  42.476  10.820  10.542
17608W        W76869  33.094  17.277   3.805
17609W        W76870  38.940  27.151   4.217
17610W        W76871  36.863  13.233   4.833
17611W        W76872  40.350  39.984   5.091
17612W        W76873  33.944  33.026  11.418
17613W        W76874   9.227  33.528   4.615
17614W        W76875   6.399  18.233   0.961
17615W        W76876  32.574   8.392  12.998
17616W        W76877  24.986  23.490   1.795
17617W        W76878  28.042  11.207   1.406
17618W        W76879  15.167  41.863  11.457
17619W        W76880   0.401  19.086   4.322
17620W        W76881  40.980   3.802   1.376
17621W        W76882   7.867  26.581   2.789
17622W        W76883   3.375  11.221  13.887
17623W        W76884  40.823  22.207   2.777
17624W        W76885  37.903  39.029  14.386
17625W        W76886  31.475  23.549   4.148
17626W        W76887  43.447  38.882   2.702
17627W        W76888   9.776   6.880   0.776
17628W        W76889  39.496  16.225   2.821
17629W        W76890  14.206  42.776   2.363
17630W        W76891  21.116  37.449  14.852
17631W        W76892  35.968   7.217  13.496
17632W        W76893  26.674   2.962   3.740
17633W        W76894  28.997  39.935   4.129
17634W        W76895  18.163  26.477  13.512
17635W        W76896   0.963  14.686  14.306
17636W        W76897  34.963  37.491   4.736
17637W        W76898  41.411  40.373   2.331
17638W        W76899  43.960   7.207  11.402
17639W        W76900  37.528  40.469   3.284
17640W        W76901  14.203  39.390  10.574
17641W        W76902   1.413  31.952   3.153
17642W        W76903  37.858   7.338   9.550
17643W        W76904  43.481  33.416  11.002
17644W        W76905  30.115  42.319  12.906
17645W        W76906   4.271  25.479   3.255
17646W        W76907   6.186   8.310  11.472
17647W        W76908   9.233  31.066   1.263
17648W        W76909  16.284  31.530   3.229
17649W        W76910  22.574  16.708   5.205
17650W        W76911  28.522  28.101  11.545
17651W        W76912   5.439  21.737   2.380
17652W        W76913  44.766  30.602   4.211
17653W        W76914  38.360  29.126  12.945
17654W        W76915  26.169  32.975   5.779
17655W        W76916  15.190  38.374   3.356
17656W        W76917   6.302   1.807  12.906
17657W        W76918  29.607  35.395   4.832
17658W        W76919  42.302  17.568   4.146
17659W        W76920  25.573  42.458  10.463
17660W        W76921  33.946  20.566  11.465
17661W        W76922  30.539  30.600   0.392
17662W        W76923  38.914  42.443  11.054
17663W        W76924   6.213  29.942   1.394
17664W        W76925  12.340  38.997  12.525
17665W        W76926  27.992  43.807   1.397
17666W        W76927  30.140  32.611  12.895
17667W        W76928  29.096  28.436   4.283
17668W        W76929   5.350  11.773  12.042
17669W        W76930  20.075  38.823   2.389
17670W        W76931  33.977  40.324   3.234
17671W        W76932   1.902   3.271   0.450
17672W        W76933   3.947  36.501   1.318
17673W        W76934  15.771  33.941   4.124
17674W        W76935  40.398  27.473   9.940
17675W        W76936  36.473  27.141   1.800
17676W        W76937  38.953   5.427   1.341
17677W        W76938  32.595   6.698   1.227
17678W        W76939  41.868   7.665   2.222
17679W        W76940  36.447  38.874  14.347
17680W        W76941  19.730  25.072  10.636
17681W        W76942  39.989  41.971   4.812
17682W        W76943   3.754   7.872   1.833
17683W        W76944  32.438  39.988  12.539
17684W        W76945   6.400  21.124   2.699
17685W        W76946  35.555  28.183   4.293
17686W        W76947  16.603  35.860   3.329
17687W        W76948  22.212  32.043   1.292
17688W        W76949  20.051  26.678   3.309
17689W        W76950   9.832  30.983   3.823
17690W        W76951   0.851  29.950  12.424
17691W        W76952  44.440   8.767   3.383
17692W        W76953  21.124  35.589  13.389
17693W        W76954  22.025  42.379  10.498
17694W        W76955  13.269   1.881  12.027
17695W        W76956   1.884  33.524  14.018
17696W        W76957  25.634  16.724   0.729
17697W        W76958  30.054  26.086  14.321
17698W        W76959  19.670  11.207   3.365
17699W        W76960  11.804   8.657   4.637
17700W        W76961   2.765   3.939   0.839
17701W        W76962   0.890  32.030   0.378
17702W        W76963  43.779  11.192   1.388
17703W        W76964  30.927  37.868  11.046
17704W        W76965  19.063  35.523  12.062
17705W        W76966  38.854  31.528   1.422
17706W        W76967  24.638  13.821  10.971
17707W        W76968  33.557   3.317   4.286
17708W        W76969  13.809  35.898   1.247
17709W        W76970  14.171  36.529   2.200
17710W        W76971  13.280   9.304  14.951
17711W        W76972  42.378  42.887   3.361
17712W        W76973   8.237   8.243  12.074
17713W        W76974  29.521  13.147   4.711
17714W        W76975  26.697   0.778   2.889
17715W        W76976  19.083  14.631   0.743
17716W        W76977   5.196  10.653   4.147
17717W        W76978  27.681   7.706  13.042
17718W        W76979  30.617  28.653   1.790
17719W        W76980  35.105  28.979   4.657
17720W        W76981  10.219  44.466   0.870
17721W        W76982   2.467  22.590  11.453
17722W        W76983  31.409   5.915   1.864
17723W        W76984   9.663  21.118   2.863
17724W        W76985   5.202  18.672   2.395
17725W        W76986  24.016  22.558   5.295
17726W        W76987  11.293  38.517   0.938
17727W        W76988  42.885   1.447   1.371
17728W        W76989  34.501   6.204  11.970
17729W        W76990   8.753  24.653   0.965
17730W        W76991  25.499  29.063   3.652
17731W        W76992  22.638  32.055   4.659
17732W        W76993  44.776   3.757  11.523
17733W        W76994  39.836  13.836  14.305
17734W        W76995  30.543  43.276   4.242
17735W        W76996  30.112  33.995   0.796
17736W        W76997  40.471  19.712   1.308
17737W        W76998  11.163  11.369  14.379
17738W        W76999  31.490  15.608  13.504
17739W        W77000   2.339   8.305   0.444
17740W        W77001  29.081  43.358   2.802
17741W        W77002  13.221  18.753  12.370
17742W        W77003  33.975  33.117   0.406
17743W        W77004  28.179  18.701   1.405
17744W        W77005   8.810  40.974  11.886
17745W        W77006  32.532   5.331   2.341
17746W        W77007  20.045  27.474   0.274
17747W        W77008   5.754  40.484   3.260
17748W        W77009  15.600   4.289   1.897
17749W        W77010  26.957  11.667   0.933
17750W        W77011  29.974  30.948  11.042
17751W        W77012  27.504   6.330  11.388
17752W        W77013  31.058  39.897   4.783
17753W        W77014  37.860  35.467   4.281
17754W        W77015  42.925  31.454  10.600
17755W        W77016   1.405  36.381   4.249
17756W        W77017  23.072  37.540   1.275
17757W        W77018   1.311   6.300   0.779
17758W        W77019  31.557  42.991  12.359
17759W        W77020  32.948  28.663   1.832
17760W        W77021  19.691  41.917   1.361
17761W        W77022  42.493   2.398   4.275
17762W        W77023  32.594  39.014   4.272
17763W        W77024   8.365   2.286  13.939
17764W        W77025  13.732  18.575  11.372
17765W        W77026  27.184  19.648  13.547
17766W        W77027  41.856   2.329  14.280
17767W        W77028  30.649  16.637  14.893
17768W        W77029  44.329  30.452   4.748
17769W        W77030  27.056  16.216   0.479
17770W        W77031  43.990  29.100   4.824
17771W        W77032   2.232  40.897   4.203
17772W        W77033  14.730   6.910  13.355
17773W        W77034  14.824  32.602   2.223
17774W        W77035  37.368  13.171   0.321
17775W        W77036   5.694   5.338   2.780
17776W        W77037  10.740  36.014  10.548
17777W        W77038   1.465  26.989  11.411
17778W        W77039  27.993  20.673  12.899
17779W        W77040   1.421  34.408   4.243
17780W        W77041  23.078  12.640   0.399
17781W        W77042  32.897  39.021  14.325
17782W        W77043  16.096   0.861  14.797
17783W        W77044  16.766  22.162  10.938
17784W        W77045  19.146  43.470  10.910
17785W        W77046  42.350  28.023   3.264
17786W        W77047  29.099  24.975  10.577
17787W        W77048  16.110  27.005  12.978
17788W        W77049   5.771  38.328  11.949
17789W        W77050  26.195   5.409   3.209
17790W        W77051   3.358  13.679  11.445
17791W        W77052   9.378   0.980  13.377
17792W        W77053  25.504  16.678   0.272
17793W        W77054  23.151  16.083   0.336
17794W        W77055  29.584   2.807   4.239
17795W        W77056   1.782  42.900  14.387
17796W        W77057  27.072  22.572   4.748
17797W        W77058   1.826  31.632   1.218
17798W        W77059  41.504  41.536   0.896
17799W        W77060   0.386   8.802   2.194
17800W        W77061   0.446  19.146  14.783
17801W        W77062  39.353  38.343   3.846
17802W        W77063   8.720  15.186   3.342
17803W        W77064  20.654  27.066   0.451
17804W        W77065  20.217  29.002   5.204
17805W        W77066  18.582  24.012  12.493
17806W        W77067   3.442  25.689  11.373
17807W        W77068  17.618   6.802   3.237
17808W        W77069   2.820   4.801   1.855
17809W        W77070  39.958  10.799  12.498
17810W        W77071  28.988   5.318   1.725
17811W        W77072  28.096  14.775   0.357
17812W        W77073  29.541  25.123  10.098
17813W        W77074  35.512  37.424   1.773
17814W        W77075  30.134  37.543   2.291
17815W        W77076   7.212  26.033   1.790
17816W        W77077  42.452  12.276  10.904
17817W        W77078  36.970  17.783  11.493
17818W        W77079   3.885   5.369   2.298
17819W        W77080  35.428  31.627   4.245
17820W        W77081  29.623  41.351   1.270
17821W        W77082  40.905  37.907  14.371
17822W        W77083  30.481  16.739   1.407
17823W        W77084  39.058  36.494   3.770
17824W        W77085  38.861   8.700   5.193
17825W        W77086  17.146   1.246  11.126
17826W        W77087  37.056  10.676  11.934
17827W        W77088  42.946   4.259   4.604
17828W        W77089  38.066  35.877   3.315
17829W        W77090  43.396   6.802  10.901
17830W        W77091  22.191  37.525   2.693
17831W        W77092  35.062  33.569  10.528
17832W        W77093  37.927   3.809   2.738
17833W        W77094  25.557  37.038   0.959
17834W        W77095  16.604   0.823   3.630
17835W        W77096  13.769  14.831   1.340
17836W        W77097  37.954  24.491   2.661
17837W        W77098  36.964  29.946   2.864
17838W        W77099  29.504  36.884   0.338
17839W        W77100  25.213  26.547   3.284
17840W        W77101  14.113   2.267   2.414
17841W        W77102  43.904  28.028  12.056
17842W        W77103  24.162  41.927  14.326
17843W        W77104  38.422  15.209   1.902
17844W        W77105  17.188  26.098  11.959
17845W        W77106  39.350  18.686  11.864
17846W        W77107  24.070   4.730  14.370
17847W        W77108   3.320  29.670   0.315
17848W        W77109   0.809   5.434  13.891
17849W        W77110  26.141  44.420   1.287
17850W        W77111  30.977  38.563  12.068
17851W        W77112  19.671  38.418   3.166
17852W        W77113  32.111  31.447  12.414
17853W        W77114  39.361  35.087  14.909
17854W        W77115   2.769  20.724   4.729
17855W        W77116  36.024  35.435  13.056
17856W        W77117  28.594   5.719  12.090
17857W        W77118  29.455  32.088  14.938
17858W        W77119  10.655   5.299  11.527
17859W        W77120  37.948   1.368  14.363
17860W        W77121  15.690   2.380   1.912
17861W        W77122   0.273   5.433  14.414
17862W        W77123   8.813  33.602  12.498
17863W        W77124  38.884  30.162   3.653
17864W        W77125   9.722  27.501   3.741
17865W        W77126  11.842  27.628   4.171
17866W        W77127  27.057   1.240   3.157
17867W        W77128  34.932  20.573   1.229
17868W        W77129  19.149  27.577  13.329
17869W        W77130  28.179  26.974   0.883
17870W        W77131  14.794  41.964   0.420
17871W        W77132  13.671  12.342   0.850
17872W        W77133  39.029  19.759  12.070
17873W        W77134   2.429   5.696  11.985
17874W        W77135  26.190  42.004   1.894
17875W        W77136  29.951  41.350  13.492
17876W        W77137   5.393  10.334   0.909
17877W        W77138  35.500   5.326  11.609
17878W        W77139  37.337  26.050  14.987
17879W        W77140  20.537  12.792   2.216
17880W        W77141   2.889  10.856   1.217
17881W        W77142   8.386  10.140  14.854
17882W        W77143  10.717  34.978  11.393
17883W        W77144  34.027   6.346  11.859
17884W        W77145  15.185  11.780  13.849
17885W        W77146  44.428  31.983   1.447
17886W        W77147  40.020   2.720  13.340
17887W        W77148  37.559  24.148  12.938
17888W        W77149  27.060  33.993   2.696
17889W        W77150   2.461  22.540  10.621
17890W        W77151  11.802  36.958   1.863
17891W        W77152  12.828   6.754   4.768
17892W        W77153  36.867  34.006  12.503
17893W        W77154  43.973   2.920   1.353
17894W        W77155  32.967  34.541  12.920
17895W        W77156  29.126  31.412   0.927
17896W        W77157  17.211  42.325   2.680
17897W        W77158  14.773   7.793   3.381
17898W        W77159   9.758  23.214   1.725
17899W        W77160  40.410   2.404   2.880
17900W        W77161  40.055  25.546   2.189
17901W        W77162  40.014  23.049   0.960
17902W        W77163  42.846  10.209   2.897
17903W        W77164   1.738  26.500   1.865
17904W        W77165  34.878  11.181  14.290
17905W        W77166  30.037   9.293  10.913
17906W        W77167  17.179  35.509  14.878
17907W        W77168  26.073  26.118   1.749
17908W        W77169  37.462  34.471  14.356
17909W        W77170  37.977  24.998  11.531
17910W        W77171  14.169   1.831  11.020
17911W        W77172  18.074  20.542  13.821
17912W        W77173   2.824   1.809   1.800
17913W        W77174   7.221  15.658   4.599
17914W        W77175   7.268  42.332   0.964
17915W        W77176  40.942  43.956   3.298
17916W        W77177  29.028   6.819   2.403
17917W        W77178  37.447   5.336   4.291
17918W        W77179   8.765  41.828   0.941
17919W        W77180   2.392  31.044   4.136
17920W        W77181  30.931  31.936  14.907
17921W        W77182  39.866  21.535  11.862
17922W        W77183   4.392   8.797  11.979
17923W        W77184   0.351   3.948  12.845
17924W        W77185  15.611  16.260  13.462
17925W        W77186   0.837  43.947   1.302
17926W        W77187  32.451  32.426   4.182
17927W        W77188  35.497  12.363  13.381
17928W        W77189   9.339  25.513  14.941
17929W        W77190  19.653  43.468  11.035
17930W        W77191   3.316   4.744   5.103
17931W        W77192  22.238  44.925   0.392
17932W        W77193  37.919  21.599   2.731
17933W        W77194  43.342  33.552  13.813
17934W        W77195   7.683  35.941   2.694
17935W        W77196  18.120   9.248  11.006
17936W        W77197   2.405  25.691   3.312
17937W        W77198   8.876  22.212   2.895
17938W        W77199  27.474  35.543  11.528
17939W        W77200  38.966  32.941   4.826
17940W        W77201  24.673  38.947  14.870
17941W        W77202  29.946  19.116  14.360
17942W        W77203  14.118   9.776   3.870
17943W        W77204  26.158  36.037  13.063
17944W        W77205  14.318  27.055   2.765
17945W        W77206   8.361  41.301   1.841
17946W        W77207  22.512   8.658  10.899
17947W        W77208  35.992  12.835   3.699
17948W        W77209   8.274   5.359   0.246
17949W        W77210   2.960  37.498   1.748
17950W        W77211  23.021  40.870  11.920
17951W        W77212  44.435  37.915   0.296
17952W        W77213  22.058   8.871  12.569
17953W        W77214  17.746  24.541   0.281
17954W        W77215   8.871  22.712   1.406
17955W        W77216  15.299  14.119   0.295
17956W        W77217  28.548  38.555  12.915
17957W        W77218  21.634  31.916  13.377
17958W        W77219  14.108  43.773   4.734
17959W        W77220  16.727  17.157  13.863
17960W        W77221  35.035  30.999   4.352
17961W        W77222  38.548  34.383  14.957
17962W        W77223  11.748  15.632   2.719
17963W        W77224  33.501   6.185   3.316
17964W        W77225   5.728   6.342  10.413
17965W        W77226  20.257  12.203   0.815
17966W        W77227  10.784  41.400   2.709
17967W        W77228  25.026  39.944  11.037
17968W        W77229  22.741  23.028  13.818
17969W        W77230  21.638  37.997  13.814
17970W        W77231  32.023  31.965  11.031
17971W        W77232  26.478  31.971   4.827
17972W        W77233  13.685  31.017   3.356
17973W        W77234   4.337  12.130  12.482
17974W        W77235  17.278  36.584   2.409
17975W        W77236  26.207  34.483  13.539
17976W        W77237  18.182  42.923  11.422
17977W        W77238  33.470  28.617  13.493
17978W        W77239  32.902  18.774   4.204
17979W        W77240  35.502  24.626   2.824
17980W        W77241  12.717  22.119  11.118
17981W        W77242   6.738  22.145   4.344
17982W        W77243  42.019  33.053  10.085
17983W        W77244  35.568   3.317  12.358
17984W        W77245  11.708  41.298  10.058
17985W        W77246  18.549  33.607   0.737
17986W        W77247   2.864  19.045  10.482
17987W        W77248   7.764   8.326   9.987
17988W        W77249   5.726  41.841   4.752
17989W        W77250  39.938  41.939  12.404
17990W        W77251  25.682   0.797  13.342
17991W        W77252  17.160  33.498  12.974
17992W        W77253  14.200  41.320  13.845
17993W        W77254  21.544  29.104   2.262
17994W        W77255  21.263  43.917   1.884
17995W        W77256  22.634  28.562   0.883
17996W        W77257   2.839  26.587  13.327
17997W        W77258  29.051  39.032   0.824
17998W        W77259   1.785  14.245   2.291
17999W        W77260  12.244   9.310   4.149
18000W        W77261  36.035  22.690  13.435
18001W        W77262   1.466  24.007  13.539
18002W        W77263  39.014  31.017   3.819
18003W        W77264   2.317  22.210  13.035
18004W        W77265  35.954  12.818   4.270
18005W        W77266  10.277  26.511   3.312
18006W        W77267  43.327  18.210  12.359
18007W        W77268  36.464  41.320  11.878
18008W        W77269  16.151  18.701  13.928
18009W        W77270   7.298   8.668   1.842
18010W        W77271  25.476   6.185   0.787
18011W        W77272  14.177   2.322   3.848
18012W        W77273  14.676  19.584   5.294
18013W        W77274  24.594   8.775  14.363
18014W        W77275  20.561  44.760   0.244
18015W        W77276   1.340  40.315  10.450
18016W        W77277  31.598  12.226  13.376
18017W        W77278  41.954   7.309  10.124
18018W        W77279  17.757   2.373  12.030
18019W        W77280  22.679   0.887   2.747
18020W        W77281  28.185  21.229  10.038
18021W        W77282  32.127  12.726  12.391
18022W        W77283  30.124  28.079  10.592
18023W        W77284  34.921  42.493  14.422
18024W        W77285  15.120   7.204   1.704
18025W        W77286  15.127  42.445   1.770
18026W        W77287  37.834  34.980  12.450
18027W        W77288  35.919  21.730  10.940
18028W        W77289  38.519   4.893   4.120
18029W        W77290  28.670   2.854   3.762
18030W        W77291  15.239  12.253  10.607
18031W        W77292  10.864  21.577   2.193
18032W        W77293   8.814  35.028  11.516
18033W        W77294  42.465   4.298   0.741
18034W        W77295   6.385  43.403   3.717
18035W        W77296   0.362  41.535   2.702
18036W        W77297   8.765  35.972  11.065
18037W        W77298  10.666  24.212  10.632
18038W        W77299   4.789   5.697  14.493
18039W        W77300   6.338   3.865  13.956
18040W        W77301  21.149   3.230  12.086
18041W        W77302   9.769  36.369   0.302
18042W        W77303   9.249  11.333   0.442
18043W        W77304  41.920  24.618  12.866
18044W        W77305  31.417   2.929   0.247
18045W        W77306   8.263  40.457   2.881
18046W        W77307  19.280  28.535  12.942
18047W        W77308   4.238  33.531   4.191
18048W        W77309  40.483  32.887   9.579
18049W        W77310   0.299  15.808   9.585
18050W        W77311   0.983   7.864  10.612
18051W        W77312  31.964   2.339  13.983
18052W        W77313  42.359  19.166  10.460
18053W        W77314  25.495  11.763   1.211
18054W        W77315  29.008  30.096  10.081
18055W        W77316  32.063   9.167  14.393
18056W        W77317  20.692   7.403  12.968
18057W        W77318  44.479  15.784   0.924
18058W        W77319  40.828   7.323   0.266
18059W        W77320   2.897  26.984   4.649
18060W        W77321  39.815   1.796   2.378
18061W        W77322  34.884  18.600  12.519
18062W        W77323  26.056  23.990   0.445
18063W        W77324  38.566  40.827  10.472
18064W        W77325  23.048  43.001  11.414
18065W        W77326   9.761   7.176  12.485
18066W        W77327  18.669   8.328  14.352
18067W        W77328  34.956  32.006  13.026
18068W        W77329  14.134  18.293   1.746
18069W        W77330  10.665  35.914  11.899
18070W        W77331  28.955  16.304   3.153
18071W        W77332  22.709   7.358   0.257
18072W        W77333  37.085  12.354   3.338
18073W        W77334  40.453  32.632   1.440
18074W        W77335  27.539  27.183  14.826
18075W        W77336  25.684  27.480   4.748
18076W        W77337   1.962  16.238   3.209
18077W        W77338  35.005  31.981  13.805
18078W        W77339  41.007  43.426   4.724
18079W        W77340  40.459  20.715   2.824
18080W        W77341  42.430  24.539   9.989
18081W        W77342   0.985   5.243  14.311
18082W        W77343  35.390  20.726  12.005
18083W        W77344  18.236  29.582   2.786
18084W        W77345  44.358  22.143  12.507
18085W        W77346  16.269  20.562   4.289
18086W        W77347  14.798  27.971   4.146
18087W        W77348   3.456  29.667   5.254
18088W        W77349   3.715  20.532  10.596
18089W        W77350   1.878  13.339   0.886
18090W        W77351   0.429  19.715  14.320
18091W        W77352   3.741  11.862   0.405
18092W        W77353  11.163  34.399   1.348
18093W        W77354  13.129  32.127  12.988
18094W        W77355  34.405  33.878   1.404
18095W        W77356  43.476  15.629  14.417
18096W        W77357  23.498  19.233   3.789
18097W        W77358  18.713   1.299   0.453
18098W        W77359   9.216  43.985   3.818
18099W        W77360  20.753  13.765   4.607
18100W        W77361  26.007   9.883   0.247
18101W        W77362  30.991   8.839   4.307
18102W        W77363  30.495  41.437  11.509
18103W        W77364   2.923  26.165   2.695
18104W        W77365  25.505  35.052  12.996
18105W        W77366   1.373  28.174  14.010
18106W        W77367   6.708  23.665  11.121
18107W        W77368  24.203  13.225  11.872
18108W        W77369  16.223  15.170  13.350
18109W        W77370  19.096   2.415  10.894
18110W        W77371  40.362  10.752   4.675
18111W        W77372  31.619  13.762   1.390
18112W        W77373   2.398   5.764  10.620
18113W        W77374  35.088   2.234   0.945
18114W        W77375  40.894  23.587   4.644
18115W        W77376  40.489  28.121  13.456
18116W        W77377  36.456   6.725  13.831
18117W        W77378  20.732  38.032  12.962
18118W        W77379   7.301  23.694  12.054
18119W        W77380  39.815  16.077  12.477
18120W        W77381  26.076   2.373  14.374
18121W        W77382  18.139  41.440  13.374
18122W        W77383   2.438  37.494  12.053
18123W        W77384   0.493  20.198   0.753
18124W        W77385  11.175  26.535   4.161
18125W        W77386   3.796  44.804  13.948
18126W        W77387  15.177  39.359  11.995
18127W        W77388  20.215  42.931  12.915
18128W        W77389   7.809  38.979  11.594
18129W        W77390  19.168  15.749   4.276
18130W        W77391  23.593  43.834  10.518
18131W        W77392  44.953  38.360  14.019
18132W        W77393  25.035  26.684  10.996
18133W        W77394  10.169  42.489   2.314
18134W        W77395   8.684  35.542  11.545
18135W        W77396  25.025  44.844  14.929
18136W        W77397  38.056   6.404   4.122
18137W        W77398  29.066  11.624   1.398
18138W        W77399   5.870  30.097   4.223
18139W        W77400   4.817  11.766   1.341
18140W        W77401  22.243   0.971  14.359
18141W        W77402  41.788  10.376  12.348
18142W        W77403  20.128   7.222  10.987
18143W        W77404  34.482  41.294  10.413
18144W        W77405  27.566  30.965  11.063
18145W        W77406  42.929   4.216  14.030
18146W        W77407  11.808   6.890   2.864
18147W        W77408  30.443  15.812   4.152
18148W        W77409  14.270  21.664  14.811
18149W        W77410  24.623  40.468  11.920
18150W        W77411  43.988  31.940  11.435
18151W        W77412  31.403  41.451   2.685
18152W        W77413   5.902   2.332   4.837
18153W        W77414  21.585   4.843  12.408
18154W        W77415   4.415   8.871   4.188
18155W        W77416  24.034   6.801   3.783
18156W        W77417  30.010  12.845   1.350
18157W        W77418   1.322  10.331   3.277
18158W        W77419  43.451  34.868   4.334
18159W        W77420  14.130  41.877   4.608
18160W        W77421  27.640   7.263  12.507
18161W        W77422  12.218  16.135  11.085
18162W        W77423  23.078   0.904   4.695
18163W        W77424  35.901  39.514  13.411
18164W        W77425  38.519  34.414  13.494
18165W        W77426  43.996   3.414  11.484
18166W        W77427   2.874  29.966   0.737
18167W        W77428  25.508  41.293   5.215
18168W        W77429  35.604  20.108  11.965
18169W        W77430  31.901  23.191   1.705
18170W        W77431  25.121  27.596  14.933
18171W        W77432  21.144  32.636   2.180
18172W        W77433  31.081  27.123   1.281
18173W        W77434  27.146   7.765  13.460
18174W        W77435  28.656  19.206   1.808
18175W        W77436   0.267  15.316  10.613
18176W        W77437  10.862   1.755   0.889
18177W        W77438  18.636  28.512   1.370
18178W        W77439  43.838  15.152  11.881
18179W        W77440  21.698  12.667   2.276
18180W        W77441  33.098  32.897   1.789
18181W        W77442  21.732  18.559   1.302
18182W        W77443  31.486  24.112   2.766
18183W        W77444  33.073  39.433  14.366
18184W        W77445  24.641  10.747  12.430
18185W        W77446   6.751  18.123  11.465
18186W        W77447  39.378   3.297   4.712
18187W        W77448   0.371   4.308   3.225
18188W        W77449  30.421  36.497  14.779
18189W        W77450  15.115  30.005   1.440
18190W        W77451  26.648  28.074  10.907
18191W        W77452   9.719   5.752   3.158
18192W        W77453  44.321  19.724   4.253
18193W        W77454   4.810  22.536  13.337
18194W        W77455   0.966  34.546  10.625
18195W        W77456  16.723  20.107   4.282
18196W        W77457  40.354  28.132   4.116
18197W        W77458   7.219  20.605   0.942
18198W        W77459  31.950   5.263   1.843
18199W        W77460  17.074  39.470   4.785
18200W        W77461  35.487  24.687   1.315
18201W        W77462  41.302  16.273   3.185
18202W        W77463  30.419   9.813  12.573
18203W        W77464  40.547  27.058   3.154
18204W        W77465  15.207   4.874  11.388
18205W        W77466  37.361   0.377   4.628
18206W        W77467  26.044  22.662   1.822
18207W        W77468  43.331  20.759   0.887
18208W        W77469  24.171  43.918  12.421
18209W        W77470  14.764  25.188  13.019
18210W        W77471  21.562   8.817   3.180
18211W        W77472  25.966   9.762  12.543
18212W        W77473  44.816  41.402   4.620
18213W        W77474  15.687  32.570   1.842
18214W        W77475  42.487  17.225  10.605
18215W        W77476  29.526  40.001   4.692
18216W        W77477   5.889  41.327   1.933
18217W        W77478  42.472  26.169  12.952
18218W        W77479  12.162  32.490  11.509
18219W        W77480   4.402  38.034   3.868
18220W        W77481  12.288  35.075   2.743
18221W        W77482   9.764  33.516   4.131
18222W        W77483  27.503  43.961   1.874
18223W        W77484  31.478  24.173   1.220
18224W        W77485  44.348  35.531   1.765
18225W        W77486  24.069  33.402  10.916
18226W        W77487  19.119  15.229  10.423
18227W        W77488  40.339  27.104   4.682
18228W        W77489  32.528  39.996   1.378
18229W        W77490  21.756  31.408   3.262
18230W        W77491  36.361  28.968  12.562
18231W        W77492  28.486  40.972  14.790
18232W        W77493   9.866   2.249  14.989
18233W        W77494   5.793  26.509   4.785
18234W        W77495   9.262   6.242  12.994
18235W        W77496  29.969   9.273  13.984
18236W        W77497  21.602  35.853   3.318
18237W        W77498   3.798  25.484   4.183
18238W        W77499  34.998  13.775  13.448
18239W        W77500  40.522  42.306  13.062
18240W        W77501  42.777  18.168   1.308
18241W        W77502  28.020  24.094   2.805
18242W        W77503  39.489   7.247   3.751
18243W        W77504   4.414  27.449   4.654
18244W        W77505   4.447  31.103  13.309
18245W        W77506  23.239  26.687  12.003
18246W        W77507  13.651  22.252   0.862
18247W        W77508   0.343  34.039  12.075
18248W        W77509  29.135  23.528   1.394
18249W        W77510  35.598  42.889   1.923
18250W        W77511  41.406  43.925   0.446
18251W        W77512  41.515  23.178   9.555
18252W        W77513  34.892  42.400   2.765
18253W        W77514  27.007  13.252   3.201
18254W        W77515  33.984  36.365  11.469
18255W        W77516   9.176   7.400  10.945
18256W        W77517  19.202  15.697  13.896
18257W        W77518   3.849   7.231  11.980
18258W        W77519  37.461  11.132  11.107
18259W        W77520  40.477  39.940   1.779
18260W        W77521  22.072  22.020   2.267
18261W        W77522   7.761  32.567  14.819
18262W        W77523  42.842  36.367   0.889
18263W        W77524  29.979  17.211   3.774
18264W        W77525  34.457  41.535  13.940
18265W        W77526  31.110  32.944  14.831
18266W        W77527   8.323  31.996  13.917
18267W        W77528  19.175  23.556  11.394
18268W        W77529  25.631  31.146  12.377
18269W        W77530  20.082  12.843   1.443
18270W        W77531  22.731   9.257  11.390
18271W        W77532  26.025  19.055   1.245
18272W        W77533  14.115  11.168   0.839
18273W        W77534  28.512  13.262   3.249
18274W        W77535  14.798   4.833   4.710
18275W        W77536   0.791   5.772  12.388
18276W        W77537  18.271  16.719  11.452
18277W        W77538  21.075  15.300   1.848
18278W        W77539  39.888  28.950   3.809
18279W        W77540  22.541  20.613  14.337
18280W        W77541  10.363  18.195   2.314
18281W        W77542   6.381   3.791  10.465
18282W        W77543  13.614  40.312  11.384
18283W        W77544   7.720  36.492  11.485
18284W        W77545  30.918  37.005  11.505
18285W        W77546  23.194   2.378   1.718
18286W        W77547   8.797  43.451  13.802
18287W        W77548   4.812   4.378   3.249
18288W        W77549  16.133  32.595  14.986
18289W        W77550  42.308  23.165  12.053
18290W        W77551  37.582   4.873   1.914
18291W        W77552   3.873  12.736  12.945
18292W        W77553  31.402  19.284  11.373
18293W        W77554  13.819  15.791  13.533
18294W        W77555  11.656  43.336  12.062
18295W        W77556  41.469   3.405   1.907
18296W        W77557  33.926  11.766   1.844
18297W        W77558   5.893  25.504  13.904
18298W        W77559  28.073  32.418  14.884
18299W        W77560  33.886  28.104   3.325
18300W        W77561  43.478  37.920  12.553
18301W        W77562   2.813  12.335   4.794
18302W        W77563   7.386   4.918  13.848
18303W        W77564  26.194  25.589  11.573
18304W        W77565   9.290  35.454   3.704
18305W        W77566  22.194   6.200  14.870
18306W        W77567   3.327  18.261   4.145
18307W        W77568  13.828  43.781   3.231
18308W        W77569  32.924   6.879   3.867
18309W        W77570   4.895  30.929  11.490
18310W        W77571  21.164  17.202   3.671
18311W        W77572  22.721  20.560  12.962
18312W        W77573  21.034  17.571  14.408
18313W        W77574   1.735  28.966   4.787
18314W        W77575  36.086  41.366  13.803
18315W        W77576  23.577  20.743  13.989
18316W        W77577  43.323   8.774   3.692
18317W        W77578  25.092   4.924  11.054
18318W        W77579   1.392  11.190   4.323
18319W        W77580  32.525  26.998   4.161
18320W        W77581  41.976  32.453   5.651
18321W        W77582  30.158  37.567   2.715
18322W        W77583  27.988  15.643  12.393
18323W        W77584  17.579  38.955  10.533
18324W        W77585  36.941  29.635  11.533
18325W        W77586  44.504   2.315   0.333
18326W        W77587   6.348  22.034  11.502
18327W        W77588   8.205  37.981   1.753
18328W        W77589  10.270  36.028  14.010
18329W        W77590   9.364  33.016   4.701
18330W        W77591  38.962  25.080  12.563
18331W        W77592  14.277  11.343  10.960
18332W        W77593  41.477  32.610   4.631
18333W        W77594  19.236  39.845   4.796
18334W        W77595  25.602  14.251   2.898
18335W        W77596  38.530  21.536  12.867
18336W        W77597  19.129  23.071  13.379
18337W        W77598  39.529   4.825  13.367
18338W        W77599  36.926  17.560  13.373
18339W        W77600  41.854  28.177   9.959
18340W        W77601  11.239   8.666   3.859
18341W        W77602   1.864  25.695  11.439
18342W        W77603  13.191  19.685  12.951
18343W        W77604  29.457   5.693   0.407
18344W        W77605  26.067   0.404  10.510
18345W        W77606  41.786   4.258  10.448
18346W        W77607   5.414  10.147  10.981
18347W        W77608  23.515   9.198   0.935
18348W        W77609  14.286  15.171   1.283
18349W        W77610  42.300  31.542   4.797
18350W        W77611  24.705   0.430  14.299
18351W        W77612  23.547  40.964  14.911
18352W        W77613  28.153  21.652   4.119
18353W        W77614  34.956  38.429   0.823
18354W        W77615  22.088  17.131  10.074
18355W        W77616  25.619  42.869  13.434
18356W        W77617   3.278  25.655  13.868
18357W        W77618   4.251  13.709   0.876
18358W        W77619  26.556   4.321  13.009
18359W        W77620  34.428   0.275   1.234
18360W        W77621  39.324  33.978   4.303
18361W        W77622  28.948  28.121  14.799
18362W        W77623  12.760   8.394  12.046
18363W        W77624   3.274   8.744  11.607
18364W        W77625   2.964   0.327   0.865
18365W        W77626  23.499  29.625   3.348
18366W        W77627  26.003  24.113  14.992
18367W        W77628  27.647  12.750  10.982
18368W        W77629  11.268  35.567  14.420
18369W        W77630  12.681  20.237  12.846
18370W        W77631   0.983   1.851   2.791
18371W        W77632  11.326  43.773  11.441
18372W        W77633  33.503   5.391   4.296
18373W        W77634   4.745   9.679  13.907
18374W        W77635  15.677  25.643  14.896
18375W        W77636   9.760  44.367  10.971
18376W        W77637  17.592  41.525   0.736
18377W        W77638   0.744  40.044  12.426
18378W        W77639   7.210  40.016   1.767
18379W        W77640  24.492   5.357  11.607
18380W        W77641  20.245   5.201   3.376
18381W        W77642  12.261  39.978   0.904
18382W        W77643  26.014  38.541   4.329
18383W        W77644   9.284  31.498   2.302
18384W        W77645  15.696  11.644  14.996
18385W        W77646  32.908  37.917  13.810
18386W        W77647  34.119  23.544  13.401
18387W        W77648   8.724  35.994  12.903
18388W        W77649  40.008  17.166   9.469
18389W        W77650  22.669  26.580   1.806
18390W        W77651  22.019  29.450   4.653
18391W        W77652  22.153  16.713   0.260
18392W        W77653   2.338  40.366  12.456
18393W        W77654  26.634  10.724   4.681
18394W        W77655  25.111  31.927   3.241
18395W        W77656   4.325  29.144  11.975
18396W        W77657  34.075   4.265  10.421
18397W        W77658  18.253  41.479  12.448
18398W        W77659  44.396  38.016  13.335
18399W        W77660  44.282  29.060   1.387
18400W        W77661  43.009  44.943   4.202
18401W        W77662  12.233  28.665   0.407
18402W        W77663  18.274  42.441   1.707
18403W        W77664   6.358  36.997   0.888
18404W        W77665   4.325  23.709  11.962
18405W        W77666   7.784  25.038   1.806
18406W        W77667  31.438  37.409   0.746
18407W        W77668  23.170  37.969  11.918
18408W        W77669  43.827  35.049  11.939
18409W        W77670  38.406  24.041   3.676
18410W        W77671  22.007  30.113   0.734
18411W        W77672   1.482  31.966   2.686
18412W        W77673   9.280   9.358  11.381
18413W        W77674  19.137  23.236   0.357
18414W        W77675  23.510  24.521  13.808
18415W        W77676  14.198   8.366   2.343
18416W        W77677  37.338   3.378   0.254
18417W        W77678  38.918   7.195   0.268
18418W        W77679   2.441  44.316   9.994
18419W        W77680  39.940  36.459   1.251
18420W        W77681   9.816   3.293  11.066
18421W        W77682  37.408  20.196  13.527
18422W        W77683  22.614  23.207   0.967
18423W        W77684  13.279  42.912   4.137
18424W        W77685  13.769  11.746  14.973
18425W        W77686  18.243  39.459   1.358
18426W        W77687  31.457  10.811  13.849
18427W        W77688  39.865  22.727   3.632
18428W        W77689  16.144   7.273   2.227
18429W        W77690  30.625   5.695   1.919
18430W        W77691  10.741  16.188   2.777
18431W        W77692  27.089  27.090  12.404
18432W        W77693  24.578  44.798  13.918
18433W        W77694  32.411   2.345  13.885
18434W        W77695  35.385  10.771  11.388
18435W        W77696  24.722  35.467  13.023
18436W        W77697  23.651   3.377  10.074
18437W        W77698  41.974  15.657   0.801
18438W        W77699  21.710   4.796  14.877
18439W        W77700  44.458   7.723  14.849
18440W        W77701   8.232  24.670   4.786
18441W        W77702  41.817  22.572  13.841
18442W        W77703  43.882  39.347   0.787
18443W        W77704  41.842  10.201  14.843
18444W        W77705  16.229  16.731  12.407
18445W        W77706   1.415  20.742   2.734
18446W        W77707  30.483  40.806   3.386
18447W        W77708   4.760  26.674   5.101
18448W        W77709   2.765  40.464   0.394
18449W        W77710  16.629  44.843   3.349
18450W        W77711  32.578  34.389  14.846
18451W        W77712  10.259  29.640  14.017
18452W        W77713   3.806   8.269   1.239
18453W        W77714  33.431   9.338   1.752
18454W        W77715   3.288   1.483   3.265
18455W        W77716  22.082  16.747  10.020
18456W        W77717   6.922   1.762   3.656
18457W        W77718  14.240   2.862  14.379
18458W        W77719  26.125  19.044  11.612
18459W        W77720   0.954  26.578  11.069
18460W        W77721   7.707   9.288  11.431
18461W        W77722   8.769  32.623  11.932
18462W        W77723   2.459   6.256  11.934
18463W        W77724  35.080   0.490  11.901
18464W        W77725   1.474  44.345   1.919
18465W        W77726  10.278   2.381  13.442
18466W        W77727   3.281  20.245  10.558
18467W        W77728  17.682  42.291  10.419
18468W        W77729  26.570  17.701   3.789
18469W        W77730  21.142  29.504   3.259
18470W        W77731  12.251  21.233   1.352
18471W        W77732  42.442  34.397  14.474
18472W        W77733   3.286   3.729   0.950
18473W        W77734   8.843  34.022  13.493
18474W        W77735  23.506  18.552   9.467
18475W        W77736  26.502  21.632  13.533
18476W        W77737  21.638  21.167   3.303
18477W        W77738  41.019  29.570  13.972
18478W        W77739   4.796  13.838   9.920
18479W        W77740  13.784  19.768  10.912
18480W        W77741  14.653  37.038   2.406
18481W        W77742  14.784  42.888   1.445
18482W        W77743  24.614  18.183  10.942
18483W        W77744  20.188  33.459  12.380
18484W        W77745  11.237  41.004   2.319
18485W        W77746  16.173  15.219  11.501
18486W        W77747   3.269   7.246   0.731
18487W        W77748   0.823  17.730   3.309
18488W        W77749  42.818   2.447  13.439
18489W        W77750   4.944   1.878  11.913
18490W        W77751  15.185  12.846   3.243
18491W        W77752  17.719  28.143  11.383
18492W        W77753  43.399  25.163  11.869
18493W        W77754  42.346  38.417  11.470
18494W        W77755  38.485  26.053  13.850
18495W        W77756  38.061  24.645   3.379
18496W        W77757  44.916  17.694  13.372
18497W        W77758  12.229  12.291   0.298
18498W        W77759  13.245  16.636   0.418
18499W        W77760  20.249   9.709  14.862
18500W        W77761   4.281  10.743   1.866
18501W        W77762  21.136  15.314  12.890
18502W        W77763  42.521   0.266   4.702
18503W        W77764  14.685  27.547   2.724
18504W        W77765  37.858  32.024   0.850
18505W        W77766  24.479  38.433   1.772
18506W        W77767  20.655  25.644   4.750
18507W        W77768   7.774  16.100   0.929
18508W        W77769  28.642   1.838   2.754
18509W        W77770  41.327   5.230  14.438
18510W        W77771   0.311  34.991  14.904
18511W        W77772  44.418  24.123   1.437
18512W        W77773  15.252  19.709  11.121
18513W        W77774   1.741  44.854   3.695
18514W        W77775  24.673   2.320  12.937
18515W        W77776   9.288  36.452  14.358
18516W        W77777  43.892  24.490   1.366
18517W        W77778  15.314  18.610   1.297
18518W        W77779  27.632  13.341   0.260
18519W        W77780  25.140  10.155  13.442
18520W        W77781   6.800  18.054  11.055
18521W        W77782  42.843  24.992  11.004
18522W        W77783  32.423  35.031   0.331
18523W        W77784  17.686   9.875   5.246
18524W        W77785  17.584  31.122  13.369
18525W        W77786  33.589  42.890  14.967
18526W        W77787   8.895  27.692   9.924
18527W        W77788  13.764  20.038  14.926
18528W        W77789  17.095  39.034  14.415
18529W        W77790  13.257  17.205  10.588
18530W        W77791  39.315  16.106  14.507
18531W        W77792   2.295  29.579   3.819
18532W        W77793  21.632  28.169   0.808
18533W        W77794  32.407  43.768  14.787
18534W        W77795  12.293  32.613  14.339
18535W        W77796   0.399  28.584  13.973
18536W        W77797  15.587  22.681  13.942
18537W        W77798  37.360  43.015  10.536
18538W        W77799  39.428  24.668  14.503
18539W        W77800   3.749  33.613  14.804
18540W        W77801   8.876   6.181  10.512
18541W        W77802  30.492  16.808  11.941
18542W        W77803  32.139  26.486   1.444
18543W        W77804   9.650  21.687   2.903
18544W        W77805  11.758  15.609   1.317
18545W        W77806  32.138  39.346   0.804
18546W        W77807  34.564  22.041   4.789
18547W        W77808  27.656  13.336   1.785
18548W        W77809  42.967   6.261   1.445
18549W        W77810  42.397  41.871   2.773
18550W        W77811  38.377   3.253  12.862
18551W        W77812  11.654  30.154   1.712
18552W        W77813  31.910  10.694  13.497
18553W        W77814  41.847  11.257  13.505
18554W        W77815  10.676  18.566   1.214
18555W        W77816   6.789  41.319  10.946
18556W        W77817  32.531  22.033  13.965
18557W        W77818  27.113  25.493   1.702
18558W        W77819  17.297  29.449  14.787
18559W        W77820  25.024  33.951   3.805
18560W        W77821   0.841  42.380   1.374
18561W        W77822  21.757  29.506   0.788
18562W        W77823  25.484  42.838  12.497
18563W        W77824  16.585  13.759   1.282
18564W        W77825  40.959  29.430   4.643
18565W        W77826  17.783  34.552   2.696
18566W        W77827  29.447  22.574   4.719
18567W        W77828  24.189   7.380   2.239
18568W        W77829  21.081  14.824   4.123
18569W        W77830  37.025  12.722  12.357
18570W        W77831  15.705  40.428   4.623
18571W        W77832  31.982  29.531   1.802
18572W        W77833  43.420   4.302   4.167
18573W        W77834   7.782  15.155  14.010
18574W        W77835  25.653   4.230   0.882
18575W        W77836  44.497   4.335  10.609
18576W        W77837  35.876  17.230  13.025
18577W        W77838  44.812  26.557   1.324
18578W        W77839  30.499  34.863   0.959
18579W        W77840  29.997   3.917  14.470
18580W        W77841  42.895  24.496  10.070
18581W        W77842  31.131  24.102   9.964
18582W        W77843  36.376  18.661   9.965
18583W        W77844   4.817   8.196  10.113
18584W        W77845  36.516  37.864  14.815
18585W        W77846  17.664  27.546   2.898
18586W        W77847  36.938   2.377   0.887
18587W        W77848  12.145  17.296  11.540
18588W        W77849   1.482   2.872  10.617
18589W        W77850  35.548  17.612   1.264
18590W        W77851   6.252  26.578  13.873
18591W        W77852  22.123   3.287  12.900
18592W        W77853  34.090   9.744  11.872
18593W        W77854  37.367  20.590   4.824
18594W        W77855  12.280  25.066   1.377
18595W        W77856  29.071  33.496   4.737
18596W        W77857   8.275  28.517   4.785
18597W        W77858  40.986  44.316   1.742
18598W        W77859  26.703  41.875  14.024
18599W        W77860  35.536   5.221   1.758
18600W        W77861  24.173  30.476  11.598
18601W        W77862  35.503   2.940  13.494
18602W        W77863   1.453  13.632   1.410
18603W        W77864  24.546  15.241  13.039
18604W        W77865   5.342  11.290   2.794
18605W        W77866  30.562  32.139   1.798
18606W        W77867  19.654  13.738   1.393
18607W        W77868  14.674  10.146   1.897
18608W        W77869  22.502   8.732  14.477
18609W        W77870   7.749  22.663  11.857
18610W        W77871  41.305  40.041  12.071
18611W        W77872  18.635  25.052   5.181
18612W        W77873   9.337  19.116   0.857
18613W        W77874  28.990  33.405   3.314
18614W        W77875  19.173  13.244  11.432
18615W        W77876   5.870  30.583  12.517
18616W        W77877  36.510   3.817  12.353
18617W        W77878   5.752  22.072   4.146
18618W        W77879  28.953  34.552   0.320
18619W        W77880  27.445  31.067  12.835
18620W        W77881   2.329  28.015  12.439
18621W        W77882  37.841   1.440  13.846
18622W        W77883  37.535   9.840  14.917
18623W        W77884  19.650  22.648  13.913
18624W        W77885   0.858  39.992  12.038
18625W        W77886  32.512  25.604   2.222
18626W        W77887  20.523  40.410  12.435
18627W        W77888  37.482  16.214  12.923
18628W        W77889   8.863  42.356   4.597
18629W        W77890  42.834  33.617  12.919
18630W        W77891  37.410   9.285  13.912
18631W        W77892  41.517   5.306  13.908
18632W        W77893  33.413  37.920   4.281
18633W        W77894  13.660  34.552   1.383
18634W        W77895  33.948  43.811  11.611
18635W        W77896   9.779  19.281   2.266
18636W        W77897  27.050  35.052  12.430
18637W        W77898  27.162  20.676  12.973
18638W        W77899  20.181  10.640  11.423
18639W        W77900  38.419  10.163   3.632
18640W        W77901  19.275  16.268  11.012
18641W        W77902   1.970  42.884   1.444
18642W        W77903   0.316  33.592  11.540
18643W        W77904  43.322  40.540  13.007
18644W        W77905  23.683  38.422  12.511
18645W        W77906  12.612  15.190   0.817
18646W        W77907  18.052   8.868   2.256
18647W        W77908  16.811  40.337  11.584
18648W        W77909   0.852  27.527  10.022
18649W        W77910   1.792  12.265   0.409
18650W        W77911  38.007  41.424   2.672
18651W        W77912  14.672  31.436  12.536
18652W        W77913  36.531   1.315  14.813
18653W        W77914  13.337  12.618   2.386
18654W        W77915   0.808  19.183   2.836
18655W        W77916  16.756  20.197  14.775
18656W        W77917  19.676  12.217  14.860
18657W        W77918  42.015  11.771  10.161
18658W        W77919   9.759  25.521   0.967
18659W        W77920  32.980  20.523  13.538
18660W        W77921  20.528  35.601  13.909
18661W        W77922  16.159  38.412  14.837
18662W        W77923  13.709  31.546  11.561
18663W        W77924  18.117  30.907  12.046
18664W        W77925  11.347  30.039  11.582
18665W        W77926   4.446  34.916   0.749
18666W        W77927  28.074   7.849  10.037
18667W        W77928  33.577  36.531   1.317
18668W        W77929  18.065  17.147   0.841
18669W        W77930  21.697  25.964   2.743
18670W        W77931  33.576  11.138   4.173
18671W        W77932  29.089  14.603   3.200
18672W        W77933   7.363   3.900  14.275
18673W        W77934  11.809  21.582  10.981
18674W        W77935  34.383  31.497   3.199
18675W        W77936  16.253  42.858   4.257
18676W        W77937  25.128  28.678   3.202
18677W        W77938   0.309  29.043  13.469
18678W        W77939   9.824  10.767   3.345
18679W        W77940   3.902  35.373  13.054
18680W        W77941   7.205   7.391   9.491
18681W        W77942  20.627  36.868   4.235
18682W        W77943  27.980  11.307  12.350
18683W        W77944  35.001  29.535   2.834
18684W        W77945   1.917  16.207  10.449
18685W        W77946   5.343  27.070  10.938
18686W        W77947  40.954   6.348   0.442
18687W        W77948   1.852  41.343  10.451
18688W        W77949  11.689  14.239   4.646
18689W        W77950   0.279  22.196   4.143
18690W        W77951  32.496  12.243   1.326
18691W        W77952  21.120  22.244   1.270
18692W        W77953  28.581  35.008   0.410
18693W        W77954  41.444  20.202   2.824
18694W        W77955  24.510  21.027   1.744
18695W        W77956  25.111  36.352  14.994
18696W        W77957  34.571  32.438   1.296
18697W        W77958  25.670  13.754   0.755
18698W        W77959   7.730  43.415   1.928
18699W        W77960  36.458  30.058  10.944
18700W        W77961   4.712  18.165   3.204
18701W        W77962  32.015  25.490   0.946
18702W        W77963  26.015  11.129  14.316
18703W        W77964  41.811  14.669  11.965
18704W        W77965  25.137   3.452  10.572
18705W        W77966   7.283   4.941   0.830
18706W        W77967  29.932  36.886  11.523
18707W        W77968   2.817  12.611   3.255
18708W        W77969   7.706  11.149  10.082
18709W        W77970   8.856  41.477  12.342
18710W        W77971   1.807  39.886  14.504
18711W        W77972  40.797  23.538   9.474
18712W        W77973  40.835   6.342  14.324
18713W        W77974  40.943  37.955   1.835
18714W        W77975  20.273   9.853   2.336
18715W        W77976   7.841  24.078   1.703
18716W        W77977  24.643  10.304  10.917
18717W        W77978   6.331  23.040  13.395
18718W        W77979   0.257  39.863   1.900
18719W        W77980   4.432   3.924   2.408
18720W        W77981  24.218   0.479  10.956
18721W        W77982  20.085  11.221  12.958
18722W        W77983  32.915   4.908  11.477
18723W        W77984  17.781   9.795  13.935
18724W        W77985   0.846  42.923   1.848
18725W        W77986  10.711  18.215  12.886
18726W        W77987  16.270  22.726   3.283
18727W        W77988   0.875  30.576  12.851
18728W        W77989  27.983  27.467  13.531
18729W        W77990  31.458  37.470   4.164
18730W        W77991  11.676   9.814  11.070
18731W        W77992  19.715  10.676  14.279
18732W        W77993   1.843   4.358   4.655
18733W        W77994  20.749  25.185   4.349
18734W        W77995  12.151  36.919  10.409
18735W        W77996  32.591  38.946   0.468
18736W        W77997  26.107   3.793  14.015
18737W        W77998  19.723  34.610  13.965
18738W        W77999  42.914  31.986  13.949
18739W        W78000  27.480   5.813  10.067
18740W        W78001   8.298   6.914  13.795
18741W        W78002  30.643  14.300   2.189
18742W        W78003  25.048  40.871  11.020
18743W        W78004   0.904  24.624  14.960
18744W        W78005  21.553  37.042  14.490
18745W        W78006   4.729  37.451  11.011
18746W        W78007   4.357   1.255  13.435
18747W        W78008  39.948  26.633  12.468
18748W        W78009   0.402  12.191   3.843
18749W        W78010  20.106  19.592   2.400
18750W        W78011  33.949  18.087   1.407
18751W        W78012  30.430  31.950  11.461
18752W        W78013  31.017   2.252  13.051
18753W        W78014  26.054  35.462   3.836
18754W        W78015  14.675  28.642   1.394
18755W        W78016   9.212  27.673  11.920
18756W        W78017  15.187  15.292   1.791
18757W        W78018  28.020  28.652  12.938
18758W        W78019  39.037  42.006  13.413
18759W        W78020  32.006  31.548   1.708
18760W        W78021  42.999  34.434  11.067
18761W        W78022  30.110  44.799   2.754
18762W        W78023   2.839  10.802  11.008
18763W        W78024  39.882  33.993   3.694
18764W        W78025   8.288  29.621  13.423
18765W        W78026  38.500  12.125  11.376
18766W        W78027  16.783  23.580  11.084
18767W        W78028  42.440  44.287  12.953
18768W        W78029  25.214  14.743  13.032
18769W        W78030  42.912  11.815   2.375
18770W        W78031   6.681  42.810  11.502
18771W        W78032   6.275  35.888  13.463
18772W        W78033   4.343  43.286   3.748
18773W        W78034  43.953  44.801   2.392
18774W        W78035  21.049  42.505   0.883
18775W        W78036  25.689  24.979  14.827
18776W        W78037  20.697  42.792  12.508
18777W        W78038   7.259  39.957  10.625
18778W        W78039  32.584   9.172  13.350
18779W        W78040  24.074  17.092   3.658
18780W        W78041  12.691  31.485   4.812
18781W        W78042  28.642  14.180  12.982
18782W        W78043  39.901  15.700  12.503
18783W        W78044  26.587  24.632  12.982
18784W        W78045   6.232  31.035   3.375
18785W        W78046   8.894  12.342   2.794
18786W        W78047  16.089  31.977  10.636
18787W        W78048  23.699  31.536  14.310
18788W        W78049  36.050  20.613  11.948
18789W        W78050  14.798  20.050  12.081
18790W        W78051  12.168   7.385  13.801
18791W        W78052  42.981  41.040  13.794
18792W        W78053   0.917   8.661   5.266
18793W        W78054  30.137  13.145   2.322
18794W        W78055  18.764  23.618  10.040
18795W        W78056   6.296  40.030  11.562
18796W        W78057  17.727  35.862   4.201
18797W        W78058  43.270  21.122   3.309
18798W        W78059  30.034  40.400  12.943
18799W        W78060  41.496  26.647   4.776
18800W        W78061  42.916  39.317  11.451
18801W        W78062  36.906  25.534   1.846
18802W        W78063   1.284  22.165  10.511
18803W        W78064  26.695  27.553   3.835
18804W        W78065  36.013  41.536   0.291
18805W        W78066  38.046  42.001  14.458
18806W        W78067  24.499  16.586  11.895
18807W        W78068   7.704  41.916   3.307
18808W        W78069  17.587  21.523  12.488
18809W        W78070  41.896  12.778   0.437
18810W        W78071   5.912  15.227   4.256
18811W        W78072  32.396  25.468  14.011
18812W        W78073  16.599  22.595  13.511
18813W        W78074  36.985  24.596  11.893
18814W        W78075  38.368  40.904   0.405
18815W        W78076   7.274   9.843   2.808
18816W        W78077  32.954  22.513   4.652
18817W        W78078  14.654  12.726  10.511
18818W        W78079  25.059  19.554  13.791
18819W        W78080  25.642   9.306   0.373
18820W        W78081  16.185  38.040  11.496
18821W        W78082  25.162  44.347  12.458
18822W        W78083  27.632  11.155  12.026
18823W        W78084  12.642  32.122   4.755
18824W        W78085  25.683   9.216  14.870
18825W        W78086   3.291   4.295   4.283
18826W        W78087  25.569   0.772   1.237
18827W        W78088  37.339  22.025   9.972
18828W        W78089  30.599  26.486   3.853
18829W        W78090   2.880  21.612  10.475
18830W        W78091  19.150  19.089  13.017
18831W        W78092  12.271  16.299   3.371
18832W        W78093  29.922   4.217   2.681
18833W        W78094   9.351  21.653  12.983
18834W        W78095   6.301  23.044   3.284
18835W        W78096  39.823  36.518  12.498
18836W        W78097  39.535  38.522  13.991
18837W        W78098  35.433  24.075   3.781
18838W        W78099  27.655  27.080   0.790
18839W        W78100  33.878  38.869  11.986
18840W        W78101  38.387  30.647  10.537
18841W        W78102  35.366   0.264   2.672
18842W        W78103  29.506  39.044   0.435
18843W        W78104  33.957  13.344   1.881
18844W        W78105   8.392  28.452  13.477
18845W        W78106  13.331  38.046  10.427
18846W        W78107  44.293  34.412  11.944
18847W        W78108   1.898  26.487   0.964
18848W        W78109  36.940  26.047   4.648
18849W        W78110  27.659  17.584   2.354
18850W        W78111  25.205  16.164   3.811
18851W        W78112  32.057   0.389  12.891
18852W        W78113  42.938  29.627   3.806
18853W        W78114  23.013   5.886   1.386
18854W        W78115  21.517  23.686   2.698
18855W        W78116  30.526   7.225   1.746
18856W        W78117   5.419  35.879  14.881
18857W        W78118  43.819  38.006  12.497
18858W        W78119  28.071  17.153   4.183
18859W        W78120   6.695  15.583  14.013
18860W        W78121  38.830   7.728   4.176
18861W        W78122   9.267  37.490  10.630
18862W        W78123   5.851  41.013   2.359
18863W        W78124  36.945  32.487  14.996
18864W        W78125  22.167  25.061  12.962
18865W        W78126  29.039  10.367  14.487
18866W        W78127  18.701   6.877  10.157
18867W        W78128  32.573  24.043   2.330
18868W        W78129  30.023  19.225   2.799
18869W        W78130   7.728  31.543  12.390
18870W        W78131  21.094  37.034  12.957
18871W        W78132  15.254  36.452   0.460
18872W        W78133  32.446  12.837  10.573
18873W        W78134  12.209  35.414  14.951
18874W        W78135   0.437  25.177  12.845
18875W        W78136  13.108  34.899   5.314
18876W        W78137  14.095  18.271   3.316
18877W        W78138   2.794   6.689  14.338
18878W        W78139  40.350  11.292   4.609
18879W        W78140  37.074  20.031   1.417
18880W        W78141  18.552  33.621  13.801
18881W        W78142   0.792  24.002  14.428
18882W        W78143   3.450  40.882  10.495
18883W        W78144  12.816  44.403   0.824
18884W        W78145  13.304   3.234   3.213
18885W        W78146  32.511  10.634  13.980
18886W        W78147  31.899   6.403  12.428
18887W        W78148  29.514  23.521  12.491
18888W        W78149  35.090  28.995   3.240
18889W        W78150  10.319  28.606  10.899
18890W        W78151  20.269   1.769  11.985
18891W        W78152  18.678  33.511  11.068
18892W        W78153  24.497  23.703   0.841
18893W        W78154  19.556  36.421   0.381
18894W        W78155   1.791  18.058   1.282
18895W        W78156   4.237  25.121  11.484
18896W        W78157  40.839  23.191  10.043
18897W        W78158  39.466  32.050   2.394
18898W        W78159  38.960   1.471  11.492
18899W        W78160  27.082  27.634   1.384
18900W        W78161   9.889   9.885  14.942
18901W        W78162  42.373  37.959   1.391
18902W        W78163  13.819  41.306   4.810
18903W        W78164  12.129  24.708   1.259
18904W        W78165  17.093  26.653   4.292
18905W        W78166  19.097   6.719  12.362
18906W        W78167  19.164  44.305  13.014
18907W        W78168  29.467   4.395   4.130
18908W        W78169  44.761  30.426   1.758
18909W        W78170  13.691   2.317  13.403
18910W        W78171   6.320  14.653   2.848
18911W        W78172   4.207   9.650   2.192
18912W        W78173  25.585  36.401   4.723
18913W        W78174  16.273  31.564   4.183
18914W        W78175  18.736  22.618  12.070
18915W        W78176   3.400  21.702   0.799
18916W        W78177  30.459  18.159   3.810
18917W        W78178  44.779  44.451   1.248
18918W        W78179  18.216  17.712   1.741
18919W        W78180  43.426   7.802   1.417
18920W        W78181  13.153  31.914  14.017
18921W        W78182   0.867  14.170  11.392
18922W        W78183  20.050   4.797   0.757
18923W        W78184   6.413  29.463  13.539
18924W        W78185  25.979  42.004   4.295
18925W        W78186  18.284  31.113  10.526
18926W        W78187  26.016  16.740   4.725
18927W        W78188   6.913   0.947   1.391
18928W        W78189  34.904  16.680  11.494
18929W        W78190  44.920   5.915  10.991
18930W        W78191  14.757   5.714  13.499
18931W        W78192   5.923  18.660  11.553
18932W        W78193   5.352  39.424  13.050
18933W        W78194   9.321   2.881   2.792
18934W        W78195  30.426  23.062  11.589
18935W        W78196   9.785  25.140   1.762
18936W        W78197  23.539  35.375   4.148
18937W        W78198  15.740   9.323   0.881
18938W        W78199  35.083  40.421  13.043
18939W        W78200   0.291  29.552  14.509
18940W        W78201  22.612   0.757  12.071
18941W        W78202  33.568   5.808   5.317
18942W        W78203  19.221  32.078  13.439
18943W        W78204  34.057  41.893  13.862
18944W        W78205  28.122   0.436  10.517
18945W        W78206  11.687   5.868  10.017
18946W        W78207  32.409   4.699  11.405
18947W        W78208  34.088  27.512  12.420
18948W        W78209  38.351  22.017  12.424
18949W        W78210  22.214  13.237  12.472
18950W        W78211  22.011  12.784   4.148
18951W        W78212   5.200  44.398  11.001
18952W        W78213  12.822  24.174   2.890
18953W        W78214  30.124   1.347   5.656
18954W        W78215  40.303   9.870  13.009
18955W        W78216  25.705   7.335   2.758
18956W        W78217  28.169  40.983   0.831
18957W        W78218  32.026  33.581  11.021
18958W        W78219   7.278  11.663  13.025
18959W        W78220  40.359  23.633  11.039
18960W        W78221  33.451  17.304  11.444
18961W        W78222   5.299  33.946   1.864
18962W        W78223  11.283  25.499   4.337
18963W        W78224  26.511  13.325  10.405
18964W        W78225  14.316  30.446  14.328
18965W        W78226  39.894   0.440   1.721
18966W        W78227  40.506  27.087  10.574
18967W        W78228  12.268  21.229   3.812
18968W        W78229  16.785  21.078  13.978
18969W        W78230  35.589   4.358  13.430
18970W        W78231   7.223  26.138   3.848
18971W        W78232   3.422  41.424   2.276
18972W        W78233  11.768  40.954   2.235
18973W        W78234  15.580  19.238   0.335
18974W        W78235  40.322  12.771   0.381
18975W        W78236  36.852  23.205  14.886
18976W        W78237  15.761  25.553   1.284
18977W        W78238  25.679  38.452  12.969
18978W        W78239  37.522   9.720   4.786
18979W        W78240  22.538  30.954   2.686
18980W        W78241  42.436  20.239   4.175
18981W        W78242   4.794  15.637  13.406
18982W        W78243   1.977   8.303  12.425
18983W        W78244  28.545   5.327   4.177
18984W        W78245  16.127  26.639   0.315
18985W        W78246  24.666  31.605   3.195
18986W        W78247   1.946  42.776   4.182
18987W        W78248   3.732  28.587  14.985
18988W        W78249  24.671  40.026  14.508
18989W        W78250  23.708  43.371  13.934
18990W        W78251   0.435  17.199  10.466
18991W        W78252  44.996   4.382   2.181
18992W        W78253  23.226   0.814   3.632
18993W        W78254  13.687  44.821   2.276
18994W        W78255  28.669  38.332  13.340
18995W        W78256  38.485   7.264   4.115
18996W        W78257  30.531  24.071   2.752
18997W        W78258  23.573  23.620   3.658
18998W        W78259  26.628  29.946   3.727
18999W        W78260  35.387  17.785   0.327
19000W        W78261  24.529  42.919   0.832
19001W        W78262  27.942  19.647  11.050
19002W        W78263  36.477  19.185   1.751
19003W        W78264  17.729  32.464   1.408
19004W        W78265   6.798  17.740  12.548
19005W        W78266  38.965   3.868   4.786
19006W        W78267  22.238  11.247   2.727
19007W        W78268  10.671  24.639   1.772
19008W        W78269  10.320  38.478  11.902
19009W        W78270  26.549  28.958  10.552
19010W        W78271  42.504  31.582  13.544
19011W        W78272  35.872  29.173  12.515
19012W        W78273  44.849   0.349  10.935
19013W        W78274  23.135   5.373  13.936
19014W        W78275  15.637   3.373   4.601
19015W        W78276  21.583   8.771   4.789
19016W        W78277  22.568  43.916   2.336
19017W        W78278   3.290   5.348   4.661
19018W        W78279  14.210   3.955   1.246
19019W        W78280  23.090   8.849   3.668
19020W        W78281  28.960  13.705  14.800
19021W        W78282  31.530  42.372   2.332
19022W        W78283  33.909  13.327  10.131
19023W        W78284   3.775  33.457   4.122
19024W        W78285  39.055  18.056  10.484
19025W        W78286  11.283  37.374  14.418
19026W        W78287  26.198  28.493   4.297
19027W        W78288  23.201  15.209   4.309
19028W        W78289  40.053  32.574  10.521
19029W        W78290  12.228  38.038  14.379
19030W        W78291  13.234  27.941   3.837
19031W        W78292  33.067  28.631   0.428
19032W        W78293   9.264  44.446  13.852
19033W        W78294  42.281  44.771   0.793
19034W        W78295  12.355  13.219  14.867
19035W        W78296  27.169   2.737   1.886
19036W        W78297  21.549  15.674   0.962
19037W        W78298  31.018  29.004   2.760
19038W        W78299   6.364  33.458  11.442
19039W        W78300   2.272  21.258  10.941
19040W        W78301  36.868   1.886  13.329
19041W        W78302  15.187  32.453   0.844
19042W        W78303  18.124  41.339   3.784
19043W        W78304   8.864  31.531   2.319
19044W        W78305  29.503  42.990  14.491
19045W        W78306  14.772  17.093   1.395
19046W        W78307  23.044  42.805  14.419
19047W        W78308  27.992  25.989   0.732
19048W        W78309  17.774  14.151  11.894
19049W        W78310  18.062  41.391  11.127
19050W        W78311  32.968  23.503  14.335
19051W        W78312  28.100   4.285   5.136
19052W        W78313  30.467  40.406   4.666
19053W        W78314  38.004  17.300  12.506
19054W        W78315  21.516  44.355   1.222
19055W        W78316   3.848   6.911  12.367
19056W        W78317  34.588  12.117  10.935
19057W        W78318  17.670  20.677   4.755
19058W        W78319  11.370   1.836   4.221
19059W        W78320  44.394  39.952   1.419
19060W        W78321  43.444  28.508   2.752
19061W        W78322  21.022  17.111  11.507
19062W        W78323  33.071  19.754  10.514
19063W        W78324  18.256  20.237  12.534
19064W        W78325  14.273   4.303  14.321
19065W        W78326  41.517  38.562   2.746
19066W        W78327   2.767  42.410   4.218
19067W        W78328   0.386  25.686   3.248
19068W        W78329  13.294  40.024  12.942
19069W        W78330  36.941   6.873   2.851
19070W        W78331   2.852  30.647   4.152
19071W        W78332  39.825  35.481   0.408
19072W        W78333  18.726  34.005  12.945
19073W        W78334   2.383  42.447  13.935
19074W        W78335   2.364  32.542   0.827
19075W        W78336  40.897   0.782  14.896
19076W        W78337  24.024  10.697  14.011
19077W        W78338   3.378  31.521  11.877
19078W        W78339  43.858  31.993   3.775
19079W        W78340  26.108  19.041   2.814
19080W        W78341  41.008  15.273  12.833
19081W        W78342  42.913  43.831  13.873
19082W        W78343  10.281  15.684   2.253
19083W        W78344  32.537  42.376   3.648
19084W        W78345   2.891  14.692  14.360
19085W        W78346  16.728  37.360  12.348
19086W        W78347  27.510  26.607   3.255
19087W        W78348  40.940  37.554  14.338
19088W        W78349  37.518   1.942  11.457
19089W        W78350   5.812   8.741  14.448
19090W        W78351  40.411   9.679   4.747
19091W        W78352  33.024  14.767   0.393
19092W        W78353  14.700   0.914   0.897
19093W        W78354  21.159   0.843  14.443
19094W        W78355   4.318  38.560   0.816
19095W        W78356  35.432  26.951   0.771
19096W        W78357  35.078   6.911  12.897
19097W        W78358  44.417  13.300   0.895
19098W        W78359  19.070  38.352  13.546
19099W        W78360  29.172  44.947   1.323
19100W        W78361  19.114  33.126   0.800
19101W        W78362   5.342  28.522   1.294
19102W        W78363  30.059  42.966   1.911
19103W        W78364  31.032  32.097  11.457
19104W        W78365  25.674  41.475  14.427
19105W        W78366  23.672   9.268   0.333
19106W        W78367  13.174  41.841   0.743
19107W        W78368  42.413  30.090  12.491
19108W        W78369  36.580  39.030   1.876
19109W        W78370  16.121  10.853  14.972
19110W        W78371   7.774  34.097  14.328
19111W        W78372   7.735  15.693  11.388
19112W        W78373  16.291  29.159   5.127
19113W        W78374  31.429  36.027   2.206
19114W        W78375  30.636  27.491  13.900
19115W        W78376  26.015  44.809  12.086
19116W        W78377  38.942  16.583  13.060
19117W        W78378  13.786   6.280  11.856
19118W        W78379  20.705  25.519   0.962
19119W        W78380  44.950  13.738  11.983
19120W        W78381  24.532  18.609   2.891
19121W        W78382   3.368  24.651  11.430
19122W        W78383   1.779  20.141  12.043
19123W        W78384  26.006  14.733   4.209
19124W        W78385  31.914  17.781  11.074
19125W        W78386   3.771   1.289  11.976
19126W        W78387  33.908   5.714   1.812
19127W        W78388  27.562  13.282  13.465
19128W        W78389  24.127  22.048  14.923
19129W        W78390   9.781  41.478   2.309
19130W        W78391  16.584  16.125  11.074
19131W        W78392  13.209  35.944   0.277
19132W        W78393  36.922   2.300  10.479
19133W        W78394  31.984   7.234   3.721
19134W        W78395   2.316  27.689  12.011
19135W        W78396  19.747  18.210  11.022
19136W        W78397  24.620  30.027  10.577
19137W        W78398   6.422  38.954  10.893
19138W        W78399  35.394   4.934  14.885
19139W        W78400  16.221  37.861   2.759
19140W        W78401  19.137   5.361   4.238
19141W        W78402  10.274   2.345  11.491
19142W        W78403  43.275   5.233   3.291
19143W        W78404  40.019  41.371  13.548
19144W        W78405   6.393  25.586  10.085
19145W        W78406  16.171  10.172   4.814
19146W        W78407  13.108  38.840   4.835
19147W        W78408  40.394  37.862   0.385
19148W        W78409  38.859   1.305  13.383
19149W        W78410  11.823   3.850  12.010
19150W        W78411   0.758  28.624  14.987
19151W        W78412  10.856   7.868   1.814
19152W        W78413   3.390  34.869   3.719
19153W        W78414  43.464  35.029  13.990
19154W        W78415   4.810   6.918  11.474
19155W        W78416  15.726   3.375  13.010
19156W        W78417  39.844   2.322  11.110
19157W        W78418  30.027   9.209  14.390
19158W        W78419  30.463  26.652   2.884
19159W        W78420  44.284  29.527   2.776
19160W        W78421   8.777  11.635  10.999
19161W        W78422  34.562  13.214   4.830
19162W        W78423  11.793  38.555  14.927
19163W        W78424  18.691  41.845  14.348
19164W        W78425  40.994  14.333   5.083
19165W        W78426  29.020  29.063   0.761
19166W        W78427  27.513  25.170  14.996
19167W        W78428  37.563   3.940  12.891
19168W        W78429   2.949  34.564  10.552
19169W        W78430  11.166  35.907  11.940
19170W        W78431  37.483  36.010   9.945
19171W        W78432  22.679  14.824  14.383
19172W        W78433  22.624  12.750  12.953
19173W        W78434  11.209  10.783   2.820
19174W        W78435  25.970   8.695  13.795
19175W        W78436  21.575  25.977  12.395
19176W        W78437  25.192  23.070   3.863
19177W        W78438  27.055  26.183   1.213
19178W        W78439  25.569  22.584   3.848
19179W        W78440  38.461  16.609   5.764
19180W        W78441  40.924   4.819   2.271
19181W        W78442  41.040  26.488  14.776
19182W        W78443  40.350   3.907  14.404
19183W        W78444  22.084  25.146   4.827
19184W        W78445  40.436   2.882  11.020
19185W        W78446  37.073  44.306  13.915
19186W        W78447  36.375  18.136   4.341
19187W        W78448  16.306  18.131  11.103
19188W        W78449  27.139   3.759  10.610
19189W        W78450  25.546  36.962   0.433
19190W        W78451   1.315  44.939   4.144
19191W        W78452  28.943  34.888   4.242
19192W        W78453  16.162  27.015   3.820
19193W        W78454  38.024  41.857   2.412
19194W        W78455   5.761   0.367  12.906
19195W        W78456  25.631  16.597  11.387
19196W        W78457  23.217  34.600  10.506
19197W        W78458  21.173  14.631   0.285
19198W        W78459  25.125   3.910   4.812
19199W        W78460   7.705  16.247  14.449
19200W        W78461  10.284  40.508   4.710
19201W        W78462   4.346  10.156  14.831
19202W        W78463  32.916   3.812   2.747
19203W        W78464  38.494   8.313   2.819
19204W        W78465  19.557   2.228   2.667
19205W        W78466  32.066   5.326  14.494
19206W        W78467  21.522  29.430   0.275
19207W        W78468  36.063   0.889  13.387
19208W        W78469  44.339  42.898  10.910
19209W        W78470  32.465  16.806   0.876
19210W        W78471  37.415  33.426   0.285
19211W        W78472  15.213  30.056   3.796
19212W        W78473  32.477  32.466  13.487
19213W        W78474   7.750  13.185   4.838
19214W        W78475  19.242   3.758   2.318
19215W        W78476  29.424  31.620   3.814
19216W        W78477   3.455  36.555  14.506
19217W        W78478   4.440  26.196  12.474
19218W        W78479  34.064   2.284  12.005
19219W        W78480  42.846  43.799   1.927
19220W        W78481   0.300  23.044  14.857
19221W        W78482  37.467  17.787  11.968
19222W        W78483  25.657   2.957   2.347
19223W        W78484  39.330  31.633  10.994
19224W        W78485  27.663  19.603   2.760
19225W        W78486  15.297  10.653   1.340
19226W        W78487   4.823   8.301  13.882
19227W        W78488  13.237  28.005  10.484
19228W        W78489  22.059  27.589   3.728
19229W        W78490   6.856  34.938  13.844
19230W        W78491  20.072  34.604   1.864
19231W        W78492  40.359  10.257  11.906
19232W        W78493   2.349  42.846   1.299
19233W        W78494  34.443  32.615   3.354
19234W        W78495   3.847   4.303  11.077
19235W        W78496  35.472  31.479  12.534
19236W        W78497  41.477  16.795  14.984
19237W        W78498  43.001  35.929  13.454
19238W        W78499  22.175  36.875  11.039
19239W        W78500  32.989  18.252   0.745
19240W        W78501  34.382  37.340   2.668
19241W        W78502  20.264  37.841  12.059
19242W        W78503  20.272  19.717   4.352
19243W        W78504   7.889  37.385  10.113
19244W        W78505  13.833   4.322  13.865
19245W        W78506   4.377  26.964  13.527
19246W        W78507  30.060  31.614   3.297
19247W        W78508  25.129  12.123   2.773
19248W        W78509  38.328  25.479  13.387
19249W        W78510  13.836  36.545   0.959
19250W        W78511  40.346  26.606   4.229
19251W        W78512   0.853   1.387   4.780
19252W        W78513  30.522  40.824   0.837
19253W        W78514  39.377   6.687  11.982
19254W        W78515  40.912  17.698  14.012
19255W        W78516  22.730  41.788  14.420
19256W        W78517   7.765  43.273  14.435
19257W        W78518  35.384  38.521   1.337
19258W        W78519  37.856  21.090  12.441
19259W        W78520  31.144  36.087  13.031
19260W        W78521  40.506   6.362   1.860
19261W        W78522   6.840  43.307   3.691
19262W        W78523   7.823   3.247  10.551
19263W        W78524   8.671  23.093   2.884
19264W        W78525  21.605  39.834   4.241
19265W        W78526  36.009  22.563  14.845
19266W        W78527   7.905   2.308   1.409
19267W        W78528  12.848  29.157   4.723
19268W        W78529  28.931  29.985   4.216
19269W        W78530  26.196  13.764  12.880
19270W        W78531  40.921  29.515  14.406
19271W        W78532  37.487  34.099   0.288
19272W        W78533  37.893  11.356  13.473
19273W        W78534  35.083  27.652  14.376
19274W        W78535   6.825  27.588  11.886
19275W        W78536  10.692   5.856   0.273
19276W        W78537  22.672  11.623   4.829
19277W        W78538  28.047  42.461  10.515
19278W        W78539   6.400  33.448   9.928
19279W        W78540  30.965  31.511   1.916
19280W        W78541  12.749   9.725   2.214
19281W        W78542   0.834  43.858   2.400
19282W        W78543  27.551  24.029  10.514
19283W        W78544  26.558  13.842   1.763
19284W        W78545  13.186  11.754  10.142
19285W        W78546  27.678   0.763   2.807
19286W        W78547  22.663  43.990   1.298
19287W        W78548  14.752  44.292  10.100
19288W        W78549  43.818  17.718   3.234
19289W        W78550  17.789  13.667  14.460
19290W        W78551  43.402   7.269   4.221
19291W        W78552  32.564  43.894  10.544
19292W        W78553  34.383  25.203  10.454
19293W        W78554  33.474  15.216  13.057
19294W        W78555  13.824  22.640  11.489
19295W        W78556  33.567  24.075   1.348
19296W        W78557  13.346  34.946  10.571
19297W        W78558  30.130  10.312   3.307
19298W        W78559  10.830   8.306   4.737
19299W        W78560   5.380  36.549   1.876
19300W        W78561   7.821  34.372   2.898
19301W        W78562  40.452  28.650   9.990
19302W        W78563  28.462  33.881   1.820
19303W        W78564   6.698  35.499  12.073
19304W        W78565  35.948  23.620  14.817
19305W        W78566  13.745  29.059  12.408
19306W        W78567  44.759  40.840  11.419
19307W        W78568  38.836  37.493   3.868
19308W        W78569  34.982  12.269  12.900
19309W        W78570  25.604  32.415   4.304
19310W        W78571  35.989  22.235   0.777
19311W        W78572  42.522  32.601   4.219
19312W        W78573  24.604  17.609  14.908
19313W        W78574  33.509  17.703   3.780
19314W        W78575  42.371  20.699  10.600
19315W        W78576   2.728  10.273  10.016
19316W        W78577  10.791  37.073  11.410
19317W        W78578  19.715  21.049   1.337
19318W        W78579  15.739  41.858  11.886
19319W        W78580  26.058  36.548   4.625
19320W        W78581  30.939  15.590  14.950
19321W        W78582  20.155  10.216  12.422
19322W        W78583  28.659  24.510   2.191
19323W        W78584  27.075  16.616   1.919
19324W        W78585  26.028  20.547  11.972
19325W        W78586  36.974   2.936   2.355
19326W        W78587  21.214  29.069  12.469
19327W        W78588   2.240  17.094  14.771
19328W        W78589   8.843  34.552   1.267
19329W        W78590  27.193  23.603   2.298
19330W        W78591   8.659   7.187  14.885
19331W        W78592  37.970  26.485  11.600
19332W        W78593  16.308  42.331   2.342
19333W        W78594  14.115  28.478  11.483
19334W        W78595  19.146  22.674  12.550
19335W        W78596   1.269  25.668  10.553
19336W        W78597  31.639  15.638   0.300
19337W        W78598  18.248  15.315  13.936
19338W        W78599  16.691  25.194  12.433
19339W        W78600  17.733  35.033   0.756
19340W        W78601  11.686  27.056  12.540
19341W        W78602  13.654  13.736  14.873
19342W        W78603  26.522  16.109   0.470
19343W        W78604   3.868  23.696  13.810
19344W        W78605   4.222  24.086  14.775
19345W        W78606  10.783  19.618   1.228
19346W        W78607  43.983  33.447  12.366
19347W        W78608  26.974  17.733  11.880
19348W        W78609  16.259  36.459   1.448
19349W        W78610   6.413  22.009   3.337
19350W        W78611   1.736  14.594  10.615
19351W        W78612  44.843  43.792   2.228
19352W        W78613  12.744  15.598   0.271
19353W        W78614   3.226  33.046  12.564
19354W        W78615  29.163  28.586  12.941
19355W        W78616  44.996   8.881   2.689
19356W        W78617  14.105  11.327  11.522
19357W        W78618  16.113   2.822   2.411
19358W        W78619  20.204  42.787  12.014
19359W        W78620  34.093   7.309   1.268
19360W        W78621  43.508  33.513   2.201
19361W        W78622  25.577   2.794   5.146
19362W        W78623  24.133  34.889   4.838
19363W        W78624   4.389  44.272  10.555
19364W        W78625  19.100  10.325  10.985
19365W        W78626  12.279  37.878  11.498
19366W        W78627   6.808  15.310   3.681
19367W        W78628  24.549  10.159   2.362
19368W        W78629  41.994  17.765  13.519
19369W        W78630  27.095  23.049   4.828
19370W        W78631  33.059  27.659   1.212
19371W        W78632  11.758  24.528  11.579
19372W        W78633  10.876  40.538  11.894
19373W        W78634   7.305  25.125  12.854
19374W        W78635  38.373  25.079  13.964
19375W        W78636  23.501  43.920  14.799
19376W        W78637  35.541  33.000   1.800
19377W        W78638  11.732  24.026  11.595
19378W        W78639  10.161  41.511  10.004
19379W        W78640  30.091  18.059  13.008
19380W        W78641  15.228  23.997   1.865
19381W        W78642  13.121  12.116  12.849
19382W        W78643  20.566  36.964  11.590
19383W        W78644  15.321  39.954   3.151
19384W        W78645  43.793  22.723  14.417
19385W        W78646  15.617  20.677   0.272
19386W        W78647  44.318  34.883   5.738
19387W        W78648  19.598  19.669  12.407
19388W        W78649  38.840  41.968   3.687
19389W        W78650   4.912  35.881  12.031
19390W        W78651  24.698  21.750   2.667
19391W        W78652   7.293  40.331  11.599
19392W        W78653  10.833  14.193   0.919
19393W        W78654   2.743   3.931   4.628
19394W        W78655  17.190   1.269  11.568
19395W        W78656   6.713   0.842   0.303
19396W        W78657  12.853  43.789  13.315
19397W        W78658  43.893  32.503  12.080
19398W        W78659  37.362  33.572  13.828
19399W        W78660  11.840  37.418  14.027
19400W        W78661  19.263  16.679  10.484
19401W        W78662  29.585  43.331  14.841
19402W        W78663  39.813   0.486  13.907
19403W        W78664  28.661  32.030   3.739
19404W        W78665   8.767  40.884  10.476
19405W        W78666  31.938   7.671   3.327
19406W        W78667   4.837  37.477  14.771
19407W        W78668  21.037   9.274  10.582
19408W        W78669  28.040  30.556  11.377
19409W        W78670  41.524  10.271  14.381
19410W        W78671  31.435  34.392   4.813
19411W        W78672  19.104  17.764   2.300
19412W        W78673   0.774  12.749   3.710
19413W        W78674   4.316  21.620   1.742
19414W        W78675  11.253  23.217   3.744
19415W        W78676  21.542  30.951   2.715
19416W        W78677   6.392   5.270  14.027
19417W        W78678   3.416  38.968   0.458
19418W        W78679   2.920  13.310  10.554
19419W        W78680  41.817   7.237  10.978
19420W        W78681  39.520  30.126   2.886
19421W        W78682  31.580  19.670  10.491
19422W        W78683  27.990  15.103   4.829
19423W        W78684  30.517  39.472  14.873
19424W        W78685   7.742   0.790   4.801
19425W        W78686  22.074   2.400  14.022
19426W        W78687  32.097  41.312  12.524
19427W        W78688  11.345  13.183   3.724
19428W        W78689  38.044  30.969  10.932
19429W        W78690   8.296  13.756   3.169
19430W        W78691  39.875  33.121   3.191
19431W        W78692  11.747  40.409  14.331
19432W        W78693  26.507   7.740   0.430
19433W        W78694   8.228  32.057   0.731
19434W        W78695  32.977  41.366   3.183
19435W        W78696   8.194  25.058   0.825
19436W        W78697  43.329   0.274  12.355
19437W        W78698  30.972  18.066  10.493
19438W        W78699  11.863  40.940  10.450
19439W        W78700   8.252   7.847  14.779
19440W        W78701  20.703   6.413   4.345
19441W        W78702  34.570   4.245  11.481
19442W        W78703  37.552  26.603  10.984
19443W        W78704  17.593  38.371   3.271
19444W        W78705  42.506  15.616  12.842
19445W        W78706  11.754  20.557  11.379
19446W        W78707  42.879  38.534   1.797
19447W        W78708   5.721  30.604  10.645
19448W        W78709  35.949  19.139  10.450
19449W        W78710  38.568  43.495   4.165
19450W        W78711  14.734   8.201  11.944
19451W        W78712  42.521   8.872   2.852
19452W        W78713  44.919   6.257   2.368
19453W        W78714   9.338  29.566   4.221
19454W        W78715  32.892  33.047  14.883
19455W        W78716   2.340  38.376  14.850
19456W        W78717  31.516   2.428  14.407
19457W        W78718  14.679  43.865  10.947
19458W        W78719  15.649  33.572  14.931
19459W        W78720  35.059   5.887  12.410
19460W        W78721  18.140  39.509   3.826
19461W        W78722  36.403  30.567  13.943
19462W        W78723  36.894  32.503   3.691
19463W        W78724  24.979  18.631   0.347
19464W        W78725  13.657  22.734   4.756
19465W        W78726   4.217  28.501  11.081
19466W        W78727  19.628   3.757  10.944
19467W        W78728  40.994  39.521   1.830
19468W        W78729  25.212  27.580   4.659
19469W        W78730   5.866   8.829   3.202
19470W        W78731   6.250  14.314   9.970
19471W        W78732  30.631   9.882  10.632
19472W        W78733  28.059  24.553  13.395
19473W        W78734   1.437   1.893  14.943
19474W        W78735  28.678  37.989   2.792
19475W        W78736  13.326  18.065  13.455
19476W        W78737  40.469  27.019   1.721
19477W        W78738  25.643   4.450  11.979
19478W        W78739   2.460   2.868  12.414
19479W        W78740   0.388  22.108   3.324
19480W        W78741  15.292  34.608  11.584
19481W        W78742  42.842  19.567  11.537
19482W        W78743   2.443  40.816   2.252
19483W        W78744  30.539   7.212  10.557
19484W        W78745  39.920  35.009   1.254
19485W        W78746  35.519  32.570  12.574
19486W        W78747  32.935   9.786   4.640
19487W        W78748  26.479  36.035   0.805
19488W        W78749  13.842  12.742   0.448
19489W        W78750  25.045  20.668   2.400
19490W        W78751  27.614  44.482   4.297
19491W        W78752  31.496  35.600  12.989
19492W        W78753   2.323  20.606   0.296
19493W        W78754  18.556  17.612   4.179
19494W        W78755  19.101  19.579  13.342
19495W        W78756   6.922  10.813   2.794
19496W        W78757  39.539   4.790   3.700
19497W        W78758  33.985   7.247  14.821
19498W        W78759  12.658  24.126  10.963
19499W        W78760  18.776  13.348  11.124
19500W        W78761  25.119  10.168  14.293
19501W        W78762  35.524  28.520   0.425
19502W        W78763  39.900  36.091   0.801
19503W        W78764  21.670  44.331  13.425
19504W        W78765  11.372  40.021  10.624
19505W        W78766   2.906  26.206   3.798
19506W        W78767  14.604  41.006  11.906
19507W        W78768  10.764  27.129  10.532
19508W        W78769  34.081  12.687   2.711
19509W        W78770  43.995  23.176  13.011
19510W        W78771  16.260  35.583   0.775
19511W        W78772  14.758   7.742  12.931
19512W        W78773   2.429  44.954  12.959
19513W        W78774  18.283  42.477   4.345
19514W        W78775  25.703  40.370   3.704
19515W        W78776  12.144  14.629  13.879
19516W        W78777  39.356   5.895  11.440
19517W        W78778  34.865   1.782   4.156
19518W        W78779  14.636  36.945   0.883
19519W        W78780   2.451   1.942   2.871
19520W        W78781  13.215  27.663   0.366
19521W        W78782   7.350   7.891   4.188
19522W        W78783  13.711  18.222   2.674
19523W        W78784  14.592   4.846   4.134
19524W        W78785  17.582   0.277  11.560
19525W        W78786   8.212  37.529   3.791
19526W        W78787   1.419   3.929   3.339
19527W        W78788  41.451  25.107   0.752
19528W        W78789   4.787  41.034  10.938
19529W        W78790   6.253  29.650  11.905
19530W        W78791  44.288  24.001  12.068
19531W        W78792  28.954  11.363  14.965
19532W        W78793  44.959  31.433   4.738
19533W        W78794   6.356  20.065  13.342
19534W        W78795  35.412  38.980   0.335
19535W        W78796  42.371  29.029   9.557
19536W        W78797  14.792  42.951   1.918
19537W        W78798  21.703   8.841  14.850
19538W        W78799  40.013   8.306  14.374
19539W        W78800  11.351  38.015  13.385
19540W        W78801  25.576  28.452   0.952
19541W        W78802  27.084  39.035  11.509
19542W        W78803   4.844  19.754  14.399
19543W        W78804  20.692   6.402  13.972
19544W        W78805   6.849  19.125   4.769
19545W        W78806   6.237  18.623   4.184
19546W        W78807   1.420  26.980   2.319
19547W        W78808  13.159  37.435  14.832
19548W        W78809   5.907  33.497   3.659
19549W        W78810  30.120  24.051   1.850
19550W        W78811   1.303  10.847   1.363
19551W        W78812  32.139  11.147  13.808
19552W        W78813  42.885  29.023  13.894
19553W        W78814  23.113  27.031  11.492
19554W        W78815  29.113  37.906  11.570
19555W        W78816   8.301  20.248   0.355
19556W        W78817   2.330  15.133   1.717
19557W        W78818  12.323  36.427  14.331
19558W        W78819  21.723  23.112  10.621
19559W        W78820   9.718  31.922  10.411
19560W        W78821   5.205   3.882  11.075
19561W        W78822  10.659  15.601   1.384
19562W        W78823  22.513  30.018  10.530
19563W        W78824   3.797  21.034   4.176
19564W        W78825  12.775  24.175  11.482
19565W        W78826  37.033  30.467  13.428
19566W        W78827   6.761  28.443  11.480
19567W        W78828  13.194   5.900   2.876
19568W        W78829   3.367  27.037  14.914
19569W        W78830  36.902  36.855  10.966
19570W        W78831  29.581  37.403   5.158
19571W        W78832   6.813  27.454   1.798
19572W        W78833  12.362  30.630   0.935
19573W        W78834  44.478   7.207   1.302
19574W        W78835  31.513   2.901  10.424
19575W        W78836  21.691  11.159   1.421
19576W        W78837   1.258  15.140   0.739
19577W        W78838  38.505  43.454  13.481
19578W        W78839   4.251  26.685   2.711
19579W        W78840  16.104   0.925  12.394
19580W        W78841   1.344   2.903   3.757
19581W        W78842  30.614  17.578   0.785
19582W        W78843   6.280   7.367   0.740
19583W        W78844   1.478  19.271   1.862
19584W        W78845  44.945  25.100   0.288
19585W        W78846  18.608  27.960   3.306
19586W        W78847  10.301  39.550   0.270
19587W        W78848  36.583   7.342   3.168
19588W        W78849  36.094  22.742   0.837
19589W        W78850  18.553  17.191   0.865
19590W        W78851  40.003  42.853  11.001
19591W        W78852  11.714  25.116   5.208
19592W        W78853  43.423   6.908   3.685
19593W        W78854  20.115  43.845   4.334
19594W        W78855  37.849  24.577   0.420
19595W        W78856  23.104   6.736   2.286
19596W        W78857  25.506  21.529   2.200
19597W        W78858   7.672  38.899   1.440
19598W        W78859   2.254  35.858   0.369
19599W        W78860  38.880  36.935  14.494
19600W        W78861  25.689  32.533  12.443
19601W        W78862  25.683   7.906   0.895
19602W        W78863  32.530   4.815  13.975
19603W        W78864  22.548  30.589   1.720
19604W        W78865  40.808  41.941  10.582
19605W        W78866  18.645  42.885   1.448
19606W        W78867   9.210   7.665  12.893
19607W        W78868  30.098  13.719   3.721
19608W        W78869   8.212   1.798  14.326
19609W        W78870  14.731   5.808   2.344
19610W        W78871  27.012   5.387  10.917
19611W        W78872  32.898  33.018   3.199
19612W        W78873  40.303  25.030  13.970
19613W        W78874  10.240  10.297   1.801
19614W        W78875  16.084  29.539   1.332
19615W        W78876  15.132  31.625  12.015
19616W        W78877  36.408  43.773   1.702
19617W        W78878  18.646  22.631   3.312
19618W        W78879   7.681   2.397  10.158
19619W        W78880  21.185  18.752   5.690
19620W        W78881   9.707  39.952  13.800
19621W        W78882   0.292  41.814   4.687
19622W        W78883  39.391  19.174   0.342
19623W        W78884  16.310  33.556   3.773
19624W        W78885   5.416   7.845   9.500
19625W        W78886   6.873   1.800  10.510
19626W        W78887   1.325  16.118  12.371
19627W        W78888   5.699  22.111  12.880
19628W        W78889  43.904  42.294   0.318
19629W        W78890   1.906  31.935  12.935
19630W        W78891  44.359  24.985  13.314
19631W        W78892  25.023  38.819   0.363
19632W        W78893   4.267  12.841  14.382
19633W        W78894  13.735   0.427   0.283
19634W        W78895  22.565   0.792  10.453
19635W        W78896  43.970  36.446  13.347
19636W        W78897  17.659  32.124  10.521
19637W        W78898   0.821  36.385   1.768
19638W        W78899  38.043  22.106  13.423
19639W        W78900  21.594  20.200   4.344
19640W        W78901  26.042  38.509   1.217
19641W        W78902  39.375   2.462  14.363
19642W        W78903  38.371  27.187  14.300
19643W        W78904  23.191  40.928  12.407
19644W        W78905  21.524  36.922   4.312
19645W        W78906  11.807  36.453   4.805
19646W        W78907  28.117  16.789  13.329
19647W        W78908   1.756  21.190   0.365
19648W        W78909  19.112  18.740   0.406
19649W        W78910  35.591  43.995  12.405
19650W        W78911  37.068  12.305  10.452
19651W        W78912  44.348  42.491   4.331
19652W        W78913  10.676  21.053  10.480
19653W        W78914   2.314  28.106   1.846
19654W        W78915   3.887  20.173   0.286
19655W        W78916  41.978  20.151  11.591
19656W        W78917  36.856  31.898  10.487
19657W        W78918  33.418  25.010  13.964
19658W        W78919  38.825  15.259   0.744
19659W        W78920  21.139  30.072   2.411
19660W        W78921   0.314  24.986   0.254
19661W        W78922  33.041  40.872  14.972
19662W        W78923  32.426  40.473  10.938
19663W        W78924  28.035  20.219  12.577
19664W        W78925  18.756  38.038  14.444
19665W        W78926  13.795   1.751   4.208
19666W        W78927  10.658   3.417   3.228
19667W        W78928   4.204  44.348   1.829
19668W        W78929  15.801  28.931   1.744
19669W        W78930   9.336  32.612   4.177
19670W        W78931  32.920   4.445  10.959
19671W        W78932  33.426  31.498  10.645
19672W        W78933  15.194  36.900  11.386
19673W        W78934  43.921  14.638  14.976
19674W        W78935  10.376  10.209   0.929
19675W        W78936  11.307   5.897   1.833
19676W        W78937   1.322  37.497   9.948
19677W        W78938  42.398  19.043  11.382
19678W        W78939  31.525  29.509   2.301
19679W        W78940  22.730   6.802   0.825
19680W        W78941  17.173  39.910   0.371
19681W        W78942  11.139  14.307   4.320
19682W        W78943  16.255  19.628  14.763
19683W        W78944  18.558   2.898   3.700
19684W        W78945  29.451  38.570  11.379
19685W        W78946  21.521  12.361   3.173
19686W        W78947  41.502  29.610   3.748
19687W        W78948   8.787  36.015  13.960
19688W        W78949  34.451  12.250  14.864
19689W        W78950  18.146  44.862   4.136
19690W        W78951  23.665  42.374   3.699
19691W        W78952   9.158   9.876   0.946
19692W        W78953  35.561  32.984   1.296
19693W        W78954  21.588  43.329   4.784
19694W        W78955  35.366  43.800   2.857
19695W        W78956   4.734   5.380  13.004
19696W        W78957  19.251  44.829  12.424
19697W        W78958  12.738  27.490  12.060
19698W        W78959  33.000  10.361   4.746
19699W        W78960  12.817  23.501   4.689
19700W        W78961  38.516  34.447  12.950
19701W        W78962   6.912  32.066   2.188
19702W        W78963   5.254  36.369   3.751
19703W        W78964  42.283  44.375  11.036
19704W        W78965  28.440  25.499   1.724
19705W        W78966  30.947  24.512  14.889
19706W        W78967  39.891  14.706  13.448
19707W        W78968  44.318  24.687   5.247
19708W        W78969  31.933  21.528   4.250
19709W        W78970  40.547  15.279  11.855
19710W        W78971  22.079  14.304   1.376
19711W        W78972  22.176   7.779  11.911
19712W        W78973   4.283  11.226  14.334
19713W        W78974  34.430  35.108   4.670
19714W        W78975   4.380  39.452   3.272
19715W        W78976  24.006  42.437   3.338
19716W        W78977  37.830   4.234   1.843
19717W        W78978  23.235  41.000   0.852
19718W        W78979  35.074   6.916   2.894
19719W        W78980  44.895   7.668  10.978
19720W        W78981  40.521  24.097  11.899
19721W        W78982  24.011  27.570  14.793
19722W        W78983  30.140  34.405   3.249
19723W        W78984  41.329  38.051   0.933
19724W        W78985   9.204  28.549  11.376
19725W        W78986  23.220  13.627   3.372
19726W        W78987  42.522  12.222   3.712
19727W        W78988  38.966  35.552   1.887
19728W        W78989   9.190   5.823  12.944
19729W        W78990  10.778  30.545   1.902
19730W        W78991  35.395  10.309   1.704
19731W        W78992  40.861  18.651  13.439
19732W        W78993  10.334  38.466   1.723
19733W        W78994  38.892  18.076  11.013
19734W        W78995  16.805  13.664  14.329
19735W        W78996  35.009  25.676  10.952
19736W        W78997  20.154  21.072   5.133
19737W        W78998  35.954  44.873   1.279
19738W        W78999  42.414  26.662   3.188
19739W        W79000   9.797  30.980  13.490
19740W        W79001  14.323  11.749  14.326
19741W        W79002  40.976  12.647   0.421
19742W        W79003  27.489  15.189  11.965
19743W        W79004  37.358  30.115  13.856
19744W        W79005  16.699   1.443  11.498
19745W        W79006  43.463  23.549  12.577
19746W        W79007  33.934  27.195  12.554
19747W        W79008  23.671  19.631   0.383
19748W        W79009  11.206  21.581   4.835
19749W        W79010  31.120   0.427  12.908
19750W        W79011  35.464  19.702   3.769
19751W        W79012  26.571  24.657   2.354
19752W        W79013   9.344   2.299  13.359
19753W        W79014  12.764  34.039   4.725
19754W        W79015  23.118  20.085   1.931
19755W        W79016  14.171  42.438   4.302
19756W        W79017  39.350  31.583  11.427
19757W        W79018  30.423  43.799   3.353
19758W        W79019  18.729  44.813  13.801
19759W        W79020  37.021   2.861  14.006
19760W        W79021  36.913  43.424  10.540
19761W        W79022  35.540  40.022  13.359
19762W        W79023   8.739   3.949  14.402
19763W        W79024   6.864   0.478  12.451
19764W        W79025  20.617  13.127  14.503
19765W        W79026  13.697  31.071  10.088
19766W        W79027  36.058  34.898   4.681
19767W        W79028  37.075  30.953  11.471
19768W        W79029  33.523  24.673  13.428
19769W        W79030  21.618  14.641  11.493
19770W        W79031  25.592  25.680   2.409
19771W        W79032  11.196  14.311  12.423
19772W        W79033  14.688  29.514   3.834
19773W        W79034  14.816  16.765  11.865
19774W        W79035  32.073  23.688  12.478
19775W        W79036  33.608  30.596   3.822
19776W        W79037   6.396  35.097  11.504
19777W        W79038   4.726  41.302  12.520
19778W        W79039  32.048  10.155   1.340
19779W        W79040   4.818  22.072  14.440
19780W        W79041  28.105   4.903   1.413
19781W        W79042   6.728  35.603   2.319
19782W        W79043  11.641  44.296   9.995
19783W        W79044   7.359  26.965  13.037
19784W        W79045   4.316   1.309   0.460
19785W        W79046  20.740  15.599   2.370
19786W        W79047  28.510  13.809   2.864
19787W        W79048  14.194   8.252  12.389
19788W        W79049   4.440   5.755   4.248
19789W        W79050  39.967  31.154   4.317
19790W        W79051  13.752  37.841  14.409
19791W        W79052  11.732  14.794   1.829
19792W        W79053  25.498  44.316   1.851
19793W        W79054  39.923  16.211   5.182
19794W        W79055  10.848  41.437   4.132
19795W        W79056  39.492   0.918  13.951
19796W        W79057   1.779  29.988  14.778
19797W        W79058  43.828  22.694  10.624
19798W        W79059   1.254  25.113  11.004
19799W        W79060  19.774   9.810   4.637
19800W        W79061  33.474  11.255  14.303
19801W        W79062  43.349  33.111   2.898
19802W        W79063  15.819   3.290  11.374
19803W        W79064  22.011   9.729  10.584
19804W        W79065  38.466  24.152  12.007
19805W        W79066  24.692  26.167   2.384
19806W        W79067  36.472  11.766  13.945
19807W        W79068  17.570  24.212   1.379
19808W        W79069  21.582  15.775  14.326
19809W        W79070  15.579   7.701   0.480
19810W        W79071  26.524  42.365   1.837
19811W        W79072  42.390   8.272  13.020
19812W        W79073  13.263  10.755  12.986
19813W        W79074  36.858  25.138  13.496
19814W        W79075  42.928  31.444  11.019
19815W        W79076  19.059  28.066   3.155
19816W        W79077  14.683  38.422  14.282
19817W        W79078   7.322  20.205   4.767
19818W        W79079  17.634  39.486  11.535
19819W        W79080   1.907  17.687  12.068
19820W        W79081  42.445  33.876  12.937
19821W        W79082  29.568  25.049  13.444
19822W        W79083  41.789   6.836  13.969
19823W        W79084   0.857  32.046  10.102
19824W        W79085   8.405  21.058  14.966
19825W        W79086  20.549  37.074  14.024
19826W        W79087   3.449   4.291  11.969
19827W        W79088  24.570  15.598  13.041
19828W        W79089  34.609   2.885  11.937
19829W        W79090   9.253   7.805  14.937
19830W        W79091  15.253  31.103  11.001
19831W        W79092   6.750   4.425   5.676
19832W        W79093  10.801  15.279   1.934
19833W        W79094  21.160   7.684   0.465
19834W        W79095   0.275  40.303  13.446
19835W        W79096  41.414  20.210  11.069
19836W        W79097  23.131  25.493  12.441
19837W        W79098  29.945   2.324   1.801
19838W        W79099   5.328   0.465  14.476
19839W        W79100   0.320  36.452   3.201
19840W        W79101  33.527   6.698  14.407
19841W        W79102  27.595  44.416   1.769
19842W        W79103  17.617  31.134   2.219
19843W        W79104  41.452  15.637   2.304
19844W        W79105  35.023  38.869   4.197
19845W        W79106  16.684  16.239   2.812
19846W        W79107  37.573  18.229   0.799
19847W        W79108  24.535   6.767  13.501
19848W        W79109  42.468   1.738   0.912
19849W        W79110  15.191  25.511  13.825
19850W        W79111   0.896  29.986   4.601
19851W        W79112  34.554   8.893   3.840
19852W        W79113  37.943  13.347  12.860
19853W        W79114   3.370  31.950   4.204
19854W        W79115  24.216  25.602   0.262
19855W        W79116   3.403  21.612  14.769
19856W        W79117  15.786  20.687   3.200
19857W        W79118   6.788  38.373   1.749
19858W        W79119  27.009  11.720  11.921
19859W        W79120  37.939  39.460  12.441
19860W        W79121  38.957  17.125   1.785
19861W        W79122   5.415  38.875  12.493
19862W        W79123  33.558  13.188  11.899
19863W        W79124   4.443  28.979   2.226
19864W        W79125  40.955  14.733  13.885
19865W        W79126   9.157  43.349   4.774
19866W        W79127  20.095   0.847   2.663
19867W        W79128   2.429  15.739  12.524
19868W        W79129  24.673  32.587   2.343
19869W        W79130  34.876  25.151  10.116
19870W        W79131   5.734   6.315   2.247
19871W        W79132  23.695  12.187   4.198
19872W        W79133   5.383  28.125   1.219
19873W        W79134  18.065  33.972  12.391
19874W        W79135  12.172  27.112  12.019
19875W        W79136  27.030  22.188  10.923
19876W        W79137  43.488   5.816   0.450
19877W        W79138  16.743  16.315   1.220
19878W        W79139  18.135   0.309  10.440
19879W        W79140   5.711  24.204  12.050
19880W        W79141  29.926  37.920  10.525
19881W        W79142  16.594  35.003   4.638
19882W        W79143  34.553  29.643   2.817
19883W        W79144  35.018  26.624  11.040
19884W        W79145  21.189   3.851   2.884
19885W        W79146  44.797  22.662   0.796
19886W        W79147   9.831   5.896   2.188
19887W        W79148  36.866   2.919   1.854
19888W        W79149  19.091   8.363   1.717
19889W        W79150  19.707   3.302  10.585
19890W        W79151  17.299  34.427  13.356
19891W        W79152   0.878   8.765   0.727
19892W        W79153  39.420  34.504  12.526
19893W        W79154  39.898  10.866  13.014
19894W        W79155  13.651  16.117   0.857
19895W        W79156  25.992  19.613   3.208
19896W        W79157  12.684  11.777   2.386
19897W        W79158   2.785  42.914  12.523
19898W        W79159  44.949  22.645  13.064
19899W        W79160   1.791  39.551  13.038
19900W        W79161   7.200   8.712  11.531
19901W        W79162  10.779   0.351  14.767
19902W        W79163  10.785  36.915   0.944
19903W        W79164  19.675   0.350   2.233
19904W        W79165  22.574  22.642  10.431
19905W        W79166  11.759  26.988  13.344
19906W        W79167  33.884   5.859   0.400
19907W        W79168  41.038   1.294  12.455
19908W        W79169   4.277   3.407  13.003
19909W        W79170  10.695  37.358   5.174
19910W        W79171  24.638  26.189   0.333
19911W        W79172  22.160  35.496  12.835
19912W        W79173   6.831  20.543   0.805
19913W        W79174  40.031  21.644   0.296
19914W        W79175  11.695   2.857  12.074
19915W        W79176  24.520   8.162   3.298
19916W        W79177  11.190  24.623   3.211
19917W        W79178  34.544   9.651   4.827
19918W        W79179   6.254   0.365  12.459
19919W        W79180   9.765   7.341  12.939
19920W        W79181  31.997   9.179  11.997
19921W        W79182  32.505  33.001  12.092
19922W        W79183   5.792  12.271  14.927
19923W        W79184  40.338   3.275   2.774
19924W        W79185  37.537  15.100  14.009
19925W        W79186  14.780  29.442  12.938
19926W        W79187  13.224  15.791   2.883
19927W        W79188  15.615  12.700   1.235
19928W        W79189   0.458  31.414  12.444
19929W        W79190  34.864  18.747   1.826
19930W        W79191  38.543  42.359  12.432
19931W        W79192  31.524  33.513   0.461
19932W        W79193  13.245  42.454   0.807
19933W        W79194  36.988  25.506   0.899
19934W        W79195  24.138   4.723   3.718
19935W        W79196  40.507   0.825  10.962
19936W        W79197  23.549  23.038  10.510
19937W        W79198   8.793  27.519  10.536
19938W        W79199  15.624  23.618  10.528
19939W        W79200  20.169   3.740  13.382
19940W        W79201  19.686  36.359   4.647
19941W        W79202  38.360  20.645  13.423
19942W        W79203  30.453  34.080  10.570
19943W        W79204  44.260  35.018   2.836
19944W        W79205  36.985  10.802  14.380
19945W        W79206   8.178  23.566  13.482
19946W        W79207  31.005  38.858   4.336
19947W        W79208  22.046  44.878  10.591
19948W        W79209  42.902  16.700  12.521
19949W        W79210  18.119  13.122  11.509
19950W        W79211  13.639  16.137  12.548
19951W        W79212  17.591  12.735  12.084
19952W        W79213  27.101  28.164  11.423
19953W        W79214  14.253   1.767  11.906
19954W        W79215  20.264  42.411   2.697
19955W        W79216  10.794  10.276   3.803
19956W        W79217  18.781   4.941  12.024
19957W        W79218  43.910  42.412  11.045
19958W        W79219   3.296  26.465   3.293
19959W        W79220  36.517  15.774   2.317
19960W        W79221   0.900  19.591   2.285
19961W        W79222  43.279  11.312  13.054
19962W        W79223  12.803  17.607   0.423
19963W        W79224   2.929  13.700  13.440
19964W        W79225  18.711  40.521   9.974
19965W        W79226  21.247  38.895  10.499
19966W        W79227  19.138  10.728   0.761
19967W        W79228  16.657  23.194   4.327
19968W        W79229   8.315  36.478  12.525
19969W        W79230  11.842  18.082   0.471
19970W        W79231   5.368   1.385   2.771
19971W        W79232  37.945  20.255   0.964
19972W        W79233  22.745  39.434   3.264
19973W        W79234  38.484  40.017   4.342
19974W        W79235  42.777  44.414   1.780
19975W        W79236   8.318  42.779   3.778
19976W        W79237  24.051  18.072  12.027
19977W        W79238  42.023  40.001   1.431
19978W        W79239  25.112  38.842  11.884
19979W        W79240   3.388   3.249   0.915
19980W        W79241  18.743  42.429  13.510
19981W        W79242  31.913  12.720  11.573
19982W        W79243  16.645  16.288  11.539
19983W        W79244  41.515  24.659  13.428
19984W        W79245   9.222  37.024  10.582
19985W        W79246  20.640   9.369  10.633
19986W        W79247  20.097  29.628  11.386
19987W        W79248  23.517  27.465  12.536
19988W        W79249  32.417  37.483  13.526
19989W        W79250   8.211  35.414   1.384
19990W        W79251  44.282   2.405  14.344
19991W        W79252   2.871  36.931   4.801
19992W        W79253  28.158  22.714   0.868
19993W        W79254  25.467  36.978   3.660
19994W        W79255  35.969  16.074  10.580
19995W        W79256  42.436  37.909   3.331
19996W        W79257  27.541   0.437  12.020
19997W        W79258   4.899  32.456   3.311
19998W        W79259  13.196  11.719  11.436
19999W        W79260  29.494   4.392   1.401
20000W        W79261  15.290  17.633  12.499
20001W        W79262   8.373  23.993  14.028
20002W        W79263   8.710  22.007   4.599
20003W        W79264   8.170  40.433  13.799
20004W        W79265  30.443  35.554  12.962
20005W        W79266  25.481  32.952  14.327
20006W        W79267  29.970  18.154  14.435
20007W        W79268   4.837  18.679   0.793
20008W        W79269   0.951  37.361   4.216
20009W        W79270  32.635  19.645   4.203
20010W        W79271   7.685  37.989   4.203
20011W        W79272  43.333  23.607   0.764
20012W        W79273  41.367  30.469  13.406
20013W        W79274  25.643  25.004   0.912
20014W        W79275  22.624   7.173   3.319
20015W        W79276  39.932  36.888   4.226
20016W        W79277  10.329  24.181  13.314
20017W        W79278  44.404  35.504  12.997
20018W        W79279   8.875  24.053  10.487
20019W        W79280  14.654  30.014  14.367
20020W        W79281  26.481  31.474   4.167
20021W        W79282  27.143  26.635   3.656
20022W        W79283  41.475  18.769   1.927
20023W        W79284  26.624  41.464  13.809
20024W        W79285   3.261   2.332   1.239
20025W        W79286  19.236  26.125   0.353
20026W        W79287  11.754  21.704  12.567
20027W        W79288  13.193   6.734  14.488
20028W        W79289  31.425   5.893   2.358
20029W        W79290  28.477   8.874   4.763
20030W        W79291   8.246  43.964  11.485
20031W        W79292  27.489  31.615  13.957
20032W        W79293  20.242  28.614  14.763
20033W        W79294  44.989  19.685   3.379
20034W        W79295  44.893  18.782  14.814
20035W        W79296  39.427  15.136  11.070
20036W        W79297  23.163  13.725  14.890
20037W        W79298  19.229  26.195  11.072
20038W        W79299  38.365  38.897   3.848
20039W        W79300  40.473   2.269  13.400
20040W        W79301  36.463  35.459  11.543
20041W        W79302  24.579  28.042  12.390
20042W        W79303  26.112   3.315  14.777
20043W        W79304  42.976  20.170   0.756
20044W        W79305  12.237  38.885   0.398
20045W        W79306  19.117   4.253  13.999
20046W        W79307  37.030  10.313   2.861
20047W        W79308  32.098  21.581  14.438
20048W        W79309  31.473  42.864  13.336
20049W        W79310  26.185  15.326  10.640
20050W        W79311  12.664  20.534   1.389
20051W        W79312  26.650  35.423  13.340
20052W        W79313  36.400   8.705   5.164
20053W        W79314  39.978   4.806  13.359
20054W        W79315  40.396   3.811   4.354
20055W        W79316  12.159  10.343  13.971
20056W        W79317  10.761  17.206  13.026
20057W        W79318   8.690  17.762  13.479
20058W        W79319   8.366   7.699   5.782
20059W        W79320   8.201  23.079   2.759
20060W        W79321  24.500  37.567  10.987
20061W        W79322  12.670  36.356  11.426
20062W        W79323  43.387  22.581   3.183
20063W        W79324  29.426  35.548   1.425
20064W        W79325  22.537  19.130  13.908
20065W        W79326  23.064   6.268  13.471
20066W        W79327  17.100  13.242  13.405
20067W        W79328  29.599  39.008   3.688
20068W        W79329  12.211  21.058  14.505
20069W        W79330  23.050  41.008  13.030
20070W        W79331   3.336   2.392  11.093
20071W        W79332  29.113  11.160  10.949
20072W        W79333   0.979  29.626   5.191
20073W        W79334  16.201  27.968   0.272
20074W        W79335   4.369  35.999   0.335
20075W        W79336  24.559  25.581   4.683
20076W        W79337  12.127  10.876  11.540
20077W        W79338  41.850  35.888  13.519
20078W        W79339  40.897  23.136   0.376
20079W        W79340  40.971  20.538  13.023
20080W        W79341   8.781  26.981  12.938
20081W        W79342   0.783  40.460  14.792
20082W        W79343  25.061  12.264  13.325
20083W        W79344  19.238  42.385  14.911
20084W        W79345  26.633  10.644   2.785
20085W        W79346  38.376   2.861   1.236
20086W        W79347  16.728  32.450   1.413
20087W        W79348  20.550  13.749   4.164
20088W        W79349  12.189  10.252   4.248
20089W        W79350  33.961  34.551  12.897
20090W        W79351  29.495   8.355   4.623
20091W        W79352  25.585   9.342  13.525
20092W        W79353  36.499  43.797  13.497
20093W        W79354  13.623  11.650  13.338
20094W        W79355  30.622  41.878   0.252
20095W        W79356  11.833  32.100   3.712
20096W        W79357   5.759  40.036  11.971
20097W        W79358  32.048  10.803   2.303
20098W        W79359  39.484   8.690   4.303
20099W        W79360   0.788  26.502  12.001
20100W        W79361  33.492  18.680  11.859
20101W        W79362   9.351  40.364   4.601
20102W        W79363   4.204   6.690   9.974
20103W        W79364  44.820  12.296  14.277
20104W        W79365  20.107   1.288  10.523
20105W        W79366  23.706  13.624  14.968
20106W        W79367  39.965  25.127   2.393
20107W        W79368  30.423  44.323   2.802
20108W        W79369  34.545  40.819   2.265
20109W        W79370  13.767  10.797  10.616
20110W        W79371  41.964   7.709  11.495
20111W        W79372  36.429  12.675   1.312
20112W        W79373  43.496  10.259   4.742
20113W        W79374  10.713  44.381  12.848
20114W        W79375  23.613  33.518   3.640
20115W        W79376  25.977  41.404  11.040
20116W        W79377  33.130  12.301  10.592
20117W        W79378  12.241   6.851  14.450
20118W        W79379  38.392  18.185   1.697
20119W        W79380  10.656  35.426  14.938
20120W        W79381  27.079  41.380   0.967
20121W        W79382   8.162  12.317   3.313
20122W        W79383  39.365  26.089   2.350
20123W        W79384  24.138  23.229  11.529
20124W        W79385  39.403  39.862   3.369
20125W        W79386  34.039  28.135  12.899
20126W        W79387  31.593   8.352  13.035
20127W        W79388  35.920   9.393   0.297
20128W        W79389  31.475  11.246  11.124
20129W        W79390  21.072  38.949  11.919
20130W        W79391  44.801  40.993   0.932
20131W        W79392   0.757  36.887   1.910
20132W        W79393  19.184   5.325   5.264
20133W        W79394  12.362  16.184  14.868
20134W        W79395  33.112  28.619  11.925
20135W        W79396  18.178  32.114  14.827
20136W        W79397  15.767  42.849   5.241
20137W        W79398  18.256  44.332   0.935
20138W        W79399   0.390  31.995   4.198
20139W        W79400  30.033   5.695   3.216
20140W        W79401  25.141  31.947  14.402
20141W        W79402  11.806  23.112  12.399
20142W        W79403   5.305  30.101   2.705
20143W        W79404  15.619  18.556   3.151
20144W        W79405  35.088  25.075   3.833
20145W        W79406   4.353   2.749  13.413
20146W        W79407  25.966  16.709  11.964
20147W        W79408  37.845  12.363  10.556
20148W        W79409  42.866  27.500   0.262
20149W        W79410  35.023   3.309   1.921
20150W        W79411  30.446  41.811   2.405
20151W        W79412  38.936   0.863  10.965
20152W        W79413  16.689  24.098   3.711
20153W        W79414   6.899   3.260   5.126
20154W        W79415  34.420  22.231  13.393
20155W        W79416  14.201   4.760   2.248
20156W        W79417  11.677  38.959  13.014
20157W        W79418   0.955  41.969   1.335
20158W        W79419  28.998  27.173  12.553
20159W        W79420  23.146  36.487  13.994
20160W        W79421  21.532  34.488   3.786
20161W        W79422  41.531  31.583   2.825
20162W        W79423  13.839  17.070   0.928
20163W        W79424  29.638  26.159   2.402
20164W        W79425  38.431  13.269   2.363
20165W        W79426  29.613  23.095  14.761
20166W        W79427  31.091   8.284  10.934
20167W        W79428   2.294  41.790   3.370
20168W        W79429   9.668  27.592  14.367
20169W        W79430   8.669  32.918   4.634
20170W        W79431  13.200  30.461  14.780
20171W        W79432   7.755  13.794  12.493
20172W        W79433  35.983   9.307  12.409
20173W        W79434  37.380  21.547   0.307
20174W        W79435  33.078  44.979  10.994
20175W        W79436  18.667   6.762  14.370
20176W        W79437  31.521  24.028   3.646
20177W        W79438  26.475  44.371   5.151
20178W        W79439   4.306   8.799  14.822
20179W        W79440  17.560  35.942  14.308
20180W        W79441   3.403  42.468   4.797
20181W        W79442   1.298  11.819   1.694
20182W        W79443  16.241  41.373   4.748
20183W        W79444  15.224  28.681   2.367
20184W        W79445   1.445  37.371   1.389
20185W        W79446   0.481  32.010   0.373
20186W        W79447  22.186  23.190   3.245
20187W        W79448   5.394  10.201   0.283
20188W        W79449  37.405   9.872  13.408
20189W        W79450  28.470  44.340  13.959
20190W        W79451  42.851  19.251  14.516
20191W        W79452  24.497   4.228   4.259
20192W        W79453  24.093  20.732   0.479
20193W        W79454  33.486  33.027   9.941
20194W        W79455  21.189  13.779   2.397
20195W        W79456  19.051  42.858  13.056
20196W        W79457  27.029  26.581  10.077
20197W        W79458  18.608  21.065   1.755
20198W        W79459  21.648  30.414  12.036
20199W        W79460  26.607  30.915  14.319
20200W        W79461  39.934  33.963  14.919
20201W        W79462   9.804  17.732   2.743
20202W        W79463  40.352  43.963  14.910
20203W        W79464  21.257  40.329  12.988
20204W        W79465  13.150  41.830   3.651
20205W        W79466  16.688  23.216   0.890
20206W        W79467  33.950  22.673  10.520
20207W        W79468  35.962  15.122  14.436
20208W        W79469  35.859   0.378   4.750
20209W        W79470  38.408  21.138   4.274
20210W        W79471  34.034   7.343   5.587
20211W        W79472  10.214  35.520   1.726
20212W        W79473  33.069  13.819  13.375
20213W        W79474  37.853  17.253   2.301
20214W        W79475  40.417  44.382   5.287
20215W        W79476  38.405   4.245   4.228
20216W        W79477  12.769  26.669  14.484
20217W        W79478  19.220  37.980   2.416
20218W        W79479  34.463  12.160   4.613
20219W        W79480  37.030   8.847  11.093
20220W        W79481  37.956  43.882   1.927
20221W        W79482  21.696  11.792   1.255
20222W        W79483  11.825  15.224  14.021
20223W        W79484   2.832  36.885   1.864
20224W        W79485  34.899  16.706   1.867
20225W        W79486   6.353  25.171   5.207
20226W        W79487  42.985  35.926  14.477
20227W        W79488  28.491  23.117  13.548
20228W        W79489   3.788  22.095   3.787
20229W        W79490  38.856  14.251  12.465
20230W        W79491  23.626   9.149  13.053
20231W        W79492   5.401  31.915   4.175
20232W        W79493  19.161  25.619   3.301
20233W        W79494  33.998   1.846  13.058
20234W        W79495   1.799  38.833   0.442
20235W        W79496  15.739  13.773   0.256
20236W        W79497   7.221  40.975   0.873
20237W        W79498  31.615  30.427   2.186
20238W        W79499  43.966  42.855   0.743
20239W        W79500  12.617  28.146  13.394
20240W        W79501  11.747   0.906   1.324
20241W        W79502   1.946   8.305  11.987
20242W        W79503  44.299  25.596  10.607
20243W        W79504  33.545  31.619  12.075
20244W        W79505  41.000  16.598   1.836
20245W        W79506  25.590   5.787  14.854
20246W        W79507  35.023  24.153   3.663
20247W        W79508  35.104  35.385   1.236
20248W        W79509  35.429  40.053   4.189
20249W        W79510  41.034   4.880  11.580
20250W        W79511  14.249  27.193  14.351
20251W        W79512  36.584  11.724  14.883
20252W        W79513  25.050  35.045  10.912
20253W        W79514  28.993  25.546  13.941
20254W        W79515  36.497  12.620  10.580
20255W        W79516  13.769  25.002  12.962
20256W        W79517  42.428   6.209   4.808
20257W        W79518  14.721  26.018  14.820
20258W        W79519  43.319   7.857   3.774
20259W        W79520  16.074  12.251  11.074
20260W        W79521   1.862  43.906  14.822
20261W        W79522   3.353  43.879   4.626
20262W        W79523  31.517  17.223  10.405
20263W        W79524  35.967  30.483  12.536
20264W        W79525  24.038  38.007   1.886
20265W        W79526   9.162  28.947   9.969
20266W        W79527  30.045  37.029   0.818
20267W        W79528  42.455  10.308   1.745
20268W        W79529  25.111  43.496  12.340
20269W        W79530  22.675  39.846   4.299
20270W        W79531   4.721   6.256  10.540
20271W        W79532  17.256  33.502  11.866
20272W        W79533  31.591  42.421   3.156
20273W        W79534   9.250  10.639   4.740
20274W        W79535   9.279  14.719  14.774
20275W        W79536  17.576  33.455   3.772
20276W        W79537  22.510   6.782  14.829
20277W        W79538  19.677  26.969  14.419
20278W        W79539  35.875  32.126  14.280
20279W        W79540  10.370  19.617   9.988
20280W        W79541  18.782  24.082   4.203
20281W        W79542   5.210  22.028   4.151
20282W        W79543  30.474   3.923  12.375
20283W        W79544  43.471   4.809   2.760
20284W        W79545  39.872  33.588  12.412
20285W        W79546  23.181  17.293  14.476
20286W        W79547  30.132   8.791   2.746
20287W        W79548   2.917  17.759  10.931
20288W        W79549  32.092  19.255   1.334
20289W        W79550  19.243  38.966  11.887
20290W        W79551  17.714  18.126   9.962
20291W        W79552  26.671   6.372  14.924
20292W        W79553   4.880  27.618   1.707
20293W        W79554  20.152  21.742   2.259
20294W        W79555   5.196  10.849  10.502
20295W        W79556  14.317  32.927   3.654
20296W        W79557  37.355  23.581  14.396
20297W        W79558   4.939  39.463   2.692
20298W        W79559  23.649  10.702   4.766
20299W        W79560  23.133  17.676   4.123
20300W        W79561   8.666  20.080  11.429
20301W        W79562  42.408  43.382  11.549
20302W        W79563  20.170   1.789  11.561
20303W        W79564   1.911   3.787   3.850
20304W        W79565  33.014  36.394   4.238
20305W        W79566  42.792  29.560  12.373
20306W        W79567  28.680  26.686  12.486
20307W        W79568  22.085  18.685   0.294
20308W        W79569   6.760  36.549  13.968
20309W        W79570  42.318  18.561   2.740
20310W        W79571  41.998  20.108  10.574
20311W        W79572  34.515  32.394   4.159
20312W        W79573  35.570   6.253   1.445
20313W        W79574  18.161  23.592   4.351
20314W        W79575  12.766  44.355  14.994
20315W        W79576  33.451  37.499  11.495
20316W        W79577  42.872  36.582  13.995
20317W        W79578  44.445  29.127   0.932
20318W        W79579  11.706  39.985  14.409
20319W        W79580   0.403  21.257  13.528
20320W        W79581  35.380  33.931   1.772
20321W        W79582  37.445  44.373  11.964
20322W        W79583  23.078  27.036   2.303
20323W        W79584  32.886  23.053  14.396
20324W        W79585  37.576  31.121  14.014
20325W        W79586   6.398  42.024  10.934
20326W        W79587   4.369  44.438  13.919
20327W        W79588   5.921  29.431   2.222
20328W        W79589  38.327   4.332  11.040
20329W        W79590  42.847  30.128  13.316
20330W        W79591  22.570  29.162  12.954
20331W        W79592  30.070  13.844  13.819
20332W        W79593  36.361  23.505   0.866
20333W        W79594   1.325  38.352  12.491
20334W        W79595   7.362   4.890   3.671
20335W        W79596  42.903  20.683   4.795
20336W        W79597  42.833   1.244  12.389
20337W        W79598  11.694  44.922   1.294
20338W        W79599  29.988   0.482   1.732
20339W        W79600  26.993  31.416  10.427
20340W        W79601  36.481  33.072  13.831
20341W        W79602  22.037  42.328   1.851
20342W        W79603  11.153   6.198  12.029
20343W        W79604   7.201  28.485   4.778
20344W        W79605  23.729  26.475  11.490
20345W        W79606  33.987  15.174   0.888
20346W        W79607  32.618   6.190  12.825
20347W        W79608  24.054  26.972  13.876
20348W        W79609  14.738   0.326  12.476
20349W        W79610   6.211   1.947  10.461
20350W        W79611  23.017  20.609   2.803
20351W        W79612  25.681  31.532   0.392
20352W        W79613  28.567  33.473   2.898
20353W        W79614   7.859  44.327   2.334
20354W        W79615  11.824  28.091   3.188
20355W        W79616  17.188  43.462   0.736
20356W        W79617  11.655   4.374   0.936
20357W        W79618   3.314  26.604   2.870
20358W        W79619  35.879   1.410  14.852
20359W        W79620  39.481  24.496   4.836
20360W        W79621  30.072  41.026   2.298
20361W        W79622  25.988  31.961   2.749
20362W        W79623  36.352  38.437  13.041
20363W        W79624  15.696  30.544   2.832
20364W        W79625  23.518  22.547  10.950
20365W        W79626  13.168  38.899   3.785
20366W        W79627  18.635  40.806  12.094
20367W        W79628  10.301  21.551   1.729
20368W        W79629   5.193  33.877   2.297
20369W        W79630  23.645  36.892  10.642
20370W        W79631  31.113  44.461  11.413
20371W        W79632  14.683   0.769   4.821
20372W        W79633   5.717   4.787   2.760
20373W        W79634  31.509  17.305  11.549
20374W        W79635   7.684  26.676  14.325
20375W        W79636  17.756  42.994   4.620
20376W        W79637  17.711  16.579   1.780
20377W        W79638  23.147  17.199   3.369
20378W        W79639  21.215   5.820   0.409
20379W        W79640  17.071  32.483   0.771
20380W        W79641  38.877   7.803   1.418
20381W        W79642  24.091  16.104  11.882
20382W        W79643  29.443  34.469   0.891
20383W        W79644   6.320  39.020   4.278
20384W        W79645  38.361  33.961  13.859
20385W        W79646  28.998  41.954  12.054
20386W        W79647  42.873  26.991   2.331
20387W        W79648  14.171  37.060  11.032
20388W        W79649   1.473  17.269  13.943
20389W        W79650  32.102  26.648  11.415
20390W        W79651  21.204  25.095   4.829
20391W        W79652  42.522  39.358  11.860
20392W        W79653  38.872  33.581   3.261
20393W        W79654  29.494  14.732  14.379
20394W        W79655   2.369  27.473   0.766
20395W        W79656  37.854   0.302  13.932
20396W        W79657  31.120  40.897   1.445
20397W        W79658  20.252  18.669   0.880
20398W        W79659  35.546  43.464   1.794
20399W        W79660  27.066  26.473   1.257
20400W        W79661  39.345  18.700   0.451
20401W        W79662  26.616   2.374  12.491
20402W        W79663  22.076   6.856  10.434
20403W        W79664  30.571  34.892   1.262
20404W        W79665   1.837  33.016  14.015
20405W        W79666  17.170   8.723   4.813
20406W        W79667  32.107  33.605  12.473
20407W        W79668  28.642  29.631   3.784
20408W        W79669   6.290  31.025   4.645
20409W        W79670   1.812  34.440  14.773
20410W        W79671   0.247   4.941  14.821
20411W        W79672  19.096  35.395  14.452
20412W        W79673  11.782   5.431  10.982
20413W        W79674  26.601  24.659   4.271
20414W        W79675  15.156  21.193   5.100
20415W        W79676   0.302  17.640  11.445
20416W        W79677  41.466  20.231   4.209
20417W        W79678   4.296  19.116  11.401
20418W        W79679  18.115  26.203  13.547
20419W        W79680   5.240   0.942  12.975
20420W        W79681  10.649  22.632   3.853
20421W        W79682  19.147  31.054  12.419
20422W        W79683  28.086  33.508  13.840
20423W        W79684  28.005  36.062   2.676
20424W        W79685  26.530  16.569   2.178
20425W        W79686   3.833  21.552  12.996
20426W        W79687   3.950   5.873  12.987
20427W        W79688   0.475   3.347   2.242
20428W        W79689  28.437  14.816   0.766
20429W        W79690  17.715  33.970  13.889
20430W        W79691  26.034   0.791  13.944
20431W        W79692  36.523  44.871  14.855
20432W        W79693  19.044  13.824  12.515
20433W        W79694  36.052   3.398   2.283
20434W        W79695   1.404  38.936  14.784
20435W        W79696  26.502   1.372  14.301
20436W        W79697  19.625  29.086   3.707
20437W        W79698  31.628  13.678   3.288
20438W        W79699  13.270  39.321   2.396
20439W        W79700  38.822   6.839   4.673
20440W        W79701  14.779  16.287   1.280
20441W        W79702  41.532  23.582   0.251
20442W        W79703  38.547  15.816  14.884
20443W        W79704  28.178  42.785   9.975
20444W        W79705  22.597  36.369   0.840
20445W        W79706  21.716  11.142  14.331
20446W        W79707  21.580  23.169  13.537
20447W        W79708  27.475  35.482   0.829
20448W        W79709  29.637  10.302   0.387
20449W        W79710  21.569  20.642  10.559
20450W        W79711  31.901  35.016   1.245
20451W        W79712  22.047  38.353  12.440
20452W        W79713  42.385   4.337   3.178
20453W        W79714  39.401  35.557  11.857
20454W        W79715  37.405   7.359  11.598
20455W        W79716  29.488  12.696  10.088
20456W        W79717  22.127  39.392   4.297
20457W        W79718  35.532  33.516  12.050
20458W        W79719  35.074  29.629   1.221
20459W        W79720   3.449  42.406   2.200
20460W        W79721  40.324  14.311  12.417
20461W        W79722  22.734   3.780  13.398
20462W        W79723   5.784  34.380   4.342
20463W        W79724  41.448   3.284   3.334
20464W        W79725  13.607  25.185   2.188
20465W        W79726  23.054  35.856  13.008
20466W        W79727  32.042  11.635   2.755
20467W        W79728   1.280  18.060  10.898
20468W        W79729  10.855  41.435  14.918
20469W        W79730  14.636  24.694   2.358
20470W        W79731  10.194  25.481   2.181
20471W        W79732  37.491  25.062   4.301
20472W        W79733  17.788  26.085   1.752
20473W        W79734  27.136  25.585   3.693
20474W        W79735  15.737  23.655   1.795
20475W        W79736  43.857  14.741   0.908
20476W        W79737  39.512  25.062   1.334
20477W        W79738  34.120  36.068  14.388
20478W        W79739  38.933  26.120  11.920
20479W        W79740  36.387  20.753   3.161
20480W        W79741  42.961  39.059   3.847
20481W        W79742  16.099  23.221   0.310
20482W        W79743  36.391  13.798   2.210
20483W        W79744  17.061  17.088   9.925
20484W        W79745  40.377  10.239  10.930
20485W        W79746  28.117  42.870   2.747
20486W        W79747  14.270  37.998  14.971
20487W        W79748  11.353  42.841  11.477
20488W        W79749  18.674  43.302   4.598
20489W        W79750  25.120  13.228   4.769
20490W        W79751  41.790   8.792  14.275
20491W        W79752  24.570   4.748  11.995
20492W        W79753  10.375  11.861  14.009
20493W        W79754  12.657  34.489  14.934
20494W        W79755  14.229  14.219   2.797
20495W        W79756   7.346  19.261  13.869
20496W        W79757  42.001  22.692   0.343
20497W        W79758  14.315  36.912  11.531
20498W        W79759  28.598  23.525   3.150
20499W        W79760  12.325  20.547  10.618
20500W        W79761  35.057  34.955  14.830
20501W        W79762   2.783  36.481   4.158
20502W        W79763  27.944   0.770  13.466
20503W        W79764   6.814   0.490   2.766
20504W        W79765   7.779  35.588  14.850
20505W        W79766  33.546   0.965   4.754
20506W        W79767  29.559  19.064   2.896
20507W        W79768  40.370   4.275   0.797
20508W        W79769  33.477  31.985  12.356
20509W        W79770  24.617  28.528  10.947
20510W        W79771  15.227  22.086   4.739
20511W        W79772  25.128  21.566   0.288
20512W        W79773  25.055  21.094   3.641
20513W        W79774  33.933   5.908  14.804
20514W        W79775   7.192   7.377  11.994
20515W        W79776  44.848  14.655   2.297
20516W        W79777  39.046  39.502   0.744
20517W        W79778  40.837  36.041  13.544
20518W        W79779  23.674   6.335  13.974
20519W        W79780  33.077  14.682   1.795
20520W        W79781  40.999  23.720  11.959
20521W        W79782  41.345  38.978   4.212
20522W        W79783  19.125  10.377   1.863
20523W        W79784  33.893  29.115  10.629
20524W        W79785  15.182   9.168   4.138
20525W        W79786  34.476  26.201   0.876
20526W        W79787  43.480  12.681   5.307
20527W        W79788  40.964   4.878  11.050
20528W        W79789  36.554  31.037   2.399
20529W        W79790  30.992  14.815  11.032
20530W        W79791  35.371  12.617   4.625
20531W        W79792  34.489  38.920   4.227
20532W        W79793  14.752   2.800  11.597
20533W        W79794  11.315  25.040   1.765
20534W        W79795  13.683  11.152   3.689
20535W        W79796  31.568   4.937   9.991
20536W        W79797  15.795   0.836  11.601
20537W        W79798  34.433  29.640  12.458
20538W        W79799  26.201  33.007   9.933
20539W        W79800  44.755  14.213  14.882
20540W        W79801  18.706  40.436  12.036
20541W        W79802   1.345  23.601  10.529
20542W        W79803  12.247  33.022  13.990
20543W        W79804   7.779  34.608   0.905
20544W        W79805  31.140  28.957  11.111
20545W        W79806  30.558  29.496   3.722
20546W        W79807  10.194  18.289  13.435
20547W        W79808  29.456  12.661   2.700
20548W        W79809  20.054  14.240  11.041
20549W        W79810   7.844   3.215  11.511
20550W        W79811  17.296  30.163  11.876
20551W        W79812  27.055  30.030  13.929
20552W        W79813   6.308  13.632  10.488
20553W        W79814   9.163  12.740   3.817
20554W        W79815  33.536  24.649   1.737
20555W        W79816  15.757  44.836  10.533
20556W        W79817  28.503  43.500   2.759
20557W        W79818   5.289  24.611  11.015
20558W        W79819  36.070  22.011  13.335
20559W        W79820   6.895  29.113   1.378
20560W        W79821  16.628  33.418  11.916
20561W        W79822  41.424  11.801   3.832
20562W        W79823  15.592  40.972  10.466
20563W        W79824  20.601  31.538  14.412
20564W        W79825  16.627  30.597   1.844
20565W        W79826  19.740  30.544  11.376
20566W        W79827  10.245  16.242  14.950
20567W        W79828   0.303   7.750   1.253
20568W        W79829  15.605  28.617   1.788
20569W        W79830  20.629   5.269   3.810
20570W        W79831  15.296  15.778   0.761
20571W        W79832  22.165  40.506  14.498
20572W        W79833  36.056  25.630   1.296
20573W        W79834  33.409  37.515  13.307
20574W        W79835  15.811  16.075  11.017
20575W        W79836  27.665  32.004   5.086
20576W        W79837  16.777   0.823   0.484
20577W        W79838  35.563  31.128  11.117
20578W        W79839   7.695  13.747   3.637
20579W        W79840  44.366   8.244   4.700
20580W        W79841  44.995   2.240   4.219
20581W        W79842  41.993  25.053   2.737
20582W        W79843   5.402   4.210  12.065
20583W        W79844  25.137   7.867   4.298
20584W        W79845  15.318  30.457   3.702
20585W        W79846  44.293   6.794  11.543
20586W        W79847  36.430  23.212  11.389
20587W        W79848   5.882  21.512  12.991
20588W        W79849  11.148  20.576  12.577
20589W        W79850  25.525  26.607   3.331
20590W        W79851  36.566  36.553   2.362
20591W        W79852  26.105  15.203  13.998
20592W        W79853   7.247  15.098   3.240
20593W        W79854   0.289  12.214  12.419
20594W        W79855  41.322  11.144  11.550
20595W        W79856  14.325   2.785   4.242
20596W        W79857  27.014  25.066  11.462
20597W        W79858  26.495  42.956  14.772
20598W        W79859   6.845  25.473  12.865
20599W        W79860  14.240   1.827  14.983
20600W        W79861  14.761   3.826   3.226
20601W        W79862  22.164  31.521  13.416
20602W        W79863  31.947  25.101   2.384
20603W        W79864  32.897  23.707   2.728
20604W        W79865  18.294  20.139  10.522
20605W        W79866  21.205  16.297  12.444
20606W        W79867  22.607  17.127   2.716
20607W        W79868   1.964  14.615  12.577
20608W        W79869  30.952   4.212   0.421
20609W        W79870  15.090  15.692  12.058
20610W        W79871  36.355  10.210  12.389
20611W        W79872  22.569  12.233  11.018
20612W        W79873  21.040  33.928   3.304
20613W        W79874  24.546   6.775  11.384
20614W        W79875  37.462  27.051  12.496
20615W        W79876   1.883  24.504  11.053
20616W        W79877  12.237   9.356   4.622
20617W        W79878   1.385   3.843   0.809
20618W        W79879  36.471  30.027   1.928
20619W        W79880  30.966  20.762  13.046
20620W        W79881  29.561  24.043  14.481
20621W        W79882  32.075   9.299   4.788
20622W        W79883  21.568  39.378   4.798
20623W        W79884  41.011  29.430  11.080
20624W        W79885  19.580  17.626  14.761
20625W        W79886   4.905   9.350   1.385
20626W        W79887  14.166  21.074   3.785
20627W        W79888  23.090  26.189  14.390
20628W        W79889   4.930  35.005   5.109
20629W        W79890  16.782  31.439  11.987
20630W        W79891  34.093  29.515  10.488
20631W        W79892   2.720   4.840  11.103
20632W        W79893  27.485  22.718  13.036
20633W        W79894  15.808  11.671   2.825
20634W        W79895  14.833  32.026   2.874
20635W        W79896  35.542  14.786   2.299
20636W        W79897  21.206  40.435  13.913
20637W        W79898  21.247  31.001   0.840
20638W        W79899   4.902  13.846   4.313
20639W        W79900  24.212  11.765   0.903
20640W        W79901   1.797   7.853  13.355
20641W        W79902  11.211  23.665  14.978
20642W        W79903  15.707  41.402   4.339
20643W        W79904  15.301  18.595  14.478
20644W        W79905  29.543  38.453   4.677
20645W        W79906  17.064  14.190   0.836
20646W        W79907   6.763  38.441   0.761
20647W        W79908  35.041  17.749  11.499
20648W        W79909  18.172  21.248  13.985
20649W        W79910   0.303  20.757  12.867
20650W        W79911  23.644  39.457  13.050
20651W        W79912  11.837  30.909  11.539
20652W        W79913  43.446  24.700  12.525
20653W        W79914  36.010  26.092   3.863
20654W        W79915  33.931  36.981  14.875
20655W        W79916  11.172  16.644  11.061
20656W        W79917  16.802  26.620   2.766
20657W        W79918  44.002  25.153   0.434
20658W        W79919  10.858  22.232  11.549
20659W        W79920  17.275  14.149  11.568
20660W        W79921  40.482   1.845  14.005
20661W        W79922  40.847  11.665   1.449
20662W        W79923  14.677  16.098   4.343
20663W        W79924   0.260   6.388   1.438
20664W        W79925  43.853  38.064   1.211
20665W        W79926  31.967  11.864  10.030
20666W        W79927  16.166  19.255   3.328
20667W        W79928   8.733  17.091  14.819
20668W        W79929   7.878  25.610  10.484
20669W        W79930   5.757  17.769   3.718
20670W        W79931  38.835  27.186  14.016
20671W        W79932  34.008  15.252   1.852
20672W        W79933  12.790   0.771  12.535
20673W        W79934  10.692  37.830   3.708
20674W        W79935  36.413  22.178   3.767
20675W        W79936   9.363  13.143   1.430
20676W        W79937  36.511  35.029  10.522
20677W        W79938  20.592  34.912  12.060
20678W        W79939  39.956  43.494  14.485
20679W        W79940  38.508  10.165   2.392
20680W        W79941  40.462   6.792   0.885
20681W        W79942  44.990  26.678  10.133
20682W        W79943   5.424  37.064  11.117
20683W        W79944  39.482  26.635   1.385
20684W        W79945  39.389  40.904   3.385
20685W        W79946  10.258   5.751   5.159
20686W        W79947  30.644  17.165  13.419
20687W        W79948  31.052  44.421  10.074
20688W        W79949  42.445  35.952   3.190
20689W        W79950  22.019  14.641   1.315
20690W        W79951  41.982  25.158  12.980
20691W        W79952  15.149  44.312   4.210
20692W        W79953   3.831  27.539   3.309
20693W        W79954  25.550   9.849   0.300
20694W        W79955  33.604  19.711   5.106
20695W        W79956   9.344  26.587  10.457
20696W        W79957   9.889  34.539   4.212
20697W        W79958  30.977   0.821   4.302
20698W        W79959  25.675  40.493   1.928
20699W        W79960   0.428  39.065   0.434
20700W        W79961   2.801  29.504   0.813
20701W        W79962  29.614  21.201  13.984
20702W        W79963  36.454  11.658  10.892
20703W        W79964  21.028  44.973  14.484
20704W        W79965  41.345  12.304   4.763
20705W        W79966  40.536  44.961  12.052
20706W        W79967  41.888  34.055   0.318
20707W        W79968  10.141  13.263   4.839
20708W        W79969   6.394  18.563   5.198
20709W        W79970  28.676  43.405   1.240
20710W        W79971  11.771  37.851  10.534
20711W        W79972  32.445  22.717  14.952
20712W        W79973  37.877  21.547  12.910
20713W        W79974  10.187  42.335   2.829
20714W        W79975   1.840   0.439  11.579
20715W        W79976  12.634  12.293  14.481
20716W        W79977  29.481   5.870  11.054
20717W        W79978  14.184  10.258   2.406
20718W        W79979  43.485  16.567   3.260
20719W        W79980  34.092  30.593  14.284
20720W        W79981  11.798   2.962  12.411
20721W        W79982  32.002  37.503  11.015
20722W        W79983  13.278  11.327  12.062
20723W        W79984  40.519  24.682  13.344
20724W        W79985  23.170  25.526   1.342
20725W        W79986  40.054   0.453   4.836
20726W        W79987   1.403  41.401  13.897
20727W        W79988  37.415   9.683   2.284
20728W        W79989  12.273   6.873  14.916
20729W        W79990  11.332  18.762  13.459
20730W        W79991  43.340  19.768  10.931
20731W        W79992   4.345  12.148   1.441
20732W        W79993  12.748  21.558  14.495
20733W        W79994   0.882   1.811  14.987
20734W        W79995   5.404  37.931  13.345
20735W        W79996   3.892  29.623   4.715
20736W        W79997  12.856   0.896  13.830
20737W        W79998  41.417  42.363  14.398
20738W        W79999  23.228   3.312   4.194
20739W        W80000  41.819  41.460   1.900
20740W        W80001  35.453  32.978   0.744
20741W        W80002   5.220   4.388  14.983
20742W        W80003  13.684  12.673  13.460
20743W        W80004  22.067   7.233   4.771
20744W        W80005  36.876  36.908  12.428
20745W        W80006  16.596  41.493  11.491
20746W        W80007  20.154  21.534  12.382
20747W        W80008  29.607  30.510  10.514
20748W        W80009  36.057  37.386  10.533
20749W        W80010  21.108  19.157   2.214
20750W        W80011  22.506  23.492   2.203
20751W        W80012  40.537  20.059   1.225
20752W        W80013  36.978  23.118   2.377
20753W        W80014  25.566   6.240   3.658
20754W        W80015   5.760  42.351  10.946
20755W        W80016  25.975  36.546  12.033
20756W        W80017  35.901  31.408   1.915
20757W        W80018  39.854  22.114   4.651
20758W        W80019  36.469   4.284  11.494
20759W        W80020  10.167   2.314   2.700
20760W        W80021  39.926  14.255  10.623
20761W        W80022  35.447   1.763  11.899
20762W        W80023   0.450   8.238  14.332
20763W        W80024  35.534   9.858  10.007
20764W        W80025   2.313  37.885   3.379
20765W        W80026  42.284  31.514  11.914
20766W        W80027  23.123  22.596  10.924
20767W        W80028  42.018  43.342   4.607
20768W        W80029   1.888  35.449   0.873
20769W        W80030  28.171  11.337   3.290
20770W        W80031   7.755  35.528  13.310
20771W        W80032  42.339  13.104  13.495
20772W        W80033   0.932  35.080   0.768
20773W        W80034  17.642  43.477  14.018
20774W        W80035   5.786  31.075  11.563
20775W        W80036  33.079  15.745  14.443
20776W        W80037   5.351  42.914  12.342
20777W        W80038  26.458  37.921  11.538
20778W        W80039  32.948  44.817  12.937
20779W        W80040  43.867  12.303  12.874
20780W        W80041  42.315  34.538   1.710
20781W        W80042  24.152  21.262   2.844
20782W        W80043  37.427  26.482   3.825
20783W        W80044  20.712   9.796   1.221
20784W        W80045  27.183  37.535  14.791
20785W        W80046  32.962  29.017  13.005
20786W        W80047  22.643   8.726  13.524
20787W        W80048  25.706  36.465   1.325
20788W        W80049   0.290  44.389   2.263
20789W        W80050  38.970   8.229  13.435
20790W        W80051  27.683  29.042  11.387
20791W        W80052  30.945  33.955  13.529
20792W        W80053  24.209  26.113  11.488
20793W        W80054  17.630  12.839  11.420
20794W        W80055   0.356   9.751  11.007
20795W        W80056  44.482  20.648  12.551
20796W        W80057  40.874  29.456  13.412
20797W        W80058  25.581  23.492  12.367
20798W        W80059  16.298   2.876   0.937
20799W        W80060  27.964  14.709  12.080
20800W        W80061  39.860  31.903  10.096
20801W        W80062  21.118  32.433  11.094
20802W        W80063   7.887   2.944   4.321
20803W        W80064  39.987  18.789  13.908
20804W        W80065  22.678  40.428   3.202
20805W        W80066  37.482  37.431  12.872
20806W        W80067  31.035  30.954  12.907
20807W        W80068  17.247  42.922   4.276
20808W        W80069   4.916  25.156   4.207
20809W        W80070   2.839  24.003  12.034
20810W        W80071   2.841  14.691   1.225
20811W        W80072  28.957  13.698  13.515
20812W        W80073  38.530   4.262  12.879
20813W        W80074  25.072   0.779   0.935
20814W        W80075  37.964  37.854  12.832
20815W        W80076  42.379   4.801  11.509
20816W        W80077   3.742  38.016   3.782
20817W        W80078  38.952  38.983  10.928
20818W        W80079  34.941  33.003  11.522
20819W        W80080   6.260   7.719  10.981
20820W        W80081   7.210  28.078   3.296
20821W        W80082  15.125  10.227   3.160
20822W        W80083  37.341   9.872   5.683
20823W        W80084  41.458  39.993  14.027
20824W        W80085  34.071  18.094   5.252
20825W        W80086   1.809   9.248  13.949
20826W        W80087  17.594  33.882  10.436
20827W        W80088   3.305  19.552   4.757
20828W        W80089  25.533  10.236  12.829
20829W        W80090  26.627  38.498   2.275
20830W        W80091  42.409   8.672  13.795
20831W        W80092   0.768  32.525   0.753
20832W        W80093  22.541  10.288  11.394
20833W        W80094   4.840  22.093   2.417
20834W        W80095  39.543   4.385  12.371
20835W        W80096  23.059  27.633  12.067
20836W        W80097  42.919  31.960  11.506
20837W        W80098   8.823  22.113   0.937
20838W        W80099   5.706  33.495   2.369
20839W        W80100   7.211  24.579   1.835
20840W        W80101  11.323  31.128   3.353
20841W        W80102  34.605  27.497   1.390
20842W        W80103  27.064  34.447  10.920
20843W        W80104  17.229  30.980   1.858
20844W        W80105  36.448   5.429  11.879
20845W        W80106   4.835   1.941  13.546
20846W        W80107  35.519  13.303   1.450
20847W        W80108  14.749  30.489  14.332
20848W        W80109  27.672   8.356  12.389
20849W        W80110  40.976  36.375   4.625
20850W        W80111  28.622  31.995  13.334
20851W        W80112  15.808  30.472  11.880
20852W        W80113  11.135   4.822   0.750
20853W        W80114  17.782  31.035  11.966
20854W        W80115  42.451   6.789  12.448
20855W        W80116   4.861  33.597  14.422
20856W        W80117  29.928  35.417  14.312
20857W        W80118  25.685  34.061   3.822
20858W        W80119  23.219  11.819  10.499
20859W        W80120  43.513  19.255   0.885
20860W        W80121  24.688  42.526   0.758
20861W        W80122  29.040   3.945  11.123
20862W        W80123  41.029   3.397   4.200
20863W        W80124   7.830  41.899  14.826
20864W        W80125  40.317   6.185   4.776
20865W        W80126  33.968  29.441   2.242
20866W        W80127   8.698  39.357  12.416
20867W        W80128  36.355  13.828   0.910
20868W        W80129   6.719  35.073  13.381
20869W        W80130  21.227  29.487  11.923
20870W        W80131  24.038  16.210   0.837
20871W        W80132  28.489  32.527   1.239
20872W        W80133  39.991  20.271  12.016
20873W        W80134  31.959  39.319  13.436
20874W        W80135  25.098  40.484   2.767
20875W        W80136  34.393  38.548   1.739
20876W        W80137  14.223  42.460  12.563
20877W        W80138  18.563   6.862   1.708
20878W        W80139  34.470  18.758  13.060
20879W        W80140  36.986  32.904   3.765
20880W        W80141  31.554  19.690  13.800
20881W        W80142   2.795  33.436   0.832
20882W        W80143  20.206  27.488  12.961
20883W        W80144  38.050  25.004  14.858
20884W        W80145  43.398  33.883   3.801
20885W        W80146  34.547  31.954   5.268
20886W        W80147  13.651  14.176   4.339
20887W        W80148   3.381  32.607  12.424
20888W        W80149   3.937   5.387  10.587
20889W        W80150  14.207  39.399  10.989
20890W        W80151   8.290   0.302   2.672
20891W        W80152  26.961  27.961  14.396
20892W        W80153  39.034   0.288   2.322
20893W        W80154   4.324  15.243  14.296
20894W        W80155  34.529   3.914   3.747
20895W        W80156  18.685  16.152  12.906
20896W        W80157  34.040  41.862  11.086
20897W        W80158  36.963   9.157   3.163
20898W        W80159  44.455   1.470  13.903
20899W        W80160   5.719  32.132   2.830
20900W        W80161   5.285  42.847   2.749
20901W        W80162   0.297  15.082  13.866
20902W        W80163  32.583  19.154   2.843
20903W        W80164  34.396  23.501  11.493
20904W        W80165  12.669   7.671  14.823
20905W        W80166  29.939  33.030   3.647
20906W        W80167   9.228  13.348   3.225
20907W        W80168  26.017  19.126  12.561
20908W        W80169  31.048  21.157   1.784
20909W        W80170   6.343  33.031   0.404
20910W        W80171  42.463  27.522   0.870
20911W        W80172  39.521  28.978  14.844
20912W        W80173  23.226  19.173  13.372
20913W        W80174  13.114  26.167  11.858
20914W        W80175  20.637  34.574  13.366
20915W        W80176  41.425  43.448  11.127
20916W        W80177  12.850  30.936   0.829
20917W        W80178  42.837   5.238  10.436
20918W        W80179  29.028  22.507  10.431
20919W        W80180  43.466  33.940  11.419
20920W        W80181  38.939   8.383   3.265
20921W        W80182  44.767  24.173   4.185
20922W        W80183   8.337  28.579   3.350
20923W        W80184  41.968  32.464  11.978
20924W        W80185  44.000  41.973  14.373
20925W        W80186  28.515  29.966  13.904
20926W        W80187  39.469  41.930   1.897
20927W        W80188  12.182  37.540  10.980
20928W        W80189   7.371   6.230   0.356
20929W        W80190   1.248   0.762  14.394
20930W        W80191  40.456  27.142  12.464
20931W        W80192   9.351  42.292  14.927
20932W        W80193  33.122  13.646   1.704
20933W        W80194   5.399   2.909   3.322
20934W        W80195  19.119  32.896  11.050
20935W        W80196   6.394  34.986   4.601
20936W        W80197   2.826  34.533   3.635
20937W        W80198  27.663  40.523   2.669
20938W        W80199   4.439  39.889   0.477
20939W        W80200  34.884  27.465  14.931
20940W        W80201  38.393  20.242  10.904
20941W        W80202  13.210  22.504   2.214
20942W        W80203  34.436  12.250   1.346
20943W        W80204  28.642  35.919  14.896
20944W        W80205  20.066  26.002  14.317
20945W        W80206  33.619  39.855  12.049
20946W        W80207  22.742  27.000   3.248
20947W        W80208  28.543  37.357   3.755
20948W        W80209  24.616  27.064   1.287
20949W        W80210  26.700  14.208  13.944
20950W        W80211  31.915  35.359  13.369
20951W        W80212   8.837  36.555   0.244
20952W        W80213   5.435   6.864   1.422
20953W        W80214   3.297  29.657  10.532
20954W        W80215  44.003  15.265   3.199
20955W        W80216  20.586  37.920   2.683
20956W        W80217   1.867  29.472  10.610
20957W        W80218   9.347  30.447   4.755
20958W        W80219  41.821  18.614   1.225
20959W        W80220   9.274  37.961  12.561
20960W        W80221   0.270  25.640  14.764
20961W        W80222   8.209  40.047  12.437
20962W        W80223  38.858  20.178   1.425
20963W        W80224   8.269  29.498  13.991
20964W        W80225   3.316  19.210   3.657
20965W        W80226  26.551  34.416  10.495
20966W        W80227  16.726  23.190   1.796
20967W        W80228  12.138   4.343   2.254
20968W        W80229  38.006  28.558   3.320
20969W        W80230  20.527   2.267   3.714
20970W        W80231  28.508   8.359   2.356
20971W        W80232  16.287   6.266   3.849
20972W        W80233  44.452  21.135  11.565
20973W        W80234  39.904  30.095   3.797
20974W        W80235   4.722  22.718   1.855
20975W        W80236  35.086   4.244   0.829
20976W        W80237   1.887  20.266  11.119
20977W        W80238  17.758  26.149  11.086
20978W        W80239  37.448  30.913   4.191
20979W        W80240  26.133  13.693   2.396
20980W        W80241   0.463  39.350  13.839
20981W        W80242   6.276  36.925   3.672
20982W        W80243  23.640  44.754  13.868
20983W        W80244  13.197  23.192   1.400
20984W        W80245   7.812  36.939   4.614
20985W        W80246   1.873   9.709   1.390
20986W        W80247  29.969  37.083  13.541
20987W        W80248  11.676   3.379  13.853
20988W        W80249  43.515  20.764  10.573
20989W        W80250  12.731   1.390   3.802
20990W        W80251  31.136  43.386  12.991
20991W        W80252  35.463  11.158  13.521
20992W        W80253  29.484   2.410   0.966
20993W        W80254  40.990  17.236   1.874
20994W        W80255  44.848  27.617  13.812
20995W        W80256  25.555  43.361  14.933
20996W        W80257  10.782  18.729   2.822
20997W        W80258  43.316   8.664   4.164
20998W        W80259  22.232  30.529  12.940
20999W        W80260  28.441   7.318  13.469
21000W        W80261  23.586  37.447  13.347
21001W        W80262  19.099  13.175   0.759
21002W        W80263   1.421  36.385  13.970
21003W        W80264  17.782  11.132  12.908
21004W        W80265  43.369   2.784   3.322
21005W        W80266   8.821   7.358  13.477
21006W        W80267  21.545   8.396   0.925
21007W        W80268  44.878   0.344   3.696
21008W        W80269  33.936  35.044  11.009
21009W        W80270   4.407  18.257   2.847
21010W        W80271  42.513  12.344  13.447
21011W        W80272  41.430  37.045   4.256
21012W        W80273   2.929  33.513  11.934
21013W        W80274  43.275  29.615   1.914
21014W        W80275   8.672  22.033  12.835
21015W        W80276  44.947  40.538  14.961
21016W        W80277   4.926  12.190   1.729
21017W        W80278  11.746  36.588   2.330
21018W        W80279  18.088   2.403  11.475
21019W        W80280  13.806  37.932  10.532
21020W        W80281  40.420   6.398   0.959
21021W        W80282  19.644   8.666  11.579
21022W        W80283  22.091  32.393   1.860
21023W        W80284  27.656  29.563   2.699
21024W        W80285  39.524   8.401  11.492
21025W        W80286  15.300  37.477   2.886
21026W        W80287  13.636  33.551  12.840
21027W        W80288  11.269  31.609   2.250
21028W        W80289  37.922   1.905   4.803
21029W        W80290  29.052  27.667  10.511
21030W        W80291  13.692  42.009  13.977
21031W        W80292  14.205   2.315  13.964
21032W        W80293  23.508  40.425  12.359
21033W        W80294   0.340  11.852   0.771
21034W        W80295  38.004   8.805   0.726
21035W        W80296  18.605  44.358   2.317
21036W        W80297  20.032  12.840  13.381
21037W        W80298   6.403  25.712   4.777
21038W        W80299  32.415  43.976   4.134
21039W        W80300  33.386  13.654  10.449
21040W        W80301  26.551  33.129  13.374
21041W        W80302   1.311  34.082  13.946
21042W        W80303  12.798  15.326   1.903
21043W        W80304  25.123  16.772  13.329
21044W        W80305   5.824  11.162  11.047
21045W        W80306  37.343  39.524  11.929
21046W        W80307  37.383   5.424  13.877
21047W        W80308   7.308  15.111   0.916
21048W        W80309  21.573  26.062  10.930
21049W        W80310  22.683  25.198   5.277
21050W        W80311  15.646  40.468   3.723
21051W        W80312  11.716  31.009  14.797
21052W        W80313  20.232  39.856   3.337
21053W        W80314  26.151  30.160  10.523
21054W        W80315  15.796   8.403   0.749
21055W        W80316  25.971  28.167   0.798
21056W        W80317  41.000  32.896  10.088
21057W        W80318  35.554  44.902   3.815
21058W        W80319  11.630  37.509   4.271
21059W        W80320   9.791   0.310   0.755
21060W        W80321  19.624  20.183   3.212
21061W        W80322   1.951  31.590   2.669
21062W        W80323  10.735  44.305   2.218
21063W        W80324  30.029  11.726  12.039
21064W        W80325   4.383  29.918   1.723
21065W        W80326  32.909   0.310  14.826
21066W        W80327  41.850   6.829  13.514
21067W        W80328  34.432  28.015  12.019
21068W        W80329   2.956   3.274  14.461
21069W        W80330  18.199  40.973  13.347
21070W        W80331  25.155   9.154  11.871
21071W        W80332  40.921  28.084  10.117
21072W        W80333  40.012  31.476  13.377
21073W        W80334  43.381  10.235  12.359
21074W        W80335  42.919  31.010   2.392
21075W        W80336  39.426   2.940  11.911
21076W        W80337  26.690   5.293  10.463
21077W        W80338   5.789   0.864   3.859
21078W        W80339  33.054  27.670  10.556
21079W        W80340  26.458  32.500   1.808
21080W        W80341  27.108  33.464   4.328
21081W        W80342  18.564  44.003  12.482
21082W        W80343  34.506  22.230   4.266
21083W        W80344  26.981   2.337  12.374
21084W        W80345  13.232  34.579  14.443
21085W        W80346  22.063  18.245  13.009
21086W        W80347   0.815  30.658  14.883
21087W        W80348  35.369  20.590   0.961
21088W        W80349  17.143  23.657  10.539
21089W        W80350  11.868  11.304   1.752
21090W        W80351  38.008  18.621  13.892
21091W        W80352  10.827  36.967  13.940
21092W        W80353  26.989  20.612   1.930
21093W        W80354  35.578  36.430   4.666
21094W        W80355  29.115  36.407  14.000
21095W        W80356  29.970  20.697  11.539
21096W        W80357   1.919   0.469  13.449
21097W        W80358   4.299   4.407  14.277
21098W        W80359  10.810   4.380  12.866
21099W        W80360  31.534  28.669   1.820
21100W        W80361  15.613   2.726  13.539
21101W        W80362  36.974   1.857  11.068
21102W        W80363  17.082  11.807   2.269
21103W        W80364  17.730   5.870  13.338
21104W        W80365  42.797  11.769  12.902
21105W        W80366  18.077  37.083  11.404
21106W        W80367   2.840  35.080   4.834
21107W        W80368  17.592  17.602   1.814
21108W        W80369  36.561  42.359   0.371
21109W        W80370  12.250  43.417   2.412
21110W        W80371  11.748   2.938  13.531
21111W        W80372  11.181  22.553   1.263
21112W        W80373  21.244  30.912   4.175
21113W        W80374  19.556  35.580  13.406
21114W        W80375  35.101  13.665   4.185
21115W        W80376  20.258   4.318  11.396
21116W        W80377  17.725  12.801   1.377
21117W        W80378  42.834  28.618  11.461
21118W        W80379  42.812  27.000  13.417
21119W        W80380  26.074  25.062   2.374
21120W        W80381   7.780  24.480   4.684
21121W        W80382  18.650   0.400   4.659
21122W        W80383  36.404  33.624  14.834
21123W        W80384  34.077  22.220   0.866
21124W        W80385  39.314  39.423  11.461
21125W        W80386  31.446  32.965   2.262
21126W        W80387  17.151  38.458  10.919
21127W        W80388  10.183  18.154   1.257
21128W        W80389  43.769  30.554   3.219
21129W        W80390  10.820  21.102  11.890
21130W        W80391   5.908  23.154   4.758
21131W        W80392  19.644  15.793   1.323
21132W        W80393  35.055  10.361  14.330
21133W        W80394  14.675  23.521   3.849
21134W        W80395  30.001  22.501  13.922
21135W        W80396  40.019  23.083   3.341
21136W        W80397  33.976  34.873  14.960
21137W        W80398   3.225  27.961   1.365
21138W        W80399  14.309  13.228   0.464
21139W        W80400  38.350  34.025  11.925
21140W        W80401   1.795   4.822  14.350
21141W        W80402  13.692   2.819   0.350
21142W        W80403   1.347  20.048  12.031
21143W        W80404  39.984   4.852   4.757
21144W        W80405   0.355  34.105  14.357
21145W        W80406  25.130  18.057   1.403
21146W        W80407   5.900  15.583  14.506
21147W        W80408   7.235  29.025   4.264
21148W        W80409  42.983  32.514   3.374
21149W        W80410   7.366  40.933  13.481
21150W        W80411  16.739  43.017  11.121
21151W        W80412  12.830  15.748  10.940
21152W        W80413  32.030  44.980   3.780
21153W        W80414  29.563  21.068   2.810
21154W        W80415  28.051  17.264  12.043
21155W        W80416  30.578  35.391   1.819
21156W        W80417  43.349  43.405   1.258
21157W        W80418  44.290  25.117  14.449
21158W        W80419  23.079  12.331  12.493
21159W        W80420   4.291   0.811   0.922
21160W        W80421  19.591  32.065   0.966
21161W        W80422  34.422   0.831  14.451
21162W        W80423  28.038  43.919  14.793
21163W        W80424   5.344  15.630   1.788
21164W        W80425  10.303  23.000   3.846
21165W        W80426  16.207  10.713   4.323
21166W        W80427  37.074  14.139  11.607
21167W        W80428  38.998  43.002   4.671
21168W        W80429  22.069  16.681  14.470
21169W        W80430  43.009   1.436  14.892
21170W        W80431  18.741  20.229   1.873
21171W        W80432  38.553  29.589   1.921
21172W        W80433  13.793  38.856  13.395
21173W        W80434  31.077  10.170  13.341
21174W        W80435  12.657  35.396   0.436
21175W        W80436  10.876  33.444  10.444
21176W        W80437  17.075  39.972   9.999
21177W        W80438  21.033  36.014  14.842
21178W        W80439   9.764  21.689   0.356
21179W        W80440  31.107  14.168  12.866
21180W        W80441   6.245  30.439   1.701
21181W        W80442   2.249  19.230  11.512
21182W        W80443   0.761  36.474   4.747
21183W        W80444  18.576  41.406  13.935
21184W        W80445  18.128   3.799  13.038
21185W        W80446   8.679   2.299  14.861
21186W        W80447  26.962  13.779   4.327
21187W        W80448  41.806  16.227   1.270
21188W        W80449  11.303  39.490   1.728
21189W        W80450  16.668   8.786   3.178
21190W        W80451  44.904  39.906  12.466
21191W        W80452  24.098   8.218   2.852
21192W        W80453  30.054  16.572   1.844
21193W        W80454  39.506   4.746  10.633
21194W        W80455  28.530   7.399   3.839
21195W        W80456  32.612   7.791   4.789
21196W        W80457  23.548   8.346   0.383
21197W        W80458   9.395  43.835  12.084
21198W        W80459  15.817   3.939  11.551
21199W        W80460   6.677  38.997  10.566
21200W        W80461  27.577  22.041  12.989
21201W        W80462  42.364  12.813  14.413
21202W        W80463  19.164  14.739   4.288
21203W        W80464  16.753  43.340  14.434
21204W        W80465  11.225  23.634  13.798
21205W        W80466  21.660  20.130  11.892
21206W        W80467  22.156  25.612   2.310
21207W        W80468  34.509  27.567   2.728
21208W        W80469  26.495  24.693  11.572
21209W        W80470  26.110   7.374  10.565
21210W        W80471  26.605  24.642  11.988
21211W        W80472  31.529  17.591   2.380
21212W        W80473  15.228  31.926   1.316
21213W        W80474  30.559  28.027  10.517
21214W        W80475  23.606   6.836  10.547
21215W        W80476  44.433   4.253   0.731
21216W        W80477  39.427   1.878   2.896
21217W        W80478  10.219  40.390   4.340
21218W        W80479  21.645  22.515  11.514
21219W        W80480  10.170  31.993  10.477
21220W        W80481  38.970  23.577   2.800
21221W        W80482   1.452  27.017  14.780
21222W        W80483   5.913  29.097   4.299
21223W        W80484  36.957  16.771   0.360
21224W        W80485   9.835   0.982   0.814
21225W        W80486   5.859  42.878   0.751
21226W        W80487  21.644   2.966   0.441
21227W        W80488   3.749  13.605   3.366
21228W        W80489  34.002  16.121   0.349
21229W        W80490  34.098   9.201   2.825
21230W        W80491  33.602  35.105  10.580
21231W        W80492  23.682  32.400   5.586
21232W        W80493  16.284  36.446  13.460
21233W        W80494  38.960  44.913   3.766
21234W        W80495   3.452  39.001   1.297
21235W        W80496  42.473  40.415   1.910
21236W        W80497  28.068  28.566   3.162
21237W        W80498  38.334  14.137   4.170
21238W        W80499  38.470   2.432   4.255
21239W        W80500   5.714  23.155  14.806
21240W        W80501  38.898  21.166  14.899
21241W        W80502  34.882  18.221  12.972
21242W        W80503   7.336  16.589   1.728
21243W        W80504  38.537  21.632  11.902
21244W        W80505   7.905  43.790   3.209
21245W        W80506  42.855  12.831   0.944
21246W        W80507  32.111  44.270   0.858
21247W        W80508  24.165  40.489  10.896
21248W        W80509  14.653  39.888   0.829
21249W        W80510  29.070  29.000  12.460
21250W        W80511  32.556  11.622  11.952
21251W        W80512  41.862  14.744   3.826
21252W        W80513  25.083  13.797   1.760
21253W        W80514  20.203  44.411   1.804
21254W        W80515  12.675  34.917  13.009
21255W        W80516  36.504  39.828   0.351
21256W        W80517   8.371  17.761  14.455
21257W        W80518  42.478   3.904   3.695
21258W        W80519  25.015   6.903   0.777
21259W        W80520  39.978  19.584   1.825
21260W        W80521   2.768  30.523  11.875
21261W        W80522  27.195  44.260  12.395
21262W        W80523  12.182  11.198  10.954
21263W        W80524  12.162  25.609  13.977
21264W        W80525  40.818  29.963   2.853
21265W        W80526   0.408  17.218   1.817
21266W        W80527  41.900  22.195   1.807
21267W        W80528  36.363  36.854   3.347
21268W        W80529  34.593  36.029   2.376
21269W        W80530   0.386  32.051  11.992
21270W        W80531  42.501  10.804  12.045
21271W        W80532  18.178  20.542   3.642
21272W        W80533  12.735  15.588  12.468
21273W        W80534  15.230  43.809  12.943
21274W        W80535  11.824  19.578   2.730
21275W        W80536   4.280  13.731   4.126
21276W        W80537  43.488  34.567  12.083
21277W        W80538  10.860  38.867  12.390
21278W        W80539  20.214   8.726   3.665
21279W        W80540  10.177   2.801  13.006
21280W        W80541   4.420  10.741   0.922
21281W        W80542   9.244  43.793  13.933
21282W        W80543  25.547   4.807  13.919
21283W        W80544   6.376  30.478   2.827
21284W        W80545   8.899  27.959  11.463
21285W        W80546  10.382   0.981  13.478
21286W        W80547  17.708   9.217  12.550
21287W        W80548   1.738  42.885   0.742
21288W        W80549  23.492  22.705  13.315
21289W        W80550  13.237  34.606  10.463
21290W        W80551  24.646  13.235  12.357
21291W        W80552  18.066  20.274  10.006
21292W        W80553  28.620  19.613  11.956
21293W        W80554  33.386  25.197   3.346
21294W        W80555  13.155  13.745  10.423
21295W        W80556  19.681  28.536  14.433
21296W        W80557  43.929  20.077   3.786
21297W        W80558  27.580  13.296   3.815
21298W        W80559  42.478   5.791   1.388
21299W        W80560  30.005  20.164  13.333
21300W        W80561  31.574  10.350  12.990
21301W        W80562  28.009  30.585  14.278
21302W        W80563   0.855  17.162  12.843
21303W        W80564  17.791  32.516  11.972
21304W        W80565  22.687  22.745  13.823
21305W        W80566  26.204  22.202  12.574
21306W        W80567  44.007   7.705  10.458
21307W        W80568  28.960  15.213  11.863
21308W        W80569  10.260  41.988   4.202
21309W        W80570  21.617  18.209   4.342
21310W        W80571  31.553  16.566   2.676
21311W        W80572  16.613  40.432  14.327
21312W        W80573  32.118   7.843  13.486
21313W        W80574  43.842  43.883   3.219
21314W        W80575  10.848  26.160  11.983
21315W        W80576  31.569  29.549   3.638
21316W        W80577   2.462  34.499  12.480
21317W        W80578  39.463   5.787  14.491
21318W        W80579  28.466  42.887   5.233
21319W        W80580  22.609  39.535   4.276
21320W        W80581  16.248  36.846  14.491
21321W        W80582  25.107  32.611   0.766
21322W        W80583  35.986  40.312  11.385
21323W        W80584  18.695  34.002  12.088
21324W        W80585  39.808  19.244  13.801
21325W        W80586  30.546  27.086  10.529
21326W        W80587   1.903  29.114   0.401
21327W        W80588   4.747  43.291   3.738
21328W        W80589  25.105  16.750  12.034
21329W        W80590   4.876  27.682  13.918
21330W        W80591  26.193  39.033   1.283
21331W        W80592  42.454  25.703   2.748
21332W        W80593  31.909  18.729  14.474
21333W        W80594  11.353  16.743   1.930
21334W        W80595  20.135  42.851   4.334
21335W        W80596  29.431  39.891   9.964
21336W        W80597  27.570  26.524   2.839
21337W        W80598  32.000  21.142  13.309
21338W        W80599  31.635  27.976  12.528
21339W        W80600  39.428  30.022  12.972
21340W        W80601  18.223  27.532  11.999
21341W        W80602   9.165  36.482  12.572
21342W        W80603  39.871  32.493  14.459
21343W        W80604  23.192   2.241   0.312
21344W        W80605  26.990   5.687  10.536
21345W        W80606  40.883  14.220   3.795
21346W        W80607  10.824  21.732   4.786
21347W        W80608  42.355  18.564  14.779
21348W        W80609  40.463  42.479  10.087
21349W        W80610  42.944  34.934   1.760
21350W        W80611   7.902  35.866  14.780
21351W        W80612  12.295  37.946   2.795
21352W        W80613  25.073   1.347  11.530
21353W        W80614  30.920  23.556   3.630
21354W        W80615   1.409  23.501   2.804
21355W        W80616   7.891  30.064   0.462
21356W        W80617  16.736   0.945  13.987
21357W        W80618   6.329  24.110  13.842
21358W        W80619   6.743   5.278  12.858
21359W        W80620  40.416  38.002  12.939
21360W        W80621  10.680  26.522  13.920
21361W        W80622  33.410  27.494   2.891
21362W        W80623  36.051  42.029   4.226
21363W        W80624  10.757  31.113  14.334
21364W        W80625  28.565  43.315   0.823
21365W        W80626  16.585  24.518   2.413
21366W        W80627  30.601  43.289   2.675
21367W        W80628  26.605  25.479   3.673
21368W        W80629   6.323   9.170   0.966
21369W        W80630  30.422  40.389   3.154
21370W        W80631  42.292   5.730  13.972
21371W        W80632  30.136  28.681   0.787
21372W        W80633  35.076  30.472  11.413
21373W        W80634  14.244  36.353   4.244
21374W        W80635  14.686  36.095  11.598
21375W        W80636  12.763  39.434  12.983
21376W        W80637  16.586  36.067   2.783
21377W        W80638   3.390  33.017   3.288
21378W        W80639  29.494  11.675   0.876
21379W        W80640  10.690  15.212   4.285
21380W        W80641  11.823  17.707   2.374
21381W        W80642   5.257  37.949   3.282
21382W        W80643  38.382  15.114  14.404
21383W        W80644  42.452   9.671   2.689
21384W        W80645   7.874  30.490  13.826
21385W        W80646   8.833  28.673   0.361
21386W        W80647   9.322  30.486   0.436
21387W        W80648   8.725   7.346  12.082
21388W        W80649  37.951  22.722   4.222
21389W        W80650  41.330   3.902   3.871
21390W        W80651  32.940   7.305  12.530
21391W        W80652  28.979  38.920   2.219
21392W        W80653  12.300  14.241   2.808
21393W        W80654  40.430  16.187  11.517
21394W        W80655  29.141  41.809   0.417
21395W        W80656  35.437   0.331  10.904
21396W        W80657   8.889  24.650   0.407
21397W        W80658  25.551   8.228   1.724
21398W        W80659  20.166   7.326   0.730
21399W        W80660  11.738  37.962   1.848
21400W        W80661  20.031  12.129  14.904
21401W        W80662  10.354  13.143   2.722
21402W        W80663   7.257  28.173   0.275
21403W        W80664  37.867  21.556   3.264
21404W        W80665  19.272  11.298  11.072
21405W        W80666  37.925  29.595  13.430
21406W        W80667  35.461  26.018   1.905
21407W        W80668  29.548  10.181  10.937
21408W        W80669  36.478  34.085  12.552
21409W        W80670  12.634  22.191   3.187
21410W        W80671  23.506  33.389  11.590
21411W        W80672  12.220  14.282   1.768
21412W        W80673  13.698   8.380   1.249
21413W        W80674   2.243  39.498  13.388
21414W        W80675  39.361   3.419   0.900
21415W        W80676   4.436  26.528  13.036
21416W        W80677  39.879  13.351  10.531
21417W        W80678   0.352   7.890  11.090
21418W        W80679  38.524  44.415  13.381
21419W        W80680  36.498  12.784  12.548
21420W        W80681  31.004  15.147   1.895
21421W        W80682   3.916  28.535  13.331
21422W        W80683  27.496   0.286  14.313
21423W        W80684   1.263  30.653   4.833
21424W        W80685   8.332  22.248   2.257
21425W        W80686  18.158  44.303  14.915
21426W        W80687  17.201  27.187   2.838
21427W        W80688   1.315  12.661  13.361
21428W        W80689   8.160  43.338   3.695
21429W        W80690  43.483  13.174  14.990
21430W        W80691   6.917  41.333   0.824
21431W        W80692   9.884  39.846   4.722
21432W        W80693  29.533  13.817  12.939
21433W        W80694  14.833   9.194   4.297
21434W        W80695  18.182  19.152  14.991
21435W        W80696   8.885  21.046   4.278
21436W        W80697   7.406  19.759   0.289
21437W        W80698  28.565   1.401   3.178
21438W        W80699  36.858   3.274   4.786
21439W        W80700   5.299  30.114   2.290
21440W        W80701   9.221  15.110  12.373
21441W        W80702   5.326  34.106  13.486
21442W        W80703  17.557  18.074  12.053
21443W        W80704  18.096   7.323  14.028
21444W        W80705   4.775  24.164   5.315
21445W        W80706  42.804  30.084   1.791
21446W        W80707  36.592  38.506   1.733
21447W        W80708  34.097   9.350  13.977
21448W        W80709  40.002   5.234   1.875
21449W        W80710  19.223   7.765  14.353
21450W        W80711   0.873   5.916   1.915
21451W        W80712  21.147  39.445  14.770
21452W        W80713  34.901  39.478  13.905
21453W        W80714   5.927  20.265  10.495
21454W        W80715   0.462  31.977  10.406
21455W        W80716  42.026  37.425   1.297
21456W        W80717  33.449  17.599  12.974
21457W        W80718  42.947  34.398   1.243
21458W        W80719  23.505  11.661  14.478
21459W        W80720  25.174  31.508  10.080
21460W        W80721   3.417  27.197  12.926
21461W        W80722  41.528  33.992   3.863
21462W        W80723   5.263   4.730  12.497
21463W        W80724  29.620  33.122  14.929
21464W        W80725  38.837  11.854   3.827
21465W        W80726  34.992  15.269  12.984
21466W        W80727  34.052  18.618   1.299
21467W        W80728  36.984   2.248   3.359
21468W        W80729  24.480   3.256  10.610
21469W        W80730   9.248  35.955  13.340
21470W        W80731   3.778  39.833  11.105
21471W        W80732   5.429  34.434   1.221
21472W        W80733  34.917   1.301  12.866
21473W        W80734  42.859   6.834   2.233
21474W        W80735   6.355  30.604  12.532
21475W        W80736  41.844   6.869  11.600
21476W        W80737  11.709  15.739   0.265
21477W        W80738  37.886   9.699   1.390
21478W        W80739   9.220  25.143  12.870
21479W        W80740   6.362  19.614  12.356
21480W        W80741   5.740  25.054  14.912
21481W        W80742   9.770   0.441  12.014
21482W        W80743  10.207  16.297  13.417
21483W        W80744   7.801  27.542   3.170
21484W        W80745  16.153  33.474  11.863
21485W        W80746   0.457   7.285   4.271
21486W        W80747  35.451  42.319  14.939
21487W        W80748  36.517  15.321   4.310
21488W        W80749  42.399  42.492  13.997
21489W        W80750  43.270  34.610   0.329
21490W        W80751  22.086  11.624   3.192
21491W        W80752  27.951  40.924  10.957
21492W        W80753   1.445  12.699  11.977
21493W        W80754   8.373   3.461   3.303
21494W        W80755  16.221  11.173   0.787
21495W        W80756  26.107   0.959   1.739
21496W        W80757  40.303  41.032   1.420
21497W        W80758   6.224   5.350  12.962
21498W        W80759  15.123   0.848  14.906
21499W        W80760  42.881  36.874   2.281
21500W        W80761  38.486  43.389  11.895
21501W        W80762  33.942  31.981   3.800
21502W        W80763  30.045  29.497  13.434
21503W        W80764  24.646  41.819  12.833
21504W        W80765   3.851   7.881  14.859
21505W        W80766   8.777  18.054  13.935
21506W        W80767  36.064  37.454   1.251
21507W        W80768  35.064   8.208   2.234
21508W        W80769  27.634  16.586  12.405
21509W        W80770  38.437  25.670  14.890
21510W        W80771  30.497  42.891   1.804
21511W        W80772  17.097  15.796   2.818
21512W        W80773  25.711  31.419   3.244
21513W        W80774  11.242  12.256   4.791
21514W        W80775  39.958  31.144  11.465
21515W        W80776  38.518  25.071   1.241
21516W        W80777  18.222  36.024   0.728
21517W        W80778  28.443  35.974   0.381
21518W        W80779  30.605   6.898  10.969
21519W        W80780  17.682  24.506  14.792
21520W        W80781   3.810  21.082   3.804
21521W        W80782  41.451  36.962  10.416
21522W        W80783   3.292  38.449   2.212
21523W        W80784  24.687   2.417  13.445
21524W        W80785  27.615  16.111  11.494
21525W        W80786  11.192  23.521   3.339
21526W        W80787   7.698  32.055   3.159
21527W        W80788  37.467  22.157  13.850
21528W        W80789  34.460  12.345   0.814
21529W        W80790   6.301  14.649  12.500
21530W        W80791   2.868  20.089  10.580
21531W        W80792  28.065  23.113  10.926
21532W        W80793   8.202  11.270   2.760
21533W        W80794  34.997   5.409   0.965
21534W        W80795   1.880   6.889   3.680
21535W        W80796  25.076   2.845   2.785
21536W        W80797  20.064  12.853  10.034
21537W        W80798   9.731  27.593  14.899
21538W        W80799  42.304  12.292  12.552
21539W        W80800  11.358  27.636  10.998
21540W        W80801  13.824  19.223  14.377
21541W        W80802  14.635  21.534  10.989
21542W        W80803  35.450   3.249  13.942
21543W        W80804   9.793   2.320   1.231
21544W        W80805  24.194   1.269   3.666
21545W        W80806   2.336  39.546  13.909
21546W        W80807  28.962  11.768   2.739
21547W        W80808  34.390  28.552   0.415
21548W        W80809  32.464  38.928  13.908
21549W        W80810  10.812  20.763   4.636
21550W        W80811   8.798  27.565   3.364
21551W        W80812  17.622   6.682   5.279
21552W        W80813  44.845   6.879  14.512
21553W        W80814  34.975   0.846   4.128
21554W        W80815   2.851  33.914   0.861
21555W        W80816  31.573  13.617  11.426
21556W        W80817  14.605  35.917   5.209
21557W        W80818  34.914   1.280   0.957
21558W        W80819  37.557  17.280   4.838
21559W        W80820   2.737   0.760   1.226
21560W        W80821   6.349  44.951  10.072
21561W        W80822  43.827  19.091   1.425
21562W        W80823  18.745  31.472   2.883
21563W        W80824  13.802  41.493  13.537
21564W        W80825  26.011  38.498  11.889
21565W        W80826   7.173  13.735   4.261
21566W        W80827  26.076   6.328   4.771
21567W        W80828  24.135   6.759   0.752
21568W        W80829  11.284   7.846  13.457
21569W        W80830   6.378  14.808  10.628
21570W        W80831   6.848  23.057   0.481
21571W        W80832  37.495  12.280   1.886
21572W        W80833  10.773  26.647  10.522
21573W        W80834  19.738  43.294   4.768
21574W        W80835   3.841  25.556   4.808
21575W        W80836  35.095  11.854   0.298
21576W        W80837   0.970  26.953   1.831
21577W        W80838   3.815  30.416   0.795
21578W        W80839  36.975  19.198   3.357
21579W        W80840  14.602  20.757   4.252
21580W        W80841  29.450  36.095  14.382
21581W        W80842  41.946  27.953   3.230
21582W        W80843  17.168   3.416  12.058
21583W        W80844  26.208   0.310  11.594
21584W        W80845  19.057   0.949  12.862
21585W        W80846  16.715  11.365   1.308
21586W        W80847   5.865  13.189   3.707
21587W        W80848  31.609   9.386   3.207
21588W        W80849   7.240  39.491  13.499
21589W        W80850   7.379  28.985  10.626
21590W        W80851  10.761  38.860   3.357
21591W        W80852  13.623  34.611  11.377
21592W        W80853   8.209   3.240  13.064
21593W        W80854   9.657  21.675  10.489
21594W        W80855  36.533  19.624   4.289
21595W        W80856   9.800  26.634   2.824
21596W        W80857  17.618  29.429   3.369
21597W        W80858  28.177  18.556  11.861
21598W        W80859   9.682  18.563   2.225
21599W        W80860   4.407  17.622  14.877
21600W        W80861  11.174  35.494  10.411
21601W        W80862  25.977   4.773   2.308
21602W        W80863  26.550  11.859   0.930
21603W        W80864  12.668   4.303   1.340
21604W        W80865  10.749  39.002   1.284
21605W        W80866  36.520  40.480  10.921
21606W        W80867  28.453  36.068   1.359
21607W        W80868  30.611  12.774  10.899
21608W        W80869  39.868   7.205   4.303
21609W        W80870  26.016   2.879  10.151
21610W        W80871  21.640  29.666   3.812
21611W        W80872  29.617   1.352   2.328
21612W        W80873   4.753  26.682  14.369
21613W        W80874  23.635   7.721   4.685
21614W        W80875  24.080  25.493  14.490
21615W        W80876  17.095  38.854  14.903
21616W        W80877  20.060  12.696   2.696
21617W        W80878  16.759   2.840  14.480
21618W        W80879  13.786  19.674   3.809
21619W        W80880  37.352   4.817  13.036
21620W        W80881  26.503   6.767  11.998
21621W        W80882  33.887   8.234   4.210
21622W        W80883  14.113  22.091   0.394
21623W        W80884  42.824  38.332   1.325
21624W        W80885   1.381  28.072  10.894
21625W        W80886   2.740  28.588  12.564
21626W        W80887   0.438  26.981  12.938
21627W        W80888  34.908  19.561   5.305
21628W        W80889  36.416  22.652   1.844
21629W        W80890   6.692  12.710  10.444
21630W        W80891  38.532  17.115  13.341
21631W        W80892  17.083  12.279  13.931
21632W        W80893   2.905  27.465  12.419
21633W        W80894  26.578  23.185   1.382
21634W        W80895  31.091  32.560   4.612
21635W        W80896  26.078  28.938   9.654
21636W        W80897  14.639   8.386   0.329
21637W        W80898  28.523  35.996   3.290
21638W        W80899  20.273  27.040  14.763
21639W        W80900  34.899  44.931   0.920
21640W        W80901   4.873  43.907  12.052
21641W        W80902   7.288  29.106   1.285
21642W        W80903  10.745  43.514  14.327
21643W        W80904  11.171  33.082   3.153
21644W        W80905  32.605  42.946  12.839
21645W        W80906  42.993   0.289   1.293
21646W        W80907  29.489  34.468  13.841
21647W        W80908  33.417  44.963  11.418
21648W        W80909   3.282  28.157   0.361
21649W        W80910  38.034  12.747  12.501
21650W        W80911  35.906   1.237   0.277
21651W        W80912  41.466  15.219  14.400
21652W        W80913   1.836   6.885   2.833
21653W        W80914  11.131  18.580   1.838
21654W        W80915  29.036  20.056  14.468
21655W        W80916  37.459  43.931   4.136
21656W        W80917  33.526  36.920   4.349
21657W        W80918  15.664  42.416   0.366
21658W        W80919   0.438  24.528  12.461
21659W        W80920   1.786  20.579   0.410
21660W        W80921  39.974  22.508   2.862
21661W        W80922  33.072  41.345  11.106
21662W        W80923   4.220  28.453  14.893
21663W        W80924  34.392  38.992  12.877
21664W        W80925  22.103   5.902  11.108
21665W        W80926  38.472   7.385   1.871
21666W        W80927  22.677   7.314   3.791
21667W        W80928  23.140  26.976  14.002
21668W        W80929  22.088  44.807   1.757
21669W        W80930  44.491   2.737  10.957
21670W        W80931  29.067  23.031   2.184
21671W        W80932  29.060  11.737   0.898
21672W        W80933  23.169  30.959   5.109
21673W        W80934   5.437  15.785  12.416
21674W        W80935  18.102  29.440  13.033
21675W        W80936  10.796   7.737  14.025
21676W        W80937  11.167   3.428  10.590
21677W        W80938  10.756  21.576   3.698
21678W        W80939   0.773  18.653   2.203
21679W        W80940  17.178  43.390  12.006
21680W        W80941   9.656  19.079   1.906
21681W        W80942   8.394  21.688  12.446
21682W        W80943   0.891   0.457  13.517
21683W        W80944   1.306  36.586   1.311
21684W        W80945   3.286  34.541   2.293
21685W        W80946  32.932   9.652  13.450
21686W        W80947   2.951  23.565   2.730
21687W        W80948   9.787  12.839   4.126
21688W        W80949  35.565   6.221   3.310
21689W        W80950   4.365  17.112  11.474
21690W        W80951  43.458  11.698  14.943
21691W        W80952  30.490  10.146   0.728
21692W        W80953   1.796   5.330   2.403
21693W        W80954  24.031  24.478  14.770
21694W        W80955  41.321  23.609  11.094
21695W        W80956  32.614   6.364  14.835
21696W        W80957  12.316   7.261  11.374
21697W        W80958  26.563   0.794  13.011
21698W        W80959  38.375  12.727  12.411
21699W        W80960   1.798  36.031   1.266
21700W        W80961  38.438  15.269  13.999
21701W        W80962  22.251  22.169   3.700
21702W        W80963  14.260  21.174   1.333
21703W        W80964   8.881  33.605  14.332
21704W        W80965  44.958  16.792   2.812
21705W        W80966  20.610  34.580  14.966
21706W        W80967  22.512   8.164  11.036
21707W        W80968  35.107  42.507  10.448
21708W        W80969  34.022  17.214  14.759
21709W        W80970   1.349  15.619  11.550
21710W        W80971  30.651   3.888   1.221
21711W        W80972  13.217   1.260  10.578
21712W        W80973  21.519  12.143   3.825
21713W        W80974  22.595   1.856  13.018
21714W        W80975  41.903   6.707  10.499
21715W        W80976   9.736  23.189  10.575
21716W        W80977  39.066  17.660   2.251
21717W        W80978   4.315  44.490  11.529
21718W        W80979  10.346   9.162   0.356
21719W        W80980  24.551   5.701   3.297
21720W        W80981  38.021  22.114   4.137
21721W        W80982  38.521  41.824  12.831
21722W        W80983  12.739  23.215   1.242
21723W        W80984  26.116  29.990  11.053
21724W        W80985  21.722  44.862  13.855
21725W        W80986   4.721   2.256   3.368
21726W        W80987   8.798  24.976  13.371
21727W        W80988  11.341   8.180  11.478
21728W        W80989  18.264  13.680  12.381
21729W        W80990  34.607  32.915  14.283
21730W        W80991   7.684  29.009   4.597
21731W        W80992  18.278  33.494  13.935
21732W        W80993   9.680  13.329  14.949
21733W        W80994   9.269  39.532   2.353
21734W        W80995  11.736  30.046   0.879
21735W        W80996  34.038  10.211  10.583
21736W        W80997  15.276  25.570   2.814
21737W        W80998  11.842   9.225   1.224
21738W        W80999  34.986  39.058   1.405
21739W        W81000   7.732   2.448   3.366
21740W        W81001   8.879  18.694   0.958
21741W        W81002   3.760  28.123   0.747
21742W        W81003  11.130  34.937   3.826
21743W        W81004  20.645   0.952   2.662
21744W        W81005   8.857  21.518   2.764
21745W        W81006  12.630  30.475   0.779
21746W        W81007  10.242  19.533  12.376
21747W        W81008   5.275  42.794  13.349
21748W        W81009   1.376   7.253  10.405
21749W        W81010  29.658  18.710  13.963
21750W        W81011  37.889  41.490  13.333
21751W        W81012   0.449  27.660  11.054
21752W        W81013  32.573   5.734   3.681
21753W        W81014   6.297  17.256  13.872
21754W        W81015   5.806  39.482   2.327
21755W        W81016  36.931  26.525   0.794
21756W        W81017  39.021  10.734  11.054
21757W        W81018  27.510  24.193   3.659
21758W        W81019   3.727   6.251   3.175
21759W        W81020  35.004  35.864  13.990
21760W        W81021  31.912   6.843  13.478
21761W        W81022   9.813  41.336   3.159
21762W        W81023  25.557  13.698  11.904
21763W        W81024  11.697  23.204   1.866
21764W        W81025  42.860  32.091  10.442
21765W        W81026   1.249  32.393  11.552
21766W        W81027  17.090  17.233   1.407
21767W        W81028  12.819  20.663   1.819
21768W        W81029   4.699  23.080  12.962
21769W        W81030  33.059  38.335   2.713
21770W        W81031  10.812   6.366  14.822
21771W        W81032  25.974  42.853  14.008
21772W        W81033  22.516  19.205   3.214
21773W        W81034  43.888   3.934  10.637
21774W        W81035  13.672  42.928   1.910
21775W        W81036  41.333  37.446   3.272
21776W        W81037  40.490  32.435   0.320
21777W        W81038   3.793  16.149   1.799
21778W        W81039   9.811   1.970  14.506
21779W        W81040  36.070   1.440   4.281
21780W        W81041   2.453  21.737   1.788
21781W        W81042  18.616  14.188  13.436
21782W        W81043  24.151  40.808  13.802
21783W        W81044   4.379  23.673  11.415
21784W        W81045  32.139   9.771  12.539
21785W        W81046  40.850  33.582  10.136
21786W        W81047  33.421  42.960  10.548
21787W        W81048  16.292  13.637   3.795
21788W        W81049  31.955  41.440  10.126
21789W        W81050  38.484   9.213  10.927
21790W        W81051  39.066  35.940  12.957
21791W        W81052  26.512  16.776  13.999
21792W        W81053  29.441  12.194   2.265
21793W        W81054  11.712  14.771   3.724
21794W        W81055  31.083  40.814  12.369
21795W        W81056  30.153   0.907   2.220
21796W        W81057  39.890   9.744   4.256
21797W        W81058   8.265  38.021  12.979
21798W        W81059  10.668  44.273   9.959
21799W        W81060  26.476   0.813   0.431
21800W        W81061   2.905  30.109   1.344
21801W        W81062  19.197  29.964  12.856
21802W        W81063  28.578   0.283  13.548
21803W        W81064  18.208   1.918  11.976
21804W        W81065  16.172  34.911   3.687
21805W        W81066  35.421  12.195   4.687
21806W        W81067  38.074  29.124  12.427
21807W        W81068   0.439  34.596   0.731
21808W        W81069   5.229  32.483  12.372
21809W        W81070  26.063   9.373   3.310
21810W        W81071  38.844  29.581   2.383
21811W        W81072  28.084  38.914  11.432
21812W        W81073  20.090  31.020  12.010
21813W        W81074  36.019  23.152   2.668
21814W        W81075  32.393  36.097  13.905
21815W        W81076   7.322   2.924   2.241
21816W        W81077   1.341   1.787  11.035
21817W        W81078  44.393  27.952  13.526
21818W        W81079  32.095  14.240   0.385
21819W        W81080  13.303   1.964  14.367
21820W        W81081  44.390  19.148   4.640
21821W        W81082  42.291  17.570  12.472
21822W        W81083  13.172  22.577   3.692
21823W        W81084  28.650  39.485  10.420
21824W        W81085  37.496   7.857   0.336
21825W        W81086  33.500  21.516  12.026
21826W        W81087  15.126  21.245   0.907
21827W        W81088   1.971  28.976  12.392
21828W        W81089   4.433  31.511  11.007
21829W        W81090  15.148  19.688  13.819
21830W        W81091  30.085   2.785   1.774
21831W        W81092   4.852  21.040  13.354
21832W        W81093  18.209  36.855  14.776
21833W        W81094  22.641  34.409   3.189
21834W        W81095  41.803  25.193  12.355
21835W        W81096  34.519  31.581  10.948
21836W        W81097  27.625  35.993   2.777
21837W        W81098   7.233  23.226   3.225
21838W        W81099  24.563   0.791   2.740
21839W        W81100  35.553  43.792  13.963
21840W        W81101  35.007  34.509   2.354
21841W        W81102  39.515  42.825   3.187
21842W        W81103  22.575   2.368   1.420
21843W        W81104  13.821  25.620   4.175
21844W        W81105  43.918  40.537  12.033
21845W        W81106  37.033  30.576   3.201
21846W        W81107   6.189  21.095  12.851
21847W        W81108  36.418  20.272   1.232
21848W        W81109   7.374   6.307  14.358
21849W        W81110  43.416  16.288   3.359
21850W        W81111  29.130  40.466   4.301
21851W        W81112  35.102  24.132   1.764
21852W        W81113   7.685   0.816   5.235
21853W        W81114  44.950  24.226   2.285
21854W        W81115  26.080  40.328  11.960
21855W        W81116   5.870  19.693  12.952
21856W        W81117  17.266  44.273   1.722
21857W        W81118   5.805  19.121  11.382
21858W        W81119  38.971  21.202  11.994
21859W        W81120  14.254  16.752  14.296
21860W        W81121   8.676   6.361  14.369
21861W        W81122  27.524  25.582   4.170
21862W        W81123  23.067  26.170  12.901
21863W        W81124  22.725  37.867   1.304
21864W        W81125  19.050  22.112  13.796
21865W        W81126  29.483  31.908   9.990
21866W        W81127  38.331  16.603  12.826
21867W        W81128  25.993  10.838  11.100
21868W        W81129   0.303  34.462   4.139
21869W        W81130  16.681  38.869   4.709
21870W        W81131  10.755  20.669  10.994
21871W        W81132   4.215  44.799  10.597
21872W        W81133  39.925   4.211  12.881
21873W        W81134  42.868   5.418   2.399
21874W        W81135  25.650  37.578  11.914
21875W        W81136  36.042  37.001  12.066
21876W        W81137   2.852  29.918   4.607
21877W        W81138   2.951  17.628  11.406
21878W        W81139   8.207  20.672  12.383
21879W        W81140  38.875  43.986  14.346
21880W        W81141   4.711  19.600   3.816
21881W        W81142  27.195  12.186  13.007
21882W        W81143  23.510  24.499  13.025
21883W        W81144  35.562  23.701  14.020
21884W        W81145  29.454   8.297  11.093
21885W        W81146  30.646   8.886   1.742
21886W        W81147  29.033   1.299   9.988
21887W        W81148  23.990  40.036  13.406
21888W        W81149  17.244  22.695   2.296
21889W        W81150  26.118   8.668  11.545
21890W        W81151  33.938  37.853   3.744
21891W        W81152   7.809  36.942  12.053
21892W        W81153   1.760  35.887   3.847
21893W        W81154   4.335  12.637   0.450
21894W        W81155   4.751   4.305   1.769
21895W        W81156  30.093   7.827   4.354
21896W        W81157   3.915  39.424   1.696
21897W        W81158   3.872  13.618  10.584
21898W        W81159  42.896   7.238   2.314
21899W        W81160  29.081  25.667  14.414
21900W        W81161  42.791   9.827   3.303
21901W        W81162  28.168  40.958  14.476
21902W        W81163  26.578  20.578   2.697
21903W        W81164  14.109  38.948  11.870
21904W        W81165  35.893  38.948   1.402
21905W        W81166  12.702  38.858  11.925
21906W        W81167  23.635  12.814  12.005
21907W        W81168  23.573  25.178   4.345
21908W        W81169  19.774  18.131  11.865
21909W        W81170   4.209  35.472  13.425
21910W        W81171   4.808  19.558   3.146
21911W        W81172  41.925  16.646  11.422
21912W        W81173  10.733   9.796  12.956
21913W        W81174  35.013  11.679   3.860
21914W        W81175  19.763   8.360  11.459
21915W        W81176  43.335  34.096  12.868
21916W        W81177   7.815  29.991   1.398
21917W        W81178   9.287  38.436   1.327
21918W        W81179  32.127  34.580  12.059
21919W        W81180  35.932   0.486  14.022
21920W        W81181   3.752  10.273   4.799
21921W        W81182  27.599  14.327  12.867
21922W        W81183  15.626  31.965   3.208
21923W        W81184  31.106   1.457   4.170
21924W        W81185  31.995  17.755   1.282
21925W        W81186  33.612  31.593   1.328
21926W        W81187  30.078   0.933   1.798
21927W        W81188   5.296  17.731  12.000
21928W        W81189  25.990   7.310  13.501
21929W        W81190  22.609  10.263  10.006
21930W        W81191  42.997  23.027   1.913
21931W        W81192  16.698  36.849   0.326
21932W        W81193  37.837   4.319   4.616
21933W        W81194  43.441  23.082  11.596
21934W        W81195  29.170   6.746   3.699
21935W        W81196   1.265  21.620   1.733
21936W        W81197  20.206  30.424   1.349
21937W        W81198  22.226   1.848   1.831
21938W        W81199  26.551  12.739   3.750
21939W        W81200  11.252  28.505   2.754
21940W        W81201  22.200   3.907  11.466
21941W        W81202  15.169  10.854  11.598
21942W        W81203  13.138  15.652   2.245
21943W        W81204  39.550  19.737  14.015
21944W        W81205  34.476   0.751  14.940
21945W        W81206  11.674  29.564   4.728
21946W        W81207  42.840  18.288  12.993
21947W        W81208   4.215   8.364  12.882
21948W        W81209  16.643  15.277   3.690
21949W        W81210  41.820  22.741  12.922
21950W        W81211  40.028  34.970   0.464
21951W        W81212  41.037   2.414  12.526
21952W        W81213  20.143  33.097   1.371
21953W        W81214   0.343  11.245  11.592
21954W        W81215   6.808   3.248   2.685
21955W        W81216  18.690  17.692  11.526
21956W        W81217  12.726  17.179   1.214
21957W        W81218  35.096  44.004   4.819
21958W        W81219  34.557  12.654   3.354
21959W        W81220  34.492  18.057  11.918
21960W        W81221  26.199  14.749   4.816
21961W        W81222  26.468  38.844   1.866
21962W        W81223   1.354  35.410  14.841
21963W        W81224   4.865  37.889  14.287
21964W        W81225  35.009  11.205  13.916
21965W        W81226  20.525  13.322   3.770
21966W        W81227  22.014   0.811   0.279
21967W        W81228  40.351  21.698  14.814
21968W        W81229   0.819  40.308   1.916
21969W        W81230  44.814  29.659   1.933
21970W        W81231  16.758  26.136  13.842
21971W        W81232  39.489  18.057  13.457
21972W        W81233  29.501  14.177  13.489
21973W        W81234  15.582   4.775   1.838
21974W        W81235  13.280  14.153   9.960
21975W        W81236   1.372   6.776   2.728
21976W        W81237  38.477  23.692  12.066
21977W        W81238  28.667  19.244   2.829
21978W        W81239  35.361   9.361  10.973
21979W        W81240  17.195   3.938  13.817
21980W        W81241  10.823  19.634  11.430
21981W        W81242  28.598  14.735   3.211
21982W        W81243  21.710  26.478   4.229
21983W        W81244  38.327  22.109  11.489
21984W        W81245   2.955  38.012  13.360
21985W        W81246   5.809  21.585  10.980
21986W        W81247  18.663  18.272  12.551
21987W        W81248  26.149  39.473  14.388
21988W        W81249  30.145  36.085  14.323
21989W        W81250  38.902  15.789   2.665
21990W        W81251   6.825  33.606   0.294
21991W        W81252  17.662  22.511   2.688
21992W        W81253   3.894   9.388   1.345
21993W        W81254  19.053  31.483  14.484
21994W        W81255  31.085  27.006  13.992
21995W        W81256  26.464   3.425  11.480
21996W        W81257   6.763  32.977  12.915
21997W        W81258   9.729  14.653   4.204
21998W        W81259  23.715  37.365   2.405
21999W        W81260  44.927  42.445   3.333
22000W        W81261   8.841  35.541  14.856
22001W        W81262  13.235  35.012   3.769
22002W        W81263  13.319  18.597   1.858
22003W        W81264  22.740  15.603   9.939
22004W        W81265   0.420   0.433   0.757
22005W        W81266   2.910  39.040   0.727
22006W        W81267  18.568  11.334   4.652
22007W        W81268   6.349  18.263  13.863
22008W        W81269  38.414  32.106  14.903
22009W        W81270  13.605   0.923  10.921
22010W        W81271   9.742  10.192   1.852
22011W        W81272  26.203   0.480  12.390
22012W        W81273  40.394  40.957  10.466
22013W        W81274  25.046  18.285  13.829
22014W        W81275  37.393  23.680   4.707
22015W        W81276   1.969  26.656  13.967
22016W        W81277  39.979  21.065  11.942
22017W        W81278  31.638  41.351  11.498
22018W        W81279  27.515  22.111   2.419
22019W        W81280  36.508   3.238   3.204
22020W        W81281   4.726  26.151   3.201
22021W        W81282  26.519   4.443   0.815
22022W        W81283  21.234  39.968   2.788
22023W        W81284  39.397   1.261  10.999
22024W        W81285  36.944  11.280  10.447
22025W        W81286   2.915  35.526   2.344
22026W        W81287   5.735  41.038   4.236
22027W        W81288  36.988  38.850   2.327
22028W        W81289  24.558   3.792   0.253
22029W        W81290  26.026  32.001  11.868
22030W        W81291  25.108   4.830  12.947
22031W        W81292   0.938  25.472   1.419
22032W        W81293  33.553  34.435   1.282
22033W        W81294  44.319  13.673  14.933
22034W        W81295  25.559  26.203  14.370
22035W        W81296  18.106  31.095   1.800
22036W        W81297   2.250  17.682   0.779
22037W        W81298  42.350  44.873   3.736
22038W        W81299   5.768  43.309  12.541
22039W        W81300  29.014  15.717   1.756
22040W        W81301  11.226  25.985  12.093
22041W        W81302   3.904  33.569  12.429
22042W        W81303  12.267  16.577  13.935
22043W        W81304  21.647  18.122   0.921
22044W        W81305  18.571  28.091  13.497
22045W        W81306   5.245  37.004   1.739
22046W        W81307   3.934  19.538  13.353
22047W        W81308  20.673   7.406   3.677
22048W        W81309  14.819  16.660  14.895
22049W        W81310  12.333  28.475  12.339
22050W        W81311  24.993  26.982  11.069
22051W        W81312  13.768  31.947   2.401
22052W        W81313  40.429  17.593  13.021
22053W        W81314  29.628   7.796   2.888
22054W        W81315  13.770  21.171   2.893
22055W        W81316  33.892  14.734   3.189
22056W        W81317  25.995   3.248   0.902
22057W        W81318   3.317  12.686   1.370
22058W        W81319  24.214  43.801   2.667
22059W        W81320  23.990  17.741  11.373
22060W        W81321   1.377  12.239   4.820
22061W        W81322  24.546  26.181  12.035
22062W        W81323  39.425   3.933   0.939
22063W        W81324   3.452  17.802  13.907
22064W        W81325  12.692  10.741  13.419
22065W        W81326   7.714   1.405  12.535
22066W        W81327   0.760  30.143  14.985
22067W        W81328   7.250   6.224   2.693
22068W        W81329  32.978   2.861  14.882
22069W        W81330  28.499  14.707  10.405
22070W        W81331   3.884  28.005  13.450
22071W        W81332  31.559   2.807  11.421
22072W        W81333  35.025  24.493  10.600
22073W        W81334  36.966  35.595  14.935
22074W        W81335  31.627  27.033  12.861
22075W        W81336  16.308  37.541  10.454
22076W        W81337   1.316  35.437  13.407
22077W        W81338  35.887  26.052  14.808
22078W        W81339  35.510  20.561   3.146
22079W        W81340  26.631   9.745   2.259
22080W        W81341   0.864  38.378   0.346
22081W        W81342  25.666  10.735  12.382
22082W        W81343  36.087   8.367   2.201
22083W        W81344  21.124   1.356  14.427
22084W        W81345  43.379  41.333  13.450
22085W        W81346  24.035  15.717   0.764
22086W        W81347  44.466   5.294   2.287
22087W        W81348  27.173  17.801   1.362
22088W        W81349  43.841  29.950  13.888
22089W        W81350  18.252  36.508  12.473
22090W        W81351  15.743  43.846   3.164
22091W        W81352   0.428  42.400   3.222
22092W        W81353  39.883  31.645   1.764
22093W        W81354  20.590  43.318  12.046
22094W        W81355  40.855  18.238   0.861
22095W        W81356  31.071  38.422  12.340
22096W        W81357   5.860   7.696  11.555
22097W        W81358   8.329   3.454   3.693
22098W        W81359  17.238   8.812  13.062
22099W        W81360  44.276  39.882   0.462
22100W        W81361  44.831  30.501  13.428
22101W        W81362  34.460  36.488   1.405
22102W        W81363  10.353  27.640  13.825
22103W        W81364  37.846  29.625   4.184
22104W        W81365  15.106  19.214  14.429
22105W        W81366  25.543  40.049  13.064
22106W        W81367  32.509  17.111   4.733
22107W        W81368  15.099  10.770   3.384
22108W        W81369  21.553  16.684  13.996
22109W        W81370  34.379  27.941  12.913
22110W        W81371   9.385  39.557   2.882
22111W        W81372  20.735  35.997   3.851
22112W        W81373  20.663  10.834   2.783
22113W        W81374   8.390  23.563   2.243
22114W        W81375   2.300  26.042  14.513
22115W        W81376  42.347  44.410  11.894
22116W        W81377  34.097  43.899  10.946
22117W        W81378  20.582   4.832  14.888
22118W        W81379  12.748  28.149  10.893
22119W        W81380   8.873   1.899   4.206
22120W        W81381  19.044   7.767   1.844
22121W        W81382  12.181   1.737   4.172
22122W        W81383  10.234  31.934  12.970
22123W        W81384  11.860  43.449   3.727
22124W        W81385  43.930  41.295  14.509
22125W        W81386  26.486  21.064   3.679
22126W        W81387  10.238   8.868  10.466
22127W        W81388   2.896  36.958   3.870
22128W        W81389   7.399   8.871  12.952
22129W        W81390  19.239  33.499  12.442
22130W        W81391  38.900  25.140   3.368
22131W        W81392   1.897   2.331  13.926
22132W        W81393  10.643   7.305   9.542
22133W        W81394  44.360  12.291   2.181
22134W        W81395   2.400  22.035   3.718
22135W        W81396  12.175  18.094  12.427
22136W        W81397   4.380  25.082   0.289
22137W        W81398  40.921  44.431   4.116
22138W        W81399  14.266  29.496  14.396
22139W        W81400   1.977  19.589  14.297
22140W        W81401  17.780  17.089  13.021
22141W        W81402  31.618  31.113  10.513
22142W        W81403  11.241  23.038   4.803
22143W        W81404   8.321   7.832   0.428
22144W        W81405  31.905  20.210   1.803
22145W        W81406  24.981  17.686  13.420
22146W        W81407  25.689  42.872   3.377
22147W        W81408  11.339  13.809   1.392
22148W        W81409  24.152  37.965   2.858
22149W        W81410  29.101  28.547   3.233
22150W        W81411   5.765  16.724  14.351
22151W        W81412  21.537  26.539  14.308
22152W        W81413   6.700  11.842  11.381
22153W        W81414  43.021  23.690  10.149
22154W        W81415  42.321  31.626   4.306
22155W        W81416  21.632  39.966   0.284
22156W        W81417  41.918  12.174   1.297
22157W        W81418  36.938  39.472   3.268
22158W        W81419  32.578  24.114   2.839
22159W        W81420  38.054  28.473   3.653
22160W        W81421  42.982  40.451   3.738
22161W        W81422   8.712  20.562  13.003
22162W        W81423  39.341   7.413  14.296
22163W        W81424  32.048  38.982   4.274
22164W        W81425  10.359  16.614   4.802
22165W        W81426  28.117  36.886   3.366
22166W        W81427  41.804  34.114  14.828
22167W        W81428   0.896  19.142   1.377
22168W        W81429  40.989  25.041  13.529
22169W        W81430  25.169  11.826  13.964
22170W        W81431  19.617  13.319  12.534
22171W        W81432   5.691  22.130   1.274
22172W        W81433  31.551  31.445   0.957
22173W        W81434   8.242  31.098   2.755
22174W        W81435   4.223  34.074   2.684
22175W        W81436   2.824  10.294  10.558
22176W        W81437  30.575   4.227   0.810
22177W        W81438  17.107  11.622  14.354
22178W        W81439  38.967  35.516  12.072
22179W        W81440  37.990  24.061   4.754
22180W        W81441  38.512  22.530  11.969
22181W        W81442  43.914   8.898  11.054
22182W        W81443  16.740   4.243  14.824
22183W        W81444   9.735  32.392   2.671
22184W        W81445  13.654  22.019  12.567
22185W        W81446   4.407  37.077   4.264
22186W        W81447   5.766  10.679   4.325
22187W        W81448  15.155  35.560  13.393
22188W        W81449  41.496   3.734   1.297
22189W        W81450  30.024  27.637  11.890
22190W        W81451   8.350  26.985  14.493
22191W        W81452   7.372   4.800  12.865
22192W        W81453  18.573  40.330   2.857
22193W        W81454  15.805  16.104   3.213
22194W        W81455  32.431  32.928   0.728
22195W        W81456   8.178  32.073  11.117
22196W        W81457   8.325  32.068  13.405
22197W        W81458  16.771  38.422  11.091
22198W        W81459   6.340  27.055   9.934
22199W        W81460  28.033  33.434   0.295
22200W        W81461   9.155  26.489  14.783
22201W        W81462  36.908  29.161  10.907
22202W        W81463   8.692  15.239   1.388
22203W        W81464   9.681  13.123  13.533
22204W        W81465  31.421  38.893  11.050
22205W        W81466  41.465  26.133  11.941
22206W        W81467  15.109  14.259  13.827
22207W        W81468   0.769  12.644  10.554
22208W        W81469   5.370  13.693   4.640
22209W        W81470  35.922   0.845  12.916
22210W        W81471  39.009  11.758   1.436
22211W        W81472  22.995   0.493   0.845
22212W        W81473   2.905  28.040   0.967
22213W        W81474   5.752  19.618   0.467
22214W        W81475  23.051  43.327   1.404
22215W        W81476   3.258  28.676   4.701
22216W        W81477  12.341  36.396  13.954
22217W        W81478  12.271  19.250  14.308
22218W        W81479  35.983   0.285   0.288
22219W        W81480  17.225  29.922   2.758
22220W        W81481  25.148   1.240   2.209
22221W        W81482  42.321  30.020  10.574
22222W        W81483  17.622  25.042   2.369
22223W        W81484  35.567  19.079  11.100
22224W        W81485  10.161  12.680   3.825
22225W        W81486  15.146  13.718  11.494
22226W        W81487  33.068  37.374  11.458
22227W        W81488   1.361   4.773   3.188
22228W        W81489  26.681  33.533   5.214
22229W        W81490  42.473  33.129   2.193
22230W        W81491  37.396  14.698  12.574
22231W        W81492  41.937   2.248   3.706
22232W        W81493  11.808  33.540   0.930
22233W        W81494   2.362  14.808  13.916
22234W        W81495  43.882   9.166   2.879
22235W        W81496  18.673  39.900  12.516
22236W        W81497   5.412  40.926  11.594
22237W        W81498  44.409  43.303  11.481
22238W        W81499  14.655  19.188  14.845
22239W        W81500  20.547   6.701   1.797
22240W        W81501  32.514  13.292   9.997
22241W        W81502   9.854   1.304  12.973
22242W        W81503   9.692  15.777   0.251
22243W        W81504  21.191  35.106   5.258
22244W        W81505  25.575  34.407   0.373
22245W        W81506  38.492   4.822   4.602
22246W        W81507  28.059  29.458   3.361
22247W        W81508  41.929  40.893  12.406
22248W        W81509  10.161  42.993   4.683
22249W        W81510  17.076  40.862   0.410
22250W        W81511  35.882  31.010  11.953
22251W        W81512   7.178  13.702   3.633
22252W        W81513   8.172  24.195  11.470
22253W        W81514  12.771  28.067   4.635
22254W        W81515  35.505  21.746   3.284
22255W        W81516   0.912  13.172   1.374
22256W        W81517  32.106   6.701   1.240
22257W        W81518   4.780  21.258   0.747
22258W        W81519  29.041  11.626   4.623
22259W        W81520   0.426   7.413  11.956
22260W        W81521   6.295  14.164   4.326
22261W        W81522   7.803  39.473   4.206
22262W        W81523  13.226   2.953  10.450
22263W        W81524  25.555  25.971   3.767
22264W        W81525  23.076   9.751  14.943
22265W        W81526  10.833  24.580  11.536
22266W        W81527  31.093  25.003   5.305
22267W        W81528   1.432  28.458  11.045
22268W        W81529  10.736  27.942  11.991
22269W        W81530  20.241   6.420   3.660
22270W        W81531  24.114  38.879  12.969
22271W        W81532   2.363  22.599  14.895
22272W        W81533  21.525  44.494   0.404
22273W        W81534  12.174  19.637   3.842
22274W        W81535  21.244   1.854  10.010
22275W        W81536  31.064  38.884  14.514
22276W        W81537  18.704  34.925   2.316
22277W        W81538   5.743  17.738   2.414
22278W        W81539   4.821   2.917  10.463
22279W        W81540  42.824  42.799   2.747
22280W        W81541  17.145  39.033  13.062
22281W        W81542  14.209  26.689   3.362
22282W        W81543   9.655   3.899   3.750
22283W        W81544  41.834   0.967  11.926
22284W        W81545   5.834  34.017   2.229
22285W        W81546   1.451   3.305   3.147
22286W        W81547  19.730   1.909  14.867
22287W        W81548  39.513   8.341   0.463
22288W        W81549  25.169  39.528   3.718
22289W        W81550  30.462  19.702  10.958
22290W        W81551  40.391  34.995   0.817
22291W        W81552   4.341  24.151  13.797
22292W        W81553  18.545  16.610  13.421
22293W        W81554  42.457  36.891   1.331
22294W        W81555  32.969  39.927   4.184
22295W        W81556   2.350   5.751   4.125
22296W        W81557  36.445  18.250   1.718
22297W        W81558  25.545  29.594   4.350
22298W        W81559  14.213  12.342  13.524
22299W        W81560  26.562  17.635   4.695
22300W        W81561   2.381  43.516  12.348
22301W        W81562   4.908  41.513   2.764
22302W        W81563  38.445  40.350  12.474
22303W        W81564  41.532  35.060   3.305
22304W        W81565  12.791  43.825  11.500
22305W        W81566  41.331   2.310   4.278
22306W        W81567  22.632  43.271  13.974
22307W        W81568  14.795  36.389  13.534
22308W        W81569  39.419   0.962   2.868
22309W        W81570  16.136  10.170  12.464
22310W        W81571   1.402  43.372  12.826
22311W        W81572  21.044  22.100  13.056
22312W        W81573  33.108  21.722   0.770
22313W        W81574  11.640  20.250   1.281
22314W        W81575  42.884  11.837   3.657
22315W        W81576  11.329   0.401  13.537
22316W        W81577  31.005  31.590  14.000
22317W        W81578   3.833  38.928   0.475
22318W        W81579  24.619  24.016  11.912
22319W        W81580  22.071  29.971   5.634
22320W        W81581  40.025  20.710  13.846
22321W        W81582  26.004  12.673   3.648
22322W        W81583   3.382  25.558   5.081
22323W        W81584  17.713  31.603  13.054
22324W        W81585  17.082  18.091   2.413
22325W        W81586  15.803  22.658   5.307
22326W        W81587  40.536   6.910  11.876
22327W        W81588  27.555  43.906   3.153
22328W        W81589  44.443  17.618   3.645
22329W        W81590   2.445  33.948  14.799
22330W        W81591  39.474  11.356   0.809
22331W        W81592  25.629  22.026  10.422
22332W        W81593  22.020  33.524   1.839
22333W        W81594   8.886  25.666   0.809
22334W        W81595  31.647  36.079   1.304
22335W        W81596  30.934  29.635  13.418
22336W        W81597   8.682  19.191  13.026
22337W        W81598  13.654  26.135   3.835
22338W        W81599  31.640  35.532   1.380
22339W        W81600  36.593   0.451   2.414
22340W        W81601  39.028  33.967  10.966
22341W        W81602   7.258  37.356   0.770
22342W        W81603  14.317  37.967   3.160
22343W        W81604  26.962  35.421  12.879
22344W        W81605  22.652  35.464  12.005
22345W        W81606  41.387   0.875  11.869
22346W        W81607  40.884  38.566  12.536
22347W        W81608   5.355  18.143  11.514
22348W        W81609  23.616  14.276   1.696
22349W        W81610  37.514  25.578   0.302
22350W        W81611  40.985  25.966   2.669
22351W        W81612  13.651   3.730  11.437
22352W        W81613  34.929   6.764  11.053
22353W        W81614  12.347  35.522  12.915
22354W        W81615  26.158   9.386  12.486
22355W        W81616   8.671   7.286   2.696
22356W        W81617  27.018   6.402   4.341
22357W        W81618  26.484  10.159  12.857
22358W        W81619  11.149   9.700   3.662
22359W        W81620   0.362  44.885   0.347
22360W        W81621  30.559   9.384  11.489
22361W        W81622  30.026  40.908  14.423
22362W        W81623  23.022   6.329   3.265
22363W        W81624  31.995  15.713   4.198
22364W        W81625   1.848   1.889  10.513
22365W        W81626  27.110  19.714  10.935
22366W        W81627  21.069  31.101  14.390
22367W        W81628  30.484  17.639   4.221
22368W        W81629   5.302  37.830   0.451
22369W        W81630  34.506  38.458  12.342
22370W        W81631  35.064  20.083   4.242
22371W        W81632  38.335  21.092  14.770
22372W        W81633  41.524  15.640   4.620
22373W        W81634  37.034  29.529   1.722
22374W        W81635  25.550  27.999   3.741
22375W        W81636  42.463  38.344  12.422
22376W        W81637  29.044   8.705  11.937
22377W        W81638  25.055  33.580  14.397
22378W        W81639  14.643  11.321  12.414
22379W        W81640  29.134  14.321   1.896
22380W        W81641  22.682  22.080  14.797
22381W        W81642   8.367   5.691  12.850
22382W        W81643   8.848  37.502  10.535
22383W        W81644  20.545  12.293  11.594
22384W        W81645  37.857  41.533   3.217
22385W        W81646  20.245  34.062   3.232
22386W        W81647  23.689   1.440   1.303
22387W        W81648  13.665  39.063  12.987
22388W        W81649  12.817  24.688   4.765
22389W        W81650  26.151  41.849  13.035
22390W        W81651  16.234  23.509   3.330
22391W        W81652  39.383  23.639   2.716
22392W        W81653  10.178  44.482  12.910
22393W        W81654  12.803  27.547   5.270
22394W        W81655   9.812  20.189  13.932
22395W        W81656  38.054  35.056   2.812
22396W        W81657  39.033  10.274  13.827
22397W        W81658  20.643  15.317  12.357
22398W        W81659   9.330  43.504  12.554
22399W        W81660  12.323  32.580   3.213
22400W        W81661   4.388  34.989  14.016
22401W        W81662  27.948   7.316   3.349
22402W        W81663  39.962   9.643   3.279
22403W        W81664  21.609  42.824   3.169
22404W        W81665   1.392  16.599  13.359
22405W        W81666  44.916  43.836  13.790
22406W        W81667  19.752  44.997   1.404
22407W        W81668  37.038   1.245  13.524
22408W        W81669   7.248   1.930  10.058
22409W        W81670  43.791   0.961  11.480
22410W        W81671  40.428  18.079  12.942
22411W        W81672   3.427  40.445   3.163
22412W        W81673  36.003   3.357  14.793
22413W        W81674  31.977  36.460   3.843
22414W        W81675  21.725  38.026  13.455
22415W        W81676  42.015  22.094  11.532
22416W        W81677  10.266  32.008  14.310
22417W        W81678  42.942  19.610  14.330
22418W        W81679  27.941   4.443  14.389
22419W        W81680  31.584  32.995   1.787
22420W        W81681  24.051  35.101  12.958
22421W        W81682  37.368  31.429   4.322
22422W        W81683   7.248  32.513   3.663
22423W        W81684  12.697  27.068  10.431
22424W        W81685  38.011  34.871   0.369
22425W        W81686  34.060  22.637   1.848
22426W        W81687  38.014   3.283   3.169
22427W        W81688  30.025  39.349  13.813
22428W        W81689  35.375  16.122   4.308
22429W        W81690  35.507  36.893  11.503
22430W        W81691  20.270  39.427   1.420
22431W        W81692   7.889  12.326  13.988
22432W        W81693  12.180  39.917  14.773
22433W        W81694  24.075   1.271  10.110
22434W        W81695  29.114  34.916  14.766
22435W        W81696  39.460   9.187   3.242
22436W        W81697  23.694  37.009  12.907
22437W        W81698  26.689  35.528  11.062
22438W        W81699  32.130  34.915  13.454
22439W        W81700  44.391   5.217   3.683
22440W        W81701  20.082  31.523   1.910
22441W        W81702  17.301   0.347   1.228
22442W        W81703  33.926  31.047  14.013
22443W        W81704   0.797  34.109   2.314
22444W        W81705   2.434  19.092   1.340
22445W        W81706  39.501   0.373  13.510
22446W        W81707  41.523  42.031   4.739
22447W        W81708  19.617  18.292   3.697
22448W        W81709  37.418  34.894   4.665
22449W        W81710  29.635  23.996   4.649
22450W        W81711  39.860  12.705  12.527
22451W        W81712  19.669  16.256   1.373
22452W        W81713  41.448   3.383   4.629
22453W        W81714   4.935  24.173   3.381
22454W        W81715   9.862  35.425   0.446
22455W        W81716  19.246  42.005   1.271
22456W        W81717  36.873   2.921  13.470
22457W        W81718  39.501  30.042   2.270
22458W        W81719  24.045  17.139  12.865
22459W        W81720  44.382   1.458  13.355
22460W        W81721  21.103  36.491  13.875
22461W        W81722  10.872  37.389   0.462
22462W        W81723  44.408  34.117   2.703
22463W        W81724  43.335  14.205   0.286
22464W        W81725  10.286  14.103   1.294
22465W        W81726  24.092  20.241  13.360
22466W        W81727  39.955   6.843  10.984
22467W        W81728  21.516   5.906  12.032
22468W        W81729  41.512  10.652   2.210
22469W        W81730  30.006   7.912   3.264
22470W        W81731  38.325  19.673   0.416
22471W        W81732  44.990  33.987  14.011
22472W        W81733  42.784   1.791   1.308
22473W        W81734  23.215  34.046   0.410
22474W        W81735  29.432   9.795   4.627
22475W        W81736  34.608  33.602   1.397
22476W        W81737  20.082  33.987  12.468
22477W        W81738  12.717  28.048  12.372
22478W        W81739  31.125  29.495   4.623
22479W        W81740  39.374  32.889   3.718
22480W        W81741  44.357  19.254   2.809
22481W        W81742   5.395  33.048  13.404
22482W        W81743  34.923  29.092  11.461
22483W        W81744  35.057   8.678  13.525
22484W        W81745   8.693   7.321   1.828
22485W        W81746  21.224   9.879   0.810
22486W        W81747  40.860   2.287   4.147
22487W        W81748  31.124  33.927  12.021
22488W        W81749  35.038  27.121   1.873
22489W        W81750  18.177  43.344  12.008
22490W        W81751  21.534  32.415  12.539
22491W        W81752  21.747  29.007  14.773
22492W        W81753  39.456   0.975  11.947
22493W        W81754  18.560   4.358   4.611
22494W        W81755  25.692  43.989  10.906
22495W        W81756  35.956  42.343   0.832
22496W        W81757  24.990  37.971   0.295
22497W        W81758   5.404   4.300  10.891
22498W        W81759   3.434  36.347  14.992
22499W        W81760  32.886  18.749   1.784
22500W        W81761   3.343  24.162   2.267
22501W        W81762  33.124  34.595   0.259
22502W        W81763  34.902   7.338   0.263
22503W        W81764  25.136  24.984   4.757
22504W        W81765   1.790   4.706   0.857
22505W        W81766   5.794  33.944   2.829
22506W        W81767   1.312  44.889  10.513
22507W        W81768  42.297  12.186  14.998
22508W        W81769  22.112   5.895   1.761
22509W        W81770  21.749  10.853   0.327
22510W        W81771  20.209  13.739   0.861
22511W        W81772   8.784  40.852   3.351
22512W        W81773  19.062   4.804   3.715
22513W        W81774  20.041   2.411  13.043
22514W        W81775  34.384   0.433  12.890
22515W        W81776  28.033  10.382   3.857
22516W        W81777  37.509  35.511   0.409
22517W        W81778   1.472  35.485  11.997
22518W        W81779  34.476  11.824   0.821
22519W        W81780  21.021  14.747  13.502
22520W        W81781  36.059  37.036  12.875
22521W        W81782   0.267  24.696  12.884
22522W        W81783  25.661  24.720  12.046
22523W        W81784  16.211  11.206   2.801
22524W        W81785  39.981  10.857  14.435
22525W        W81786  42.503   2.391  14.994
22526W        W81787  11.361  23.623   4.162
22527W        W81788  10.317   7.207   0.816
22528W        W81789  25.668  18.750  11.402
22529W        W81790   7.807  17.654  13.801
22530W        W81791  11.793  39.898   0.935
22531W        W81792   7.807  28.565   0.793
22532W        W81793  29.945   2.411  11.453
22533W        W81794  31.065  26.613   9.959
22534W        W81795  19.264  36.441  12.955
22535W        W81796  29.665   4.785  14.855
22536W        W81797  17.208  14.797   1.280
22537W        W81798  38.068  22.585  13.519
22538W        W81799   8.888  28.050   0.270
22539W        W81800  22.223  25.498   1.351
22540W        W81801  34.592  27.028  11.499
22541W        W81802  24.487  32.961   0.857
22542W        W81803  20.684  17.288  11.889
22543W        W81804  13.749  37.559  13.790
22544W        W81805  11.746  14.268  11.419
22545W        W81806  25.591  33.513  14.989
22546W        W81807  19.602  27.446   3.784
22547W        W81808  20.568  38.068   4.175
22548W        W81809   2.768   0.481   1.797
22549W        W81810  27.059  26.013  11.094
22550W        W81811   5.820  41.377  13.389
22551W        W81812   0.395  24.640  13.445
22552W        W81813  18.169  27.180  10.094
22553W        W81814  17.734  14.726  14.805
22554W        W81815   3.912  39.054  12.052
22555W        W81816  16.172  33.085  11.091
22556W        W81817  29.559   9.179  13.989
22557W        W81818   5.784  30.989  13.826
22558W        W81819  32.944  18.054   3.760
22559W        W81820  18.157   4.912  12.394
22560W        W81821  15.712  15.110  12.837
22561W        W81822  44.425  29.560  13.479
22562W        W81823   3.233  44.363   5.211
22563W        W81824   9.726  27.024   4.766
22564W        W81825  36.959  41.003   3.266
22565W        W81826  43.837  30.100  11.925
22566W        W81827  27.107  28.969   4.673
22567W        W81828  28.132  35.066   3.726
22568W        W81829  28.083  12.709   2.718
22569W        W81830  20.700  21.104   0.417
22570W        W81831   2.298  17.281   1.806
22571W        W81832  30.980  19.772   0.766
22572W        W81833  31.085  23.122   0.253
22573W        W81834  41.796  32.142  14.471
22574W        W81835   5.775   9.847  11.471
22575W        W81836  14.120  36.363  14.994
22576W        W81837   5.788   3.306   2.718
22577W        W81838   6.786   7.196  14.288
22578W        W81839  43.926  23.509   2.278
22579W        W81840  25.045   2.293   2.880
22580W        W81841  37.493   6.347  12.894
22581W        W81842   4.805  10.827   3.374
22582W        W81843  13.175  32.036   5.238
22583W        W81844  12.222   2.426   3.321
22584W        W81845  40.947   5.269  13.887
22585W        W81846  43.463  17.116  12.921
22586W        W81847  21.614   2.342   0.462
22587W        W81848  19.769  37.569  12.055
22588W        W81849  40.478  20.651   4.823
22589W        W81850  13.124  10.697   1.325
22590W        W81851  30.139  24.994  11.382
22591W        W81852   6.351  39.901   4.182
22592W        W81853  44.387  36.407   4.744
22593W        W81854  43.937  19.757   3.842
22594W        W81855   7.271  39.830   0.400
22595W        W81856  10.716  35.586  11.387
22596W        W81857  28.078   0.830  13.993
22597W        W81858   0.969  40.001   0.910
22598W        W81859  34.485  19.780  10.516
22599W        W81860  41.859  42.946   2.671
22600W        W81861  35.400  34.544  14.455
22601W        W81862  34.005  42.337  12.956
22602W        W81863  11.652  29.176   9.921
22603W        W81864   2.875  30.120   0.444
22604W        W81865   3.299  37.580   5.172
22605W        W81866  37.527  38.510  13.422
22606W        W81867  33.492  22.181   4.121
22607W        W81868  24.600  10.234  13.326
22608W        W81869  15.108   8.327  14.288
22609W        W81870  33.440  20.102  14.032
22610W        W81871  27.658  44.280  13.042
22611W        W81872  22.162  21.057  13.830
22612W        W81873   4.274   3.258   2.296
22613W        W81874  14.255  41.965   0.860
22614W        W81875  41.953  17.067  14.000
22615W        W81876  36.049   2.435  12.857
22616W        W81877  44.320  35.865   0.783
22617W        W81878  28.167  11.693   3.807
22618W        W81879  40.325  10.857  11.123
22619W        W81880  11.648  13.686  10.423
22620W        W81881   6.328  43.284  12.947
22621W        W81882  39.382   2.743  13.449
22622W        W81883  37.878  33.043   0.928
22623W        W81884  35.986  15.273   3.374
22624W        W81885  36.376   5.250  11.534
22625W        W81886  33.121  42.894  13.444
22626W        W81887  25.964  26.669   2.813
22627W        W81888  17.212   0.889   4.212
22628W        W81889  17.647  36.055  10.499
22629W        W81890  28.634  31.993   2.859
22630W        W81891  44.979   1.919   0.813
22631W        W81892  16.584  34.992  14.869
22632W        W81893  29.939  40.524  12.011
22633W        W81894  14.597  10.320   4.688
22634W        W81895  29.100  27.542   2.779
22635W        W81896  40.880  33.001   2.723
22636W        W81897  22.073  37.412   4.708
22637W        W81898  21.025  13.828  13.446
22638W        W81899  33.596  17.639   4.780
22639W        W81900  26.040  31.032  12.563
22640W        W81901   4.237  44.938  13.400
22641W        W81902   8.233  31.031  11.564
22642W        W81903   9.299  21.252   1.876
22643W        W81904   3.907  34.888   2.405
22644W        W81905  28.067  34.473   0.744
22645W        W81906  22.069  27.973  14.947
22646W        W81907  44.873  26.491   0.373
22647W        W81908  20.757   9.235   3.354
22648W        W81909  16.238   2.395   2.842
22649W        W81910  39.541  37.452  14.875
22650W        W81911  20.576   7.253   5.238
22651W        W81912   3.952   9.861   4.177
22652W        W81913  23.699  24.534   1.856
22653W        W81914  32.523  21.519  13.875
22654W        W81915  32.537  32.014  13.534
22655W        W81916  25.697  34.881   0.743
22656W        W81917  33.937  20.616   2.274
22657W        W81918  18.268  23.137  14.502
22658W        W81919  18.661  18.181  13.015
22659W        W81920  37.517  13.148  11.866
22660W        W81921  40.501  34.445   0.448
22661W        W81922  20.152  16.785   0.897
22662W        W81923  40.443  26.526  13.811
22663W        W81924  33.452   6.392   0.755
22664W        W81925  39.006  32.623  11.511
22665W        W81926  35.597  35.064  13.804
22666W        W81927  36.415  18.205  11.566
22667W        W81928  23.145  13.111  14.940
22668W        W81929  18.688  24.031   1.933
22669W        W81930  29.027  31.598  13.000
22670W        W81931  11.230  33.510   1.447
22671W        W81932  42.828   6.369   5.103
22672W        W81933   9.716  28.596   4.693
22673W        W81934  30.423  35.542  10.936
22674W        W81935  21.104  24.556  13.983
22675W        W81936  43.312  30.585  10.512
22676W        W81937  33.396   1.306  14.862
22677W        W81938  40.871  32.893   4.264
22678W        W81939   0.301   0.256  11.925
22679W        W81940  31.556  31.618  13.449
22680W        W81941  13.628  14.725  11.579
22681W        W81942   7.756  20.657   3.151
22682W        W81943  15.123  41.478   4.666
22683W        W81944  12.237   6.855   3.340
22684W        W81945  24.037  31.512  12.396
22685W        W81946  40.415  44.333  12.385
22686W        W81947  22.553   4.843  11.949
22687W        W81948  28.519  29.023  10.448
22688W        W81949  36.402  37.888  11.555
22689W        W81950  25.182  19.674  12.520
22690W        W81951   6.353   0.324  11.123
22691W        W81952  43.973  38.025  13.425
22692W        W81953  17.139  34.963   3.193
22693W        W81954  36.361  39.002   2.258
22694W        W81955  34.489   2.297   0.820
22695W        W81956  39.556   2.348   3.651
22696W        W81957   3.394  40.878  14.487
22697W        W81958  27.149   7.902  13.960
22698W        W81959  35.990  42.950   0.944
22699W        W81960  33.608  40.417  11.960
22700W        W81961   8.774  40.995   0.933
22701W        W81962  19.245  29.920  10.973
22702W        W81963  39.552  44.383  10.893
22703W        W81964  43.440  41.983  14.350
22704W        W81965  11.262  26.968   0.473
22705W        W81966  27.600   5.792  13.825
22706W        W81967  30.051  40.819   2.851
22707W        W81968  17.600  28.049   3.172
22708W        W81969   4.218  23.241   0.465
22709W        W81970  29.654  41.911  13.424
22710W        W81971   1.966  22.638   3.209
22711W        W81972  10.222  18.696   1.848
22712W        W81973  36.069  39.923   4.711
22713W        W81974  32.894  35.985   4.185
22714W        W81975  33.909   2.342  11.439
22715W        W81976   0.893  35.504  11.415
22716W        W81977  12.652  31.466   1.747
22717W        W81978  26.201  20.124  14.926
22718W        W81979  19.705  30.451  11.972
22719W        W81980  31.897  14.310   2.214
22720W        W81981  44.981   3.783   2.820
22721W        W81982  20.122  27.529   3.259
22722W        W81983  36.592  41.530   0.961
22723W        W81984   3.939   9.695   4.775
22724W        W81985  25.163  42.524  14.381
22725W        W81986  28.162  36.879   0.786
22726W        W81987   5.404  42.026   2.751
22727W        W81988  31.062  18.585   1.382
22728W        W81989  17.280  38.565  13.350
22729W        W81990   8.673  35.941   3.753
22730W        W81991  19.712  18.088   1.855
22731W        W81992  32.041  23.511   1.326
22732W        W81993  33.884  17.142   2.844
22733W        W81994  12.731  26.634   2.383
22734W        W81995   1.329   0.379  13.368
22735W        W81996  40.842  13.602   9.645
22736W        W81997  10.811  23.184   0.926
22737W        W81998  19.186   5.318   3.815
22738W        W81999  44.942  29.504   3.810
22739W        W82000  23.736   7.393  11.025
22740W        W82001  43.425  31.915  14.346
22741W        W82002   2.312  33.413  11.947
22742W        W82003   2.378  38.457  13.017
22743W        W82004  30.165  34.447  13.334
22744W        W82005   1.977  43.988   4.673
22745W        W82006  26.180  20.674  14.427
22746W        W82007  21.583  29.058  14.446
22747W        W82008   9.218  24.147  12.018
22748W        W82009  25.560  28.446  14.837
22749W        W82010   5.778  23.680   3.679
22750W        W82011  23.613  39.381   1.728
22751W        W82012   2.346  26.182  12.523
22752W        W82013  30.127  33.452   3.764
22753W        W82014  24.998  15.237  11.116
22754W        W82015  14.252  32.016   3.700
22755W        W82016  28.999  41.449  14.024
22756W        W82017  14.666  33.397   1.897
22757W        W82018   9.224  24.137   4.688
22758W        W82019  31.010  26.525   2.761
22759W        W82020  38.355   5.356   4.814
22760W        W82021  20.062  44.859   1.847
22761W        W82022  30.560  23.081   4.174
22762W        W82023  32.967  23.228   0.748
22763W        W82024  10.145  11.355   3.842
22764W        W82025  32.026  41.867   3.310
22765W        W82026  15.289   9.282   1.697
22766W        W82027  17.638  15.140  11.031
22767W        W82028   0.486  27.646   1.270
22768W        W82029  19.226   8.345  14.317
22769W        W82030  18.067  15.168   4.265
22770W        W82031   4.706  29.597   2.235
22771W        W82032  21.606  18.749   4.222
22772W        W82033  21.677  25.659   4.320
22773W        W82034  42.343   9.304  11.574
22774W        W82035  32.998  12.271  11.046
22775W        W82036  25.066  14.203   2.871
22776W        W82037  39.553  41.455   0.263
22777W        W82038  25.537  40.022   2.889
22778W        W82039   3.363  35.043  10.470
22779W        W82040  31.970   8.373  10.915
22780W        W82041  42.503   5.426  13.911
22781W        W82042  23.110  35.961  12.558
22782W        W82043  18.688   2.362   2.897
22783W        W82044  31.984  40.510   3.770
22784W        W82045  34.542  30.510  12.917
22785W        W82046  11.821   6.360   2.398
22786W        W82047  42.865  13.609   1.893
22787W        W82048  20.229  25.051   1.305
22788W        W82049   2.752   9.797   2.791
22789W        W82050  32.925  35.432   2.799
22790W        W82051   0.300  42.468   4.622
22791W        W82052  35.946   3.881   0.440
22792W        W82053  32.903  20.643   4.816
22793W        W82054  24.200  25.502   2.694
22794W        W82055  23.228  35.053  11.112
22795W        W82056   8.196  26.682  13.809
22796W        W82057   0.278   4.317  11.559
22797W        W82058  41.417  43.813  14.320
22798W        W82059  27.002  10.832  12.425
22799W        W82060  33.619  36.428  12.954
22800W        W82061  34.915  14.182  10.074
22801W        W82062  10.338  26.994   3.728
22802W        W82063  44.487  39.060  14.393
22803W        W82064  28.553  16.228  12.545
22804W        W82065  34.022  13.800  14.347
22805W        W82066  30.507  35.080   3.352
22806W        W82067   5.429  31.098   3.692
22807W        W82068  22.007  12.265  14.354
22808W        W82069   0.949   4.927  11.097
22809W        W82070  35.532  43.928  11.435
22810W        W82071  40.022   3.786   0.292
22811W        W82072   2.286  26.511  10.936
22812W        W82073  43.784  30.097   2.367
22813W        W82074  30.414   9.874   0.394
22814W        W82075  33.910  26.164   2.804
22815W        W82076   0.329  32.120   0.783
22816W        W82077  39.911   1.827  10.415
22817W        W82078  14.176  10.777   4.135
22818W        W82079  28.183  15.688  13.432
22819W        W82080  43.953  26.048  14.497
22820W        W82081  20.205  33.466  12.039
22821W        W82082   3.301  33.473  10.898
22822W        W82083  40.937  35.430   3.295
22823W        W82084  13.682  43.296  14.932
22824W        W82085   3.749   3.879   2.683
22825W        W82086  42.906  44.831  13.821
22826W        W82087  10.322  13.638  12.975
22827W        W82088   1.437  38.467  11.987
22828W        W82089  37.419  18.217   4.270
22829W        W82090  43.454  12.130   3.176
22830W        W82091   2.844  21.159  11.985
22831W        W82092  33.457  23.562  13.058
22832W        W82093  37.924  30.127   0.438
22833W        W82094   8.770  15.661   1.386
22834W        W82095   9.199  27.614  13.951
22835W        W82096   8.403  36.420  14.003
22836W        W82097  40.984  33.493   0.366
22837W        W82098  18.268  30.618   0.958
22838W        W82099  17.586   9.329  11.973
22839W        W82100  17.676   0.415  10.407
22840W        W82101   5.427  38.481   1.297
22841W        W82102  17.149  25.518  14.420
22842W        W82103  19.561  15.192  12.844
22843W        W82104  37.941   6.342  13.315
22844W        W82105  32.071  19.676   2.307
22845W        W82106   4.315  30.464   1.373
22846W        W82107   3.781   6.202   4.672
22847W        W82108  19.696  34.582   3.773
22848W        W82109   9.672  42.901  12.880
22849W        W82110  32.530  13.793  13.834
22850W        W82111  37.018   0.753   4.261
22851W        W82112  31.613  34.088  10.919
22852W        W82113  25.484   1.857  12.369
22853W        W82114   7.896  34.965  10.908
22854W        W82115  41.360  40.821   1.731
22855W        W82116  22.572   4.860  12.448
22856W        W82117  21.225  27.529   2.408
22857W        W82118   1.903  10.741   0.878
22858W        W82119  17.105  36.929  11.529
22859W        W82120  19.058  39.843  13.413
22860W        W82121  23.043   4.424   2.718
22861W        W82122  39.314  26.571  10.090
22862W        W82123  29.543  15.815  12.448
22863W        W82124  20.738  22.006   5.321
22864W        W82125  15.729  28.617  13.046
22865W        W82126   3.280   2.471  12.033
22866W        W82127  43.476  30.653   2.262
22867W        W82128  27.983  11.220  14.962
22868W        W82129  27.616  26.691  10.630
22869W        W82130  44.366  44.318  13.974
22870W        W82131  35.434   8.730  14.455
22871W        W82132   7.894   7.877  10.051
22872W        W82133   1.913  36.990   4.771
22873W        W82134   3.380  27.014  13.917
22874W        W82135  23.117   2.880   3.156
22875W        W82136  21.568  40.947  14.028
22876W        W82137  26.963  24.541   0.350
22877W        W82138  43.445  40.031  13.496
22878W        W82139  43.298  31.507   2.744
22879W        W82140  36.007   8.265  14.461
22880W        W82141  33.036  13.169   4.679
22881W        W82142  28.563  28.534   0.293
22882W        W82143  35.047  12.159  13.984
22883W        W82144  39.475  14.674  13.492
22884W        W82145   7.275  38.538  14.872
22885W        W82146  21.720  40.017   4.804
22886W        W82147   4.433  28.549   1.446
22887W        W82148   8.251  44.326  10.577
22888W        W82149  19.196   1.237  14.833
22889W        W82150  42.959  12.266   2.814
22890W        W82151  22.650  24.663  14.783
22891W        W82152  39.541  33.533  12.890
22892W        W82153  31.114  37.497  11.427
22893W        W82154   0.472  24.680   0.472
22894W        W82155  36.079   6.194  13.926
22895W        W82156  13.337  28.462   0.294
22896W        W82157  36.990  26.085  14.420
22897W        W82158  44.320   4.889  13.341
22898W        W82159  18.238  26.133   2.413
22899W        W82160  22.720  22.202  13.044
22900W        W82161  27.041  18.247   3.314
22901W        W82162  20.271  19.694   1.280
22902W        W82163  32.048  20.595  10.890
22903W        W82164  40.505  21.083   4.725
22904W        W82165  27.066  26.489   5.294
22905W        W82166  30.926  23.220  10.600
22906W        W82167  14.628  18.596  13.479
22907W        W82168  21.157  22.080  12.565
22908W        W82169  32.112  42.880  11.951
22909W        W82170   2.748  15.581   4.668
22910W        W82171  36.565   8.807   1.385
22911W        W82172  12.317  37.466   0.361
22912W        W82173  12.339  13.274  11.489
22913W        W82174  39.358  28.627   1.391
22914W        W82175  31.648   7.325   0.824
22915W        W82176  37.080  32.437   1.695
22916W        W82177  17.304  32.036  11.887
22917W        W82178  44.291  30.908  13.802
22918W        W82179  43.290  36.479   3.357
22919W        W82180  37.889   8.749  14.994
22920W        W82181   5.823  10.197   2.251
22921W        W82182   7.363  24.206  14.847
22922W        W82183  16.582  26.588   5.242
22923W        W82184  22.697   7.779   4.176
22924W        W82185   3.950   4.400   9.455
22925W        W82186  27.476  21.638   3.245
22926W        W82187  10.656  24.013  14.393
22927W        W82188  34.988  20.131   2.242
22928W        W82189   1.376  30.429  10.437
22929W        W82190  11.820  39.378   4.217
22930W        W82191  34.085  12.835   1.775
22931W        W82192  33.103   4.240  13.834
22932W        W82193  17.263   7.346   0.481
22933W        W82194  23.078  34.956  13.355
22934W        W82195  39.064  10.226   0.960
22935W        W82196  19.052  29.531  11.003
22936W        W82197  38.049  18.715  14.932
22937W        W82198  34.587   9.156   1.367
22938W        W82199  30.161  10.370   1.359
22939W        W82200  37.040  37.476   2.790
22940W        W82201   3.718   6.906   0.400
22941W        W82202  32.537  24.654  14.307
22942W        W82203  38.918  27.614  11.490
22943W        W82204   4.720   9.329  13.342
22944W        W82205  16.102   7.283  14.984
22945W        W82206   8.213  32.399  12.995
22946W        W82207  22.580  20.255  12.505
22947W        W82208  17.211  27.622  11.971
22948W        W82209  40.310  35.374  13.380
22949W        W82210  37.442  43.018  14.978
22950W        W82211  11.135  10.139  14.361
22951W        W82212  35.105  20.686  12.402
22952W        W82213  18.782   7.720   1.896
22953W        W82214  22.105  33.022   0.380
22954W        W82215  10.355  21.054   4.158
22955W        W82216  31.023  37.989   0.821
22956W        W82217  25.515   5.704  10.895
22957W        W82218   4.812   8.764  14.944
22958W        W82219  27.586  37.402  12.035
22959W        W82220   3.937  14.279   5.103
22960W        W82221  34.561  12.128  11.428
22961W        W82222  21.709  17.126  11.880
22962W        W82223  22.675   2.904  12.525
22963W        W82224  36.930  24.161  14.925
22964W        W82225  24.568  30.151   3.664
22965W        W82226  12.139  15.704  14.829
22966W        W82227  24.529   8.741  12.418
22967W        W82228   0.264   0.843   0.926
22968W        W82229  11.171   8.312   4.195
22969W        W82230  14.738  20.045   4.192
22970W        W82231   1.401  44.412   2.218
22971W        W82232  10.182  33.404  13.927
22972W        W82233  24.626  41.522   0.888
22973W        W82234  44.830  35.034  10.619
22974W        W82235  28.100  41.328   1.256
22975W        W82236   0.892  34.395  10.902
22976W        W82237  10.735  26.516   0.275
22977W        W82238  33.493  20.173   2.384
22978W        W82239  24.669  16.100   2.278
22979W        W82240  37.027  20.661  11.067
22980W        W82241  14.283  15.786   1.887
22981W        W82242  34.473  21.614  11.993
22982W        W82243  35.510  40.896   3.354
22983W        W82244  42.815  17.172   2.684
22984W        W82245   4.800   3.451   4.627
22985W        W82246  37.370  29.987  14.289
22986W        W82247  22.102   7.701   4.690
22987W        W82248   5.743  24.713  14.398
22988W        W82249   1.884  19.059  11.012
22989W        W82250  26.056   5.782   1.915
22990W        W82251  21.566  18.191  14.855
22991W        W82252  35.406  14.708   4.319
22992W        W82253  30.141   5.816  14.890
22993W        W82254   8.731  25.172  13.985
22994W        W82255  23.604  32.504   1.354
22995W        W82256  32.507  24.636   1.306
22996W        W82257  21.635  15.272   3.173
22997W        W82258  17.212  37.906  11.959
22998W        W82259   1.931  43.297   0.326
22999W        W82260  11.127  38.571  12.065
23000W        W82261  10.180  41.464  12.471
23001W        W82262  23.146  22.623   2.717
23002W        W82263  10.672  13.231   0.842
23003W        W82264  39.381  24.999  11.911
23004W        W82265  25.570  31.130  12.854
23005W        W82266  32.450  31.006  12.058
23006W        W82267  13.671  12.147   3.781
23007W        W82268  42.451  24.052   4.829
23008W        W82269  23.498  29.077   4.233
23009W        W82270  17.759   9.305  13.409
23010W        W82271  14.278   6.391  14.290
23011W        W82272  27.485  20.114   0.317
23012W        W82273  13.830   5.813   3.857
23013W        W82274   4.433  31.976  14.504
23014W        W82275  44.948  25.094  10.577
23015W        W82276  36.050  29.539  12.921
23016W        W82277  37.934  11.307  14.299
23017W        W82278  18.203   9.772  10.900
23018W        W82279  14.634  26.963   0.809
23019W        W82280  21.646  23.689  11.610
23020W        W82281  40.802  26.655  10.410
23021W        W82282   1.904  43.431  12.563
23022W        W82283  32.453  19.660  13.419
23023W        W82284  28.481  13.778  14.925
23024W        W82285   7.674  10.636  13.495
23025W        W82286  32.894  34.095   2.667
23026W        W82287  10.310  42.814   3.383
23027W        W82288   6.400   0.810  10.450
23028W        W82289  21.707   1.766  12.837
23029W        W82290   2.776  34.074   4.182
23030W        W82291  35.058   5.378  12.358
23031W        W82292  20.663   7.771  14.315
23032W        W82293  41.384  30.579  11.997
23033W        W82294   2.948  35.384   3.803
23034W        W82295  39.966   0.467  11.518
23035W        W82296  17.263  22.225   1.906
23036W        W82297  31.470  39.923   2.753
23037W        W82298  25.147   7.350  12.990
23038W        W82299  41.450  42.928   3.159
23039W        W82300  35.515  38.570  13.311
23040W        W82301  16.217   4.871  13.458
23041W        W82302  35.406  19.689   0.962
23042W        W82303  10.675  34.907   3.667
23043W        W82304   9.644  44.370   2.684
23044W        W82305  18.725  29.991  11.060
23045W        W82306  39.901  36.861   4.739
23046W        W82307  26.645  31.426  10.900
23047W        W82308  15.271   1.468  10.906
23048W        W82309  39.994  31.619  12.490
23049W        W82310  42.861  27.025  10.633
23050W        W82311   8.187  26.584  12.919
23051W        W82312  34.526  19.269  14.323
23052W        W82313   6.302  39.029  12.090
23053W        W82314   8.371  35.481  13.883
23054W        W82315  29.143  31.620  11.533
23055W        W82316  16.582  38.557  11.564
23056W        W82317  29.565  25.684   2.192
23057W        W82318  17.168  17.603   2.206
23058W        W82319  30.100  28.137  10.906
23059W        W82320  33.525  37.452   3.230
23060W        W82321  30.646   3.290   4.755
23061W        W82322  40.534  36.484  14.815
23062W        W82323  32.562  10.208  14.769
23063W        W82324   1.468  18.237   4.801
23064W        W82325  43.916   0.371  11.532
23065W        W82326  18.774  11.140   1.451
23066W        W82327   5.852  43.842   3.821
23067W        W82328  27.955  44.849  11.467
23068W        W82329  33.035  37.579   0.421
23069W        W82330   4.446  10.342   0.757
23070W        W82331  43.380  17.674   5.624
23071W        W82332   6.904  27.589  10.638
23072W        W82333  39.845  24.484   3.803
23073W        W82334   7.821  27.626  13.465
23074W        W82335  43.279  18.149   1.751
23075W        W82336  43.877  28.181   3.261
23076W        W82337  20.725  26.207   4.703
23077W        W82338  11.339   8.168  10.441
23078W        W82339  28.488   9.248   2.783
23079W        W82340  33.421  37.458  13.882
23080W        W82341   9.665  44.950   2.895
23081W        W82342  42.836  32.961   0.966
23082W        W82343   3.241  44.295  10.471
23083W        W82344  36.865  42.292  13.021
23084W        W82345  34.034  15.815   4.653
23085W        W82346   1.460  15.230  11.031
23086W        W82347  13.760   2.833  10.546
23087W        W82348  14.746  37.514  14.465
23088W        W82349   9.654  32.554   4.802
23089W        W82350  38.524   1.791  13.388
23090W        W82351  15.728  24.507  10.963
23091W        W82352  32.075   2.922  14.856
23092W        W82353  40.980  42.835  12.356
23093W        W82354  32.517  42.814   2.250
23094W        W82355  39.376   1.455  14.282
23095W        W82356  32.099  28.114  12.907
23096W        W82357  17.077  18.589  12.357
23097W        W82358  27.681  19.780   1.884
23098W        W82359  13.668   5.754   5.291
23099W        W82360  12.347  27.027  12.504
23100W        W82361  20.055  43.339   3.277
23101W        W82362  11.785  43.365   3.351
23102W        W82363   1.292   8.183   1.794
23103W        W82364  35.036  37.958  11.426
23104W        W82365  16.741  28.595  11.574
23105W        W82366  27.526  23.131   4.806
23106W        W82367  20.192  44.398  12.002
23107W        W82368  43.840  13.279   3.360
23108W        W82369  16.244  21.179   4.304
23109W        W82370  12.192  38.401   3.315
23110W        W82371   7.724   1.434   3.724
23111W        W82372   1.463  41.482   3.179
23112W        W82373  37.894   8.899  12.916
23113W        W82374  34.483  29.480   3.775
23114W        W82375  43.017  40.485   3.184
23115W        W82376  23.677  15.311   3.711
23116W        W82377  12.127  35.966  10.466
23117W        W82378  25.008   9.865  14.781
23118W        W82379  29.467  24.006   3.738
23119W        W82380   3.379   0.755   0.289
23120W        W82381  26.111  44.504   4.338
23121W        W82382   5.751   1.386   4.171
23122W        W82383   8.274  43.360   1.381
23123W        W82384  26.176  41.915   3.695
23124W        W82385  33.590   6.788   4.653
23125W        W82386  30.426  13.280   4.291
23126W        W82387  35.075  23.989  12.567
23127W        W82388  10.797  13.322  13.898
23128W        W82389  33.563  30.529   4.163
23129W        W82390   7.412  39.372   0.871
23130W        W82391  16.284   4.806   0.814
23131W        W82392  15.236   0.877  12.082
23132W        W82393   9.667  16.788  12.461
23133W        W82394  39.036  26.481   3.695
23134W        W82395  10.840  38.881   3.646
23135W        W82396  10.686  23.091   4.693
23136W        W82397  14.611  27.065  12.576
23137W        W82398  29.555   1.374  10.977
23138W        W82399  30.539   9.686   0.950
23139W        W82400  20.703  34.905  13.478
23140W        W82401  26.083  12.761  13.911
23141W        W82402  17.713   6.754  10.128
23142W        W82403  17.129  40.814  12.434
23143W        W82404  35.006   9.189   2.794
23144W        W82405   2.356   0.338   4.274
23145W        W82406  30.633  37.376  10.600
23146W        W82407  19.671  28.932  14.819
23147W        W82408  25.573  33.418  13.345
23148W        W82409  13.328  10.270   0.794
23149W        W82410  24.012  31.092  11.955
23150W        W82411   9.715   2.795   3.269
23151W        W82412  36.350  23.632  14.341
23152W        W82413   7.826  35.421   4.622
23153W        W82414  24.191  29.116  12.077
23154W        W82415   1.733  42.973   2.716
23155W        W82416  12.290  37.925  14.781
23156W        W82417  31.535   4.886   4.678
23157W        W82418  22.029   3.759   2.677
23158W        W82419  18.145   2.816  14.826
23159W        W82420   2.741  13.266  14.425
23160W        W82421  28.122   4.224   1.736
23161W        W82422  26.553  36.385   1.413
23162W        W82423  30.038  32.055   1.765
23163W        W82424   5.801  42.976   2.255
23164W        W82425   7.731  19.563  10.593
23165W        W82426   3.216  29.060   1.718
23166W        W82427  16.726  31.118  13.855
23167W        W82428  18.701  28.949  12.931
23168W        W82429   9.268  41.420  12.066
23169W        W82430  23.008  12.735  12.059
23170W        W82431  20.618  11.360  10.999
23171W        W82432  17.122  31.438  11.601
23172W        W82433  25.178  25.084  14.947
23173W        W82434   6.409  25.574  14.763
23174W        W82435  28.081  35.454   0.442
23175W        W82436  19.139  34.930   4.182
23176W        W82437  35.594   6.791  14.769
23177W        W82438  12.795  14.155   4.801
23178W        W82439  26.694  11.823   3.842
23179W        W82440  13.737   3.773  11.870
23180W        W82441  16.656  12.754   1.838
23181W        W82442  27.618  18.718   2.695
23182W        W82443  22.226  20.624   2.328
23183W        W82444  22.172  40.862   2.776
23184W        W82445  31.931  21.747  13.312
23185W        W82446   0.883   5.431  13.480
23186W        W82447  42.462  12.325   0.419
23187W        W82448   6.377  33.011   2.879
23188W        W82449  22.623  27.192  13.992
23189W        W82450  19.543   5.383   1.812
23190W        W82451   5.302  42.417  14.367
23191W        W82452  34.876  15.811  11.566
23192W        W82453  11.246  11.225  10.481
23193W        W82454  39.897  17.685   1.840
23194W        W82455   2.311  20.163  14.374
23195W        W82456  44.453   4.393  12.855
23196W        W82457   1.296  12.272  13.320
23197W        W82458  34.536  44.466  14.025
23198W        W82459  17.222  38.881  13.850
23199W        W82460  26.662  27.474   0.729
23200W        W82461   8.832  16.726   2.858
23201W        W82462  38.447   9.833   4.124
23202W        W82463   4.238   1.859  11.963
23203W        W82464   4.758  30.631   2.390
23204W        W82465  33.435  11.760   0.305
23205W        W82466   9.302   4.742  13.531
23206W        W82467  24.649   1.250  12.446
23207W        W82468  18.211  30.474   1.400
23208W        W82469  16.584  42.406  14.986
23209W        W82470  18.790   9.308   3.785
23210W        W82471  41.367  38.556   4.127
23211W        W82472  35.992  35.437   3.711
23212W        W82473  20.747  14.794   0.450
23213W        W82474  25.165  22.728  14.926
23214W        W82475  26.178  31.993  12.456
23215W        W82476  28.672  24.199  14.890
23216W        W82477  13.342  38.952  14.281
23217W        W82478  19.743   9.309  11.478
23218W        W82479  20.052  26.679   4.117
23219W        W82480  27.983   1.304  14.847
23220W        W82481  14.641   9.196  11.399
23221W        W82482  29.582  14.830  10.603
23222W        W82483  31.009  10.151   4.155
23223W        W82484  11.353   2.265  13.359
23224W        W82485  33.550  12.814   1.279
23225W        W82486  14.748  25.528   4.174
23226W        W82487  27.132  13.161   2.765
23227W        W82488  16.125  34.062   2.419
23228W        W82489   8.818  30.516   1.390
23229W        W82490  39.481  15.183   0.377
23230W        W82491  29.161  36.975  14.883
23231W        W82492  20.170  30.098   0.370
23232W        W82493  38.011  34.943   4.719
23233W        W82494  41.915  15.753  10.503
23234W        W82495  14.809  17.728  12.407
23235W        W82496   1.459  39.903   1.319
23236W        W82497  20.544   4.344   3.676
23237W        W82498   0.895  15.214   3.317
23238W        W82499  27.480  34.035  12.043
23239W        W82500  14.657  40.430  13.964
23240W        W82501  14.271  39.063  12.528
23241W        W82502  15.701   1.782   3.807
23242W        W82503  27.500  23.723   0.882
23243W        W82504  38.471  42.308   4.771
23244W        W82505  14.636  12.799  11.492
23245W        W82506   1.906  15.313   0.458
23246W        W82507  30.123   2.878   4.734
23247W        W82508  18.212  13.229  10.415
23248W        W82509  26.658   7.699   3.848
23249W        W82510  13.178   2.887   3.186
23250W        W82511   1.387  26.569   0.861
23251W        W82512  12.767  34.406  11.594
23252W        W82513  41.466  40.424  11.519
23253W        W82514  37.368  11.840   3.238
23254W        W82515   5.866   5.322  12.435
23255W        W82516  22.559  44.983  13.991
23256W        W82517  34.503  16.089  13.003
23257W        W82518  14.261   4.744  14.909
23258W        W82519  42.804  16.594   3.386
23259W        W82520  23.558   2.307   2.732
23260W        W82521  34.597  11.163   0.891
23261W        W82522  33.500  40.047  12.562
23262W        W82523  39.394  14.223  11.947
23263W        W82524   7.275  13.602   4.599
23264W        W82525   8.728  16.582   4.201
23265W        W82526   0.487  10.647   4.830
23266W        W82527   9.186  35.565  14.294
23267W        W82528  34.908  13.728  11.886
23268W        W82529  29.132  25.670   3.646
23269W        W82530  33.395  38.890   0.248
23270W        W82531   5.366  13.341   4.331
23271W        W82532  31.117   5.294  14.880
23272W        W82533  31.067   5.759  10.503
23273W        W82534   6.308  29.611  10.551
23274W        W82535  19.635  34.052  12.875
23275W        W82536  10.251  42.019  12.861
23276W        W82537  38.537   7.343  14.354
23277W        W82538  40.052   5.847  11.000
23278W        W82539  40.839  10.708  10.563
23279W        W82540   7.904  34.033   3.250
23280W        W82541  33.044   3.816   0.411
23281W        W82542  24.086   2.781  11.537
23282W        W82543  44.403  36.363  11.449
23283W        W82544  22.205  11.238  13.970
23284W        W82545   8.186  30.072   4.194
23285W        W82546  27.952  41.528   0.955
23286W        W82547  37.578   3.733  13.332
23287W        W82548  10.873  14.289   1.792
23288W        W82549  42.778  38.873   0.402
23289W        W82550  30.631  33.462   3.834
23290W        W82551  25.640   6.360   4.279
23291W        W82552  16.739  32.555  12.960
23292W        W82553  18.682  38.514  14.985
23293W        W82554  30.534  44.850   2.896
23294W        W82555   1.782  10.772  13.950
23295W        W82556  17.685  13.167   0.441
23296W        W82557  27.563  38.362   0.864
23297W        W82558  14.159  24.582  10.439
23298W        W82559  28.604  42.898   1.865
23299W        W82560  22.642  12.166   0.764
23300W        W82561  13.758  20.159  11.428
23301W        W82562  11.735  10.772   0.333
23302W        W82563  42.380  44.887   2.867
23303W        W82564  33.547  42.024  12.400
23304W        W82565   8.239  23.011  12.080
23305W        W82566  44.331  10.828  10.542
23306W        W82567  39.885  29.566   0.962
23307W        W82568  17.724   3.300   4.689
23308W        W82569   3.338  23.572   0.352
23309W        W82570   4.275  21.172   1.776
23310W        W82571  16.808  34.948   0.248
23311W        W82572  22.065  16.115   1.390
23312W        W82573  29.021  11.799  13.914
23313W        W82574   4.227  11.243  12.834
23314W        W82575  42.899  16.702   2.359
23315W        W82576  18.080  39.402  14.924
23316W        W82577  23.101  31.054   2.229
23317W        W82578  18.280  36.422   2.408
23318W        W82579   7.300   4.232   3.294
23319W        W82580  44.303  20.076   4.342
23320W        W82581  14.117  19.674   0.397
23321W        W82582   1.383  28.637   4.352
23322W        W82583  13.185   2.375  12.941
23323W        W82584  42.805  38.454  14.849
23324W        W82585  24.501  14.155  13.441
23325W        W82586  30.525  32.036  10.951
23326W        W82587  16.098  32.019  14.990
23327W        W82588  41.848  18.283  11.966
23328W        W82589  24.098  38.860  10.066
23329W        W82590  22.100  26.099  12.552
23330W        W82591  10.316  13.822   1.345
23331W        W82592  35.568  23.010   4.158
23332W        W82593  12.358  17.778   3.356
23333W        W82594  13.764  12.736  12.396
23334W        W82595  10.372  29.100   2.195
23335W        W82596  42.428  37.339   0.384
23336W        W82597  36.862  23.529   4.272
23337W        W82598   8.230  35.598  14.786
23338W        W82599  21.213  41.473  11.960
23339W        W82600  27.598  26.105   3.202
23340W        W82601  12.839  24.612   1.916
23341W        W82602  26.602   2.786  14.881
23342W        W82603  33.397  14.124  14.826
23343W        W82604   2.742  29.174   0.908
23344W        W82605  25.690  19.183   1.791
23345W        W82606  15.615   3.878   0.360
23346W        W82607  29.585  11.707  10.030
23347W        W82608  29.991  41.953  12.443
23348W        W82609  15.719   1.389   4.813
23349W        W82610   0.474  37.493   0.827
23350W        W82611  19.082  35.101  10.456
23351W        W82612   8.682  33.547  13.499
23352W        W82613   3.410   5.258  12.453
23353W        W82614  16.200  23.050  12.498
23354W        W82615  16.572  27.080   1.326
23355W        W82616  40.490   0.875   4.831
23356W        W82617  23.231  36.439  12.986
23357W        W82618   7.260  26.571   3.854
23358W        W82619  30.472  39.863  13.968
23359W        W82620  14.783  13.687  11.088
23360W        W82621  35.490  28.028  13.424
23361W        W82622  26.537  40.955   4.683
23362W        W82623   8.809  26.555   3.663
23363W        W82624   6.304  43.398  13.437
23364W        W82625  14.246   5.792   9.988
23365W        W82626  44.999  39.487   2.251
23366W        W82627   6.836  35.006   3.736
23367W        W82628  43.415  36.358   1.211
23368W        W82629   4.220  16.275   3.281
23369W        W82630  23.587  29.007   1.726
23370W        W82631  43.848  24.156  11.066
23371W        W82632  36.867  39.052   9.930
23372W        W82633  37.398  29.437   2.298
23373W        W82634   8.243  35.478   4.837
23374W        W82635  13.212   5.696  11.918
23375W        W82636  14.142  18.108   2.709
23376W        W82637  44.838  20.531   2.299
23377W        W82638  32.066  17.775  13.452
23378W        W82639  12.856  25.471  10.425
23379W        W82640  44.846  30.543   3.188
23380W        W82641  20.144   1.280  14.941
23381W        W82642  39.318   0.812  11.562
23382W        W82643  31.962  36.920   1.444
23383W        W82644  42.513  17.719   1.881
23384W        W82645  14.628  30.042  14.803
23385W        W82646  27.657   7.192   2.181
23386W        W82647  15.708  18.566  12.929
23387W        W82648   4.264   8.740  12.343
23388W        W82649  19.586  28.124  13.035
23389W        W82650  19.209  14.159   0.348
23390W        W82651  20.654   7.905   5.772
23391W        W82652  18.758  40.381  14.997
23392W        W82653  22.623  29.040  13.394
23393W        W82654  39.475  29.493   4.795
23394W        W82655  41.410  28.069  11.385
23395W        W82656   0.295   5.334   4.781
23396W        W82657  23.622  29.159  12.456
23397W        W82658  16.201  26.206   5.167
23398W        W82659   8.861   0.370   0.905
23399W        W82660   2.909  33.445  10.608
23400W        W82661  12.688  18.768   2.325
23401W        W82662  21.228  26.621   1.894
23402W        W82663  17.269  28.967  13.517
23403W        W82664   6.844  16.105  14.019
23404W        W82665   4.296  39.451  13.469
23405W        W82666  31.086  31.461   1.345
23406W        W82667  31.502   2.779  12.392
23407W        W82668  34.897  29.056  13.544
23408W        W82669  11.170  16.144  10.999
23409W        W82670  35.592  32.632  11.932
23410W        W82671  22.130   5.252  12.989
23411W        W82672  21.603  22.621  14.354
23412W        W82673  16.086   1.481   4.691
23413W        W82674   1.270  40.002  12.994
23414W        W82675  33.918  44.455  14.376
23415W        W82676  31.941  38.854  12.524
23416W        W82677  21.018  18.276  10.004
23417W        W82678  41.825  15.139   2.354
23418W        W82679   5.746  20.760   4.351
23419W        W82680  26.155  26.688  11.510
23420W        W82681  23.680   4.884  13.821
23421W        W82682  35.988  20.565   1.913
23422W        W82683  20.620   1.247  14.990
23423W        W82684  12.153  28.542  11.452
23424W        W82685  32.013  22.224  10.642
23425W        W82686  24.230  37.022   4.325
23426W        W82687   3.367  38.947   0.750
23427W        W82688   5.431  36.930  13.045
23428W        W82689  15.743  21.560   3.673
23429W        W82690   3.366   6.892   1.742
23430W        W82691   5.925  22.732  10.989
23431W        W82692   3.402  11.332  14.786
23432W        W82693   3.325  41.938  11.478
23433W        W82694   1.751  31.511  10.918
23434W        W82695  42.504  17.746   2.237
23435W        W82696  40.019  21.613  12.494
23436W        W82697   0.350  20.552   4.826
23437W        W82698   8.783   2.876  14.804
23438W        W82699  12.272  13.243  14.313
23439W        W82700   9.875  43.995   0.837
23440W        W82701  18.637  10.659  10.588
23441W        W82702   4.934  11.327   0.899
23442W        W82703  42.353   0.916   3.807
23443W        W82704  35.576  22.511   0.315
23444W        W82705  19.170   9.859  14.369
23445W        W82706  42.792  40.032  13.331
23446W        W82707  24.126  44.332   2.805
23447W        W82708   0.913   6.184   5.167
23448W        W82709  31.148   2.382  10.540
23449W        W82710  39.444  27.106   0.966
23450W        W82711  24.489  26.975  13.518
23451W        W82712  33.960  11.150  10.457
23452W        W82713  40.428  40.403   1.356
23453W        W82714  42.821   7.370  11.070
23454W        W82715  27.975  18.085  12.947
23455W        W82716  17.195  14.672  11.959
23456W        W82717  44.898  19.273   3.844
23457W        W82718  17.622  31.036  14.884
23458W        W82719  33.464  14.258   2.724
23459W        W82720   1.752  27.510  11.088
23460W        W82721  15.093   1.749  11.869
23461W        W82722   1.274  18.258  10.601
23462W        W82723  28.635  44.415  11.387
23463W        W82724  39.322  30.496  11.562
23464W        W82725  40.953  44.987   2.675
23465W        W82726   7.773  26.986   3.241
23466W        W82727  37.019  16.074  11.549
23467W        W82728  31.477  19.078   2.248
23468W        W82729   6.798   4.382  12.406
23469W        W82730  13.727   0.348  10.627
23470W        W82731  14.130   1.426  14.450
23471W        W82732   0.898  13.668   2.365
23472W        W82733   2.766  19.064   3.663
23473W        W82734  28.557  40.533  14.282
23474W        W82735  36.433  34.026   1.256
23475W        W82736  26.461  37.435   0.748
23476W        W82737  14.202  20.626  12.525
23477W        W82738  36.052  28.574  13.855
23478W        W82739  43.843  17.235  14.464
23479W        W82740   7.195  15.646   4.213
23480W        W82741   0.462  15.231   1.227
23481W        W82742  41.941  42.856   0.410
23482W        W82743   3.739   7.392  10.552
23483W        W82744  15.668   3.381  12.503
23484W        W82745   8.766  23.492   3.379
23485W        W82746  22.561  26.462  14.973
23486W        W82747  30.558  36.467   1.394
23487W        W82748  21.060  17.747  12.364
23488W        W82749  24.163  42.968  11.394
23489W        W82750  11.268  18.170  14.871
23490W        W82751  25.654  30.143  11.613
23491W        W82752  14.196  24.184   2.783
23492W        W82753  28.489  20.199  14.886
23493W        W82754  29.163  34.897  11.449
23494W        W82755  31.553  31.608  14.490
23495W        W82756  30.651   5.702   3.644
23496W        W82757  38.822  31.022   2.879
23497W        W82758  37.413  10.231  14.909
23498W        W82759  35.994  29.009  13.792
23499W        W82760  11.340  27.532  13.805
23500W        W82761   8.820   9.329   2.699
23501W        W82762   0.907  40.926   2.695
23502W        W82763  28.521  38.998  13.506
23503W        W82764  19.162  36.512  10.629
23504W        W82765  25.680  22.507   0.730
23505W        W82766   4.381   4.342   4.747
23506W        W82767  27.952  36.347  13.977
23507W        W82768  41.906  17.578   3.719
23508W        W82769  42.976  43.962   3.261
23509W        W82770   4.345   4.749  14.386
23510W        W82771   3.711  12.844  13.856
23511W        W82772  24.488  10.337  12.089
23512W        W82773  39.363   3.266   4.267
23513W        W82774  22.082  41.333   1.449
23514W        W82775   5.271  12.650  12.921
23515W        W82776  11.863   0.295  11.952
23516W        W82777  31.442  14.218   1.722
23517W        W82778  44.340  16.721   3.184
23518W        W82779  16.195  22.189   2.198
23519W        W82780  44.321  30.635   4.132
23520W        W82781  38.337  40.539  10.929
23521W        W82782  17.568  18.654   1.281
23522W        W82783  27.522  27.521   4.136
23523W        W82784   7.232  16.106  14.993
23524W        W82785  26.026  37.994   0.397
23525W        W82786  29.554  34.102  14.485
23526W        W82787   4.749  16.718  14.944
23527W        W82788  25.586  37.013  10.900
23528W        W82789  42.948  44.485  13.493
23529W        W82790  27.066  30.571   0.288
23530W        W82791  22.250  13.701  14.854
23531W        W82792  25.060  14.652   2.743
23532W        W82793  33.055  37.908   2.285
23533W        W82794  38.554  32.532   1.797
23534W        W82795   6.389   5.358   0.471
23535W        W82796  40.355  14.273   4.117
23536W        W82797  36.381   7.345  14.444
23537W        W82798  42.399  43.406  14.967
23538W        W82799   6.726   1.814  14.337
23539W        W82800   6.218  22.730  14.295
23540W        W82801  10.249  19.092   2.187
23541W        W82802  39.318  21.203   3.720
23542W        W82803  20.175  41.885  10.547
23543W        W82804  41.481   4.248  13.911
23544W        W82805   9.226  36.874  12.922
23545W        W82806  20.730  44.419   4.778
23546W        W82807   3.226  40.900  14.902
23547W        W82808   9.783  13.845  12.876
23548W        W82809  34.934  42.497  12.513
23549W        W82810   9.329  35.478   2.748
23550W        W82811   5.821  44.305  13.950
23551W        W82812  44.876  16.222   1.326
23552W        W82813  24.662   1.306  14.862
23553W        W82814  16.235  27.092   2.729
23554W        W82815  22.660   3.436  12.406
23555W        W82816  29.028  11.234   2.797
23556W        W82817   6.387  40.999  13.445
23557W        W82818  23.197  43.844   4.323
23558W        W82819  38.426   6.867  12.452
23559W        W82820  24.609  31.002  13.942
23560W        W82821  22.650   9.694   1.289
23561W        W82822  37.008   8.325  13.314
23562W        W82823  41.364  39.480  13.863
23563W        W82824  39.861  28.182  13.478
23564W        W82825   2.257  15.325  10.583
23565W        W82826  12.727   4.293  13.794
23566W        W82827  24.070  35.095  11.452
23567W        W82828  43.283   3.942  12.076
23568W        W82829  19.178  18.232  12.895
23569W        W82830  10.279  26.468   9.961
23570W        W82831  44.264  26.967   3.209
23571W        W82832  32.896  35.459   0.803
23572W        W82833  36.486  24.530  14.362
23573W        W82834  39.879  19.747  12.357
23574W        W82835  16.624   7.278  12.085
23575W        W82836  41.494  21.185   4.143
23576W        W82837  42.937  16.276   1.392
23577W        W82838  17.726  38.912   2.277
23578W        W82839  43.804  41.355  11.464
23579W        W82840  16.269  17.722   2.375
23580W        W82841   8.879  40.875  14.472
23581W        W82842  16.648  41.359   0.793
23582W        W82843  14.221  21.166  14.425
23583W        W82844  27.027   0.485   3.324
23584W        W82845  23.031   5.785  11.125
23585W        W82846  38.913  19.222  14.357
23586W        W82847  15.750  21.654   0.461
23587W        W82848  44.963  36.425  13.965
23588W        W82849  42.863  39.382   1.867
23589W        W82850  12.350  31.489  11.094
23590W        W82851   6.854  38.339  11.376
23591W        W82852   2.423  29.020  12.463
23592W        W82853  11.741  13.232   4.328
23593W        W82854  19.170  23.710   3.747
23594W        W82855   6.247  11.835  10.909
23595W        W82856  17.107  22.113  14.382
23596W        W82857  22.509  10.745  10.934
23597W        W82858   3.950  26.206   2.713
23598W        W82859  32.547  16.644  12.469
23599W        W82860  20.580   1.318   4.614
23600W        W82861   8.204  18.236   3.196
23601W        W82862  35.569  39.455  13.494
23602W        W82863  19.673  37.044  14.401
23603W        W82864  33.114  34.911   0.379
23604W        W82865  13.274  34.921  12.917
23605W        W82866  28.145  14.173  14.885
23606W        W82867  29.065  32.575  14.296
23607W        W82868   7.327  34.879  10.474
23608W        W82869  11.304  20.072   3.636
23609W        W82870  13.644  18.700  10.416
23610W        W82871   0.423  29.050   4.751
23611W        W82872  35.898   4.427  10.486
23612W        W82873   3.225  35.923  13.536
23613W        W82874   8.742  38.410   3.805
23614W        W82875  30.483  15.219  14.964
23615W        W82876   4.440  29.646   0.951
23616W        W82877   3.927  38.034  10.448
23617W        W82878  32.516  36.999  13.363
23618W        W82879  22.596  17.651   4.199
23619W        W82880  24.052   2.734   4.321
23620W        W82881  41.372  35.076  10.984
23621W        W82882  35.978  39.382  14.463
23622W        W82883   7.737  19.131  13.974
23623W        W82884   2.308  40.451   5.164
23624W        W82885  28.178  34.370   1.261
23625W        W82886  44.915   4.711  11.065
23626W        W82887   1.950  35.568   4.742
23627W        W82888  36.846  42.284  13.377
23628W        W82889  23.074  11.728  13.320
23629W        W82890  28.638  20.087   2.352
23630W        W82891  17.263  41.457   2.760
23631W        W82892  40.476  27.156  11.465
23632W        W82893  37.430  15.270  14.497
23633W        W82894  26.032  32.893   3.244
23634W        W82895  23.237  13.791   3.695
23635W        W82896   6.311   3.717  14.780
23636W        W82897  11.699  37.469  11.466
23637W        W82898  36.073  13.159   1.699
23638W        W82899  20.620  44.318  14.355
23639W        W82900  13.681   6.919  12.942
23640W        W82901  43.505   4.305   4.745
23641W        W82902  22.558  17.091   5.170
23642W        W82903  18.573  39.964   1.799
23643W        W82904  36.531  10.249  14.839
23644W        W82905  27.103   3.345   4.714
23645W        W82906  20.666  13.840  14.894
23646W        W82907  25.135  22.677   1.876
23647W        W82908  22.067  32.436  14.806
23648W        W82909  27.606  34.105  10.587
23649W        W82910   7.393  41.507   0.852
23650W        W82911   4.239  28.944  13.812
23651W        W82912   8.286  39.950   3.675
23652W        W82913  36.094   7.799   5.275
23653W        W82914  29.638  38.935  12.990
23654W        W82915  34.036  23.709  12.512
23655W        W82916  12.677  44.897   4.280
23656W        W82917  32.093  23.530  13.452
23657W        W82918  32.893   1.373   1.318
23658W        W82919   1.320  32.558   3.208
23659W        W82920  21.644  36.479   1.281
23660W        W82921  35.935  19.772   3.245
23661W        W82922  13.685  22.121  12.062
23662W        W82923  31.455   1.736   3.223
23663W        W82924  33.130  27.596  13.400
23664W        W82925  36.418  13.840  11.021
23665W        W82926   7.372  17.263   0.473
23666W        W82927  19.724  22.036  13.375
23667W        W82928  26.193   9.805   3.833
23668W        W82929  36.018  24.701  11.582
23669W        W82930  16.083  21.128  14.995
23670W        W82931   3.241  12.782  11.021
23671W        W82932  18.267   5.863   3.724
23672W        W82933   7.763  31.093   3.250
23673W        W82934  35.092  17.658   1.437
23674W        W82935  36.001  44.805   2.224
23675W        W82936  31.546  26.056  13.911
23676W        W82937  21.206  39.851   3.207
23677W        W82938  25.533  41.404  12.934
23678W        W82939  34.097  37.565  14.322
23679W        W82940  20.074  19.135  11.104
23680W        W82941   7.304  36.425   3.866
23681W        W82942  19.177   6.761  14.031
23682W        W82943   4.711  18.581  11.924
23683W        W82944   9.837  15.317  14.854
23684W        W82945  30.009  14.326   3.271
23685W        W82946  31.094  11.167  12.888
23686W        W82947  11.130  23.080  14.958
23687W        W82948  29.110  15.606   2.387
23688W        W82949   9.691   2.371   4.707
23689W        W82950   8.352   1.789   0.331
23690W        W82951  22.543  14.186  11.427
23691W        W82952   5.409   1.790  10.459
23692W        W82953  23.193  22.102  13.333
23693W        W82954  21.085  21.243  12.484
23694W        W82955  13.635  39.911  12.067
23695W        W82956  38.331  11.158  14.446
23696W        W82957  16.693  44.302  13.986
23697W        W82958  35.447  15.205  14.285
23698W        W82959  13.124  27.503  13.977
23699W        W82960  26.148  37.540  13.326
23700W        W82961  25.994  23.654   0.745
23701W        W82962  38.353  23.592   4.714
23702W        W82963  41.037  42.989  14.781
23703W        W82964   4.305  22.195  13.873
23704W        W82965   2.383  44.773  12.395
23705W        W82966  17.584  19.257  12.350
23706W        W82967  18.752   1.770   0.965
23707W        W82968  28.667  14.763   3.697
23708W        W82969  34.398  42.874   2.266
23709W        W82970  39.412  15.727   1.249
23710W        W82971  30.021  20.251  12.848
23711W        W82972  33.453  15.808   0.284
23712W        W82973  26.149  41.501  11.402
23713W        W82974  38.979  31.441   3.160
23714W        W82975  10.764  39.838   0.946
23715W        W82976  31.487  42.439   0.805
23716W        W82977  28.634  20.722   4.131
23717W        W82978   4.215  28.076   4.681
23718W        W82979  10.786  13.823  10.643
23719W        W82980  28.539  42.291  13.841
23720W        W82981   8.868  20.605  12.358
23721W        W82982  22.515   5.723  14.915
23722W        W82983   9.179  44.989   4.236
23723W        W82984  17.170  34.078  11.063
23724W        W82985  11.642   5.347   4.245
23725W        W82986  19.094  26.518   0.845
23726W        W82987  33.075  15.597   4.789
23727W        W82988   9.182   4.874  13.801
23728W        W82989  34.386  10.759  13.990
23729W        W82990  11.802  26.460   4.717
23730W        W82991  21.134   8.333   1.268
23731W        W82992  22.583  40.872  12.979
23732W        W82993  18.607  26.071   4.349
23733W        W82994  32.139   8.369  14.408
23734W        W82995   8.736  30.453  14.493
23735W        W82996   3.728  20.130  14.822
23736W        W82997  42.826   5.364   1.357
23737W        W82998  34.388   4.376  12.046
23738W        W82999  26.476   2.245   0.755
23739W        W83000  24.065  25.653   3.640
23740W        W83001   6.244   2.393   1.233
23741W        W83002  11.867   2.783   2.239
23742W        W83003   4.334  36.515   3.199
23743W        W83004  39.882  22.170  13.815
23744W        W83005  32.117  39.898   0.754
23745W        W83006  13.124  22.738   1.289
23746W        W83007  37.487  44.479  10.466
23747W        W83008  36.097   3.367  12.017
23748W        W83009  30.125   4.325   1.780
23749W        W83010  23.132  24.061  10.471
23750W        W83011  28.668  10.834  11.578
23751W        W83012  14.173   4.776   1.366
23752W        W83013  25.105   5.325   0.470
23753W        W83014  41.814  29.099   5.752
23754W        W83015  22.702  16.316   4.197
23755W        W83016   6.336  36.955   1.846
23756W        W83017  22.168   7.722  11.567
23757W        W83018  21.580  27.532  11.553
23758W        W83019  40.926  11.175  11.397
23759W        W83020  19.269   6.349  12.550
23760W        W83021  27.097  16.261  14.405
23761W        W83022  37.960  44.995  14.912
23762W        W83023  31.482   0.821   4.815
23763W        W83024   5.792  36.524  11.484
23764W        W83025  37.949  17.719   3.839
23765W        W83026  31.580   3.454  11.458
23766W        W83027   3.252  38.375   3.358
23767W        W83028   3.903   6.747  14.952
23768W        W83029  28.164  18.677  12.534
23769W        W83030  29.559   1.854   5.297
23770W        W83031  11.747  36.352  14.390
23771W        W83032  15.211  15.105   2.722
23772W        W83033  44.421   8.262  14.314
23773W        W83034  26.499  15.596   4.725
23774W        W83035  41.426   0.987  14.383
23775W        W83036  21.742  25.110  11.030
23776W        W83037   5.715   1.412  11.971
23777W        W83038  30.153  14.150   0.422
23778W        W83039  13.746  25.170   0.367
23779W        W83040  20.714   8.782  14.439
23780W        W83041   5.326  13.348   1.850
23781W        W83042  35.565   0.336  12.937
23782W        W83043   3.261  15.703   2.724
23783W        W83044  11.197  20.580   0.324
23784W        W83045  30.467   4.414   1.293
23785W        W83046  36.076   4.209  11.119
23786W        W83047  16.650  26.535   2.279
23787W        W83048   6.923  35.091   1.315
23788W        W83049  14.290  36.020  12.895
23789W        W83050  20.215  36.991  10.490
23790W        W83051  43.882  37.900   0.330
23791W        W83052   5.273   4.404   4.622
23792W        W83053  11.789  22.147   4.739
23793W        W83054   5.753  12.622   1.258
23794W        W83055  10.217  38.354   4.213
23795W        W83056   0.379  32.898   3.379
23796W        W83057  35.364   0.961  13.801
23797W        W83058  30.630   3.410   4.333
23798W        W83059  23.613  22.126  14.999
23799W        W83060  33.888  15.807   0.382
23800W        W83061   1.950  13.781  10.456
23801W        W83062  21.570   2.953  13.803
23802W        W83063  39.360  18.692  14.319
23803W        W83064   0.281   4.892  13.987
23804W        W83065  19.586  14.155  12.464
23805W        W83066  33.546   5.399   2.330
23806W        W83067  32.924   5.317   0.311
23807W        W83068  38.865  14.133   3.638
23808W        W83069  23.113  38.043   1.416
23809W        W83070  40.928   7.244  12.435
23810W        W83071  42.473  41.314   4.619
23811W        W83072  29.434   5.778  13.519
23812W        W83073  27.177  43.432   0.469
23813W        W83074   6.680  25.031  14.486
23814W        W83075   0.286   4.761   1.243
23815W        W83076  14.683   5.687  13.013
23816W        W83077  35.063  39.560  11.391
23817W        W83078   6.797  11.280   1.856
23818W        W83079  12.854  35.411  14.992
23819W        W83080   9.887  42.807  11.965
23820W        W83081   4.823  28.458   1.920
23821W        W83082   7.760  19.572  12.923
23822W        W83083  40.877  30.648   1.746
23823W        W83084  21.597   2.285   4.755
23824W        W83085  36.351   2.825   1.707
23825W        W83086   9.283  14.655   4.179
23826W        W83087   8.883  18.649  11.398
23827W        W83088   6.302  30.976  10.891
23828W        W83089  44.843  14.732   4.324
23829W        W83090  27.084   9.871  11.578
23830W        W83091  10.669  16.649  12.897
23831W        W83092  33.445   9.254  13.415
23832W        W83093   1.383  38.907   3.738
23833W        W83094  14.170   4.399  11.865
23834W        W83095  27.940  20.725  11.080
23835W        W83096  23.505  15.732   2.793
23836W        W83097  39.378  37.897   2.243
23837W        W83098  29.595  25.586  13.330
23838W        W83099  27.465   7.767  12.517
23839W        W83100   8.800  12.729   0.826
23840W        W83101   9.371  44.496   2.314
23841W        W83102  44.350  10.688   2.375
23842W        W83103  36.484  34.864  12.503
23843W        W83104  41.859  25.044  14.855
23844W        W83105   2.305   8.291   2.702
23845W        W83106  32.034  31.125   3.384
23846W        W83107   5.199  42.891   1.226
23847W        W83108  15.171  37.458  12.043
23848W        W83109   4.234   4.291  14.803
23849W        W83110  10.270  39.029  13.816
23850W        W83111  43.505  14.806   1.226
23851W        W83112  37.860  31.543   2.217
23852W        W83113  43.333   1.916   0.929
23853W        W83114  14.686  16.609  14.010
23854W        W83115   2.783   6.399   4.650
23855W        W83116  22.206  26.078   2.879
23856W        W83117  43.855   9.171  11.379
23857W        W83118  39.540  27.168  11.448
23858W        W83119  18.757  14.266  14.508
23859W        W83120  41.827   4.396   0.359
23860W        W83121  22.045  28.166   1.820
23861W        W83122  25.052  31.054   2.866
23862W        W83123  12.667  27.095   0.375
23863W        W83124   4.387  32.886  10.529
23864W        W83125  26.608  11.773   3.235
23865W        W83126  32.013  30.440  13.811
23866W        W83127  20.058  37.542   0.327
23867W        W83128  42.308  40.348  11.422
23868W        W83129  35.463  30.019   2.334
23869W        W83130   3.219  24.067   2.845
23870W        W83131  16.782  17.792  10.484
23871W        W83132   9.763   4.928  12.904
23872W        W83133  15.657  15.589   4.776
23873W        W83134   2.244  30.484   0.786
23874W        W83135   9.861   3.361  11.497
23875W        W83136   5.878  39.941  12.998
23876W        W83137  42.024  22.680  13.352
23877W        W83138  40.521  13.745  12.432
23878W        W83139  38.388  30.574  11.890
23879W        W83140  39.896  42.814   1.819
23880W        W83141  21.755  43.456   0.746
23881W        W83142  35.108   6.200   0.753
23882W        W83143  36.565  34.067  11.925
23883W        W83144   5.898  23.184  12.392
23884W        W83145  43.370  16.101   1.280
23885W        W83146  36.478  27.600   0.736
23886W        W83147  42.391   5.208   0.321
23887W        W83148  41.429  14.670   4.236
23888W        W83149  16.095   2.347   0.445
23889W        W83150  22.648   1.788   1.403
23890W        W83151  44.377  11.193   4.249
23891W        W83152  18.775  38.406   2.675
23892W        W83153  31.143  15.231   4.628
23893W        W83154  14.330  39.427  11.856
23894W        W83155  42.905  23.101   4.651
23895W        W83156  13.600  27.550   3.346
23896W        W83157  40.321  10.638   1.392
23897W        W83158  10.233  36.579  14.421
23898W        W83159  29.068  11.316   0.890
23899W        W83160  33.518  43.343   4.751
23900W        W83161  23.620  12.214   3.374
23901W        W83162  24.719  44.971   3.167
23902W        W83163  38.906  23.162  14.028
23903W        W83164  14.144   6.828  10.890
23904W        W83165  14.676   2.736   0.435
23905W        W83166  31.909  23.026   4.628
23906W        W83167  29.023   1.976   0.403
23907W        W83168   5.885  40.936   4.786
23908W        W83169  14.110  42.387  11.398
23909W        W83170  21.747  31.406   2.285
23910W        W83171  16.284  29.085   4.663
23911W        W83172  27.558  22.601   2.192
23912W        W83173  34.869  25.135   1.267
23913W        W83174  39.831  32.600   2.778
23914W        W83175  26.700  14.676  13.394
23915W        W83176  14.633   6.754   4.325
23916W        W83177  28.449   5.859   0.479
23917W        W83178  40.817  25.562  12.555
23918W        W83179   5.699  30.149  10.502
23919W        W83180  16.613  19.191  14.347
23920W        W83181   4.829  17.210   4.340
23921W        W83182  17.239   4.209   4.643
23922W        W83183   3.728  42.901   4.630
23923W        W83184  26.022   6.308  14.420
23924W        W83185  38.063  32.628  14.972
23925W        W83186  10.777  28.120  14.789
23926W        W83187   9.176  13.207  12.500
23927W        W83188  40.388  34.095  10.524
23928W        W83189  16.777  14.227   1.421
23929W        W83190  12.757  39.964  13.419
23930W        W83191  20.084  40.365  12.879
23931W        W83192  14.200  37.348  12.845
23932W        W83193   6.386   9.811   3.150
23933W        W83194  10.712  32.508  11.886
23934W        W83195  18.245  23.984  11.905
23935W        W83196   7.261   8.842   4.812
23936W        W83197   6.259   3.723   2.261
23937W        W83198  42.438  14.237   2.341
23938W        W83199  15.259  29.022  13.404
23939W        W83200  23.009  18.735   2.383
23940W        W83201   4.763   7.305   2.714
23941W        W83202   8.684   5.231   1.883
23942W        W83203  38.041   5.199  11.541
23943W        W83204  17.639  36.879   2.231
23944W        W83205   6.214   4.422  12.493
23945W        W83206  16.573  22.118   3.713
23946W        W83207  33.991  44.270  12.356
23947W        W83208   8.220   9.184  13.820
23948W        W83209  32.586  16.666   4.215
23949W        W83210  43.413  40.393   0.322
23950W        W83211  39.481  39.333   0.307
23951W        W83212  15.146   5.718  14.474
23952W        W83213   1.276  40.809  11.997
23953W        W83214  22.119  16.578   5.209
23954W        W83215  38.072  19.663   0.450
23955W        W83216   5.283  17.656   0.413
23956W        W83217  32.400  26.113  11.865
23957W        W83218   0.940  21.594  13.392
23958W        W83219   6.704  44.856  11.482
23959W        W83220  11.813   1.253   3.311
23960W        W83221  37.026  22.736  13.948
23961W        W83222  20.047  25.055  11.021
23962W        W83223   9.375  12.174  12.975
23963W        W83224   0.939   8.785  12.570
23964W        W83225  12.802  28.154  12.884
23965W        W83226  21.660  39.862   0.803
23966W        W83227  32.973  33.994  12.568
23967W        W83228  28.999  22.176  13.994
23968W        W83229  19.102  23.621   1.791
23969W        W83230  40.432  33.945  14.354
23970W        W83231   3.840   7.753   1.289
23971W        W83232  21.574  28.176  11.394
23972W        W83233  14.140   9.711   4.114
23973W        W83234   5.258  23.218   4.337
23974W        W83235  35.428  21.682   2.875
23975W        W83236  17.611   4.774   1.769
23976W        W83237  35.033  15.636  10.554
23977W        W83238  44.475  31.645  11.113
23978W        W83239  37.560  23.611   1.922
23979W        W83240  22.558  22.544   1.298
23980W        W83241  34.008  19.740   0.381
23981W        W83242   1.894  37.523  13.947
23982W        W83243  43.379  19.699   2.721
23983W        W83244  30.565  11.140   1.311
23984W        W83245  26.059  29.071  12.423
23985W        W83246  43.465  26.698  10.607
23986W        W83247  38.369  42.304   4.149
23987W        W83248  34.944  11.762  14.397
23988W        W83249  40.918  16.254   3.685
23989W        W83250  36.047  18.733   4.746
23990W        W83251   0.928  14.175   2.292
23991W        W83252  41.452   9.371  12.830
23992W        W83253  21.572   9.758  11.469
23993W        W83254  41.303  36.572  13.361
23994W        W83255  44.893  29.017   3.274
23995W        W83256  17.219  20.641   5.727
23996W        W83257  26.032  39.536   3.783
23997W        W83258  35.011  40.320  12.468
23998W        W83259   7.270  31.509  13.983
23999W        W83260  26.005  18.623   1.212
24000W        W83261  11.715  12.612   4.747
24001W        W83262   2.362  39.863   0.811
24002W        W83263  34.494  36.873  14.436
24003W        W83264  27.132  20.547  11.914
24004W        W83265  29.534  13.194   3.684
24005W        W83266  33.120  41.358   0.870
24006W        W83267  34.603  41.903   3.786
24007W        W83268  37.965  17.195  11.948
24008W        W83269  30.479  42.507   1.333
24009W        W83270   2.389  37.567  14.988
24010W        W83271  15.823   2.446  12.883
24011W        W83272  12.674  18.130  14.822
24012W        W83273   5.344  31.568   2.271
24013W        W83274   1.829  32.637  14.344
24014W        W83275   9.765  32.548   4.253
24015W        W83276   1.377  32.584   2.781
24016W        W83277  40.427  24.668  12.442
24017W        W83278  20.248  43.769  12.962
24018W        W83279  31.024  18.162   4.611
24019W        W83280  35.531  16.294   2.219
24020W        W83281  23.592  23.700  11.907
24021W        W83282   3.281  29.161   4.211
24022W        W83283   2.276  36.943   3.318
24023W        W83284  15.098  32.093   0.419
24024W        W83285  11.851   0.980  12.577
24025W        W83286  23.236   6.313   0.328
24026W        W83287   1.759   8.210  14.365
24027W        W83288  28.479  43.467   4.296
24028W        W83289  18.152  34.048  11.507
24029W        W83290  21.228  32.887  12.053
24030W        W83291  44.850  44.490  10.995
24031W        W83292   7.225  20.168   0.333
24032W        W83293  24.174  28.028  13.833
24033W        W83294  25.653   0.322   3.226
24034W        W83295  41.813  27.989   1.277
24035W        W83296  15.273  44.435  13.456
24036W        W83297  39.454   9.764  12.410
24037W        W83298  22.614   6.824  10.441
24038W        W83299  41.421  29.154   2.761
24039W        W83300  43.445   3.432  13.941
24040W        W83301  32.427   1.482   1.935
24041W        W83302  13.126   0.958   0.417
24042W        W83303   6.359  16.191   0.403
24043W        W83304  26.981  40.847   4.319
24044W        W83305   5.229  25.686  10.432
24045W        W83306  10.813  16.108  10.901
24046W        W83307  36.856  10.867   1.363
24047W        W83308  11.212   6.903   4.269
24048W        W83309  26.203   9.157   4.729
24049W        W83310  27.123   1.774  12.884
24050W        W83311  13.681   0.394   2.389
24051W        W83312   1.248  42.312  14.938
24052W        W83313  30.113  23.051  11.945
24053W        W83314  15.212  11.639  12.066
24054W        W83315  20.126  32.119  12.432
24055W        W83316  40.311  26.594   3.205
24056W        W83317  10.760  22.035  11.006
24057W        W83318  12.351  42.021   2.789
24058W        W83319   3.284  12.355  13.957
24059W        W83320   6.358  29.590   3.353
24060W        W83321  10.703  25.579   4.314
24061W        W83322  21.625  44.275  13.040
24062W        W83323   6.401  19.542  12.851
24063W        W83324  40.409  23.596   3.798
24064W        W83325  22.508  11.841   1.902
24065W        W83326  41.933   1.319  13.537
24066W        W83327  11.651   0.408  12.564
24067W        W83328   2.405   0.405   1.270
24068W        W83329  14.662   6.920   2.323
24069W        W83330  39.396  18.235  14.834
24070W        W83331   8.302   9.315  13.534
24071W        W83332   8.296  37.395   0.388
24072W        W83333   3.428  26.534  13.910
24073W        W83334  26.675   6.188   1.393
24074W        W83335   2.355  28.086   2.803
24075W        W83336  24.989   4.929  14.379
24076W        W83337   1.420  39.550   4.277
24077W        W83338  16.130  22.560  10.428
24078W        W83339  22.248  32.624  12.966
24079W        W83340  24.041  40.526  10.516
24080W        W83341  21.522  35.873   1.291
24081W        W83342  13.292  35.975  14.901
24082W        W83343   5.342  29.622  13.829
24083W        W83344  19.686   5.243   5.633
24084W        W83345   8.328  37.376   4.256
24085W        W83346   0.347  24.641   1.236
24086W        W83347   8.747  27.452   0.351
24087W        W83348  42.473   1.257   2.802
24088W        W83349  31.418  11.200  13.511
24089W        W83350  29.619   7.274   1.443
24090W        W83351  44.298  32.408   1.389
24091W        W83352  33.451  13.286  10.466
24092W        W83353  29.985  34.370   4.626
24093W        W83354  42.881  20.123   1.305
24094W        W83355   8.749  25.142   2.823
24095W        W83356  28.492  17.289  13.440
24096W        W83357  11.809  38.025  10.979
24097W        W83358  31.120  34.467   1.285
24098W        W83359  39.525  21.038   4.181
24099W        W83360  44.988  21.639  12.955
24100W        W83361   7.402  33.904  12.000
24101W        W83362  25.596  35.489   4.345
24102W        W83363  38.994  30.463   4.824
24103W        W83364  25.631  42.814  12.068
24104W        W83365  40.928  19.171  14.926
24105W        W83366  10.265  20.701  11.934
24106W        W83367  27.150  42.504   4.293
24107W        W83368   1.268  23.611   4.328
24108W        W83369  29.663   9.393   4.703
24109W        W83370  44.341  22.211   2.772
24110W        W83371  12.705   6.361   4.606
24111W        W83372   4.776  22.126   1.230
24112W        W83373  19.576  30.471  13.054
24113W        W83374  40.898  12.170  11.518
24114W        W83375   2.854  24.104  13.373
24115W        W83376  31.138  37.927   4.285
24116W        W83377  35.407  33.493  14.464
24117W        W83378  38.832  11.246  14.303
24118W        W83379  26.967  10.162   3.784
24119W        W83380   4.838   9.758  12.479
24120W        W83381  31.058  19.595   5.173
24121W        W83382  40.809   6.424  13.418
24122W        W83383  35.420   3.860  12.949
24123W        W83384  11.844   9.243  13.817
24124W        W83385  19.229   3.919   4.807
24125W        W83386  18.671   7.318   3.246
24126W        W83387  19.587  35.035   1.838
24127W        W83388  32.122   6.300   2.890
24128W        W83389  42.504  33.887  12.547
24129W        W83390   5.864  11.657  12.447
24130W        W83391  40.040   7.698  13.372
24131W        W83392  32.015  38.483  12.025
24132W        W83393  16.275  36.951  14.913
24133W        W83394  30.128  23.597  11.124
24134W        W83395  24.009   5.726  12.352
24135W        W83396   5.923  32.517  11.001
24136W        W83397  15.710   4.389   4.747
24137W        W83398  15.099   8.660  13.939
24138W        W83399  24.530  29.526  13.326
24139W        W83400   8.282   3.374  14.969
24140W        W83401  41.933   3.443  12.478
24141W        W83402  19.554  15.758  11.433
24142W        W83403  16.074  22.663   1.232
24143W        W83404  16.096  12.830   3.634
24144W        W83405  43.894  32.590  11.388
24145W        W83406  19.106   4.735  14.988
24146W        W83407  14.794  38.051  14.924
24147W        W83408  39.984  29.014   0.378
24148W        W83409   2.244   0.338  13.427
24149W        W83410  36.501  26.092   3.218
24150W        W83411  26.164  40.850   3.234
24151W        W83412   4.326  16.202   0.342
24152W        W83413  21.061  40.893   3.358
24153W        W83414  44.326  24.991   3.728
24154W        W83415  32.450  38.557  10.911
24155W        W83416  40.849  10.813   1.357
24156W        W83417   5.733  41.427   0.773
24157W        W83418   5.348  22.231   2.873
24158W        W83419  42.992  37.991   9.495
24159W        W83420   3.876  33.075   3.852
24160W        W83421   6.264  32.479   2.717
24161W        W83422  30.561  14.775  10.890
24162W        W83423  19.537  20.265  10.990
24163W        W83424  26.609   2.865   2.407
24164W        W83425  15.626  42.828   3.343
24165W        W83426  15.673  30.537  14.878
24166W        W83427   2.391  26.120   2.365
24167W        W83428   2.318  24.985   0.912
24168W        W83429  39.437  30.614   5.305
24169W        W83430   5.742   7.264   4.772
24170W        W83431  10.383   5.711   3.167
24171W        W83432   3.732  29.573   0.893
24172W        W83433  30.431  22.068   4.224
24173W        W83434  28.481   4.212   2.290
24174W        W83435  35.447  34.612   3.849
24175W        W83436  30.577  28.084  11.420
24176W        W83437  32.951  25.609   4.734
24177W        W83438  15.259  33.404   0.272
24178W        W83439  44.884  12.211   1.347
24179W        W83440  29.147  42.833  14.835
24180W        W83441  22.176  32.904  14.316
24181W        W83442  38.521  27.150  14.777
24182W        W83443  30.000  26.141   4.711
24183W        W83444  16.152  36.499   4.149
24184W        W83445  32.398   5.321   4.177
24185W        W83446  11.794  24.517  11.007
24186W        W83447  18.151   7.679   4.286
24187W        W83448  27.031  30.941   1.392
24188W        W83449  23.177  14.668  14.907
24189W        W83450  35.456  10.381   4.638
24190W        W83451  31.591  15.690   2.401
24191W        W83452  28.146   4.840  11.000
24192W        W83453  24.593  22.096  13.982
24193W        W83454  30.997  25.672   3.255
24194W        W83455  16.210  26.096  14.447
24195W        W83456  15.237  33.116  10.595
24196W        W83457   7.262  12.340   1.338
24197W        W83458  41.495   2.308  13.989
24198W        W83459   4.252  16.729   1.222
24199W        W83460  37.385  17.129   2.868
24200W        W83461  33.070   1.356   2.887
24201W        W83462  12.758  15.132  12.893
24202W        W83463  21.132   9.279  14.019
24203W        W83464  31.056  27.959   1.771
24204W        W83465   9.196  39.485  10.642
24205W        W83466  12.642   8.389  12.572
24206W        W83467  21.731  43.514   3.323
24207W        W83468  10.841  32.103  13.956
24208W        W83469  11.177  35.004   4.141
24209W        W83470   5.200  17.751  11.036
24210W        W83471  35.404  12.306  10.616
24211W        W83472   2.298   1.239  10.450
24212W        W83473  19.650  26.043   0.458
24213W        W83474  25.670  32.598   1.829
24214W        W83475  39.877  32.482  10.021
24215W        W83476   2.962  41.858   3.674
24216W        W83477  35.560   4.868   4.648
24217W        W83478  26.524   3.732   3.823
24218W        W83479   4.750  21.542  13.829
24219W        W83480  32.406  38.496  11.386
24220W        W83481  21.731  35.405   2.768
24221W        W83482  33.973  16.285  14.352
24222W        W83483  26.146  33.070   1.425
24223W        W83484  35.034   7.174  11.578
24224W        W83485   4.229  26.135   1.369
24225W        W83486   2.746   9.748   0.898
24226W        W83487  25.197  15.584   4.211
24227W        W83488  12.823  24.599  11.567
24228W        W83489  13.213  10.278  10.480
24229W        W83490  35.583  18.652   3.713
24230W        W83491  28.994  40.415  10.894
24231W        W83492  42.361  13.823   2.896
24232W        W83493   5.868  20.264   4.715
24233W        W83494  34.068   4.324   1.365
24234W        W83495  20.548  12.814   4.134
24235W        W83496  39.416  30.094   1.813
24236W        W83497  28.664  38.914   1.866
24237W        W83498  10.182  26.128  13.333
24238W        W83499  37.996  38.397   2.418
24239W        W83500  24.557  29.473  14.796
24240W        W83501  25.631  11.747   2.273
24241W        W83502  37.507  18.128   1.706
24242W        W83503   3.238  30.503  13.046
24243W        W83504   3.771  36.010  12.957
24244W        W83505  35.583  18.785   3.368
24245W        W83506  16.806  19.735   2.894
24246W        W83507  23.134  34.969   4.151
24247W        W83508  42.022  38.342  11.997
24248W        W83509  15.149  26.126  10.919
24249W        W83510  38.013   8.705  13.461
24250W        W83511  24.190  23.189  10.457
24251W        W83512   5.274  30.625   3.275
24252W        W83513  15.097  33.074  11.121
24253W        W83514  27.054  43.347  13.462
24254W        W83515  35.021   4.778   3.637
24255W        W83516  18.080  20.207  13.028
24256W        W83517  10.380  30.925   4.763
24257W        W83518  44.884  35.002   4.214
24258W        W83519  39.018   6.915   3.839
24259W        W83520  27.147  35.053  11.962
24260W        W83521  32.540  19.175   0.782
24261W        W83522  14.249  25.590  14.292
24262W        W83523  13.137  43.850  13.467
24263W        W83524   5.433   0.780  13.962
24264W        W83525  34.972  13.725   2.238
24265W        W83526  10.277   8.234   1.242
24266W        W83527  35.853  34.431  12.434
24267W        W83528  30.546  10.667  12.523
24268W        W83529  32.044  41.537   4.195
24269W        W83530   0.457  43.850  13.386
24270W        W83531   8.800  20.125   0.738
24271W        W83532   4.910  32.143   9.981
24272W        W83533  43.845  18.750  12.932
24273W        W83534  42.032  25.084  13.896
24274W        W83535  37.401   9.828  12.360
24275W        W83536  38.360  13.782  12.570
24276W        W83537  36.983   8.294  11.577
24277W        W83538  11.739  19.282  11.534
24278W        W83539  26.554  44.942   1.778
24279W        W83540  44.904  13.771   4.289
24280W        W83541  14.648   8.223   3.362
24281W        W83542  44.899   2.240  14.346
24282W        W83543  16.609   4.379   3.333
24283W        W83544  27.691  33.427   3.708
24284W        W83545  22.589  15.286  10.056
24285W        W83546  10.357  22.250  14.417
24286W        W83547  31.443  43.322  10.553
24287W        W83548   3.920   8.221  11.008
24288W        W83549   9.352  39.950  10.486
24289W        W83550   0.259   1.926  14.013
24290W        W83551  43.806   1.287   4.337
24291W        W83552  42.447  12.340  14.459
24292W        W83553  11.364  32.634  14.425
24293W        W83554  16.304  31.522  10.546
24294W        W83555   6.867  39.856   3.685
24295W        W83556   9.264  39.972  10.989
24296W        W83557  28.445  37.852  11.392
24297W        W83558  40.026  40.518   0.449
24298W        W83559   6.866   1.238   3.738
24299W        W83560   8.313  33.442  14.371
24300W        W83561  31.970  24.545  14.498
24301W        W83562  34.396  43.428   2.320
24302W        W83563   1.854  11.710   0.422
24303W        W83564  32.430  18.285   2.683
24304W        W83565  44.504  27.192   1.394
24305W        W83566  16.612  10.330   0.386
24306W        W83567  15.676  40.954   1.351
24307W        W83568  24.079  29.004  13.466
24308W        W83569  26.147   9.788  13.317
24309W        W83570  25.514  19.553  13.038
24310W        W83571  27.671  40.044   0.248
24311W        W83572  38.509  29.055  11.519
24312W        W83573  12.724  34.897   0.463
24313W        W83574  22.211   8.345   1.933
24314W        W83575  24.089  43.857  13.963
24315W        W83576  29.544  32.482   2.672
24316W        W83577  26.125  28.950   0.887
24317W        W83578  15.135  17.690  14.406
24318W        W83579  10.688  16.782   1.294
24319W        W83580  43.905  36.423   3.204
24320W        W83581  43.497  16.156  13.337
24321W        W83582   3.940  28.498   0.754
24322W        W83583  28.662  18.107  11.421
24323W        W83584  31.073  30.995  10.918
24324W        W83585  44.430  11.825   1.695
24325W        W83586  36.039  21.212   1.871
24326W        W83587  44.454  30.610  13.977
24327W        W83588  29.116   5.323   4.333
24328W        W83589  30.082  37.402  10.609
24329W        W83590  19.117  21.615  12.433
24330W        W83591  19.538  27.193   9.957
24331W        W83592  29.007  26.018   2.215
24332W        W83593  22.122  37.911  12.557
24333W        W83594  44.322  19.251   2.375
24334W        W83595  35.517  15.696  11.375
24335W        W83596   2.881  19.653  10.593
24336W        W83597  17.733  25.598   1.885
24337W        W83598  19.237   0.832  12.537
24338W        W83599   2.941  32.917  12.883
24339W        W83600  38.554  35.393  11.067
24340W        W83601  32.526   3.439   3.637
24341W        W83602   7.769   6.373   0.933
24342W        W83603  19.709  13.115  11.857
24343W        W83604  20.566  30.439   1.920
24344W        W83605  34.974   6.302  12.393
24345W        W83606  16.285  40.548   4.748
24346W        W83607  15.185  22.705   2.339
24347W        W83608  21.183  17.622  11.984
24348W        W83609   2.444  38.508   3.806
24349W        W83610  13.263   8.321   3.796
24350W        W83611  42.474  30.019  10.149
24351W        W83612  37.501  33.468  13.493
24352W        W83613  38.355  20.057  10.112
24353W        W83614  27.687  27.975  12.567
24354W        W83615  42.284  23.123   4.142
24355W        W83616   0.269  36.090  13.811
24356W        W83617  36.025  40.528   2.230
24357W        W83618  32.091  19.261   3.715
24358W        W83619  27.981  38.854  13.527
24359W        W83620  42.868  13.203   3.284
24360W        W83621   8.187  38.454  12.998
24361W        W83622  38.413  28.175   3.185
24362W        W83623  13.843   8.883   3.308
24363W        W83624  30.598   9.189   2.775
24364W        W83625  13.333  11.127  13.020
24365W        W83626  39.008  18.788   9.964
24366W        W83627   3.733   8.320  14.287
24367W        W83628  26.028   9.728   2.238
24368W        W83629  29.046  24.110   3.694
24369W        W83630  42.952  15.123  14.476
24370W        W83631   7.753  17.101  14.831
24371W        W83632  36.565  14.327  12.932
24372W        W83633  27.483  15.147   1.710
24373W        W83634  37.072  14.320  14.958
24374W        W83635  37.959  18.210   1.241
24375W        W83636   4.210  22.650   0.878
24376W        W83637  32.892  13.116  12.499
24377W        W83638  19.173  22.072   3.804
24378W        W83639   7.880   8.873   4.268
24379W        W83640  10.257  37.014   2.702
24380W        W83641  39.843  10.291  11.426
24381W        W83642  43.512  34.550   2.232
24382W        W83643   4.823  20.234  12.460
24383W        W83644  36.927   0.490  13.437
24384W        W83645  26.201  13.782  14.817
24385W        W83646  18.104   7.677  14.914
24386W        W83647  42.852  12.297  14.967
24387W        W83648   9.784  33.091   0.939
24388W        W83649  34.941  10.867   5.268
24389W        W83650  36.502   0.787   5.204
24390W        W83651  35.929  32.130  11.410
24391W        W83652  30.996   3.350   1.914
24392W        W83653  22.540   0.952   3.161
24393W        W83654  44.993  30.051   4.223
24394W        W83655  19.780  17.621  12.496
24395W        W83656   2.904  10.678  12.528
24396W        W83657  14.643   8.697   1.859
24397W        W83658  29.585  35.456  14.291
24398W        W83659  35.392  13.627   2.881
24399W        W83660  37.860  26.519  11.090
24400W        W83661   3.829  39.010   3.327
24401W        W83662  19.695  13.207  13.959
24402W        W83663   5.877  25.515   4.235
24403W        W83664  42.346   9.725  13.988
24404W        W83665  10.770  36.396  11.934
24405W        W83666  11.808  29.048   3.790
24406W        W83667  18.269   5.845  11.950
24407W        W83668  23.637  14.241  13.526
24408W        W83669  44.463  44.271   4.772
24409W        W83670  33.544  43.446   3.275
24410W        W83671  38.041  35.477  11.420
24411W        W83672   7.881  17.277  10.408
24412W        W83673  10.339   0.441  10.954
24413W        W83674   2.453  38.499   4.329
24414W        W83675  44.316  26.616  12.385
24415W        W83676  10.740  38.932  11.603
24416W        W83677  15.583  20.137   0.941
24417W        W83678  29.000  40.453   3.370
24418W        W83679  18.263  31.013   5.192
24419W        W83680   2.874  27.592   3.296
24420W        W83681  22.211   2.311  11.031
24421W        W83682  16.617  36.570   0.818
24422W        W83683  42.388  22.225   0.333
24423W        W83684  37.917  41.887  12.995
24424W        W83685  13.726   0.865   0.356
24425W        W83686   8.673  41.490  13.508
24426W        W83687  36.904  16.749  13.309
24427W        W83688   1.900   7.307   2.771
24428W        W83689   4.859  24.502   3.384
24429W        W83690  29.114  32.097  14.335
24430W        W83691  23.005  19.549   1.849
24431W        W83692  30.133  14.197  10.441
24432W        W83693  15.817  16.188  12.412
24433W        W83694   6.832  19.595   4.282
24434W        W83695  24.198   3.828  14.020
24435W        W83696  20.148   7.693   4.129
24436W        W83697   7.687  12.829  11.445
24437W        W83698  11.782  12.763  12.885
24438W        W83699  40.406   1.854   0.947
24439W        W83700  11.350  42.935   0.800
24440W        W83701   7.862  15.251   1.371
24441W        W83702  33.541  27.493   5.118
24442W        W83703  29.460  23.522   1.743
24443W        W83704  41.815  37.481   2.334
24444W        W83705  40.533  27.951  10.529
24445W        W83706  38.978   4.323   0.298
24446W        W83707  39.553  30.986  12.491
24447W        W83708   1.461  24.556  14.335
24448W        W83709  26.554  24.625   1.732
24449W        W83710  19.775  29.604  10.541
24450W        W83711  32.122  18.680   3.364
24451W        W83712   1.776  21.251   4.605
24452W        W83713  30.587  24.566   0.353
24453W        W83714   0.767  20.759  10.434
24454W        W83715  36.025  33.998   0.788
24455W        W83716  14.097   2.887  11.005
24456W        W83717  13.644  30.075   1.390
24457W        W83718  11.130  19.684   4.338
24458W        W83719  10.825  31.906  12.848
24459W        W83720   7.190  20.056  12.441
24460W        W83721  42.845  18.628  12.578
24461W        W83722  24.203  15.233   1.403
24462W        W83723  37.495  34.104   3.204
24463W        W83724   4.353  27.977  11.119
24464W        W83725  15.712   0.335  10.596
24465W        W83726   3.935  34.013   2.752
24466W        W83727  29.454   7.218   0.247
24467W        W83728  32.627  28.659  12.048
24468W        W83729  12.801  36.503  12.894
24469W        W83730  42.974  20.581   0.444
24470W        W83731  15.720  31.516   1.732
24471W        W83732  13.811  37.014  14.401
24472W        W83733  42.948  15.217  10.478
24473W        W83734   9.854  32.922  10.539
24474W        W83735  12.853   7.732   3.704
24475W        W83736  19.573   8.285  12.903
24476W        W83737  11.129  24.132  10.468
24477W        W83738   9.194  31.558  14.383
24478W        W83739   2.798  25.001   1.814
24479W        W83740  21.680  39.812   1.282
24480W        W83741  33.417  10.182   0.379
24481W        W83742   4.897  32.561  10.475
24482W        W83743  33.600  21.102   1.215
24483W        W83744   1.483  29.091   4.678
24484W        W83745  32.484  39.989  12.094
24485W        W83746  35.485   1.265   1.709
24486W        W83747  27.045  34.402   3.825
24487W        W83748  24.154  17.273  13.325
24488W        W83749   5.761  21.515  14.805
24489W        W83750  13.730  21.260   1.777
24490W        W83751  43.833  24.592   0.747
24491W        W83752   5.740  28.615   4.137
24492W        W83753  30.001  37.574   4.312
24493W        W83754   2.387   7.190   1.760
24494W        W83755  25.498  24.197  12.375
24495W        W83756   4.829  41.391   4.343
24496W        W83757   1.860  34.990   3.168
24497W        W83758   4.896  15.651   4.141
24498W        W83759  21.189  42.960  10.411
24499W        W83760  39.979   7.834  13.063
24500W        W83761  40.455  22.150   3.758
24501W        W83762  44.501  35.927   9.590
24502W        W83763  22.137   8.382  12.096
24503W        W83764  21.049  37.442   1.327
24504W        W83765  17.644  34.070   1.304
24505W        W83766   9.167   9.720   2.806
24506W        W83767  19.226  12.649   1.359
24507W        W83768   2.421  25.573  13.041
24508W        W83769  29.165   1.732   0.752
24509W        W83770  23.592  11.169   1.325
24510W        W83771  35.438  35.090  12.556
24511W        W83772  13.818  12.297  13.374
24512W        W83773  24.128  11.345  10.069
24513W        W83774  11.681  29.441   5.279
24514W        W83775  28.028  34.554  12.045
24515W        W83776  42.294  15.624   2.768
24516W        W83777  20.153  33.034  14.389
24517W        W83778  16.252  44.861  10.643
24518W        W83779   4.436  14.181   4.695
24519W        W83780  14.609  31.900   2.280
24520W        W83781  11.664  37.847   0.450
24521W        W83782  10.363  43.821   0.874
24522W        W83783  18.598   5.416  11.857
24523W        W83784   3.404  43.386   3.689
24524W        W83785   0.425  27.030   0.365
24525W        W83786  16.088  21.248   0.299
24526W        W83787  14.740  37.546   1.694
24527W        W83788  19.637  34.030  10.493
24528W        W83789  44.389  35.430  11.594
24529W        W83790   5.841   6.358   4.704
24530W        W83791  28.648   4.275   0.315
24531W        W83792   2.314   4.799   9.938
24532W        W83793   9.395  34.545  14.335
24533W        W83794  23.626  18.636   4.248
24534W        W83795  28.051  10.675  14.363
24535W        W83796  24.527  17.555  14.497
24536W        W83797   1.920   3.753   1.908
24537W        W83798   0.753  15.720  14.949
24538W        W83799  20.730  31.121   2.326
24539W        W83800  13.731   3.786  10.054
24540W        W83801  38.368  39.809   2.349
24541W        W83802  31.949   3.780   2.206
24542W        W83803  41.920  39.824   4.229
24543W        W83804   0.978  27.080   4.644
24544W        W83805  43.390  25.538   3.782
24545W        W83806  13.210  22.235  12.504
24546W        W83807  42.504   5.362   4.344
24547W        W83808  30.134  37.979  13.511
24548W        W83809  40.394  36.394   4.805
24549W        W83810  16.155   9.889   3.765
24550W        W83811  18.093  27.480   0.387
24551W        W83812  29.426  44.352  13.912
24552W        W83813  12.697  35.535   0.784
24553W        W83814  38.940  20.222  11.080
24554W        W83815  34.512   1.917  12.344
24555W        W83816  21.534  39.513   3.256
24556W        W83817  43.453  38.886   4.125
24557W        W83818   7.821  27.143   4.321
24558W        W83819  25.693   4.788   3.164
24559W        W83820  26.610   8.162   4.266
24560W        W83821  11.665  22.034  12.363
24561W        W83822  39.402   6.427  13.350
24562W        W83823  14.621  33.439  11.965
24563W        W83824  28.681  15.210  14.315
24564W        W83825  12.179  23.192  13.803
24565W        W83826   1.244   0.755   3.769
24566W        W83827  34.432  25.610  12.984
24567W        W83828  24.621  13.761  11.907
24568W        W83829  33.997  38.329   3.650
24569W        W83830  43.020  33.622   2.875
24570W        W83831   3.909   6.685   3.305
24571W        W83832   5.721  24.685  14.916
24572W        W83833  23.001  10.788   2.312
24573W        W83834  17.275  39.516  13.358
24574W        W83835  38.486   8.200   1.697
24575W        W83836  18.565   7.412  11.598
24576W        W83837  44.445  11.168  12.850
24577W        W83838  10.330  32.451  12.451
24578W        W83839  19.265  39.863   2.715
24579W        W83840   5.837  10.776   1.335
24580W        W83841  40.804   9.870   3.809
24581W        W83842   6.876  12.718   4.664
24582W        W83843  42.375  27.664  14.884
24583W        W83844  34.558  43.820  10.923
24584W        W83845  17.627  19.223   9.545
24585W        W83846  35.459   7.868   3.316
24586W        W83847   3.447  38.914   4.330
24587W        W83848  19.770  37.558   1.450
24588W        W83849   7.184   0.757  11.511
24589W        W83850  21.569  27.028   4.659
24590W        W83851   4.378   4.720   0.956
24591W        W83852  25.106  25.574   2.795
24592W        W83853  39.976   9.879  13.992
24593W        W83854   8.266   9.854   2.755
24594W        W83855  41.341  27.067  14.985
24595W        W83856  33.454   6.220  12.954
24596W        W83857  42.784  38.866  10.505
24597W        W83858  12.181  22.676   1.795
24598W        W83859  16.248  32.888  13.432
24599W        W83860  26.105  35.959   2.774
24600W        W83861  11.849   9.260   4.126
24601W        W83862  28.028  37.441   3.695
24602W        W83863  36.412  19.738   2.217
24603W        W83864  12.301  29.063   2.672
24604W        W83865  17.712  10.156  10.592
24605W        W83866  42.393  10.277  13.382
24606W        W83867  16.760   0.344  13.410
24607W        W83868   6.391  39.910  14.873
24608W        W83869  39.939   5.850  14.962
24609W        W83870  21.263  24.562  10.630
24610W        W83871   5.847  24.627   0.939
24611W        W83872  20.524  14.199   4.233
24612W        W83873  25.669  36.089  12.381
24613W        W83874  29.032   0.304  13.324
24614W        W83875  11.280  25.523  14.476
24615W        W83876  13.194  29.084  12.395
24616W        W83877   2.367  13.757   4.669
24617W        W83878  27.170   8.852  10.042
24618W        W83879  43.306  42.874   2.254
24619W        W83880  10.360   7.750  11.462
24620W        W83881  23.208  41.931   4.746
24621W        W83882  22.675  19.118   1.231
24622W        W83883  15.754   1.333   3.155
24623W        W83884  37.555  10.815  11.488
24624W        W83885  31.086  29.925  12.577
24625W        W83886  27.010  31.424  10.099
24626W        W83887  27.112  25.553  12.984
24627W        W83888  11.665  34.045  14.867
24628W        W83889  12.116   5.328  11.108
24629W        W83890  25.970  31.016  13.812
24630W        W83891  27.570  28.646  12.914
24631W        W83892  44.753  23.684   0.745
24632W        W83893  27.009   0.952   9.606
24633W        W83894   8.318  39.872  13.836
24634W        W83895  10.847  11.717  11.863
24635W        W83896  33.051  21.178  13.948
24636W        W83897   6.386   0.301  10.445
24637W        W83898  26.669   0.388   0.942
24638W        W83899   2.909  12.822   0.941
24639W        W83900   2.331  10.368   2.380
24640W        W83901  33.098  28.606  14.823
24641W        W83902  37.899  43.285   3.697
24642W        W83903  11.241   8.700  12.355
24643W        W83904  10.658   6.242  11.499
24644W        W83905   9.344  35.965   2.336
24645W        W83906  13.250   5.197   5.084
24646W        W83907  37.519  10.638   0.345
24647W        W83908   7.335  33.895  12.543
24648W        W83909  13.306   5.699  14.394
24649W        W83910  16.152  14.710  13.546
24650W        W83911  31.520  15.096   2.418
24651W        W83912  43.306  41.914  11.431
24652W        W83913  23.203  23.666  10.545
24653W        W83914   5.775  10.324  14.508
24654W        W83915  16.612  28.968   3.845
24655W        W83916  15.800  14.311  14.495
24656W        W83917  23.690   4.766  11.868
24657W        W83918   5.696   4.821   3.235
24658W        W83919  33.951  30.966  14.820
24659W        W83920  37.508  23.085   1.769
24660W        W83921  37.855  42.521  11.485
24661W        W83922  28.535   3.944   1.331
24662W        W83923  18.721  10.733  12.542
24663W        W83924   4.800   6.322  11.511
24664W        W83925  30.072  36.508   3.270
24665W        W83926   8.319  11.153   1.883
24666W        W83927  42.434  29.472   3.765
24667W        W83928  38.820  17.607   4.194
24668W        W83929   6.739  29.948   4.729
24669W        W83930  23.735   2.926  11.111
24670W        W83931  32.912  28.107   1.888
24671W        W83932  17.603  31.021  14.005
24672W        W83933  11.641  17.665   3.702
24673W        W83934  14.142   9.837   2.674
24674W        W83935  20.530  10.297  10.450
24675W        W83936  18.694  10.304  14.802
24676W        W83937  40.348  26.525  12.023
24677W        W83938  43.914  12.145   0.906
24678W        W83939   0.383  19.251   9.493
24679W        W83940  14.681  20.263  13.903
24680W        W83941  24.557  29.998  13.365
24681W        W83942  27.526  42.811  13.369
24682W        W83943  34.014   7.814  10.588
24683W        W83944  39.885  18.645  12.914
24684W        W83945  37.455  33.950   4.684
24685W        W83946  15.293  10.782   1.863
24686W        W83947  11.252  33.539  10.591
24687W        W83948  40.541   3.814  13.027
24688W        W83949   0.757  26.130   4.275
24689W        W83950  13.229  32.894  13.965
24690W        W83951  41.968  22.706  12.555
24691W        W83952   0.779  43.311  14.332
24692W        W83953  38.884  44.819  12.882
24693W        W83954  18.615  32.617  12.396
24694W        W83955  16.294  29.515  12.573
24695W        W83956  18.707  25.014   0.451
24696W        W83957   6.303  29.669  14.382
24697W        W83958   2.455   9.704  11.498
24698W        W83959   4.861  29.494  11.910
24699W        W83960  33.499   6.818  13.440
24700W        W83961  39.504  16.205  10.543
24701W        W83962  37.561  42.481  11.032
24702W        W83963  11.690  25.621   4.630
24703W        W83964  25.028  15.292  11.540
24704W        W83965  10.752  41.496  11.475
24705W        W83966  42.455   9.272   2.335
24706W        W83967  30.032  21.650   4.681
24707W        W83968  15.757  33.461  11.414
24708W        W83969   3.419  41.372  13.474
24709W        W83970   7.845  38.551   2.674
24710W        W83971  25.140   7.269  13.512
24711W        W83972  32.906  28.109  11.953
24712W        W83973  15.283  12.234   0.807
24713W        W83974  39.399  40.438   0.348
24714W        W83975  29.485  33.874  13.829
24715W        W83976  44.911  26.639  14.442
24716W        W83977  29.539  30.633   9.939
24717W        W83978  11.133  21.242   0.362
24718W        W83979  24.012  37.855   1.270
24719W        W83980  22.564  42.412  12.962
24720W        W83981  18.764  20.208  13.063
24721W        W83982  25.986  16.312   4.202
24722W        W83983  27.562  39.924   4.694
24723W        W83984  27.551   7.296   4.335
24724W        W83985  22.165   4.884  14.278
24725W        W83986  36.954  23.558   1.337
24726W        W83987   0.780   9.650  14.473
24727W        W83988   9.184  31.903  10.108
24728W        W83989  28.082  43.510   0.243
24729W        W83990  44.846  36.529  11.967
24730W        W83991  20.218   7.725  14.458
24731W        W83992  26.467   3.274  14.926
24732W        W83993   1.957  14.666   1.387
24733W        W83994  24.480  14.759   2.720
24734W        W83995  35.489   8.205   2.246
24735W        W83996  42.032   7.695   2.734
24736W        W83997  39.809   5.363  12.512
24737W        W83998  30.039  22.206  13.952
24738W        W83999  30.457  43.970  13.966
24739W        W84000   4.265  31.451   1.409
24740W        W84001   6.426  10.818   2.871
24741W        W84002  20.667  36.064  12.054
24742W        W84003  24.500  37.902  14.996
24743W        W84004  16.195  39.946   4.759
24744W        W84005   2.917  36.445   0.880
24745W        W84006  36.990  34.553   3.236
24746W        W84007  26.061  44.435   2.183
24747W        W84008  35.888  35.528  13.849
24748W        W84009  38.034  41.828   0.441
24749W        W84010  38.531  41.326  14.028
24750W        W84011  15.161  26.533   0.893
24751W        W84012  10.199  12.194   0.782
24752W        W84013   2.233  25.050   3.869
24753W        W84014   8.172  29.651   2.295
24754W        W84015  42.371  12.357   2.393
24755W        W84016  21.641  30.944  14.918
24756W        W84017  26.695  34.064   3.297
24757W        W84018  20.184  28.669  11.054
24758W        W84019  16.629  33.081   0.334
24759W        W84020  44.934  10.756   1.912
24760W        W84021  36.028  37.368  13.357
24761W        W84022  39.403  40.000  13.467
24762W        W84023  39.433   7.690  12.046
24763W        W84024  43.906  41.804   1.220
24764W        W84025   5.227  23.621   0.389
24765W        W84026  13.160  41.359  14.338
24766W        W84027  44.859  29.950  13.500
24767W        W84028  40.311  42.464  10.465
24768W        W84029  16.573  26.096   3.365
24769W        W84030  22.624   3.885   2.713
24770W        W84031  29.508  18.068  14.297
24771W        W84032   0.371   6.859   1.389
24772W        W84033  10.852  18.125  11.963
24773W        W84034  35.923  13.227   0.419
24774W        W84035  44.382  43.327   2.363
24775W        W84036  33.070  34.553  10.591
24776W        W84037  33.481   9.347  14.778
24777W        W84038  41.496   2.829   1.355
24778W        W84039   6.320  30.102   0.429
24779W        W84040   2.232  12.116  11.908
24780W        W84041  38.829  32.948  13.401
24781W        W84042  22.677  29.635  10.924
24782W        W84043  16.198  25.133   4.266
24783W        W84044  13.778  40.020  10.516
24784W        W84045  39.390  36.452   3.194
24785W        W84046  41.951  21.549  10.084
24786W        W84047  35.065  35.068   4.191
24787W        W84048  20.584  32.046   4.298
24788W        W84049  23.089   9.655   2.878
24789W        W84050   0.827  43.769  13.483
24790W        W84051   5.429   9.651  10.598
24791W        W84052   4.927  23.532   2.203
24792W        W84053  15.661  37.856   3.692
24793W        W84054  19.283  19.651  13.985
24794W        W84055  36.941  33.536   4.712
24795W        W84056   4.313  16.613   4.686
24796W        W84057  31.427  29.928  11.963
24797W        W84058   4.803  38.557   3.324
24798W        W84059  26.533  44.915   5.167
24799W        W84060   6.418   1.372   4.706
24800W        W84061  40.806  41.970   0.315
24801W        W84062  33.415  21.538   4.168
24802W        W84063  40.440   7.726  10.428
24803W        W84064  30.985   4.890  10.626
24804W        W84065  13.308  22.150  10.525
24805W        W84066  37.570  15.658  12.978
24806W        W84067  33.413   4.879  12.852
24807W        W84068  21.710  18.658  14.964
24808W        W84069  25.082   8.347   1.871
24809W        W84070  37.058   0.261   4.325
24810W        W84071  19.746  39.924   1.933
24811W        W84072  23.734  32.500   1.900
24812W        W84073  16.259  32.078  14.367
24813W        W84074  42.804  39.365   1.330
24814W        W84075  27.946  37.024  10.411
24815W        W84076  16.726   2.232  13.369
24816W        W84077   1.840   7.760  11.482
24817W        W84078   4.262  32.933   3.822
24818W        W84079  18.156  23.517   3.644
24819W        W84080  35.961  37.467  12.069
24820W        W84081   0.376  43.918   1.819
24821W        W84082  15.733  23.987  11.917
24822W        W84083   2.782   4.749  14.278
24823W        W84084  43.412  39.866   1.315
24824W        W84085  38.362  16.650   2.328
24825W        W84086  41.510  27.490   3.817
24826W        W84087  14.712  43.918  11.406
24827W        W84088  38.926  26.670  11.571
24828W        W84089  33.112  33.969   4.627
24829W        W84090  39.351  19.775   0.408
24830W        W84091  23.714  20.068   3.365
24831W        W84092   4.804  42.793  12.457
24832W        W84093  14.682   6.336   1.752
24833W        W84094  21.262   1.861  10.549
24834W        W84095  41.400   3.238   4.162
24835W        W84096  38.840  14.759  12.572
24836W        W84097  29.543  30.086   2.261
24837W        W84098  37.954  31.430  11.480
24838W        W84099  29.571  31.986  13.334
24839W        W84100   4.302   5.292   2.206
24840W        W84101   4.357  10.644   1.297
24841W        W84102  32.529  31.075  13.984
24842W        W84103  19.669  38.010  11.476
24843W        W84104   3.370  42.478  12.466
24844W        W84105  19.040   5.915   2.740
24845W        W84106  20.723   9.724   2.715
24846W        W84107  26.139   4.304   0.271
24847W        W84108  14.808   2.464   1.275
24848W        W84109  28.524  12.312  10.933
24849W        W84110  28.091   2.328  13.307
24850W        W84111  26.674  42.394  11.895
24851W        W84112  15.130   9.248   2.740
24852W        W84113  43.946  43.817  10.456
24853W        W84114  25.676  11.622  11.402
24854W        W84115  16.803  41.865  12.927
24855W        W84116  35.504   5.322  14.786
24856W        W84117   5.302   7.238   2.407
24857W        W84118  36.005  36.552  11.502
24858W        W84119   6.919  27.080   4.717
24859W        W84120  10.671  31.070   2.827
24860W        W84121  42.023  37.991  12.473
24861W        W84122   6.199  43.825   1.351
24862W        W84123  31.012  32.555  11.922
24863W        W84124  12.200  26.480   1.247
24864W        W84125   9.381  42.346   1.255
24865W        W84126  42.503  28.941  13.340
24866W        W84127  12.711   2.847  11.108
24867W        W84128  32.917   1.740   1.794
24868W        W84129   2.371   0.926   0.759
24869W        W84130  22.572  10.719   3.301
24870W        W84131  39.960  21.202   3.629
24871W        W84132  14.305   8.235  12.963
24872W        W84133   2.940  15.675   0.375
24873W        W84134   3.714  11.183   0.360
24874W        W84135  23.157  11.859   3.635
24875W        W84136  42.925   2.879   2.306
24876W        W84137  31.011   2.299  11.469
24877W        W84138  43.829  33.884   1.743
24878W        W84139  32.043  17.298  12.015
24879W        W84140   4.380  34.005   3.839
24880W        W84141  17.230  43.309  14.480
24881W        W84142  36.936  13.615   2.246
24882W        W84143   3.759   0.464  11.072
24883W        W84144   2.809  33.008  10.900
24884W        W84145  28.109   7.202  10.945
24885W        W84146  31.436   8.784  11.036
24886W        W84147  22.202   5.718   3.762
24887W        W84148  18.625   2.297   3.250
24888W        W84149   9.223  12.679  10.640
24889W        W84150  31.933   7.189   4.754
24890W        W84151  42.320  16.211   4.698
24891W        W84152  40.424  12.818  11.856
24892W        W84153  14.175   6.915   4.763
24893W        W84154  11.652   4.816  12.574
24894W        W84155  20.110   0.364   0.347
24895W        W84156  10.316  27.624   4.796
24896W        W84157  25.163  16.276   3.183
24897W        W84158  24.483  17.174   0.278
24898W        W84159  13.203  21.037  12.049
24899W        W84160  38.422  36.563   1.744
24900W        W84161  24.994  41.906  14.963
24901W        W84162   4.869  40.979   4.252
24902W        W84163  27.000  38.049   1.295
24903W        W84164   3.812   1.974  12.557
24904W        W84165  43.331  12.117   3.657
24905W        W84166  43.884  15.163  13.831
24906W        W84167  42.846  35.970  12.524
24907W        W84168   4.790   1.364  11.598
24908W        W84169  22.569  44.302   2.796
24909W        W84170  22.666   9.270   4.276
24910W        W84171  38.906  24.008  14.395
24911W        W84172  15.201  16.154   0.286
24912W        W84173  30.026  14.679   2.334
24913W        W84174  22.706  19.083  14.330
24914W        W84175  15.141   1.746  13.474
24915W        W84176  36.050  11.752  14.326
24916W        W84177  13.626  38.903  12.574
24917W        W84178  14.625   3.934   0.427
24918W        W84179   2.879  41.026  14.393
24919W        W84180  37.556  29.043  11.879
24920W        W84181  13.611  36.539   4.353
24921W        W84182  36.926   4.323   3.767
24922W        W84183   7.685  43.498   1.269
24923W        W84184  36.857   9.754  14.323
24924W        W84185  31.058  12.356   2.217
24925W        W84186  11.199  19.747  12.900
24926W        W84187  15.589  25.986   2.377
24927W        W84188  16.237  37.576  11.921
24928W        W84189  40.507  38.038   4.266
24929W        W84190  25.627   5.274  10.985
24930W        W84191  24.560  20.272  12.893
24931W        W84192  29.098  21.713   1.871
24932W        W84193  42.802  40.508  11.608
24933W        W84194   2.441  43.474  14.453
24934W        W84195  39.419  34.595   2.213
24935W        W84196  37.976  44.297  13.359
24936W        W84197  31.584   6.915   2.734
24937W        W84198  34.474  24.616  14.970
24938W        W84199  14.337  12.700  14.867
24939W        W84200  17.664  24.607  11.023
24940W        W84201   9.777  27.551  11.061
24941W        W84202  27.102   1.473  14.281
24942W        W84203   4.313  34.481  14.382
24943W        W84204  15.706  32.046   0.775
24944W        W84205  12.215  17.731   0.797
24945W        W84206  35.003  18.205   9.941
24946W        W84207  24.578  43.291   1.771
24947W        W84208  19.587  20.142   0.350
24948W        W84209  25.581  38.397  11.379
24949W        W84210  19.150  29.669   4.173
24950W        W84211   3.432  37.085  12.902
24951W        W84212  30.647  13.224  13.805
24952W        W84213   6.784   6.743   2.891
24953W        W84214   2.262   5.348   0.752
24954W        W84215  10.318  25.473  10.571
24955W        W84216   3.407  38.045   2.374
24956W        W84217  29.623  17.135  12.950
24957W        W84218  23.715  39.942   0.808
24958W        W84219  16.298  20.240  14.374
24959W        W84220  18.061  15.222  11.891
24960W        W84221  28.503  41.320  13.950
24961W        W84222   0.820  29.427  11.404
24962W        W84223  44.904  30.472   2.329
24963W        W84224   3.906  42.406  14.309
24964W        W84225  11.139   1.315   0.413
24965W        W84226  35.410  35.398   2.697
24966W        W84227  20.747  23.070   3.807
24967W        W84228  14.149  17.638   1.790
24968W        W84229  19.758  22.020   3.369
24969W        W84230  26.998  34.935   0.860
24970W        W84231  20.076  27.516   0.727
24971W        W84232  41.867  41.357  12.871
24972W        W84233  26.971  37.838   2.833
24973W        W84234  44.449  31.902   0.250
24974W        W84235  27.639  14.324  13.901
24975W        W84236   1.903   2.260  14.979
24976W        W84237  18.216  10.144   4.680
24977W        W84238  23.590  39.885   4.286
24978W        W84239  10.865  27.958  13.373
24979W        W84240  40.352  31.438  13.339
24980W        W84241  25.488  10.810  14.438
24981W        W84242  15.083  40.488   4.301
24982W        W84243   2.370  16.141   1.270
24983W        W84244   7.310  12.814   0.360
24984W        W84245  33.616   9.655   1.819
24985W        W84246  18.248  26.208  12.379
24986W        W84247  16.580  39.963  12.471
24987W        W84248  11.238  34.480   0.296
24988W        W84249  40.946  35.022  14.824
24989W        W84250   4.898  26.992  11.475
24990W        W84251   4.856  41.815   2.700
24991W        W84252  16.167  38.350  11.097
24992W        W84253  12.288  18.657   3.186
24993W        W84254   3.765  36.896  12.942
24994W        W84255   5.828  37.856  14.512
24995W        W84256  23.010  28.576   0.919
24996W        W84257  13.238  33.602  13.905
24997W        W84258  19.585   9.662   1.228
24998W        W84259  41.503  22.164  10.546
24999W        W84260  26.550  15.163  14.321
25000W        W84261  21.223  38.001  14.288
25001W        W84262  24.691  34.489  14.852
25002W        W84263  19.179   3.251  13.805
25003W        W84264  40.451  17.178   1.237
25004W        W84265  29.566  29.479  13.528
25005W        W84266  39.437   1.438  11.936
25006W        W84267  10.732  42.406   0.469
25007W        W84268  13.258  37.449   4.174
25008W        W84269  34.368   4.298  12.482
25009W        W84270   4.942   1.833   2.208
25010W        W84271   0.789  14.770   2.713
25011W        W84272  14.291  37.364  11.947
25012W        W84273  39.556  37.985   2.842
25013W        W84274  10.249  29.038  12.007
25014W        W84275  31.094  28.655   3.363
25015W        W84276   8.774  37.983  12.539
25016W        W84277   2.898  21.128   1.928
25017W        W84278  29.637  33.613   4.695
25018W        W84279  33.499  21.077   3.149
25019W        W84280  24.559  42.316   1.745
25020W        W84281   6.821  28.979   2.735
25021W        W84282  10.779  10.337   0.959
25022W        W84283  26.637  19.741  10.080
25023W        W84284  25.681  28.496   4.754
25024W        W84285  10.739   0.358  12.341
25025W        W84286  33.919   1.320  14.391
25026W        W84287  36.951   1.465  12.960
25027W        W84288   0.417  33.485  12.986
25028W        W84289   6.295   0.355   2.208
25029W        W84290  12.622  35.577  14.401
25030W        W84291  30.642  35.990  12.959
25031W        W84292  12.718   6.196  10.916
25032W        W84293  44.911  18.650  13.390
25033W        W84294   7.760  25.053   3.751
25034W        W84295  38.998   7.334  12.053
25035W        W84296  35.432  37.830  14.872
25036W        W84297  33.476  39.023   0.870
25037W        W84298  24.178  40.020   2.690
25038W        W84299   3.930  40.383   4.745
25039W        W84300  29.448   2.285   2.802
25040W        W84301  20.189  36.075   2.308
25041W        W84302  26.074  40.946  14.949
25042W        W84303  29.513   5.328  12.534
25043W        W84304  35.947   4.307   3.184
25044W        W84305   5.410  21.758  12.428
25045W        W84306  42.323  13.295   3.220
25046W        W84307  25.670  26.549   4.630
25047W        W84308  37.921   3.780   1.765
25048W        W84309  13.807  32.036  13.384
25049W        W84310   5.196  30.594  11.993
25050W        W84311   3.225  26.097  11.046
25051W        W84312  36.489  13.760   0.460
25052W        W84313  10.228  44.878   2.855
25053W        W84314  18.165  32.037  12.341
25054W        W84315  38.420  26.152   2.819
25055W        W84316  13.701  10.871  12.430
25056W        W84317   1.466  12.333  14.509
25057W        W84318  33.079  31.013   3.714
25058W        W84319  25.641  39.990   0.806
25059W        W84320  39.871  34.098  13.868
25060W        W84321   6.782  32.573  11.397
25061W        W84322   3.226   6.395   4.161
25062W        W84323  28.575  20.118  13.981
25063W        W84324  43.351  19.684   9.613
25064W        W84325  31.404   8.218   1.416
25065W        W84326  36.377  43.404   1.349
25066W        W84327   9.790  11.335   2.314
25067W        W84328  40.937  25.066  12.879
25068W        W84329   0.403   5.900  12.468
25069W        W84330  25.168  17.156   4.766
25070W        W84331  25.584  14.150  13.956
25071W        W84332  18.147  13.626   1.312
25072W        W84333  35.075  20.173   0.448
25073W        W84334  25.508  26.688   3.632
25074W        W84335  31.470  14.750  13.410
25075W        W84336   7.323  18.095   3.688
25076W        W84337  18.062  41.472   4.720
25077W        W84338  26.505  27.675   9.958
25078W        W84339  12.260  37.431   0.895
25079W        W84340  29.056  42.348  12.887
25080W        W84341   9.769  26.574  14.938
25081W        W84342  23.033   0.310  10.609
25082W        W84343  29.533  36.954   1.867
25083W        W84344  17.720  17.144  12.040
25084W        W84345  13.776   9.188  11.907
25085W        W84346  22.034  21.127  12.376
25086W        W84347  29.442   9.326   1.232
25087W        W84348  18.123  23.648   2.347
25088W        W84349  31.049   0.374   4.210
25089W        W84350  22.198  44.449   4.826
25090W        W84351  21.608  26.570   3.180
25091W        W84352   5.331  44.851   4.156
25092W        W84353  42.429   6.900   4.146
25093W        W84354   5.695   0.335   1.840
25094W        W84355  10.253  24.607  13.987
25095W        W84356  22.652  29.947  13.904
25096W        W84357  38.446   9.243  12.943
25097W        W84358  14.714  20.105  10.622
25098W        W84359  41.834   4.327  13.845
25099W        W84360  26.979   5.383  12.089
25100W        W84361  40.354  21.616  12.988
25101W        W84362  28.630  38.420   4.776
25102W        W84363   7.386  28.492   1.860
25103W        W84364  16.268  41.017   0.438
25104W        W84365  38.477  35.385  14.402
25105W        W84366   4.921  27.011   4.734
25106W        W84367  31.589  16.249   0.439
25107W        W84368   4.785  28.439   1.320
25108W        W84369  37.066  21.528  14.923
25109W        W84370  14.678  42.876   9.920
25110W        W84371  32.400  26.550  11.096
25111W        W84372   6.287  29.648  14.991
25112W        W84373  28.129  40.516   1.396
25113W        W84374   0.798  39.933  11.459
25114W        W84375  18.701  37.046   1.730
25115W        W84376  24.223  11.309   3.180
25116W        W84377  32.945  29.169   2.356
25117W        W84378   6.818  18.751   1.289
25118W        W84379  26.959   3.340   1.728
25119W        W84380   6.689   4.207   5.122
25120W        W84381   8.708  11.742   4.696
25121W        W84382  24.056   1.903  13.968
25122W        W84383  35.962  15.660  11.984
25123W        W84384  22.128  37.530  11.501
25124W        W84385  12.822  43.897   1.288
25125W        W84386  20.634   6.819  11.107
25126W        W84387  33.022   0.971   4.789
25127W        W84388  44.833  39.453   1.327
25128W        W84389  26.202  43.816   5.208
25129W        W84390  19.084  27.025  11.492
25130W        W84391  40.050  31.988   2.683
25131W        W84392  17.605   8.827  14.938
25132W        W84393  40.511  36.510   9.976
25133W        W84394  16.568   8.839  13.943
25134W        W84395  20.748  17.697   0.383
25135W        W84396  38.925  23.140   2.364
25136W        W84397  29.524  37.548  12.037
25137W        W84398   6.914   9.150   2.756
25138W        W84399  26.072  18.764   0.857
25139W        W84400   6.194   0.973   4.698
25140W        W84401  17.669  24.213  12.872
25141W        W84402   6.270  33.438  14.303
25142W        W84403  35.991  32.937  11.592
25143W        W84404   4.701  27.188   0.362
25144W        W84405   8.329  30.508  13.900
25145W        W84406  11.822   6.822   3.307
25146W        W84407  16.095   7.906  13.813
25147W        W84408  18.672  42.843  12.524
25148W        W84409  36.431  14.809  11.483
25149W        W84410  29.148   8.830   0.472
25150W        W84411  29.571   3.905  14.461
25151W        W84412  15.600  16.806   0.268
25152W        W84413  41.518  19.588   5.249
25153W        W84414  27.036  24.979   4.615
25154W        W84415  24.614  44.472   3.793
25155W        W84416  18.659  24.538   4.191
25156W        W84417  22.127  22.092   1.712
25157W        W84418  25.560   8.374  14.895
25158W        W84419  35.440  41.486   1.428
25159W        W84420   0.830  24.053   4.150
25160W        W84421  17.775   3.370  14.871
25161W        W84422  20.758  33.602   2.775
25162W        W84423  38.453  13.636   2.900
25163W        W84424  18.156  42.927  10.474
25164W        W84425  21.676  20.655  14.409
25165W        W84426  38.061   5.926  11.999
25166W        W84427  36.360  12.222  14.855
25167W        W84428  12.824  13.787   4.264
25168W        W84429  38.968   2.419   0.890
25169W        W84430  16.260  34.963  14.990
25170W        W84431  25.187  41.786   1.317
25171W        W84432   9.700  17.567   4.803
25172W        W84433  20.084  31.472   4.713
25173W        W84434   1.929   2.443  14.327
25174W        W84435  18.651  14.687  12.553
25175W        W84436  40.041  12.818   1.230
25176W        W84437  14.661  42.890  14.441
25177W        W84438   5.218  30.913  12.823
25178W        W84439  11.768   5.791   2.870
25179W        W84440  43.817   3.334  14.433
25180W        W84441  26.567   4.787  13.848
25181W        W84442  35.583  34.901  11.532
25182W        W84443  38.857   7.375  10.077
25183W        W84444  40.835  38.950  14.512
25184W        W84445  16.738  32.495   0.842
25185W        W84446  17.298  28.621   2.259
25186W        W84447   5.806  17.259   0.810
25187W        W84448  16.790  28.598   0.448
25188W        W84449  39.960   4.304   3.309
25189W        W84450  15.674  32.992   9.924
25190W        W84451   2.758  36.929  13.313
25191W        W84452  42.285  31.080  10.435
25192W        W84453  11.802  12.136   4.215
25193W        W84454  24.636  18.784   2.239
25194W        W84455   0.918  41.796  10.569
25195W        W84456  37.393  17.244   4.332
25196W        W84457  31.574   9.220  12.092
25197W        W84458   4.278  17.786   2.843
25198W        W84459  11.193  35.529  14.952
25199W        W84460  19.227   9.183   2.774
25200W        W84461  10.176  33.502   1.838
25201W        W84462  42.876  19.670  12.580
25202W        W84463  32.424   5.305  12.934
25203W        W84464  26.518  36.948  14.950
25204W        W84465  43.355  15.282  12.377
25205W        W84466   7.740   2.431  12.501
25206W        W84467  24.064   6.196   1.296
25207W        W84468  43.416   0.468  11.092
25208W        W84469  41.463  41.800  10.932
25209W        W84470  35.390  13.275   0.816
25210W        W84471  10.193  11.211   0.288
25211W        W84472   0.889  18.295   1.875
25212W        W84473  20.682  42.985  14.512
25213W        W84474  29.117  44.382  10.487
25214W        W84475   9.281   9.329  13.341
25215W        W84476  12.281  14.655   4.824
25216W        W84477  32.578  21.154   1.355
25217W        W84478  33.550  18.617   1.277
25218W        W84479  34.434  36.861   1.819
25219W        W84480  16.781  23.072  10.899
25220W        W84481  14.219  34.900  14.361
25221W        W84482  21.216   8.689   4.193
25222W        W84483   7.739  40.034   4.692
25223W        W84484  33.456  19.044  13.017
25224W        W84485  41.893  34.034   2.419
25225W        W84486  34.373  34.885  12.024
25226W        W84487  10.852  18.593  10.464
25227W        W84488  44.459  25.619  11.892
25228W        W84489  44.870  16.311   3.164
25229W        W84490  36.919  29.616  13.313
25230W        W84491  39.387  28.086  13.496
25231W        W84492  36.953  32.620  10.633
25232W        W84493  19.077  26.123  12.395
25233W        W84494  32.008  21.068   2.853
25234W        W84495  10.175   1.756   1.817
25235W        W84496  17.618  24.522  10.470
25236W        W84497  20.093  39.981   1.814
25237W        W84498  13.195  25.964  14.822
25238W        W84499  39.328  42.870   2.228
25239W        W84500  35.486  22.207   3.328
25240W        W84501   7.198  15.684   0.743
25241W        W84502  10.279  27.503   0.769
25242W        W84503  41.997   4.437   4.274
25243W        W84504  17.266  21.718   0.343
25244W        W84505  36.552  36.955   3.782
25245W        W84506  12.801  43.810  12.995
25246W        W84507   7.297  11.640  14.360
25247W        W84508  44.333  36.509   9.964
25248W        W84509   1.846  22.249  13.867
25249W        W84510  40.308  16.139   1.228
25250W        W84511   6.692  10.844   4.155
25251W        W84512  23.099  26.041   2.329
25252W        W84513   1.949  37.917  13.932
25253W        W84514  22.693  11.205  14.505
25254W        W84515  31.900  30.557  10.968
25255W        W84516   9.349  11.853   1.223
25256W        W84517   4.401   4.363   2.244
25257W        W84518  27.680  43.826   0.808
25258W        W84519   1.426  36.957   2.809
25259W        W84520  13.195   6.247   1.377
25260W        W84521  31.146   6.242   3.752
25261W        W84522   3.439   3.223  12.341
25262W        W84523  13.754  43.775   4.284
25263W        W84524  28.964  25.158   0.772
25264W        W84525  20.224  16.265  11.579
25265W        W84526  32.060   7.326  12.466
25266W        W84527  22.172  27.568  12.372
25267W        W84528  29.436   4.324  11.879
25268W        W84529  43.016  16.794  14.995
25269W        W84530  43.277  41.311  11.446
25270W        W84531   9.162  18.785  11.404
25271W        W84532   7.204  24.189   3.639
25272W        W84533  34.427  13.131   4.262
25273W        W84534  17.228  17.796   4.745
25274W        W84535  20.690   4.888   1.756
25275W        W84536  28.611  33.952  14.879
25276W        W84537  11.291   9.186  13.396
25277W        W84538  30.086  43.429  10.904
25278W        W84539  20.144  36.473  14.356
25279W        W84540   5.794  12.631   4.669
25280W        W84541  12.759  42.378   3.202
25281W        W84542   8.708  25.504  13.029
25282W        W84543  30.039   1.344  13.472
25283W        W84544  32.969   6.798   2.672
25284W        W84545  23.193  15.261   3.752
25285W        W84546  10.277  20.173   2.691
25286W        W84547  24.079  31.931   2.855
25287W        W84548  10.213  19.189   4.829
25288W        W84549   5.869  42.027   3.154
25289W        W84550  20.266  25.556   0.432
25290W        W84551  19.589  31.470   1.366
25291W        W84552  37.911  38.843  10.530
25292W        W84553   0.931   9.665  12.533
25293W        W84554  18.091  28.558  12.500
25294W        W84555  30.998  14.686   4.819
25295W        W84556  35.366   5.839   2.863
25296W        W84557   6.908   7.801  11.531
25297W        W84558  38.517  44.470  12.485
25298W        W84559  44.785  35.570  12.024
25299W        W84560  40.947  24.605  14.366
25300W        W84561  44.818   1.796   2.780
25301W        W84562  18.135   4.224  11.961
25302W        W84563   7.295  34.038  10.484
25303W        W84564  22.112  38.554   1.325
25304W        W84565  15.135  11.232   2.703
25305W        W84566  38.838  33.929  13.895
25306W        W84567  12.309   1.388  12.432
25307W        W84568  30.092  32.912   9.595
25308W        W84569  23.562  35.442   1.781
25309W        W84570  18.560  13.155  11.604
25310W        W84571  16.084  25.087   1.249
25311W        W84572  16.311   9.810  14.449
25312W        W84573  30.008   4.932   2.255
25313W        W84574  26.999   2.423   2.780
25314W        W84575  15.099  34.932  11.947
25315W        W84576  15.290   3.901  11.406
25316W        W84577  40.350  10.318  12.418
25317W        W84578  25.037   8.785  14.898
25318W        W84579   4.789  22.535   4.353
25319W        W84580  22.090  21.744   3.244
25320W        W84581  13.677   0.867   0.777
25321W        W84582  32.488  33.987   3.261
25322W        W84583  18.652  23.087   0.331
25323W        W84584  30.424   3.719  11.440
25324W        W84585  25.527  43.838  13.849
25325W        W84586  22.665   4.368  14.308
25326W        W84587  36.450   6.187  11.000
25327W        W84588  44.469   0.866  13.825
25328W        W84589  20.222  40.444  13.432
25329W        W84590  15.229  14.188  13.445
25330W        W84591   6.316   3.795   5.738
25331W        W84592  27.648  37.010   3.267
25332W        W84593   4.722  27.599  14.841
25333W        W84594  37.542  23.127  12.489
25334W        W84595  11.135  11.673   4.620
25335W        W84596  43.301   3.954   4.620
25336W        W84597  18.077  37.438  13.867
25337W        W84598  43.382  43.286   2.264
25338W        W84599  26.971  31.582  11.953
25339W        W84600  21.570  32.523  10.955
25340W        W84601  44.385   0.882  11.432
25341W        W84602  32.529  43.361   2.719
25342W        W84603  20.044   8.741  13.039
25343W        W84604   6.752  28.954  11.896
25344W        W84605  31.935  38.821   1.835
25345W        W84606  15.763  24.520   1.772
25346W        W84607  44.996  37.021  12.354
25347W        W84608  14.792  30.972  11.450
25348W        W84609  41.498  10.286  10.571
25349W        W84610  17.101  35.020  14.513
25350W        W84611  37.900  26.070  14.482
25351W        W84612  26.044  24.629   0.828
25352W        W84613  43.898  38.027  10.944
25353W        W84614  38.912  25.653   1.846
25354W        W84615  44.336   8.398  13.818
25355W        W84616  30.003   1.971   1.331
25356W        W84617  44.858  21.527  12.439
25357W        W84618  17.112   3.339  12.877
25358W        W84619   6.844  12.242   2.261
25359W        W84620  16.089  28.996  11.061
25360W        W84621  11.632  11.697  12.997
25361W        W84622  18.550  39.038   3.667
25362W        W84623  31.110  27.659   0.770
25363W        W84624  41.926  18.633  12.467
25364W        W84625  24.628  36.495  12.395
25365W        W84626  11.358  11.748   1.920
25366W        W84627  31.016  28.474  12.899
25367W        W84628  22.587   9.665   0.347
25368W        W84629  21.523  38.515  12.520
25369W        W84630   0.805  27.016   5.186
25370W        W84631  31.557  29.010  12.431
25371W        W84632  21.195  25.101  11.093
25372W        W84633   9.859  26.204  13.906
25373W        W84634   3.362  13.294  10.447
25374W        W84635  19.129  42.023   4.728
25375W        W84636  12.789  28.971  14.954
25376W        W84637  20.555  11.645  13.412
25377W        W84638  22.578  42.907  14.942
25378W        W84639  15.150  34.471  14.407
25379W        W84640  21.108   8.313   4.838
25380W        W84641  43.329  44.982  11.119
25381W        W84642  44.007  28.065   5.648
25382W        W84643  15.120  40.385   1.769
25383W        W84644  35.377  38.380   4.703
25384W        W84645  29.441  32.442  13.513
25385W        W84646  29.009  34.568   3.361
25386W        W84647  29.591  40.932  13.015
25387W        W84648  32.093  10.298   0.336
25388W        W84649  38.059  33.025  14.994
25389W        W84650   7.298  19.535   4.173
25390W        W84651   4.436  37.917  14.941
25391W        W84652  36.448  39.887  14.334
25392W        W84653  23.123  39.356  14.866
25393W        W84654  15.112   8.891   2.879
25394W        W84655  15.141  35.896   4.260
25395W        W84656   7.279  30.628   4.150
25396W        W84657  21.023  23.984  13.950
25397W        W84658  23.204  43.793   3.689
25398W        W84659  25.574  21.111   4.232
25399W        W84660  19.732  16.196  10.627
25400W        W84661  20.262  26.196  12.434
25401W        W84662  41.804   8.366  10.624
25402W        W84663  41.476   5.736   2.857
25403W        W84664  41.421  44.987   2.288
25404W        W84665  37.898   9.804  13.859
25405W        W84666  38.928  28.607   0.898
25406W        W84667  11.665   6.255  10.126
25407W        W84668   3.423  17.247  12.826
25408W        W84669   2.270  30.106  12.903
25409W        W84670   0.864  30.934  11.598
25410W        W84671  18.769  36.498  13.389
25411W        W84672  18.573   1.452  10.901
25412W        W84673  28.177  20.240   4.816
25413W        W84674  41.335  43.826  13.803
25414W        W84675  28.183  38.565  12.080
25415W        W84676  19.748   9.807  12.030
25416W        W84677  39.421  38.872   3.226
25417W        W84678  24.147  15.595  12.434
25418W        W84679  32.623   1.359  11.476
25419W        W84680  22.043  23.524   1.791
25420W        W84681   7.201  41.526   3.691
25421W        W84682   1.291  25.061  10.640
25422W        W84683   5.411  20.764  14.292
25423W        W84684  25.704  19.613  13.832
25424W        W84685   9.291  18.180   3.166
25425W        W84686  23.128  21.056   3.719
25426W        W84687  28.554   6.684  10.605
25427W        W84688   3.217  33.041   3.667
25428W        W84689  40.423   1.946  13.410
25429W        W84690   0.355  35.915  11.991
25430W        W84691  28.468  10.251  12.378
25431W        W84692  25.483  10.154  14.953
25432W        W84693  27.193  29.058   3.679
25433W        W84694  31.541  25.044   4.696
25434W        W84695  16.251   8.386  14.984
25435W        W84696  29.154  41.984   4.318
25436W        W84697  11.673  18.113  11.492
25437W        W84698  13.824   7.223   0.482
25438W        W84699  41.870  22.513  10.434
25439W        W84700  38.836  41.506  10.066
25440W        W84701   2.273   7.278  14.512
25441W        W84702  18.734  24.607  11.029
25442W        W84703  20.765  34.958  14.849
25443W        W84704  37.457  43.912  14.859
25444W        W84705  43.965  23.092  10.499
25445W        W84706  40.025  35.918   5.797
25446W        W84707   1.767  12.305   3.784
25447W        W84708  20.528   4.796   4.252
25448W        W84709   6.810  16.813  12.974
25449W        W84710  39.503   6.365  12.087
25450W        W84711   5.711   8.895   2.253
25451W        W84712   8.657  43.961   1.894
25452W        W84713   8.226  36.526  11.903
25453W        W84714  35.583   1.273   4.211
25454W        W84715  29.008  20.739   0.285
25455W        W84716  20.052  32.437   1.356
25456W        W84717  20.122  31.986   0.740
25457W        W84718   2.725  43.826   2.193
25458W        W84719  44.403   3.931   3.768
25459W        W84720  31.045  11.725   3.783
25460W        W84721  21.568   7.715  14.899
25461W        W84722  35.860  36.381  14.285
25462W        W84723  21.668  15.643  11.573
25463W        W84724  30.076  34.041  11.036
25464W        W84725  22.574   9.700   2.868
25465W        W84726   5.835  42.466   4.660
25466W        W84727  35.390  38.030   2.369
25467W        W84728  29.423  21.734  11.006
25468W        W84729   4.858  26.584   0.274
25469W        W84730   3.334  29.605   1.859
25470W        W84731   6.805  15.649  11.484
25471W        W84732  36.098   6.910   3.161
25472W        W84733  32.625  28.057   9.926
25473W        W84734   6.691  36.936  11.984
25474W        W84735   3.295  37.996   3.864
25475W        W84736   7.711  34.003   1.269
25476W        W84737  26.563  11.170   0.960
25477W        W84738   5.228   3.725   0.424
25478W        W84739  34.937  39.984  11.437
25479W        W84740  22.033  26.484  12.003
25480W        W84741  39.335  41.864  12.429
25481W        W84742  38.334   2.864   2.849
25482W        W84743  40.480  32.415  11.920
25483W        W84744  12.646   9.255   1.304
25484W        W84745  29.095  23.617   4.276
25485W        W84746  26.551  23.026   0.961
25486W        W84747  36.527  26.198  11.106
25487W        W84748  42.436  16.764  12.392
25488W        W84749  42.024  16.247  13.863
25489W        W84750  15.582   9.836   5.159
25490W        W84751  24.702  24.598   3.687
25491W        W84752  21.175  35.048   2.188
25492W        W84753   7.680  43.512  13.389
25493W        W84754  32.531   4.409  10.529
25494W        W84755   9.646  25.056  14.407
25495W        W84756  22.707  43.778   2.813
25496W        W84757   0.309  31.908  10.910
25497W        W84758  30.001  31.643   1.893
25498W        W84759   6.300  27.473  12.860
25499W        W84760  30.981  16.604  14.356
25500W        W84761  35.988  38.454   4.164
25501W        W84762  38.076   4.296  14.375
25502W        W84763  32.073  18.760  11.451
25503W        W84764  14.156  16.740   0.352
25504W        W84765   0.368  33.565  10.965
25505W        W84766  44.002  31.002  10.937
25506W        W84767  14.829  25.073  10.629
25507W        W84768  40.944  43.431   0.261
25508W        W84769   0.946  37.558   5.209
25509W        W84770  40.863  17.671   2.327
25510W        W84771  42.790  43.891   1.446
25511W        W84772  27.013   1.358   0.403
25512W        W84773  29.992  40.465   1.854
25513W        W84774  20.689  43.378  10.410
25514W        W84775   7.383  23.605  10.642
25515W        W84776  21.112  28.448  14.460
25516W        W84777  18.181   2.744   0.329
25517W        W84778   4.714  12.702  13.979
25518W        W84779  18.687  38.451  13.811
25519W        W84780  35.935  16.693   0.865
25520W        W84781   5.349  18.605   1.892
25521W        W84782  19.189  16.750  11.585
25522W        W84783  18.551  18.260   4.177
25523W        W84784  37.904   2.314  10.620
25524W        W84785  33.530  15.294  12.085
25525W        W84786  39.061  13.198   2.755
25526W        W84787  17.571   5.426   2.841
25527W        W84788   1.289   7.699  10.421
25528W        W84789   9.698  28.618   4.279
25529W        W84790  39.509   8.805   1.811
25530W        W84791  29.481   1.792  11.594
25531W        W84792  33.481  44.359  10.999
25532W        W84793  43.318   4.887   3.631
25533W        W84794  28.536  20.674   3.723
25534W        W84795  30.097  41.434  12.360
25535W        W84796  39.975  27.030   4.131
25536W        W84797   1.436  11.130   1.315
25537W        W84798  10.807   6.295   0.766
25538W        W84799  41.875   2.875   1.416
25539W        W84800  36.433  34.608  13.837
25540W        W84801   7.179  31.966  14.415
25541W        W84802  33.037  23.196   0.400
25542W        W84803  25.061   3.850   0.967
25543W        W84804   6.690  10.307   5.157
25544W        W84805  21.548   8.703   2.299
25545W        W84806   8.308   6.825   3.201
25546W        W84807  16.245  32.930  13.903
25547W        W84808  12.650  20.701  11.575
25548W        W84809  21.073  13.295   4.684
25549W        W84810  41.310  33.094   1.844
25550W        W84811  11.680  35.494   3.159
25551W        W84812  30.961  40.524   4.647
25552W        W84813   4.865  30.163   1.889
25553W        W84814   5.895  27.655   0.260
25554W        W84815  32.408  32.992   3.359
25555W        W84816   5.818  28.506  11.866
25556W        W84817  41.434  14.334  13.934
25557W        W84818  36.090  27.142  14.959
25558W        W84819  19.677  34.878  12.909
25559W        W84820  23.618  25.060   0.355
25560W        W84821  42.372  15.250   2.739
25561W        W84822  16.585  19.545   1.935
25562W        W84823  18.072  18.572   0.810
25563W        W84824   6.341  15.602   2.713
25564W        W84825  42.881  12.619   1.758
25565W        W84826   6.409  16.118  10.590
25566W        W84827  25.964   4.412  11.509
25567W        W84828  23.672  40.955   2.706
25568W        W84829  22.037  24.132  13.846
25569W        W84830  18.629  40.407  13.949
25570W        W84831  11.135  19.691   1.700
25571W        W84832  16.576  38.469  14.909
25572W        W84833  23.691  43.334  13.382
25573W        W84834  36.442  24.514  11.045
25574W        W84835  19.207  44.373  13.889
25575W        W84836  38.022  20.226  14.929
25576W        W84837   2.310  39.385   3.149
25577W        W84838  25.542  34.502  12.883
25578W        W84839  21.683  25.672  10.496
25579W        W84840  44.909  39.430   4.123
25580W        W84841  18.639   0.872   3.195
25581W        W84842  38.882  10.210   3.285
25582W        W84843  10.267  38.877  10.642
25583W        W84844  25.115  11.803  14.825
25584W        W84845  43.936   2.809   0.362
25585W        W84846  30.962  12.238   2.724
25586W        W84847  20.258  41.958  11.608
25587W        W84848  32.070   1.299   1.320
25588W        W84849   1.441   7.666   2.223
25589W        W84850   7.410  35.544  10.911
25590W        W84851  13.796  40.893  13.827
25591W        W84852   1.408  19.585   2.857
25592W        W84853  28.570   3.797   4.186
25593W        W84854  34.425  44.492   1.389
25594W        W84855  28.439  19.092  13.997
25595W        W84856  34.589  30.082  10.619
25596W        W84857  43.975  10.651   3.768
25597W        W84858  29.661  15.588   3.311
25598W        W84859  11.210   2.751  12.360
25599W        W84860  43.816   3.767  14.779
25600W        W84861  41.969  14.743  10.998
25601W        W84862   8.379   1.364   0.254
25602W        W84863   2.385  37.526  10.120
25603W        W84864   9.750  11.790  12.404
25604W        W84865   6.863   2.956  13.987
25605W        W84866  23.698  38.519   2.260
25606W        W84867  30.431  10.296   2.692
25607W        W84868   1.809  42.961  12.460
25608W        W84869   8.301  11.308  11.478
25609W        W84870  23.231   0.907   0.825
25610W        W84871  30.142  30.009   3.166
25611W        W84872  22.144  26.550   5.221
25612W        W84873  43.455  24.974   5.757
25613W        W84874  36.067   7.745   1.744
25614W        W84875  35.008  11.681   5.316
25615W        W84876   2.230   9.878   4.340
25616W        W84877  38.472  39.889  10.480
25617W        W84878  15.279  44.287   0.470
25618W        W84879  30.635   0.328   1.280
25619W        W84880  24.193  13.147   4.755
25620W        W84881  39.831  20.108   3.371
25621W        W84882   5.773  41.413   4.746
25622W        W84883  44.368  23.565   2.850
25623W        W84884  14.596   5.329   4.693
25624W        W84885  37.887  36.413  14.310
25625W        W84886  42.013  20.582   0.839
25626W        W84887  19.581  10.376  10.560
25627W        W84888  36.402   2.742  14.762
25628W        W84889  14.635  27.153   1.922
25629W        W84890   1.897  11.675   5.101
25630W        W84891   8.371  13.336   1.447
25631W        W84892   0.754   7.709  14.390
25632W        W84893  39.884  10.181   1.296
25633W        W84894  15.781  25.516   3.326
25634W        W84895   6.858  13.280   4.627
25635W        W84896  36.518  36.418  11.078
25636W        W84897  12.356   7.678   4.663
25637W        W84898  39.433  44.286  13.427
25638W        W84899  26.677  37.847   2.240
25639W        W84900   9.332  43.405   1.711
25640W        W84901  30.990   0.888  12.093
25641W        W84902   0.912  13.283   2.893
25642W        W84903  33.476  44.500  14.407
25643W        W84904   9.343  43.808  12.894
25644W        W84905   4.348  33.400  11.591
25645W        W84906   7.195  35.414  11.600
25646W        W84907  21.254  23.668   4.310
25647W        W84908  28.603  31.644  10.102
25648W        W84909  41.867   7.751  10.957
25649W        W84910  38.038  41.525  14.764
25650W        W84911  27.669  43.500   5.613
25651W        W84912  42.469   0.871  13.436
25652W        W84913  16.609  23.008   2.299
25653W        W84914  31.475  21.119   2.380
25654W        W84915  35.870  32.902  14.298
25655W        W84916   4.352  31.981  12.469
25656W        W84917   0.414  27.076  14.973
25657W        W84918  35.549  36.567   1.765
25658W        W84919  23.079  17.787   4.771
25659W        W84920   3.928  13.645   1.913
25660W        W84921  38.338  22.021   0.946
25661W        W84922  11.702  12.132  11.938
25662W        W84923  38.949  18.127   4.199
25663W        W84924  15.234   5.244   2.408
25664W        W84925  15.198  10.250   1.307
25665W        W84926  16.215  39.062  14.027
25666W        W84927  42.810  26.691  13.491
25667W        W84928  13.757  39.813   3.790
25668W        W84929  15.795  29.027   0.865
25669W        W84930  33.466  32.087  10.541
25670W        W84931  30.633   7.744   1.243
25671W        W84932  42.373  35.438  13.439
25672W        W84933   1.934  34.407   4.640
25673W        W84934  13.189  36.458   0.328
25674W        W84935   7.899  39.871  11.531
25675W        W84936  36.488  31.525   3.332
25676W        W84937   6.804  41.338   3.654
25677W        W84938  16.802  38.852  12.489
25678W        W84939  12.255  32.079   4.172
25679W        W84940   2.390  42.982  13.403
25680W        W84941  11.862  33.613  11.391
25681W        W84942  13.228  30.633  12.929
25682W        W84943  19.728   3.256  11.528
25683W        W84944  38.827  38.530  11.887
25684W        W84945   2.861  40.373  10.492
25685W        W84946  39.337  14.706  11.435
25686W        W84947  12.658  10.233  14.955
25687W        W84948   6.195  22.077  14.915
25688W        W84949  10.141   5.277   3.821
25689W        W84950  11.695  29.038  12.853
25690W        W84951  25.020   6.275   2.838
25691W        W84952  13.626  11.773   2.703
25692W        W84953  36.923  40.036  11.520
25693W        W84954   9.227  19.726  12.543
25694W        W84955   2.880   3.396   2.768
25695W        W84956  15.597   0.279   0.949
25696W        W84957   0.387  30.045   2.241
25697W        W84958   3.828  18.669   3.700
25698W        W84959  22.542  27.459  11.967
25699W        W84960  30.948  14.644  12.346
25700W        W84961  18.184  41.923   3.715
25701W        W84962   4.270  23.607   1.311
25702W        W84963  25.110  43.888   2.822
25703W        W84964   7.776   5.407  13.820
25704W        W84965   1.427  17.240  12.862
25705W        W84966   4.879   6.369   2.803
25706W        W84967  32.542  26.480  11.975
25707W        W84968  17.630  30.484  13.845
25708W        W84969  36.545   3.399  13.016
25709W        W84970  26.107  41.466   1.715
25710W        W84971  11.779   3.457  11.507
25711W        W84972   0.459  13.161  14.496
25712W        W84973   4.321  14.834  14.328
25713W        W84974  22.190  18.750   1.782
25714W        W84975  12.145  43.020   4.175
25715W        W84976  14.127  18.665  12.435
25716W        W84977  36.845  10.704   3.365
25717W        W84978  38.496  10.685  11.045
25718W        W84979  24.192   3.226   2.676
25719W        W84980  36.360  29.155   2.280
25720W        W84981  31.514  20.144   1.296
25721W        W84982  44.969  27.465   9.672
25722W        W84983  14.120  34.895  13.510
25723W        W84984   2.372  41.789   1.854
25724W        W84985  18.216  23.625  12.518
25725W        W84986  39.927   9.240  12.457
25726W        W84987   3.234  33.589  13.892
25727W        W84988  31.416  11.688  11.484
25728W        W84989  35.875  42.003  13.800
25729W        W84990  11.316  17.074   1.362
25730W        W84991  28.612   2.441  14.912
25731W        W84992   7.363  44.822   3.844
25732W        W84993  13.605   3.716   0.787
25733W        W84994  19.081  28.534  12.468
25734W        W84995  28.043  43.810  11.101
25735W        W84996  32.578   3.221   3.219
25736W        W84997  34.970  31.946  13.463
25737W        W84998  36.904  31.951   1.699
25738W        W84999  20.553  39.854  12.416
25739W        W85000   8.272   1.920   2.206
25740W        W85001  23.603  16.582  10.530
25741W        W85002  25.043   1.972   2.715
25742W        W85003  36.061  14.336   4.720
25743W        W85004  13.712  38.358   4.787
25744W        W85005   6.776  17.157   4.284
25745W        W85006  26.607  41.937  14.392
25746W        W85007  17.568   0.408  12.949
25747W        W85008  16.681  22.193   1.757
25748W        W85009  41.433  42.425   4.115
25749W        W85010  40.486   8.765  10.615
25750W        W85011   1.900   7.410   0.859
25751W        W85012  17.629  41.442  13.355
25752W        W85013   4.368   5.356   1.848
25753W        W85014  18.245  22.692   0.382
25754W        W85015  37.431  13.685  12.492
25755W        W85016  34.957  34.995  11.870
25756W        W85017  34.023  22.646   0.417
25757W        W85018   3.410  34.509   4.350
25758W        W85019   4.907  36.963  14.417
25759W        W85020  21.149  24.040  13.495
25760W        W85021  29.514  25.124   0.450
25761W        W85022  39.047  41.521  11.610
25762W        W85023   8.208   6.280  10.924
25763W        W85024  18.198  40.528   1.216
25764W        W85025  26.967  29.641   1.719
25765W        W85026  41.818   7.881   0.264
25766W        W85027   9.302  35.382  12.402
25767W        W85028  31.585  38.342  13.467
25768W        W85029  41.792   3.392  11.519
25769W        W85030  13.749   8.368  14.350
25770W        W85031  23.150  41.499   2.355
25771W        W85032  25.171  31.481   0.809
25772W        W85033  22.079  20.085  13.373
25773W        W85034  21.520  18.603   3.286
25774W        W85035  35.090  27.524  10.496
25775W        W85036  31.060  12.753  10.456
25776W        W85037  43.365  15.818  10.934
25777W        W85038  24.624  24.022   3.647
25778W        W85039  22.146  35.960   1.303
25779W        W85040  28.502  25.517  12.039
25780W        W85041  44.432  39.034   0.417
25781W        W85042  31.468  43.396  10.952
25782W        W85043  18.053   7.908  12.398
25783W        W85044  22.015  36.449  12.543
25784W        W85045  35.881  22.057  12.908
25785W        W85046  16.775  41.337  12.390
25786W        W85047  12.346  15.762  10.923
25787W        W85048   2.376  10.856  12.451
25788W        W85049  36.998  43.310   0.245
25789W        W85050  27.048  16.153   4.185
25790W        W85051  32.529  41.904   1.280
25791W        W85052  13.312  13.802   1.441
25792W        W85053  15.163  39.481  13.965
25793W        W85054  22.698  26.970  14.496
25794W        W85055  26.140  11.218  12.518
25795W        W85056  19.231  19.186  12.539
25796W        W85057  22.008  25.028  11.935
25797W        W85058  44.846   4.387   3.191
25798W        W85059  29.987   6.866  11.017
25799W        W85060  25.203  26.081   0.385
25800W        W85061  39.917  42.973  14.495
25801W        W85062  28.465   7.815   0.907
25802W        W85063  41.451   4.409   2.662
25803W        W85064  31.073  36.068   4.123
25804W        W85065  40.334  17.110   1.880
25805W        W85066  17.678  10.338   4.639
25806W        W85067  40.494  36.414   0.832
25807W        W85068   8.783  35.080   2.751
25808W        W85069  43.343  22.574   4.350
25809W        W85070   5.889  25.566   1.704
25810W        W85071  15.219  23.232   4.182
25811W        W85072   0.321  43.425   4.192
25812W        W85073  34.038  41.868   3.208
25813W        W85074  10.194  38.992   4.158
25814W        W85075  19.566   2.728  10.937
25815W        W85076  42.525  19.675  11.917
25816W        W85077  38.551  43.961  14.031
25817W        W85078   1.855  27.143  14.028
25818W        W85079  29.569  25.471   2.835
25819W        W85080  37.886  25.691   9.577
25820W        W85081   1.301   8.788   2.808
25821W        W85082  35.576  11.774   5.253
25822W        W85083   4.311   8.827   4.633
25823W        W85084  26.162  30.156   2.819
25824W        W85085  17.142   8.219  11.449
25825W        W85086   2.279  25.626  12.063
25826W        W85087  14.306   0.304  14.509
25827W        W85088  12.692  10.317   1.312
25828W        W85089  44.950  32.985  13.356
25829W        W85090  40.362  31.013   4.753
25830W        W85091  14.791  17.692   2.386
25831W        W85092  41.980  32.613  12.974
25832W        W85093  10.245   9.311   3.802
25833W        W85094  25.136  20.199  12.357
25834W        W85095  36.944  21.115   1.857
25835W        W85096  37.372  11.277  14.501
25836W        W85097  14.750   0.474   0.885
25837W        W85098   7.307  20.114  14.970
25838W        W85099  31.455  24.498  10.609
25839W        W85100   0.371   3.805  11.028
25840W        W85101  25.569  12.645   4.783
25841W        W85102  29.635  20.054  11.048
25842W        W85103  41.380   2.282   1.862
25843W        W85104  28.513  29.492  13.447
25844W        W85105   5.357   8.232   0.470
25845W        W85106  42.311  29.005   5.571
25846W        W85107  44.474  24.172   2.846
25847W        W85108  36.039  31.528   3.316
25848W        W85109  34.046  26.512   4.332
25849W        W85110  12.301  13.831  10.931
25850W        W85111  26.991  10.777  11.463
25851W        W85112  33.918   9.305   1.242
25852W        W85113  34.387  17.581   0.423
25853W        W85114  37.833   3.287   2.315
25854W        W85115  30.591  16.269  10.432
25855W        W85116  32.937   4.223  12.887
25856W        W85117  31.108  36.532  11.395
25857W        W85118   9.380  40.986  14.913
25858W        W85119  42.435  21.116   1.886
25859W        W85120  44.316  33.461  12.887
25860W        W85121  12.716  27.604  12.567
25861W        W85122  12.268  24.002  14.367
25862W        W85123  27.996  37.912  14.829
25863W        W85124  17.676   8.831  12.961
25864W        W85125  30.455   9.225   0.371
25865W        W85126  44.271  12.243  12.913
25866W        W85127   5.349  40.403   2.300
25867W        W85128  30.069  28.604   2.389
25868W        W85129  23.637  41.417  14.791
25869W        W85130   7.689  17.100   0.857
25870W        W85131  37.047  18.194  14.434
25871W        W85132  37.065  17.785  10.606
25872W        W85133  23.675  39.849   1.349
25873W        W85134   2.815  23.072  11.960
25874W        W85135   9.708  10.293  11.435
25875W        W85136  11.710  28.550   4.714
25876W        W85137  14.108  10.790   4.788
25877W        W85138  11.368  16.134  11.401
25878W        W85139   2.842  29.941  11.959
25879W        W85140   0.360  22.657   0.277
25880W        W85141  28.999   1.810   3.639
25881W        W85142   2.766  43.879  12.488
25882W        W85143   5.692  44.938  13.030
25883W        W85144   4.851  34.099   0.826
25884W        W85145  39.894  40.492   1.887
25885W        W85146  23.195  41.964  14.956
25886W        W85147  25.583   1.798  14.835
25887W        W85148  28.028  13.175   3.303
25888W        W85149   1.438  27.117   2.750
25889W        W85150  30.950  19.084  12.084
25890W        W85151  21.659  41.890   1.714
25891W        W85152  31.445  18.597   2.328
25892W        W85153   4.719  13.240   0.948
25893W        W85154  25.551  26.058   2.309
25894W        W85155  14.098  31.597  10.590
25895W        W85156  17.125  35.001   0.387
25896W        W85157   2.301   7.267   3.320
25897W        W85158  18.678   7.385   4.647
25898W        W85159  38.855   8.269  12.063
25899W        W85160  36.922  12.807  12.015
25900W        W85161  26.178  32.429  14.989
25901W        W85162  42.486  21.635   4.618
25902W        W85163   7.376   8.324   3.838
25903W        W85164  22.654  28.003  12.346
25904W        W85165   2.894  29.978   2.265
25905W        W85166  15.688  43.911  13.438
25906W        W85167  44.008  32.999   4.769
25907W        W85168  19.093  39.403   4.199
25908W        W85169   6.757   3.901   0.440
25909W        W85170  25.655  38.396   2.835
25910W        W85171  21.520  14.708   0.766
25911W        W85172  13.750  38.963   2.348
25912W        W85173  27.118  11.829   4.711
25913W        W85174  37.446  37.012  14.970
25914W        W85175  40.882   9.707  10.998
25915W        W85176  27.009  10.860  11.908
25916W        W85177   9.810  14.597  12.358
25917W        W85178  27.463   5.413   0.835
25918W        W85179  41.348  31.622  12.510
25919W        W85180  15.181  14.721  10.426
25920W        W85181  26.102  37.935  12.348
25921W        W85182  17.147  40.445   4.123
25922W        W85183  26.996  29.537   0.336
25923W        W85184  42.504   4.940  12.886
25924W        W85185  11.738   0.962   4.139
25925W        W85186   6.261  17.143   1.406
25926W        W85187  28.552  34.447  13.538
25927W        W85188   8.289   7.881  11.444
25928W        W85189  43.896  39.822   2.313
25929W        W85190  41.908   5.740  10.526
25930W        W85191   7.177  19.578  13.491
25931W        W85192  44.851   7.893   2.358
25932W        W85193  10.774   1.275   3.269
25933W        W85194  13.773   6.352   3.779
25934W        W85195  28.947  26.986  10.943
25935W        W85196  23.220  14.111   0.819
25936W        W85197  12.629  24.052  14.398
25937W        W85198   6.685  30.143   2.349
25938W        W85199  43.994  33.425  12.976
25939W        W85200  19.696  21.218  12.469
25940W        W85201  25.039  11.246   3.792
25941W        W85202   4.361  42.858  11.523
25942W        W85203  40.362  17.301  14.997
25943W        W85204   7.176   2.389  12.096
25944W        W85205  34.969  17.190   4.276
25945W        W85206   7.201  10.773  10.967
25946W        W85207   6.741  15.683   3.360
25947W        W85208  33.487  42.822  12.015
25948W        W85209   3.887  23.985   3.236
25949W        W85210  44.358  33.584   3.669
25950W        W85211  41.924  18.751  14.423
25951W        W85212  16.605  17.610  10.954
25952W        W85213  41.430   8.216   1.248
25953W        W85214  13.185  22.507   3.378
25954W        W85215  26.684  36.860  11.426
25955W        W85216  32.999  17.289   2.221
25956W        W85217  21.041  22.191   4.232
25957W        W85218  25.499   9.760   3.160
25958W        W85219  37.346  26.067  13.980
25959W        W85220  28.136  15.228  12.421
25960W        W85221  34.101   5.383   4.352
25961W        W85222   5.425   6.203   4.761
25962W        W85223   0.320  18.195   3.848
25963W        W85224  31.065  17.230   2.204
25964W        W85225  27.115  34.370  12.446
25965W        W85226  44.481  44.955  13.430
25966W        W85227   8.385  40.387   1.426
25967W        W85228  35.905   5.875  10.537
25968W        W85229   1.975  19.778   0.391
25969W        W85230   0.295  23.679  13.337
25970W        W85231  21.155   2.843   2.188
25971W        W85232   0.902  22.618  12.473
25972W        W85233  30.079  34.414  14.942
25973W        W85234   5.724  13.726  11.935
25974W        W85235   7.885  42.889   2.886
25975W        W85236  25.147  43.847   4.164
25976W        W85237  30.032  12.787  14.422
25977W        W85238  10.188  39.546  13.519
25978W        W85239   8.390  26.973   0.806
25979W        W85240  21.624  43.880  10.908
25980W        W85241  16.089  25.093  14.482
25981W        W85242  12.845  33.464  14.854
25982W        W85243  36.979  43.937  13.509
25983W        W85244   7.837  24.667   0.788
25984W        W85245  25.213  21.536   2.272
25985W        W85246  37.418   2.851   2.721
25986W        W85247  29.032  23.087   1.289
25987W        W85248   3.756   1.828   5.119
25988W        W85249  24.482   5.781   4.605
25989W        W85250  25.104  33.018   0.907
25990W        W85251   9.777  11.185  11.407
25991W        W85252  17.710  22.600   3.328
25992W        W85253  22.017  15.280  10.908
25993W        W85254  43.300  21.229  12.547
25994W        W85255  35.059  33.538   2.198
25995W        W85256  27.196  28.535   4.311
25996W        W85257  33.985  13.736  11.960
25997W        W85258  19.682  31.549  14.011
25998W        W85259  16.275  24.988   2.831
25999W        W85260  14.831  13.733  11.958
26000W        W85261   1.240  15.278   0.463
26001W        W85262  12.838   7.348   4.800
26002W        W85263  40.980  41.399  13.460
26003W        W85264  43.810  15.657   1.435
26004W        W85265  23.021  16.635   1.856
26005W        W85266  22.999  40.544   4.744
26006W        W85267  19.551  38.476  10.618
26007W        W85268  36.380  40.961  14.376
26008W        W85269   3.951   8.257  13.827
26009W        W85270  17.269  10.161  12.974
26010W        W85271  12.820  24.216  13.829
26011W        W85272  30.573  44.299   3.809
26012W        W85273  34.998  14.798  12.536
26013W        W85274  38.978   1.419  14.000
26014W        W85275  22.694  42.402   0.346
26015W        W85276   3.251   8.343  11.125
26016W        W85277  37.990   8.252   0.855
26017W        W85278   8.272  10.177   2.398
26018W        W85279  23.705  25.100   0.918
26019W        W85280  38.408  31.645  13.434
26020W        W85281  36.387  23.118  13.846
26021W        W85282  19.129   8.890   1.414
26022W        W85283  42.896  19.253  11.032
26023W        W85284   2.783  27.515  12.057
26024W        W85285  35.958  31.474  12.352
26025W        W85286   0.476  18.167  14.447
26026W        W85287   3.348  25.615   2.862
26027W        W85288  21.155  34.036   1.891
26028W        W85289  23.583  34.939   2.884
26029W        W85290   5.903  11.731  14.991
26030W        W85291  28.667  32.523   3.831
26031W        W85292  32.087  34.042   4.646
26032W        W85293  44.259  37.963   3.713
26033W        W85294  30.998  18.669  12.437
26034W        W85295  31.954  36.563  14.843
26035W        W85296  33.110  32.436   4.680
26036W        W85297  31.485  42.002  13.307
26037W        W85298   2.310   4.337   3.716
26038W        W85299  42.842   3.914  10.927
26039W        W85300  31.566   3.356  12.392
26040W        W85301  16.629  15.771   2.355
26041W        W85302  44.360  38.446   2.864
26042W        W85303  27.637  15.130   3.293
26043W        W85304  12.164  25.553   4.756
26044W        W85305  35.409  35.413  10.454
26045W        W85306  30.163  25.979   1.905
26046W        W85307  29.959  19.655   4.139
26047W        W85308  17.673  38.012  12.933
26048W        W85309  26.539   4.764  14.311
26049W        W85310  34.539  35.599   2.765
26050W        W85311  30.053  28.556   1.900
26051W        W85312  28.136  16.599  11.953
26052W        W85313  36.095  34.973  14.499
26053W        W85314   1.306  29.460  13.327
26054W        W85315  19.085  10.720   2.902
26055W        W85316  28.011  27.188   3.637
26056W        W85317  21.712  35.421  13.803
26057W        W85318  44.303  28.523  11.407
26058W        W85319  23.070  19.733  13.483
26059W        W85320   4.287  34.512   2.715
26060W        W85321  11.862  16.705  12.567
26061W        W85322  27.600  10.769   3.280
26062W        W85323  12.683  15.742   2.240
26063W        W85324  20.725  34.868  10.546
26064W        W85325  29.442  40.307   1.401
26065W        W85326  20.544   5.211   0.451
26066W        W85327  12.353   2.324   2.686
26067W        W85328  35.064  33.109  14.019
26068W        W85329   0.798  39.484  11.579
26069W        W85330  28.484  17.601   0.449
26070W        W85331  34.465  29.068   3.292
26071W        W85332  43.018  36.561  12.066
26072W        W85333  35.542  11.686   5.592
26073W        W85334  21.208  30.456   0.898
26074W        W85335  39.468   8.248   0.954
26075W        W85336   0.895  32.058  12.011
26076W        W85337  11.837  39.534  10.495
26077W        W85338  41.942   6.913   4.678
26078W        W85339  23.161  35.950   4.191
26079W        W85340  28.030   7.778  10.905
26080W        W85341   3.293  12.751  11.515
26081W        W85342  33.528  10.733   4.681
26082W        W85343   2.296  11.714  10.489
26083W        W85344   2.425  29.950  14.916
26084W        W85345  31.058  11.215   3.193
26085W        W85346  36.493  27.575  11.968
26086W        W85347  32.099   8.734  12.880
26087W        W85348  40.812   3.220   1.372
26088W        W85349   6.915  40.842   0.340
26089W        W85350  34.900  19.670   3.729
26090W        W85351  39.962  25.630   0.864
26091W        W85352  24.039   1.771  10.445
26092W        W85353  16.112  41.489   2.702
26093W        W85354   1.923  12.683   4.118
26094W        W85355  17.066  10.702   3.661
26095W        W85356   6.300  43.309  12.514
26096W        W85357  25.037  24.053  12.829
26097W        W85358  44.317  36.547   1.792
26098W        W85359  32.914   0.491   3.174
26099W        W85360   6.887   7.370  12.868
26100W        W85361   8.823  36.400   4.261
26101W        W85362  20.592  23.507   2.675
26102W        W85363  40.802  42.918   4.836
26103W        W85364  40.381   3.942  10.487
26104W        W85365  44.982   1.874   0.416
26105W        W85366   2.312  11.652  14.015
26106W        W85367   9.316  39.020   3.849
26107W        W85368   9.209   1.306  11.108
26108W        W85369  21.658  38.409  12.037
26109W        W85370  36.024  38.439  12.056
26110W        W85371  36.055  12.326  11.578
26111W        W85372  40.339  39.519  13.346
26112W        W85373   2.904  24.078  14.290
26113W        W85374  12.715  14.788  11.543
26114W        W85375  18.708  11.136  14.020
26115W        W85376  40.983   4.230   0.328
26116W        W85377   4.239  17.208  12.093
26117W        W85378  17.723  43.915  13.947
26118W        W85379  43.788  37.359   2.397
26119W        W85380  41.384  40.463  14.416
26120W        W85381  27.537  40.897   4.773
26121W        W85382  34.110  14.171   0.452
26122W        W85383  19.631  19.275  12.468
26123W        W85384   4.941   9.773  14.485
26124W        W85385  11.746  18.069   5.227
26125W        W85386  42.990  14.639  13.896
26126W        W85387  15.239   8.299  11.526
26127W        W85388  24.500  18.230   3.228
26128W        W85389  29.661  11.338   2.865
26129W        W85390   8.243  32.470   0.880
26130W        W85391  38.893   2.915   0.305
26131W        W85392  19.723   1.803   3.849
26132W        W85393   5.725  21.144   3.686
26133W        W85394   2.750  36.842  14.377
26134W        W85395  27.659  31.495   5.700
26135W        W85396  26.566  29.553  14.881
26136W        W85397  26.035  19.674   1.212
26137W        W85398   1.845   3.900   4.673
26138W        W85399   3.381  44.448   2.314
26139W        W85400   9.238  24.588  12.843
26140W        W85401  21.041  40.935   0.252
26141W        W85402  43.374  42.817   2.685
26142W        W85403  21.223  25.207   0.446
26143W        W85404  32.983  44.807  14.971
26144W        W85405  39.424   6.343   1.334
26145W        W85406   8.194  17.751   3.711
26146W        W85407  25.983   1.370   1.385
26147W        W85408  30.158  39.461  11.016
26148W        W85409   7.311   3.406  10.625
26149W        W85410  15.099  23.490   0.930
26150W        W85411  38.033   7.374  12.344
26151W        W85412   0.844  40.991  10.889
26152W        W85413  28.542   0.915  10.603
26153W        W85414  41.899  11.687   2.720
26154W        W85415  44.960   3.330  11.044
26155W        W85416   3.378  17.678  13.465
26156W        W85417  15.093   8.672  11.496
26157W        W85418  35.369   4.292  13.977
26158W        W85419  35.009   7.176  12.567
26159W        W85420  25.215  22.090  11.494
26160W        W85421  10.833  41.379  12.918
26161W        W85422  16.655  21.206   1.789
26162W        W85423  37.836  26.029  11.951
26163W        W85424  19.083   6.895   2.854
26164W        W85425   0.264  23.216  14.289
26165W        W85426  29.066  28.994   1.288
26166W        W85427  30.956  21.197   3.152
26167W        W85428   7.356  13.185  11.876
26168W        W85429  35.384  12.757   0.745
26169W        W85430  32.394  22.141   2.301
26170W        W85431  36.449  11.230  10.089
26171W        W85432  36.528  24.176   4.320
26172W        W85433   1.245  18.725  14.009
26173W        W85434   3.921  15.740  11.579
26174W        W85435  24.632  12.623   0.351
26175W        W85436  42.376   3.365   2.827
26176W        W85437  43.341   5.847  14.937
26177W        W85438   6.815  21.534  13.808
26178W        W85439  28.150  19.279   0.298
26179W        W85440  44.859  18.100   9.601
26180W        W85441  29.562   4.216   3.718
26181W        W85442   3.303   8.666  11.113
26182W        W85443  40.385  22.698   0.805
26183W        W85444   0.789  44.350   5.209
26184W        W85445  16.668   1.832   1.242
26185W        W85446  20.222  36.001  13.930
26186W        W85447  11.733  31.464  11.425
26187W        W85448  39.539  25.494  12.477
26188W        W85449  27.006  42.387  12.398
26189W        W85450  14.250   3.832  12.400
26190W        W85451  26.489  27.997   5.254
26191W        W85452  13.669   4.217  14.414
26192W        W85453  12.245  44.365   4.797
26193W        W85454   4.445   5.220   5.270
26194W        W85455  35.077  10.267   1.291
26195W        W85456  22.097  15.184   1.265
26196W        W85457  40.874  28.184   2.314
26197W        W85458  10.851  32.039   3.699
26198W        W85459  21.539  35.893   4.824
26199W        W85460  25.123   7.759   2.863
26200W        W85461  23.612  29.173  11.908
26201W        W85462  36.402  44.865   4.220
26202W        W85463  19.208  40.913   4.310
26203W        W85464  36.557   4.829  11.072
26204W        W85465  33.876  39.861   1.773
26205W        W85466  44.359   1.410  11.087
26206W        W85467  35.002  22.651  12.485
26207W        W85468  19.177  28.938   0.431
26208W        W85469  30.596   0.900   4.738
26209W        W85470  41.837  23.184  13.490
26210W        W85471  40.867  41.042  13.373
26211W        W85472   2.272  42.495  10.983
26212W        W85473   9.756  16.677   0.802
26213W        W85474  23.718  31.927   2.414
26214W        W85475  10.237  23.624   0.354
26215W        W85476   1.869  11.831  14.960
26216W        W85477  24.506  35.018   4.182
26217W        W85478   5.694  43.489  14.448
26218W        W85479  37.892   9.884  10.012
26219W        W85480  21.240   7.411  12.355
26220W        W85481   3.849  28.678  11.464
26221W        W85482  39.316  34.975   3.806
26222W        W85483  35.572   1.386  14.396
26223W        W85484  30.997  13.698  13.809
26224W        W85485  43.975  25.051   0.926
26225W        W85486   9.180  12.361   1.889
26226W        W85487  25.711  29.483   9.440
26227W        W85488  40.458  34.545   0.747
26228W        W85489   2.386  24.055   2.182
26229W        W85490  40.033  10.789   3.675
26230W        W85491  40.000  18.684  14.875
26231W        W85492  26.537  30.578  13.023
26232W        W85493  35.032  16.778   3.656
26233W        W85494   8.202   7.835  12.850
26234W        W85495  11.202  17.126  12.520
26235W        W85496  39.011  13.608  12.489
26236W        W85497   1.973  16.230   0.826
26237W        W85498  10.816  28.144  11.437
26238W        W85499  37.926   4.332   2.221
26239W        W85500  39.901  13.117  13.506
26240W        W85501  14.630  18.594   4.619
26241W        W85502   8.370  36.916  13.857
26242W        W85503  20.765  37.354  13.329
26243W        W85504  31.098   0.893  11.447
26244W        W85505  39.497  17.111  10.118
26245W        W85506   9.161   1.437   0.931
26246W        W85507  15.319  31.502  10.599
26247W        W85508  38.020  41.464   5.177
26248W        W85509  43.791  37.421  13.007
26249W        W85510  29.963  35.039   0.935
26250W        W85511   3.442   0.856  12.498
26251W        W85512  19.539  10.273  12.004
26252W        W85513  14.112  41.864  12.395
26253W        W85514   2.429  29.135  10.014
26254W        W85515  30.981  34.010   1.819
26255W        W85516   2.294  29.124  13.995
26256W        W85517  15.700  16.784  11.542
26257W        W85518   6.369  39.497  11.464
26258W        W85519   1.843  36.995   0.761
26259W        W85520  31.951  30.109   4.697
26260W        W85521  35.902  10.734  11.920
26261W        W85522  30.416  40.330   1.363
26262W        W85523  13.264  29.170   1.407
26263W        W85524  12.757  21.521  13.936
26264W        W85525   0.747  26.067   4.831
26265W        W85526  34.865   5.394  14.029
26266W        W85527   6.901   7.758   4.258
26267W        W85528  14.747  43.847   2.792
26268W        W85529  11.181   1.314   2.370
26269W        W85530   3.880  11.268   3.685
26270W        W85531  40.879  26.956  13.916
26271W        W85532  37.971  33.407   1.750
26272W        W85533  30.414  22.614   0.244
26273W        W85534  39.997  39.447  11.599
26274W        W85535   1.433  33.458   3.332
26275W        W85536  41.968  10.280   3.796
26276W        W85537   9.287  36.006  13.950
26277W        W85538  28.129  23.010   3.796
26278W        W85539  43.365   1.447   0.405
26279W        W85540  21.131  19.730   0.415
26280W        W85541   3.955  39.040  11.058
26281W        W85542  44.346  19.765  14.013
26282W        W85543   2.300   6.680   1.902
26283W        W85544  30.014  15.813   3.790
26284W        W85545  33.538  42.523   1.826
26285W        W85546  17.246  29.163  12.483
26286W        W85547   6.183  18.092   4.344
26287W        W85548  10.373  20.099  13.409
26288W        W85549  44.453  29.546   1.267
26289W        W85550   3.373  42.920   5.101
26290W        W85551   5.197  20.580   4.804
26291W        W85552  27.026  24.502  10.590
26292W        W85553  21.189  33.960   4.302
26293W        W85554  34.534  10.703  11.995
26294W        W85555  26.537  27.995  11.906
26295W        W85556  22.624  33.934   4.725
26296W        W85557  20.737  25.093  12.984
26297W        W85558  21.056  22.543  13.376
26298W        W85559  13.676  14.709  12.360
26299W        W85560   0.408  16.080   3.673
26300W        W85561  10.730  20.219   4.801
26301W        W85562  13.704  40.951  13.393
26302W        W85563  25.068  20.148  12.824
26303W        W85564  13.252  22.599   4.185
26304W        W85565   7.291  40.018  13.429
26305W        W85566   6.711  25.617   0.353
26306W        W85567  23.030  16.749  14.948
26307W        W85568  14.685  42.924  13.538
26308W        W85569  35.391  33.620  13.904
26309W        W85570  37.959  33.115  13.354
26310W        W85571  13.156  36.488   4.607
26311W        W85572  27.077  24.036  10.405
26312W        W85573  44.407  30.540  13.339
26313W        W85574  14.242  27.170   5.714
26314W        W85575  32.964  26.535   0.406
26315W        W85576  37.510  23.115  11.566
26316W        W85577  41.868  39.487   3.687
26317W        W85578  38.998  37.037  11.059
26318W        W85579  20.180   7.213   2.191
26319W        W85580  21.254  13.185  13.022
26320W        W85581  13.211  40.535  14.476
26321W        W85582   4.933  32.396  11.986
26322W        W85583  13.341  26.990   3.639
26323W        W85584  10.378  25.086   3.278
26324W        W85585  26.070  25.570  11.910
26325W        W85586   7.311  42.929   0.882
26326W        W85587  16.631  37.882  11.129
26327W        W85588  43.879   2.807  11.536
26328W        W85589  18.617   3.301   4.678
26329W        W85590  36.959  15.730   0.424
26330W        W85591  13.842  23.236  12.048
26331W        W85592  31.041  39.380  10.595
26332W        W85593  27.459  11.205  11.410
26333W        W85594   6.225   0.792   1.378
26334W        W85595  22.675  39.950  11.064
26335W        W85596  24.654   7.868  10.957
26336W        W85597   9.734  39.533   4.622
26337W        W85598  16.666  28.581  14.793
26338W        W85599  11.346  11.243  10.895
26339W        W85600  11.215  38.068   3.370
26340W        W85601  22.577  41.321   3.351
26341W        W85602  42.952  19.198  12.958
26342W        W85603  38.822  44.469   2.337
26343W        W85604  44.803  11.314   2.229
26344W        W85605  26.527   2.757  14.326
26345W        W85606  28.973   4.763  14.407
26346W        W85607  11.348  43.920   4.304
26347W        W85608  19.546   6.708   2.679
26348W        W85609  44.456  30.075  11.551
26349W        W85610   9.350  12.128   1.387
26350W        W85611  31.559  20.676  11.440
26351W        W85612  12.197  23.645  14.460
26352W        W85613  34.074   5.793  12.841
26353W        W85614  42.338  27.514  12.467
26354W        W85615   2.926  12.757  10.961
26355W        W85616  41.979  31.044   3.195
26356W        W85617  12.806  19.602  12.465
26357W        W85618  17.695  38.005   1.358
26358W        W85619  38.076  31.079  13.505
26359W        W85620   1.369  21.536   2.716
26360W        W85621  44.003   0.982  11.032
26361W        W85622  26.604  21.705   1.274
26362W        W85623   5.814   0.331  13.393
26363W        W85624  43.339  14.712  12.077
26364W        W85625  14.253   3.901   2.669
26365W        W85626  17.088  26.475   4.767
26366W        W85627   5.826  39.021   3.169
26367W        W85628   6.849  35.417  14.825
26368W        W85629  28.650   6.771   1.406
26369W        W85630  14.740  34.593  12.475
26370W        W85631  34.058  19.594  12.995
26371W        W85632  30.973  15.630  13.495
26372W        W85633   3.225   3.874   4.630
26373W        W85634  22.144  12.624   3.265
26374W        W85635  38.490  13.721  14.991
26375W        W85636  18.751  27.042  12.012
26376W        W85637  26.499   7.907   1.838
26377W        W85638  18.656  40.037  13.037
26378W        W85639  41.520  13.640  10.974
26379W        W85640   1.315  29.992  12.533
26380W        W85641   5.210  22.188  11.059
26381W        W85642  42.826  27.533   1.216
26382W        W85643  33.933  39.059  13.956
26383W        W85644  34.098  38.501  11.465
26384W        W85645  22.568  31.111  11.561
26385W        W85646  29.667  44.495  14.445
26386W        W85647  10.192   6.221   9.967
26387W        W85648  12.219  39.871  13.905
26388W        W85649  30.998  34.559   2.682
26389W        W85650  39.486  41.327   1.428
26390W        W85651  17.229  13.750   4.682
26391W        W85652   9.220   5.302   9.584
26392W        W85653   0.301  12.691  10.926
26393W        W85654   8.712  19.659   5.093
26394W        W85655  35.885  19.088  14.499
26395W        W85656  14.696  34.998   4.743
26396W        W85657  43.492   2.263  12.823
26397W        W85658  22.565  15.233  14.461
26398W        W85659  13.692  24.688  13.004
26399W        W85660  15.726   4.319  14.463
26400W        W85661   3.851  30.971  12.341
26401W        W85662   8.235  35.521   0.782
26402W        W85663  25.634  34.461   2.712
26403W        W85664  40.865  22.550   3.829
26404W        W85665  12.125  29.958  13.352
26405W        W85666  36.584  16.608   4.797
26406W        W85667  23.044  44.476  13.969
26407W        W85668   2.236  34.083   3.870
26408W        W85669   5.397  26.512   3.234
26409W        W85670  41.868  18.092  11.476
26410W        W85671  15.093  25.674   3.300
26411W        W85672  38.416  14.797  11.115
26412W        W85673  21.663  33.604  14.375
26413W        W85674  32.551  25.092   0.447
26414W        W85675  11.728  31.910  12.552
26415W        W85676  39.341  11.830  13.791
26416W        W85677  39.493   3.346   5.317
26417W        W85678   8.706   3.376   1.728
26418W        W85679  17.653  12.362   4.136
26419W        W85680  17.557  34.501  13.877
26420W        W85681   0.466  30.029  14.416
26421W        W85682  16.254  34.886   4.741
26422W        W85683  22.215  41.420   2.371
26423W        W85684  20.704  11.198   3.768
26424W        W85685  16.767  19.269   2.676
26425W        W85686  14.630  17.216  13.816
26426W        W85687  22.124  43.385   4.124
26427W        W85688  23.627   1.948  10.075
26428W        W85689   9.391  12.764  13.924
26429W        W85690  25.158  35.974   1.823
26430W        W85691  20.064   3.859   1.332
26431W        W85692  25.988   9.835  14.878
26432W        W85693  27.492   7.269  11.487
26433W        W85694   0.301  14.770   0.480
26434W        W85695  18.277  38.046   4.805
26435W        W85696  36.950  39.924   1.891
26436W        W85697  37.356  28.990  10.404
26437W        W85698  23.153  23.024  12.410
26438W        W85699  23.589  36.094   3.164
26439W        W85700   1.856   5.783   0.294
26440W        W85701  15.271  20.726  11.548
26441W        W85702  42.999  31.492  14.276
26442W        W85703  18.605  35.057   3.230
26443W        W85704  39.471  35.482   9.575
26444W        W85705  43.862  34.414  14.296
26445W        W85706   4.396   6.204  12.445
26446W        W85707  17.116  38.477   0.800
26447W        W85708  43.863  39.320  11.005
26448W        W85709  19.760   5.313  12.494
26449W        W85710  39.360  12.685   3.850
26450W        W85711   0.959  28.627   3.780
26451W        W85712   1.900  18.114   4.165
26452W        W85713  43.327   1.954  11.127
26453W        W85714  32.522  33.504  11.943
26454W        W85715  39.340  31.902  13.359
26455W        W85716  40.485   4.699   1.926
26456W        W85717  34.062  11.702   2.414
26457W        W85718  25.211  40.857   3.703
26458W        W85719  14.215  37.365   4.650
26459W        W85720  41.487   8.190  14.969
26460W        W85721  40.872  43.851  11.447
26461W        W85722  13.794  33.518   4.695
26462W        W85723  26.158   6.303   1.894
26463W        W85724  44.272  43.403   3.653
26464W        W85725   5.918  11.333   1.369
26465W        W85726  24.685   9.386  11.881
26466W        W85727   9.221   6.225   2.326
26467W        W85728  14.673  28.002  12.048
26468W        W85729   3.358  42.971  14.760
26469W        W85730  30.461  12.235  14.920
26470W        W85731   9.732  38.325   0.335
26471W        W85732  42.383  31.959  14.461
26472W        W85733   5.353  36.461   2.834
26473W        W85734   5.875  12.177   3.298
26474W        W85735  42.890  17.564   2.861
26475W        W85736  29.513  43.885  11.561
26476W        W85737  33.412  29.582   3.818
26477W        W85738  16.273  34.532   0.819
26478W        W85739  11.858  17.303  13.832
26479W        W85740  12.193  11.814  11.442
26480W        W85741  20.148   0.391   4.717
26481W        W85742  21.106  43.304  11.591
26482W        W85743  15.235  36.409  12.559
26483W        W85744  31.048   9.383   2.880
26484W        W85745  33.967  38.395   3.247
26485W        W85746  14.822   5.334   1.288
26486W        W85747  21.257  22.728  12.055
26487W        W85748  32.909   1.253  10.550
26488W        W85749   1.260  24.136   0.399
26489W        W85750  24.667  29.486  11.050
26490W        W85751  11.651  14.808  11.065
26491W        W85752   9.336  11.310   1.764
26492W        W85753  20.695   2.278  11.927
26493W        W85754   2.369  44.421   5.186
26494W        W85755  39.929   0.960   2.323
26495W        W85756  26.545   9.313  10.413
26496W        W85757  16.788  41.380  13.856
26497W        W85758  26.965  34.969   4.344
26498W        W85759  17.690  12.668   0.454
26499W        W85760   8.166  35.591  12.074
26500W        W85761  42.492  34.927   2.285
26501W        W85762   8.327  17.663   3.325
26502W        W85763  30.557  39.388   4.730
26503W        W85764  13.282  38.517  10.959
26504W        W85765  39.384  41.874   2.360
26505W        W85766  40.451  39.529   1.878
26506W        W85767  44.771   6.301  14.348
26507W        W85768  21.604   1.877  10.975
26508W        W85769  24.095  15.699   3.196
26509W        W85770  11.659  24.059   1.731
26510W        W85771  42.415  42.410  11.476
26511W        W85772  41.498  19.605  13.395
26512W        W85773  41.816  32.493   3.298
26513W        W85774  37.394  19.737  12.371
26514W        W85775  13.651  39.447   0.783
26515W        W85776  13.615  35.466  13.798
26516W        W85777  42.781  16.233  14.853
26517W        W85778  26.689  11.319  11.497
26518W        W85779   8.871   6.707  12.483
26519W        W85780   4.250  17.673   4.656
26520W        W85781  35.563  23.045   2.686
26521W        W85782  39.056  32.511   0.434
26522W        W85783   2.834   8.700   2.337
26523W        W85784  12.275   0.969   4.242
26524W        W85785  22.085  40.014   4.235
26525W        W85786   7.893  40.342   1.717
26526W        W85787  44.484  30.640  14.301
26527W        W85788   9.874  33.130  12.838
26528W        W85789   4.350   0.909   3.187
26529W        W85790  31.979  26.696   0.950
26530W        W85791  39.823  15.281  14.338
26531W        W85792   2.313   4.789   4.226
26532W        W85793   7.236  30.468   0.731
26533W        W85794   3.258  31.455  12.341
26534W        W85795  22.193   9.389   4.330
26535W        W85796  18.285  43.940  12.934
26536W        W85797  10.377  30.416  12.409
26537W        W85798  34.574   8.249  13.323
26538W        W85799  29.126  37.454  10.073
26539W        W85800  35.001  28.031  14.422
26540W        W85801  24.503   5.336   4.683
26541W        W85802  16.236  18.717   4.128
26542W        W85803  11.644   1.395  13.362
26543W        W85804  15.624  34.020  14.419
26544W        W85805  40.031   9.854   2.266
26545W        W85806  28.930   3.419   0.855
26546W        W85807  21.582  29.595  11.434
26547W        W85808  29.616  16.135   3.811
26548W        W85809  40.362  34.612  11.995
26549W        W85810   9.886  35.433  13.056
26550W        W85811  26.045  44.477   4.687
26551W        W85812  11.354  17.561   0.780
26552W        W85813  20.265  19.111  11.543
26553W        W85814   1.446   5.423  13.848
26554W        W85815  31.068  15.646   3.708
26555W        W85816  23.513  33.991   1.935
26556W        W85817  35.006  32.902   0.312
26557W        W85818  41.309  35.903  10.507
26558W        W85819  34.460  20.079   2.666
26559W        W85820  31.479  34.376   0.789
26560W        W85821  42.372  23.238   3.362
26561W        W85822   3.741  24.038   2.328
26562W        W85823   0.904  31.132   3.764
26563W        W85824  44.755  19.684  11.489
26564W        W85825  22.209  32.427   1.289
26565W        W85826   2.438  25.502   4.691
26566W        W85827  34.044   9.338  12.830
26567W        W85828  10.697  26.996  14.928
26568W        W85829  11.317   9.826   0.245
26569W        W85830   4.265  31.497   0.332
26570W        W85831  20.672  23.698   4.329
26571W        W85832  25.207  43.934   3.829
26572W        W85833   6.287  23.122   3.649
26573W        W85834   3.322   6.333   4.831
26574W        W85835   9.735   8.300   0.462
26575W        W85836   3.416  32.053   3.685
26576W        W85837   2.298   0.302  11.508
26577W        W85838  12.842  21.711   1.843
26578W        W85839  16.110  27.506  12.022
26579W        W85840  32.944  42.325  12.504
26580W        W85841  18.569   7.260   1.333
26581W        W85842  34.952  41.325   2.838
26582W        W85843   0.296  31.639   4.150
26583W        W85844  12.633   5.816  13.964
26584W        W85845  28.581   3.851  13.874
26585W        W85846  21.730  39.983  10.510
26586W        W85847   1.801   9.295  14.359
26587W        W85848  17.773  19.129   3.795
26588W        W85849   6.362  37.377   1.908
26589W        W85850  41.498   2.729  11.963
26590W        W85851  43.309  24.008   1.818
26591W        W85852  11.669  24.528  12.498
26592W        W85853  41.429  37.484   2.841
26593W        W85854  32.595  39.437   4.251
26594W        W85855  26.972  10.285  12.851
26595W        W85856  26.669  41.851  10.599
26596W        W85857  37.573  16.232  13.511
26597W        W85858  14.178  40.452   3.359
26598W        W85859  23.024   4.358  14.029
26599W        W85860  23.166  22.582   1.781
26600W        W85861  36.561   7.176  10.901
26601W        W85862  17.600  23.506   4.343
26602W        W85863  29.532   3.420  10.411
26603W        W85864  33.093  26.642   2.814
26604W        W85865   7.743   0.254   3.740
26605W        W85866   2.797  22.650   2.307
26606W        W85867  21.108  24.080  14.466
26607W        W85868   1.410  14.828  11.857
26608W        W85869  39.532  18.628  12.546
26609W        W85870  11.740   8.325  11.979
26610W        W85871   8.849  40.922  14.834
26611W        W85872  15.099  11.650   4.336
26612W        W85873  29.168  18.263  10.541
26613W        W85874  28.132  39.875   4.712
26614W        W85875   5.204   4.219  12.951
26615W        W85876  40.462  36.910  13.314
26616W        W85877  28.161  10.823   1.392
26617W        W85878  23.163  10.356   0.368
26618W        W85879  39.990  39.000  11.514
26619W        W85880   7.204   8.759  14.982
26620W        W85881  14.290  40.879   2.806
26621W        W85882   6.892  41.476   4.618
26622W        W85883  23.097  13.253  11.437
26623W        W85884  17.622   6.737  13.800
26624W        W85885  14.291  34.533   3.820
26625W        W85886  36.020  31.460  11.062
26626W        W85887  30.511  12.730   1.371
26627W        W85888   9.223  33.585   2.902
26628W        W85889  37.929  30.033  12.428
26629W        W85890  43.774  27.941  14.860
26630W        W85891  29.111  41.531  11.528
26631W        W85892  34.106  16.210  13.904
26632W        W85893  19.144  28.656  11.924
26633W        W85894  36.939  14.713   2.211
26634W        W85895  24.082  14.163  11.509
26635W        W85896  23.647   3.458  14.509
26636W        W85897  21.676   2.865  11.569
26637W        W85898   6.911   0.895   4.226
26638W        W85899  23.124   7.673   3.210
26639W        W85900  24.070   2.848   3.832
26640W        W85901  22.609  36.448  12.006
26641W        W85902  25.556  29.593  13.792
26642W        W85903   9.768  27.114   1.822
26643W        W85904   7.843  20.147  10.439
26644W        W85905  17.658  39.447  14.811
26645W        W85906  20.140   8.838  12.422
26646W        W85907  20.136   3.353  11.916
26647W        W85908  11.649  16.594  13.535
26648W        W85909  26.568   8.695   4.770
26649W        W85910  16.092  19.155   5.591
26650W        W85911  17.238  32.919  13.847
26651W        W85912  36.008   1.823   2.347
26652W        W85913  11.741   1.762   3.729
26653W        W85914  29.965   2.920  11.451
26654W        W85915  34.425  21.214   4.604
26655W        W85916  27.560   7.187   1.709
26656W        W85917  16.611  24.599   4.322
26657W        W85918  44.487  39.508  12.957
26658W        W85919  35.535  27.943  12.082
26659W        W85920  44.441   2.879   3.381
26660W        W85921   6.397   1.955  11.995
26661W        W85922  39.912  15.275   0.796
26662W        W85923  32.462  25.109  11.866
26663W        W85924   0.473  19.620   3.301
26664W        W85925  12.346   7.224   4.151
26665W        W85926  16.745  37.526   3.763
26666W        W85927  35.032  35.877  10.107
26667W        W85928  10.830  15.612  14.954
26668W        W85929  34.588  38.997  14.913
26669W        W85930  43.379  21.636   4.210
26670W        W85931  29.039  19.743   1.383
26671W        W85932   7.193  25.125   2.211
26672W        W85933  25.022  42.795  12.418
26673W        W85934   5.924   7.389   0.244
26674W        W85935  13.635   3.447   0.937
26675W        W85936  36.842   2.724   2.790
26676W        W85937  41.918  37.869   2.832
26677W        W85938  39.959  27.017   3.342
26678W        W85939  32.123  24.044   1.763
26679W        W85940   7.360  44.848   0.247
26680W        W85941  17.075  44.307   0.472
26681W        W85942  18.692  12.840   1.837
26682W        W85943  39.403  38.948   4.760
26683W        W85944  33.411  19.757  10.152
26684W        W85945  28.137  24.565  11.068
26685W        W85946  33.398  33.982   4.620
26686W        W85947   6.278  33.422   3.827
26687W        W85948  11.806  16.684  11.925
26688W        W85949   3.446  13.825   1.733
26689W        W85950  18.219   0.955  11.551
26690W        W85951  15.088  41.533   1.363
26691W        W85952  13.318  21.185   3.777
26692W        W85953  36.567  37.497  12.053
26693W        W85954  13.249  40.886  14.965
26694W        W85955   2.735  25.144   4.165
26695W        W85956  20.694  14.593   3.365
26696W        W85957  40.928  22.200  10.895
26697W        W85958   9.342  44.883  10.952
26698W        W85959  10.267  35.417  13.319
26699W        W85960   9.304  35.549   4.687
26700W        W85961  14.623  40.958   4.792
26701W        W85962   8.886  21.190  12.847
26702W        W85963  15.666  15.313   3.817
26703W        W85964  10.783  15.624  13.490
26704W        W85965   0.866   5.402   0.950
26705W        W85966  10.343  22.630   1.304
26706W        W85967  24.578  20.043  13.908
26707W        W85968  30.003  34.416   1.244
26708W        W85969  17.673  31.601   0.389
26709W        W85970  12.213  12.255   4.770
26710W        W85971  30.556  23.151  12.041
26711W        W85972  38.905  26.981   1.318
26712W        W85973  23.516  31.514   4.741
26713W        W85974   4.286  37.450   0.820
26714W        W85975  43.507  22.521  14.859
26715W        W85976  40.987   3.271   1.847
26716W        W85977  42.306  36.556  13.985
26717W        W85978  12.702  19.247   1.451
26718W        W85979  11.848  12.765   3.305
26719W        W85980  39.894  31.623   4.683
26720W        W85981   0.297   4.818  13.430
26721W        W85982  25.553  18.579   3.768
26722W        W85983  24.679   2.893   3.304
26723W        W85984  38.846  18.052   2.782
26724W        W85985  42.523  23.095  10.980
26725W        W85986  19.095   2.908   4.705
26726W        W85987  30.413  13.803   1.907
26727W        W85988  27.108  43.331   4.730
26728W        W85989  34.955  23.098  10.411
26729W        W85990   8.267   3.780   1.929
26730W        W85991  25.079  15.627   2.308
26731W        W85992  14.766  22.730  10.531
26732W        W85993  41.787  17.716  11.031
26733W        W85994  17.270  27.941   2.890
26734W        W85995  25.009  11.362   2.270
26735W        W85996  35.089  20.651  10.597
26736W        W85997   8.174   8.310   4.282
26737W        W85998  16.095   9.215   4.752
26738W        W85999  23.219  18.770   5.282
26739W        W86000   4.756  38.830   3.820
26740W        W86001   3.353  23.703   4.705
26741W        W86002  27.090  23.064   2.867
26742W        W86003  30.108   1.861  13.045
26743W        W86004  26.588  32.993   0.734
26744W        W86005  34.024   6.889  10.532
26745W        W86006  35.955  24.150  10.512
26746W        W86007  41.439   2.383   0.329
26747W        W86008  12.749  19.645   3.168
26748W        W86009  12.728   8.800   3.648
26749W        W86010  19.096   7.307  13.438
26750W        W86011  24.670  39.896  13.368
26751W        W86012   3.909   1.345  13.441
26752W        W86013  29.635  27.475   2.275
26753W        W86014   1.278  16.127   2.416
26754W        W86015  36.999   8.323  14.893
26755W        W86016  24.205  31.642   1.792
26756W        W86017   1.392  44.850  11.939
26757W        W86018  21.579   7.878   4.796
26758W        W86019  30.632  32.421   0.266
26759W        W86020   7.200  13.325  13.960
26760W        W86021  26.474  12.746  13.890
26761W        W86022  37.555   3.798   0.787
26762W        W86023  39.385  42.316  14.363
26763W        W86024  27.164  25.524   2.279
26764W        W86025  28.992   2.289   1.854
26765W        W86026   7.807  11.140   1.703
26766W        W86027  33.127  24.014  14.029
26767W        W86028  35.549  35.567   3.205
26768W        W86029  13.601   9.361  12.436
26769W        W86030  40.994   8.663   3.181
26770W        W86031   1.852  32.040   2.878
26771W        W86032  28.581  27.084   2.787
26772W        W86033   9.790  24.663   1.416
26773W        W86034  24.101   9.217  13.532
26774W        W86035   4.281  16.766  13.366
26775W        W86036  19.616  13.749   2.806
26776W        W86037  41.385  40.362  14.971
26777W        W86038   1.906  21.146   1.433
26778W        W86039  32.635  31.412  10.627
26779W        W86040   5.894  38.965  12.362
26780W        W86041  21.613  43.772   3.822
26781W        W86042  35.569  42.876  14.878
26782W        W86043  26.646  41.838  12.464
26783W        W86044  15.133  38.047   3.672
26784W        W86045   7.221  42.815  14.374
26785W        W86046  20.103  33.089   2.746
26786W        W86047  13.181   7.190  11.401
26787W        W86048  22.033  31.047   0.262
26788W        W86049  42.859  29.563   4.649
26789W        W86050  26.035  15.760   2.246
26790W        W86051  21.714   4.728   2.781
26791W        W86052  15.214  21.216   4.131
26792W        W86053  30.443  44.442   0.423
26793W        W86054  20.716   9.740   1.873
26794W        W86055   9.823  38.351   4.185
26795W        W86056  30.946  29.518   0.410
26796W        W86057  28.598  12.691   4.638
26797W        W86058   6.916  24.581  13.825
26798W        W86059  30.575  20.688  11.538
26799W        W86060  32.989  17.783  14.875
26800W        W86061   3.442  15.175  11.031
26801W        W86062   9.823  41.912   2.690
26802W        W86063  44.411  26.605   2.290
26803W        W86064  44.860  41.507  10.964
26804W        W86065  31.575  29.670  13.989
26805W        W86066  35.362  38.511   3.833
26806W        W86067  36.897   4.752  14.322
26807W        W86068  18.601   3.227   4.259
26808W        W86069  38.463  34.396   2.850
26809W        W86070  11.141  26.960   4.182
26810W        W86071   6.237  36.404   1.794
26811W        W86072  10.644  27.069   1.787
26812W        W86073  36.349  25.146   3.204
26813W        W86074  30.536  30.518   1.888
26814W        W86075  43.926  25.176  12.507
26815W        W86076  31.941  15.178   3.271
26816W        W86077  11.829  35.434  12.495
26817W        W86078  23.136  24.631   2.343
26818W        W86079  31.459  13.339   1.286
26819W        W86080  27.161   0.256   4.223
26820W        W86081  15.675  14.259   2.802
26821W        W86082  15.184  12.324   4.737
26822W        W86083  18.224  23.655  10.575
26823W        W86084   0.954  41.346   5.271
26824W        W86085  21.554  44.262  11.074
26825W        W86086  25.588  26.133  13.043
26826W        W86087  21.189   0.752   0.865
26827W        W86088   3.947  42.393  13.822
26828W        W86089  27.160  11.239   3.783
26829W        W86090  22.697  10.812   3.870
26830W        W86091   8.885   1.473   3.214
26831W        W86092  32.424   2.763  11.869
26832W        W86093  34.929  32.080   0.378
26833W        W86094  23.020  41.449  12.038
26834W        W86095   2.754  15.267  13.839
26835W        W86096  22.216  11.666   0.881
26836W        W86097   9.240   4.738  12.453
26837W        W86098  31.053  32.118  14.423
26838W        W86099   4.437  44.479   0.257
26839W        W86100  38.337  14.620   3.731
26840W        W86101   8.719  13.779  12.571
26841W        W86102  34.882   4.871   0.952
26842W        W86103  42.922   2.885  14.923
26843W        W86104  41.311   2.267  11.894
26844W        W86105  11.827  31.125   3.868
26845W        W86106  37.352  22.578  11.438
26846W        W86107  14.216  16.124   3.276
26847W        W86108  13.289  36.528  14.419
26848W        W86109  31.078  34.897   2.825
26849W        W86110   5.688  10.247   3.788
26850W        W86111  44.474  13.784  12.426
26851W        W86112  35.523  14.818  12.934
26852W        W86113   6.863   4.889  12.844
26853W        W86114  26.529   3.804   3.282
26854W        W86115  15.769  31.481   4.829
26855W        W86116  42.794  11.853  12.020
26856W        W86117   2.733  21.167  10.442
26857W        W86118   4.767  25.650  11.973
26858W        W86119  39.878  18.217   2.815
26859W        W86120  43.803  14.325  13.313
26860W        W86121   5.722  15.256   2.674
26861W        W86122  19.600  16.262   0.295
26862W        W86123  43.922   3.311   2.241
26863W        W86124   3.362   6.406   3.312
26864W        W86125   9.748  12.207   0.769
26865W        W86126  43.796  43.315  14.984
26866W        W86127   7.333  37.007   1.790
26867W        W86128   9.676  20.181   1.337
26868W        W86129   8.732   5.717  13.947
26869W        W86130   0.871   7.680  10.995
26870W        W86131   3.846  11.330  11.588
26871W        W86132  13.611  33.413   0.461
26872W        W86133   8.396  11.314  12.479
26873W        W86134  27.630  13.610  14.323
26874W        W86135   5.852  35.462   1.304
26875W        W86136  42.495  40.448  13.523
26876W        W86137  13.232  40.040  14.378
26877W        W86138   5.808  28.096  13.919
26878W        W86139   5.882  14.211  12.480
26879W        W86140   5.273   7.371  12.857
26880W        W86141  22.549  20.148  14.458
26881W        W86142   3.326  13.772   0.415
26882W        W86143  41.395  22.575   4.179
26883W        W86144  16.273  24.999  11.491
26884W        W86145  40.433  28.568  14.852
26885W        W86146   0.835  14.198  12.964
26886W        W86147   4.793   6.694   1.320
26887W        W86148   5.225   0.290  12.925
26888W        W86149  26.600  36.941   3.168
26889W        W86150  44.874   5.704  10.621
26890W        W86151   7.845   7.209  11.947
26891W        W86152   3.266  15.250  11.870
26892W        W86153  21.709  34.108   0.927
26893W        W86154  14.670  44.907  11.047
26894W        W86155  20.539  19.605  14.404
26895W        W86156  15.621   8.707  11.541
26896W        W86157   1.335   4.237  12.535
26897W        W86158  42.483  34.524   5.608
26898W        W86159   5.773  10.710  12.874
26899W        W86160  21.645  36.049   3.769
26900W        W86161  35.881  14.795  14.830
26901W        W86162  42.830   0.480  10.610
26902W        W86163  21.693  28.080  11.083
26903W        W86164   7.321  22.608  11.549
26904W        W86165  11.854  11.140   3.277
26905W        W86166  26.106   0.335   5.256
26906W        W86167  43.323   5.258  11.945
26907W        W86168  11.340  18.070  13.029
26908W        W86169  20.640   7.834  13.857
26909W        W86170  16.594  32.604  11.464
26910W        W86171  40.455  43.434  14.832
26911W        W86172  12.817   1.424  13.925
26912W        W86173  25.019  20.033   5.151
26913W        W86174  40.833  34.918  14.401
26914W        W86175   6.217   2.254  12.494
26915W        W86176  41.508  43.938  13.369
26916W        W86177   8.211  22.217   1.818
26917W        W86178  34.023  35.977  13.485
26918W        W86179  44.496   3.943   0.894
26919W        W86180  16.612  18.619  12.831
26920W        W86181  19.115   2.736  12.929
26921W        W86182  16.226  10.352  13.980
26922W        W86183  28.673  35.057  13.308
26923W        W86184  22.585  41.302   2.677
26924W        W86185  32.102   0.865   0.742
26925W        W86186  23.660   5.393  14.981
26926W        W86187  36.356  28.988  10.930
26927W        W86188  18.744  35.564   3.809
26928W        W86189  41.857  41.463  11.526
26929W        W86190  27.054  17.159   1.436
26930W        W86191  34.567  22.592   2.277
26931W        W86192  40.327  40.337   4.165
26932W        W86193   7.910  43.990  14.946
26933W        W86194  37.989  40.003  13.478
26934W        W86195   4.756  13.811   0.818
26935W        W86196   9.241  31.923   3.302
26936W        W86197  26.689  39.440   3.738
26937W        W86198   8.790   9.674   3.321
26938W        W86199  28.586  18.092   0.781
26939W        W86200  36.086  32.911  11.079
26940W        W86201   0.906  32.086  14.949
26941W        W86202  16.151  37.977   3.793
26942W        W86203  33.408  39.395  13.342
26943W        W86204  10.821   2.960   4.344
26944W        W86205  26.648  15.149   2.816
26945W        W86206  38.042  18.187   4.114
26946W        W86207   7.316  30.501   4.706
26947W        W86208  43.829  21.554  13.306
26948W        W86209  20.528  15.099   2.371
26949W        W86210  34.436   2.245   2.852
26950W        W86211   5.288  40.493  13.819
26951W        W86212   9.341  42.815   9.992
26952W        W86213  35.530   9.751  12.977
26953W        W86214  34.959  10.745   0.828
26954W        W86215  19.275  40.396  12.032
26955W        W86216   4.346  40.026  14.020
26956W        W86217  32.048  20.148  11.999
26957W        W86218   2.805   6.334   1.821
26958W        W86219  37.965  25.572  12.910
26959W        W86220  21.025  34.107  12.856
26960W        W86221  40.322  29.159  13.378
26961W        W86222  23.568  40.420  11.992
26962W        W86223  14.719  13.261   3.255
26963W        W86224  37.895  19.676  10.423
26964W        W86225  27.948  20.204   0.297
26965W        W86226  34.982  16.676   4.315
26966W        W86227  11.661  17.119  14.985
26967W        W86228   6.727  13.300   2.220
26968W        W86229  21.034  15.710   1.228
26969W        W86230   4.303  14.823  11.971
26970W        W86231  38.361   0.313   0.369
26971W        W86232  19.173   1.375  11.602
26972W        W86233  11.173  38.548   3.867
26973W        W86234  20.666   2.367   1.915
26974W        W86235   5.695  14.195   4.684
26975W        W86236  16.798  37.471  10.434
26976W        W86237  42.843  28.084  12.551
26977W        W86238  37.505  29.608   1.377
26978W        W86239  29.971  18.080  12.348
26979W        W86240  44.956  29.638  13.869
26980W        W86241  11.207  42.387   0.893
26981W        W86242  24.581  14.317  14.967
26982W        W86243  33.919   6.684   5.289
26983W        W86244   4.857  21.024   0.364
26984W        W86245  11.200   2.384  11.430
26985W        W86246  24.098  24.110  14.489
26986W        W86247  39.407  19.255   3.316
26987W        W86248  28.117  13.634   2.288
26988W        W86249   4.749  42.995   0.924
26989W        W86250   3.930  40.533   3.180
26990W        W86251  30.490   4.306   3.320
26991W        W86252   5.407   7.746  13.499
26992W        W86253  15.262  36.914   2.813
26993W        W86254  33.482   2.275  13.503
26994W        W86255   7.276  44.288   9.934
26995W        W86256  35.397  21.066  10.491
26996W        W86257  39.016  12.830  12.836
26997W        W86258  41.921  31.432  12.445
26998W        W86259  28.500  23.057  13.912
26999W        W86260  42.365  28.445  10.930
27000W        W86261   0.467  23.087   2.702
27001W        W86262  28.614  23.143   0.326
27002W        W86263  38.379   6.726   0.279
27003W        W86264  16.708   1.247  12.524
27004W        W86265  42.901  37.422  14.285
27005W        W86266  20.233  38.421   1.449
27006W        W86267  37.367  14.725   0.384
27007W        W86268   4.223  38.923  10.467
27008W        W86269  32.631  42.781  10.598
27009W        W86270  14.678  33.454  14.998
27010W        W86271  32.982  32.464   3.261
27011W        W86272   8.185  29.574  12.030
27012W        W86273  44.348   6.322  12.028
27013W        W86274  37.944   0.331  14.851
27014W        W86275  29.555  43.349   0.382
27015W        W86276   5.344  20.748  11.117
27016W        W86277  12.628  42.994   2.356
27017W        W86278  28.106  12.269   1.300
27018W        W86279   7.691  15.170   1.745
27019W        W86280   2.910  14.194   3.276
27020W        W86281  20.066   1.324  13.433
27021W        W86282   4.220  31.002   2.178
27022W        W86283  27.042  16.247  13.005
27023W        W86284  21.067  24.481  11.558
27024W        W86285  31.549  16.605  14.767
27025W        W86286  37.422  38.834   5.168
27026W        W86287  29.546  18.674  14.328
27027W        W86288   4.745  15.594  12.496
27028W        W86289  20.764  23.502  10.471
27029W        W86290  22.724  43.369  13.533
27030W        W86291  23.117   9.381   2.675
27031W        W86292   2.336   5.270   4.818
27032W        W86293  41.477  34.083   4.265
27033W        W86294  24.685  25.046   4.251
27034W        W86295  25.053   0.295  14.298
27035W        W86296  20.561  40.946  11.092
27036W        W86297  25.661  16.237   2.862
27037W        W86298  37.853   6.813  12.346
27038W        W86299  38.517  17.117   2.338
27039W        W86300   4.727  36.566  14.009
27040W        W86301   7.795   3.250   0.320
27041W        W86302  27.135   4.346  14.326
27042W        W86303  33.399  29.505  11.048
27043W        W86304  26.049  11.747   1.917
27044W        W86305   5.283   2.896  11.506
27045W        W86306  10.239  43.921   4.627
27046W        W86307  32.124   8.787   5.114
27047W        W86308   5.784  21.513  11.415
27048W        W86309  36.393  30.600  11.985
27049W        W86310  40.371  16.704  13.496
27050W        W86311  43.507   3.762   3.755
27051W        W86312  19.211  30.075   0.285
27052W        W86313  20.753  41.451  10.610
27053W        W86314   6.875  11.367  13.867
27054W        W86315   9.757  26.083   3.160
27055W        W86316  25.098   7.196   3.348
27056W        W86317  35.539  39.379  12.908
27057W        W86318  43.018  14.821  10.483
27058W        W86319   6.917   7.832   1.340
27059W        W86320  35.475  33.407   1.433
27060W        W86321  15.201  10.238  11.115
27061W        W86322  35.588  20.109   1.290
27062W        W86323   0.931  28.950  11.959
27063W        W86324  23.638  24.679  14.915
27064W        W86325  23.988  42.012   4.797
27065W        W86326  19.541  33.456   3.801
27066W        W86327  13.326  18.764  11.924
27067W        W86328  11.845  30.471   3.242
27068W        W86329  41.042  38.343   0.881
27069W        W86330  41.350  21.717   2.774
27070W        W86331   1.461   8.766   4.131
27071W        W86332  39.534  36.002  11.916
27072W        W86333  42.927  14.170   4.202
27073W        W86334  39.499   0.460   0.454
27074W        W86335  41.381  26.690   5.602
27075W        W86336  16.144  30.008   0.464
27076W        W86337  27.659  30.643  13.025
27077W        W86338  44.360  35.053   3.663
27078W        W86339  15.288   2.408  10.629
27079W        W86340  10.155  26.474   0.439
27080W        W86341  36.860  31.091  11.998
27081W        W86342  42.807   7.387  13.941
27082W        W86343  18.753  37.435  14.316
27083W        W86344  14.144  37.923  14.031
27084W        W86345  40.852   0.819  10.638
27085W        W86346  19.538  27.590   1.888
27086W        W86347  17.084  31.930  10.944
27087W        W86348  35.561   5.753  12.974
27088W        W86349  42.439  23.565   3.180
27089W        W86350   0.819  25.186   4.730
27090W        W86351  23.197  39.478  11.539
27091W        W86352  36.534  37.919   1.220
27092W        W86353  29.937  31.514  13.445
27093W        W86354  11.227  27.103   1.934
27094W        W86355  30.997  34.468  13.514
27095W        W86356  14.780  18.183   3.381
27096W        W86357  22.532  33.884   2.873
27097W        W86358  20.638  30.917  11.960
27098W        W86359  16.081  39.062   1.792
27099W        W86360  15.702  23.527   1.408
27100W        W86361  32.916  35.088  12.451
27101W        W86362  34.373   1.287  14.951
27102W        W86363  13.227  27.045   4.192
27103W        W86364  10.725  28.994   1.417
27104W        W86365  33.589  42.516  11.402
27105W        W86366  17.581   3.218  13.347
27106W        W86367  40.002  26.111  12.477
27107W        W86368  15.131   9.662   4.172
27108W        W86369  22.679  31.475  12.014
27109W        W86370   0.876   9.205  12.062
27110W        W86371  39.457   4.860   9.998
27111W        W86372  10.858  38.870  14.501
27112W        W86373   0.863  16.757   4.824
27113W        W86374  20.163  41.964  10.927
27114W        W86375  31.634  40.516  10.995
27115W        W86376  41.875  44.940   2.194
27116W        W86377  28.495  30.445   3.680
27117W        W86378  27.008  27.058   2.850
27118W        W86379  14.682  28.034  10.950
27119W        W86380  30.495  42.468   4.173
27120W        W86381  30.603   3.334   2.707
27121W        W86382  11.345   8.317  13.793
27122W        W86383  25.494  23.177  11.514
27123W        W86384   8.888  12.136   2.315
27124W        W86385  40.358   2.934  14.758
27125W        W86386   3.264  37.471   4.741
27126W        W86387  18.141  37.926   1.318
27127W        W86388  44.380  39.819  11.946
27128W        W86389  32.422  39.393  10.612
27129W        W86390  10.836  17.730  11.032
27130W        W86391  15.302  20.084   2.797
27131W        W86392  44.436  37.410  11.566
27132W        W86393  41.424  30.106   2.675
27133W        W86394  19.247   6.677   4.673
27134W        W86395  42.476  14.633  11.508
27135W        W86396  28.598  11.284  13.950
27136W        W86397   3.238   8.760  10.002
27137W        W86398  23.076  23.114  14.957
27138W        W86399  38.896  11.136  13.345
27139W        W86400  30.052  29.452   2.178
27140W        W86401  33.553  32.910  10.438
27141W        W86402  38.829  22.509   3.793
27142W        W86403  34.978   3.949   1.416
27143W        W86404  34.116  42.337   3.217
27144W        W86405   4.387  20.032   2.753
27145W        W86406  41.424  42.794  12.062
27146W        W86407  33.012  32.567  13.360
27147W        W86408   1.392  15.105  10.464
27148W        W86409  15.119   6.903   4.734
27149W        W86410  18.692  30.434  10.097
27150W        W86411   9.842  38.431  11.426
27151W        W86412   5.872   5.393   0.750
27152W        W86413  22.171   9.843   0.413
27153W        W86414  29.668   8.242  12.911
27154W        W86415  35.945   9.358   5.761
27155W        W86416  28.434  34.046   3.187
27156W        W86417   2.905  18.641   1.725
27157W        W86418  34.008  30.649  12.874
27158W        W86419  26.473   7.203  12.410
27159W        W86420  34.378   3.780   0.418
27160W        W86421  38.874   7.781   2.788
27161W        W86422  16.581  30.493  13.842
27162W        W86423   2.785   4.273   2.852
27163W        W86424   3.766   2.778   2.384
27164W        W86425   2.425   0.289   3.201
27165W        W86426  14.325  44.422  10.910
27166W        W86427  32.582  26.506  11.566
27167W        W86428  26.200  25.630   2.222
27168W        W86429  21.658   5.374  11.438
27169W        W86430  17.101  33.608  14.304
27170W        W86431  30.640   1.450  13.356
27171W        W86432  15.604  42.304  12.835
27172W        W86433  36.535   1.317  12.540
27173W        W86434  36.049   4.735  11.408
27174W        W86435  13.320  28.019   4.778
27175W        W86436  10.167  25.629  11.930
27176W        W86437   2.404   1.340  13.434
27177W        W86438   6.736   5.736   1.821
27178W        W86439  33.410  12.358   4.129
27179W        W86440  18.638  21.163  14.459
27180W        W86441  10.743  27.496   2.827
27181W        W86442  44.490  43.887   0.767
27182W        W86443  36.084  21.662  12.443
27183W        W86444   5.293  18.599   2.703
27184W        W86445  30.426  22.534   1.270
27185W        W86446   6.246  31.976   2.347
27186W        W86447  30.011  20.058   3.744
27187W        W86448  37.555  44.480   2.329
27188W        W86449  25.097  22.643   3.710
27189W        W86450   1.842  22.552   3.747
27190W        W86451  10.664  10.143   2.807
27191W        W86452  33.913   6.803  13.434
27192W        W86453  23.606  19.586   1.322
27193W        W86454  32.094  13.715  14.767
27194W        W86455  25.200  40.316  11.014
27195W        W86456  25.551  37.350  12.924
27196W        W86457  18.131  19.721   0.845
27197W        W86458   1.429  40.889   3.643
27198W        W86459   6.378  18.274  12.858
27199W        W86460  12.227  17.072   2.846
27200W        W86461  28.989   5.389  10.007
27201W        W86462  11.865  30.549  11.588
27202W        W86463  14.153  10.167  12.005
27203W        W86464  19.544  25.091   4.638
27204W        W86465  18.263  23.113   2.739
27205W        W86466  16.294  19.112   5.158
27206W        W86467  40.024  39.895   4.218
27207W        W86468   6.239  25.545  10.949
27208W        W86469   0.356  10.871  10.614
27209W        W86470   1.804   2.745   1.712
27210W        W86471   5.315  13.257  11.914
27211W        W86472  33.903   0.436  13.883
27212W        W86473   1.299  41.321  13.320
27213W        W86474   1.790  11.827  11.438
27214W        W86475   3.255  44.966   0.350
27215W        W86476  41.921   2.775   4.684
27216W        W86477  40.463  34.039   1.716
27217W        W86478  27.074   4.351   0.892
27218W        W86479  27.087   8.890   3.780
27219W        W86480   6.332  12.124   3.195
27220W        W86481  29.098  20.669   4.133
27221W        W86482  19.736  22.026   4.604
27222W        W86483   8.175  22.220  11.376
27223W        W86484  36.551  26.080  14.367
27224W        W86485  28.998  22.097  11.442
27225W        W86486  18.118  23.158  12.065
27226W        W86487  40.960  34.581  14.962
27227W        W86488  36.945  41.871  11.516
27228W        W86489  36.012  30.415  13.852
27229W        W86490   5.752  11.735   4.144
27230W        W86491  36.367  30.955   0.756
27231W        W86492  33.920  27.973   4.182
27232W        W86493  25.558  23.117   1.248
27233W        W86494  41.400  30.081  14.808
27234W        W86495  25.713  11.724   9.985
27235W        W86496  39.028  33.056   0.405
27236W        W86497   6.317   1.796   2.814
27237W        W86498   5.910  14.588   3.811
27238W        W86499   2.421  35.959   5.288
27239W        W86500  13.780  10.223   2.711
27240W        W86501  27.568  29.621  10.095
27241W        W86502   1.445   8.838   4.680
27242W        W86503  44.463  26.637   4.788
27243W        W86504  26.190  10.301   4.803
27244W        W86505   3.444  12.804  10.547
27245W        W86506  12.344   5.246  12.521
27246W        W86507  39.371  10.693   4.349
27247W        W86508  12.813  39.380  14.415
27248W        W86509   5.401  42.999   0.449
27249W        W86510   6.873  16.760  12.365
27250W        W86511  20.746  38.922  11.390
27251W        W86512  15.650  11.156  13.813
27252W        W86513   9.357  18.242  11.572
27253W        W86514   3.455   3.311   4.208
27254W        W86515  14.245  15.702  13.978
27255W        W86516   4.888  24.186   4.290
27256W        W86517  39.318  16.243  13.944
27257W        W86518   1.888  20.115  11.435
27258W        W86519  30.101  22.193   2.337
27259W        W86520  38.482  14.705   1.928
27260W        W86521  29.508  27.649  11.925
27261W        W86522  36.573  23.055  10.598
27262W        W86523  21.715  23.613  10.538
27263W        W86524   0.403  19.631   4.641
27264W        W86525  15.653  32.442   4.130
27265W        W86526   6.240  17.562   0.945
27266W        W86527  10.682  35.429  14.352
27267W        W86528  42.005   4.326  11.883
27268W        W86529  34.075  25.007   0.455
27269W        W86530  24.522  13.248   0.760
27270W        W86531  28.055  39.538   0.253
27271W        W86532  38.552  12.252   2.817
27272W        W86533   7.911  42.794  10.134
27273W        W86534  35.516  22.069   3.784
27274W        W86535  24.159  21.632  13.524
27275W        W86536  35.045  14.135  11.077
27276W        W86537  42.909   6.225   1.906
27277W        W86538   3.339  42.797  10.112
27278W        W86539   0.348  13.117  12.009
27279W        W86540  25.562   6.289   5.243
27280W        W86541  11.262  18.162   2.744
27281W        W86542  25.569   5.276  12.093
27282W        W86543  14.755  16.073   2.758
27283W        W86544  29.038  23.141   3.364
27284W        W86545   6.343  43.372  11.570
27285W        W86546  40.012  22.105  11.006
27286W        W86547   6.300  18.183   1.760
27287W        W86548   4.712  43.458  10.618
27288W        W86549  13.261  24.518   4.260
27289W        W86550  17.635   3.855  11.098
27290W        W86551  30.021  41.393   0.793
27291W        W86552  37.578  35.865  12.997
27292W        W86553   6.240   5.301  11.971
27293W        W86554  38.532  41.815   1.841
27294W        W86555  42.812  29.564  14.879
27295W        W86556  25.575  12.213  12.422
27296W        W86557  14.242  19.614  13.002
27297W        W86558   3.827  19.155   0.777
27298W        W86559  16.633   5.431   3.159
27299W        W86560  36.045  18.146  11.411
27300W        W86561   1.306  31.455   3.752
27301W        W86562  32.036  23.587   1.821
27302W        W86563  17.561   9.217   3.817
27303W        W86564  20.188   0.469  13.938
27304W        W86565   4.219  32.945  12.480
27305W        W86566  27.073  21.696   2.797
27306W        W86567  44.755  15.579   3.272
27307W        W86568  32.419  25.996   2.326
27308W        W86569  26.124   0.862  14.450
27309W        W86570  30.046  38.985  13.850
27310W        W86571   0.965  31.038   1.216
27311W        W86572  36.022  21.161  11.939
27312W        W86573  33.522   4.426   0.876
27313W        W86574   6.403  13.601  13.996
27314W        W86575  33.016  44.498   3.644
27315W        W86576  36.401  30.097   4.126
27316W        W86577  24.071  31.898  13.392
27317W        W86578  24.542  37.990   1.706
27318W        W86579  28.085  40.518  10.138
27319W        W86580  27.975  20.120  14.897
27320W        W86581  43.377  41.786  12.924
27321W        W86582  34.376   5.855   3.746
27322W        W86583   0.316  32.069   1.764
27323W        W86584  11.790   7.207   1.252
27324W        W86585  31.464  37.862   2.418
27325W        W86586   4.246  29.001   0.258
27326W        W86587  13.728  28.512   0.363
27327W        W86588  19.219  35.077   0.364
27328W        W86589  22.160  21.603   0.296
27329W        W86590  24.186  22.084   1.407
27330W        W86591  26.487  17.653   0.422
27331W        W86592  25.529   9.214  14.363
27332W        W86593  11.769   4.796  13.880
27333W        W86594   5.835   8.671   0.244
27334W        W86595  43.779  43.895  12.360
27335W        W86596   6.868  21.241  11.999
27336W        W86597   6.226   9.244   2.820
27337W        W86598   9.810  26.508  11.935
27338W        W86599  10.354  25.198  13.949
27339W        W86600  37.958  10.183  12.497
27340W        W86601  14.244  22.502   0.419
27341W        W86602  29.513  33.608  12.863
27342W        W86603  28.024  41.326  12.087
27343W        W86604  35.976  15.208   1.284
27344W        W86605  33.038  20.267   4.640
27345W        W86606  35.008  30.089   2.324
27346W        W86607  32.599  41.511  14.951
27347W        W86608  35.061  11.684   0.792
27348W        W86609  26.474   1.963  14.352
27349W        W86610  37.983  44.399   1.311
27350W        W86611  30.063  42.778   3.634
27351W        W86612  41.935  11.642  10.562
27352W        W86613   4.852  10.633  14.931
27353W        W86614  24.133  37.521  14.862
27354W        W86615  17.646   2.787  12.472
27355W        W86616  15.758  31.504  12.504
27356W        W86617  33.524  38.830  14.926
27357W        W86618  19.655  42.463   0.432
27358W        W86619  12.212  30.116   3.216
27359W        W86620   2.410   8.720   4.785
27360W        W86621  38.484   3.721  12.458
27361W        W86622  43.867  33.561  11.517
27362W        W86623  24.140  22.712  14.979
27363W        W86624  36.569  24.671   4.263
27364W        W86625   1.258  41.500  11.553
27365W        W86626  44.001  11.209  13.984
27366W        W86627  43.993  44.936  14.916
27367W        W86628  26.208   1.238  12.365
27368W        W86629   9.190   6.345  14.366
27369W        W86630  21.149   3.832  11.057
27370W        W86631  24.641   1.392  13.505
27371W        W86632  36.580   6.885   1.360
27372W        W86633  44.338  32.012  13.922
27373W        W86634  25.621  15.634   0.481
27374W        W86635   4.356  31.597  11.407
27375W        W86636  36.537  18.229  10.639
27376W        W86637   5.426   3.321   2.664
27377W        W86638  26.607  29.170   5.723
27378W        W86639  38.830   0.959   4.762
27379W        W86640  29.978   3.384   2.321
27380W        W86641  43.423  39.043  12.087
27381W        W86642  14.181  40.371  13.486
27382W        W86643  43.318  19.588  13.857
27383W        W86644  26.144   3.791   0.281
27384W        W86645   9.806  43.957   1.326
27385W        W86646  28.010   3.300   2.859
27386W        W86647  22.235  28.478   2.730
27387W        W86648  32.520  41.302   0.439
27388W        W86649   1.416  32.983  13.899
27389W        W86650  18.275  13.744   4.140
27390W        W86651  24.511  41.988   3.295
27391W        W86652  12.816  27.682   2.790
27392W        W86653  41.950   8.283   0.837
27393W        W86654   6.292  18.078  11.477
27394W        W86655   4.775   8.355   1.792
27395W        W86656  32.971  39.018  13.876
27396W        W86657  26.067  43.836   0.911
27397W        W86658  42.789  25.969   5.112
27398W        W86659  39.524   5.310  10.977
27399W        W86660  24.541  15.084   4.737
27400W        W86661  14.681   5.357  14.020
27401W        W86662  11.798  29.159   2.332
27402W        W86663  35.493   3.352   3.199
27403W        W86664  27.486  13.323   3.381
27404W        W86665  18.110  37.502   1.861
27405W        W86666  18.623  32.423  14.407
27406W        W86667  24.979  17.269  13.830
27407W        W86668  14.656   4.820  13.919
27408W        W86669  26.055  26.506   1.784
27409W        W86670  30.946  37.846   0.328
27410W        W86671  39.443   4.708   2.345
27411W        W86672  41.380   4.825  14.992
27412W        W86673  43.335  36.381  13.922
27413W        W86674  24.009  34.995   0.752
27414W        W86675   5.776  38.011   1.315
27415W        W86676  32.497   1.335  14.392
27416W        W86677  34.473  40.001  14.991
27417W        W86678  41.510  21.579  10.531
27418W        W86679  13.786  33.517  14.784
27419W        W86680  39.005  10.663   1.868
27420W        W86681  26.557  43.478  13.473
27421W        W86682  40.802  25.704   2.305
27422W        W86683  39.954  43.814  11.565
27423W        W86684  16.222   2.728  14.497
27424W        W86685  30.995  25.162  12.905
27425W        W86686   2.915   8.805   3.261
27426W        W86687  31.088  21.245  13.812
27427W        W86688  28.077  29.585   2.852
27428W        W86689  23.654  24.177  11.911
27429W        W86690  35.913   4.797   2.888
27430W        W86691   4.223  13.792  11.046
27431W        W86692  41.401   5.813  11.930
27432W        W86693  19.587  34.915   0.813
27433W        W86694  35.954  17.150   3.325
27434W        W86695  39.838  21.171  11.504
27435W        W86696  43.864  31.556  12.544
27436W        W86697  40.440  19.058   2.288
27437W        W86698   6.897  22.562   2.321
27438W        W86699  28.079  13.290  13.957
27439W        W86700  42.824   4.715  13.053
27440W        W86701  19.560  15.661   2.847
27441W        W86702   7.341   7.739  14.024
27442W        W86703   7.373   3.781  13.528
27443W        W86704  18.747  26.202   2.306
27444W        W86705  23.098  10.198  10.917
27445W        W86706   5.899  30.008   4.684
27446W        W86707   3.392   0.285   2.289
27447W        W86708  16.119  37.844  10.445
27448W        W86709  23.612   1.360   9.976
27449W        W86710  37.441  37.880   3.754
27450W        W86711  40.478   0.906   1.394
27451W        W86712   7.263  41.475   2.753
27452W        W86713  28.560  24.101  11.018
27453W        W86714  20.076  37.574   3.335
27454W        W86715  30.591  23.031   0.305
27455W        W86716  29.943  22.684   1.400
27456W        W86717   8.819   4.308   2.763
27457W        W86718  23.033  36.899   2.759
27458W        W86719  35.029   9.659  14.933
27459W        W86720  18.747  37.905  10.957
27460W        W86721   3.777   4.724  11.600
27461W        W86722  21.024  16.205   0.403
27462W        W86723  21.073   9.734  11.107
27463W        W86724   1.899  22.119   3.794
27464W        W86725  21.242  26.127   9.988
27465W        W86726  18.670  14.222  14.855
27466W        W86727  39.013  10.849   4.154
27467W        W86728  14.644   6.703  11.003
27468W        W86729  38.398  33.550  12.027
27469W        W86730  26.489  36.354  12.563
27470W        W86731   0.484  40.460   0.939
27471W        W86732   2.401   1.884  14.868
27472W        W86733  20.580  29.458   4.671
27473W        W86734  12.653  12.236   3.666
27474W        W86735  18.782  44.790  14.332
27475W        W86736  33.562  28.073  13.404
27476W        W86737  37.028   3.220  14.445
27477W        W86738  12.355  21.074   0.938
27478W        W86739  38.479  28.122   2.838
27479W        W86740  20.062  41.877  12.069
27480W        W86741   3.729   9.686  10.585
27481W        W86742  38.067  24.168   3.339
27482W        W86743  11.257   6.856   5.256
27483W        W86744  37.495  20.054   1.712
27484W        W86745  20.744  18.183  10.547
27485W        W86746  19.144  13.289   3.841
27486W        W86747  34.560  42.945   5.088
27487W        W86748  17.277  39.003   4.344
27488W        W86749  30.927  17.077   3.672
27489W        W86750  10.213  16.305  11.022
27490W        W86751   1.900  22.208  13.464
27491W        W86752  36.361  34.550   1.837
27492W        W86753  31.610  26.027   3.829
27493W        W86754  24.556  35.963  12.890
27494W        W86755   7.876  11.633  12.509
27495W        W86756  40.369   8.800  14.378
27496W        W86757  28.124  24.485  13.988
27497W        W86758  33.524  21.578  13.885
27498W        W86759  22.605  33.482   0.822
27499W        W86760  27.011  19.609  10.611
27500W        W86761  34.983  28.145   1.405
27501W        W86762  12.252  39.854  12.891
27502W        W86763  21.512   6.417  13.326
27503W        W86764   3.921  28.450   1.389
27504W        W86765  18.175  41.815  11.540
27505W        W86766  20.623  16.242   0.966
27506W        W86767   4.717  43.943   3.306
27507W        W86768  11.623   0.878  11.394
27508W        W86769  39.370  10.249  14.012
27509W        W86770  37.992  20.246   2.668
27510W        W86771  12.157  29.083   4.120
27511W        W86772  20.600  42.775   0.423
27512W        W86773  25.532  24.170   1.254
27513W        W86774  37.498  43.343   2.728
27514W        W86775  23.182   7.179  11.035
27515W        W86776   5.814   8.171   1.779
27516W        W86777  11.192  22.654   2.203
27517W        W86778   3.363  17.568  10.926
27518W        W86779  37.358  18.592   2.864
27519W        W86780  43.936  21.240   4.342
27520W        W86781  17.204   1.793   2.355
27521W        W86782  17.219   6.285   3.824
27522W        W86783  24.669  27.166  12.456
27523W        W86784  37.412  38.955  11.465
27524W        W86785  39.490  19.151  12.996
27525W        W86786  40.835  42.397  12.538
27526W        W86787  17.700  24.160   4.195
27527W        W86788  33.120  27.163  11.947
27528W        W86789  34.991  29.939   1.748
27529W        W86790  22.703  32.043   0.462
27530W        W86791   6.915  13.216   0.742
27531W        W86792  36.415  29.574   1.723
27532W        W86793   2.453  19.752  11.033
27533W        W86794  20.065   0.986  13.920
27534W        W86795  35.867   2.268   0.774
27535W        W86796  36.865  21.068  11.384
27536W        W86797  11.140  14.165  12.952
27537W        W86798  43.909  15.712  13.308
27538W        W86799  24.049  12.347   3.760
27539W        W86800  14.163  38.857   2.372
27540W        W86801  26.591   3.911  13.431
27541W        W86802  17.738  31.420   3.324
27542W        W86803  21.112  14.621   1.752
27543W        W86804  35.462  38.825   4.790
27544W        W86805   9.732  15.699   2.729
27545W        W86806  16.296  44.336   1.414
27546W        W86807  35.900  24.058   4.156
27547W        W86808  29.075  24.511  13.530
27548W        W86809  41.995  28.447   4.679
27549W        W86810  24.219  15.702   4.260
27550W        W86811  34.471  35.982  14.463
27551W        W86812   2.276  13.231   0.754
27552W        W86813   4.896  39.835  13.934
27553W        W86814   6.790  36.077   0.304
27554W        W86815  14.761  31.494   1.408
27555W        W86816   4.745  37.081  10.574
27556W        W86817   9.719  42.333   0.774
27557W        W86818  14.142  19.208  14.323
27558W        W86819   5.309   0.840  14.979
27559W        W86820   5.750  28.034  12.850
27560W        W86821  26.570  40.386   2.408
27561W        W86822  16.318  28.132   4.692
27562W        W86823  11.834   5.747   0.371
27563W        W86824  30.483  13.128   0.761
27564W        W86825  33.562  13.197   3.776
27565W        W86826   7.358  36.950   2.799
27566W        W86827  31.097  32.097   3.850
27567W        W86828   5.725  29.503   4.191
27568W        W86829  29.142   4.386   0.420
27569W        W86830  16.128   0.950  12.942
27570W        W86831  31.149  22.564   2.201
27571W        W86832  44.495  27.942   2.752
27572W        W86833  43.431  44.776  10.578
27573W        W86834  24.697  30.579  11.531
27574W        W86835  33.413  24.108  14.017
27575W        W86836  20.223   0.248   4.350
27576W        W86837  19.179  16.160  11.950
27577W        W86838  21.210  25.688   1.867
27578W        W86839  12.612  39.446  14.995
27579W        W86840  42.919  34.062  12.451
27580W        W86841  23.120   4.353   4.274
27581W        W86842  23.030  33.525  10.555
27582W        W86843  12.853   0.371  13.895
27583W        W86844  25.039   7.796   3.156
27584W        W86845  19.652  38.365  14.496
27585W        W86846  18.053   0.440   0.759
27586W        W86847  12.852  15.269   3.154
27587W        W86848  40.463   8.727   0.924
27588W        W86849   6.806  35.436  10.433
27589W        W86850  39.814  39.382  12.386
27590W        W86851  22.175  26.999   3.243
27591W        W86852  39.325  27.032  12.435
27592W        W86853  30.468  34.501  12.503
27593W        W86854  14.193  16.787  12.047
27594W        W86855  11.837  13.204  11.982
27595W        W86856   4.884  10.735  12.989
27596W        W86857  43.779  29.167  13.935
27597W        W86858  34.009  26.104  11.609
27598W        W86859  16.134  17.182  10.991
27599W        W86860  11.676  27.569   4.798
27600W        W86861  44.477  25.194   2.368
27601W        W86862  23.188  36.050   1.699
27602W        W86863  25.121   1.238   2.766
27603W        W86864  19.574   3.765  14.506
27604W        W86865   9.381  11.795  10.136
27605W        W86866  39.949  37.550   2.742
27606W        W86867  19.177  20.587  13.955
27607W        W86868  34.555   6.265   4.216
27608W        W86869   7.761  10.723   4.781
27609W        W86870  21.128  25.554   4.160
27610W        W86871  22.179  43.345   4.676
27611W        W86872  28.944  21.246  12.974
27612W        W86873  19.707  13.219  12.999
27613W        W86874  16.785  29.452   2.713
27614W        W86875  38.967  19.682  14.366
27615W        W86876  24.129  27.448  11.495
27616W        W86877   8.361  15.765   3.291
27617W        W86878  19.628  13.766   3.170
27618W        W86879   9.681  31.443   1.736
27619W        W86880  27.165  20.524  12.443
27620W        W86881   6.768  43.952  12.419
27621W        W86882  15.328  14.288  10.628
27622W        W86883   2.339  30.568  11.090
27623W        W86884  10.797  32.010   4.635
27624W        W86885   9.764  18.609  11.122
27625W        W86886  15.267  12.129  10.903
27626W        W86887  23.128   4.414  11.037
27627W        W86888   2.456  14.159   4.737
27628W        W86889  30.555  18.569  13.408
27629W        W86890  40.952  37.839   4.767
27630W        W86891   2.786   9.851   1.239
27631W        W86892  20.086  17.591   4.610
27632W        W86893  30.124  41.522   2.183
27633W        W86894  13.647  27.459   1.372
27634W        W86895  34.519  11.304  14.835
27635W        W86896  40.812  30.151   5.680
27636W        W86897   0.326   6.321  11.486
27637W        W86898   9.686  33.989  12.949
27638W        W86899  15.684  34.032   0.838
27639W        W86900  36.031  22.177  14.499
27640W        W86901  15.625  15.823  12.068
27641W        W86902  41.857  23.074   4.272
27642W        W86903  13.822  34.090   3.672
27643W        W86904  14.100  43.802   1.262
27644W        W86905  26.604  19.714  12.949
27645W        W86906   1.911  26.632  10.571
27646W        W86907  32.003   4.308   4.249
27647W        W86908   4.832   3.345   1.824
27648W        W86909   6.391  32.566   0.392
27649W        W86910   3.382   3.882   2.333
27650W        W86911  22.703   1.300   3.858
27651W        W86912  39.400  13.120  11.984
27652W        W86913   1.735  20.186  13.355
27653W        W86914  23.692  18.175  11.385
27654W        W86915  24.615   5.710  11.396
27655W        W86916  27.639  21.163   2.341
27656W        W86917  34.935  31.967  10.571
27657W        W86918  28.944  26.547   1.917
27658W        W86919  15.822   4.804  13.489
27659W        W86920  28.510   1.331   5.800
27660W        W86921  22.555  31.450   3.210
27661W        W86922   6.358   5.196   1.311
27662W        W86923  31.948  27.061  13.526
27663W        W86924  24.181  35.509  11.053
27664W        W86925  19.265  19.255   1.701
27665W        W86926  20.611  18.731   2.767
27666W        W86927  41.407  28.929   3.661
27667W        W86928  29.662   2.364   5.190
27668W        W86929  17.777  16.189   2.200
27669W        W86930  40.360  27.508   1.298
27670W        W86931  41.292  38.426   3.206
27671W        W86932  31.126  31.023   2.894
27672W        W86933  12.121   0.491  13.450
27673W        W86934  20.150   4.764  12.372
27674W        W86935  31.640  23.071   3.714
27675W        W86936  24.091  11.211   4.648
27676W        W86937  26.540  20.104   1.781
27677W        W86938  43.858  24.566  11.118
27678W        W86939  30.077  33.398   1.834
27679W        W86940  31.464   3.231   0.778
27680W        W86941  38.534  13.284   1.258
27681W        W86942   3.928  15.647  10.102
27682W        W86943  10.181   1.319  14.969
27683W        W86944  40.957  22.207   5.200
27684W        W86945  29.663  21.075  10.581
27685W        W86946  17.069  14.787   4.619
27686W        W86947  40.050  19.207   2.272
27687W        W86948   4.301  20.215   1.217
27688W        W86949  28.071  42.352  14.032
27689W        W86950  38.500   1.360  13.036
27690W        W86951   4.709  30.550  11.592
27691W        W86952  42.015   5.253  12.463
27692W        W86953  16.218  29.963   3.726
27693W        W86954  44.833  23.104  14.498
27694W        W86955  39.406  36.508   0.386
27695W        W86956  42.462  23.209  12.948
27696W        W86957  39.363  36.391  14.370
27697W        W86958  14.201  42.935  13.483
27698W        W86959  14.195  29.564  11.917
27699W        W86960  43.449   7.908   1.861
27700W        W86961  29.632  23.533   0.323
27701W        W86962  39.877  31.087   1.363
27702W        W86963  31.982  16.204  12.015
27703W        W86964  32.936  15.171  12.466
27704W        W86965   7.816   5.779   2.830
27705W        W86966  43.908  41.501   4.756
27706W        W86967  35.429  40.813   2.359
27707W        W86968   1.741  30.574   0.726
27708W        W86969  23.705  32.489   4.186
27709W        W86970  31.953  25.177  10.409
27710W        W86971  34.083   2.336   4.692
27711W        W86972   5.859   8.364   0.855
27712W        W86973   4.778  21.584  13.027
27713W        W86974   1.303  32.009  11.930
27714W        W86975  41.415  10.336   9.955
27715W        W86976  28.082  13.736  13.022
27716W        W86977  29.661   5.279  11.465
27717W        W86978  42.782  33.438  12.571
27718W        W86979   5.739  13.732  14.437
27719W        W86980  31.916  26.956   4.661
27720W        W86981  32.938  21.740   3.864
27721W        W86982   0.251  31.473   0.859
27722W        W86983  35.594  42.880  13.369
27723W        W86984  21.657  11.189  12.013
27724W        W86985  40.040   7.740  10.904
27725W        W86986   4.270  27.631  11.895
27726W        W86987  21.551  21.065  13.978
27727W        W86988  35.987  42.461  12.919
27728W        W86989   9.825  11.137   3.340
27729W        W86990  26.046  37.844  11.869
27730W        W86991  43.004  30.139  13.927
27731W        W86992  41.003  24.544   5.310
27732W        W86993  39.816  27.688   3.824
27733W        W86994  37.399  20.666  13.541
27734W        W86995  25.160  14.804   1.796
27735W        W86996  24.060   5.850   3.800
27736W        W86997  38.384  16.737  13.527
27737W        W86998  10.780  29.554   0.836
27738W        W86999  28.574  14.096  14.831
27739W        W87000  20.738  10.264  12.559
27740W        W87001  24.085  14.117   1.406
27741W        W87002  18.182  12.205   2.663
27742W        W87003  21.222  20.153  14.966
27743W        W87004  39.960  40.463   1.315
27744W        W87005  18.210  37.867   0.781
27745W        W87006  21.532   2.871   1.814
27746W        W87007  40.514  31.629  12.893
27747W        W87008   8.395  12.215  13.411
27748W        W87009  26.534   5.715   2.750
27749W        W87010  20.209  37.352   2.743
27750W        W87011  14.615   6.396   0.351
27751W        W87012  18.201  11.142  14.026
27752W        W87013  11.363  30.931  12.348
27753W        W87014  26.110   5.783   0.734
27754W        W87015  18.777   6.783  11.060
27755W        W87016  40.009   8.332  12.847
27756W        W87017  42.003  28.581  10.935
27757W        W87018  37.985  19.685  13.471
27758W        W87019  16.116  10.298  10.471
27759W        W87020  26.480  34.451  11.479
27760W        W87021   8.387   3.718   4.658
27761W        W87022  10.220  16.284   2.345
27762W        W87023  31.417  20.580  13.420
27763W        W87024   6.682  16.211   3.281
27764W        W87025  29.612  25.090  14.774
27765W        W87026  28.059  41.851   4.657
27766W        W87027  23.124  44.324   9.932
27767W        W87028  26.604  36.552   1.779
27768W        W87029  36.948  37.504  13.856
27769W        W87030  28.437  27.676  10.406
27770W        W87031  35.093  30.582   9.949
27771W        W87032  27.068  43.845   1.291
27772W        W87033  36.460  20.631  11.096
27773W        W87034  44.001   6.812  13.394
27774W        W87035  32.478  44.834   1.240
27775W        W87036  10.197  23.107  13.000
27776W        W87037  40.504  31.104  11.515
27777W        W87038  42.409   7.407  13.310
27778W        W87039   7.698  35.893   0.327
27779W        W87040  38.979   0.446   2.890
27780W        W87041  23.004  24.675   2.675
27781W        W87042   5.228  13.140  12.854
27782W        W87043  28.101  15.777  13.001
27783W        W87044  36.391   4.363   1.290
27784W        W87045  41.377   6.812  12.384
27785W        W87046  12.150  18.233  13.962
27786W        W87047  26.134  10.357  12.875
27787W        W87048   0.946  39.941   4.286
27788W        W87049  12.246   8.666  12.838
27789W        W87050  26.515  23.054  10.991
27790W        W87051  40.953   1.455  13.910
27791W        W87052  29.639  41.796  11.931
27792W        W87053  12.854  43.963  13.895
27793W        W87054  22.577  20.071  13.932
27794W        W87055  35.379   3.890   2.827
27795W        W87056   2.941  40.040   0.474
27796W        W87057   4.845  30.480   1.407
27797W        W87058  18.599  44.495   2.842
27798W        W87059   1.793  19.632  13.936
27799W        W87060  34.978  33.598  14.766
27800W        W87061  34.474  36.352   0.759
27801W        W87062   8.809   2.262  13.492
27802W        W87063  35.009  44.896  11.078
27803W        W87064  32.526  31.643   1.728
27804W        W87065   2.928  11.315  10.486
27805W        W87066  28.483  12.206   4.160
27806W        W87067  41.361  19.650  14.306
27807W        W87068  14.590  34.004   4.789
27808W        W87069  30.516  15.768   1.747
27809W        W87070   5.762  28.436  13.034
27810W        W87071  40.038  37.336  11.510
27811W        W87072  21.100  11.629   2.293
27812W        W87073  35.982  36.478   2.806
27813W        W87074   1.932  15.097  11.416
27814W        W87075  25.529  33.000   1.723
27815W        W87076  32.977  39.047   3.643
27816W        W87077  44.863  39.875   4.131
27817W        W87078  22.090  38.823   2.332
27818W        W87079  27.675  39.436  12.356
27819W        W87080  32.434   7.265   0.919
27820W        W87081  26.512  24.561   4.610
27821W        W87082  21.208  11.227   4.835
27822W        W87083  19.714  15.808   4.255
27823W        W87084   0.248  16.298   4.204
27824W        W87085  10.224  26.026  11.091
27825W        W87086   6.241  33.971   1.372
27826W        W87087  21.062  26.586   4.282
27827W        W87088  28.151  39.035  13.804
27828W        W87089  30.473  23.512   3.685
27829W        W87090  42.895  21.040  13.345
27830W        W87091  34.877  43.414   3.174
27831W        W87092  27.582  11.731  11.949
27832W        W87093  21.101  22.580   5.263
27833W        W87094  23.573   7.817   3.332
27834W        W87095  21.250  10.706  10.900
27835W        W87096   3.458  20.065   5.116
27836W        W87097  32.504  12.755   0.762
27837W        W87098  43.964   8.161   1.819
27838W        W87099  39.817  42.986   2.190
27839W        W87100  15.213  15.305   0.745
27840W        W87101  11.646  39.325   0.251
27841W        W87102  29.538  13.279  12.851
27842W        W87103  14.315  31.429   4.215
27843W        W87104   7.233   4.726   3.169
27844W        W87105  34.883   5.808  11.445
27845W        W87106   3.283  17.067   4.741
27846W        W87107  40.422  36.959   4.133
27847W        W87108  13.350  37.536   0.352
27848W        W87109  13.650  28.663  14.865
27849W        W87110  19.733   6.701  12.097
27850W        W87111  24.497  44.828   0.409
27851W        W87112   3.848  17.587  14.954
27852W        W87113  40.848  35.520  12.032
27853W        W87114  29.006  23.172  13.504
27854W        W87115  29.525  23.649   2.401
27855W        W87116  38.327  19.232  14.319
27856W        W87117  20.645  28.159  12.985
27857W        W87118   2.885   5.315  13.005
27858W        W87119  21.574  27.650  13.400
27859W        W87120  17.758  27.532  13.920
27860W        W87121   1.940   6.882  12.864
27861W        W87122  26.620  28.526  10.961
27862W        W87123  13.691  43.344  11.528
27863W        W87124   0.482  39.952   2.791
27864W        W87125   7.892   2.759   2.183
27865W        W87126   1.405  41.325   4.115
27866W        W87127  13.826  24.041   0.262
27867W        W87128  41.791  18.781  13.523
27868W        W87129  32.533  11.362  13.870
27869W        W87130  23.622  21.664   3.840
27870W        W87131  22.214  12.682   0.874
27871W        W87132  27.968   7.261   4.255
27872W        W87133  14.189  23.659  10.994
27873W        W87134  33.902  37.374   4.760
27874W        W87135  31.027  21.554  13.369
27875W        W87136  43.976   2.928  11.983
27876W        W87137   9.728  25.660   2.883
27877W        W87138  36.008  27.636  13.014
27878W        W87139   7.695  32.054  12.456
27879W        W87140  25.018  19.597   2.215
27880W        W87141  32.596  30.506  12.083
27881W        W87142  18.224   7.732  13.327
27882W        W87143  10.784  27.649  12.551
27883W        W87144   4.227  39.507  14.999
27884W        W87145  29.981  15.691  10.981
27885W        W87146  17.795  16.629   2.326
27886W        W87147   9.670  25.492   0.475
27887W        W87148  22.206  18.577  13.889
27888W        W87149  28.035  25.495   4.188
27889W        W87150  43.943   2.374  13.965
27890W        W87151  42.433  28.107  11.965
27891W        W87152   2.853   5.342  14.510
27892W        W87153  16.669  36.503  13.359
27893W        W87154  10.303  28.930  12.483
27894W        W87155  39.053  23.236  14.955
27895W        W87156  40.343  21.556   0.327
27896W        W87157  40.317  28.972   0.423
27897W        W87158  36.534  32.968   3.278
27898W        W87159  24.688  16.198   2.844
27899W        W87160   7.799  17.802   4.265
27900W        W87161   7.745  32.543   1.425
27901W        W87162  41.426  19.169   1.891
27902W        W87163  43.454   4.781  13.335
27903W        W87164  35.077  14.659   0.947
27904W        W87165  32.494  42.489  13.448
27905W        W87166  27.637  33.493   0.380
27906W        W87167   3.289  22.626   2.231
27907W        W87168  27.606  36.032  10.629
27908W        W87169   7.812  39.059   3.677
27909W        W87170  20.648  12.356   4.214
27910W        W87171  40.831  11.671   4.239
27911W        W87172  41.309  44.754   1.715
27912W        W87173  20.249   3.250  14.297
27913W        W87174  22.513  43.821   0.797
27914W        W87175  12.796  37.461   3.640
27915W        W87176  17.701  27.069  12.062
27916W        W87177  28.132  19.082   2.864
27917W        W87178  26.144  33.882  11.400
27918W        W87179  31.955   6.273   4.639
27919W        W87180  44.349  44.378  12.362
27920W        W87181  26.660  30.637  14.990
27921W        W87182  32.603  31.576  14.499
27922W        W87183  22.215  29.060  13.007
27923W        W87184  10.187   2.320   3.672
27924W        W87185  28.962  18.248  14.479
27925W        W87186  31.532  43.327  13.815
27926W        W87187   1.301  44.460   1.427
27927W        W87188  42.914  19.092   5.092
27928W        W87189   9.864  39.879   3.695
27929W        W87190  26.065  21.695  12.493
27930W        W87191  34.923  21.214   2.226
27931W        W87192  10.693  16.616  12.497
27932W        W87193   7.352  12.213  12.931
27933W        W87194  28.087   4.377  12.862
27934W        W87195  26.675   6.308  12.856
27935W        W87196   1.770  27.460   0.281
27936W        W87197  37.352  21.697   0.901
27937W        W87198  31.567  26.469   3.741
27938W        W87199  44.266   0.885  11.019
27939W        W87200  33.568  24.219  13.456
27940W        W87201  41.912  28.555  14.922
27941W        W87202  25.701  28.469  13.898
27942W        W87203   2.278  29.036   3.836
27943W        W87204  30.560   1.968   2.693
27944W        W87205   6.678  11.169   2.682
27945W        W87206   5.416  18.136   3.298
27946W        W87207  22.522  43.832  11.592
27947W        W87208  44.303  24.636  13.379
27948W        W87209   0.257  43.791   3.153
27949W        W87210  10.733  20.713  12.412
27950W        W87211  21.704  21.687  11.512
27951W        W87212   8.857  39.874   0.923
27952W        W87213  12.796   7.730   3.182
27953W        W87214  43.295  38.029  11.934
27954W        W87215  18.264  13.841   4.598
27955W        W87216  41.861  23.045  12.067
27956W        W87217  19.188  33.402   4.231
27957W        W87218  21.233   3.425  10.426
27958W        W87219   5.212   0.800  12.090
27959W        W87220  14.201  30.574  11.880
27960W        W87221  38.407  24.052  11.565
27961W        W87222  43.396  25.169  11.533
27962W        W87223  19.600  33.502   3.360
27963W        W87224  34.522   6.221   3.320
27964W        W87225  20.623  19.174  12.366
27965W        W87226  15.231  26.698  12.399
27966W        W87227  10.743   9.647  13.915
27967W        W87228  22.142  31.465  14.381
27968W        W87229  34.090  34.385   2.835
27969W        W87230   1.467  23.032   1.293
27970W        W87231  15.099  13.819   1.805
27971W        W87232   4.328  41.369   3.333
27972W        W87233   9.733  13.328  14.444
27973W        W87234  23.002  20.231  12.863
27974W        W87235  20.595  33.894  13.426
27975W        W87236  36.097   9.693  14.848
27976W        W87237  21.134  10.766  14.959
27977W        W87238  11.350   4.816   1.801
27978W        W87239  39.480  34.048  12.002
27979W        W87240  24.599  34.053  13.056
27980W        W87241   7.687  43.280  10.979
27981W        W87242  34.610   4.373   4.114
27982W        W87243  24.611  14.133   0.956
27983W        W87244   1.842  37.891   4.143
27984W        W87245  23.131  38.856   3.280
27985W        W87246  10.777  18.203  13.962
27986W        W87247  41.336  19.599   3.709
27987W        W87248  23.985  26.198   2.216
27988W        W87249  36.920  10.349  13.962
27989W        W87250  20.726   1.305  12.557
27990W        W87251  25.601  39.505   1.214
27991W        W87252   3.927  10.240  10.945
27992W        W87253  24.714  10.689   0.296
27993W        W87254  41.827   3.361   2.778
27994W        W87255  24.986  42.834   1.373
27995W        W87256  17.640  11.218   0.934
27996W        W87257  36.551  11.810   0.285
27997W        W87258   4.754  44.846   4.799
27998W        W87259  33.446   9.700  10.005
27999W        W87260  11.251  24.199   0.913
28000W        W87261   4.849   0.945   4.696
28001W        W87262   9.175  38.331  14.772
28002W        W87263  30.542  40.456   2.700
28003W        W87264   9.189  14.737  10.495
28004W        W87265   6.204  34.952   2.297
28005W        W87266  41.809  12.812   3.786
28006W        W87267  27.528   5.697   1.787
28007W        W87268   4.763  44.914   3.180
28008W        W87269  35.948  33.986   4.351
28009W        W87270   6.720  38.897   2.254
28010W        W87271  23.149  32.057   2.246
28011W        W87272  14.170  29.130  13.469
28012W        W87273  29.939  25.997  13.342
28013W        W87274  37.561  32.918   0.379
28014W        W87275  24.159  31.539   3.666
28015W        W87276   6.831  41.949  11.888
28016W        W87277  17.559   3.332  12.976
28017W        W87278  44.444   4.858  13.049
28018W        W87279  19.604   3.459  14.314
28019W        W87280  22.174  30.424   1.912
28020W        W87281  12.645   1.758   4.819
28021W        W87282  41.378  13.181  12.957
28022W        W87283  12.350  42.827   0.906
28023W        W87284  13.277  34.867  12.007
28024W        W87285  31.402  37.860   0.284
28025W        W87286   5.194  39.983  13.386
28026W        W87287   8.735  18.123   2.830
28027W        W87288   5.690  12.228  13.980
28028W        W87289  31.100  16.278  14.502
28029W        W87290  23.695  43.429  14.914
28030W        W87291   6.823  13.334  10.478
28031W        W87292  24.528  38.958   1.849
28032W        W87293   7.680  33.439  11.936
28033W        W87294   2.818   6.886   4.342
28034W        W87295  22.238  37.943  10.477
28035W        W87296  42.799  26.631  14.845
28036W        W87297  16.114  26.085  13.525
28037W        W87298  43.787  17.161  12.528
28038W        W87299  35.586  12.746   3.744
28039W        W87300  24.531  17.289  12.935
28040W        W87301  12.135  39.484   1.804
28041W        W87302   8.250  10.730  11.398
28042W        W87303  11.217   3.433  12.557
28043W        W87304  35.507  32.585  10.473
28044W        W87305  39.815  13.333   4.780
28045W        W87306  36.440   2.906  13.389
28046W        W87307   6.360  37.509  13.457
28047W        W87308  25.003  15.299  14.411
28048W        W87309   0.920  15.727  11.380
28049W        W87310  21.023  42.815   5.251
28050W        W87311  22.145   6.810   4.698
28051W        W87312  27.961  27.534  12.899
28052W        W87313  11.648  11.700   3.360
28053W        W87314  33.909  37.042   0.325
28054W        W87315  43.369  44.808   2.192
28055W        W87316   9.755  44.981  12.068
28056W        W87317  15.196   8.271   2.682
28057W        W87318   1.805   0.407  10.596
28058W        W87319   6.883  15.282  12.096
28059W        W87320  21.604   7.884  13.419
28060W        W87321  15.209  41.465   0.811
28061W        W87322  26.074  29.103   3.169
28062W        W87323   7.252  36.515   1.730
28063W        W87324   1.352  11.632  13.941
28064W        W87325  16.610   1.863  11.519
28065W        W87326  36.388   0.877   3.322
28066W        W87327  27.573   6.802  14.844
28067W        W87328   6.191  28.024   1.837
28068W        W87329  43.905   4.261   2.305
28069W        W87330   5.912  39.975  13.455
28070W        W87331  13.627  41.904   4.124
28071W        W87332  36.862  15.739  10.448
28072W        W87333  39.829   8.206   1.246
28073W        W87334  12.141  39.032  14.924
28074W        W87335  30.631  18.198   4.281
28075W        W87336  35.549   1.426   3.325
28076W        W87337   5.278  25.711  14.868
28077W        W87338  38.936   2.942  10.552
28078W        W87339  16.732  43.778   4.693
28079W        W87340   2.441  17.680   1.405
28080W        W87341  36.886  31.148   0.798
28081W        W87342  30.021  41.337  11.886
28082W        W87343   4.895  10.705  14.503
28083W        W87344  17.789  25.152  14.377
28084W        W87345   3.924   2.403  12.411
28085W        W87346  24.180   7.275   3.840
28086W        W87347   4.741  19.585  11.055
28087W        W87348  11.181  18.747  12.466
28088W        W87349  13.257  15.683  12.467
28089W        W87350  21.164  43.332   2.351
28090W        W87351   8.673  31.463  10.966
28091W        W87352  31.495  20.028  10.419
28092W        W87353  18.251  11.372  10.538
28093W        W87354  30.524  28.028   3.799
28094W        W87355  35.867  32.547  14.318
28095W        W87356   7.728   0.791   1.232
28096W        W87357  21.716  30.145   2.802
28097W        W87358  40.997   1.449  11.582
28098W        W87359  40.451  37.996   2.233
28099W        W87360  11.291   3.896   1.696
28100W        W87361   6.276   6.771   1.700
28101W        W87362  37.348  33.106  12.057
28102W        W87363   3.741  42.940   1.800
28103W        W87364  42.408   6.219  12.402
28104W        W87365   0.399  41.952   1.244
28105W        W87366  14.120   7.284   3.302
28106W        W87367  24.133  28.065  11.408
28107W        W87368   6.306  28.147   3.338
28108W        W87369  17.795  43.971  13.370
28109W        W87370  24.624   8.831   1.424
28110W        W87371  43.900   2.375   0.825
28111W        W87372  30.158   2.797   4.115
28112W        W87373  44.883  18.590  12.514
28113W        W87374   7.712   7.759  12.870
28114W        W87375  44.976  18.781   4.320
28115W        W87376  25.052  17.623  10.487
28116W        W87377  41.954   2.454   2.185
28117W        W87378  12.341   6.415  13.538
28118W        W87379  32.935  11.151   2.895
28119W        W87380  28.974  14.791  13.394
28120W        W87381  41.795   9.772   2.726
28121W        W87382  27.977  39.318  14.360
28122W        W87383  18.072   2.932   2.847
28123W        W87384   6.233  13.694  13.518
28124W        W87385  26.178  40.485  14.028
28125W        W87386  30.434  29.549   4.205
28126W        W87387   6.891  39.543   4.149
28127W        W87388  11.288  11.750  11.070
28128W        W87389  15.156  42.852  14.775
28129W        W87390  40.805  12.335   0.834
28130W        W87391  26.979  44.500   4.732
28131W        W87392  33.578  19.769  14.458
28132W        W87393  32.941  18.654  14.310
28133W        W87394  44.425  21.180   3.353
28134W        W87395  22.222  32.120  11.476
28135W        W87396  15.796  14.733  11.120
28136W        W87397   5.236   8.777   5.322
28137W        W87398  34.064  35.455   3.802
28138W        W87399  36.559  44.763  11.513
28139W        W87400  22.995  14.709  13.839
28140W        W87401   4.302  38.348   3.177
28141W        W87402  25.497  20.678  14.369
28142W        W87403  39.365  26.624   3.375
28143W        W87404  42.368  36.373   1.228
28144W        W87405  39.897  14.107  14.428
28145W        W87406  29.108  35.555   3.796
28146W        W87407  41.440  18.668  11.488
28147W        W87408   8.674  27.102  11.024
28148W        W87409  29.574  35.471  11.449
28149W        W87410  16.148  37.361   3.254
28150W        W87411  18.215  23.051  13.428
28151W        W87412  15.136  11.750   3.267
28152W        W87413  43.994  29.564  11.388
28153W        W87414   5.903  21.141   0.847
28154W        W87415   3.373  41.450  10.980
28155W        W87416   9.236  42.964   2.380
28156W        W87417  36.059  22.014   2.182
28157W        W87418  19.590  25.113  14.902
28158W        W87419  32.451   0.483  11.585
28159W        W87420  12.625   1.865  10.612
28160W        W87421  38.020  34.063   4.185
28161W        W87422  22.618   9.698   1.801
28162W        W87423  10.747   8.293   1.914
28163W        W87424  20.186  17.140   1.217
28164W        W87425  38.065  38.026  13.916
28165W        W87426  36.909  22.729  10.995
28166W        W87427  32.993  40.927   3.161
28167W        W87428   3.780   2.809  12.386
28168W        W87429   1.453  32.559   1.268
28169W        W87430  41.499  18.562   1.250
28170W        W87431  41.875  35.866  13.011
28171W        W87432  15.658  42.410   2.198
28172W        W87433  30.911  31.098   3.702
28173W        W87434  41.961  19.084   2.802
28174W        W87435  34.430  21.172  12.403
28175W        W87436  21.017  16.186  11.057
28176W        W87437  26.515  23.632  12.840
28177W        W87438   2.823  44.860  11.086
28178W        W87439  40.369  27.008  13.985
28179W        W87440  14.616   0.335   3.367
28180W        W87441   3.441   9.802   1.310
28181W        W87442   6.195  13.195   2.395
28182W        W87443   9.800  17.281  14.343
28183W        W87444  40.999  33.005   4.728
28184W        W87445  34.510  27.075  14.358
28185W        W87446  12.302   1.289  12.083
28186W        W87447   3.363  29.572  14.910
28187W        W87448  22.176   9.839   2.785
28188W        W87449   8.253  19.140  14.425
28189W        W87450  35.992  21.247  10.091
28190W        W87451  23.001  36.453   4.205
28191W        W87452  43.399   1.743   3.774
28192W        W87453  17.681   9.226   2.666
28193W        W87454  18.057   9.243  13.857
28194W        W87455  17.185  27.655   2.793
28195W        W87456  28.951   2.301   0.377
28196W        W87457   9.315   0.915  12.403
28197W        W87458   8.665  30.538   0.472
28198W        W87459  40.485   8.388   0.387
28199W        W87460  14.139  12.133  11.094
28200W        W87461   0.381  35.403   4.776
28201W        W87462   2.416  34.944   3.865
28202W        W87463   2.725  19.223   2.378
28203W        W87464  41.015  12.787   3.751
28204W        W87465  21.684  37.047   1.879
28205W        W87466  34.370  13.751   1.858
28206W        W87467  15.327  24.714  12.479
28207W        W87468  28.955  20.250   1.834
28208W        W87469  28.082  22.220   4.702
28209W        W87470  16.693   0.282   0.839
28210W        W87471  14.121  22.102   2.309
28211W        W87472  17.214   8.184  14.881
28212W        W87473  39.923  25.152   1.278
28213W        W87474   9.235   7.896  13.309
28214W        W87475  22.690  44.870  11.598
28215W        W87476  25.626  38.364   3.265
28216W        W87477   5.338   5.793   1.799
28217W        W87478  36.067  17.252   3.839
28218W        W87479   0.490  25.496   4.632
28219W        W87480   0.326  30.117   4.625
28220W        W87481   7.350  16.767   0.767
28221W        W87482  20.546  12.225   4.767
28222W        W87483  32.537  17.735  13.875
28223W        W87484  22.528  40.419   1.794
28224W        W87485   1.322  20.697   0.473
28225W        W87486  28.079   6.379  14.956
28226W        W87487  22.036  27.053   1.755
28227W        W87488  43.940  37.365   4.284
28228W        W87489   7.174  32.118  10.517
28229W        W87490  31.498   2.294   2.204
28230W        W87491   6.706  36.508   4.310
28231W        W87492  36.507  10.682   2.830
28232W        W87493  25.994  41.346   4.661
28233W        W87494  29.452   7.823  14.426
28234W        W87495  38.479  37.019   4.169
28235W        W87496  13.146  33.104   1.863
28236W        W87497  15.250  44.349  13.050
28237W        W87498  21.077  26.483  11.488
28238W        W87499  29.966  13.811   2.285
28239W        W87500  23.145   4.899  13.414
28240W        W87501  27.023  39.926  14.500
28241W        W87502  36.965  11.799   1.315
28242W        W87503  15.119  44.759   3.637
28243W        W87504  26.035  20.104  12.031
28244W        W87505   3.860  13.250  11.978
28245W        W87506  33.030   3.269  12.347
28246W        W87507   9.878  14.674  10.484
28247W        W87508  23.656  13.633   2.731
28248W        W87509  29.563  12.710  14.780
28249W        W87510  10.341  44.310   2.314
28250W        W87511  39.827  44.904  14.836
28251W        W87512   4.899   4.943   0.425
28252W        W87513  10.153  33.533   0.431
28253W        W87514  38.857  18.743   1.451
28254W        W87515   1.846   6.695  11.397
28255W        W87516  21.207  36.015   1.339
28256W        W87517  16.608  10.334   2.330
28257W        W87518  30.070  29.051  11.552
28258W        W87519   8.168  25.547   4.770
28259W        W87520   1.912  44.297  10.513
28260W        W87521   2.920  14.234   4.247
28261W        W87522  29.555  19.191   1.224
28262W        W87523  33.447  23.541   2.863
28263W        W87524   7.329  37.371  12.393
28264W        W87525  10.723   6.899   4.704
28265W        W87526  33.554  25.174   0.932
28266W        W87527  20.764   6.818  10.420
28267W        W87528  30.465   3.743  13.384
28268W        W87529  33.460  34.045  14.842
28269W        W87530   6.709  17.251   1.847
28270W        W87531  29.454  44.492  10.640
28271W        W87532  42.480   4.341  11.609
28272W        W87533  23.224  26.642   4.122
28273W        W87534  16.742   5.730  14.363
28274W        W87535   5.346   4.864  10.019
28275W        W87536  13.156  27.945   0.772
28276W        W87537   2.767   0.986   3.375
28277W        W87538  42.877  13.710  11.984
28278W        W87539  22.656   1.831   0.763
28279W        W87540   7.770  32.513  13.058
28280W        W87541  36.844  29.155  11.382
28281W        W87542  17.688   8.160   9.450
28282W        W87543   3.951  14.293   4.216
28283W        W87544  18.123  41.825   1.715
28284W        W87545  27.574   7.362   0.466
28285W        W87546  30.069  33.427  14.470
28286W        W87547  19.172  42.945   4.322
28287W        W87548  18.663  16.633   2.372
28288W        W87549  29.579  30.552   3.213
28289W        W87550  10.732  20.588   0.901
28290W        W87551  43.851  41.322   2.237
28291W        W87552  16.750  39.553  13.492
28292W        W87553  27.108   2.957  14.288
28293W        W87554  23.511   6.272   2.255
28294W        W87555   5.266  34.423   3.793
28295W        W87556  28.946  25.572   4.176
28296W        W87557  44.897   4.867  14.406
28297W        W87558  33.088  32.950  11.102
28298W        W87559  11.740  20.752  13.011
28299W        W87560  32.572  33.443  12.909
28300W        W87561  13.239  44.939  11.010
28301W        W87562  39.900   6.904  12.925
28302W        W87563  37.471  17.181   5.158
28303W        W87564  15.085  39.922   0.811
28304W        W87565   2.815  15.083  12.829
28305W        W87566   5.223  34.614  10.902
28306W        W87567   5.385  21.559   3.264
28307W        W87568  37.369   7.296  10.972
28308W        W87569  23.497  44.867   2.186
28309W        W87570   2.458  12.610   3.665
28310W        W87571  35.523   0.273   3.384
28311W        W87572  44.805  44.262   1.735
28312W        W87573  17.093  35.004   1.717
28313W        W87574   7.710  38.034  11.114
28314W        W87575  20.158   2.861   0.444
28315W        W87576   6.750   2.468  12.042
28316W        W87577  22.635   4.385  10.951
28317W        W87578   3.765  13.670   1.282
28318W        W87579   7.863   2.315  13.390
28319W        W87580  43.896   2.750  12.945
28320W        W87581  13.310  41.398   2.849
28321W        W87582  26.532   7.839   3.201
28322W        W87583   0.292  39.552  11.409
28323W        W87584  28.988  35.534   1.898
28324W        W87585  17.721  44.433  13.493
28325W        W87586  27.658   5.808   3.357
28326W        W87587  30.530   4.862  11.380
28327W        W87588   5.702  28.164  12.008
28328W        W87589   2.335  15.813  12.018
28329W        W87590  15.744  18.122  13.929
28330W        W87591  42.450   3.263   0.245
28331W        W87592  24.138   6.265  11.412
28332W        W87593  36.387   2.426  10.477
28333W        W87594   4.702   8.836   1.852
28334W        W87595  10.867  35.383   4.769
28335W        W87596  37.545  16.094  10.497
28336W        W87597  11.705  27.976  13.453
28337W        W87598  15.257  36.916   4.598
28338W        W87599  35.969   6.384   2.311
28339W        W87600  25.673  20.077  14.511
28340W        W87601   8.880  26.636   3.173
28341W        W87602  24.228  41.295   0.761
28342W        W87603  27.004  23.639   2.791
28343W        W87604  17.780  41.406   1.438
28344W        W87605  34.420  15.783  11.408
28345W        W87606  19.157  20.758   1.856
28346W        W87607  31.438  36.382   2.388
28347W        W87608   2.455  10.663  12.081
28348W        W87609  12.830   0.397  12.375
28349W        W87610  42.353  19.729   3.314
28350W        W87611  37.921  27.537  14.982
28351W        W87612  20.231   3.436   4.343
28352W        W87613  44.799  37.425  10.161
28353W        W87614  30.483  16.572   3.816
28354W        W87615  23.157   9.277   3.865
28355W        W87616  24.197  17.781   1.390
28356W        W87617   5.874  17.175   3.322
28357W        W87618   9.325   5.237  12.084
28358W        W87619  23.227  39.050   1.379
28359W        W87620  12.360   2.345   3.861
28360W        W87621   4.225  42.296  12.923
28361W        W87622  28.536   1.401  12.497
28362W        W87623   8.791   4.794   5.714
28363W        W87624  13.708   0.333  13.867
28364W        W87625  42.834  29.443   4.298
28365W        W87626  41.465  32.982   2.797
28366W        W87627   0.424  35.441  14.776
28367W        W87628   6.888  20.672   0.431
28368W        W87629  29.172  43.800  11.029
28369W        W87630   1.785  30.076   1.415
28370W        W87631   9.379  44.889   2.841
28371W        W87632   4.262   2.449  14.497
28372W        W87633  31.087  13.138   3.265
28373W        W87634  11.664   9.280  12.499
28374W        W87635  24.007  15.282  13.824
28375W        W87636   4.705  33.888   4.132
28376W        W87637   4.864  22.613   4.743
28377W        W87638  10.785   4.350   5.312
28378W        W87639   5.301  19.576   5.172
28379W        W87640  11.136  26.652  12.979
28380W        W87641  41.320  37.434  10.116
28381W        W87642  12.360  20.272   3.751
28382W        W87643  24.720  44.760   4.126
28383W        W87644   0.793  13.244  10.948
28384W        W87645  18.750  29.019   2.237
28385W        W87646  16.165  42.015   0.860
28386W        W87647  34.100  32.004   4.122
28387W        W87648  27.987   8.318  14.456
28388W        W87649  38.394  27.996  14.787
28389W        W87650   3.801   2.808  14.789
28390W        W87651  39.973  32.068   5.112
28391W        W87652   7.212  26.999   0.897
28392W        W87653  13.198  37.349  12.880
28393W        W87654   0.298  10.267   3.301
28394W        W87655   4.855  23.556   3.847
28395W        W87656  34.498  32.545   2.278
28396W        W87657  26.674  32.946  14.880
28397W        W87658  20.218  34.032  14.305
28398W        W87659  34.569  28.960   1.352
28399W        W87660  41.347  34.033  14.794
28400W        W87661  35.991  33.122   2.241
28401W        W87662  17.065  16.260   3.861
28402W        W87663  23.661  44.822   3.275
28403W        W87664  14.684  10.204  13.361
28404W        W87665  21.139  28.148  14.790
28405W        W87666  25.529  24.542   0.734
28406W        W87667  12.224  13.767   1.813
28407W        W87668  15.649  44.351   1.425
28408W        W87669  27.041  41.843  12.471
28409W        W87670  27.457  18.191  14.459
28410W        W87671  17.706   4.716  10.532
28411W        W87672   5.214  22.023  11.511
28412W        W87673   7.286  24.093   3.382
28413W        W87674  35.946  30.078   1.769
28414W        W87675  27.651  26.166  14.947
28415W        W87676  44.786  28.661  10.918
28416W        W87677  12.819  43.496   1.286
28417W        W87678  22.610  34.914  10.079
28418W        W87679  43.948  24.550  12.001
28419W        W87680   8.873  30.034   3.372
28420W        W87681  20.714  26.530   4.128
28421W        W87682  33.062   7.255  10.936
28422W        W87683  23.700  12.729   1.430
28423W        W87684  26.696  17.292   2.395
28424W        W87685  26.957  22.559   0.324
28425W        W87686  25.543  29.131   9.482
28426W        W87687  28.473  17.292   3.253
28427W        W87688   8.848   3.338  12.874
28428W        W87689  21.057  34.083   0.893
28429W        W87690  12.793   4.901   2.668
28430W        W87691  17.800  18.564   0.754
28431W        W87692  19.219  27.069   2.225
28432W        W87693  34.863  27.507   2.282
28433W        W87694  28.988  24.496   4.218
28434W        W87695   4.938  30.068  11.431
28435W        W87696  25.559  41.364  11.128
28436W        W87697  37.077  19.542  12.383
28437W        W87698   3.264   7.670   0.894
28438W        W87699   7.693  40.411   5.149
28439W        W87700  33.540  18.204   2.854
28440W        W87701  23.673  16.074  11.960
28441W        W87702  39.852  40.332   0.861
28442W        W87703  37.576  11.223  12.489
28443W        W87704  41.536  37.448  14.480
28444W        W87705  19.278  27.469   1.785
28445W        W87706  43.336   3.871  10.898
28446W        W87707  42.337  31.409   3.243
28447W        W87708  32.505   3.328  13.040
28448W        W87709  37.451   9.243   3.672
28449W        W87710   4.408  36.902   1.326
28450W        W87711  37.848   5.326  14.388
28451W        W87712  35.469  34.378   0.388
28452W        W87713   9.168   7.897  13.817
28453W        W87714  42.785  31.415   1.735
28454W        W87715  27.152  11.160  11.382
28455W        W87716  12.737  23.138   2.333
28456W        W87717  10.651  20.729  14.911
28457W        W87718  32.458  31.903  12.480
28458W        W87719   0.268  34.521  14.340
28459W        W87720  26.507  23.185   0.471
28460W        W87721   4.716  10.751  12.428
28461W        W87722  43.515  38.478  14.401
28462W        W87723  40.462  19.621   0.914
28463W        W87724  14.743  26.584  10.483
28464W        W87725  20.567   0.381   1.702
28465W        W87726  35.896  20.049  11.980
28466W        W87727  40.864  43.015  10.552
28467W        W87728  42.986  42.294   1.771
28468W        W87729  29.501  10.227  13.879
28469W        W87730   9.350  13.671   1.371
28470W        W87731  10.381  15.292   2.252
28471W        W87732  20.084  17.743  10.452
28472W        W87733  10.301  33.898   2.288
28473W        W87734  12.781  40.871   4.166
28474W        W87735  24.023  43.017   2.765
28475W        W87736  22.542  43.465   2.725
28476W        W87737   6.710  30.087  11.573
28477W        W87738  11.335   2.336   0.932
28478W        W87739  12.323  21.644   4.818
28479W        W87740  40.893  12.678   3.214
28480W        W87741  20.086  26.178  14.873
28481W        W87742  21.083  16.613  13.359
28482W        W87743  40.947  15.119  12.087
28483W        W87744  23.120  31.407   1.348
28484W        W87745   4.354  13.348   1.860
28485W        W87746  27.633   1.284   0.335
28486W        W87747   0.351  10.796  12.499
28487W        W87748   1.306  37.352   4.141
28488W        W87749  31.503  44.794   0.293
28489W        W87750  14.812   7.764   1.922
28490W        W87751  19.182  44.820  11.541
28491W        W87752  43.867  36.033  13.462
28492W        W87753  37.054  42.342   1.795
28493W        W87754   0.366  11.346   3.858
28494W        W87755  22.030   5.312   1.362
28495W        W87756  37.558  36.892   4.224
28496W        W87757  34.533   6.249   1.848
28497W        W87758   0.328  36.525   4.342
28498W        W87759  21.217  26.679  13.983
28499W        W87760  28.965   2.795  14.943
28500W        W87761  10.324  41.493   3.810
28501W        W87762  37.358  37.362   0.880
28502W        W87763  11.369  13.205  13.484
28503W        W87764  37.963  39.395  13.948
28504W        W87765  41.956  21.127   0.469
28505W        W87766  41.316  30.616   0.447
28506W        W87767  28.157  17.206   3.712
28507W        W87768  32.399  10.768  11.102
28508W        W87769  14.803  35.986   0.817
28509W        W87770   3.874  31.966  13.831
28510W        W87771  31.608   9.773  14.961
28511W        W87772  20.704  14.735   0.870
28512W        W87773   2.844   5.817   2.711
28513W        W87774  42.404   9.267   2.838
28514W        W87775  18.221  23.151   3.184
28515W        W87776  31.481   0.884   3.720
28516W        W87777  21.722  40.491  12.014
28517W        W87778   0.776  23.585   1.310
28518W        W87779  14.649  26.636   9.978
28519W        W87780   4.207   1.322   2.883
28520W        W87781  31.112   2.857   4.116
28521W        W87782  44.453   2.287  14.993
28522W        W87783  15.667   3.225   2.730
28523W        W87784  23.235  36.353   2.212
28524W        W87785  14.154  38.861   1.283
28525W        W87786   2.927  25.084   2.678
28526W        W87787  23.103  30.919  13.995
28527W        W87788  39.512  17.115  11.515
28528W        W87789  13.614  39.863   1.287
28529W        W87790  18.273  20.037   5.242
28530W        W87791  37.922  37.832  14.914
28531W        W87792  44.793  23.593   1.804
28532W        W87793  23.028  38.426   1.779
28533W        W87794   2.825  20.594   0.920
28534W        W87795  13.326  25.545   2.733
28535W        W87796  28.187  25.021   0.361
28536W        W87797  33.919  42.003   2.373
28537W        W87798  19.630  35.914   0.377
28538W        W87799  27.625  27.504  14.900
28539W        W87800  10.659  15.122  13.972
28540W        W87801   4.927  28.445  10.962
28541W        W87802  29.453  38.824   1.820
28542W        W87803  29.021   9.261  12.415
28543W        W87804  21.729  43.019   1.781
28544W        W87805  19.683  25.218  14.009
28545W        W87806  27.095   5.243   2.713
28546W        W87807  16.110  21.206   2.403
28547W        W87808  42.006  15.107  14.357
28548W        W87809  38.498  26.553  12.483
28549W        W87810  24.553  34.923   1.837
28550W        W87811  22.684   6.413  13.014
28551W        W87812  37.442  16.609   3.852
28552W        W87813  41.449   6.767   2.769
28553W        W87814  28.541  28.141   0.307
28554W        W87815   8.178  22.030  13.937
28555W        W87816  15.583  27.679   2.283
28556W        W87817  11.185  17.627   1.273
28557W        W87818  35.388  15.687  11.925
28558W        W87819  38.999   4.439   2.778
28559W        W87820  11.861  27.063  10.496
28560W        W87821   8.727  21.538   2.308
28561W        W87822  24.584  43.323  12.430
28562W        W87823  21.068  18.264  10.473
28563W        W87824  39.917  32.948  12.901
28564W        W87825  36.911  42.323   2.357
28565W        W87826  11.635  30.915  13.803
28566W        W87827  44.910  21.196  11.945
28567W        W87828  31.404  26.080  10.610
28568W        W87829  43.315  32.069   3.782
28569W        W87830  20.061  28.104   1.420
28570W        W87831  44.898  19.623  12.428
28571W        W87832  25.972  13.194   3.382
28572W        W87833  20.622  24.663   2.291
28573W        W87834   0.365  26.650   4.203
28574W        W87835  26.144  12.226  10.902
28575W        W87836   1.447  35.976   3.282
28576W        W87837  23.590  35.370  13.049
28577W        W87838  41.386  34.577   4.714
28578W        W87839  30.926  25.105  12.446
28579W        W87840  18.780  24.565   1.324
28580W        W87841  37.025  22.099   1.276
28581W        W87842  29.531  11.819  14.800
28582W        W87843  10.358  27.980  14.989
28583W        W87844  27.521  10.347   1.244
28584W        W87845   1.777  11.629  13.004
28585W        W87846  25.195  22.554   4.758
28586W        W87847  14.201  20.195  13.328
28587W        W87848   4.825  16.293   0.781
28588W        W87849   4.220  10.223   3.197
28589W        W87850  25.989   7.328   4.118
28590W        W87851  26.523  38.409  12.932
28591W        W87852   0.893   1.833  14.022
28592W        W87853   9.389  38.068   1.784
28593W        W87854   2.233   9.747  12.826
28594W        W87855  29.584   7.775   2.285
28595W        W87856   3.404  40.889   1.856
28596W        W87857  26.686  10.147   3.157
28597W        W87858  19.730  23.592   4.217
28598W        W87859  17.761  19.686   0.743
28599W        W87860   6.685  42.456   3.276
28600W        W87861  24.711  29.525   2.711
28601W        W87862  15.777  26.694   5.765
28602W        W87863  31.452   8.332   2.334
28603W        W87864  39.476  32.419  13.994
28604W        W87865  36.528  32.473   4.349
28605W        W87866  18.072  17.129  11.442
28606W        W87867  35.507   3.439  13.527
28607W        W87868   9.284  13.735  13.331
28608W        W87869  22.596  25.646   3.192
28609W        W87870   2.923   5.341   3.867
28610W        W87871  36.933  12.164  11.112
28611W        W87872  24.165   4.386   3.751
28612W        W87873  42.491  44.900  10.471
28613W        W87874  28.527  27.148   4.835
28614W        W87875  25.210  17.075  13.339
28615W        W87876  31.064  44.944  13.360
28616W        W87877  37.498  30.519  14.435
28617W        W87878  33.901   2.329  12.469
28618W        W87879  34.575  21.183  11.895
28619W        W87880  10.800  15.234  10.532
28620W        W87881  27.940   8.898  14.994
28621W        W87882  38.904  34.916  13.908
28622W        W87883  15.739  20.641  10.478
28623W        W87884   3.342   8.163  12.426
28624W        W87885  42.395  13.698  11.531
28625W        W87886  14.116   8.372  13.436
28626W        W87887  10.765  16.127   4.286
28627W        W87888  34.866  33.452  10.099
28628W        W87889  21.659  28.612   0.379
28629W        W87890   8.682   8.792  14.298
28630W        W87891  31.911  29.612  12.424
28631W        W87892   8.828  11.148  14.473
28632W        W87893  19.627  27.463   0.951
28633W        W87894  27.178  43.437  13.823
28634W        W87895  37.904  27.179   4.238
28635W        W87896  18.180  28.506   1.351
28636W        W87897  41.334  22.129   1.825
28637W        W87898   7.360  28.528   2.385
28638W        W87899  32.011  41.905   1.369
28639W        W87900  32.999  20.086   0.353
28640W        W87901   3.744  24.697  14.988
28641W        W87902  42.851  10.337   0.835
28642W        W87903  14.188  25.139   4.769
28643W        W87904  28.474  35.442   0.733
28644W        W87905   8.387  38.943  11.540
28645W        W87906  21.263  39.515   0.258
28646W        W87907  14.730  44.364  12.352
28647W        W87908   5.690   9.711  14.897
28648W        W87909   2.309  27.169  10.407
28649W        W87910   6.744  27.614  11.054
28650W        W87911   4.818  13.297   3.827
28651W        W87912  32.492  44.963   3.800
28652W        W87913  29.994  30.620   2.735
28653W        W87914   8.393   2.864  12.554
28654W        W87915  13.233  25.560  12.563
28655W        W87916  39.474  26.694   5.305
28656W        W87917  24.527  30.550   4.345
28657W        W87918   3.225  14.333  12.535
28658W        W87919  20.125  10.713  13.393
28659W        W87920  15.142  40.479   0.439
28660W        W87921  25.074  14.595  14.985
28661W        W87922   3.857   6.261  11.386
28662W        W87923  41.789  42.961  13.057
28663W        W87924   1.832   1.863   4.200
28664W        W87925  11.339  34.866   1.274
28665W        W87926  44.909  44.442   3.713
28666W        W87927  36.071  29.176   2.799
28667W        W87928  17.220  20.716  11.489
28668W        W87929  28.560  19.048  12.367
28669W        W87930  17.649   1.846   2.689
28670W        W87931  41.860  31.998  12.377
28671W        W87932  27.514   1.411   1.856
28672W        W87933  30.985  35.879  13.338
28673W        W87934  18.787  31.593  13.444
28674W        W87935   0.916   4.359  14.414
28675W        W87936  28.034  31.944  10.007
28676W        W87937  37.360   2.457  10.404
28677W        W87938   6.838  20.550  13.860
28678W        W87939  42.474  35.937   0.426
28679W        W87940   2.338  12.155  10.619
28680W        W87941  34.474   6.189   0.738
28681W        W87942  21.192  24.597   3.632
28682W        W87943  28.988   0.974   0.829
28683W        W87944  39.962  33.062   0.844
28684W        W87945  44.276  36.876  11.003
28685W        W87946  20.231  31.471  13.010
28686W        W87947  19.144  27.044   3.764
28687W        W87948  17.152  28.569  13.038
28688W        W87949  17.264  13.295  12.918
28689W        W87950  44.775  42.472  13.368
28690W        W87951  39.982   5.359   4.143
28691W        W87952  17.124  18.551  14.510
28692W        W87953  34.955  30.482  10.975
28693W        W87954   6.676  39.326   0.347
28694W        W87955  30.618  30.932  13.932
28695W        W87956  23.581  20.261   3.819
28696W        W87957  25.118  42.024  14.325
28697W        W87958  31.985  29.927  13.819
28698W        W87959  38.481   2.286   1.816
28699W        W87960   3.761   4.836   0.902
28700W        W87961  20.063  21.626  10.526
28701W        W87962  10.654  33.417   2.188
28702W        W87963  11.333  39.852  12.565
28703W        W87964   9.338   1.893   3.384
28704W        W87965   7.276  33.917  14.770
28705W        W87966   5.253  32.505   4.279
28706W        W87967  26.600  26.061   2.759
28707W        W87968  38.495  21.721   3.300
28708W        W87969  31.075  14.303   9.927
28709W        W87970  24.014  20.126  11.015
28710W        W87971   9.814  39.924  14.504
28711W        W87972  29.109  15.774   4.193
28712W        W87973  37.080  29.500  14.968
28713W        W87974   6.826  27.519  11.529
28714W        W87975  24.037  31.020   1.300
28715W        W87976   3.845   5.420   5.678
28716W        W87977  11.299   2.731  10.596
28717W        W87978   7.732  25.088   1.276
28718W        W87979   6.683  37.337   1.280
28719W        W87980   5.710  10.219   0.319
28720W        W87981  10.796  42.504   3.304
28721W        W87982  26.677  42.499   0.428
28722W        W87983  16.185  31.107  11.010
28723W        W87984  26.011   0.899   0.919
28724W        W87985  21.629   3.270   4.136
28725W        W87986  31.423  13.712  14.328
28726W        W87987   2.724   2.358   1.865
28727W        W87988   0.261  38.055  11.020
28728W        W87989  26.993  36.475   0.964
28729W        W87990  40.028  43.322  11.006
28730W        W87991   6.756  23.017   1.710
28731W        W87992  23.565  17.672  12.048
28732W        W87993  23.662  10.854  11.881
28733W        W87994  42.357   5.864   3.352
28734W        W87995  40.989  44.409   0.825
28735W        W87996  42.345  23.589   4.263
28736W        W87997   1.736  27.680   1.763
28737W        W87998  19.048  17.745  12.420
28738W        W87999  33.981  42.389  10.943
28739W        W88000  16.751  34.544  11.461
28740W        W88001  27.975  28.606  12.076
28741W        W88002   2.332   1.275  14.460
28742W        W88003   6.344  22.654   0.411
28743W        W88004  21.053  19.597  14.024
28744W        W88005  31.025   1.736   2.180
28745W        W88006  22.592  12.242   1.359
28746W        W88007   7.692  23.518  12.443
28747W        W88008  42.825  37.413  14.849
28748W        W88009  30.457  10.385  12.042
28749W        W88010  21.711  33.892  11.578
28750W        W88011  26.546  26.165   0.315
28751W        W88012   7.774  34.508  14.434
28752W        W88013  25.583  19.759   1.448
28753W        W88014  16.600   2.802   3.785
28754W        W88015  20.638   2.834  13.969
28755W        W88016  30.030  35.569  14.873
28756W        W88017  41.453  41.795  14.502
28757W        W88018   1.946   0.402   4.354
28758W        W88019  40.999  31.988   5.215
28759W        W88020  18.672   7.782  12.862
28760W        W88021  27.066  12.307  12.539
28761W        W88022  35.087  13.641   1.910
28762W        W88023  17.711  39.361   0.301
28763W        W88024  30.607  40.330   5.311
28764W        W88025  37.385  38.404  11.432
28765W        W88026  24.722   5.342  11.000
28766W        W88027  17.189  13.653  12.387
28767W        W88028   0.453  18.156  10.547
28768W        W88029  15.673  34.003   3.808
28769W        W88030  32.997  33.125   0.281
28770W        W88031   0.806   6.290   1.920
28771W        W88032  34.046   5.883  13.453
28772W        W88033  30.914  32.589   3.370
28773W        W88034  33.591  15.680  11.941
28774W        W88035  13.198   8.232  11.862
28775W        W88036  44.774  43.466   1.415
28776W        W88037  40.417  20.039  13.023
28777W        W88038  30.136  25.706   1.251
28778W        W88039  42.941  13.613   3.291
28779W        W88040  34.407  14.294  12.964
28780W        W88041  36.544  26.169   1.934
28781W        W88042  24.719  18.253  12.425
28782W        W88043  13.738  15.177   4.314
28783W        W88044   4.933  43.973   2.233
28784W        W88045  38.438   8.182  13.993
28785W        W88046  41.799  12.635   2.261
28786W        W88047   4.873   4.323   0.727
28787W        W88048  34.566  28.655  10.435
28788W        W88049  39.882  31.007  11.910
28789W        W88050  22.208  28.972  11.066
28790W        W88051  42.894  31.447   0.836
28791W        W88052  23.197   8.711   1.733
28792W        W88053  44.400  14.111   0.324
28793W        W88054  36.981  25.046  10.945
28794W        W88055   1.406  34.424  11.559
28795W        W88056  27.099  44.859  11.455
28796W        W88057  12.133   5.759   4.639
28797W        W88058  29.519  12.806   4.710
28798W        W88059  22.200  41.943  12.944
28799W        W88060   1.275  36.899  10.956
28800W        W88061  35.869  44.980  14.833
28801W        W88062  20.673  28.166   1.294
28802W        W88063  30.535   4.812   0.897
28803W        W88064  20.607   9.694   3.205
28804W        W88065   9.233  23.043   1.335
28805W        W88066  29.591  29.989   5.151
28806W        W88067  24.701  44.759  12.954
28807W        W88068  15.737  43.365  14.320
28808W        W88069  27.456  24.038   3.227
28809W        W88070  28.565   4.890   2.214
28810W        W88071  15.616  13.834   1.394
28811W        W88072  29.547  26.646   2.729
28812W        W88073  36.571   7.842   3.822
28813W        W88074   7.290  34.464  13.826
28814W        W88075  43.826  16.797  12.515
28815W        W88076   5.439  37.397   0.392
28816W        W88077  36.485   6.731  14.356
28817W        W88078  39.894  15.637   2.819
28818W        W88079  28.549   3.311   0.382
28819W        W88080  35.947  31.596  14.890
28820W        W88081   9.666  37.019  13.033
28821W        W88082  32.089  32.954   0.739
28822W        W88083   9.298   3.842  11.909
28823W        W88084  37.900  10.313   1.803
28824W        W88085  36.440  33.111  10.568
28825W        W88086   4.920  27.076  14.460
28826W        W88087  13.224  37.888  11.089
28827W        W88088  14.151   7.780  12.006
28828W        W88089  20.710  23.184  11.987
28829W        W88090   7.785  18.105  14.322
28830W        W88091  38.381  19.159  10.576
28831W        W88092   0.448  26.979   5.086
28832W        W88093   6.834   9.690   9.995
28833W        W88094  44.773   6.679  11.037
28834W        W88095  38.519  40.943  13.801
28835W        W88096  23.178   1.458  13.535
28836W        W88097   3.889  16.630   4.639
28837W        W88098  10.299  17.252  14.020
28838W        W88099   6.368  17.670   4.164
28839W        W88100  27.585  21.630  12.891
28840W        W88101  39.006  24.682  12.987
28841W        W88102  30.941   1.828  11.535
28842W        W88103  20.715  22.095  11.395
28843W        W88104  28.154   5.837  14.827
28844W        W88105  14.806   0.371   0.331
28845W        W88106  35.068  28.052  12.970
28846W        W88107  26.982  22.676   3.199
28847W        W88108  28.500  43.017   4.127
28848W        W88109  20.672  42.285  11.948
28849W        W88110  12.826  38.562   1.333
28850W        W88111  17.619  26.649  10.492
28851W        W88112  26.490   6.768   4.767
28852W        W88113  39.879  28.595   9.527
28853W        W88114   0.364  33.060  13.413
28854W        W88115  19.109   9.653  13.489
28855W        W88116  14.786  13.125   2.833
28856W        W88117  39.056  27.564  14.387
28857W        W88118  36.358  33.068  11.874
28858W        W88119   1.736  15.766  12.986
28859W        W88120  22.188   8.289   1.339
28860W        W88121  43.828  41.917   2.830
28861W        W88122   8.861  11.350  11.863
28862W        W88123  35.866  37.458   1.879
28863W        W88124  11.655  38.480   0.937
28864W        W88125  33.947   8.825   2.732
28865W        W88126  17.717   4.759  14.430
28866W        W88127  10.821  44.320   3.810
28867W        W88128  43.828  10.711  14.397
28868W        W88129   1.797  32.099  14.937
28869W        W88130  40.977  20.662   0.963
28870W        W88131   0.267   0.284  14.824
28871W        W88132  26.475  13.813  11.453
28872W        W88133  39.504  28.022  14.460
28873W        W88134  41.811  42.957   2.397
28874W        W88135  25.043  13.250  14.994
28875W        W88136  32.075  21.728  12.005
28876W        W88137  22.106  40.481  13.875
28877W        W88138  29.082  28.645  11.038
28878W        W88139  24.123  10.674   3.166
28879W        W88140  26.987  13.286  12.393
28880W        W88141  22.729  38.531   0.736
28881W        W88142  11.638  41.297  10.481
28882W        W88143  18.102  40.350  11.373
28883W        W88144  16.585   2.879   4.197
28884W        W88145  17.615   9.380  11.580
28885W        W88146  26.566  36.874   4.604
28886W        W88147  21.195  25.706  13.876
28887W        W88148  10.283  10.143   2.366
28888W        W88149  31.121  22.066   0.888
28889W        W88150   2.442  26.483  14.351
28890W        W88151  29.017  17.649  12.969
28891W        W88152  16.122  23.687   2.798
28892W        W88153   9.693  25.056  11.042
28893W        W88154   8.692  10.807  11.001
28894W        W88155   0.313  13.742   0.348
28895W        W88156  19.564   6.871  13.896
28896W        W88157  42.348  39.351   4.761
28897W        W88158   5.275  29.142  14.769
28898W        W88159  42.940  36.846   4.346
28899W        W88160  39.013   3.949  11.576
28900W        W88161   9.670  25.519   2.275
28901W        W88162  17.705  26.692   5.124
28902W        W88163   9.374  25.565  11.122
28903W        W88164   5.862  34.918  13.347
28904W        W88165   7.274  12.351  13.986
28905W        W88166  40.975  44.397   2.200
28906W        W88167  35.973  16.092   3.359
28907W        W88168  25.713   1.264   2.338
28908W        W88169   3.322  39.047  10.906
28909W        W88170  36.363  43.814  11.993
28910W        W88171   8.227  18.742   1.401
28911W        W88172  36.556  39.519   2.873
28912W        W88173  12.254  32.425   1.341
28913W        W88174  40.896   7.392  12.862
28914W        W88175  42.353  18.278  14.992
28915W        W88176  14.300  17.733   0.254
28916W        W88177  39.947   5.315  11.391
28917W        W88178  12.685  42.811   2.853
28918W        W88179   9.221  30.926  14.486
28919W        W88180  28.502  18.123   3.254
28920W        W88181   9.838  15.599  10.081
28921W        W88182  43.309  37.977   1.232
28922W        W88183   3.710   7.321   3.829
28923W        W88184  26.647  10.209   2.674
28924W        W88185   8.844  20.530   0.451
28925W        W88186  13.609  31.998  11.077
28926W        W88187  24.979  43.838  11.576
28927W        W88188  23.064  17.707   9.540
28928W        W88189  11.642  34.575  14.300
28929W        W88190  34.563   0.903   0.285
28930W        W88191  16.694  29.482   1.772
28931W        W88192  15.670  28.166   0.848
28932W        W88193   6.881   7.355   3.335
28933W        W88194   0.273  28.440   0.865
28934W        W88195  10.811  31.019  13.813
28935W        W88196  43.902  23.995   3.654
28936W        W88197   5.864  42.787   0.435
28937W        W88198  31.943  30.642   1.814
28938W        W88199  28.128  28.134   3.360
28939W        W88200  28.028  31.068  12.551
28940W        W88201   8.389  30.457  12.995
28941W        W88202  36.534  16.089   1.325
28942W        W88203  18.159  32.018   1.241
28943W        W88204   8.735  39.461   0.753
28944W        W88205  32.896  34.386   2.251
28945W        W88206  29.471  11.659   4.823
28946W        W88207  33.926  30.919  12.041
28947W        W88208  42.889  35.979  11.495
28948W        W88209  32.460  11.140   1.708
28949W        W88210  19.142  31.947  14.321
28950W        W88211  24.613  29.173   3.356
28951W        W88212  43.329  26.689  12.965
28952W        W88213  39.953  33.526   2.226
28953W        W88214  15.201  20.228  10.892
28954W        W88215  32.927  37.382  13.457
28955W        W88216  16.606  31.909  11.983
28956W        W88217  44.872  37.939  12.385
28957W        W88218  36.930   0.452   1.355
28958W        W88219  30.125  17.605  11.423
28959W        W88220  10.639  39.539  13.981
28960W        W88221   5.876  10.751  13.991
28961W        W88222   8.894  30.045  14.512
28962W        W88223  19.769  21.249   1.773
28963W        W88224  23.581  39.456   3.814
28964W        W88225  18.264   3.344  10.895
28965W        W88226  16.710  32.492  13.796
28966W        W88227  15.781  36.432   1.848
28967W        W88228   1.482   9.716   0.297
28968W        W88229   5.261   4.887   1.243
28969W        W88230  36.510  36.980  11.125
28970W        W88231  29.972  11.180  12.034
28971W        W88232  35.461   4.408  14.448
28972W        W88233  25.580   4.373   2.327
28973W        W88234  14.819  40.370  11.480
28974W        W88235  21.075  29.639   1.771
28975W        W88236  44.472   8.813  11.435
28976W        W88237  17.783  15.309   4.664
28977W        W88238  17.629  42.832   2.303
28978W        W88239  41.332  10.370   4.138
28979W        W88240  41.817  33.532  12.455
28980W        W88241   4.251  13.719  14.017
28981W        W88242  25.625  25.989   1.442
28982W        W88243   9.203  14.263   5.135
28983W        W88244  27.690  35.401   0.380
28984W        W88245  41.329   9.310  14.480
28985W        W88246  36.946  14.178   2.306
28986W        W88247  36.904  38.966  13.508
28987W        W88248  32.611  27.638   2.356
28988W        W88249  21.042  41.508   2.745
28989W        W88250  37.076  28.680  11.374
28990W        W88251  37.006  18.071   3.331
28991W        W88252  35.414  10.383  13.386
28992W        W88253  37.919  36.351   1.253
28993W        W88254  29.434   5.714  13.994
28994W        W88255  20.661  26.997   4.286
28995W        W88256  31.554  41.003   1.837
28996W        W88257   7.783  33.065  11.470
28997W        W88258  14.324  17.651  12.957
28998W        W88259  40.964  19.210   2.739
28999W        W88260  27.621  16.728   4.674
29000W        W88261  34.489  28.663  12.903
29001W        W88262  42.326   0.266  10.406
29002W        W88263   4.217  36.383  12.905
29003W        W88264  19.190   4.748   2.816
29004W        W88265   9.327  36.887  13.904
29005W        W88266  44.457  34.984   1.215
29006W        W88267  39.528  27.546   2.332
29007W        W88268  10.842   2.941  11.436
29008W        W88269  21.599  40.320  10.005
29009W        W88270  30.080  36.506  14.377
29010W        W88271  12.212  10.701   4.617
29011W        W88272  42.981  27.048   2.808
29012W        W88273  27.994  36.895  13.443
29013W        W88274  43.934  12.622   3.772
29014W        W88275  23.986  30.140  11.899
29015W        W88276   8.245  26.497   3.704
29016W        W88277  33.484  19.651   2.866
29017W        W88278  42.838   1.351   0.246
29018W        W88279  20.586  28.039  13.361
29019W        W88280  40.872   2.383  13.959
29020W        W88281   1.460  29.105  13.434
29021W        W88282  37.337   8.203  11.963
29022W        W88283  16.671  23.995   0.250
29023W        W88284  38.822  36.372   1.435
29024W        W88285  41.450   1.444  12.355
29025W        W88286  35.022  20.032  14.513
29026W        W88287  19.538   3.310  11.121
29027W        W88288  12.329  34.900   2.335
29028W        W88289   8.782  20.050  13.826
29029W        W88290  38.077  31.644  14.779
29030W        W88291  43.296   3.754  14.864
29031W        W88292  32.941   1.453  12.558
29032W        W88293   1.876  41.895   4.149
29033W        W88294  12.711  40.334   4.199
29034W        W88295  19.209  28.107  14.330
29035W        W88296   1.243  17.757   3.233
29036W        W88297  11.739  40.813  12.403
29037W        W88298  35.526   0.920  13.528
29038W        W88299  33.126  32.575  14.792
29039W        W88300  40.472  27.565  13.506
29040W        W88301  21.248  25.123   1.383
29041W        W88302  42.845  15.104   4.250
29042W        W88303  21.200  41.501  10.156
29043W        W88304  20.034  44.292   1.247
29044W        W88305  34.002  26.575   1.240
29045W        W88306  41.491  39.477  12.866
29046W        W88307  29.633   6.711   2.847
29047W        W88308  38.421  28.958   4.625
29048W        W88309  38.438  35.045  12.528
29049W        W88310  12.686  17.708   4.280
29050W        W88311  22.684  25.161  11.897
29051W        W88312  31.058   6.251  14.277
29052W        W88313  36.979  24.585  14.828
29053W        W88314   2.334  27.467  12.566
29054W        W88315  16.111  41.438   1.718
29055W        W88316  16.166  26.466   1.387
29056W        W88317  32.992  20.560  14.514
29057W        W88318  12.797  21.132   0.885
29058W        W88319  23.107  34.428  10.958
29059W        W88320  31.933  19.217   4.349
29060W        W88321  23.024  40.016  14.998
29061W        W88322  13.273  36.512  11.938
29062W        W88323  13.171  18.561   0.907
29063W        W88324  11.676   1.872   5.112
29064W        W88325  11.326  10.713   4.613
29065W        W88326  20.617  19.679   0.900
29066W        W88327  38.879   9.176   0.908
29067W        W88328  27.048  28.662  10.472
29068W        W88329  27.981  40.519  10.627
29069W        W88330   4.815  38.045  11.992
29070W        W88331  43.405  37.545  14.388
29071W        W88332  29.490   0.817   2.208
29072W        W88333  19.765   5.289   3.179
29073W        W88334   1.875  44.006   1.783
29074W        W88335  27.179  40.461   3.738
29075W        W88336   8.314   5.310  13.841
29076W        W88337  35.071   1.283  14.776
29077W        W88338  23.669   1.236   5.800
29078W        W88339  33.430  20.752   4.353
29079W        W88340  23.098  10.244   2.740
29080W        W88341  11.846  13.136   4.680
29081W        W88342  13.229  37.923  13.431
29082W        W88343  18.787  16.616   3.171
29083W        W88344  28.594  22.158  12.902
29084W        W88345  19.268  44.913   3.325
29085W        W88346  31.415   5.889   3.296
29086W        W88347  12.809   8.871   0.746
29087W        W88348  20.135  44.427   4.747
29088W        W88349  27.510  24.989   0.732
29089W        W88350  33.596  20.686  12.383
29090W        W88351  19.771  19.665   1.360
29091W        W88352  20.637  28.989  12.049
29092W        W88353   8.192   5.369   3.358
29093W        W88354  20.073   1.348   4.319
29094W        W88355  39.888  10.262  12.450
29095W        W88356  21.611  42.448  14.019
29096W        W88357  10.353  29.967   3.679
29097W        W88358  18.214  11.216  11.077
29098W        W88359  43.793   3.409  13.057
29099W        W88360  22.686   5.243   3.298
29100W        W88361  25.569  33.126   3.722
29101W        W88362  13.614  13.617   4.235
29102W        W88363   0.763   2.799  13.961
29103W        W88364   6.287   7.279   2.878
29104W        W88365  30.085  13.782  14.399
29105W        W88366  35.439  43.403   1.255
29106W        W88367  32.968  34.119  13.997
29107W        W88368  15.793   7.888   2.262
29108W        W88369   3.796  29.072   0.754
29109W        W88370  20.667  20.258  14.899
29110W        W88371  22.521  17.560   1.326
29111W        W88372  29.136   1.390   3.690
29112W        W88373  27.158  18.742   0.731
29113W        W88374  18.616  16.173  13.309
29114W        W88375  17.130  18.721  12.866
29115W        W88376  13.633  16.094  11.496
29116W        W88377   5.902  31.574   4.831
29117W        W88378  44.755   9.755   1.923
29118W        W88379   3.440  34.457   1.419
29119W        W88380  36.393   8.255  11.531
29120W        W88381  42.926  30.017  14.337
29121W        W88382  30.466  20.689   3.358
29122W        W88383  36.458  40.464   3.815
29123W        W88384  34.063   3.734   0.431
29124W        W88385  41.458  15.801   2.697
29125W        W88386  14.255  43.808  11.390
29126W        W88387  18.610  28.440  11.124
29127W        W88388  40.549  16.241   1.828
29128W        W88389  21.626  24.525   4.707
29129W        W88390  37.897  16.167  14.854
29130W        W88391  12.185   9.695   2.724
29131W        W88392   4.447  28.508   4.651
29132W        W88393  13.319  37.839  12.953
29133W        W88394  22.171  22.151   4.312
29134W        W88395   9.379  19.632   0.447
29135W        W88396  43.765  18.055  11.973
29136W        W88397  41.347  39.818   1.238
29137W        W88398   7.249  23.620  10.917
29138W        W88399  37.524  44.793  13.417
29139W        W88400  16.750  41.905  13.377
29140W        W88401   5.241  39.532  13.805
29141W        W88402   5.244  23.692   3.277
29142W        W88403  43.933  18.286   2.208
29143W        W88404  38.370  40.498   0.418
29144W        W88405  26.662   3.758  12.560
29145W        W88406  41.832  18.228   1.288
29146W        W88407  30.960  20.099  12.961
29147W        W88408  35.025  11.287  12.059
29148W        W88409  24.612  31.402  10.440
29149W        W88410  23.733  36.398  13.433
29150W        W88411  15.608  19.750   0.888
29151W        W88412  34.410  38.884   2.752
29152W        W88413  42.330  20.529  13.506
29153W        W88414  24.109  19.584   0.746
29154W        W88415  21.519  28.991  13.471
29155W        W88416  28.147  16.139   0.453
29156W        W88417  22.517   6.419  12.381
29157W        W88418  11.714  31.551  12.350
29158W        W88419  44.928  14.243  11.973
29159W        W88420  35.553  21.183  11.978
29160W        W88421  10.768  27.666   1.789
29161W        W88422  29.438   1.442   3.356
29162W        W88423  13.682  44.905   0.413
29163W        W88424   8.204  17.651  11.438
29164W        W88425  20.711  23.551  14.985
29165W        W88426  13.784  26.135  10.922
29166W        W88427  40.902   1.481  12.891
29167W        W88428  44.341   6.867   0.451
29168W        W88429  27.681  16.180   1.268
29169W        W88430  14.626  26.496  14.794
29170W        W88431   9.256  21.129  12.902
29171W        W88432  21.137   0.378   1.791
29172W        W88433  31.499  34.443  12.924
29173W        W88434   6.362   1.836  14.016
29174W        W88435  34.080  44.871  10.894
29175W        W88436  38.566   2.388   0.807
29176W        W88437   2.280  32.431  14.999
29177W        W88438  28.983   1.868   2.885
29178W        W88439   5.732  12.631  12.939
29179W        W88440  11.301  38.922   1.811
29180W        W88441   6.407  39.025  10.152
29181W        W88442  22.612   5.697  12.999
29182W        W88443  16.274   7.211   3.169
29183W        W88444  22.096  11.860   4.219
29184W        W88445  18.195  32.950   1.337
29185W        W88446   5.839  32.625   0.798
29186W        W88447   4.247  40.531   2.366
29187W        W88448   3.875  36.908  11.002
29188W        W88449  24.505   1.309   2.384
29189W        W88450  16.205   0.773   9.940
29190W        W88451   4.278   2.892   1.725
29191W        W88452  14.153  28.651   1.851
29192W        W88453  19.106  22.038  13.325
29193W        W88454  11.735   6.413   1.235
29194W        W88455  29.091  24.988   2.236
29195W        W88456  18.705  36.031  11.857
29196W        W88457  23.728  12.246  14.820
29197W        W88458   6.893  32.584  11.011
29198W        W88459  30.583   3.341   0.413
29199W        W88460  44.264  17.683   0.322
29200W        W88461  18.103  11.817   3.329
29201W        W88462  27.607   5.392   1.310
29202W        W88463  19.770  27.016   0.427
29203W        W88464  31.010  14.209  10.550
29204W        W88465   4.909  40.487  13.513
29205W        W88466  29.437  17.224   0.878
29206W        W88467   4.806   9.344  14.478
29207W        W88468  15.225  20.131   1.214
29208W        W88469  43.955   0.845  12.345
29209W        W88470  34.395  26.076  14.489
29210W        W88471  12.223  27.176   5.094
29211W        W88472  13.235  43.468   3.332
29212W        W88473  23.081   7.208  12.401
29213W        W88474  34.939  34.448  13.037
29214W        W88475  26.613  35.944  14.782
29215W        W88476  12.171  22.646   4.293
29216W        W88477   6.230   9.837  10.080
29217W        W88478  15.090  36.951  14.882
29218W        W88479  26.628  39.883  10.638
29219W        W88480  27.185  30.115   1.448
29220W        W88481  29.447  22.542  14.294
29221W        W88482  20.156  43.800  14.824
29222W        W88483  29.080  31.119   0.790
29223W        W88484  44.295   8.297  12.965
29224W        W88485   6.871  38.059  12.884
29225W        W88486  41.363  10.311   2.691
29226W        W88487   1.247  12.701   1.807
29227W        W88488  30.648  33.410   3.242
29228W        W88489  27.652   2.255  12.477
29229W        W88490  33.550   9.223   1.211
29230W        W88491  40.478  12.699  13.040
29231W        W88492  29.978   7.396   1.230
29232W        W88493  35.097  25.576   3.680
29233W        W88494  16.292   6.279  13.038
29234W        W88495  41.350   8.670  11.372
29235W        W88496  13.166  40.532   1.319
29236W        W88497  36.472  43.425  11.913
29237W        W88498   5.871  27.100  12.574
29238W        W88499  36.499  41.803   0.914
29239W        W88500  13.215  33.043   1.233
29240W        W88501  35.030  36.004   3.146
29241W        W88502   4.935   4.815   3.202
29242W        W88503  44.009   9.278   0.882
29243W        W88504  28.656  23.697  14.451
29244W        W88505   4.287  43.436  14.824
29245W        W88506   2.852  11.314  12.476
29246W        W88507  42.462  24.716   0.861
29247W        W88508  28.472  30.102   1.913
29248W        W88509  26.101   1.856   1.414
29249W        W88510  24.099  30.549  12.902
29250W        W88511  26.567  31.562   2.818
29251W        W88512  21.206  20.621  12.018
29252W        W88513   0.810  20.227  14.939
29253W        W88514  44.960  32.989  13.871
29254W        W88515  34.067  30.053  12.901
29255W        W88516  39.465   6.334   2.284
29256W        W88517  42.952  20.717  13.009
29257W        W88518  31.472  43.944   4.619
29258W        W88519  38.556  40.357   4.728
29259W        W88520  36.942  28.173   3.384
29260W        W88521   3.843  23.550   0.422
29261W        W88522  23.527  43.846   4.113
29262W        W88523  40.451  44.914   1.293
29263W        W88524  22.586  22.029   4.126
29264W        W88525  28.538   9.345   1.818
29265W        W88526  17.691  19.062   2.683
29266W        W88527  34.883  42.433  11.512
29267W        W88528  32.429  32.484  14.329
29268W        W88529  28.533  10.728   1.329
29269W        W88530  21.026  26.189  10.632
29270W        W88531   5.907  34.422   2.866
29271W        W88532  13.628  34.488   3.739
29272W        W88533  18.140  14.326  13.034
29273W        W88534  43.943   3.841   1.239
29274W        W88535  32.112  39.991  12.927
29275W        W88536  12.807  14.335  12.456
29276W        W88537   5.230  36.353   3.231
29277W        W88538  26.026  19.111  14.900
29278W        W88539  27.669  18.750   1.214
29279W        W88540  37.001  14.832   0.448
29280W        W88541  33.038  14.334   1.738
29281W        W88542  31.553  30.475  11.963
29282W        W88543  35.516  20.112  14.409
29283W        W88544  28.134  14.321   3.667
29284W        W88545  35.360  25.604   1.795
29285W        W88546  38.902  10.234  12.998
29286W        W88547  41.795  36.567  13.951
29287W        W88548  17.264  38.829   3.351
29288W        W88549   3.756   1.760  12.917
29289W        W88550   7.721  42.452  13.319
29290W        W88551  30.152  31.592  12.489
29291W        W88552  35.385  30.075   2.712
29292W        W88553  23.582  16.582   2.788
29293W        W88554  25.974  38.822   4.627
29294W        W88555   7.811  17.243   3.712
29295W        W88556  18.209  12.189  12.931
29296W        W88557  15.194  30.941   1.862
29297W        W88558  22.116  26.611   3.675
29298W        W88559  27.002  24.613   4.189
29299W        W88560  29.142  22.557   0.893
29300W        W88561  38.331   8.304   1.344
29301W        W88562  29.549  36.022   4.173
29302W        W88563  14.660  42.020   2.411
29303W        W88564  34.373  16.100   1.755
29304W        W88565  34.996  28.112   5.181
29305W        W88566  41.805  16.633  10.973
29306W        W88567  27.981   1.946   2.239
29307W        W88568  44.464  23.223   0.832
29308W        W88569   0.887  22.587   2.314
29309W        W88570  20.716  13.710  12.992
29310W        W88571   2.390  43.824   4.700
29311W        W88572  35.028  19.157   3.766
29312W        W88573  41.943  32.931   2.742
29313W        W88574  35.935   2.809   4.818
29314W        W88575  15.702  15.184  10.955
29315W        W88576   2.308  23.217   0.428
29316W        W88577   9.806  16.789   2.414
29317W        W88578  25.550   0.473   0.268
29318W        W88579  31.641   1.398  13.055
29319W        W88580  42.000  16.183   3.656
29320W        W88581   3.783  10.348   4.322
29321W        W88582   6.704   6.314   0.380
29322W        W88583  17.195  36.042   4.258
29323W        W88584  22.149  22.011   0.395
29324W        W88585  24.169  37.894  13.385
29325W        W88586  29.646   4.226   1.775
29326W        W88587  18.608  26.141  14.362
29327W        W88588  16.786  14.622   0.915
29328W        W88589  27.608  38.481   4.772
29329W        W88590  40.392  18.096  14.843
29330W        W88591  22.078  28.574  12.543
29331W        W88592  20.241  33.594   9.956
29332W        W88593  44.472  28.986   5.202
29333W        W88594  36.378  29.171   1.807
29334W        W88595  35.414  10.755   4.749
29335W        W88596  37.405  41.486   3.718
29336W        W88597  37.935  38.001   3.801
29337W        W88598  14.740  20.582  14.023
29338W        W88599   9.231  29.577   3.684
29339W        W88600   9.752   4.368   2.845
29340W        W88601  16.234   7.248  12.962
29341W        W88602  23.030  25.677  11.901
29342W        W88603  35.986  36.536   0.283
29343W        W88604  21.706  12.260  13.531
29344W        W88605   9.253  21.673  13.952
29345W        W88606  31.435  36.913  10.550
29346W        W88607  13.744  24.680  13.397
29347W        W88608  21.218  38.369  12.567
29348W        W88609  12.146  32.520   3.816
29349W        W88610  26.517  27.096  12.485
29350W        W88611  23.198  25.596  12.958
29351W        W88612  29.484  10.281  12.856
29352W        W88613   9.796  26.103  11.987
29353W        W88614   0.447   3.373  12.892
29354W        W88615  41.888   9.310   0.260
29355W        W88616  38.875  36.463   4.631
29356W        W88617  36.477  42.011   2.378
29357W        W88618  13.789   1.957  13.514
29358W        W88619  31.633  39.880  11.903
29359W        W88620  19.696  32.958   2.827
29360W        W88621  32.111  32.002  13.932
29361W        W88622   8.708  15.087  13.799
29362W        W88623  27.523  15.212  14.031
29363W        W88624   2.326   0.908  13.897
29364W        W88625  37.876   0.960   1.903
29365W        W88626   5.388   6.780  11.086
29366W        W88627  42.988  44.377   0.432
29367W        W88628  16.759  37.856  12.935
29368W        W88629  24.611  26.984   4.317
29369W        W88630  30.920   7.373   1.314
29370W        W88631  42.321   1.268   2.212
29371W        W88632  13.131   1.949   1.734
29372W        W88633  31.915  27.608  12.495
29373W        W88634  33.991  33.414  12.458
29374W        W88635   9.324  35.375   2.223
29375W        W88636  43.307  12.126  14.798
29376W        W88637  26.696  39.476  14.897
29377W        W88638   6.778  12.768  12.371
29378W        W88639  32.622   8.748   1.212
29379W        W88640  40.912   7.400   2.855
29380W        W88641  34.909  30.988  13.983
29381W        W88642  30.557  33.930   1.276
29382W        W88643  10.743  31.907  14.993
29383W        W88644  40.498   0.321  12.855
29384W        W88645   9.272  24.700   0.340
29385W        W88646   8.390  23.680   0.801
29386W        W88647  39.520  12.650  14.339
29387W        W88648  41.342   3.791  13.510
29388W        W88649  19.695  31.974   1.714
29389W        W88650   6.396  14.792  13.848
29390W        W88651  25.646  17.596   3.254
29391W        W88652  43.875   8.677   0.783
29392W        W88653  34.454  43.286   1.712
29393W        W88654  32.611  13.129   3.175
29394W        W88655  23.683  42.475   2.352
29395W        W88656   3.778  20.608  12.483
29396W        W88657   5.848  40.009   1.760
29397W        W88658   1.765  35.407   3.266
29398W        W88659  25.006  15.823  10.965
29399W        W88660   4.257  31.012  14.022
29400W        W88661  25.659  11.845  10.489
29401W        W88662   1.889  20.536  10.593
29402W        W88663  14.215   4.249   1.910
29403W        W88664  35.590  13.740  11.102
29404W        W88665  32.415  42.927   4.822
29405W        W88666   9.658   0.957   3.668
29406W        W88667  40.798   3.927   0.356
29407W        W88668   5.813   0.482   4.832
29408W        W88669  34.512   1.937   4.277
29409W        W88670   8.880  37.890  11.884
29410W        W88671  23.090   6.354   2.255
29411W        W88672  29.015   4.358   1.378
29412W        W88673  11.842   4.699  12.048
29413W        W88674  40.322  40.986  11.586
29414W        W88675  24.173  21.515   4.632
29415W        W88676   0.946  41.518   9.958
29416W        W88677  23.043  27.050  12.453
29417W        W88678  11.185  17.262   2.806
29418W        W88679  12.678   5.921   3.665
29419W        W88680  12.826   0.304   3.381
29420W        W88681  33.087  12.769  14.412
29421W        W88682  21.528   1.241  14.772
29422W        W88683  39.520   3.878  12.443
29423W        W88684   3.874  16.571  11.048
29424W        W88685  10.637  30.111   4.240
29425W        W88686   0.983  26.686  12.447
29426W        W88687  29.540   6.396   2.796
29427W        W88688  24.980  34.916  12.372
29428W        W88689  28.965   1.742  12.522
29429W        W88690  36.450  44.827   3.818
29430W        W88691   0.418  13.159  13.474
29431W        W88692  29.091   2.361   2.370
29432W        W88693  18.657   8.400  13.968
29433W        W88694  31.641   4.427  11.007
29434W        W88695  19.753   9.201  14.470
29435W        W88696  36.939  30.444   1.719
29436W        W88697  35.001   5.828   1.727
29437W        W88698  20.194  28.044  14.486
29438W        W88699   8.851  30.029   0.807
29439W        W88700   2.289  15.236   3.654
29440W        W88701  14.134  12.334   1.330
29441W        W88702  11.281   1.479  12.065
29442W        W88703  15.665  31.473   2.863
29443W        W88704  30.002  16.673   4.142
29444W        W88705  32.445  25.552  14.864
29445W        W88706  37.496   7.680   0.933
29446W        W88707   0.290  19.126  11.022
29447W        W88708  15.710  24.597  12.848
29448W        W88709   3.435  10.369   2.770
29449W        W88710  18.593   1.757   0.248
29450W        W88711  33.600  23.145  14.355
29451W        W88712   8.695   3.904   2.239
29452W        W88713  23.166   6.893  12.351
29453W        W88714  19.717  21.617   4.306
29454W        W88715  35.438  10.732   2.336
29455W        W88716   0.781  31.996   2.817
29456W        W88717   6.410  28.105   1.235
29457W        W88718  41.392  22.203  14.794
29458W        W88719   9.364   6.763  11.379
29459W        W88720  14.609  10.343  10.116
29460W        W88721  41.881  36.350   5.306
29461W        W88722  18.544  39.026   4.819
29462W        W88723  36.861   5.202  10.644
29463W        W88724  29.168  17.086   2.850
29464W        W88725  22.529   3.721  12.907
29465W        W88726  39.973   2.846  14.326
29466W        W88727  37.540  32.061   2.391
29467W        W88728  44.409  26.652  12.094
29468W        W88729  10.361  27.466   4.263
29469W        W88730  18.227  21.584  11.512
29470W        W88731   1.777  30.583  11.128
29471W        W88732  19.271  20.251   1.417
29472W        W88733  39.019  32.623   2.345
29473W        W88734  40.412   2.386  14.790
29474W        W88735  40.518  13.278   0.883
29475W        W88736  10.278   0.937   0.481
29476W        W88737  36.975  13.296  12.521
29477W        W88738  17.230  14.649   3.271
29478W        W88739  41.801  35.579   2.324
29479W        W88740  36.592  33.478   3.157
29480W        W88741  41.897  12.334   0.912
29481W        W88742  44.980  19.284   0.429
29482W        W88743  39.993   0.885   2.830
29483W        W88744  41.401   3.216  10.558
29484W        W88745   0.761  14.764   3.243
29485W        W88746  21.537   4.918  11.927
29486W        W88747  23.035  31.547   2.298
29487W        W88748  37.942  28.655   1.786
29488W        W88749  26.175  32.036  10.012
29489W        W88750   1.906  11.280  10.924
29490W        W88751  29.152  20.134  14.012
29491W        W88752  43.321   1.291  13.812
29492W        W88753   3.239  17.217   5.308
29493W        W88754  38.823  38.361  11.563
29494W        W88755   4.309  14.161   3.352
29495W        W88756  28.623  41.009  11.880
29496W        W88757  25.658  29.641  12.517
29497W        W88758  38.009  26.486   3.283
29498W        W88759   0.254  16.224   1.906
29499W        W88760  19.246   5.738   1.292
29500W        W88761  18.651   9.362  13.931
29501W        W88762  43.997  25.110  13.376
29502W        W88763  12.707   3.725  11.888
29503W        W88764  26.624  28.042   2.187
29504W        W88765  11.824  25.670  14.868
29505W        W88766  15.619  33.113  14.881
29506W        W88767  35.896  38.527  12.539
29507W        W88768  32.081  12.680   0.783
29508W        W88769  34.557  20.223  12.376
29509W        W88770  33.941  17.602  11.379
29510W        W88771  38.509  29.623   1.380
29511W        W88772   6.797  10.651   1.441
29512W        W88773  37.410   0.979  10.953
29513W        W88774  39.834  15.103   1.840
29514W        W88775   3.792  35.045   1.880
29515W        W88776  35.366  41.796  11.563
29516W        W88777   7.840  25.594   2.855
29517W        W88778   8.217  36.094  11.601
29518W        W88779   1.395  41.999   2.296
29519W        W88780  20.168  13.243  14.978
29520W        W88781  30.531  10.672   4.269
29521W        W88782  22.205  31.635  11.505
29522W        W88783   5.292   6.339   2.821
29523W        W88784  33.572  32.887   3.166
29524W        W88785  10.855  13.317   3.641
29525W        W88786  26.675  43.388   3.665
29526W        W88787  44.903  42.292  12.016
29527W        W88788  18.566  24.051  14.786
29528W        W88789  37.830  19.702   0.918
29529W        W88790  28.970   0.443   3.292
29530W        W88791  12.661   3.246   1.231
29531W        W88792   2.451  43.371  13.805
29532W        W88793  23.141  24.045  10.918
29533W        W88794  41.520  32.940   1.421
29534W        W88795  29.930  12.310  14.498
29535W        W88796  37.967  40.305  12.562
29536W        W88797  22.155  41.930  14.877
29537W        W88798  31.907  44.282   1.286
29538W        W88799   2.919  32.122  11.611
29539W        W88800  17.774  30.619  13.341
29540W        W88801  29.957  28.142  13.324
29541W        W88802  36.437  11.749   4.156
29542W        W88803   3.418  44.949   3.147
29543W        W88804  31.488  26.500  10.925
29544W        W88805  44.382  27.590   2.681
29545W        W88806  13.681  21.031   4.118
29546W        W88807  35.045  43.495  10.926
29547W        W88808  37.346   6.286   4.305
29548W        W88809  23.608  32.509  14.369
29549W        W88810  40.355  26.523  12.936
29550W        W88811  36.551   0.885  13.519
29551W        W88812  28.093  24.159   1.753
29552W        W88813  29.158  42.464  11.112
29553W        W88814  26.622  38.402  14.854
29554W        W88815  10.164  27.528   2.790
29555W        W88816  40.479   8.732  10.899
29556W        W88817  38.555  22.216  12.921
29557W        W88818   3.821   5.393   9.667
29558W        W88819  21.518  37.974  14.946
29559W        W88820  10.228  19.715  12.949
29560W        W88821  26.666  37.467   1.871
29561W        W88822  40.540  23.053  11.550
29562W        W88823  27.172  11.222  14.379
29563W        W88824   1.477  40.410  12.455
29564W        W88825  13.320  14.279   5.289
29565W        W88826  30.569  26.685  10.623
29566W        W88827   7.392  18.175  12.079
29567W        W88828  41.435  42.012  11.980
29568W        W88829  36.526   4.760   1.856
29569W        W88830   5.204  26.097   4.341
29570W        W88831  14.325  22.669  10.490
29571W        W88832  29.668  39.937  11.053
29572W        W88833  43.273  34.381   4.305
29573W        W88834  18.074  12.261  11.434
29574W        W88835  21.241  38.842   3.210
29575W        W88836  30.617  24.572   2.303
29576W        W88837  11.774   8.260   1.813
29577W        W88838  33.973  24.004  11.012
29578W        W88839  10.231   7.296   2.826
29579W        W88840  12.822   6.838   0.770
29580W        W88841  44.768  37.877   2.316
29581W        W88842   2.789  14.642  10.961
29582W        W88843  33.024  10.788   2.214
29583W        W88844  10.335   0.369  14.862
29584W        W88845  27.169  32.895   0.736
29585W        W88846  19.675  40.342  13.922
29586W        W88847   6.821  17.142  12.365
29587W        W88848   8.810  30.488   3.724
29588W        W88849  37.026   7.875  10.909
29589W        W88850  42.955  29.003  14.804
29590W        W88851  26.182  38.021  10.945
29591W        W88852  32.102   5.890  11.858
29592W        W88853  14.829   4.279  13.994
29593W        W88854  39.953  20.531   0.939
29594W        W88855   1.780  34.069   1.872
29595W        W88856  27.071  36.980  12.946
29596W        W88857  14.312   7.813   3.845
29597W        W88858  13.829  36.489  11.371
29598W        W88859  39.469  34.424  13.893
29599W        W88860  33.998  18.241   0.413
29600W        W88861  27.637  26.090  11.979
29601W        W88862  18.591  30.628  13.482
29602W        W88863  37.526   5.289   0.337
29603W        W88864  21.626   1.238   3.387
29604W        W88865  39.951  11.803   3.737
29605W        W88866  34.008  14.731  12.477
29606W        W88867  10.744  23.509   0.444
29607W        W88868   4.775  16.612   2.216
29608W        W88869  35.518  26.661  13.446
29609W        W88870  14.795  26.157   3.800
29610W        W88871  20.161  42.289   0.412
29611W        W88872   7.385  40.382   0.417
29612W        W88873  34.939   1.865  12.384
29613W        W88874  44.502  21.019   1.241
29614W        W88875  21.201  22.636   2.701
29615W        W88876  43.013   7.175  13.484
29616W        W88877  25.189  24.022   1.868
29617W        W88878   2.274   3.348  10.084
29618W        W88879  26.089  23.672   2.256
29619W        W88880  30.039  15.808  11.462
29620W        W88881  15.216  38.898  12.839
29621W        W88882  34.560  24.583   0.739
29622W        W88883  40.055   6.206  14.899
29623W        W88884  15.695   2.244  11.879
29624W        W88885  27.576  27.457  13.042
29625W        W88886  10.278  25.594   1.737
29626W        W88887  23.040   4.240   1.792
29627W        W88888  33.430  10.163  13.543
29628W        W88889  23.052  28.152  14.974
29629W        W88890   9.670  26.647   3.248
29630W        W88891  32.600  10.353  14.391
29631W        W88892   9.195  12.359   0.270
29632W        W88893  40.897   6.323  13.835
29633W        W88894  12.324  34.453  13.970
29634W        W88895  15.110  25.693  11.588
29635W        W88896   1.928  13.324  13.541
29636W        W88897  27.662  31.596  10.142
29637W        W88898  37.460   7.878   1.869
29638W        W88899  17.702  40.478  13.500
29639W        W88900  11.276   1.249   4.290
29640W        W88901  33.606  31.009   1.842
29641W        W88902   7.369   4.901   5.671
29642W        W88903   4.414   8.398  14.332
29643W        W88904  41.368  35.942  10.071
29644W        W88905  32.567  26.542  12.507
29645W        W88906   7.704  32.442   2.387
29646W        W88907  27.569  16.233   4.732
29647W        W88908   3.265  34.504   3.305
29648W        W88909  31.009   1.303   0.325
29649W        W88910  21.202  24.139   4.701
29650W        W88911   3.215   9.310  13.439
29651W        W88912  17.717   9.795   3.211
29652W        W88913  28.453   6.920   0.433
29653W        W88914  38.390  29.929   1.390
29654W        W88915  31.067   3.759  13.970
29655W        W88916  32.621  42.404   2.771
29656W        W88917   5.889  30.126   1.773
29657W        W88918  32.968  15.596  11.922
29658W        W88919  21.725  42.363  11.989
29659W        W88920  12.673  30.994  11.597
29660W        W88921   1.242  18.084   0.419
29661W        W88922   7.860  38.417  14.398
29662W        W88923  27.980   7.233  12.342
29663W        W88924  27.555  17.558   3.324
29664W        W88925   1.320  19.613  13.447
29665W        W88926  17.609  42.369   2.409
29666W        W88927  36.358   0.343   3.686
29667W        W88928  15.277  38.026   1.227
29668W        W88929  28.541  38.911   1.292
29669W        W88930  33.012  31.527  11.552
29670W        W88931  28.086  41.938   3.710
29671W        W88932   9.366  40.376  14.969
29672W        W88933   0.401  25.184  14.351
29673W        W88934  25.986  23.663  11.060
29674W        W88935  39.413   6.727   3.367
29675W        W88936  30.104   9.170  10.602
29676W        W88937  44.004  25.509   4.807
29677W        W88938  24.204  32.060   3.695
29678W        W88939  17.255  12.856   3.171
29679W        W88940  38.366  35.381  13.937
29680W        W88941  37.065   0.785   3.795
29681W        W88942  22.155   5.424   2.217
29682W        W88943   3.769  12.836  10.617
29683W        W88944  11.309  29.641   3.743
29684W        W88945  18.668   2.351   4.264
29685W        W88946  39.877   6.194   4.345
29686W        W88947   0.481  29.496  12.088
29687W        W88948  25.967  33.593   0.448
29688W        W88949  43.367  38.875  13.045
29689W        W88950  18.155  17.212  10.922
29690W        W88951  22.617  37.892   3.187
29691W        W88952   9.664   3.266  11.989
29692W        W88953  21.214  22.098  11.986
29693W        W88954  20.142  22.697  14.355
29694W        W88955  37.889  36.971   0.944
29695W        W88956   0.263  18.636   9.549
29696W        W88957  22.564  21.037   4.784
29697W        W88958   9.646  40.002  13.442
29698W        W88959  28.115  23.141   4.279
29699W        W88960  25.708  26.557   1.918
29700W        W88961  28.529  34.588   0.756
29701W        W88962  13.604  16.169   3.711
29702W        W88963  22.015  20.183   3.250
29703W        W88964  10.643  17.240   0.269
29704W        W88965  11.167   2.333   4.345
29705W        W88966  30.140   4.416   0.465
29706W        W88967   7.753  41.881  10.957
29707W        W88968  40.802  13.351   2.377
29708W        W88969  34.982  37.400  13.012
29709W        W88970  17.273   4.363  12.353
29710W        W88971  39.873  44.929   3.208
29711W        W88972  32.118  32.894   3.644
29712W        W88973   1.477  17.648   4.229
29713W        W88974   5.267  33.585  12.885
29714W        W88975   6.857  34.907   4.187
29715W        W88976  34.943  28.628  14.885
29716W        W88977  44.887  32.421   3.867
29717W        W88978  11.177  36.553  12.962
29718W        W88979  24.136  23.610   0.251
29719W        W88980  26.647  22.711  12.837
29720W        W88981  14.294  22.996   1.838
29721W        W88982  10.210  42.824  10.407
29722W        W88983  17.743  40.846  13.864
29723W        W88984  41.977  23.625  12.031
29724W        W88985  41.333  38.858  13.363
29725W        W88986  31.484  41.825  12.837
29726W        W88987   8.768  25.173  14.414
29727W        W88988   8.660   2.289   2.334
29728W        W88989  29.475   8.690  10.908
29729W        W88990  31.047  35.940   3.156
29730W        W88991  33.490  28.958  14.415
29731W        W88992  40.412  40.381   2.177
29732W        W88993   1.932  18.561  13.958
29733W        W88994  32.961  41.449  11.428
29734W        W88995  34.502  36.388   4.809
29735W        W88996  37.840  32.585  11.086
29736W        W88997  21.115  37.414  10.427
29737W        W88998  35.540  40.918  13.873
29738W        W88999  44.008   9.645  10.951
29739W        W89000  23.692  27.501   1.890
29740W        W89001   6.370  41.323   4.620
29741W        W89002  20.191  18.113   2.333
29742W        W89003  32.570  25.186  10.408
29743W        W89004  32.938   1.966  14.384
29744W        W89005  31.000  13.828  12.436
29745W        W89006  39.862  24.143   3.285
29746W        W89007   5.849  38.436   1.297
29747W        W89008  11.725   2.290  13.856
29748W        W89009  24.131  22.575  12.828
29749W        W89010   9.385  42.446  13.321
29750W        W89011   6.211   4.256   0.482
29751W        W89012   5.852  32.067  10.438
29752W        W89013   2.268   5.258   1.212
29753W        W89014  16.258   1.409  14.437
29754W        W89015  23.030  10.273  11.380
29755W        W89016  11.678  17.781  12.524
29756W        W89017  25.139   8.264  11.066
29757W        W89018  21.129  17.280   4.245
29758W        W89019  19.710   2.411   0.935
29759W        W89020  31.619  30.623   0.880
29760W        W89021  17.082   0.834   2.269
29761W        W89022  38.034  16.200   0.954
29762W        W89023  14.708   0.911   3.801
29763W        W89024  44.768   8.298   3.851
29764W        W89025  20.673  20.220   3.300
29765W        W89026  28.491  23.600  11.565
29766W        W89027  19.773  25.072   0.738
29767W        W89028   2.375  15.615   1.786
29768W        W89029  32.597  38.430   4.691
29769W        W89030  38.529  18.615  11.015
29770W        W89031  34.002  20.061  14.816
29771W        W89032  44.003  13.204   2.816
29772W        W89033  25.029  38.566  11.907
29773W        W89034   6.186  35.419   2.382
29774W        W89035  41.860  31.053   4.130
29775W        W89036   8.199  30.450  10.446
29776W        W89037  34.887  25.028  12.035
29777W        W89038  14.629  14.207   3.821
29778W        W89039   9.831  22.231   0.372
29779W        W89040  40.878  11.130   2.685
29780W        W89041   0.930  22.695   4.287
29781W        W89042  10.357  16.695   3.729
29782W        W89043   1.817   2.794   2.224
29783W        W89044  14.607   1.238  14.480
29784W        W89045  11.827  36.451  13.448
29785W        W89046  12.628  19.211   1.801
29786W        W89047  21.216  28.136  10.643
29787W        W89048  31.515  42.356  11.408
29788W        W89049  11.172  17.138   3.227
29789W        W89050  11.259  27.154  10.562
29790W        W89051  20.096  13.803  11.877
29791W        W89052  43.816  35.447  13.028
29792W        W89053   7.193  23.153  12.016
29793W        W89054   3.398  43.375  10.641
29794W        W89055  25.214   5.744  14.458
29795W        W89056   7.831   6.305  14.506
29796W        W89057   0.859  40.404   0.324
29797W        W89058  33.511  25.710   4.631
29798W        W89059  24.086   2.437   0.826
29799W        W89060  38.373  19.104  11.969
29800W        W89061  10.221  22.674  10.949
29801W        W89062  12.256  23.077  14.452
29802W        W89063   3.920  43.501  12.870
29803W        W89064  22.649   5.904  11.050
29804W        W89065  25.220   4.826   0.378
29805W        W89066  27.053   0.834   2.321
29806W        W89067  31.472   6.183  10.489
29807W        W89068   1.820  14.641  13.955
29808W        W89069  35.051  39.920  11.946
29809W        W89070  19.730  28.440   1.868
29810W        W89071  13.683   1.387  12.510
29811W        W89072   1.945   0.417   1.854
29812W        W89073  43.004   5.877  13.958
29813W        W89074  25.135  20.073  14.961
29814W        W89075  11.765  31.435   4.774
29815W        W89076  21.530  38.557   4.656
29816W        W89077  42.959  10.710  11.867
29817W        W89078   1.461   8.695  13.362
29818W        W89079  40.988  22.217   4.729
29819W        W89080  13.195  39.511   0.447
29820W        W89081  19.680   7.176  14.997
29821W        W89082  28.590   6.302   0.952
29822W        W89083  30.078  36.969   2.874
29823W        W89084  19.591   0.414   3.351
29824W        W89085  15.616  39.863   3.801
29825W        W89086  10.851  28.564   1.270
29826W        W89087  43.316  26.983  14.882
29827W        W89088   0.444  32.523   2.824
29828W        W89089  27.043   9.713   3.815
29829W        W89090  16.687   3.398   9.944
29830W        W89091  23.521   4.839   2.198
29831W        W89092  38.384  37.010   1.900
29832W        W89093  34.891  36.971   1.737
29833W        W89094  20.631  21.529  10.433
29834W        W89095  36.587   8.195   0.805
29835W        W89096  26.148  14.303  14.906
29836W        W89097  36.053   2.334  14.403
29837W        W89098   9.774  44.948  12.504
29838W        W89099  28.603   3.388  11.551
29839W        W89100  37.370  32.433   2.290
29840W        W89101  15.816  26.106   3.810
29841W        W89102  34.533   3.279   4.602
29842W        W89103  28.441  18.233   2.383
29843W        W89104  14.233  14.266  12.075
29844W        W89105   2.960  31.426   3.185
29845W        W89106  25.494   4.816   3.652
29846W        W89107  29.605   1.403  11.452
29847W        W89108  21.101  20.191  12.963
29848W        W89109  35.969  28.153   0.337
29849W        W89110  11.280  37.439   0.732
29850W        W89111   2.808  42.430  12.006
29851W        W89112  42.362  29.093   0.887
29852W        W89113  14.694  41.307  13.401
29853W        W89114  38.848   6.329   4.629
29854W        W89115  22.142  41.374  10.584
29855W        W89116  44.271  34.065   0.823
29856W        W89117  28.599   4.399   1.792
29857W        W89118  36.981  18.147   2.242
29858W        W89119  38.936   1.781  13.006
29859W        W89120   5.279  41.931  10.559
29860W        W89121  44.790  23.637   4.296
29861W        W89122   5.391  24.202  11.495
29862W        W89123  10.712  16.747   2.294
29863W        W89124  32.603   7.338   0.295
29864W        W89125  35.946  36.538   1.307
29865W        W89126   5.320  32.032   2.223
29866W        W89127  43.494  11.707   3.789
29867W        W89128  27.994   7.307   1.759
29868W        W89129   9.234  15.242   3.167
29869W        W89130  18.652  32.119  10.155
29870W        W89131  16.643  22.637  11.002
29871W        W89132  27.112  28.610  13.981
29872W        W89133  39.353   2.832  10.618
29873W        W89134  18.668   4.442   0.257
29874W        W89135  16.624  29.020  13.946
29875W        W89136  42.975  35.093  12.509
29876W        W89137  36.891  24.204  11.038
29877W        W89138  15.212   9.860   3.195
29878W        W89139  38.452   8.808  13.348
29879W        W89140  41.889  44.432  13.875
29880W        W89141  40.463  33.891  11.967
29881W        W89142  12.264  34.603   4.115
29882W        W89143  34.112  18.283   2.259
29883W        W89144   4.847   7.812   3.818
29884W        W89145  41.810  20.738  11.041
29885W        W89146  39.436  11.367   1.733
29886W        W89147   6.316  21.721   1.743
29887W        W89148   9.298   4.704  10.037
29888W        W89149  39.475  23.141   0.344
29889W        W89150  30.515  36.899  12.416
29890W        W89151  11.801   5.377   1.397
29891W        W89152  11.718  15.719  14.452
29892W        W89153  19.162   5.318  10.609
29893W        W89154   7.725  20.175  11.485
29894W        W89155  15.204  38.901   0.384
29895W        W89156  10.738  35.869   1.437
29896W        W89157  18.173  40.825   2.188
29897W        W89158  17.216  27.499  12.360
29898W        W89159   3.238   1.738  11.107
29899W        W89160  35.090  42.932  13.463
29900W        W89161  41.935   1.780   2.201
29901W        W89162  23.217  12.359  10.580
29902W        W89163  35.027  42.978   0.797
29903W        W89164  28.069   5.929   2.201
29904W        W89165  10.836  25.519  11.381
29905W        W89166  30.039  32.615   4.136
29906W        W89167   0.879   4.880  13.896
29907W        W89168  41.524  24.559  12.914
29908W        W89169   8.654  13.140   2.193
29909W        W89170  14.137   5.885   3.264
29910W        W89171  17.238  40.499   5.128
29911W        W89172   0.346   3.901   2.724
29912W        W89173   7.833  14.736  10.544
29913W        W89174  40.828   9.322  10.950
29914W        W89175  34.116   6.743   1.250
29915W        W89176  41.030  43.892  14.448
29916W        W89177  24.060  18.619  13.857
29917W        W89178   1.963   5.920   3.164
29918W        W89179  38.868   5.859  12.949
29919W        W89180  34.991  18.588  11.942
29920W        W89181  12.161  20.082  13.402
29921W        W89182  13.803  21.068   3.170
29922W        W89183  44.919  29.109   0.325
29923W        W89184  30.005  42.797  10.959
29924W        W89185  41.477   1.307   4.285
29925W        W89186  30.004  14.330  11.520
29926W        W89187  15.777   1.844  12.520
29927W        W89188  44.265  34.019   4.834
29928W        W89189  13.772  43.336   0.325
29929W        W89190  24.500  23.235  14.398
29930W        W89191  16.085  11.796   2.313
29931W        W89192   8.835  20.688   3.778
29932W        W89193  34.893  29.528   4.817
29933W        W89194  43.835  21.644   4.648
29934W        W89195   2.830  26.150   4.204
29935W        W89196  39.949   4.274   2.829
29936W        W89197   1.957  39.852  11.597
29937W        W89198  36.404  32.451   0.883
29938W        W89199  18.763  21.121  11.945
29939W        W89200   1.896  19.166   4.263
29940W        W89201   8.391   7.258   3.185
29941W        W89202  21.109  15.272   4.242
29942W        W89203  15.823  19.617  14.481
29943W        W89204  11.276  14.688   0.292
29944W        W89205  27.092  17.097   3.296
29945W        W89206  22.661  44.779   3.233
29946W        W89207  27.087  35.866   0.375
29947W        W89208  43.314   6.245   4.717
29948W        W89209  16.290  39.424   4.301
29949W        W89210   7.257  23.500  13.917
29950W        W89211   3.323  39.507   4.174
29951W        W89212  31.954  24.011   3.736
29952W        W89213  22.675   1.926   4.798
29953W        W89214  40.032  21.715   1.354
29954W        W89215   0.491  20.179  12.981
29955W        W89216   9.795   7.713   4.207
29956W        W89217  12.720   1.286   4.138
29957W        W89218  10.218  12.713  13.449
29958W        W89219  41.040  17.786   0.943
29959W        W89220  10.145  38.010  13.993
29960W        W89221   2.733  12.211  12.828
29961W        W89222  13.724  14.295   1.809
29962W        W89223   7.768  12.843  13.037
29963W        W89224  19.574   5.212  10.617
29964W        W89225  30.060  17.131  14.997
29965W        W89226  21.163  39.334  11.014
29966W        W89227  31.579  28.664   3.683
29967W        W89228   8.654  13.200  13.504
29968W        W89229  43.308   2.255   2.314
29969W        W89230  41.829  43.288  12.448
29970W        W89231  35.480   7.400  14.400
29971W        W89232  21.117  14.639  10.957
29972W        W89233  17.142  35.923  13.442
29973W        W89234  18.144  38.454  12.411
29974W        W89235  15.724  17.137  14.423
29975W        W89236  31.508  38.063   4.237
29976W        W89237  13.818  15.170  14.908
29977W        W89238  41.002  38.459  11.495
29978W        W89239   7.274  26.496   1.306
29979W        W89240  10.183   3.728   2.412
29980W        W89241  38.342  36.588   0.915
29981W        W89242  39.990  37.402  11.071
29982W        W89243  17.112  14.788  10.526
29983W        W89244  28.154  31.938   4.254
29984W        W89245  42.498   1.348  12.973
29985W        W89246  42.458  25.679  13.332
29986W        W89247   5.273   7.211  14.316
29987W        W89248   0.410  15.110   4.340
29988W        W89249   3.250  19.696  11.441
29989W        W89250  12.145  11.313   2.876
29990W        W89251  36.037   0.773  11.868
29991W        W89252  20.731   5.324   1.699
29992W        W89253   3.756  44.502   4.725
29993W        W89254  39.337   6.246   2.855
29994W        W89255  36.904   0.952   1.239
29995W        W89256  34.504  25.477   4.113
29996W        W89257  29.496  43.829   2.864
29997W        W89258  18.287  24.119   0.431
29998W        W89259  33.884  23.223   4.732
29999W        W89260  39.559  34.062   0.327
30000W        W89261  13.625  37.931   4.610
30001W        W89262  37.559   7.859  13.365
30002W        W89263  29.024  37.941   0.352
30003W        W89264  28.626  17.188  11.948
30004W        W89265  27.490   2.271   2.286
30005W        W89266  27.598  40.885   0.380
30006W        W89267   0.376  26.037  11.903
30007W        W89268  10.286   3.271  13.400
30008W        W89269  44.468  13.134  14.002
30009W        W89270  11.634  41.975  10.441
30010W        W89271  38.896  29.115  11.400
30011W        W89272  15.142   1.373   1.344
30012W        W89273  17.180   2.274   0.914
30013W        W89274  29.128  17.269  12.860
30014W        W89275  10.373  11.756   3.807
30015W        W89276  43.323  28.018   1.212
30016W        W89277   1.844  28.983  11.997
30017W        W89278   0.818  17.230  13.853
30018W        W89279  13.761  40.469  11.093
30019W        W89280  17.800  40.316  12.019
30020W        W89281  29.094   1.270   1.333
30021W        W89282  40.357  43.332  13.822
30022W        W89283  32.598  12.328  10.000
30023W        W89284  29.135  13.685  12.507
30024W        W89285  16.193  10.383   0.850
30025W        W89286  10.217   1.957  12.386
30026W        W89287  29.430  40.851  11.906
30027W        W89288  25.697  23.537   3.212
30028W        W89289  11.651  28.026  14.771
30029W        W89290  40.992  26.658   2.394
30030W        W89291   6.684  14.228   3.808
30031W        W89292  11.814  13.323  13.050
30032W        W89293  12.851  40.388   0.325
30033W        W89294   2.435  13.227  12.877
30034W        W89295  28.040  27.600  10.513
30035W        W89296   6.856  17.706  10.438
30036W        W89297  26.981  43.361  12.348
30037W        W89298  28.153  14.830  13.533
30038W        W89299  41.420  33.955  14.516
30039W        W89300   0.309   6.255  12.972
30040W        W89301  29.163   8.209  13.890
30041W        W89302  10.239   6.373   9.567
30042W        W89303   5.421  36.902   2.322
30043W        W89304  24.601  21.595  14.833
30044W        W89305   5.818  31.151  14.989
30045W        W89306  10.345   1.904  13.488
30046W        W89307  27.115  13.728   2.381
30047W        W89308  43.482  38.494  12.826
30048W        W89309  40.046   9.851  13.333
30049W        W89310  34.524  39.475   2.811
30050W        W89311   6.855  21.703   4.817
30051W        W89312  25.969  41.502   3.642
30052W        W89313   5.406  21.571   1.855
30053W        W89314  37.383  33.601   2.763
30054W        W89315  41.879   3.746  12.850
30055W        W89316  27.987  31.570  14.381
30056W        W89317  40.360  36.019   2.747
30057W        W89318  43.916  27.663  14.347
30058W        W89319  33.563  23.140   4.264
30059W        W89320   2.766  11.834   4.664
30060W        W89321  21.542  14.152  11.125
30061W        W89322  43.449  13.241  13.919
30062W        W89323   1.905   8.403   0.851
30063W        W89324   6.837  29.572   4.333
30064W        W89325  35.569  15.594  13.844
30065W        W89326  34.997  43.917   2.232
30066W        W89327  12.178  42.420   0.887
30067W        W89328  16.295  30.152   5.291
30068W        W89329  36.926  38.011   0.326
30069W        W89330  43.962  21.063  12.901
30070W        W89331  20.060  19.723  12.883
30071W        W89332  25.683   5.902   2.836
30072W        W89333  36.357   3.219  10.125
30073W        W89334  39.897  25.967   3.196
30074W        W89335  20.091  16.766  10.916
30075W        W89336  18.608  14.174  11.454
30076W        W89337  30.030  20.660  14.820
30077W        W89338  42.365  13.313   4.812
30078W        W89339   6.808   1.320  14.343
30079W        W89340  24.078  37.999  10.922
30080W        W89341  36.579  14.266   0.421
30081W        W89342  33.600  37.903  14.942
30082W        W89343  37.340  29.065   3.169
30083W        W89344  31.066  18.724   2.818
30084W        W89345  10.299  39.932   1.896
30085W        W89346  11.294  21.546  10.503
30086W        W89347  25.540   5.759  10.430
30087W        W89348   4.404  16.803   0.312
30088W        W89349  34.586  16.611  11.101
30089W        W89350  24.191   1.396  13.804
30090W        W89351   4.263  16.760  14.015
30091W        W89352   4.285  32.908   2.863
30092W        W89353  19.159  29.600  13.845
30093W        W89354  26.122  36.893   4.202
30094W        W89355  17.759  15.650   3.839
30095W        W89356  38.424   3.948   1.227
30096W        W89357  27.973   4.907  13.023
30097W        W89358   0.908   5.710  14.342
30098W        W89359  31.617   5.197   4.785
30099W        W89360  41.418  15.242  10.141
30100W        W89361  23.161  20.122  11.395
30101W        W89362  34.087  22.033   1.710
30102W        W89363  11.184  44.448  13.992
30103W        W89364   4.928  30.553   4.615
30104W        W89365   6.322  40.502   2.812
30105W        W89366  40.388  24.155   1.298
30106W        W89367  16.268  29.977  13.425
30107W        W89368  15.756  32.395  13.543
30108W        W89369  24.153  44.828   2.785
30109W        W89370   0.355   2.918   2.288
30110W        W89371   9.815  31.077   1.330
30111W        W89372  33.482   7.304  12.449
30112W        W89373  13.126   0.975  13.547
30113W        W89374  24.591  10.874   2.299
30114W        W89375  14.755  22.653   0.262
30115W        W89376  32.117  27.092   2.771
30116W        W89377   0.353  18.635  11.083
30117W        W89378   9.852   3.788  13.900
30118W        W89379  11.237  24.676   2.816
30119W        W89380  25.653   6.277  14.795
30120W        W89381  10.354  15.616   0.744
30121W        W89382  32.571  21.559   0.246
30122W        W89383  16.270   1.854  10.439
30123W        W89384   7.349   3.238  13.841
30124W        W89385   5.196  39.362  10.626
30125W        W89386  26.991  10.688   2.239
30126W        W89387  43.912  11.368  13.375
30127W        W89388  32.962  24.647   3.817
30128W        W89389  18.249   8.296  11.612
30129W        W89390  32.087  27.668   0.863
30130W        W89391  40.816   9.855   4.222
30131W        W89392  10.302  10.343  11.030
30132W        W89393   3.768  35.982  11.067
30133W        W89394  44.815  31.514   3.831
30134W        W89395  40.316  19.739   0.328
30135W        W89396  33.417   2.796   1.359
30136W        W89397  43.511  18.197  10.126
30137W        W89398  35.895  28.009   4.770
30138W        W89399  32.127   5.711  13.480
30139W        W89400   1.766  32.967  11.573
30140W        W89401   3.945   9.708   0.758
30141W        W89402  42.283  13.141  12.861
30142W        W89403  17.180  25.699   1.237
30143W        W89404  11.682   2.306   3.762
30144W        W89405   5.356  22.558   4.115
30145W        W89406  27.567  33.501   0.812
30146W        W89407  14.819   4.768   3.709
30147W        W89408  34.604   3.765  10.433
30148W        W89409  22.189  22.091  12.467
30149W        W89410  19.058   5.895   4.766
30150W        W89411  36.491   5.349   1.784
30151W        W89412  17.690  14.309   2.228
30152W        W89413  11.803  17.710   0.805
30153W        W89414   3.760  18.150   0.319
30154W        W89415  28.680  41.429   4.618
30155W        W89416  27.610   2.765   1.754
30156W        W89417  16.605   3.761   5.267
30157W        W89418  23.015  38.943  12.363
30158W        W89419  18.701  38.558   4.223
30159W        W89420  31.433  44.502  10.639
30160W        W89421  21.247  27.044   5.317
30161W        W89422  31.469  25.002  14.333
30162W        W89423   3.806   5.777   2.370
30163W        W89424  39.831  35.513  11.875
30164W        W89425  17.623  21.088   2.195
30165W        W89426  31.606  17.219  11.947
30166W        W89427   1.311  34.434   3.777
30167W        W89428  24.104  29.101   0.967
30168W        W89429  19.769  18.238  13.052
30169W        W89430  14.679  19.168   4.286
30170W        W89431  23.044  16.100   1.784
30171W        W89432  27.564   3.764   3.750
30172W        W89433  12.142   8.353  14.917
30173W        W89434  26.593  15.122   3.156
30174W        W89435  12.768  28.039  11.546
30175W        W89436  10.734  34.414  11.476
30176W        W89437   0.762  13.833  14.793
30177W        W89438  33.105   5.901  10.888
30178W        W89439  26.008  23.018   3.358
30179W        W89440  29.594  32.022   3.366
30180W        W89441  14.615  15.628  13.505
30181W        W89442  26.073  26.207   3.712
30182W        W89443  13.279  44.860   0.869
30183W        W89444  13.642  40.976  10.963
30184W        W89445  28.939  19.114  13.321
30185W        W89446  38.952   9.161   2.367
30186W        W89447  25.578   2.835   1.361
30187W        W89448  10.655  43.001   3.351
30188W        W89449   2.791  14.161   0.886
30189W        W89450  23.699  33.430   4.223
30190W        W89451  27.576  37.465  10.967
30191W        W89452  25.508   5.325  14.402
30192W        W89453  29.121   9.782  12.847
30193W        W89454  44.403  18.631  14.356
30194W        W89455  43.866  20.578   1.888
30195W        W89456  42.324  40.877   0.262
30196W        W89457  22.251  41.033   4.714
30197W        W89458   1.860  11.773  12.447
30198W        W89459  31.418  41.034  11.456
30199W        W89460  39.943  21.734  13.049
30200W        W89461  38.970   4.805  14.831
30201W        W89462  36.481  30.926   1.745
30202W        W89463   8.288  38.991   4.286
30203W        W89464  39.859  42.997   1.374
30204W        W89465  28.960  37.861   4.615
30205W        W89466   8.687  38.982  14.475
30206W        W89467  42.507  35.520  12.880
30207W        W89468   2.241  10.378   4.188
30208W        W89469   1.781  28.136  10.466
30209W        W89470  19.256  20.690  12.092
30210W        W89471  40.955  16.569  12.519
30211W        W89472   3.292  38.941   4.818
30212W        W89473  30.562  42.434   3.324
30213W        W89474  42.427  39.017  10.606
30214W        W89475   5.344  27.038   0.457
30215W        W89476  24.525  26.119  13.964
30216W        W89477  10.872  29.526  12.495
30217W        W89478  38.325  24.024  12.961
30218W        W89479  34.504  20.730   1.902
30219W        W89480  40.489   5.879   0.282
30220W        W89481  17.614  16.313   3.325
30221W        W89482   0.950  44.420   0.822
30222W        W89483  27.578   3.278   1.874
30223W        W89484   2.938  20.741   2.261
30224W        W89485  43.866  14.196   5.172
30225W        W89486   6.302  17.798  12.442
30226W        W89487  25.592  40.419   0.300
30227W        W89488  25.087  12.156   3.646
30228W        W89489  33.050  28.005  10.529
30229W        W89490  40.894  13.607   4.822
30230W        W89491  19.560  40.041   2.833
30231W        W89492  33.532   4.359  13.064
30232W        W89493  31.902  13.196   1.771
30233W        W89494   8.213  21.709  11.931
30234W        W89495  21.714  20.196   2.771
30235W        W89496  34.997   8.317   3.336
30236W        W89497  22.117  40.837  14.336
30237W        W89498  10.659  11.270  14.276
30238W        W89499  36.526  21.544   4.637
30239W        W89500  17.690  19.258  14.763
30240W        W89501  43.945   0.352   0.308
30241W        W89502   4.776   1.892   1.768
30242W        W89503  30.532  10.356  14.992
30243W        W89504  11.294  38.018   3.780
30244W        W89505  41.985  22.149   4.134
30245W        W89506   8.816  20.056  10.552
30246W        W89507  17.682  38.948   1.717
30247W        W89508  38.001  29.153   2.725
30248W        W89509  21.687   1.398  10.486
30249W        W89510  17.801  24.993  11.123
30250W        W89511  13.673   3.382  13.051
30251W        W89512  38.836   2.725   3.750
30252W        W89513   1.770  20.598   3.288
30253W        W89514  40.394   7.204  12.349
30254W        W89515  37.900  13.602  13.426
30255W        W89516  38.076  26.628   2.775
30256W        W89517  30.048  43.939   2.849
30257W        W89518  26.102  20.527  10.545
30258W        W89519   3.295   9.203   1.793
30259W        W89520  22.211  33.453   4.685
30260W        W89521   9.208  31.126  11.422
30261W        W89522   3.281  41.976   0.793
30262W        W89523  41.990  37.566  12.541
30263W        W89524   7.714  42.871   5.130
30264W        W89525   4.321   8.880   2.294
30265W        W89526   6.262  34.453   0.255
30266W        W89527   6.243  42.320   4.736
30267W        W89528  17.692  37.384  12.560
30268W        W89529  20.548  13.825  10.509
30269W        W89530  36.400  41.844  10.930
30270W        W89531  28.437  25.577   4.659
30271W        W89532   9.729  39.550   1.317
30272W        W89533  15.823  19.172   4.352
30273W        W89534  44.963  41.966  14.971
30274W        W89535  36.054  33.952  13.469
30275W        W89536  21.025  19.060  13.862
30276W        W89537   5.749   7.860   3.235
30277W        W89538   9.394  21.669   1.895
30278W        W89539  28.561  39.917   0.437
30279W        W89540  35.420  27.596   4.799
30280W        W89541  27.194  11.732  13.815
30281W        W89542  15.313  12.849  10.949
30282W        W89543  26.991  32.532  14.316
30283W        W89544  23.127  35.958  14.961
30284W        W89545   8.700  10.316  12.979
30285W        W89546  11.147  11.358   0.890
30286W        W89547  24.537   3.940  12.342
30287W        W89548  23.038  13.658   2.394
30288W        W89549  31.461  14.271  11.423
30289W        W89550  29.426  25.626  11.571
30290W        W89551  28.455  18.169   0.412
30291W        W89552  42.373   7.351   3.695
30292W        W89553  31.083  39.045   2.263
30293W        W89554   2.228  28.541   2.213
30294W        W89555  40.931  43.825   4.247
30295W        W89556  21.132  19.213  11.862
30296W        W89557  19.585  30.943   3.633
30297W        W89558   0.867  41.465   2.333
30298W        W89559  34.874  24.129   0.748
30299W        W89560  34.955  34.511   0.814
30300W        W89561  16.779  39.373   2.735
30301W        W89562   7.254  25.530   0.781
30302W        W89563  18.565  26.526   1.825
30303W        W89564  22.153  21.690   4.267
30304W        W89565  37.949  27.048   2.202
30305W        W89566  27.602  39.835   4.297
30306W        W89567  29.964  11.175  14.296
30307W        W89568   2.925  43.382   1.450
30308W        W89569  17.695  41.522  11.536
30309W        W89570   7.195   5.300   2.220
30310W        W89571   1.454  13.256   2.775
30311W        W89572  36.050  11.731  13.791
30312W        W89573  22.157  10.638   0.941
30313W        W89574  35.963  25.474  11.881
30314W        W89575  30.113  30.955   0.843
30315W        W89576  37.382  13.815   0.869
30316W        W89577  29.498  10.789  13.034
30317W        W89578  22.597  44.769  13.382
30318W        W89579  18.067  16.228   1.385
30319W        W89580  35.379  25.984   4.247
30320W        W89581   9.185  40.034   4.600
30321W        W89582  25.173  24.203   4.654
30322W        W89583  40.974   0.256   1.379
30323W        W89584  40.859   6.300  12.362
30324W        W89585  25.480  21.160   3.262
30325W        W89586  30.909  15.590   9.975
30326W        W89587  42.861  23.022   2.774
30327W        W89588  29.121  40.014  12.082
30328W        W89589  39.348  26.974  12.830
30329W        W89590  40.414   7.253   4.202
30330W        W89591  11.151   1.777  13.452
30331W        W89592  43.511  30.528   3.732
30332W        W89593  21.048   9.831  11.592
30333W        W89594  10.749  35.522  13.976
30334W        W89595   3.754  38.364   0.788
30335W        W89596  16.609  18.235  14.373
30336W        W89597  24.521  19.116  12.940
30337W        W89598  40.810  42.953  11.543
30338W        W89599  23.606  26.070  14.905
30339W        W89600   4.405   7.881  11.571
30340W        W89601  23.662  42.375   0.759
30341W        W89602   5.213  25.511   2.215
30342W        W89603  40.510  33.991  13.448
30343W        W89604  40.921  10.673   3.376
30344W        W89605  42.870   0.785  13.827
30345W        W89606  39.343  28.633  12.341
30346W        W89607  25.626   3.343   1.837
30347W        W89608   8.656   1.479  14.306
30348W        W89609  39.958  28.151   1.445
30349W        W89610  38.352   2.721   3.763
30350W        W89611  29.120  39.321   3.216
30351W        W89612  15.320  25.997   0.897
30352W        W89613  23.162   7.900  12.864
30353W        W89614  35.581  15.115   4.191
30354W        W89615  36.475  37.569  12.402
30355W        W89616  25.675  43.442  10.938
30356W        W89617   7.177  25.677   0.397
30357W        W89618  42.821  43.995  14.280
30358W        W89619  13.648  23.664  13.381
30359W        W89620  13.742  34.371   4.768
30360W        W89621  41.000   6.231   4.640
30361W        W89622  37.830  34.003   2.301
30362W        W89623   5.343   4.364   3.171
30363W        W89624   5.222  43.485   0.376
30364W        W89625  20.251  32.395   3.766
30365W        W89626  41.510   1.466   0.481
30366W        W89627  35.422  44.775  14.911
30367W        W89628   0.323  15.211  11.990
30368W        W89629  24.122   0.875  13.445
30369W        W89630   8.778  14.137  11.983
30370W        W89631  12.153  21.536   1.447
30371W        W89632   6.779  44.342   4.167
30372W        W89633  39.926   6.276   1.757
30373W        W89634  21.211  17.150  10.955
30374W        W89635  21.040  28.515  13.837
30375W        W89636  17.660   4.851   2.890
30376W        W89637  38.981  25.163   2.252
30377W        W89638   7.326  14.144  12.079
30378W        W89639  24.093  13.764   1.263
30379W        W89640  34.072  14.669  12.997
30380W        W89641   9.226  19.547  14.296
30381W        W89642  18.662  32.540  11.575
30382W        W89643  44.453  11.806   4.191
30383W        W89644  39.553  22.570   2.378
30384W        W89645  10.370  38.363   3.249
30385W        W89646  36.484  26.681   4.796
30386W        W89647  11.147  12.821  14.001
30387W        W89648  16.175   3.304   0.324
30388W        W89649   1.392  14.820   3.295
30389W        W89650   1.866  31.072   2.744
30390W        W89651   7.888   1.261  10.960
30391W        W89652  17.229  30.950  12.879
30392W        W89653  42.310  14.754   0.844
30393W        W89654  27.512   9.679   4.206
30394W        W89655  20.632  27.448   0.867
30395W        W89656  25.982  10.810   2.193
30396W        W89657  19.174  10.646  14.393
30397W        W89658  10.164  21.644   4.834
30398W        W89659  12.729   7.840  10.561
30399W        W89660  28.039  43.435   1.359
30400W        W89661   5.400  43.420   4.654
30401W        W89662   4.308  42.300  13.843
30402W        W89663  28.965  40.523  13.880
30403W        W89664  44.402  11.264   0.758
30404W        W89665  21.171  36.357   3.383
30405W        W89666   9.839  37.355   3.780
30406W        W89667  44.797  11.673  13.981
30407W        W89668  39.442  23.687   1.442
30408W        W89669  26.044   7.899  14.970
30409W        W89670  36.011  37.855  10.437
30410W        W89671  42.804   0.962   2.304
30411W        W89672   2.898  20.698  10.513
30412W        W89673  31.063  30.637  14.986
30413W        W89674  42.359  21.636   0.258
30414W        W89675  35.100  12.219   4.628
30415W        W89676  23.138  19.186  12.446
30416W        W89677  25.041  24.636   4.167
30417W        W89678  24.177  44.399   1.444
30418W        W89679  44.422  24.165   3.153
30419W        W89680  26.466  23.235   2.293
30420W        W89681  29.547  10.834   2.860
30421W        W89682  29.425   7.356  11.517
30422W        W89683  42.918  15.174  11.556
30423W        W89684  28.085  22.513   9.921
30424W        W89685  14.131   8.779  14.819
30425W        W89686  14.263  28.084  14.892
30426W        W89687  43.887  29.470   1.416
30427W        W89688  41.803   3.412  10.888
30428W        W89689  28.111  14.138   3.291
30429W        W89690   1.831  13.132  11.009
30430W        W89691  28.548  21.017   3.373
30431W        W89692  14.286  29.966   1.370
30432W        W89693  16.145  35.982   2.341
30433W        W89694  38.454  34.428  13.880
30434W        W89695  20.072  15.672   0.822
30435W        W89696  42.413  14.103  12.410
30436W        W89697   7.322  29.476  10.408
30437W        W89698  15.602  29.622  11.451
30438W        W89699  44.459  43.840  10.599
30439W        W89700   2.361  14.610  12.034
30440W        W89701  18.092  21.196  12.484
30441W        W89702  40.990  32.921  14.873
30442W        W89703  24.101  18.740   0.762
30443W        W89704  33.049  30.646  14.783
30444W        W89705  37.920  32.036   3.753
30445W        W89706  11.328  38.004  12.389
30446W        W89707  10.690   5.370   3.819
30447W        W89708  12.640   4.274   3.276
30448W        W89709  43.882  35.438   3.332
30449W        W89710  25.666  18.765   1.303
30450W        W89711   5.360  27.584   3.351
30451W        W89712   7.700  33.982   4.812
30452W        W89713  11.251  32.889  11.586
30453W        W89714  19.085  24.653   3.271
30454W        W89715  19.705  32.525  11.604
30455W        W89716   3.280   4.320  11.439
30456W        W89717   6.212  37.495   5.136
30457W        W89718  25.073  27.119  12.826
30458W        W89719  12.706  42.854  12.573
30459W        W89720  23.088  19.172   2.880
30460W        W89721  31.012  30.969  11.475
30461W        W89722  23.659  19.043  14.408
30462W        W89723   9.845  31.643   4.317
30463W        W89724   2.786  37.437  10.422
30464W        W89725  29.438  41.023   0.903
30465W        W89726  21.670  25.586  14.367
30466W        W89727  31.531  39.352   4.755
30467W        W89728  11.802  41.947   3.169
30468W        W89729  35.063  33.013   1.255
30469W        W89730  36.495   8.360   5.740
30470W        W89731  11.825  16.302  10.455
30471W        W89732  35.047   7.402   1.882
30472W        W89733  18.219  35.012  13.508
30473W        W89734  28.973  17.604   2.222
30474W        W89735  28.019  20.131  13.878
30475W        W89736  20.713  44.880   2.399
30476W        W89737  28.439  43.899  10.577
30477W        W89738  27.108  19.581   1.394
30478W        W89739  24.524  28.598  12.479
30479W        W89740   0.349  20.632   1.423
30480W        W89741  10.719  42.011   3.291
30481W        W89742   6.810  29.658  13.943
30482W        W89743  28.989   5.241   3.838
30483W        W89744  35.538  37.935  14.418
30484W        W89745  11.756  33.047  12.581
30485W        W89746   9.334  43.924  14.488
30486W        W89747   9.360  30.572   0.948
30487W        W89748  15.166  21.088   2.255
30488W        W89749  23.019  10.313  14.971
30489W        W89750  23.533   8.228  11.954
30490W        W89751   9.386  33.415  10.136
30491W        W89752  12.360  40.953  13.486
30492W        W89753  39.558  14.150   1.758
30493W        W89754  30.957   7.805   1.304
30494W        W89755  43.934  26.599   2.410
30495W        W89756  39.004  26.560   4.705
30496W        W89757   9.172  43.964  12.508
30497W        W89758  11.854  31.633  12.913
30498W        W89759  21.734   4.892  14.022
30499W        W89760   1.883  35.580   3.818
30500W        W89761  25.012   7.297  11.463
30501W        W89762  40.892  42.486  14.800
30502W        W89763  38.483  32.960   3.816
30503W        W89764  32.558  23.165   4.308
30504W        W89765  24.585  44.301   0.899
30505W        W89766  42.518  25.110   2.333
30506W        W89767  44.329   9.701   3.243
30507W        W89768  31.011  39.014   1.750
30508W        W89769  33.436  22.662   1.351
30509W        W89770  12.683   9.834  13.827
30510W        W89771  23.622  19.582   2.230
30511W        W89772  40.897  12.203  13.448
30512W        W89773   5.765  33.463  13.970
30513W        W89774  40.541   1.312  13.947
30514W        W89775  24.636  41.427   4.238
30515W        W89776  32.095  29.637  13.446
30516W        W89777  16.652  29.500  11.979
30517W        W89778   5.738   3.761  12.530
30518W        W89779  23.217  43.949  12.031
30519W        W89780  33.970  43.481  14.010
30520W        W89781   9.385  26.548  11.964
30521W        W89782   2.391  10.813   1.782
30522W        W89783  14.123  32.064   4.731
30523W        W89784  33.094   4.736   0.805
30524W        W89785  26.103  14.112  11.000
30525W        W89786  25.544  39.036   1.875
30526W        W89787  38.912  27.123   3.676
30527W        W89788  38.514  26.692  10.572
30528W        W89789  39.517  30.922  12.954
30529W        W89790  43.986  37.037  11.102
30530W        W89791  15.163  42.478   0.926
30531W        W89792  15.250  21.644  11.606
30532W        W89793  37.385   1.295   4.261
30533W        W89794   2.840  39.966   4.755
30534W        W89795  30.992  21.113   4.701
30535W        W89796  10.364   7.265  14.978
30536W        W89797  11.225  32.489  12.493
30537W        W89798  30.547  41.998   2.874
30538W        W89799  18.174   7.410   0.758
30539W        W89800  19.060   8.765   5.277
30540W        W89801  27.535  17.065   1.813
30541W        W89802  26.644  25.030   3.661
30542W        W89803  15.260  35.989   4.801
30543W        W89804  36.489  39.857  13.463
30544W        W89805  20.169  13.774   2.207
30545W        W89806  44.365  23.693  12.520
30546W        W89807  27.026  17.734   0.908
30547W        W89808  13.730  22.183   1.797
30548W        W89809   5.206  17.263   4.222
30549W        W89810   0.292   5.228   0.800
30550W        W89811  41.825  13.671   2.362
30551W        W89812  34.458  41.890  12.843
30552W        W89813  14.762   1.771   4.296
30553W        W89814  23.056   3.238  10.931
30554W        W89815  10.365  14.335   2.774
30555W        W89816   7.891  44.335  12.886
30556W        W89817  24.696  28.011   3.725
30557W        W89818   1.429  24.021   3.326
30558W        W89819  12.131  29.426   3.348
30559W        W89820  35.079  44.804   4.788
30560W        W89821  43.897  20.179   0.759
30561W        W89822  10.658   0.257   3.758
30562W        W89823  41.440  43.929   2.727
30563W        W89824  10.724  14.764  11.917
30564W        W89825  29.996  33.935  11.888
30565W        W89826  11.785  22.684   4.629
30566W        W89827  40.402   7.376   2.188
30567W        W89828  19.564  15.610  13.937
30568W        W89829  26.514  22.682   4.611
30569W        W89830  42.847  12.339  13.912
30570W        W89831  28.176  36.957  11.523
30571W        W89832   8.861  12.840   2.394
30572W        W89833  14.626   2.241  13.466
30573W        W89834  19.277   0.900  11.443
30574W        W89835  25.996   8.666   3.261
30575W        W89836  26.178  37.959   4.317
30576W        W89837   4.721  27.631   2.822
30577W        W89838  20.248  31.626  13.978
30578W        W89839  33.450  28.034  14.410
30579W        W89840   6.916  19.688   3.812
30580W        W89841  42.992  36.027   2.666
30581W        W89842  36.017  24.044   2.754
30582W        W89843  17.153  29.578  12.371
30583W        W89844  23.581  31.527   1.284
30584W        W89845  25.472  32.931  13.343
30585W        W89846   8.277   0.447   1.363
30586W        W89847  25.489  16.232   4.650
30587W        W89848   4.434   0.762   4.835
30588W        W89849  33.878  37.941   1.711
30589W        W89850  44.902  33.103   1.782
30590W        W89851   5.288  15.185  14.464
30591W        W89852  16.150  39.991   4.254
30592W        W89853  12.128   4.221   4.644
30593W        W89854  27.656   0.291  10.055
30594W        W89855  15.590  43.280   3.149
30595W        W89856   1.737  39.326   0.876
30596W        W89857  10.383   4.831   4.636
30597W        W89858  17.660  21.656   0.305
30598W        W89859  23.999  41.420   4.208
30599W        W89860  26.180  33.932   5.276
30600W        W89861  32.484   0.912  11.863
30601W        W89862  39.480  29.619  11.600
30602W        W89863  20.705   1.402   1.244
30603W        W89864  26.045   0.381   1.235
30604W        W89865  23.526   4.262   1.331
30605W        W89866  33.505  31.996  14.362
30606W        W89867  19.625  39.501  10.441
30607W        W89868   1.245  38.517  11.396
30608W        W89869  13.781  29.027   0.947
30609W        W89870  41.316  16.729   0.416
30610W        W89871   6.687  22.664   3.273
30611W        W89872  24.602  29.930   1.774
30612W        W89873  18.769  21.730   1.696
30613W        W89874  34.589  33.598  12.577
30614W        W89875  40.834  32.393  13.907
30615W        W89876   6.676  14.264  13.532
30616W        W89877   0.247  44.971   2.223
30617W        W89878  19.066  33.047  12.958
30618W        W89879   1.354   0.909  11.092
30619W        W89880   1.754  15.304  11.032
30620W        W89881  13.821  18.063  13.901
30621W        W89882  36.381  14.160   5.236
30622W        W89883   3.247  11.215  12.446
30623W        W89884  35.411  32.480  13.348
30624W        W89885  37.943  12.295   1.230
30625W        W89886  33.944  23.115  14.366
30626W        W89887  38.480   0.800   4.807
30627W        W89888  32.042  16.139   0.884
30628W        W89889  15.300  30.093   0.403
30629W        W89890  30.422   2.395  12.071
30630W        W89891  21.605  25.617   2.724
30631W        W89892  18.752  11.244  14.763
30632W        W89893  23.669  34.898   3.648
30633W        W89894  42.013   0.981   2.265
30634W        W89895  18.107  18.767   5.162
30635W        W89896  33.433  13.803  12.915
30636W        W89897  13.198  12.322  12.034
30637W        W89898   1.445  23.670  11.539
30638W        W89899   2.792  39.061   1.270
30639W        W89900   3.833  13.813   0.862
30640W        W89901   9.882  33.511   4.699
30641W        W89902  19.267  43.957   1.435
30642W        W89903  40.326   9.198  12.988
30643W        W89904  33.046  38.475  13.832
30644W        W89905  37.892  44.934  12.421
30645W        W89906   0.276   1.840  10.644
30646W        W89907  21.582   5.200  13.315
30647W        W89908   6.219  40.507  14.026
30648W        W89909  24.147  11.247   0.470
30649W        W89910  31.600  37.382   4.634
30650W        W89911   3.882   2.723   1.933
30651W        W89912  29.543  28.475  13.824
30652W        W89913  29.580  17.783   0.954
30653W        W89914  12.186  37.887  11.856
30654W        W89915  43.382  42.376   4.324
30655W        W89916  40.853  33.101  10.985
30656W        W89917  44.877  42.854  11.451
30657W        W89918  44.286  32.462   4.128
30658W        W89919  30.414  29.441   5.161
30659W        W89920   1.752  23.199   1.297
30660W        W89921  41.305  40.952  10.543
30661W        W89922  37.046   4.772  13.923
30662W        W89923  37.534  15.655   2.275
30663W        W89924   3.945   7.408  10.929
30664W        W89925  36.423  42.964  11.984
30665W        W89926   5.911  13.732  10.974
30666W        W89927  16.756  33.519   2.719
30667W        W89928  20.610  33.100   0.273
30668W        W89929   1.742  22.729   0.373
30669W        W89930  44.938  26.074   0.244
30670W        W89931  12.338   9.888  13.928
30671W        W89932  39.922  12.744  10.596
30672W        W89933   2.236  30.999  13.400
30673W        W89934  35.037  43.397  14.380
30674W        W89935  34.068  42.905  12.905
30675W        W89936  44.410  18.684   4.340
30676W        W89937   5.402   9.659   4.144
30677W        W89938   4.840   8.404  12.438
30678W        W89939  28.042  31.935   4.754
30679W        W89940  27.474  15.111  12.872
30680W        W89941  13.343   1.421  12.571
30681W        W89942  42.396   8.234   0.317
30682W        W89943   8.220  44.932   2.195
30683W        W89944  18.723  21.661   3.340
30684W        W89945  10.196  25.484   1.278
30685W        W89946  38.534  44.357  11.943
30686W        W89947  43.334  24.556  14.854
30687W        W89948  44.392   4.239   2.870
30688W        W89949  15.720  39.473  11.591
30689W        W89950  41.465   0.860   1.852
30690W        W89951  27.132  26.529  11.476
30691W        W89952  35.545   5.212  14.328
30692W        W89953   8.329  16.695   2.818
30693W        W89954  17.688  31.105  10.987
30694W        W89955  26.472  24.003   3.753
30695W        W89956   7.286   5.241  12.439
30696W        W89957  13.340  41.792  14.363
30697W        W89958  21.702  13.179   0.871
30698W        W89959  34.413  27.009   2.686
30699W        W89960   1.876   8.880  13.321
30700W        W89961  26.139  43.804  10.622
30701W        W89962  32.904  24.178  11.103
30702W        W89963  12.219  31.067   1.384
30703W        W89964  21.733   8.172  14.026
30704W        W89965  23.019  40.811   3.321
30705W        W89966  19.225   6.315  10.478
30706W        W89967   9.670  37.839   4.664
30707W        W89968   6.848  15.093   4.305
30708W        W89969   1.766  40.483   1.716
30709W        W89970  18.701  30.945  10.949
30710W        W89971   1.263  11.656   2.218
30711W        W89972   3.221  10.823   4.334
30712W        W89973  37.441  26.140   1.918
30713W        W89974   0.392  37.002  13.330
30714W        W89975   4.725  34.928   2.765
30715W        W89976  14.734  12.754   4.317
30716W        W89977   6.346  21.671   0.765
30717W        W89978  31.047   9.734  13.528
30718W        W89979  37.016   1.317   2.662
30719W        W89980   3.852  34.872   0.468
30720W        W89981  22.635  41.961  12.961
30721W        W89982  34.400  44.269   3.385
30722W        W89983  16.154  43.996   2.882
30723W        W89984  23.557   8.673  12.435
30724W        W89985  13.798  26.459  11.997
30725W        W89986  26.069  19.672  12.541
30726W        W89987  20.120  20.542   2.669
30727W        W89988  41.538  42.349   3.352
30728W        W89989  40.390  39.367  11.085
30729W        W89990   2.336  33.891  11.126
30730W        W89991   9.315  26.467  10.895
30731W        W89992  30.622  31.010  10.970
30732W        W89993  33.909  13.755  10.998
30733W        W89994  11.277  36.398  11.107
30734W        W89995  27.595   5.265  12.519
30735W        W89996  11.213  15.181   0.441
30736W        W89997  33.897  35.025   2.387
30737W        W89998  38.048  35.904  14.298
30738W        W89999  24.014  41.352   2.238
30739W        W90000   7.688  30.122   3.777
30740W        W90001  16.108  37.535  11.075
30741W        W90002  11.258  26.505   2.240
30742W        W90003  16.080  26.090  12.005
30743W        W90004  25.712   5.768   2.396
30744W        W90005  43.008  41.865   3.661
30745W        W90006   2.318   7.843  11.436
30746W        W90007  42.954   1.917  10.643
30747W        W90008  30.651  38.004   4.220
30748W        W90009  10.284  25.015  10.511
30749W        W90010  43.373  18.695   1.805
30750W        W90011  22.018  19.157  12.453
30751W        W90012  44.853  10.164   0.793
30752W        W90013  39.809  41.335   1.882
30753W        W90014  10.236  22.671   3.161
30754W        W90015  23.699  27.667  10.613
30755W        W90016  14.320  31.498   4.682
30756W        W90017  24.646  29.099   1.369
30757W        W90018   9.238  33.895   1.845
30758W        W90019  38.941  16.736   2.298
30759W        W90020  11.200  20.565   2.865
30760W        W90021  41.807  16.102   3.200
30761W        W90022   4.699  33.407  13.981
30762W        W90023   1.913  34.111   3.782
30763W        W90024  11.253  17.250   3.630
30764W        W90025  28.627  20.742   1.795
30765W        W90026   8.164  34.614   1.374
30766W        W90027   1.865  32.008  10.481
30767W        W90028   9.254  20.731   1.705
30768W        W90029  14.215  17.235   1.257
30769W        W90030  20.616  38.913   3.349
30770W        W90031  10.220  33.413   4.134
30771W        W90032   5.325  34.059  11.500
30772W        W90033  25.140   0.470  11.873
30773W        W90034  14.653  34.107  14.006
30774W        W90035  23.241  34.460  13.534
30775W        W90036  14.241  27.978   1.802
30776W        W90037  34.444  27.617   3.305
30777W        W90038  20.031  13.183  12.550
30778W        W90039   4.802  42.981  10.406
30779W        W90040  24.542  31.936  14.936
30780W        W90041  18.552  24.664   0.390
30781W        W90042   3.910  31.059   1.373
30782W        W90043  12.277  26.457  10.621
30783W        W90044  35.591  17.558   1.919
30784W        W90045  27.593  11.855   0.792
30785W        W90046   4.316  33.909  14.473
30786W        W90047   8.753  11.678   0.393
30787W        W90048  16.754  10.804  11.906
30788W        W90049  23.196  13.205   4.618
30789W        W90050  13.248  25.516   2.414
30790W        W90051  26.038  32.634   0.775
30791W        W90052  27.606   0.960   1.772
30792W        W90053   6.800  38.850  12.360
30793W        W90054  35.030   4.715  11.393
30794W        W90055  28.000  14.639  10.487
30795W        W90056  35.556  29.582   2.286
30796W        W90057  40.549  19.172   0.731
30797W        W90058  26.014   8.897   1.370
30798W        W90059   2.348  39.511  10.643
30799W        W90060   6.918  17.097  12.931
30800W        W90061  16.089  39.879  10.985
30801W        W90062  38.451  36.480  12.909
30802W        W90063  26.195  15.686   0.827
30803W        W90064  23.555  42.877   2.410
30804W        W90065   4.275  33.534   3.702
30805W        W90066  38.910  18.698  14.382
30806W        W90067  23.570  40.414  12.854
30807W        W90068  23.647  30.079   4.606
30808W        W90069  36.040  12.613   3.173
30809W        W90070   7.669  23.565  10.086
30810W        W90071  14.282   8.182   3.754
30811W        W90072  32.612  19.105  12.391
30812W        W90073   1.289  28.121  13.358
30813W        W90074   1.807   2.836   0.376
30814W        W90075  28.949   2.328   3.376
30815W        W90076  13.696  32.046  13.875
30816W        W90077   3.367   8.858  11.995
30817W        W90078   2.455  19.093  14.466
30818W        W90079  22.671  15.787  12.006
30819W        W90080  22.593  16.712   4.624
30820W        W90081   7.303  37.962  12.559
30821W        W90082  18.626  34.905   1.809
30822W        W90083  14.274  41.480  14.478
30823W        W90084  19.572  41.900  12.018
30824W        W90085   2.415  31.620  14.958
30825W        W90086  40.455   7.350  12.868
30826W        W90087   6.794  23.668   1.777
30827W        W90088  30.024  18.786   3.829
30828W        W90089  32.077  25.646   3.784
30829W        W90090  27.048  34.029  14.301
30830W        W90091  15.706  30.157  10.141
30831W        W90092   6.771   4.789   3.633
30832W        W90093  11.778  21.625   3.341
30833W        W90094  38.446  25.188   2.355
30834W        W90095  13.153  19.665  10.961
30835W        W90096  21.080  38.433   2.196
30836W        W90097  15.665  32.988   1.244
30837W        W90098  10.708  26.671   3.699
30838W        W90099  11.242  19.638   5.086
30839W        W90100  32.891   7.875   3.152
30840W        W90101  35.912  33.399  13.510
30841W        W90102  42.963   8.873   2.680
30842W        W90103  21.590  28.997   2.826
30843W        W90104  31.460  10.352   0.796
30844W        W90105  36.430   7.331  12.971
30845W        W90106  41.852  11.253   3.856
30846W        W90107  22.022  27.951  12.855
30847W        W90108  32.559  11.338  11.416
30848W        W90109  11.223   5.223   1.841
30849W        W90110  30.654  17.119  14.894
30850W        W90111   2.322  17.656   0.301
30851W        W90112  31.117  33.564   3.841
30852W        W90113  25.499  10.175   3.656
30853W        W90114  18.168   6.340   2.299
30854W        W90115  24.129  28.514  14.457
30855W        W90116  14.111  31.972   0.771
30856W        W90117  30.042  30.939  12.490
30857W        W90118  13.665  28.037   1.217
30858W        W90119  18.720  44.487  14.866
30859W        W90120   1.351  42.860   4.753
30860W        W90121  27.477   6.869   3.636
30861W        W90122  28.994  21.651   3.700
30862W        W90123  42.495  11.143   0.377
30863W        W90124  17.152  28.953   1.405
30864W        W90125  36.937  26.695   2.198
30865W        W90126   6.247  39.949   0.279
30866W        W90127  33.505   3.752   2.872
30867W        W90128  30.612  11.624   4.752
30868W        W90129  32.599  13.614   0.907
30869W        W90130  12.186  32.454  10.971
30870W        W90131   4.712  38.344  14.817
30871W        W90132  33.479  15.713  14.473
30872W        W90133  42.876   7.863   0.327
30873W        W90134  11.798  25.683   2.770
30874W        W90135  19.542   4.715   4.123
30875W        W90136  21.053  27.118   0.814
30876W        W90137  30.532   6.340  11.908
30877W        W90138  36.389  26.105   2.745
30878W        W90139   1.883  17.303   1.852
30879W        W90140  22.536  37.921   4.189
30880W        W90141  37.063  13.140   0.753
30881W        W90142  22.616  27.967   3.698
30882W        W90143  10.828  38.913  10.612
30883W        W90144  40.522   8.352  12.947
30884W        W90145  32.546  13.703  12.895
30885W        W90146  42.852  25.624   3.747
30886W        W90147   4.275   8.897  11.068
30887W        W90148  17.620  29.669   2.395
30888W        W90149   9.759   2.439   3.342
30889W        W90150  25.564  21.647  13.815
30890W        W90151  37.492  38.889  10.501
30891W        W90152  25.680  14.644  12.843
30892W        W90153  20.034  13.678   0.347
30893W        W90154  42.932  13.618   2.731
30894W        W90155  25.210  24.573   1.353
30895W        W90156  16.218  10.383  13.538
30896W        W90157  31.467  34.988   0.899
30897W        W90158   5.271   2.471   0.758
30898W        W90159  11.866  44.439  10.610
30899W        W90160  14.734  15.725   2.805
30900W        W90161  13.127  15.810   4.670
30901W        W90162  19.256  20.680   1.355
30902W        W90163  44.832  22.995   3.377
30903W        W90164  18.170  35.434  10.412
30904W        W90165  28.617  14.740   2.901
30905W        W90166   0.843  42.460   4.184
30906W        W90167  39.317   4.838  11.862
30907W        W90168  11.154  35.404   4.322
30908W        W90169  22.534   8.747   1.306
30909W        W90170  19.117  17.267   0.811
30910W        W90171   4.866   6.749  14.397
30911W        W90172  41.867   2.388  13.880
30912W        W90173  18.646  16.279   3.229
30913W        W90174   8.729  26.701  11.872
30914W        W90175  44.282   9.771   4.714
30915W        W90176  14.145  34.947   1.306
30916W        W90177  17.131  21.023  13.943
30917W        W90178  21.682  26.481   0.258
30918W        W90179  25.532  32.060  12.939
30919W        W90180   9.275  30.591  13.397
30920W        W90181  38.530  18.705  10.075
30921W        W90182   9.662  33.519  11.025
30922W        W90183   0.439  14.742   4.180
30923W        W90184  16.317   2.894   4.278
30924W        W90185  25.008  10.348  10.559
30925W        W90186  21.152   1.453  13.424
30926W        W90187   5.232  16.635  14.950
30927W        W90188   2.809   5.735  11.026
30928W        W90189  18.718  34.388  12.446
30929W        W90190  16.701  28.678  14.455
30930W        W90191  34.591  21.568   4.770
30931W        W90192   0.251  37.017   0.448
30932W        W90193   1.937  14.643  14.332
30933W        W90194  35.090  13.277  12.515
30934W        W90195   2.290  27.484  11.463
30935W        W90196  44.448  13.312  12.349
30936W        W90197  40.371  34.920   2.356
30937W        W90198  38.977  26.575   2.233
30938W        W90199  28.448   6.308   2.730
30939W        W90200  31.917  11.734   2.351
30940W        W90201   3.453  10.178   0.813
30941W        W90202  19.651  35.439  11.494
30942W        W90203  29.635  27.648   3.659
30943W        W90204  33.936  15.242  13.383
30944W        W90205  20.228   8.679   2.822
30945W        W90206  32.046   0.311   0.964
30946W        W90207  18.598  37.968   2.784
30947W        W90208   6.236  11.241   1.806
30948W        W90209   5.734  39.811  10.584
30949W        W90210  41.484  28.023   1.726
30950W        W90211  11.152   6.709  10.153
30951W        W90212   8.320   9.154   4.655
30952W        W90213   4.858  27.063   0.745
30953W        W90214   3.878  42.919   3.262
30954W        W90215  31.126   1.803   0.450
30955W        W90216  44.300  10.718   1.784
30956W        W90217  18.671   5.244   4.212
30957W        W90218  20.075   6.840   2.399
30958W        W90219   3.903   8.724   3.146
30959W        W90220   4.740   4.295  13.817
30960W        W90221  40.873  14.758   5.712
30961W        W90222  38.059  40.444   3.147
30962W        W90223  14.326  28.983  12.090
30963W        W90224  16.729   9.198  12.379
30964W        W90225  43.839  30.988  14.482
30965W        W90226   8.224  12.776   0.360
30966W        W90227  41.801   2.914   2.804
30967W        W90228   0.800  29.592   3.778
30968W        W90229  25.168   4.288   0.345
30969W        W90230  35.503  28.602  11.503
30970W        W90231  29.451  32.939   9.669
30971W        W90232   1.732  40.866  13.465
30972W        W90233  41.829   4.219  14.385
30973W        W90234  13.129  17.669   4.185
30974W        W90235  33.878   0.879   3.291
30975W        W90236  26.169  16.765  11.581
30976W        W90237   6.806  44.851  14.413
30977W        W90238  31.428  23.028   1.317
30978W        W90239  20.610   4.360  14.804
30979W        W90240  18.545  24.227   3.286
30980W        W90241  15.807  23.669   3.264
30981W        W90242  37.491  11.830  13.976
30982W        W90243   3.427  38.569   1.374
30983W        W90244  23.134  21.071  11.994
30984W        W90245  13.108  12.825  12.862
30985W        W90246   6.914  36.012  14.989
30986W        W90247   5.926  22.059  11.864
30987W        W90248  15.255  43.298   3.245
30988W        W90249  13.153  37.832   2.834
30989W        W90250  42.016  11.127  10.590
30990W        W90251  14.794  39.383   0.242
30991W        W90252  15.140  35.883  13.394
30992W        W90253  10.847  12.745   3.360
30993W        W90254   0.749   2.809  14.325
30994W        W90255  12.151  25.178  14.765
30995W        W90256  21.054  14.319   4.789
30996W        W90257   1.394   2.729   1.384
30997W        W90258  13.708  41.342   2.389
30998W        W90259  15.694  28.019  13.817
30999W        W90260  35.571  26.205  13.444
31000W        W90261  13.106  15.156  13.018
31001W        W90262  17.157  37.427  11.897
31002W        W90263  18.663  38.924  12.836
31003W        W90264  38.819  27.534   0.806
31004W        W90265  36.095  22.210   0.453
31005W        W90266  23.235  34.036  13.307
31006W        W90267  37.551  32.604   1.911
31007W        W90268  22.594   1.928   2.674
31008W        W90269  25.033  34.379  12.366
31009W        W90270  15.587  42.400   1.844
31010W        W90271  27.453   0.902   0.350
31011W        W90272  12.685   2.874   0.942
31012W        W90273  30.583  37.922   0.847
31013W        W90274  35.483  26.119  11.114
31014W        W90275   9.299  29.606  13.956
31015W        W90276  31.142  19.115   4.134
31016W        W90277  38.066  17.243  11.022
31017W        W90278   8.269  30.545   1.371
31018W        W90279  38.414  22.233  10.891
31019W        W90280   8.882  16.765   0.317
31020W        W90281  19.100  43.341   0.252
31021W        W90282  38.358  34.965   0.758
31022W        W90283  10.708  40.833  13.044
31023W        W90284  39.955  28.619   0.292
31024W        W90285   6.707  31.090   2.697
31025W        W90286  10.226  10.374  14.858
31026W        W90287  25.652  15.669  12.047
31027W        W90288  13.752  33.057  12.530
31028W        W90289  22.656  12.619  11.498
31029W        W90290   6.384  38.823   1.380
31030W        W90291  16.764  26.544  10.946
31031W        W90292  29.975  33.539  13.941
31032W        W90293   6.898  41.817  13.411
31033W        W90294  38.416   0.845   0.732
31034W        W90295  23.700  14.707   4.178
31035W        W90296  40.449   0.836  11.582
31036W        W90297  35.925   2.287   1.274
31037W        W90298  28.678  39.550   3.765
31038W        W90299  30.431   9.378   3.697
31039W        W90300  27.164  16.155  14.970
31040W        W90301  21.553  36.580   1.723
31041W        W90302  35.516  33.911   4.665
31042W        W90303  26.182  25.036   0.800
31043W        W90304  39.404  30.489   1.293
31044W        W90305  12.343  38.843   3.676
31045W        W90306  41.340   1.805  11.032
31046W        W90307  11.784  22.154   0.348
31047W        W90308  10.379  11.279  14.027
31048W        W90309   3.814  31.585   4.752
31049W        W90310  42.923  35.972  10.601
31050W        W90311  41.373   3.797   2.227
31051W        W90312  17.145   0.280  10.494
31052W        W90313  41.942   1.765  10.409
31053W        W90314  14.144   5.438   4.750
31054W        W90315   0.290   7.207  13.414
31055W        W90316  29.055  33.620  10.115
31056W        W90317  15.820  42.343  11.127
31057W        W90318   3.300  39.351   0.368
31058W        W90319  17.240  14.106  12.013
31059W        W90320  28.599  18.696   2.325
31060W        W90321  31.101  21.542   4.173
31061W        W90322  42.006  28.125   5.589
31062W        W90323   4.285  31.439   3.239
31063W        W90324  25.138  40.806  13.997
31064W        W90325  13.642  25.986   0.897
31065W        W90326  40.019   0.940   4.656
31066W        W90327  44.266   9.694   0.291
31067W        W90328  19.099  18.246  13.843
31068W        W90329   4.755  43.890   1.223
31069W        W90330   1.811  30.587   4.718
31070W        W90331  25.012  28.128  10.944
31071W        W90332  21.105  34.029   4.630
31072W        W90333  44.355  12.674   2.830
31073W        W90334  43.768  37.448   0.326
31074W        W90335  40.368  30.587   4.827
31075W        W90336  10.151  12.809  14.791
31076W        W90337  18.192  12.239   3.670
31077W        W90338  13.667  14.269   3.166
31078W        W90339  34.063  18.084   2.694
31079W        W90340   9.208   1.308   4.228
31080W        W90341  15.142   0.413  13.486
31081W        W90342  43.379  27.975   2.785
31082W        W90343  20.200  22.578   4.615
31083W        W90344  22.206  15.795   2.264
31084W        W90345  34.055  34.599   0.447
31085W        W90346  19.597   2.953   3.263
31086W        W90347  44.486  43.275  13.493
31087W        W90348  39.975  23.027   4.658
31088W        W90349  26.186   2.952   5.134
31089W        W90350   4.316  21.586  14.797
31090W        W90351  22.206  24.015  14.393
31091W        W90352  29.935  10.777   3.299
31092W        W90353  18.214  37.340  11.388
31093W        W90354   2.393  12.736   1.842
31094W        W90355  43.822  34.991  11.086
31095W        W90356  22.540  23.515  10.452
31096W        W90357   3.417   1.902  14.799
31097W        W90358  41.536  36.886   2.772
31098W        W90359  22.092  16.263  10.508
31099W        W90360   1.353  33.989  12.434
31100W        W90361  40.503  28.564   0.274
31101W        W90362  36.032  36.585  14.898
31102W        W90363  42.416   4.314  11.127
31103W        W90364  41.882  33.037  11.478
31104W        W90365   6.399  26.587  12.544
31105W        W90366   8.726  41.868  11.097
31106W        W90367  10.282  39.894  12.571
31107W        W90368  43.375  22.535   0.955
31108W        W90369  38.941   1.369   0.735
31109W        W90370  34.567  40.546  10.594
31110W        W90371   3.860  11.159  12.830
31111W        W90372  32.535  10.649   0.474
31112W        W90373  24.978  28.939  10.978
31113W        W90374  44.009   1.266   2.196
31114W        W90375   3.275  24.070   1.747
31115W        W90376  15.158  33.499   0.749
31116W        W90377  12.205  28.119  14.807
31117W        W90378   1.853  27.978   2.836
31118W        W90379  43.279   7.786  14.832
31119W        W90380   1.327  41.347  10.959
31120W        W90381  33.957  11.225   2.284
31121W        W90382  40.375  18.747   1.342
31122W        W90383  15.276  35.105   0.806
31123W        W90384  16.750   6.752   4.770
31124W        W90385  30.538  27.469  12.061
31125W        W90386   6.779   8.364  14.013
31126W        W90387  13.684  19.730   4.742
31127W        W90388  31.413  20.037  13.406
31128W        W90389  25.502  27.514   0.811
31129W        W90390  35.103  39.530  10.595
31130W        W90391   9.837   8.767  14.843
31131W        W90392  31.061   5.432   1.897
31132W        W90393  41.508  30.921   2.407
31133W        W90394  30.602   6.810   3.278
31134W        W90395  26.006  38.054  10.580
31135W        W90396  33.091  38.493   4.615
31136W        W90397  18.257  11.708  10.475
31137W        W90398  17.771   1.843  10.539
31138W        W90399  11.301  35.495   4.769
31139W        W90400  19.685  12.770   1.294
31140W        W90401  33.387  28.177   2.788
31141W        W90402  19.622   1.333  12.536
31142W        W90403  27.641  33.497  12.009
31143W        W90404  16.305  43.467   4.298
31144W        W90405  30.004   7.268   3.810
31145W        W90406  31.096  41.375   3.195
31146W        W90407   5.406  12.286  11.479
31147W        W90408   7.719  41.953   2.754
31148W        W90409   2.283  41.801   1.398
31149W        W90410   8.215   8.399   9.922
31150W        W90411   8.212  43.982   2.263
31151W        W90412  14.616  27.083   5.792
31152W        W90413   3.887  16.268   4.630
31153W        W90414   9.750  27.116  13.403
31154W        W90415  17.681   3.324  13.969
31155W        W90416  41.404  29.954  11.891
31156W        W90417  16.116   0.418   1.865
31157W        W90418  41.493  27.981   5.131
31158W        W90419  25.963   7.867  13.900
31159W        W90420  42.998  43.512  10.521
31160W        W90421  26.149  42.008  13.835
31161W        W90422  35.907  37.339  13.953
31162W        W90423  12.254  20.274   2.686
31163W        W90424  44.821  33.427  12.427
31164W        W90425  36.515  28.624  14.851
31165W        W90426   7.731  20.631  13.309
31166W        W90427  43.278  11.718  10.425
31167W        W90428  17.267  36.870  10.984
31168W        W90429  30.928  17.248  13.945
31169W        W90430  34.000  17.296  10.458
31170W        W90431  34.511  22.122   2.811
31171W        W90432  25.059  21.046  11.880
31172W        W90433  31.497  30.638   4.684
31173W        W90434  38.942  38.839   5.231
31174W        W90435  16.670  12.133   3.184
31175W        W90436   9.211   3.215  13.904
31176W        W90437  19.640  24.112  13.974
31177W        W90438  31.450  17.615   4.321
31178W        W90439  15.665  13.286  14.452
31179W        W90440  15.204  25.639   1.713
31180W        W90441  40.420   6.851  12.557
31181W        W90442  37.545  25.152  10.008
31182W        W90443   6.867  25.142   1.407
31183W        W90444  38.905  18.217  13.875
31184W        W90445  27.047   4.726  13.031
31185W        W90446  33.464  35.417   1.849
31186W        W90447  31.973  24.533   0.955
31187W        W90448  19.070  21.721  10.586
31188W        W90449   0.984   0.953   3.163
31189W        W90450  17.161  31.047  10.045
31190W        W90451  12.777  19.601  11.561
31191W        W90452  31.035  20.594  12.559
31192W        W90453  28.482  24.574   1.323
31193W        W90454  15.206  36.438  13.511
31194W        W90455  39.507  21.190   0.325
31195W        W90456  15.629  33.466   2.392
31196W        W90457  30.045  38.413  10.552
31197W        W90458   5.905   5.427   1.783
31198W        W90459  13.142  23.596   4.622
31199W        W90460  27.613   7.755   1.870
31200W        W90461   0.488  13.201  11.441
31201W        W90462  12.629  33.884  11.482
31202W        W90463  33.434   4.856   2.340
31203W        W90464   0.918  41.011   3.159
31204W        W90465  37.372  39.515   1.832
31205W        W90466  36.072  40.019  13.985
31206W        W90467  44.817  22.625  14.414
31207W        W90468  24.622  22.098   3.159
31208W        W90469   7.208   6.740  14.013
31209W        W90470   6.713  34.410  11.598
31210W        W90471  12.653  32.479   2.212
31211W        W90472  22.030  31.027  10.404
31212W        W90473   1.279   5.437   4.822
31213W        W90474  25.612  27.616   9.940
31214W        W90475  31.498  34.565   1.838
31215W        W90476  22.042  24.551  13.396
31216W        W90477  38.336  30.619   1.369
31217W        W90478  18.217  27.005   1.797
31218W        W90479  25.578  38.538  14.424
31219W        W90480   3.814   2.246  11.418
31220W        W90481  25.492   0.958  14.361
31221W        W90482  35.101  42.478   1.320
31222W        W90483  12.662   4.380  14.289
31223W        W90484  42.367  29.468   5.639
31224W        W90485  23.714  10.167  10.894
31225W        W90486  18.737  11.783  12.867
31226W        W90487  19.606  23.181  13.432
31227W        W90488  25.973  37.423   5.213
31228W        W90489  24.636   0.819  14.846
31229W        W90490  35.496  31.066   2.405
31230W        W90491   4.851   0.985   0.806
31231W        W90492   7.170  41.418  14.802
31232W        W90493  10.703  21.215  14.984
31233W        W90494  25.586  28.987   0.847
31234W        W90495  21.204  21.252   1.291
31235W        W90496  31.971  11.223  13.452
31236W        W90497  38.921   1.374  12.835
31237W        W90498  34.968  23.557  14.879
31238W        W90499  20.029   3.239  10.596
31239W        W90500  44.790   5.344   4.160
31240W        W90501  20.157  25.620  13.486
31241W        W90502  41.415  10.202   4.834
31242W        W90503  18.142  37.556   0.425
31243W        W90504  35.548   0.916   3.641
31244W        W90505  16.578  42.825   1.314
31245W        W90506  40.389   2.802  14.303
31246W        W90507   5.278  29.586  11.555
31247W        W90508  13.294  40.976  12.032
31248W        W90509   7.230   2.724   3.747
31249W        W90510  23.495   8.680   1.312
31250W        W90511   5.387   1.431   4.330
31251W        W90512  43.349   8.844  14.788
31252W        W90513  14.816  21.600  10.450
31253W        W90514  41.907  31.578  14.880
31254W        W90515  18.097   6.749  11.930
31255W        W90516  26.185   6.776   1.855
31256W        W90517  15.150  20.754  10.579
31257W        W90518  27.653   2.386   3.364
31258W        W90519   6.840  38.904   4.202
31259W        W90520  20.102  13.187   2.803
31260W        W90521  10.195  10.676  12.965
31261W        W90522  30.619  31.975  12.575
31262W        W90523  35.396  41.419   0.935
31263W        W90524  19.222  24.028  14.932
31264W        W90525  33.046  19.198   4.712
31265W        W90526  43.957   9.652  13.490
31266W        W90527  40.948  30.917  13.004
31267W        W90528  24.725  10.640   1.227
31268W        W90529  10.173  15.205   1.375
31269W        W90530  39.375   9.368  12.043
31270W        W90531  26.013   7.791   3.182
31271W        W90532  23.034  32.009   4.335
31272W        W90533  28.942   1.872   1.411
31273W        W90534  11.282   3.878   1.387
31274W        W90535  24.614  28.484   0.248
31275W        W90536   2.270  24.040  13.382
31276W        W90537  13.666  33.586  10.420
31277W        W90538  40.338   0.382   3.280
31278W        W90539  14.729  32.451  12.423
31279W        W90540  26.170  44.772   1.883
31280W        W90541  20.252  34.043  13.872
31281W        W90542  28.071  24.058  14.457
31282W        W90543  34.584  17.623   2.259
31283W        W90544  20.227  33.105  11.398
31284W        W90545  26.501  26.520  11.425
31285W        W90546  29.433  34.053  13.047
31286W        W90547   4.892  30.129   9.996
31287W        W90548  28.951  32.471  11.860
31288W        W90549  29.975  39.316  13.017
31289W        W90550   7.231  38.367  12.462
31290W        W90551  32.058   8.249   9.615
31291W        W90552  18.668  34.600   1.767
31292W        W90553  31.923   0.910   5.269
31293W        W90554  36.039   1.780   0.249
31294W        W90555  13.196   5.372   4.761
31295W        W90556   2.418  10.819   3.847
31296W        W90557  27.105  40.820   2.308
31297W        W90558  28.182  35.549   3.659
31298W        W90559   9.213  41.354   3.761
31299W        W90560  20.731  35.394   3.189
31300W        W90561  14.677  35.421   2.705
31301W        W90562  29.530  21.113  13.408
31302W        W90563  41.896  11.730   0.395
31303W        W90564  29.958  31.947   5.198
31304W        W90565  44.502  29.564   0.924
31305W        W90566  13.699   8.709  11.096
31306W        W90567   6.323  25.525  12.352
31307W        W90568  20.652   5.696   3.369
31308W        W90569   0.462   6.755  13.004
31309W        W90570  35.570  44.364  13.380
31310W        W90571  29.615  25.128  14.277
31311W        W90572  37.069  12.612  13.856
31312W        W90573  23.067  17.684   2.669
31313W        W90574  14.669  12.169   4.265
31314W        W90575   1.887   6.295   2.823
31315W        W90576  36.435  35.404   3.805
31316W        W90577  20.180  32.983   4.231
31317W        W90578  18.238  10.332   5.166
31318W        W90579   4.929  20.242   5.154
31319W        W90580  24.045  36.037  14.786
31320W        W90581  30.479  43.004  11.600
31321W        W90582   0.771  31.940  14.407
31322W        W90583  10.307   6.339  10.428
31323W        W90584  34.076   9.363  12.044
31324W        W90585  14.127   7.242  10.572
31325W        W90586   2.245  24.617  14.032
31326W        W90587   5.875  44.991   0.293
31327W        W90588  42.942  10.646   4.619
31328W        W90589  16.146  17.187   4.179
31329W        W90590  13.343   2.301   3.644
31330W        W90591  41.311  37.998  13.933
31331W        W90592  36.097  12.328   2.800
31332W        W90593   8.294  24.010   3.348
31333W        W90594  25.106  40.488   3.708
31334W        W90595   3.890  39.320  12.979
31335W        W90596   9.889  18.652  10.603
31336W        W90597  24.009   9.763   1.221
31337W        W90598  15.663   6.876  13.906
31338W        W90599  23.083  10.333   4.753
31339W        W90600  38.959  32.115   3.653
31340W        W90601  42.482  33.476   4.668
31341W        W90602  38.507   8.801   1.239
31342W        W90603   4.345  29.482  14.777
31343W        W90604   8.214  21.026  13.932
31344W        W90605   3.299  14.179   4.696
31345W        W90606  43.414  38.491  14.897
31346W        W90607  34.979   9.680   2.246
31347W        W90608   5.763   6.849  10.482
31348W        W90609  14.303   8.235   3.380
31349W        W90610  27.146  14.716   4.319
31350W        W90611  31.125  30.050   4.287
31351W        W90612  32.417  43.870   3.717
31352W        W90613  15.812  40.862   4.678
31353W        W90614  26.957   1.410  11.480
31354W        W90615  11.326  26.096   3.748
31355W        W90616  17.201  24.598  12.346
31356W        W90617  27.092  15.216   0.333
31357W        W90618   9.202  39.051   2.335
31358W        W90619  31.476   1.843  10.638
31359W        W90620  37.898  13.250  13.990
31360W        W90621  39.872   4.721   3.286
31361W        W90622  35.536   8.289   0.967
31362W        W90623  20.199   1.801  14.458
31363W        W90624  25.129  28.645  14.444
31364W        W90625  23.553   6.824  12.028
31365W        W90626  34.912  25.579  12.466
31366W        W90627  31.591   6.427   2.309
31367W        W90628  16.811  42.378  11.944
31368W        W90629  23.061  33.504  11.103
31369W        W90630  41.839  34.461   0.287
31370W        W90631  10.190  30.624   4.658
31371W        W90632  42.833  25.206   2.321
31372W        W90633  31.581  35.009   3.317
31373W        W90634   5.415  40.912   0.379
31374W        W90635  44.998   1.904  11.484
31375W        W90636   9.300  30.590  12.559
31376W        W90637  19.219  23.663  12.926
31377W        W90638   1.910  10.652  10.639
31378W        W90639  21.587  36.488   2.401
31379W        W90640  23.684  14.135   4.211
31380W        W90641  14.179  12.779  10.035
31381W        W90642   6.754   2.941   2.814
31382W        W90643   1.834  25.038   1.926
31383W        W90644  44.758  10.150   2.358
31384W        W90645   7.305  40.374  12.435
31385W        W90646  37.940  36.454   4.622
31386W        W90647  12.720  14.187  13.854
31387W        W90648  10.212   2.352   1.324
31388W        W90649  15.682  36.464   2.211
31389W        W90650  21.023   2.743  14.471
31390W        W90651  11.849  35.504  10.464
31391W        W90652   0.400  16.637   3.207
31392W        W90653  21.155  42.786   1.444
31393W        W90654   8.231  10.659   1.218
31394W        W90655  25.469  36.483   3.283
31395W        W90656  18.195  22.115  11.421
31396W        W90657   3.420  22.220  14.972
31397W        W90658   9.214  38.919   0.283
31398W        W90659  21.703  13.176   1.243
31399W        W90660  21.593  14.202  13.943
31400W        W90661  22.237   4.212  12.073
31401W        W90662  33.385   1.482   1.290
31402W        W90663  15.768   3.755  13.341
31403W        W90664  15.297  29.566  14.806
31404W        W90665  25.665  32.457  14.854
31405W        W90666  25.174  40.849   3.214
31406W        W90667  25.002  22.167   4.784
31407W        W90668  35.991  29.589  13.500
31408W        W90669   1.831  33.005   3.324
31409W        W90670  23.084  18.580  12.093
31410W        W90671  25.522  22.129   4.753
31411W        W90672  35.376   1.796  12.546
31412W        W90673  27.473  24.628   1.719
31413W        W90674  30.580   9.660   4.208
31414W        W90675   9.847   7.735  14.825
31415W        W90676  15.275  31.017  13.901
31416W        W90677  10.715  33.031   1.372
31417W        W90678   0.796  15.712   2.743
31418W        W90679  44.336  22.163   0.296
31419W        W90680  12.269  38.956  14.017
31420W        W90681  33.614   9.312   2.193
31421W        W90682  39.058  17.092  10.915
31422W        W90683  30.978  17.137   0.950
31423W        W90684  23.078  25.470  10.557
31424W        W90685  34.894  29.172  11.855
31425W        W90686  35.999  30.463  11.077
31426W        W90687  39.321  23.662   4.302
31427W        W90688  38.828  43.852  14.995
31428W        W90689  24.106  33.538  13.924
31429W        W90690  12.706  26.090  13.438
31430W        W90691  14.251  37.040   2.744
31431W        W90692  36.405  13.249   0.244
31432W        W90693  33.533  15.771   4.226
31433W        W90694  43.302  15.288  13.962
31434W        W90695  11.782  29.647  12.525
31435W        W90696   7.402  13.697   1.329
31436W        W90697  43.779  15.812   1.802
31437W        W90698  41.322  22.111  12.459
31438W        W90699  19.689  33.556  11.891
31439W        W90700  38.357  38.976   4.604
31440W        W90701  17.083  10.198  10.514
31441W        W90702   3.710  17.751  12.565
31442W        W90703  19.595  13.644  14.933
31443W        W90704  11.665  16.797   2.337
31444W        W90705  24.166  12.345  11.991
31445W        W90706  16.145   0.823  10.466
31446W        W90707  44.824  29.011   0.727
31447W        W90708   1.774  26.199  13.903
31448W        W90709   4.382   3.925  11.535
31449W        W90710  16.779  41.354   1.237
31450W        W90711  13.757  43.849   1.774
31451W        W90712  37.385  41.852  10.425
31452W        W90713  16.157  10.686   2.215
31453W        W90714  44.780   9.845  14.376
31454W        W90715   0.363  20.224   0.455
31455W        W90716  16.224  32.456   4.807
31456W        W90717  28.958  29.955  14.456
31457W        W90718  37.040  10.183  11.100
31458W        W90719  20.742  26.608  10.889
31459W        W90720  38.423  20.680   4.721
31460W        W90721  25.993  14.596   2.377
31461W        W90722  29.947  24.561  12.903
31462W        W90723   3.953  17.217  13.934
31463W        W90724  27.503  25.537  11.055
31464W        W90725  27.115  26.080  14.014
31465W        W90726  28.956  41.463   2.315
31466W        W90727  24.653   8.333   1.728
31467W        W90728   7.665   8.754  14.296
31468W        W90729   6.289  44.282  11.885
31469W        W90730  29.587  21.687   0.258
31470W        W90731  18.664  25.042  10.918
31471W        W90732   9.864  21.122  14.289
31472W        W90733  43.501  29.564  12.578
31473W        W90734  17.701  40.811   1.722
31474W        W90735  29.479  32.627  11.545
31475W        W90736  13.315  24.711  10.520
31476W        W90737  24.577   0.771  13.920
31477W        W90738  20.063  30.110   4.638
31478W        W90739  13.137  28.674  10.912
31479W        W90740  15.247  15.717   1.358
31480W        W90741  13.822  25.695  13.932
31481W        W90742  27.970  22.219  10.599
31482W        W90743  24.685  37.564  13.021
31483W        W90744  30.068  24.008   4.709
31484W        W90745  42.336  37.898  13.847
31485W        W90746   8.387  42.443   2.241
31486W        W90747  24.605   5.926  14.001
31487W        W90748  35.013  22.557  13.511
31488W        W90749   5.771   2.397   3.267
31489W        W90750  34.118  31.417   1.913
31490W        W90751   3.432   5.308  11.521
31491W        W90752   2.830  27.525   0.754
31492W        W90753  22.014   8.745  11.443
31493W        W90754  16.211   5.421  11.885
31494W        W90755  24.154  41.823   2.705
31495W        W90756  32.979   5.721   9.623
31496W        W90757   5.916   4.847  11.858
31497W        W90758  10.192  10.678  11.010
31498W        W90759  40.926   8.198  11.558
31499W        W90760  32.458  15.159   2.780
31500W        W90761  16.218  21.546   0.462
31501W        W90762  25.470   5.286  11.461
31502W        W90763   2.331  31.638   2.209
31503W        W90764  15.633  13.706  10.530
31504W        W90765  24.628   8.311   1.401
31505W        W90766  44.857  10.790   4.735
31506W        W90767  11.657  13.757   9.936
31507W        W90768  23.574  43.279  12.348
31508W        W90769  36.576  25.998  11.942
31509W        W90770  32.531   8.181  11.929
31510W        W90771   5.921  35.999  14.773
31511W        W90772  43.380  35.056   9.978
31512W        W90773  17.130  27.684  13.488
31513W        W90774  43.458   9.166  10.973
31514W        W90775  38.412  17.278  10.132
31515W        W90776  33.052  35.977   0.941
31516W        W90777   2.363  41.523   4.167
31517W        W90778  13.288  38.334   2.811
31518W        W90779  43.400  27.033  10.533
31519W        W90780  33.001  18.274   0.273
31520W        W90781   2.446  33.417  13.883
31521W        W90782   5.876  38.860   1.363
31522W        W90783  33.551  11.789   4.237
31523W        W90784  42.972  38.497   3.660
31524W        W90785  32.063  17.726  13.839
31525W        W90786  29.491  39.065   4.730
31526W        W90787   6.898  13.145  14.792
31527W        W90788  26.668  12.721  12.544
31528W        W90789  43.290  16.605   2.745
31529W        W90790  17.667  39.847   3.846
31530W        W90791  32.451  13.779  11.932
31531W        W90792  28.616  20.710   2.663
31532W        W90793   3.392   9.875  13.355
31533W        W90794  42.977  10.716   2.682
31534W        W90795  32.103  24.079  12.087
31535W        W90796  11.728  41.500   1.869
31536W        W90797  25.617   2.724   1.926
31537W        W90798  27.508  20.191   2.668
31538W        W90799  42.368  35.916  11.120
31539W        W90800  28.679  32.940   3.772
31540W        W90801  14.248  31.620  14.342
31541W        W90802  34.569   0.803  10.901
31542W        W90803  12.712  20.098  13.503
31543W        W90804   9.208  36.900   3.718
31544W        W90805  34.901  28.539   4.684
31545W        W90806  33.880  14.761  13.896
31546W        W90807  42.950  25.133  11.931
31547W        W90808  15.685   9.196  12.947
31548W        W90809  29.040  27.146  13.540
31549W        W90810  20.637   0.865   4.300
31550W        W90811  42.972  20.187  14.831
31551W        W90812  24.659  23.037   1.357
31552W        W90813  43.020   7.265  12.436
31553W        W90814  14.190  15.194   3.754
31554W        W90815  10.227  33.432   3.691
31555W        W90816  19.613   3.253  13.978
31556W        W90817  33.397  10.773   3.658
31557W        W90818  12.236  13.724   0.483
31558W        W90819  14.244  22.115  12.005
31559W        W90820  15.284  10.807  13.822
31560W        W90821   7.292  25.626   4.351
31561W        W90822  43.285  34.078   0.900
31562W        W90823  16.791  42.027   2.308
31563W        W90824  20.705  30.160  10.599
31564W        W90825   1.474   1.415   0.370
31565W        W90826  44.811  40.879   0.262
31566W        W90827  42.988   1.921   1.791
31567W        W90828  44.365  11.762  14.284
31568W        W90829  15.644  14.801   1.700
31569W        W90830  14.213   6.700   5.083
31570W        W90831  13.801   7.177  11.419
31571W        W90832  15.792  14.694  12.892
31572W        W90833  38.835   7.725  13.904
31573W        W90834   1.915  31.074   0.791
31574W        W90835  13.696  37.561   3.330
31575W        W90836  30.154  21.562   1.385
31576W        W90837  30.138  26.999   2.700
31577W        W90838   9.733   4.408   1.436
31578W        W90839  16.279  38.870   3.662
31579W        W90840  28.133  10.735   0.379
31580W        W90841  12.838  26.587   1.258
31581W        W90842  15.148  39.988   2.405
31582W        W90843  13.838  28.577   0.890
31583W        W90844  16.113  28.075   1.769
31584W        W90845   2.915   8.204  11.123
31585W        W90846  33.581   1.868  14.786
31586W        W90847  37.520  31.083  13.448
31587W        W90848  23.238  29.935   3.782
31588W        W90849  23.138   6.379  14.032
31589W        W90850  42.406  18.733   4.624
31590W        W90851  42.952  29.432   1.926
31591W        W90852  12.296   4.709   4.830
31592W        W90853  32.581  37.851  11.127
31593W        W90854  27.608   8.253  13.022
31594W        W90855  11.670  29.569  13.859
31595W        W90856  20.756  33.417   4.196
31596W        W90857   9.269  16.083  10.643
31597W        W90858  39.928  18.779   0.901
31598W        W90859  42.355   4.821   0.417
31599W        W90860  30.625  33.537  13.378
31600W        W90861  38.422   8.311  14.492
31601W        W90862  19.117  39.541  10.544
31602W        W90863  31.539  28.630  12.910
31603W        W90864  15.197  14.179   5.231
31604W        W90865  31.621  35.891  11.857
31605W        W90866  25.033  22.115  10.616
31606W        W90867  18.093   2.863  11.021
31607W        W90868   5.358  16.764  12.065
31608W        W90869   2.847  10.329  14.773
31609W        W90870  22.595   6.279  14.838
31610W        W90871  44.393  31.138   1.797
31611W        W90872  19.656  11.364  11.085
31612W        W90873  10.276  43.508   3.309
31613W        W90874  24.487  27.525  10.982
31614W        W90875  41.946  11.252  12.031
31615W        W90876   4.845  22.641  14.955
31616W        W90877  10.269  39.435   2.847
31617W        W90878  10.676  38.004   2.788
31618W        W90879  31.519   7.871   3.745
31619W        W90880  37.836  23.570  12.908
31620W        W90881  21.710  30.566  14.814
31621W        W90882  33.989  33.924  14.297
31622W        W90883  41.309  39.972  14.857
31623W        W90884  11.772  42.419   2.379
31624W        W90885  21.756   0.972   4.279
31625W        W90886  25.157  16.596  13.869
31626W        W90887  20.566  13.159   0.338
31627W        W90888  32.617  11.698   1.244
31628W        W90889  32.894  38.913  13.545
31629W        W90890  34.085  15.704  11.464
31630W        W90891  15.777  12.794   5.269
31631W        W90892  29.011   1.346  14.277
31632W        W90893   8.223   1.413   2.234
31633W        W90894   5.382  41.363  12.550
31634W        W90895  20.153   4.811  14.406
31635W        W90896  12.856  41.366   1.258
31636W        W90897  23.631  18.160  13.481
31637W        W90898  33.411   0.444   0.852
31638W        W90899   5.261  41.462   1.811
31639W        W90900   9.760  34.595   4.726
31640W        W90901  25.468  17.214  14.944
31641W        W90902  22.607  11.201  14.967
31642W        W90903  10.773  20.233   3.254
31643W        W90904  22.737  24.564  12.366
31644W        W90905  30.492  36.558  13.508
31645W        W90906  32.494  19.687   2.721
31646W        W90907  10.783  34.985  13.963
31647W        W90908   2.341   1.826   5.241
31648W        W90909  21.239   9.664   4.616
31649W        W90910   3.765  41.878  12.009
31650W        W90911  17.130  38.415   1.829
31651W        W90912  29.589  35.041  13.060
31652W        W90913  30.563  24.063  11.922
31653W        W90914  35.939   3.722   2.228
31654W        W90915  44.978  26.073   0.760
31655W        W90916  29.096   5.833  14.321
31656W        W90917   4.710  37.470   4.829
31657W        W90918   3.813  11.755   2.863
31658W        W90919  14.254   0.481   2.782
31659W        W90920   5.767  30.434   1.276
31660W        W90921  27.948   4.393   4.712
31661W        W90922  22.141  33.986   3.753
31662W        W90923  20.274  15.292   1.777
31663W        W90924  25.660  29.162  12.051
31664W        W90925  18.630  24.164  10.930
31665W        W90926  40.987  27.954  14.017
31666W        W90927  14.213  32.993   0.931
31667W        W90928  32.949  31.982  10.910
31668W        W90929  22.150  37.921   1.817
31669W        W90930   6.239   7.777  12.080
31670W        W90931  35.504  36.357   3.855
31671W        W90932  11.151  22.197   0.923
31672W        W90933  38.985   4.369   0.807
31673W        W90934  42.032  26.551  12.052
31674W        W90935   2.958  29.041  10.914
31675W        W90936   1.758  35.013  10.520
31676W        W90937  26.638  15.718  12.896
31677W        W90938   7.911  36.568   2.757
31678W        W90939  29.566  14.187   1.859
31679W        W90940  41.324  21.018   5.656
31680W        W90941  43.303  13.341   0.464
31681W        W90942  39.549  41.977  13.025
31682W        W90943  30.631  16.081  12.561
31683W        W90944   3.419  27.499  11.076
31684W        W90945   7.674  31.037  11.888
31685W        W90946   7.730  37.968   1.315
31686W        W90947  40.050   7.710  11.606
31687W        W90948  31.147   5.256   2.367
31688W        W90949  39.018   0.834   4.220
31689W        W90950  39.869  15.674   2.295
31690W        W90951  11.829  42.012   2.698
31691W        W90952  37.965  23.130  14.275
31692W        W90953   0.795  37.538  11.394
31693W        W90954  21.088  35.489  14.904
31694W        W90955  23.200  18.187   3.297
31695W        W90956  10.655  29.529   1.900
31696W        W90957  28.066  35.057  12.042
31697W        W90958  36.422  41.020   2.405
31698W        W90959  19.192  42.988  10.640
31699W        W90960  34.387   1.886  13.057
31700W        W90961  32.091  35.071   4.117
31701W        W90962  36.557  22.238   0.319
31702W        W90963  19.573  12.221   0.309
31703W        W90964   8.789  12.207   4.333
31704W        W90965  10.353  22.134   4.796
31705W        W90966  36.413  29.457  11.513
31706W        W90967  31.070  20.114   1.337
31707W        W90968  11.129  34.043  11.121
31708W        W90969   5.427  36.878  14.786
31709W        W90970   3.332  26.181   0.789
31710W        W90971  28.609  21.591   4.636
31711W        W90972   6.750   6.916   0.450
31712W        W90973  39.538  43.274   4.281
31713W        W90974  34.613   9.723  10.607
31714W        W90975   9.161  13.702   2.222
31715W        W90976  36.592  21.035  10.469
31716W        W90977  35.889  10.685  13.973
31717W        W90978  39.382  44.347   3.658
31718W        W90979  29.032   1.420  12.885
31719W        W90980   8.392  43.936   1.712
31720W        W90981  22.173  35.376   0.781
31721W        W90982  44.904  42.486   2.740
31722W        W90983  40.438  36.913  13.909
31723W        W90984  35.478  20.667   0.359
31724W        W90985  21.605  11.366   0.346
31725W        W90986  32.100  32.584   4.326
31726W        W90987  10.275  41.845   1.253
31727W        W90988   1.324   4.280   2.300
31728W        W90989  13.172   3.334  10.554
31729W        W90990  29.960   0.436  11.525
31730W        W90991  33.595  21.687  10.407
31731W        W90992   3.797  32.024  10.080
31732W        W90993  12.760  22.522  14.880
31733W        W90994  30.977   6.345   0.796
31734W        W90995  21.038  26.047  14.803
31735W        W90996   9.317  15.822  10.405
31736W        W90997  22.012  36.902  11.372
31737W        W90998  12.802  24.094  12.558
31738W        W90999  11.769  33.093   0.919
31739W        W91000   4.415  26.955   4.836
31740W        W91001  23.640  28.077   4.258
31741W        W91002  43.841  14.626   4.311
31742W        W91003  23.997  40.896   2.877
31743W        W91004  18.713  28.998   1.775
31744W        W91005  22.514   6.289   3.272
31745W        W91006   7.789  26.178   4.206
31746W        W91007   9.703   7.823  12.879
31747W        W91008  37.938  11.187  12.517
31748W        W91009  39.004  37.372  14.856
31749W        W91010   7.796  33.091   2.830
31750W        W91011  34.513  44.763   3.809
31751W        W91012  37.457  44.963   4.316
31752W        W91013  22.615  24.114   1.855
31753W        W91014  19.251  11.848   4.716
31754W        W91015  27.682  31.594  13.431
31755W        W91016   8.770   2.956  10.960
31756W        W91017  36.527  28.933   4.780
31757W        W91018  30.126  12.202  10.544
31758W        W91019  30.982   9.171  14.798
31759W        W91020   8.866  21.756  13.324
31760W        W91021  37.058  17.659   0.777
31761W        W91022  22.730  42.023  13.880
31762W        W91023  39.464  15.705  11.601
31763W        W91024  16.075  15.160  14.475
31764W        W91025   5.914   4.243  12.361
31765W        W91026   3.326  32.440   1.369
31766W        W91027  16.596  12.204  13.522
31767W        W91028  14.308  44.443  14.390
31768W        W91029  39.978  17.245  11.891
31769W        W91030  23.027   5.768  12.867
31770W        W91031  28.045  32.394   0.268
31771W        W91032   2.740  31.632   0.416
31772W        W91033  26.660  29.168   2.725
31773W        W91034  34.088  30.941   0.758
31774W        W91035  14.149   4.733  13.958
31775W        W91036  17.275   7.779  11.957
31776W        W91037  33.468  35.443   2.276
31777W        W91038  28.173  10.253   2.771
31778W        W91039  38.543   3.935   0.927
31779W        W91040  36.391  12.722  11.009
31780W        W91041  28.110  11.759  13.515
31781W        W91042   5.229  25.208   1.761
31782W        W91043  19.657  25.603  10.422
31783W        W91044  12.325  37.943   3.736
31784W        W91045  38.900  28.052  13.381
31785W        W91046  15.090  44.393  11.465
31786W        W91047   3.859  17.791  14.288
31787W        W91048  26.117  10.762   3.304
31788W        W91049  12.744  36.096  13.437
31789W        W91050  36.428  31.952  12.506
31790W        W91051  17.747  19.087  13.053
31791W        W91052  25.107  28.535  10.586
31792W        W91053   0.409  33.411   0.279
31793W        W91054  41.337  27.510  12.019
31794W        W91055  16.693  39.401   0.371
31795W        W91056  32.025  27.167   0.461
31796W        W91057   5.273  30.444  12.835
31797W        W91058   7.750  39.938  12.486
31798W        W91059  26.084  18.184  13.899
31799W        W91060   1.249  29.135  14.419
31800W        W91061  34.034  27.620  13.937
31801W        W91062  44.764   5.826  13.865
31802W        W91063  28.615  14.595  13.472
31803W        W91064  43.392  32.005  10.950
31804W        W91065  14.102  32.909   1.267
31805W        W91066  34.606   3.709  14.980
31806W        W91067  24.098  16.259  14.495
31807W        W91068  15.198   4.287  10.981
31808W        W91069  19.136  12.662  10.406
31809W        W91070  24.006  16.808  12.561
31810W        W91071  18.285  24.986   4.312
31811W        W91072  44.406  36.535  14.394
31812W        W91073  41.919  15.820   3.849
31813W        W91074  10.206  44.324  14.017
31814W        W91075  30.470  44.927  11.608
31815W        W91076   1.311  41.996  13.043
31816W        W91077  28.679   5.733   3.638
31817W        W91078  27.128   8.189   3.345
31818W        W91079  17.624  11.215  14.301
31819W        W91080  30.550  32.131   2.186
31820W        W91081  16.587  40.477   0.826
31821W        W91082  14.127  39.857   3.233
31822W        W91083  11.853  37.028   0.405
31823W        W91084  39.858  41.040  10.636
31824W        W91085  37.906  31.464  10.529
31825W        W91086  33.098  20.619  13.847
31826W        W91087  10.701  34.916   4.192
31827W        W91088  28.628   6.351   3.317
31828W        W91089  21.574  12.331   2.236
31829W        W91090  17.061  22.141  12.992
31830W        W91091   5.916   0.806  13.899
31831W        W91092  43.319  38.035   3.260
31832W        W91093  14.646  26.099  13.455
31833W        W91094  17.301  23.234  13.307
31834W        W91095  31.491  15.269  10.425
31835W        W91096  12.710  26.151   0.245
31836W        W91097  37.378  16.185  12.392
31837W        W91098   3.719  28.010   1.695
31838W        W91099  25.635  22.078   2.182
31839W        W91100   3.895  27.192   0.900
31840W        W91101   3.284  21.671   3.836
31841W        W91102  14.680  24.160  11.949
31842W        W91103  11.863  34.888  13.385
31843W        W91104   0.752  21.184  14.984
31844W        W91105  16.687  24.720  14.869
31845W        W91106  15.702  38.444   1.447
31846W        W91107  27.680   3.443  12.850
31847W        W91108  15.308  26.086   4.618
31848W        W91109  13.341  11.215  14.861
31849W        W91110  44.281  22.641  14.337
31850W        W91111  14.658  35.583   3.305
31851W        W91112  42.788   7.297   4.336
31852W        W91113  13.710  42.018  10.486
31853W        W91114  20.046  26.481   2.375
31854W        W91115   2.734  35.067  11.410
31855W        W91116  12.656   5.835   3.378
31856W        W91117  24.656  41.939   1.840
31857W        W91118  42.320  30.953  13.947
31858W        W91119  26.640  28.158   0.425
31859W        W91120  31.476  29.089  11.981
31860W        W91121  24.006  43.017   5.304
31861W        W91122   7.299  17.599  11.584
31862W        W91123  41.492  10.708  12.833
31863W        W91124  11.742  26.027  11.901
31864W        W91125  23.230  21.544   9.515
31865W        W91126  39.507   8.243  12.445
31866W        W91127  44.765  39.526   0.884
31867W        W91128  38.962  40.339  10.090
31868W        W91129  39.465  40.951  13.512
31869W        W91130  31.946  27.558  11.407
31870W        W91131   7.687  20.677  11.874
31871W        W91132  26.045  19.681   2.401
31872W        W91133  18.123  30.970   2.395
31873W        W91134  12.356  39.009  12.827
31874W        W91135  15.183  44.928  12.062
31875W        W91136  34.045  32.047  11.927
31876W        W91137   3.859  16.140  11.415
31877W        W91138  17.095  37.878  12.873
31878W        W91139  33.073  22.609   3.815
31879W        W91140   1.394   0.484  10.957
31880W        W91141  17.257  19.041  14.963
31881W        W91142  29.548  41.012  11.373
31882W        W91143   8.843   6.741   2.838
31883W        W91144  24.715  17.236  11.604
31884W        W91145  35.904   9.381  12.974
31885W        W91146  36.056  39.516   3.155
31886W        W91147  13.727  23.235   3.300
31887W        W91148  13.648  25.966   1.926
31888W        W91149  31.583  14.635   3.846
31889W        W91150  16.575  20.124  13.004
31890W        W91151  14.182  12.779  14.328
31891W        W91152  40.975  23.554  11.451
31892W        W91153   9.667  19.724  14.942
31893W        W91154  29.437   6.237  11.476
31894W        W91155  18.549  19.738  13.912
31895W        W91156  29.148  25.554  13.342
31896W        W91157   6.824  31.968  11.868
31897W        W91158  24.551   5.200  14.935
31898W        W91159  26.964   1.448  12.514
31899W        W91160  31.493  36.017   0.856
31900W        W91161   5.703  22.504   2.367
31901W        W91162   5.345  18.595  13.504
31902W        W91163   9.322   9.843  14.822
31903W        W91164  38.870   0.384   4.321
31904W        W91165  41.983  26.465  14.432
31905W        W91166   2.268  29.963  13.865
31906W        W91167  26.497  44.829  10.093
31907W        W91168  42.782  20.041   2.248
31908W        W91169  16.709   5.775   2.787
31909W        W91170  19.731  29.940   3.860
31910W        W91171  28.142   8.719   2.682
31911W        W91172  16.216  17.064  12.563
31912W        W91173  25.984  42.408  10.620
31913W        W91174  17.790   0.873   3.660
31914W        W91175  29.486  25.585  14.457
31915W        W91176  25.113  31.521  14.832
31916W        W91177  33.010  42.027   0.249
31917W        W91178  44.847  11.770  10.533
31918W        W91179  11.755  12.246   2.741
31919W        W91180  27.518  28.518  14.438
31920W        W91181   6.260  44.411  12.483
31921W        W91182  13.161   5.275   4.133
31922W        W91183  22.097  39.466  10.895
31923W        W91184  21.038   6.410   2.379
31924W        W91185  10.649  43.897  14.872
31925W        W91186  16.718  36.845  10.413
31926W        W91187  16.600  31.515   3.755
31927W        W91188  32.615  42.456   0.870
31928W        W91189  43.989  16.730   1.862
31929W        W91190  31.493  30.924  13.311
31930W        W91191   3.901  23.605   3.157
31931W        W91192  12.314  16.105  10.462
31932W        W91193  16.635  18.791  11.547
31933W        W91194  15.222  31.414  14.818
31934W        W91195  18.563   5.277  12.426
31935W        W91196   0.891  35.063   3.636
31936W        W91197   0.421  12.637  10.541
31937W        W91198   1.838   9.835  11.557
31938W        W91199   4.288   4.711  11.000
31939W        W91200   7.694  30.938  13.829
31940W        W91201   6.274  34.409  14.306
31941W        W91202  30.465  11.752  13.365
31942W        W91203  22.193  32.506  14.275
31943W        W91204   0.296  41.945  14.363
31944W        W91205  33.498  33.908  10.947
31945W        W91206  14.241   9.224   2.713
31946W        W91207   4.272  40.487   0.952
31947W        W91208  16.113  31.942  12.852
31948W        W91209  19.129  22.606   4.291
31949W        W91210   0.798  32.410  11.026
31950W        W91211  17.262  42.977   3.286
31951W        W91212   2.466  44.862   1.246
31952W        W91213  26.098  43.417  11.376
31953W        W91214   2.345  42.983  11.093
31954W        W91215  44.964  11.756   4.269
31955W        W91216  42.298  34.561   3.267
31956W        W91217  13.155  44.432   0.418
31957W        W91218  39.979  37.055  12.499
31958W        W91219   8.741  25.975  13.335
31959W        W91220  34.884  23.713  10.413
31960W        W91221  17.081   1.422  12.940
31961W        W91222  42.923  28.665   2.827
31962W        W91223  13.176  24.513  12.828
31963W        W91224  20.757  38.034   1.431
31964W        W91225  30.648  34.454  14.345
31965W        W91226  31.960   4.804  11.420
31966W        W91227   3.784   0.438   4.220
31967W        W91228  33.431  13.764   0.894
31968W        W91229  17.597  11.314  11.428
31969W        W91230  15.592  41.320   4.634
31970W        W91231  35.961  26.179   0.451
31971W        W91232  35.887  41.534   4.827
31972W        W91233  14.594  25.665   0.893
31973W        W91234  27.082  12.187  10.986
31974W        W91235  43.291   8.834  12.577
31975W        W91236  11.326  10.241   3.783
31976W        W91237  41.431  26.145   9.662
31977W        W91238   8.870  18.245   4.194
31978W        W91239   0.417   9.237   4.162
31979W        W91240   7.697  13.771  11.914
31980W        W91241   7.283  15.148  14.389
31981W        W91242  34.395  15.168  14.332
31982W        W91243   7.800   2.838   3.635
31983W        W91244  25.497  18.066  11.523
31984W        W91245  12.274   2.321  12.475
31985W        W91246  16.126  26.031   3.659
31986W        W91247   5.740  19.672   3.841
31987W        W91248   2.784  13.631   0.448
31988W        W91249  41.405  40.482   2.854
31989W        W91250   4.891   1.386  14.953
31990W        W91251   9.337  13.721  14.993
31991W        W91252  29.660   3.734  12.474
31992W        W91253  19.594  17.164   3.702
31993W        W91254  39.874  15.105  11.028
31994W        W91255   0.826   2.881   0.385
31995W        W91256  30.575  34.103   4.215
31996W        W91257  25.141  16.283   2.181
31997W        W91258  42.860  10.757   0.480
31998W        W91259  12.764   0.409   0.807
31999W        W91260  27.560   9.317   1.449
32000W        W91261  38.445  22.548  14.885
32001W        W91262  28.184   5.909   1.919
32002W        W91263   7.375  26.952  10.630
32003W        W91264  38.352  22.240  11.975
32004W        W91265  33.048  37.890  14.391
32005W        W91266  12.715   3.862   0.311
32006W        W91267   0.937  38.415   4.180
32007W        W91268  12.353   0.269  11.969
32008W        W91269  35.081  42.405   4.204
32009W        W91270   3.801  15.692   2.344
32010W        W91271  16.137  32.891  14.814
32011W        W91272  26.077  43.360   3.639
32012W        W91273  35.871   0.323  13.418
32013W        W91274  32.980  28.646  14.294
32014W        W91275  29.050  20.034   0.428
32015W        W91276  38.035  41.889  12.063
32016W        W91277  18.626  22.661   4.835
32017W        W91278  16.196   1.343  12.902
32018W        W91279  19.737  26.680   3.714
32019W        W91280  25.638  29.474  13.331
32020W        W91281  27.037  40.916   1.925
32021W        W91282  23.227  17.141  12.856
32022W        W91283  24.202  25.219   9.943
32023W        W91284  20.127   9.749  12.066
32024W        W91285  26.978  38.862   2.838
32025W        W91286  40.545  23.498  13.502
32026W        W91287   7.411   2.309   3.291
32027W        W91288  34.443  37.051   3.178
32028W        W91289  37.060  36.018  13.503
32029W        W91290   9.216  43.855   4.720
32030W        W91291  21.195  24.482   2.732
32031W        W91292  13.166  44.403   4.250
32032W        W91293  10.310  31.428   1.253
32033W        W91294  14.257  34.583   3.223
32034W        W91295  24.183   6.895   3.159
32035W        W91296  28.082   3.395   1.839
32036W        W91297   7.705   4.890  13.395
32037W        W91298  22.725  13.686   2.289
32038W        W91299  33.622   8.718  13.959
32039W        W91300   3.360  44.805  13.471
32040W        W91301   3.949  13.823  14.027
32041W        W91302  35.497  41.315   3.271
32042W        W91303   4.762  17.756   2.808
32043W        W91304  11.818  26.593  14.807
32044W        W91305  41.003  30.423   3.822
32045W        W91306  37.564  13.646  12.950
32046W        W91307  24.551  30.450   3.634
32047W        W91308  44.863   0.438   4.291
32048W        W91309  18.586  42.814  10.100
32049W        W91310  15.129   3.409   1.827
32050W        W91311  38.052  32.983  11.411
32051W        W91312  43.886  10.724  10.598
32052W        W91313   3.740  14.796  13.503
32053W        W91314   8.764  12.306   1.871
32054W        W91315  25.130   8.666   2.813
32055W        W91316  25.998  30.648  10.073
32056W        W91317  30.564  41.979   4.122
32057W        W91318  21.743  18.774   0.294
32058W        W91319   5.254  38.944   1.267
32059W        W91320   4.346   6.843   2.348
32060W        W91321  21.581   7.677   2.708
32061W        W91322  22.111  15.296   2.857
32062W        W91323  15.652  37.995  12.458
32063W        W91324  40.342  20.548   5.097
32064W        W91325  44.260  41.508   3.716
32065W        W91326  32.047  38.444   1.382
32066W        W91327  44.765  43.473  10.900
32067W        W91328  42.507   5.411   1.888
32068W        W91329  43.297  13.706  12.921
32069W        W91330  44.954   1.462   0.272
32070W        W91331   0.915  15.609   1.820
32071W        W91332  38.423  15.150   3.285
32072W        W91333  25.652  27.957   0.450
32073W        W91334  10.209  22.663   0.755
32074W        W91335  39.337  34.436   1.330
32075W        W91336  32.964  32.619  11.548
32076W        W91337  41.493  41.030   2.348
32077W        W91338   2.409  15.673   2.218
32078W        W91339  12.672   8.681   2.846
32079W        W91340  36.937   9.355  13.037
32080W        W91341  26.027  41.805  11.571
32081W        W91342  37.070  33.537   2.204
32082W        W91343  19.645  17.785   0.893
32083W        W91344  28.106  25.688  14.448
32084W        W91345  14.244   7.903  14.505
32085W        W91346  19.167  22.631  10.513
32086W        W91347  31.058  14.685  11.967
32087W        W91348   5.866   0.967   4.351
32088W        W91349  37.853  35.882  11.402
32089W        W91350  33.048  18.742  14.831
32090W        W91351  22.608   4.400  14.840
32091W        W91352   1.479  37.041  12.023
32092W        W91353  33.577  27.046  13.834
32093W        W91354  13.334  20.760  12.553
32094W        W91355  10.848  39.870   0.279
32095W        W91356  39.907  22.029  11.979
32096W        W91357  13.709  40.389  12.985
32097W        W91358   7.811   9.242  12.961
32098W        W91359  36.877  39.833   4.131
32099W        W91360  32.902  34.565   0.898
32100W        W91361  44.261  36.856   4.315
32101W        W91362  10.814   8.212  13.834
32102W        W91363  35.935  35.418   1.422
32103W        W91364   5.338   5.265   2.870
32104W        W91365  22.675  22.187   9.943
32105W        W91366   5.874  19.598  12.009
32106W        W91367   9.780  15.705   4.685
32107W        W91368  26.459  35.375  10.487
32108W        W91369  27.596  34.967   1.383
32109W        W91370  43.865   6.710  14.462
32110W        W91371  33.499  18.668   2.809
32111W        W91372   8.212  41.466  11.535
32112W        W91373  24.193   0.747   1.773
32113W        W91374  22.731  25.024   4.188
32114W        W91375  29.117  44.328  12.465
32115W        W91376  36.881  12.817   1.802
32116W        W91377  43.005   5.343   0.339
32117W        W91378  22.191  39.982   2.708
32118W        W91379   7.257  21.519  10.547
32119W        W91380   6.205  34.877  10.446
32120W        W91381  41.882  11.194  11.398
32121W        W91382   9.739  18.701  13.841
32122W        W91383  11.792   0.833  10.632
32123W        W91384   3.250  23.201   2.879
32124W        W91385  18.593  22.594   9.995
32125W        W91386   9.654   0.293   0.390
32126W        W91387  43.477   7.759   3.224
32127W        W91388   1.332  43.892  13.052
32128W        W91389  22.670  34.943   1.380
32129W        W91390   8.850  39.856  12.947
32130W        W91391   9.784   8.401  14.929
32131W        W91392  42.820  43.388   1.323
32132W        W91393   8.746   8.280   2.676
32133W        W91394  13.760  24.636  11.371
32134W        W91395   2.936  41.852   1.338
32135W        W91396   5.244  31.951   3.313
32136W        W91397  27.448  43.474   0.951
32137W        W91398   4.860  29.458  12.361
32138W        W91399  11.325  19.752  13.451
32139W        W91400  22.676  12.675   2.826
32140W        W91401  34.436  31.411  14.402
32141W        W91402  43.302   8.172   2.224
32142W        W91403  17.798  12.133   3.296
32143W        W91404   6.718   1.421  13.913
32144W        W91405  34.118  12.855  10.923
32145W        W91406  26.154  34.062  13.916
32146W        W91407  32.126  11.179   0.255
32147W        W91408  17.298  39.447  10.488
32148W        W91409  30.032  26.613  13.023
32149W        W91410  10.274  39.044   1.371
32150W        W91411  23.176   0.337   4.323
32151W        W91412  28.977   9.196  12.039
32152W        W91413  22.083  14.827   0.263
32153W        W91414  13.677   6.311   2.260
32154W        W91415   1.299   4.429  14.474
32155W        W91416  32.623  22.210   0.424
32156W        W91417  30.651  14.650  10.492
32157W        W91418  20.631  38.520   0.959
32158W        W91419  25.972  19.694  13.872
32159W        W91420   1.316  25.119  13.001
32160W        W91421  42.381   4.864   3.784
32161W        W91422  34.100  15.596   2.298
32162W        W91423   7.738   7.721  13.434
32163W        W91424  26.953  19.122  13.024
32164W        W91425   8.811  43.271  11.107
32165W        W91426  27.103  12.255  11.410
32166W        W91427  21.200  37.356  14.283
32167W        W91428  35.994   1.367  13.474
32168W        W91429  36.471   1.930  11.384
32169W        W91430  23.680   4.811   0.373
32170W        W91431  44.861   1.892  12.452
32171W        W91432  33.890   2.459  13.798
32172W        W91433  32.006  21.581  14.813
32173W        W91434  39.846  15.664  11.923
32174W        W91435   8.677  41.882  14.790
32175W        W91436  25.636  17.064  14.336
32176W        W91437   6.724  14.788  11.524
32177W        W91438  20.528  13.131   4.747
32178W        W91439  25.691   1.334  13.013
32179W        W91440  33.412  29.986   2.868
32180W        W91441  29.642  28.082  11.077
32181W        W91442  43.464  32.888   2.181
32182W        W91443   6.195  19.663  10.577
32183W        W91444  38.890  34.010   3.759
32184W        W91445  31.428  44.369   4.280
32185W        W91446  12.758   1.883   2.741
32186W        W91447   7.885  44.775   1.221
32187W        W91448  41.968   5.709   0.350
32188W        W91449  28.040  23.506  14.866
32189W        W91450  18.282  15.592  10.563
32190W        W91451  30.599  39.027   4.616
32191W        W91452  38.930  15.756   3.198
32192W        W91453   9.286  13.243   4.255
32193W        W91454  29.172  12.656  11.873
32194W        W91455  23.581  34.105   3.659
32195W        W91456  28.935  11.147  10.458
32196W        W91457  26.470  41.021  11.561
32197W        W91458  27.194  15.589   4.813
32198W        W91459  38.879   1.408  14.370
32199W        W91460   4.705   8.813  11.876
32200W        W91461  32.445   3.367  10.056
32201W        W91462  20.079  23.058  11.901
32202W        W91463  33.599  10.200   1.293
32203W        W91464  19.726  35.038  11.079
32204W        W91465  39.391  40.303  12.828
32205W        W91466  11.838  21.097  14.376
32206W        W91467  30.958  19.066   3.717
32207W        W91468  17.578   4.702  14.807
32208W        W91469  20.736  38.497  13.379
32209W        W91470  32.593  43.966  10.968
32210W        W91471  29.649   1.765   2.793
32211W        W91472   9.760  21.049   1.791
32212W        W91473   8.758  12.721  12.979
32213W        W91474   9.817  41.910  13.531
32214W        W91475  26.490   9.644   0.332
32215W        W91476   8.329  36.513  10.488
32216W        W91477  24.185   7.327   5.148
32217W        W91478  31.639  38.363   3.642
32218W        W91479  18.671  29.520  11.904
32219W        W91480  32.963  18.619   1.426
32220W        W91481  35.430  19.674   0.395
32221W        W91482  25.682  40.400   2.736
32222W        W91483  40.417   5.264  12.949
32223W        W91484  40.428  32.551   5.196
32224W        W91485  39.878  36.404  13.487
32225W        W91486  27.189   1.974   4.610
32226W        W91487  44.831   0.298  11.372
32227W        W91488  41.832  15.578  14.801
32228W        W91489   2.964  28.081  13.386
32229W        W91490  24.517  12.741   3.206
32230W        W91491   8.853   1.383  10.563
32231W        W91492  28.992  17.211  13.313
32232W        W91493  37.056   0.752   4.710
32233W        W91494  22.107  15.733  11.440
32234W        W91495  28.492  36.450  11.511
32235W        W91496  41.882  40.819   2.228
32236W        W91497   6.898  18.096   3.665
32237W        W91498  14.257  31.539   1.800
32238W        W91499  13.756   8.822  14.377
32239W        W91500   2.337  33.053   4.311
32240W        W91501  23.153  44.997  12.876
32241W        W91502  40.022   3.782   4.119
32242W        W91503  10.754  37.514  13.365
32243W        W91504  27.007   3.782  14.413
32244W        W91505  41.885  36.998   2.230
32245W        W91506  35.997  39.944   1.280
32246W        W91507  11.192  20.060  12.388
32247W        W91508  13.205   9.287   4.113
32248W        W91509   7.858  36.349  13.835
32249W        W91510  10.771  28.963   3.837
32250W        W91511  37.036  30.000   4.781
32251W        W91512  32.044  30.498   2.411
32252W        W91513  31.992  18.752  13.331
32253W        W91514  33.474   0.392   2.837
32254W        W91515  38.353  43.274   2.296
32255W        W91516  23.678  21.540   2.897
32256W        W91517  41.521  25.192  14.354
32257W        W91518  41.401  40.303  14.017
32258W        W91519  25.671  29.516   3.645
32259W        W91520  28.437  11.301  13.405
32260W        W91521  33.560  19.729   4.333
32261W        W91522  13.737  27.946   0.328
32262W        W91523  21.727  31.547   3.853
32263W        W91524   5.848  37.926   4.225
32264W        W91525  25.571   2.912  13.062
32265W        W91526  31.604  35.890  10.894
32266W        W91527  23.656  17.599  13.003
32267W        W91528  38.828  38.886  14.382
32268W        W91529   1.391  10.148   1.879
32269W        W91530  10.242  39.458   1.738
32270W        W91531   0.395  25.024  11.476
32271W        W91532  22.141  26.099   4.679
32272W        W91533  10.297  34.555  10.031
32273W        W91534  26.117  19.144  13.900
32274W        W91535  28.511   3.800  12.552
32275W        W91536  36.981  19.648   1.408
32276W        W91537  22.100   5.407   2.675
32277W        W91538  40.401  11.621   3.386
32278W        W91539  32.076   3.303  14.783
32279W        W91540  37.990  13.227  10.470
32280W        W91541  25.968  10.844   4.161
32281W        W91542  10.275  12.255   1.931
32282W        W91543  31.542  37.920  11.959
32283W        W91544  28.671  30.133   0.745
32284W        W91545  32.086  41.999  11.561
32285W        W91546  28.659  27.557  12.429
32286W        W91547  39.865   0.374   2.900
32287W        W91548  37.913  13.285   1.212
32288W        W91549  30.031  32.048   0.409
32289W        W91550  36.396   3.254   0.348
32290W        W91551  32.584  40.855   2.230
32291W        W91552  34.491  42.910  14.864
32292W        W91553  24.552  33.060  11.084
32293W        W91554  42.325  38.859  12.033
32294W        W91555  28.485   0.848   9.967
32295W        W91556   1.967  26.691  12.377
32296W        W91557  14.737  43.906   3.274
32297W        W91558  27.960  16.781   4.759
32298W        W91559  35.054  28.515  13.986
32299W        W91560  44.848   9.177   0.863
32300W        W91561  21.211  23.718  14.493
32301W        W91562  28.156   1.898   1.423
32302W        W91563  32.134  40.953  14.861
32303W        W91564   6.341  20.696   3.835
32304W        W91565  40.370  10.640  11.941
32305W        W91566   5.288   4.796   3.228
32306W        W91567  22.611  29.515  12.574
32307W        W91568  12.635  34.570   3.854
32308W        W91569  39.956  16.122   2.687
32309W        W91570   3.881  39.374  11.385
32310W        W91571  16.711   6.760  14.856
32311W        W91572  28.451  27.994  14.404
32312W        W91573  16.318  44.494  10.146
32313W        W91574  20.060  17.109   3.850
32314W        W91575   9.705  29.170  12.854
32315W        W91576  23.714  30.074  11.574
32316W        W91577  37.934   0.351  12.528
32317W        W91578  31.536  22.640   1.900
32318W        W91579  23.599  10.229   3.676
32319W        W91580  24.709  30.968   2.322
32320W        W91581  24.525   9.802  11.386
32321W        W91582  19.709   6.800   0.784
32322W        W91583  32.934  32.029  13.016
32323W        W91584  22.183  11.835   2.866
32324W        W91585  35.416  25.056   0.279
32325W        W91586   0.743   1.288   2.256
32326W        W91587  17.230  12.360   0.296
32327W        W91588   8.775  41.512  11.918
32328W        W91589   0.270  39.024  12.915
32329W        W91590   7.191  12.263   2.183
32330W        W91591  31.083  14.279   2.264
32331W        W91592  21.060  23.686  11.454
32332W        W91593  13.347  15.597  13.812
32333W        W91594  11.300   7.811  11.570
32334W        W91595  30.020  14.304   0.946
32335W        W91596   7.280  35.571  12.861
32336W        W91597  21.263  21.684  11.518
32337W        W91598  17.273  26.556   2.415
32338W        W91599  39.030   3.389  13.341
32339W        W91600  39.411  23.528  11.401
32340W        W91601  19.066  44.902  10.590
32341W        W91602  25.500  19.230  13.476
32342W        W91603   5.429  15.086   0.315
32343W        W91604   7.362   2.894   2.835
32344W        W91605  14.274  30.065   4.216
32345W        W91606  28.985   6.357   3.741
32346W        W91607  11.287  21.535  14.899
32347W        W91608  22.554  32.538  11.440
32348W        W91609   2.764  11.676   0.923
32349W        W91610  22.246  24.572  11.524
32350W        W91611   5.324  36.873   4.738
32351W        W91612  37.524  33.913  14.917
32352W        W91613  34.462  19.768   1.754
32353W        W91614   2.394  28.013   1.313
32354W        W91615  19.635  41.397   3.686
32355W        W91616  29.114  14.115   4.771
32356W        W91617  42.449  33.040  14.880
32357W        W91618  44.898   1.753  10.454
32358W        W91619  11.344  42.946   2.744
32359W        W91620  32.031  36.500   0.950
32360W        W91621  24.571  41.035  10.600
32361W        W91622  13.298  41.483  11.446
32362W        W91623  24.507  42.331   1.338
32363W        W91624  22.101  24.579  13.925
32364W        W91625  29.601  23.514  10.588
32365W        W91626  24.075  23.531  11.572
32366W        W91627  38.431  33.532   2.895
32367W        W91628  43.382  21.551   1.822
32368W        W91629  23.725  31.141   4.796
32369W        W91630  27.614  42.387  13.472
32370W        W91631   9.670  28.185  13.827
32371W        W91632  41.356  35.585   4.789
32372W        W91633   8.238  34.578   2.715
32373W        W91634  11.846  28.156   3.719
32374W        W91635  16.750   4.783  12.001
32375W        W91636  30.610  38.498  13.031
32376W        W91637  38.385  17.224   5.210
32377W        W91638  12.838  12.647  11.417
32378W        W91639  21.613  11.190   1.734
32379W        W91640   2.797   7.300  10.442
32380W        W91641  36.078  29.984   4.317
32381W        W91642   8.283   7.417   1.301
32382W        W91643  28.946   7.880   3.207
32383W        W91644  38.899   0.382  12.076
32384W        W91645  10.779   1.405   4.286
32385W        W91646  23.704  21.194  12.417
32386W        W91647  44.856  37.441   4.681
32387W        W91648   9.335  22.179   3.817
32388W        W91649   3.777  35.368   0.350
32389W        W91650  41.441  27.193  12.362
32390W        W91651   6.377  20.552  11.382
32391W        W91652  36.463  38.840   0.937
32392W        W91653  18.670   9.310  14.438
32393W        W91654  25.976   9.317  13.925
32394W        W91655   1.277   9.841  13.528
32395W        W91656  34.552  13.344  14.810
32396W        W91657  38.937  16.306  11.017
32397W        W91658  37.577  29.519  10.419
32398W        W91659  20.615  24.636   2.821
32399W        W91660  39.057   6.820   0.477
32400W        W91661   4.343   9.883   3.195
32401W        W91662  29.975   0.316   4.784
32402W        W91663  39.326  10.278   4.117
32403W        W91664  35.091   8.312  12.397
32404W        W91665  15.636  23.495  11.875
32405W        W91666   7.320  28.589  11.383
32406W        W91667  12.154  19.734   4.266
32407W        W91668  43.389  41.039   1.855
32408W        W91669  27.007  38.327  14.905
32409W        W91670  14.283  33.884  14.004
32410W        W91671  44.386  26.138  10.434
32411W        W91672   0.746  44.434  11.476
32412W        W91673  42.895  14.243  13.449
32413W        W91674  25.038  37.488   3.323
32414W        W91675  23.723  37.409   1.900
32415W        W91676  41.926  20.746   4.335
32416W        W91677   6.801   1.335  14.896
32417W        W91678  16.810   5.201   0.726
32418W        W91679  34.042  14.300   1.796
32419W        W91680  38.528  30.158   1.823
32420W        W91681  23.723   6.757  14.363
32421W        W91682  43.898  10.740  13.384
32422W        W91683  31.404  25.638   0.748
32423W        W91684   4.846  43.775  11.607
32424W        W91685  44.366  26.020  13.377
32425W        W91686  39.890  42.869  11.436
32426W        W91687  24.709   7.401   4.608
32427W        W91688  35.398  18.232  14.781
32428W        W91689  42.826  24.042   3.668
32429W        W91690  26.157  33.886   3.163
32430W        W91691  33.465  16.105  10.574
32431W        W91692  36.093  19.747  10.926
32432W        W91693  12.360  26.618  10.017
32433W        W91694  17.140  37.907   0.873
32434W        W91695  20.624   3.793  12.021
32435W        W91696  15.210  20.236   2.352
32436W        W91697   2.841  28.591   2.864
32437W        W91698  10.279  36.880  12.869
32438W        W91699  40.016  26.193   1.868
32439W        W91700  12.326   7.349   4.778
32440W        W91701  34.569  11.846  10.990
32441W        W91702  22.724  38.468  14.956
32442W        W91703   2.387  21.756  10.552
32443W        W91704  28.439  19.259   4.721
32444W        W91705  13.794   1.901   3.667
32445W        W91706   7.384  38.441   3.280
32446W        W91707  30.648  19.674  13.379
32447W        W91708  16.765  38.011  14.355
32448W        W91709  32.903  25.977  10.983
32449W        W91710  26.525  15.663  11.860
32450W        W91711  32.980  23.622   3.286
32451W        W91712   3.899  10.662   1.433
32452W        W91713  27.549  35.055  11.062
32453W        W91714   3.799   2.731   0.347
32454W        W91715  31.091  10.171   2.703
32455W        W91716   6.366  37.486   4.292
32456W        W91717  12.172  43.500  12.580
32457W        W91718  43.340  26.163   4.703
32458W        W91719  31.064  20.138   1.832
32459W        W91720   3.311  39.485  11.070
32460W        W91721  36.362  32.595  10.456
32461W        W91722  28.045   4.760  13.503
32462W        W91723  28.047  21.638  10.145
32463W        W91724   8.191  17.758   2.373
32464W        W91725  32.055  13.719  12.093
32465W        W91726   9.352  32.474  12.967
32466W        W91727  30.965   3.944   2.772
32467W        W91728  17.265  37.492  11.102
32468W        W91729   6.414  19.057   2.233
32469W        W91730  37.560  42.952  10.975
32470W        W91731  25.101   8.172   3.803
32471W        W91732  37.412  30.957   1.921
32472W        W91733  24.224  30.656  11.981
32473W        W91734  22.148  39.364   0.733
32474W        W91735   2.424  44.961   4.251
32475W        W91736  18.561  14.629  13.398
32476W        W91737  14.145  10.351   0.925
32477W        W91738  21.526  35.012   1.312
32478W        W91739  34.079  17.696  14.777
32479W        W91740  27.012  37.488  11.077
32480W        W91741  31.136   9.336  13.882
32481W        W91742  24.599  42.804  12.831
32482W        W91743  25.497  24.161  11.443
32483W        W91744  41.352  32.120  14.822
32484W        W91745  35.862  44.431  13.908
32485W        W91746  17.306  42.309   2.182
32486W        W91747  38.858  43.372   1.773
32487W        W91748  28.112   8.277   3.746
32488W        W91749  10.195   2.287  14.300
32489W        W91750  30.485  34.585   2.803
32490W        W91751  42.512  10.199  14.362
32491W        W91752  30.519  19.227   2.692
32492W        W91753  43.908  21.150   2.350
32493W        W91754   7.911  29.642   4.147
32494W        W91755  13.657  12.228   1.893
32495W        W91756   0.921  13.153   0.929
32496W        W91757   2.733  35.946   3.849
32497W        W91758  13.194  28.678   3.325
32498W        W91759  43.824  42.779  13.801
32499W        W91760  39.550   4.789  12.439
32500W        W91761  33.543  28.010  12.392
32501W        W91762  34.046  14.261   2.359
32502W        W91763  35.508  21.694  13.938
32503W        W91764  24.529  30.649   0.388
32504W        W91765  17.643  38.876  14.904
32505W        W91766  10.877  26.472  14.956
32506W        W91767  29.554  30.085  12.069
32507W        W91768  14.198  40.398  12.961
32508W        W91769  31.425  25.602   4.193
32509W        W91770  35.474  35.006   4.231
32510W        W91771  12.245  44.974  14.354
32511W        W91772  38.040  15.654   1.704
32512W        W91773   0.445  42.855  13.832
32513W        W91774  25.189  15.291  10.555
32514W        W91775  21.062  31.599   1.733
32515W        W91776  13.226  17.090  14.515
32516W        W91777  18.077  19.695   2.254
32517W        W91778   4.808  42.018   1.325
32518W        W91779  22.062  34.887   1.390
32519W        W91780  33.407  29.923   0.339
32520W        W91781  37.477  30.017   4.240
32521W        W91782  28.988   9.845  10.939
32522W        W91783  39.901  39.351   4.223
32523W        W91784   6.254  34.601  10.101
32524W        W91785  14.593  34.975  10.585
32525W        W91786  20.743  28.541   2.768
32526W        W91787  15.608  33.457   1.406
32527W        W91788  36.000  26.685   2.241
32528W        W91789  27.532  21.222   0.936
32529W        W91790  24.528   0.919   3.294
32530W        W91791  19.678  40.891  13.513
32531W        W91792  38.827   0.853   0.934
32532W        W91793  35.496  19.678  12.830
32533W        W91794   8.754  12.294  14.335
32534W        W91795  38.941  11.302   4.268
32535W        W91796  19.257  13.739   3.269
32536W        W91797  32.997   3.779  13.440
32537W        W91798   6.679  11.808  10.477
32538W        W91799  38.548  18.772   2.337
32539W        W91800  19.064  11.823  14.911
32540W        W91801  26.953  35.454  10.537
32541W        W91802  20.098  31.467   1.428
32542W        W91803  39.047  11.670   0.413
32543W        W91804  43.902  20.182   5.763
32544W        W91805  30.496   1.441   5.684
32545W        W91806  13.135  37.938   3.832
32546W        W91807  19.634  26.599   2.693
32547W        W91808   7.830  32.923  10.408
32548W        W91809  43.292  36.402  14.846
32549W        W91810  29.134  16.701   0.307
32550W        W91811   9.647  44.990  11.418
32551W        W91812  10.878  36.945  14.298
32552W        W91813   2.341  27.625  10.425
32553W        W91814  28.441  22.239  12.475
32554W        W91815  29.538  35.519   4.335
32555W        W91816  21.253   1.952   1.802
32556W        W91817  24.035  32.518  14.349
32557W        W91818  16.280  25.168   2.405
32558W        W91819  16.799  13.278  11.910
32559W        W91820  24.185   3.717  13.056
32560W        W91821   6.191  38.399   2.259
32561W        W91822  14.816  44.377  13.985
32562W        W91823  10.324   9.351   0.742
32563W        W91824  16.615  16.765   1.389
32564W        W91825  37.994  25.077   2.870
32565W        W91826  25.634   0.374  12.838
32566W        W91827  30.989  20.631   4.139
32567W        W91828  30.650  15.226   2.899
32568W        W91829  29.002  16.134   1.899
32569W        W91830   1.883  38.551   2.887
32570W        W91831  23.024  22.229  11.595
32571W        W91832  35.091  22.626   2.403
32572W        W91833  11.129  42.515   3.756
32573W        W91834  12.142  29.644  11.905
32574W        W91835  29.104  18.142  13.819
32575W        W91836  26.527  17.307  14.331
32576W        W91837  18.633  11.679   3.770
32577W        W91838   9.750  18.768   1.758
32578W        W91839  26.585  16.806  14.368
32579W        W91840  42.378  39.423  12.339
32580W        W91841  15.593  39.526   2.880
32581W        W91842  28.623   0.387  11.890
32582W        W91843   6.379  25.695  13.491
32583W        W91844  32.569  19.115  11.506
32584W        W91845  32.587   4.752   0.734
32585W        W91846  18.108  33.045   4.264
32586W        W91847  23.061  11.230  10.948
32587W        W91848  21.115   0.904  10.454
32588W        W91849  35.451   4.233  10.577
32589W        W91850  38.569  12.152  12.066
32590W        W91851  41.863  36.885   0.927
32591W        W91852  41.351  17.133  13.444
32592W        W91853  42.855   3.815  14.022
32593W        W91854  43.784  14.099   1.926
32594W        W91855  19.115  15.768   3.191
32595W        W91856  41.345   6.684   0.319
32596W        W91857   9.711  20.120  10.525
32597W        W91858   9.822  19.152  13.489
32598W        W91859   8.768   8.889   3.805
32599W        W91860  43.851  37.578  14.838
32600W        W91861  30.623   6.910   1.255
32601W        W91862  39.995  32.474   2.381
32602W        W91863  43.868  24.095   2.206
32603W        W91864   6.310  32.978  14.402
32604W        W91865  37.575   5.903   3.148
32605W        W91866  31.053  12.695   2.380
32606W        W91867   8.875   6.828   4.787
32607W        W91868  21.076  42.893   4.735
32608W        W91869  42.505   6.191   3.835
32609W        W91870  13.714   5.377   1.782
32610W        W91871   4.422  20.655  10.439
32611W        W91872   0.862  25.588   3.303
32612W        W91873   9.288  38.471  14.406
32613W        W91874   6.766  12.828  14.427
32614W        W91875   7.378  10.368   3.191
32615W        W91876  43.495   8.377   1.315
32616W        W91877  23.100  36.534  14.494
32617W        W91878  37.557  19.226  11.914
32618W        W91879  28.962  20.744   3.730
32619W        W91880  31.020  14.715   3.701
32620W        W91881  11.669   9.704   4.765
32621W        W91882   0.289  28.553   1.344
32622W        W91883  28.548  15.327   4.716
32623W        W91884   0.421  24.156  14.946
32624W        W91885  25.094  20.613   2.863
32625W        W91886   0.822  31.055  11.077
32626W        W91887  34.081  25.475   0.857
32627W        W91888  30.558  24.025   1.253
32628W        W91889  22.675  11.346  13.827
32629W        W91890  44.348  25.510  12.529
32630W        W91891   5.689   2.955   3.378
32631W        W91892  41.956   8.298  14.829
32632W        W91893   9.706   8.780  10.590
32633W        W91894  44.980  26.630   0.821
32634W        W91895  28.155   5.750  11.445
32635W        W91896  31.103  41.896   3.705
32636W        W91897  38.979  25.111   1.336
32637W        W91898  24.644  25.167   1.757
32638W        W91899  41.976  28.481  12.878
32639W        W91900  35.003  23.117  11.481
32640W        W91901  30.150   5.715   1.851
32641W        W91902  42.000  29.030   0.804
32642W        W91903  39.475  31.462   2.212
32643W        W91904  12.284  26.963   2.413
32644W        W91905  37.365  40.496   0.310
32645W        W91906   4.830  14.267   4.706
32646W        W91907   9.254  27.094   3.675
32647W        W91908  33.968  37.452   3.644
32648W        W91909   2.944  11.183   4.261
32649W        W91910  37.026   2.341   4.644
32650W        W91911  11.203  43.893   1.320
32651W        W91912  18.681   0.943   5.293
32652W        W91913   9.215  12.764   4.205
32653W        W91914  12.841  17.090  14.299
32654W        W91915  38.562  22.567   1.741
32655W        W91916   6.378   4.318   1.907
32656W        W91917  21.211   4.911   5.189
32657W        W91918  30.470  25.699   2.718
32658W        W91919   3.892  38.908   1.268
32659W        W91920   5.894   3.264  12.524
32660W        W91921   9.711  42.928   1.909
32661W        W91922  27.666   4.797   1.339
32662W        W91923  32.103  11.366  11.908
32663W        W91924   0.459  29.965   3.703
32664W        W91925  37.565  13.125  10.991
32665W        W91926  40.826  25.612  11.488
32666W        W91927  10.369  21.728  11.010
32667W        W91928  10.639  23.503   1.372
32668W        W91929  30.637  18.626  13.813
32669W        W91930  35.430  16.312  11.015
32670W        W91931  43.871   7.310   3.275
32671W        W91932  26.038  30.003  13.010
32672W        W91933  12.213  12.835   4.156
32673W        W91934  30.499  40.942   1.893
32674W        W91935  16.778  12.724   1.448
32675W        W91936  40.480  36.367  12.052
32676W        W91937   1.847  40.485  10.506
32677W        W91938  28.086  42.015  13.323
32678W        W91939   9.316  27.535   1.351
32679W        W91940  30.460   9.282  13.941
32680W        W91941  15.776  25.128  11.502
32681W        W91942   6.297  10.712   3.292
32682W        W91943  37.499  19.118   2.335
32683W        W91944   1.934  25.043   0.377
32684W        W91945   3.318  21.721  10.893
32685W        W91946   1.345  14.234   2.306
32686W        W91947  15.739   9.847  12.504
32687W        W91948  27.089  33.097   3.274
32688W        W91949   9.692   4.820   3.645
32689W        W91950  20.708  15.084   1.844
32690W        W91951  34.601  26.107   2.786
32691W        W91952   5.886  19.777   4.141
32692W        W91953  41.532   8.217   1.905
32693W        W91954  36.496  10.702  10.618
32694W        W91955  27.542  10.661  10.610
32695W        W91956  16.781  29.526  14.983
32696W        W91957   6.196  34.613   4.655
32697W        W91958  30.581   6.420  10.966
32698W        W91959  42.819  33.608   0.281
32699W        W91960   7.376  39.431   2.262
32700W        W91961  41.871  41.494   4.631
32701W        W91962  12.199   3.255  12.889
32702W        W91963   4.327  42.492  14.917
32703W        W91964  43.832  23.522  10.442
32704W        W91965   2.946   7.903  14.797
32705W        W91966  25.577  29.922   2.880
32706W        W91967   0.966  32.474   1.254
32707W        W91968  32.523  43.821  11.413
32708W        W91969  44.419  26.656   4.195
32709W        W91970  14.831  30.936  13.817
32710W        W91971  37.423  35.430   9.934
32711W        W91972  41.373  42.473  11.533
32712W        W91973  11.177  30.535  12.565
32713W        W91974  15.733   3.800  14.363
32714W        W91975  10.712  21.247  12.917
32715W        W91976  41.967  20.183   0.789
32716W        W91977   0.263   9.236   4.738
32717W        W91978   8.718   4.753  14.882
32718W        W91979  44.993  37.037   1.856
32719W        W91980   4.932   3.941   3.767
32720W        W91981   0.380  26.985   0.846
32721W        W91982  42.029  11.695   4.203
32722W        W91983  39.028   7.374  14.008
32723W        W91984   0.375  12.136  12.892
32724W        W91985  17.196  40.419   1.413
32725W        W91986   4.289  30.923  12.935
32726W        W91987  20.242   8.203  13.033
32727W        W91988   1.761   0.781  14.515
32728W        W91989   5.241  33.382   2.223
32729W        W91990  27.629  12.751   0.280
32730W        W91991   9.308  13.719   4.814
32731W        W91992  26.973  43.311  14.365
32732W        W91993  33.505  11.632  14.956
32733W        W91994  43.765   7.788   1.223
32734W        W91995  26.604  28.992  11.587
32735W        W91996  20.183  13.335   1.782
32736W        W91997  20.598  27.684   4.823
32737W        W91998  24.102  18.240   1.820
32738W        W91999   9.722  33.384   1.315
32739W        W92000  37.371  11.361   3.720
32740W        W92001  19.040  24.142   1.315
32741W        W92002  21.168  36.023   0.760
32742W        W92003  16.609  15.157   1.927
32743W        W92004  42.523  34.066  11.891
32744W        W92005  18.544   9.151   4.191
32745W        W92006  11.165  39.933   0.901
32746W        W92007  25.965  42.890   4.736
32747W        W92008   3.219  41.376   4.789
32748W        W92009   9.886  29.546   0.950
32749W        W92010  20.614   1.310  11.044
32750W        W92011   8.863  21.251   3.775
32751W        W92012  28.064  31.055   2.326
32752W        W92013  19.128  12.629   1.767
32753W        W92014  12.677  25.551   1.770
32754W        W92015   4.414  34.901   2.401
32755W        W92016  41.791   1.929  11.087
32756W        W92017  23.002  37.367  10.446
32757W        W92018  44.453  28.588  10.159
32758W        W92019   8.239  31.030  11.987
32759W        W92020  15.728  28.647   1.369
32760W        W92021   6.407  42.976  12.070
32761W        W92022  10.797   4.766   3.780
32762W        W92023  36.903  28.042  13.516
32763W        W92024  25.699  33.441   1.227
32764W        W92025   2.722   3.307   3.830
32765W        W92026   7.383  18.182   2.851
32766W        W92027  29.442   6.412   0.344
32767W        W92028  13.351  24.123   0.341
32768W        W92029  20.178  12.265   1.248
32769W        W92030  28.069  25.670   1.828
32770W        W92031  37.023  28.522   4.132
32771W        W92032  28.106  14.257  13.042
32772W        W92033  24.035  31.644  14.493
32773W        W92034   6.193  44.331  11.387
32774W        W92035  16.711  34.416  10.516
32775W        W92036   7.236  17.194   3.189
32776W        W92037  43.445   3.330   0.937
32777W        W92038  40.826   4.861  14.819
32778W        W92039  27.663   4.730  13.369
32779W        W92040  20.145  41.017  13.451
32780W        W92041  18.147  13.214   0.300
32781W        W92042  42.493  22.087   1.897
32782W        W92043   6.807  13.831  12.997
32783W        W92044   7.189  44.396  12.349
32784W        W92045  30.435  39.005   1.296
32785W        W92046  34.988  24.503   2.307
32786W        W92047  43.297  38.016   0.446
32787W        W92048   7.784  13.130   5.241
32788W        W92049  35.902  31.040  11.081
32789W        W92050  18.617  15.708   4.124
32790W        W92051  35.048  24.719   0.342
32791W        W92052  33.918   1.865   3.320
32792W        W92053  30.092  20.582   0.879
32793W        W92054  40.486  37.567   3.747
32794W        W92055  24.150  26.180  13.008
32795W        W92056   3.882   0.437   3.170
32796W        W92057  31.584  38.475  14.304
32797W        W92058  20.170  15.770  12.085
32798W        W92059  25.657  28.133  14.914
32799W        W92060   5.720  20.109  11.973
32800W        W92061  27.608  10.292  11.971
32801W        W92062  17.143  41.999   2.778
32802W        W92063  14.126   5.714   0.419
32803W        W92064  43.376  13.615  14.938
32804W        W92065  29.934  20.667   2.708
32805W        W92066  23.519  16.306   1.713
32806W        W92067  21.630   4.797  12.952
32807W        W92068  39.396  16.153  14.981
32808W        W92069  17.283  20.236   0.288
32809W        W92070  11.858  36.537   4.121
32810W        W92071  35.483  12.810  12.492
32811W        W92072  13.633  40.358   3.364
32812W        W92073  15.164  44.795   0.744
32813W        W92074  26.461   4.851   4.198
32814W        W92075  43.901   7.673   0.848
32815W        W92076  27.113  38.882   3.149
32816W        W92077   5.425  36.047  12.374
32817W        W92078  30.054   3.343   4.638
32818W        W92079   1.794  14.601   2.200
32819W        W92080  23.192   0.425  11.058
32820W        W92081  13.714  11.302   2.668
32821W        W92082  36.566  24.212  13.842
32822W        W92083  41.983   3.436  14.893
32823W        W92084  40.979  26.482  10.150
32824W        W92085  10.246  14.104  13.888
32825W        W92086   0.250  35.495   1.365
32826W        W92087  34.441  24.489   3.374
32827W        W92088  14.763  34.111   2.207
32828W        W92089  27.625  19.129   2.273
32829W        W92090  12.316  21.057   4.775
32830W        W92091  42.812   6.812   0.337
32831W        W92092  35.945  34.947  11.908
32832W        W92093  41.003  22.568   2.412
32833W        W92094  33.613   2.946  10.418
32834W        W92095   6.290   6.710   3.172
32835W        W92096  41.906  27.621  13.030
32836W        W92097  20.099  29.634  14.841
32837W        W92098   5.743   2.243   0.938
32838W        W92099  43.431  22.086   0.309
32839W        W92100  37.012  14.118   4.692
32840W        W92101  14.134  19.751   3.700
32841W        W92102  37.336   0.853   2.248
32842W        W92103  15.723   3.786   4.313
32843W        W92104  22.607  16.194   4.733
32844W        W92105   7.297  14.646   4.221
32845W        W92106  36.552  42.512  14.279
32846W        W92107  28.550  21.584  11.559
32847W        W92108   5.800  34.614  13.924
32848W        W92109  41.419  20.167   3.344
32849W        W92110  20.617   9.844  12.981
32850W        W92111  16.109  26.519  12.452
32851W        W92112  42.341  17.195  14.379
32852W        W92113  24.721  44.996  12.570
32853W        W92114  13.232   9.775   3.149
32854W        W92115  21.516  37.968  10.615
32855W        W92116  12.656  16.757  13.423
32856W        W92117  17.144  24.623  10.571
32857W        W92118  15.263   7.678   3.217
32858W        W92119  35.965  39.369  13.927
32859W        W92120  30.122  33.494  12.932
32860W        W92121  20.231   1.344  11.455
32861W        W92122  14.797  14.282   1.855
32862W        W92123  26.077  29.067   4.125
32863W        W92124  25.673  12.790  12.410
32864W        W92125   3.758  24.227   4.718
32865W        W92126  29.592  26.515  14.911
32866W        W92127  23.497  25.671   3.727
32867W        W92128   0.888  30.616  14.430
32868W        W92129  15.284  21.642  11.019
32869W        W92130  39.548  44.905  12.483
32870W        W92131   2.406  24.690  10.568
32871W        W92132  19.602  44.822   2.779
32872W        W92133   2.299   9.882  14.455
32873W        W92134  22.706  14.706  12.371
32874W        W92135  14.280  40.028   1.373
32875W        W92136  32.510  21.190   0.436
32876W        W92137  35.058  30.044   4.678
32877W        W92138  33.099  41.364   4.264
32878W        W92139  14.222  33.572  14.820
32879W        W92140  41.454  36.964  12.443
32880W        W92141  44.760  32.563   1.308
32881W        W92142   7.911   1.878   3.801
32882W        W92143  38.570  25.516  11.909
32883W        W92144  41.500  19.617   1.211
32884W        W92145  18.629  15.745   0.264
32885W        W92146   9.181  41.018  14.388
32886W        W92147  11.842  32.546   0.753
32887W        W92148  20.619   3.893  14.361
32888W        W92149  11.684  34.923  10.956
32889W        W92150  38.984  20.546  14.379
32890W        W92151   5.822   1.743   0.291
32891W        W92152  32.564  22.521   0.310
32892W        W92153  41.965   2.853  13.039
32893W        W92154  35.393   5.229   3.777
32894W        W92155   4.362  35.874   3.176
32895W        W92156  16.231   5.918   1.281
32896W        W92157  19.110  22.223   4.708
32897W        W92158  11.258  44.845   1.311
32898W        W92159  20.563  32.117   0.762
32899W        W92160  36.351  34.019   1.776
32900W        W92161  27.487  39.347   3.216
32901W        W92162  37.837  44.490  12.387
32902W        W92163   6.689  27.022   1.342
32903W        W92164   4.727  25.187  11.433
32904W        W92165   6.404   9.805   1.871
32905W        W92166  12.763  30.639  12.549
32906W        W92167  44.467  24.994   1.258
32907W        W92168  39.512  12.189   3.825
32908W        W92169  32.962  11.345   1.387
32909W        W92170   8.186   7.862  10.485
32910W        W92171  31.090   3.833  12.378
32911W        W92172  42.823  37.448  13.534
32912W        W92173  28.089   4.888  14.451
32913W        W92174   8.722  10.205  14.330
32914W        W92175   2.317  41.879   0.885
32915W        W92176  44.962  23.085  11.862
32916W        W92177  40.526   4.703  12.468
32917W        W92178   0.375  39.834  10.487
32918W        W92179  32.490  33.607  11.431
32919W        W92180  15.739   0.944   0.925
32920W        W92181  10.663  22.523   4.179
32921W        W92182   8.707   3.942  14.779
32922W        W92183  27.006  17.202  11.863
32923W        W92184   8.763  25.482   2.265
32924W        W92185  19.210  30.985   4.207
32925W        W92186  17.298   0.399   4.212
32926W        W92187   5.747  32.963  12.396
32927W        W92188  42.326   8.673  10.541
32928W        W92189  16.098  18.117   1.894
32929W        W92190  27.055   3.234   1.376
32930W        W92191  42.905   8.718   0.923
32931W        W92192  18.700   9.859  10.473
32932W        W92193  33.910   6.289   3.855
32933W        W92194  26.155  13.738   4.826
32934W        W92195  30.083   0.757  14.516
32935W        W92196  33.550   2.243   0.886
32936W        W92197  20.751  18.189   4.223
32937W        W92198  25.105   2.410   5.174
32938W        W92199  39.507  24.545   3.644
32939W        W92200  22.996  18.150   5.292
32940W        W92201  18.229  11.624  11.591
32941W        W92202  19.202  23.680   4.171
32942W        W92203  29.642  15.789  10.043
32943W        W92204  16.190  19.218  13.036
32944W        W92205  29.098  27.476  13.336
32945W        W92206  33.447  44.962  14.912
32946W        W92207  23.500  39.891  10.508
32947W        W92208  29.029  17.086  10.513
32948W        W92209  12.151  36.927  13.466
32949W        W92210   3.843  34.430  13.965
32950W        W92211  20.732   7.178   2.836
32951W        W92212  12.234  30.541  12.424
32952W        W92213   1.449   6.850   0.752
32953W        W92214  27.177   7.232   2.679
32954W        W92215  38.944  10.676  12.933
32955W        W92216   1.840  34.990   1.701
32956W        W92217  13.772   4.356   3.310
32957W        W92218  14.745  28.442   1.861
32958W        W92219  28.024  44.927  14.362
32959W        W92220  27.035  28.027   3.160
32960W        W92221  25.676   9.802   4.311
32961W        W92222  31.952  10.722   1.247
32962W        W92223  19.718   0.387  10.904
32963W        W92224   0.870  30.588   4.141
32964W        W92225   7.185  11.188  12.031
32965W        W92226  41.328  31.495  13.312
32966W        W92227  34.540  29.953   1.397
32967W        W92228  17.794  36.051   1.217
32968W        W92229  32.048  36.502   0.455
32969W        W92230  41.794  37.926  14.336
32970W        W92231  13.152  20.219  12.829
32971W        W92232   3.773  17.097   2.728
32972W        W92233   7.215   0.344   2.398
32973W        W92234  26.522  36.845   3.812
32974W        W92235  28.048  36.001   1.382
32975W        W92236  31.546  18.235  11.985
32976W        W92237  16.697  17.166  10.525
32977W        W92238  12.118  31.090   3.764
32978W        W92239  44.492  24.020  10.577
32979W        W92240  16.275  35.514  12.379
32980W        W92241  17.206  31.938   5.219
32981W        W92242  42.925  32.576   1.254
32982W        W92243  18.569  32.045   2.242
32983W        W92244  25.528   3.830  14.437
32984W        W92245  18.069  12.815   4.115
32985W        W92246  14.242  16.738  12.575
32986W        W92247  44.768   0.442   1.324
32987W        W92248  38.544  26.995  11.594
32988W        W92249  43.904   5.320   3.757
32989W        W92250  16.150  31.080   2.219
32990W        W92251   8.793  34.867   3.329
32991W        W92252  25.186  42.784   4.744
32992W        W92253  41.486   8.368  12.041
32993W        W92254  40.972  33.969   3.728
32994W        W92255  21.182  13.225  10.961
32995W        W92256   4.209  26.099   1.736
32996W        W92257  32.076  25.021   2.667
32997W        W92258  34.077  17.248  14.344
32998W        W92259  22.140  23.610   1.242
32999W        W92260   5.931  16.204  10.521
33000W        W92261  33.997  21.518  14.401
33001W        W92262  31.050  25.106  11.430
33002W        W92263   0.462  41.508  12.841
33003W        W92264  34.383   8.707   4.187
33004W        W92265  13.287  32.968  13.460
33005W        W92266  30.078  37.986  12.867
33006W        W92267  40.549  23.659  13.010
33007W        W92268   5.788  28.586   2.357
33008W        W92269   6.778  24.070  11.047
33009W        W92270  38.969  35.585  12.897
33010W        W92271  42.936  41.795   2.684
33011W        W92272  13.182   9.174   2.220
33012W        W92273  36.094  28.570   3.787
33013W        W92274  35.500   5.791  14.917
33014W        W92275   1.397  43.946  10.554
33015W        W92276   7.194  37.550   1.920
33016W        W92277  42.324  29.487  13.912
33017W        W92278  38.555  30.062  14.002
33018W        W92279   9.707  33.127   2.881
33019W        W92280  39.824  16.784  12.896
33020W        W92281  43.302   0.836  10.431
33021W        W92282   1.795  34.504  14.353
33022W        W92283   7.245  36.566   4.257
33023W        W92284  25.139   1.372  12.937
33024W        W92285  26.650  37.866  14.008
33025W        W92286  26.129   5.301  10.407
33026W        W92287  22.708  23.086  14.358
33027W        W92288  14.702  42.927  13.041
33028W        W92289  41.981   7.697   4.227
33029W        W92290   3.343  26.628   0.849
33030W        W92291  18.163   5.773   1.233
33031W        W92292  36.047  17.797   1.239
33032W        W92293  41.423  39.846  12.970
33033W        W92294  14.794  32.895   0.401
33034W        W92295  39.826  22.194   1.800
33035W        W92296   2.310  21.041   4.310
33036W        W92297  24.676  13.308   3.772
33037W        W92298  12.853  32.981  12.969
33038W        W92299  13.108  34.574  11.392
33039W        W92300  34.994  38.994  12.396
33040W        W92301   4.710  22.119  10.019
33041W        W92302  36.014   3.914  13.398
33042W        W92303  22.566   2.771  14.970
33043W        W92304  16.672  44.429  13.513
33044W        W92305  30.447  10.199   3.266
33045W        W92306  20.166  16.094   9.952
33046W        W92307  24.528  14.734   0.258
33047W        W92308  11.353  41.988  13.513
33048W        W92309  21.747   5.884   0.845
33049W        W92310  32.535  33.949  14.887
33050W        W92311   2.263  42.400  11.439
33051W        W92312  12.315  37.910   4.762
33052W        W92313   2.320  13.690   1.416
33053W        W92314  36.566  31.955   0.758
33054W        W92315  33.100  30.127  11.551
33055W        W92316  24.659  32.625  14.327
33056W        W92317  33.464  22.593  11.461
33057W        W92318  24.128  29.001   0.428
33058W        W92319  10.315  22.141   1.437
33059W        W92320  44.808  43.353   0.960
33060W        W92321   3.442  10.709   3.170
33061W        W92322  18.695  33.398  10.017
33062W        W92323   4.438  18.086  11.481
33063W        W92324  11.130   0.319   1.788
33064W        W92325  15.197  11.156   4.156
33065W        W92326  15.097  12.643   0.924
33066W        W92327   7.308   5.366   1.911
33067W        W92328  27.522  24.549  12.097
33068W        W92329   4.395  42.971   4.810
33069W        W92330  38.373  29.667  12.377
33070W        W92331   8.769   7.264  11.088
33071W        W92332   3.450   3.360   3.637
33072W        W92333   4.755  21.555   3.311
33073W        W92334  11.360   3.451   3.314
33074W        W92335  38.844  38.418  13.956
33075W        W92336  10.278  16.610   2.687
33076W        W92337  18.102  24.586   4.685
33077W        W92338  37.894  38.962  13.419
33078W        W92339   7.677  21.758   0.331
33079W        W92340  30.061  25.544  14.021
33080W        W92341  11.836   6.297  13.046
33081W        W92342  22.712  38.075   3.666
33082W        W92343  25.038   2.349   3.245
33083W        W92344   7.389  28.627   2.774
33084W        W92345  36.853  22.569  10.516
33085W        W92346  16.305  33.944   4.172
33086W        W92347  26.623   1.740  13.022
33087W        W92348  37.400   0.901   4.655
33088W        W92349  39.363  21.223  14.816
33089W        W92350  13.653   3.381   1.748
33090W        W92351  25.114  13.124   2.369
33091W        W92352  22.556  33.123  13.402
33092W        W92353  21.241   9.821  10.443
33093W        W92354  35.492  30.511  13.455
33094W        W92355   7.359  44.840   3.365
33095W        W92356  37.874  11.640  11.579
33096W        W92357  23.068   4.408   3.735
33097W        W92358  39.404  37.838  14.963
33098W        W92359   1.400  11.337  12.892
33099W        W92360  11.214  21.622  11.493
33100W        W92361  22.575  26.539   1.279
33101W        W92362  27.142   0.263   0.323
33102W        W92363  27.595   9.752  12.002
33103W        W92364  37.487   3.235   0.857
33104W        W92365  19.272  24.168  10.557
33105W        W92366   9.679   6.303   0.847
33106W        W92367   0.882  15.603   0.770
33107W        W92368  20.719  16.159   2.340
33108W        W92369  28.560  38.539   4.141
33109W        W92370  22.690   5.816   0.965
33110W        W92371  37.948  36.031  11.879
33111W        W92372  32.057  13.648  11.090
33112W        W92373  10.300   4.204  10.470
33113W        W92374  32.626   8.863   2.882
33114W        W92375  17.708  38.378  13.963
33115W        W92376  28.996  23.126  12.062
33116W        W92377  22.034   9.300   1.873
33117W        W92378   7.173   8.258   0.438
33118W        W92379  26.128  11.856   3.860
33119W        W92380  29.647  35.898   1.791
33120W        W92381   4.425  28.008  11.990
33121W        W92382  23.708  23.172  14.826
33122W        W92383   9.223  29.936  12.506
33123W        W92384  44.266  19.276  12.848
33124W        W92385   5.335  19.273   1.435
33125W        W92386   9.183  44.857  10.421
33126W        W92387  36.009  31.428  10.434
33127W        W92388   6.398  38.820   0.265
33128W        W92389  43.802  19.144   0.798
33129W        W92390  43.417  13.239  10.587
33130W        W92391   6.371  30.458  11.113
33131W        W92392  35.887  17.600  12.407
33132W        W92393  40.039  14.613   1.698
33133W        W92394  37.866  23.679  11.027
33134W        W92395  14.824  43.393   2.870
33135W        W92396  42.306  16.673  14.831
33136W        W92397  40.846  31.007  13.353
33137W        W92398  23.089   1.314  12.471
33138W        W92399  32.899  37.002   3.338
33139W        W92400  25.981  24.076   4.152
33140W        W92401  42.322  33.003  11.537
33141W        W92402  35.579  36.360  14.463
33142W        W92403  18.623  36.996   0.727
33143W        W92404  33.556  20.522  11.035
33144W        W92405  31.075  21.625  14.926
33145W        W92406  26.144  36.097   1.370
33146W        W92407  44.929  15.300  14.416
33147W        W92408  14.188  37.582  13.518
33148W        W92409  32.961  30.930   0.337
33149W        W92410  32.931  42.827   1.792
33150W        W92411  12.276  42.929  14.903
33151W        W92412  29.138  10.702   1.394
33152W        W92413   8.262  24.032   1.878
33153W        W92414  29.175   0.898  14.980
33154W        W92415  39.334  33.026  11.052
33155W        W92416  39.931  10.763   0.940
33156W        W92417  23.694  43.891  12.514
33157W        W92418  23.194  25.986   3.728
33158W        W92419   6.845  31.015   3.213
33159W        W92420  22.232  37.395  11.022
33160W        W92421  15.313  43.807   0.291
33161W        W92422  35.460  18.277  13.019
33162W        W92423   1.770   0.813  12.054
33163W        W92424   5.934  29.141   2.863
33164W        W92425  19.181  15.818   3.860
33165W        W92426  25.094  42.996   2.764
33166W        W92427  19.606  12.769   3.178
33167W        W92428  44.991  20.562   4.210
33168W        W92429   4.272  42.875  12.887
33169W        W92430  44.969  34.873  14.367
33170W        W92431  21.611  43.451   0.349
33171W        W92432  36.478  25.030  14.348
33172W        W92433  40.372  42.444  12.086
33173W        W92434  42.848  39.364  12.940
33174W        W92435  36.876  26.993   1.928
33175W        W92436  31.516  23.714  11.921
33176W        W92437   1.318   0.464  12.053
33177W        W92438  15.662  20.712   1.324
33178W        W92439   8.855  17.115   2.804
33179W        W92440  26.663  24.072  10.457
33180W        W92441  36.021  25.592   3.859
33181W        W92442  12.127  41.008   4.727
33182W        W92443  36.411  28.558   2.827
33183W        W92444   9.679  11.802   3.206
33184W        W92445  24.679   4.438  12.568
33185W        W92446  44.492  23.993  13.892
33186W        W92447  31.413   5.748   1.270
33187W        W92448  28.949  23.624  14.340
33188W        W92449   0.273   8.888   3.833
33189W        W92450  31.602  15.597  13.057
33190W        W92451  18.745  10.279   3.693
33191W        W92452  19.154  14.220  13.020
33192W        W92453  18.215  29.011   4.345
33193W        W92454  22.588  30.569  14.013
33194W        W92455  19.743  20.050  12.037
33195W        W92456  33.064  29.146  10.435
33196W        W92457  29.120  43.849  11.542
33197W        W92458  17.790  20.158  10.438
33198W        W92459  13.248  34.896   4.764
33199W        W92460  20.740  26.145  14.016
33200W        W92461  29.025  11.287   2.312
33201W        W92462  31.554  34.999  10.569
33202W        W92463   7.735  14.756  12.370
33203W        W92464  42.386  11.329  14.291
33204W        W92465  27.011  29.990  13.011
33205W        W92466   1.476  36.405   3.315
33206W        W92467  44.272  30.566  10.941
33207W        W92468   3.817  39.896  13.386
33208W        W92469  22.103  42.998  13.458
33209W        W92470  15.233  19.702  12.970
33210W        W92471  17.235  24.066  14.973
33211W        W92472   2.268  14.184   4.318
33212W        W92473  17.138  39.972  14.337
33213W        W92474   2.747  23.683  12.409
33214W        W92475  18.228  30.634  11.949
33215W        W92476  43.796  13.709   1.738
33216W        W92477   2.744  39.816  10.488
33217W        W92478  40.902  25.553  14.489
33218W        W92479  17.078  12.633  14.896
33219W        W92480   2.321   2.772  10.932
33220W        W92481  14.306  14.133  11.517
33221W        W92482  17.216   3.459  12.559
33222W        W92483   7.868  14.315  10.060
33223W        W92484  34.470  14.292  11.967
33224W        W92485  34.509   8.741  11.544
33225W        W92486  26.151  34.120   2.745
33226W        W92487  10.344  30.097   0.410
33227W        W92488  20.248   5.421  10.004
33228W        W92489  30.051  24.586   0.306
33229W        W92490  29.483   6.769  11.100
33230W        W92491  22.670  30.429   4.278
33231W        W92492   9.745  30.646   1.906
33232W        W92493  41.902  20.250  12.411
33233W        W92494   1.738  39.489  10.971
33234W        W92495  10.197   8.732  12.519
33235W        W92496  25.146  30.556  14.807
33236W        W92497  23.618   6.348   0.881
33237W        W92498  20.598  29.595  11.517
33238W        W92499  34.872  19.616   4.303
33239W        W92500   1.909  22.995  14.857
33240W        W92501  31.525  41.976   1.793
33241W        W92502  30.981   7.690   0.252
33242W        W92503  32.084  22.219  13.859
33243W        W92504   1.299  30.159   3.853
33244W        W92505   0.767  27.634   3.366
33245W        W92506   5.338   9.218   4.652
33246W        W92507  12.183  33.931  13.938
33247W        W92508  32.905  39.852  11.868
33248W        W92509  11.740  35.100   1.283
33249W        W92510  40.526  41.010   2.874
33250W        W92511  17.704  31.941   4.612
33251W        W92512  21.720   5.353  10.517
33252W        W92513   3.772   7.717  11.379
33253W        W92514   8.198   4.824  13.014
33254W        W92515  32.983   2.823   4.204
33255W        W92516  43.439   2.255   1.436
33256W        W92517  35.561  16.294  12.079
33257W        W92518  33.121  11.672  10.121
33258W        W92519   1.842  44.876  11.940
33259W        W92520   1.909  32.601   4.649
33260W        W92521  31.999  29.927  11.052
33261W        W92522  39.318  43.353   4.791
33262W        W92523  14.264  26.645  14.793
33263W        W92524  44.339  10.149   3.673
33264W        W92525  10.868  43.808  13.873
33265W        W92526  24.157   1.944   4.263
33266W        W92527  12.193  20.530   3.375
33267W        W92528  41.526   3.764  14.335
33268W        W92529  32.993  13.270   4.231
33269W        W92530  36.498  23.645   4.832
33270W        W92531  30.931  30.450  11.027
33271W        W92532  11.738  15.683  10.517
33272W        W92533  37.086   5.393  14.315
33273W        W92534  41.814  17.174   2.410
33274W        W92535  39.527  16.569   5.095
33275W        W92536  17.719  25.039  14.885
33276W        W92537  27.156  32.562   4.129
33277W        W92538  22.103  19.721  12.494
33278W        W92539   0.334  15.797   3.779
33279W        W92540   8.853   0.338  10.411
33280W        W92541  36.894  44.391   0.781
33281W        W92542  40.966  34.538  11.504
33282W        W92543   9.839  37.834  13.943
33283W        W92544   8.882   6.401  10.954
33284W        W92545   2.283  18.185   4.307
33285W        W92546   8.692  18.695  13.945
33286W        W92547   8.276  38.840   3.857
33287W        W92548   6.323  26.519  14.775
33288W        W92549  25.013   3.460  14.301
33289W        W92550  26.516  31.152   0.918
33290W        W92551  20.196  24.077  13.498
33291W        W92552  34.559  31.059   2.219
33292W        W92553  44.003  23.634  10.923
33293W        W92554  24.718  39.065   0.255
33294W        W92555  17.138  36.367  10.945
33295W        W92556  30.497  31.449   2.240
33296W        W92557  31.604  22.729   4.132
33297W        W92558  35.094  27.112   1.334
33298W        W92559   9.206  34.931   4.813
33299W        W92560  18.080  15.667  10.955
33300W        W92561  23.567  33.079   3.228
33301W        W92562  15.101  44.853  13.345
33302W        W92563  24.208  10.239  12.433
33303W        W92564  23.679   3.756  13.511
33304W        W92565   7.182   8.811   2.787
33305W        W92566   2.800  33.037   2.260
33306W        W92567  38.918   9.206   4.712
33307W        W92568   1.432  25.137   2.885
33308W        W92569  21.665  34.468  14.330
33309W        W92570  36.910  31.107  12.949
33310W        W92571  26.598   5.739   3.825
33311W        W92572  34.898  10.197   3.334
33312W        W92573  20.580  38.552  12.843
33313W        W92574  22.571  33.128  10.559
33314W        W92575   9.256  44.271  11.020
33315W        W92576  32.549   4.422   0.298
33316W        W92577  19.134  16.670  14.495
33317W        W92578  17.114   0.310  14.937
33318W        W92579  28.502  17.077  12.918
33319W        W92580  44.477  34.461   0.302
33320W        W92581  40.007  28.982   1.825
33321W        W92582  14.592   4.743   9.981
33322W        W92583   9.730  36.432  11.905
33323W        W92584  37.527  33.472  14.798
33324W        W92585  35.455  28.451  10.977
33325W        W92586  17.285  14.727  12.942
33326W        W92587   6.889  15.627  12.931
33327W        W92588  36.991   6.732  13.987
33328W        W92589  16.233  18.169   1.316
33329W        W92590   4.840  17.169   0.386
33330W        W92591  16.185   6.350  13.803
33331W        W92592   4.820  33.558   0.882
33332W        W92593  43.321   9.257   1.260
33333W        W92594   5.333  44.860  14.433
33334W        W92595   0.822  25.002   5.104
33335W        W92596  21.035  40.920   0.876
33336W        W92597  32.904  38.477  12.894
33337W        W92598   5.729  42.441  13.887
33338W        W92599  28.615   5.228  14.929
33339W        W92600  35.043  31.632  12.572
33340W        W92601  13.188  33.621  10.568
33341W        W92602  13.273  11.776   4.821
33342W        W92603   2.370  27.494   2.240
33343W        W92604  15.163  24.563  12.939
33344W        W92605  17.258  38.506   3.848
33345W        W92606  25.058  12.802  13.969
33346W        W92607  31.076  11.836   1.773
33347W        W92608   7.298  17.774   4.787
33348W        W92609   1.902   0.280  12.531
33349W        W92610   7.782   1.396  14.451
33350W        W92611  26.068  36.497  10.943
33351W        W92612  33.466  44.973  12.539
33352W        W92613  42.822   9.362  12.530
33353W        W92614  43.363  43.798  12.897
33354W        W92615   3.267  16.101  12.366
33355W        W92616   2.389  20.216   3.761
33356W        W92617  29.986  16.722   3.160
33357W        W92618   3.779  40.835  12.969
33358W        W92619  37.082  13.710   3.348
33359W        W92620   9.726  12.175   3.825
33360W        W92621  15.329  43.794  13.976
33361W        W92622  36.524  24.053  12.950
33362W        W92623  26.098  44.876  10.057
33363W        W92624   8.396  37.517  13.335
33364W        W92625  11.217   7.906   0.936
33365W        W92626   3.737  44.334  11.500
33366W        W92627  41.427  13.816   4.334
33367W        W92628  11.157  30.007   2.401
33368W        W92629  34.919  25.015   2.371
33369W        W92630  17.227  12.121   4.755
33370W        W92631   5.816   2.890  11.478
33371W        W92632  32.508  44.450  14.307
33372W        W92633  29.505  43.009  10.505
33373W        W92634  38.865  26.199  12.509
33374W        W92635  38.063   1.345   4.711
33375W        W92636  34.527  34.615  11.520
33376W        W92637   4.220  37.386   1.370
33377W        W92638  33.080  17.779   3.670
33378W        W92639  10.342  30.071  13.489
33379W        W92640  26.475  24.160  14.415
33380W        W92641  31.472  25.537  10.958
33381W        W92642  30.979  20.758   2.681
33382W        W92643  18.577  27.649  13.337
33383W        W92644   4.309  19.554  12.070
33384W        W92645  43.487  32.539   2.178
33385W        W92646  14.719   9.315  13.398
33386W        W92647  16.105   3.786   5.772
33387W        W92648   4.372  44.766  10.953
33388W        W92649  37.081   5.311  14.770
33389W        W92650  20.633  29.095   4.288
33390W        W92651  11.202  32.941   1.873
33391W        W92652  22.548  37.004   0.931
33392W        W92653   9.263   6.332  10.107
33393W        W92654  12.173   5.250   2.260
33394W        W92655  43.336   1.801  11.879
33395W        W92656   4.749  20.641   4.650
33396W        W92657   1.419  13.801  13.817
33397W        W92658  39.989  43.805  12.398
33398W        W92659  16.097  14.745  10.958
33399W        W92660  35.066   5.389   5.138
33400W        W92661   4.327  24.044  12.982
33401W        W92662  12.779  17.091  13.407
33402W        W92663   3.440  12.813   0.885
33403W        W92664  20.098  43.274  11.383
33404W        W92665  21.577   6.725   1.877
33405W        W92666  18.284   0.406  14.283
33406W        W92667  13.603   7.706  13.023
33407W        W92668  31.964  37.436  13.892
33408W        W92669  13.651  28.944  14.370
33409W        W92670  32.397   8.189   1.763
33410W        W92671  26.171  11.640  12.968
33411W        W92672  15.101  17.562  11.021
33412W        W92673  22.203  34.975  11.124
33413W        W92674  37.055   2.731  12.949
33414W        W92675  33.981  42.289   3.771
33415W        W92676  37.405  22.735   0.952
33416W        W92677   7.343  18.183  12.459
33417W        W92678   4.269   3.392   3.289
33418W        W92679  44.996  29.441   1.421
33419W        W92680  31.435  26.585  14.813
33420W        W92681  42.340  24.673  13.925
33421W        W92682   7.175  44.396  11.486
33422W        W92683  11.649  29.122  14.373
33423W        W92684   2.795   6.316  14.011
33424W        W92685  32.022   2.854  13.503
33425W        W92686  44.806  11.863  13.332
33426W        W92687   9.648   0.817  10.595
33427W        W92688  28.517  23.049   4.125
33428W        W92689   6.752  17.594   2.395
33429W        W92690  20.244   8.657   1.850
33430W        W92691  37.431   6.755  12.076
33431W        W92692  38.060  22.551   1.220
33432W        W92693  30.096  15.127  12.853
33433W        W92694   4.362   3.353   4.256
33434W        W92695  29.091  19.176   3.781
33435W        W92696   8.183  18.611  14.432
33436W        W92697   2.868   3.913  10.894
33437W        W92698  18.609  25.064  13.824
33438W        W92699  35.578  29.591   3.192
33439W        W92700  33.411  35.537  12.439
33440W        W92701  13.290  31.913   0.454
33441W        W92702   4.890   0.799   1.362
33442W        W92703  42.311  36.524   0.246
33443W        W92704   3.804  31.555  12.828
33444W        W92705  37.925  23.203   0.304
33445W        W92706  21.622  24.190  13.971
33446W        W92707  13.271  12.297   2.309
33447W        W92708  31.126  22.248  13.008
33448W        W92709   0.331  24.173   2.877
33449W        W92710  29.021  14.597  10.598
33450W        W92711  17.798  26.171  11.422
33451W        W92712  37.368  34.440  13.964
33452W        W92713  28.098  35.571  11.373
33453W        W92714  17.717  31.610   4.198
33454W        W92715  13.264  18.092   4.152
33455W        W92716  37.061  37.479   1.794
33456W        W92717   5.222  38.381  11.612
33457W        W92718  27.554  12.630  11.906
33458W        W92719  37.872  35.362   1.736
33459W        W92720  37.351   1.268   2.182
33460W        W92721  41.350  23.563  11.984
33461W        W92722  32.885  31.006   4.784
33462W        W92723  26.611  40.872   4.125
33463W        W92724  20.230  20.663   1.839
33464W        W92725  19.577  38.407   4.608
33465W        W92726   6.865  26.479   9.990
33466W        W92727  31.043  44.494   2.870
33467W        W92728  13.781   1.810  11.082
33468W        W92729  39.529  20.734   3.146
33469W        W92730  30.158  10.658  13.906
33470W        W92731  29.434   8.243  10.607
33471W        W92732  44.778  15.168  13.314
33472W        W92733   4.843  19.583  12.884
33473W        W92734  11.638  33.463   2.867
33474W        W92735   3.750  12.305   4.157
33475W        W92736  19.590  12.195  13.334
33476W        W92737  15.662  32.118  13.464
33477W        W92738  31.406   8.888  11.521
33478W        W92739   1.314  22.524  14.324
33479W        W92740  14.828  22.575  14.383
33480W        W92741  35.407   7.776   4.662
33481W        W92742  20.205  33.083  13.811
33482W        W92743  21.633  20.635   5.297
33483W        W92744  19.663   9.766  13.948
33484W        W92745  35.053  19.072  13.542
33485W        W92746  35.459  12.665  10.512
33486W        W92747  16.246  34.097  10.633
33487W        W92748  26.119   5.866   3.790
33488W        W92749  41.791  26.632   0.882
33489W        W92750   8.820  26.620  13.005
33490W        W92751  29.455  25.023   2.334
33491W        W92752  20.651  24.222   3.183
33492W        W92753  27.119   9.379   3.721
33493W        W92754  12.678  28.598   3.700
33494W        W92755  16.265  42.301   1.231
33495W        W92756  10.289  18.611   3.246
33496W        W92757  22.533  19.232   4.722
33497W        W92758  27.008  10.818   2.708
33498W        W92759  37.577  37.057  12.557
33499W        W92760  25.034  16.751  12.479
33500W        W92761  22.693  42.870   1.772
33501W        W92762  35.986  20.088  13.351
33502W        W92763   0.955  35.561   3.306
33503W        W92764   9.752  34.598  13.322
33504W        W92765   2.870  43.961  11.903
33505W        W92766  24.068  11.198  13.867
33506W        W92767  24.086  24.657   3.675
33507W        W92768  44.782  37.011  10.487
33508W        W92769  38.347   7.726  13.024
33509W        W92770   2.777  26.965   2.354
33510W        W92771  27.032  16.691  10.516
33511W        W92772  24.651  35.853   4.330
33512W        W92773  25.089   3.270   3.285
33513W        W92774  37.452  41.392   0.388
33514W        W92775  26.108  32.562  13.375
33515W        W92776  32.932  10.177   4.330
33516W        W92777  36.542  13.205  12.446
33517W        W92778  33.464  16.592   4.136
33518W        W92779  25.704  33.880   0.418
33519W        W92780  17.129  24.611  13.880
33520W        W92781   7.836  20.585  13.979
33521W        W92782  27.004   4.823   0.964
33522W        W92783  35.597   1.787  14.873
33523W        W92784  17.561  20.116  13.440
33524W        W92785  34.486  12.665  14.912
33525W        W92786  13.819  36.445  12.067
33526W        W92787  25.491  25.184   3.656
33527W        W92788  27.674  38.421  14.443
33528W        W92789  23.990   0.494  14.349
33529W        W92790  16.747  15.795  12.388
33530W        W92791  42.416  41.301  10.456
33531W        W92792  38.486   5.422   1.881
33532W        W92793  13.116  36.912  11.038
33533W        W92794   9.373   7.249   0.284
33534W        W92795  40.492  18.695  12.524
33535W        W92796  18.252  38.446  11.598
33536W        W92797   3.754   1.903  14.933
33537W        W92798  35.937   5.928  10.145
33538W        W92799  30.591  38.501  14.345
33539W        W92800  14.285  19.728   0.780
33540W        W92801  29.975  29.983  12.079
33541W        W92802   9.798  18.760   3.251
33542W        W92803  30.928  41.843  11.574
33543W        W92804  15.752   2.744   3.639
33544W        W92805  38.510  40.840   1.739
33545W        W92806  38.015   4.825  14.814
33546W        W92807   8.807  15.696   3.213
33547W        W92808  14.225   1.789   2.245
33548W        W92809  24.497   3.908  11.532
33549W        W92810   1.973  12.648  10.989
33550W        W92811  43.450  28.661  11.055
33551W        W92812   5.828  13.668   3.195
33552W        W92813  35.436  38.398   3.264
33553W        W92814  13.186  34.603  11.023
33554W        W92815  21.243   8.826   3.187
33555W        W92816  34.436  44.453  13.372
33556W        W92817  32.076  29.515  14.278
33557W        W92818  35.863   8.851  11.861
33558W        W92819  21.562  34.089  12.845
33559W        W92820   3.761  28.650   1.810
33560W        W92821  22.107  25.038  14.305
33561W        W92822   6.227   0.445   3.818
33562W        W92823  21.237   5.272   4.703
33563W        W92824  39.951  38.466   1.230
33564W        W92825  31.092  10.169  14.004
33565W        W92826  30.424  37.011  13.526
33566W        W92827  41.476  18.269   5.173
33567W        W92828  21.548  25.139  13.401
33568W        W92829  15.595  43.913  13.842
33569W        W92830  28.499   3.934  10.981
33570W        W92831  11.788   4.763  10.952
33571W        W92832  40.438   5.301  14.984
33572W        W92833  28.070  10.740   3.840
33573W        W92834  35.977  26.620   1.746
33574W        W92835   6.376  17.104   5.147
33575W        W92836  32.632  39.852   2.413
33576W        W92837  44.327  28.952   0.449
33577W        W92838  15.254  27.103  12.055
33578W        W92839  43.421  39.422   3.867
33579W        W92840   1.853  23.493   0.355
33580W        W92841  32.426  37.553   2.796
33581W        W92842  40.870   3.767  14.913
33582W        W92843  25.478  23.054   4.816
33583W        W92844  18.242  43.419   4.232
33584W        W92845  35.402  24.574  12.846
33585W        W92846  35.589  22.014  10.951
33586W        W92847  17.707  28.005   0.458
33587W        W92848   8.789  40.826  12.986
33588W        W92849  38.348  19.151  11.463
33589W        W92850  32.452  44.421  10.434
33590W        W92851  21.733   8.703   0.774
33591W        W92852  24.686  23.530   2.885
33592W        W92853  12.843   0.486  11.038
33593W        W92854  14.653  22.237  12.558
33594W        W92855  17.177  37.383  14.945
33595W        W92856   2.386   3.425  13.897
33596W        W92857  33.588  42.959   1.890
33597W        W92858  17.766  21.740   0.756
33598W        W92859  42.869  37.076   2.695
33599W        W92860   3.303   0.957  13.939
33600W        W92861  11.367  22.103   1.860
33601W        W92862   7.745  14.243   1.223
33602W        W92863   5.350  31.571  14.326
33603W        W92864   0.289   3.345   3.341
33604W        W92865  23.629  20.715  14.489
33605W        W92866   9.742   0.253  10.911
33606W        W92867  43.930  34.462   1.909
33607W        W92868  29.650  36.014   0.327
33608W        W92869  36.965  37.885  14.822
33609W        W92870  32.474   6.730  12.833
33610W        W92871   9.296   0.305   0.929
33611W        W92872  27.196   4.351   1.846
33612W        W92873  28.543  12.750  13.506
33613W        W92874   9.669  37.926  10.913
33614W        W92875  36.399  12.358  12.916
33615W        W92876  12.618   8.705   5.243
33616W        W92877   9.745   0.281   3.185
33617W        W92878  12.302  19.747   0.796
33618W        W92879  11.737  32.122   4.821
33619W        W92880  30.965  37.463  12.956
33620W        W92881  13.345  33.612  13.427
33621W        W92882  12.657  30.065  13.047
33622W        W92883   3.820   0.932  10.489
33623W        W92884  43.318  29.935  11.423
33624W        W92885  10.297  43.408   0.303
33625W        W92886  23.154  14.659  11.070
33626W        W92887   9.854   7.366   0.938
33627W        W92888  39.375  34.097  14.913
33628W        W92889  15.784  12.700   0.774
33629W        W92890  29.925  20.169  14.397
33630W        W92891  34.996  35.398  10.612
33631W        W92892  28.105   7.865   3.291
33632W        W92893  41.903  42.803   4.746
33633W        W92894  40.956   2.833  11.964
33634W        W92895  39.031  11.837   2.261
33635W        W92896  12.836  26.188  14.502
33636W        W92897   6.309  19.737   5.132
33637W        W92898  44.309   8.827  14.397
33638W        W92899  11.258  40.863  13.408
33639W        W92900  22.118  44.754  13.511
33640W        W92901  29.601   6.214   4.732
33641W        W92902   3.891  43.398  11.558
33642W        W92903  17.259  12.124  11.538
33643W        W92904  16.643   0.822  14.785
33644W        W92905  18.571  15.088   0.817
33645W        W92906  38.455  26.151   3.659
33646W        W92907  31.581  11.702   1.773
33647W        W92908  15.821  39.988  10.092
33648W        W92909  10.749   6.721   2.300
33649W        W92910  10.679  35.946   2.231
33650W        W92911  12.297  31.029   0.423
33651W        W92912  30.655  22.056   2.419
33652W        W92913  44.327  38.560   0.791
33653W        W92914   5.432  28.620  12.860
33654W        W92915  22.247  36.093  10.550
33655W        W92916  44.446  44.476  10.555
33656W        W92917  27.052   7.195  12.480
33657W        W92918  43.009  15.667  13.821
33658W        W92919  21.613  28.052   1.304
33659W        W92920  33.121  23.050  12.526
33660W        W92921  11.162   0.460   3.329
33661W        W92922  35.882   8.758   0.264
33662W        W92923  44.995  18.174  14.805
33663W        W92924  11.171  43.507  11.879
33664W        W92925  21.220  30.457   1.787
33665W        W92926  18.789  21.225  14.959
33666W        W92927  14.644  36.385   1.426
33667W        W92928  34.937  24.490  13.495
33668W        W92929  22.030   9.335  12.549
33669W        W92930  26.182  29.062  10.915
33670W        W92931  15.669  10.682   1.923
33671W        W92932  15.108  17.653   4.133
33672W        W92933  13.634  21.589  14.796
33673W        W92934  15.608  13.626  13.332
33674W        W92935   3.896   4.432   3.341
33675W        W92936  10.270  40.016   3.356
33676W        W92937  29.638  10.283  10.048
33677W        W92938  12.736  14.286  11.036
33678W        W92939   4.397  22.191  13.525
33679W        W92940  20.125  40.442  10.537
33680W        W92941  26.105  22.137   0.301
33681W        W92942  22.716  42.319   1.930
33682W        W92943  34.080  18.622  14.425
33683W        W92944  30.501  44.832   1.839
33684W        W92945   2.420  10.773   0.293
33685W        W92946  37.969  34.068   3.799
33686W        W92947  42.482  25.998   0.391
33687W        W92948  26.088  16.613  13.805
33688W        W92949  27.147   3.292  14.475
33689W        W92950  33.594  12.744   1.851
33690W        W92951  34.985   4.218  14.819
33691W        W92952  10.327  14.716  10.574
33692W        W92953  14.101  14.816   4.600
33693W        W92954   5.688  41.943   0.469
33694W        W92955  18.614   9.265  10.623
33695W        W92956  32.430  38.496  14.807
33696W        W92957  17.181   9.793  13.464
33697W        W92958  32.393   4.805  14.898
33698W        W92959  43.786  41.809   4.334
33699W        W92960   7.673   3.856   2.825
33700W        W92961  17.153  20.272  11.894
33701W        W92962   1.239   1.953  12.360
33702W        W92963  10.300  16.682   0.748
33703W        W92964  20.121  38.054   1.422
33704W        W92965  40.505  29.485  11.403
33705W        W92966  11.831  20.178  12.350
33706W        W92967  10.697  10.320  14.508
33707W        W92968  30.959  21.194   4.259
33708W        W92969  43.947  37.865  11.859
33709W        W92970  19.650   9.732   1.802
33710W        W92971  29.061  11.200  11.912
33711W        W92972  13.230  31.990  12.416
33712W        W92973  33.879   2.376  10.594
33713W        W92974  28.678  25.061  13.365
33714W        W92975   9.292   3.747  14.511
33715W        W92976  25.045  27.688   1.870
33716W        W92977   9.165   0.276   1.861
33717W        W92978  37.951  42.835  13.392
33718W        W92979  41.911   0.310  13.976
33719W        W92980  15.262   8.705  14.908
33720W        W92981  35.010  37.515   1.785
33721W        W92982  25.684  42.510   1.919
33722W        W92983  27.540   9.276  14.872
33723W        W92984   0.960   1.807   1.225
33724W        W92985  21.128  31.988  11.027
33725W        W92986  35.507  38.450  13.885
33726W        W92987  43.968  16.212  14.760
33727W        W92988   8.397  31.967  10.415
33728W        W92989  26.606  20.212   0.294
33729W        W92990   6.826   8.342  13.514
33730W        W92991  42.369  28.091  14.003
33731W        W92992   7.795  11.866  13.336
33732W        W92993   6.250  38.420  10.427
33733W        W92994  18.110  44.350   0.440
33734W        W92995  44.357   7.785  12.918
33735W        W92996  34.413  35.941   4.253
33736W        W92997  26.643   5.767   4.284
33737W        W92998  40.971  30.957   0.378
33738W        W92999   9.685  13.110   0.856
33739W        W93000  38.850  35.570   9.479
33740W        W93001  15.245   2.295   2.766
33741W        W93002   5.293   8.801   1.877
33742W        W93003  10.190   8.835  13.878
33743W        W93004   8.700  43.370   1.387
33744W        W93005  15.248  42.353  14.795
33745W        W93006  31.009  27.548   3.775
33746W        W93007   3.396  15.110   1.844
33747W        W93008   0.850  12.767  12.827
33748W        W93009  13.663   4.889   4.700
33749W        W93010  20.743  38.354  12.420
33750W        W93011  33.437   2.786   0.946
33751W        W93012  15.182  39.973  13.913
33752W        W93013  10.288  30.472   9.983
33753W        W93014  18.172  25.099   1.841
33754W        W93015  34.961   1.305   1.904
33755W        W93016  11.151  12.725   2.841
33756W        W93017  19.124  42.818  13.913
33757W        W93018  14.683  10.355  12.024
33758W        W93019   0.903   9.703   0.353
33759W        W93020  19.641  32.092  10.428
33760W        W93021   8.740   2.327   2.808
33761W        W93022  36.479  16.716  13.489
33762W        W93023  42.028   4.832  14.994
33763W        W93024  34.597  11.300  11.574
33764W        W93025  38.493  15.092   0.484
33765W        W93026   8.364  29.596  14.909
33766W        W93027  12.627   2.755  10.493
33767W        W93028  25.700  28.465   2.727
33768W        W93029   2.338  11.162  13.051
33769W        W93030   8.364  18.680   4.722
33770W        W93031  22.717   4.273  13.362
33771W        W93032  29.658  21.190   1.335
33772W        W93033  43.951  13.343   4.278
33773W        W93034  18.715  38.389   3.166
33774W        W93035   6.411  21.031   9.995
33775W        W93036  32.515  44.308   0.386
33776W        W93037  37.485   6.393   3.731
33777W        W93038  30.424  43.464  14.866
33778W        W93039  17.574  20.223  11.978
33779W        W93040  11.725  39.543   2.693
33780W        W93041   8.823  13.617  14.326
33781W        W93042   3.720  33.005  11.430
33782W        W93043  43.279  25.130  10.573
33783W        W93044   0.913  19.188  10.064
33784W        W93045  43.001  19.113   9.533
33785W        W93046  35.957  20.720  14.444
33786W        W93047  44.998  25.040   3.659
33787W        W93048  27.564  34.434  12.045
33788W        W93049  10.277  24.041  10.924
33789W        W93050   3.943  19.709  10.896
33790W        W93051  35.891  12.819   1.711
33791W        W93052   9.878  21.514  14.851
33792W        W93053  38.041  36.940   9.543
33793W        W93054  10.809  39.365   1.779
33794W        W93055  22.240  13.757   0.317
33795W        W93056  37.520  17.130   3.673
33796W        W93057  14.702   2.333   2.367
33797W        W93058  25.148  25.126   2.394
33798W        W93059  13.302  27.140   2.316
33799W        W93060  10.324  36.049   3.232
33800W        W93061  36.363  36.095   1.315
33801W        W93062  16.744  26.634   1.914
33802W        W93063  37.890  40.993   2.765
33803W        W93064  43.399   5.800   4.728
33804W        W93065  44.845  24.684  12.935
33805W        W93066  37.868  26.960  10.939
33806W        W93067  13.612  43.912  13.972
33807W        W93068  14.101   7.722   1.449
33808W        W93069   7.213  31.432   1.277
33809W        W93070  36.912  29.586   3.210
33810W        W93071  44.503  12.761   1.397
33811W        W93072  17.723  22.151  14.932
33812W        W93073  43.343  42.297  12.563
33813W        W93074  27.569  38.536   1.797
33814W        W93075   2.431  44.323   4.749
33815W        W93076  41.015  21.617   3.221
33816W        W93077  13.242  32.579   2.370
33817W        W93078  19.664  43.813   0.848
33818W        W93079  31.911  10.875  11.078
33819W        W93080  41.882  29.143   3.740
33820W        W93081  36.390  20.171   2.868
33821W        W93082  11.762  12.709  13.844
33822W        W93083  25.157  12.131  14.801
33823W        W93084   5.252   7.790   2.727
33824W        W93085  15.124  36.853   0.750
33825W        W93086  28.083  15.318  13.348
33826W        W93087  25.106   5.853   1.695
33827W        W93088  10.820   8.730   3.251
33828W        W93089  15.773  10.146  12.428
33829W        W93090   8.782  22.096  13.901
33830W        W93091  11.206   0.772  13.879
33831W        W93092  31.113  21.189  12.970
33832W        W93093  22.668  38.341  11.374
33833W        W93094  26.118   1.419   2.413
33834W        W93095  12.184  18.670  13.834
33835W        W93096  29.967   9.801  10.537
33836W        W93097  15.308  13.145  11.925
33837W        W93098  30.621  31.081   2.354
33838W        W93099  27.634  16.652  11.079
33839W        W93100   3.234  37.922  14.317
33840W        W93101  29.446  34.451  10.119
33841W        W93102  15.814  20.717  11.493
33842W        W93103  21.250  38.332  12.920
33843W        W93104  35.517  40.368   1.758
33844W        W93105  10.698  17.712   3.301
33845W        W93106  25.590   1.372   2.762
33846W        W93107  13.308  22.745   5.321
33847W        W93108  36.474  44.797  12.002
33848W        W93109  24.619  30.005   2.402
33849W        W93110  19.135  29.094  11.108
33850W        W93111  11.704  43.451  12.470
33851W        W93112  28.481  20.102   0.420
33852W        W93113   2.328  19.116  10.450
33853W        W93114  41.397   1.336   3.383
33854W        W93115   1.256  22.735  13.952
33855W        W93116  36.937  28.970   0.775
33856W        W93117  13.249  11.844   0.879
33857W        W93118  34.498  43.977  12.884
33858W        W93119  44.870   1.245   2.207
33859W        W93120  21.706  31.569  14.957
33860W        W93121  43.828  20.068  11.934
33861W        W93122  14.802  21.745   4.628
33862W        W93123  17.200  11.822  12.959
33863W        W93124  21.749  37.549   1.931
33864W        W93125  11.640  27.687  10.590
33865W        W93126  31.918  37.888  10.553
33866W        W93127  15.683  28.065  13.006
33867W        W93128  23.197  36.444   0.845
33868W        W93129  14.273  29.141   3.179
33869W        W93130   3.461  15.314   2.180
33870W        W93131  25.621  21.175   0.445
33871W        W93132  42.297  21.610  10.473
33872W        W93133  26.182  41.388  11.868
33873W        W93134  43.021  14.789   1.715
33874W        W93135  14.148   7.337  11.380
33875W        W93136  40.797  22.114  11.466
33876W        W93137  38.066   7.748   2.680
33877W        W93138  31.468  37.866  12.470
33878W        W93139  14.332  10.172  11.591
33879W        W93140  32.121  14.315   3.766
33880W        W93141   3.753  18.751   2.671
33881W        W93142  31.427  41.899   0.282
33882W        W93143   4.823  28.999  10.644
33883W        W93144   8.901  34.043   2.866
33884W        W93145   1.377  25.048  14.798
33885W        W93146  27.495  28.181  14.416
33886W        W93147  11.640  38.569  14.293
33887W        W93148   8.667  20.082  10.952
33888W        W93149  19.625  13.818   3.784
33889W        W93150  22.044  37.342  14.891
33890W        W93151  11.130  36.507  14.787
33891W        W93152  21.512   6.253  12.912
33892W        W93153   4.248  37.916   0.878
33893W        W93154  12.143   3.268  10.434
33894W        W93155  11.771  19.207  13.895
33895W        W93156  18.594  38.532   2.209
33896W        W93157  27.638   0.894  11.409
33897W        W93158  25.097  27.955  12.912
33898W        W93159  31.962  14.609  12.012
33899W        W93160  27.045  13.820  11.609
33900W        W93161  22.704  32.126  12.567
33901W        W93162  38.898   8.855  11.969
33902W        W93163  36.945  33.392   2.760
33903W        W93164  40.808   5.270   3.340
33904W        W93165   5.900  37.998  13.904
33905W        W93166  32.398  19.582   2.178
33906W        W93167  27.167  25.667   4.798
33907W        W93168  17.151  24.068  12.378
33908W        W93169  21.164   0.324  13.990
33909W        W93170   4.821   3.793  12.354
33910W        W93171  42.857  32.989  12.977
33911W        W93172  10.814  19.704  13.376
33912W        W93173   6.221   5.918   2.901
33913W        W93174  22.730  35.546   0.296
33914W        W93175  43.513  24.041   3.728
33915W        W93176  24.611  34.490   1.781
33916W        W93177   1.968  42.306  13.992
33917W        W93178  17.206  42.423   9.937
33918W        W93179  36.440   1.353   4.718
33919W        W93180  16.200   5.343   3.161
33920W        W93181  29.526  20.190   0.911
33921W        W93182  23.065  43.504  11.029
33922W        W93183  29.156   2.313   2.900
33923W        W93184   8.672  35.950  14.859
33924W        W93185  34.537   1.437   3.790
33925W        W93186  28.600  32.061   0.480
33926W        W93187  40.417  42.981   2.805
33927W        W93188  15.644  33.474   5.301
33928W        W93189   9.708  24.509  12.497
33929W        W93190   7.352  10.203  10.989
33930W        W93191  31.074  22.019  13.905
33931W        W93192  31.944   2.461   1.755
33932W        W93193  36.896  16.628  11.570
33933W        W93194  42.494   1.805  13.013
33934W        W93195  11.791  35.536   2.902
33935W        W93196  21.748   4.922   0.368
33936W        W93197   8.711  27.026   3.355
33937W        W93198  43.001  11.284  12.364
33938W        W93199  40.373  21.060  11.925
33939W        W93200   4.798  18.591   4.772
33940W        W93201  33.996  20.594   4.696
33941W        W93202  23.145  37.441  11.432
33942W        W93203   1.833  40.800   0.859
33943W        W93204   9.665  41.499  14.322
33944W        W93205  44.814  31.611  13.029
33945W        W93206   0.381  30.129   0.742
33946W        W93207  42.899  27.562   2.795
33947W        W93208  29.493   5.264   3.713
33948W        W93209   2.848  34.879  12.059
33949W        W93210  14.160   2.767   1.309
33950W        W93211   9.207  10.147   1.287
33951W        W93212  13.116  42.972  11.610
33952W        W93213   6.913   1.816   1.233
33953W        W93214  24.136  40.044  14.832
33954W        W93215  38.530  35.090   3.260
33955W        W93216   2.956  44.967   0.465
33956W        W93217  14.196  31.077   9.951
33957W        W93218  42.397   6.362  14.916
33958W        W93219  19.713  29.477  13.471
33959W        W93220   3.724   6.908  11.989
33960W        W93221  34.879  35.444   0.284
33961W        W93222  36.846  18.119   1.406
33962W        W93223   9.236  39.527  12.565
33963W        W93224  39.849  43.842  11.905
33964W        W93225  16.114   1.394   0.776
33965W        W93226  14.183  17.228   3.283
33966W        W93227  42.848   4.790  11.037
33967W        W93228  26.670  44.498  11.999
33968W        W93229   8.345   6.692  14.950
33969W        W93230  32.017  15.690  10.894
33970W        W93231  39.481  29.454  10.579
33971W        W93232  24.103   8.185   0.372
33972W        W93233  23.110  32.549   5.726
33973W        W93234  32.031  15.092  13.963
33974W        W93235  10.690   3.815   2.315
33975W        W93236   7.347  42.335   2.778
33976W        W93237  30.932  35.002   1.338
33977W        W93238   3.263  12.678   2.275
33978W        W93239  32.585  13.625  11.539
33979W        W93240  33.072  22.614   4.340
33980W        W93241  32.488  21.045  14.286
33981W        W93242  15.098  13.672  12.835
33982W        W93243  33.946  42.423   1.714
33983W        W93244  16.247   4.933  11.559
33984W        W93245  16.272   7.267  14.402
33985W        W93246  31.620  39.495  13.891
33986W        W93247  39.544  37.863   4.348
33987W        W93248  40.447  13.320   1.871
33988W        W93249  12.684   8.221  10.437
33989W        W93250  42.430  29.135  10.161
33990W        W93251   7.271  21.101  12.423
33991W        W93252  37.969  21.561  14.319
33992W        W93253   3.390  42.803   3.846
33993W        W93254  12.772   1.852  11.989
33994W        W93255  31.586  41.301  11.105
33995W        W93256   5.804   3.331   3.318
33996W        W93257   7.767  10.297  13.001
33997W        W93258  41.391  44.814   2.671
33998W        W93259  13.284  30.911   4.651
33999W        W93260   4.732   2.745  12.474
34000W        W93261  41.530  44.758  13.351
34001W        W93262   3.771  24.695  13.870
34002W        W93263  26.956  15.814  10.433
34003W        W93264  30.499  38.821  14.977
34004W        W93265   6.811  28.560   2.258
34005W        W93266  34.424  42.429   4.195
34006W        W93267  39.891   8.726  13.977
34007W        W93268   9.745  14.193   3.676
34008W        W93269  38.831  30.049  12.975
34009W        W93270  44.292  28.127   1.736
34010W        W93271  35.947  44.802   2.792
34011W        W93272   5.818   0.290   0.417
34012W        W93273  38.433   0.327   4.281
34013W        W93274  30.952  38.981  13.322
34014W        W93275  11.837  19.770   1.402
34015W        W93276   5.388  27.112   1.910
34016W        W93277  14.589   8.197  14.935
34017W        W93278  40.308  21.221  13.910
34018W        W93279  20.533  24.522  11.873
34019W        W93280  23.106  10.377   3.269
34020W        W93281  33.412  17.100  14.490
34021W        W93282  41.449  37.870   1.822
34022W        W93283  22.540  27.459  14.986
34023W        W93284  12.757  35.539  13.015
34024W        W93285   1.802   8.360  11.610
34025W        W93286  19.243  38.463  10.623
34026W        W93287  20.104   2.881  11.416
34027W        W93288  13.788   7.816   3.657
34028W        W93289  27.447   9.798   2.885
34029W        W93290  12.651  12.246   0.355
34030W        W93291  32.895  33.931   1.302
34031W        W93292  41.853  11.691  11.564
34032W        W93293  25.015  21.195  14.492
34033W        W93294  44.861  19.050   3.324
34034W        W93295   9.791  20.098  10.913
34035W        W93296  14.318  16.156   2.357
34036W        W93297  27.946  39.422  12.895
34037W        W93298  43.838  37.573  12.027
34038W        W93299  24.158   4.833   3.317
34039W        W93300   9.296  40.877   2.332
34040W        W93301  27.105   3.768   4.671
34041W        W93302  43.295  42.886  10.947
34042W        W93303  41.035  13.195   4.135
34043W        W93304   5.780  12.335  11.895
34044W        W93305  36.900  34.011   2.799
34045W        W93306  27.669  18.067  12.837
34046W        W93307  20.657  27.640   0.453
34047W        W93308  31.418  16.194   2.859
34048W        W93309  21.022  28.054   3.760
34049W        W93310  17.120  14.615  11.395
34050W        W93311  44.843  14.614   1.328
34051W        W93312   1.871  36.408   0.780
34052W        W93313  36.980   0.889   2.695
34053W        W93314   3.939  32.414  14.337
34054W        W93315  21.240  39.417   1.782
34055W        W93316  43.365  43.400  14.418
34056W        W93317  15.284  15.812  12.379
34057W        W93318  17.569  33.528   1.765
34058W        W93319  22.564  31.482  11.486
34059W        W93320   9.647  20.033   2.393
34060W        W93321  22.556  43.380   0.827
34061W        W93322  20.166  32.393  10.580
34062W        W93323  31.056   5.729   3.813
34063W        W93324  37.372   0.345   3.681
34064W        W93325  41.421  10.733   0.879
34065W        W93326  21.644  30.122  12.947
34066W        W93327  11.259  19.759   0.477
34067W        W93328  18.655   9.158   1.364
34068W        W93329  40.873  19.630   0.299
34069W        W93330  21.568  40.530  11.388
34070W        W93331   0.790  17.575   4.789
34071W        W93332  22.033  43.269  13.827
34072W        W93333   9.219  41.323  12.463
34073W        W93334  18.754  19.718  14.410
34074W        W93335  36.400  35.371   2.327
34075W        W93336   6.218  19.128  12.567
34076W        W93337  12.194   6.896  13.049
34077W        W93338  14.253  39.386   2.296
34078W        W93339   3.948   9.210  12.050
34079W        W93340  29.668  11.679   0.288
34080W        W93341  36.355  20.569  10.429
34081W        W93342  12.848  20.268   1.830
34082W        W93343  32.391   4.706  10.076
34083W        W93344  36.887  43.495   0.841
34084W        W93345   7.677  37.962  13.046
34085W        W93346  30.934  15.687   2.259
34086W        W93347  24.487  22.110  14.473
34087W        W93348   4.242  41.474   3.764
34088W        W93349  44.469  19.189   0.884
34089W        W93350   6.254  23.176  10.411
34090W        W93351   7.217   0.970   3.236
34091W        W93352  40.490  26.003  12.016
34092W        W93353  26.477  39.887  13.438
34093W        W93354  21.690  27.503   2.196
34094W        W93355   0.270   2.338   1.323
34095W        W93356   6.322   3.944  14.403
34096W        W93357  27.007  27.045  14.921
34097W        W93358  44.841  17.174  11.594
34098W        W93359   6.699  17.105   2.810
34099W        W93360  23.572  32.447  13.449
34100W        W93361  35.419  16.763  13.882
34101W        W93362  21.036  32.467  14.770
34102W        W93363  29.958  35.004  14.022
34103W        W93364  10.727   7.218  10.996
34104W        W93365   8.848  10.225  13.890
34105W        W93366  24.030  21.670   1.721
34106W        W93367  27.635  14.300   3.841
34107W        W93368  31.491  26.672   1.282
34108W        W93369  25.093  38.072  13.928
34109W        W93370  27.137   3.229  12.478
34110W        W93371  36.531   2.252  11.609
34111W        W93372  10.202  25.139   2.874
34112W        W93373   1.909  36.875   1.447
34113W        W93374  31.638   9.675   2.698
34114W        W93375  18.272  36.497  14.443
34115W        W93376   3.268   0.468  11.465
34116W        W93377   9.179  11.270   3.380
34117W        W93378  19.710   5.422   4.283
34118W        W93379  17.295  44.856  10.642
34119W        W93380  40.399  12.281   4.302
34120W        W93381  43.378  29.081  12.859
34121W        W93382   9.249   3.738  11.569
34122W        W93383  17.273  43.930   3.183
34123W        W93384   3.771  40.352  10.638
34124W        W93385   5.697  18.619   1.296
34125W        W93386   4.744  23.069   0.377
34126W        W93387   7.232   2.415  10.991
34127W        W93388  10.376   5.380  13.932
34128W        W93389  29.109   9.689  11.585
34129W        W93390  25.649  27.195  12.425
34130W        W93391  40.949  38.563  14.769
34131W        W93392   2.309  16.298   2.682
34132W        W93393  25.569   5.744  13.843
34133W        W93394  40.322  26.078   3.765
34134W        W93395   3.236  16.706   1.299
34135W        W93396  32.999  10.866  10.972
34136W        W93397  36.536  37.448   2.399
34137W        W93398  32.413   4.232  10.901
34138W        W93399  24.162   1.889   9.968
34139W        W93400  34.102  35.396   1.409
34140W        W93401   6.191  24.663  11.938
34141W        W93402   4.373   3.911   4.635
34142W        W93403  43.479  10.311  10.919
34143W        W93404   3.415  35.905   1.449
34144W        W93405   1.738  38.443  11.389
34145W        W93406  42.343  33.616   1.779
34146W        W93407  25.571   4.224   3.658
34147W        W93408  11.145  38.344  12.567
34148W        W93409  42.839  11.144   0.341
34149W        W93410  29.941  34.370   0.788
34150W        W93411   1.451  24.600  12.064
34151W        W93412  32.971  41.318  10.433
34152W        W93413  17.768  20.160   1.329
34153W        W93414  12.706  41.948   0.356
34154W        W93415  28.108  13.769   0.467
34155W        W93416  11.828  13.832  13.379
34156W        W93417  20.117  24.572   1.407
34157W        W93418  39.349  17.189   1.790
34158W        W93419  44.267   6.860   4.310
34159W        W93420  38.852  28.537   1.883
34160W        W93421  29.168  21.588  11.901
34161W        W93422  38.432  15.295  11.515
34162W        W93423  25.557  20.037  12.564
34163W        W93424  28.156   0.783  11.479
34164W        W93425  42.408  19.591   2.874
34165W        W93426  43.386  34.957   3.635
34166W        W93427  29.594  36.925  11.051
34167W        W93428  11.356  22.121   4.271
34168W        W93429  17.120  11.808   5.211
34169W        W93430   0.944  33.125  14.436
34170W        W93431   0.421  19.243  10.527
34171W        W93432  28.054   2.726   1.363
34172W        W93433   4.797  27.570  11.447
34173W        W93434  22.704  15.732   3.300
34174W        W93435  34.974  44.763  12.004
34175W        W93436  18.207  36.374  11.970
34176W        W93437  36.044   7.782  11.083
34177W        W93438  19.162  23.169  13.936
34178W        W93439  39.852  26.166  13.010
34179W        W93440   7.777  22.561  12.903
34180W        W93441  17.114   5.241  13.456
34181W        W93442  27.135  15.168   1.323
34182W        W93443   6.798   4.882  13.976
34183W        W93444  40.534   3.386  14.413
34184W        W93445  43.501  12.232   1.258
34185W        W93446   5.805  16.090  14.460
34186W        W93447  24.641   0.351   2.670
34187W        W93448  34.115  35.929   2.818
34188W        W93449  37.405  12.722   0.352
34189W        W93450  18.690  16.238  13.821
34190W        W93451  28.441  35.065  14.402
34191W        W93452   3.878   5.320  14.430
34192W        W93453  41.896  39.407  12.064
34193W        W93454  22.198  32.016   3.249
34194W        W93455  34.989  30.459   0.900
34195W        W93456  41.929  14.335  12.576
34196W        W93457  37.372  10.168  12.868
34197W        W93458   3.918  29.562  12.889
34198W        W93459  11.679  43.328  10.139
34199W        W93460  43.977  12.342   3.713
34200W        W93461  37.534  25.564   1.930
34201W        W93462   0.914  15.212   4.217
34202W        W93463  31.034  13.125  11.418
34203W        W93464  34.066  27.570   3.289
34204W        W93465  22.510   9.370   2.178
34205W        W93466  10.675   8.406  10.532
34206W        W93467  24.087  13.327  14.331
34207W        W93468  13.108  32.042   1.728
34208W        W93469   4.368  34.520  12.879
34209W        W93470  43.962  12.279  11.855
34210W        W93471   2.810  31.624   2.810
34211W        W93472  10.857  20.058   1.449
34212W        W93473  21.180  40.354  11.905
34213W        W93474  20.586  37.015  10.499
34214W        W93475  11.811   0.924  13.471
34215W        W93476  27.625  32.545  13.348
34216W        W93477   5.218  10.143   3.329
34217W        W93478   5.885   1.873  14.918
34218W        W93479  34.600  13.701   4.750
34219W        W93480   5.211  26.998   4.183
34220W        W93481  37.956  27.635   2.322
34221W        W93482   4.396  12.752   3.646
34222W        W93483   3.941   7.790  10.046
34223W        W93484  42.863   2.866  11.111
34224W        W93485  24.117  42.801   1.931
34225W        W93486  35.092  39.897   1.874
34226W        W93487  22.048  39.392  10.534
34227W        W93488  38.516  39.523  14.930
34228W        W93489  43.813  24.162  14.318
34229W        W93490   2.281   0.265  14.446
34230W        W93491  29.162   0.874  11.543
34231W        W93492  44.371   0.352  14.897
34232W        W93493  19.623  22.675  11.577
34233W        W93494   2.771   1.402  13.978
34234W        W93495  37.383  32.535   1.364
34235W        W93496   8.288  38.855  14.001
34236W        W93497  28.518  16.787  13.341
34237W        W93498  19.722   6.318  12.361
34238W        W93499  40.973  44.802  14.773
34239W        W93500  18.292  11.711   4.828
34240W        W93501  15.665  43.904  11.858
34241W        W93502  43.444  23.019   3.853
34242W        W93503  23.493  22.055   2.329
34243W        W93504  21.052  11.248   3.207
34244W        W93505   7.407  21.228   4.631
34245W        W93506  23.576  38.484   4.189
34246W        W93507  32.119  30.990   2.852
34247W        W93508  14.617  17.287  12.971
34248W        W93509  26.612  18.652  13.798
34249W        W93510   8.688  28.051  14.284
34250W        W93511   5.263  37.886   2.265
34251W        W93512  16.304  33.462   3.199
34252W        W93513  28.650  34.062  11.097
34253W        W93514  16.734  39.879  13.522
34254W        W93515  21.146   8.692  12.050
34255W        W93516  31.451  28.014   1.828
34256W        W93517  36.537  34.949  13.979
34257W        W93518  35.082  30.098   0.798
34258W        W93519  12.295  41.466   3.683
34259W        W93520  15.821  38.526   1.780
34260W        W93521  26.165  35.476  11.380
34261W        W93522  12.343  11.683  12.969
34262W        W93523  38.488   6.330   1.347
34263W        W93524   5.240  43.434  13.989
34264W        W93525   0.907  40.449  10.121
34265W        W93526   3.854  18.788  14.925
34266W        W93527  12.785  24.032   4.120
34267W        W93528  38.368  16.635   3.260
34268W        W93529  10.756  28.648  13.316
34269W        W93530  11.824  25.599   1.908
34270W        W93531  24.493   1.460   0.790
34271W        W93532  42.945  18.160   5.275
34272W        W93533  44.816  25.977   2.228
34273W        W93534   9.690  21.642  13.347
34274W        W93535   8.337  13.200  10.562
34275W        W93536  30.023   5.317  12.914
34276W        W93537  33.450  14.212   5.096
34277W        W93538  14.664  13.287   1.934
34278W        W93539   4.345  32.615   2.288
34279W        W93540  40.832   6.398  14.990
34280W        W93541  11.803  31.929  11.582
34281W        W93542   0.292  15.580   2.391
34282W        W93543  30.601   0.375  11.421
34283W        W93544  30.067  10.639   3.862
34284W        W93545  41.928  30.478  14.364
34285W        W93546  30.995  41.360   4.134
34286W        W93547  34.420  20.240  14.905
34287W        W93548  23.037  31.598   3.313
34288W        W93549  36.849  41.983   4.141
34289W        W93550  43.876   2.310   1.399
34290W        W93551  37.560  33.006   4.674
34291W        W93552  39.957   1.328   4.660
34292W        W93553   9.389   4.340   2.685
34293W        W93554  13.724  31.532  14.936
34294W        W93555  28.531  16.097  14.939
34295W        W93556  41.944  19.587   0.385
34296W        W93557   6.845  21.070   4.688
34297W        W93558  14.771  40.803   0.773
34298W        W93559   0.276   2.948  13.963
34299W        W93560   9.383  44.320  12.387
34300W        W93561  29.056  22.612  14.342
34301W        W93562  17.215  34.488  14.373
34302W        W93563  23.106   2.769  10.507
34303W        W93564  22.225  29.435  12.027
34304W        W93565  15.269  10.636   4.135
34305W        W93566  21.604  26.628   0.749
34306W        W93567   5.430   4.934   9.660
34307W        W93568  19.268  40.533   3.276
34308W        W93569  25.054  40.392  11.889
34309W        W93570   9.313  31.907   0.257
34310W        W93571  15.685  33.036  13.459
34311W        W93572   9.150   0.762   2.746
34312W        W93573  21.672   2.943  10.498
34313W        W93574  40.527   6.292   1.268
34314W        W93575  29.648  11.848   1.796
34315W        W93576  27.486  37.930   1.700
34316W        W93577  31.016  35.056  12.369
34317W        W93578   6.745  30.642   0.742
34318W        W93579  32.015  16.801   4.280
34319W        W93580  12.190  42.514  13.936
34320W        W93581   4.780   8.747   0.325
34321W        W93582   9.210  14.276  12.579
34322W        W93583  18.692  24.114  13.800
34323W        W93584  36.560   7.783  12.404
34324W        W93585  24.136  39.016   0.966
34325W        W93586  26.032  41.884  14.777
34326W        W93587  11.241  15.717  13.526
34327W        W93588  12.848  18.239   0.447
34328W        W93589  19.150  23.548  13.991
34329W        W93590  44.815  13.153  12.446
34330W        W93591  34.598  39.430  12.069
34331W        W93592  34.909  21.731  12.540
34332W        W93593  14.701  19.605   4.262
34333W        W93594  27.528  43.844  14.847
34334W        W93595   0.831  40.340   0.942
34335W        W93596  33.918  22.591   1.363
34336W        W93597  26.582  35.046  13.803
34337W        W93598   0.751  41.787   4.155
34338W        W93599  34.002   1.378   4.786
34339W        W93600  15.591  29.640   2.291
34340W        W93601  12.225  15.720   4.115
34341W        W93602  24.174   3.718   4.212
34342W        W93603  10.282  24.207   4.699
34343W        W93604  38.481   7.776   4.615
34344W        W93605  37.044  11.680  14.389
34345W        W93606  31.022  30.466  14.021
34346W        W93607  34.553  13.249  10.071
34347W        W93608  24.158  41.362  14.364
34348W        W93609  15.769  32.926   4.253
34349W        W93610  36.008  13.317  12.898
34350W        W93611  10.170  37.903   1.718
34351W        W93612  29.155  15.696  10.518
34352W        W93613  38.874  37.924   0.344
34353W        W93614   7.871   6.778   0.942
34354W        W93615  40.818  31.039   2.721
34355W        W93616  38.430  43.939  14.314
34356W        W93617  44.862   9.311  10.570
34357W        W93618  31.451  29.573  14.331
34358W        W93619  36.350  36.857   1.277
34359W        W93620  28.016  15.691   5.287
34360W        W93621  11.172  25.626  10.431
34361W        W93622   0.265   7.247  10.452
34362W        W93623  29.564  40.548   2.898
34363W        W93624  34.440   3.772  13.977
34364W        W93625  40.969  36.462  12.868
34365W        W93626  17.184  35.439   4.834
34366W        W93627  29.046   4.781  13.375
34367W        W93628  23.211  36.391   0.348
34368W        W93629  10.343  37.862  12.006
34369W        W93630  30.049  13.648   0.967
34370W        W93631  33.973   7.384   0.475
34371W        W93632  33.009  27.045  13.435
34372W        W93633   9.255  27.686  10.449
34373W        W93634  18.726  33.518   2.894
34374W        W93635  22.739  17.627  13.486
34375W        W93636   6.185  23.539  13.833
34376W        W93637   2.944  15.602  12.923
34377W        W93638   5.192   1.368   3.653
34378W        W93639  10.313  43.012  12.942
34379W        W93640  12.312  16.130   4.698
34380W        W93641   6.807   3.382  13.907
34381W        W93642  17.577   6.189   0.907
34382W        W93643  11.703   7.219  14.968
34383W        W93644  16.738   7.318   4.321
34384W        W93645  17.644  20.116  12.441
34385W        W93646  33.022  37.972  14.886
34386W        W93647  34.493  23.138   4.141
34387W        W93648  30.014  17.748   1.775
34388W        W93649   8.860  16.170   1.733
34389W        W93650  27.953  25.672  13.976
34390W        W93651  21.747  19.079   2.738
34391W        W93652   5.876   4.274   1.884
34392W        W93653  29.922  36.949   1.892
34393W        W93654  18.644  39.992  13.354
34394W        W93655  38.470  35.003  14.371
34395W        W93656   5.295  19.675  12.533
34396W        W93657  33.448   4.244  11.099
34397W        W93658  18.293  14.795   4.610
34398W        W93659   9.817  44.381   3.220
34399W        W93660  32.522  42.029  12.350
34400W        W93661  12.161  30.545  11.858
34401W        W93662   4.861  35.373  13.321
34402W        W93663  41.391  19.068   0.776
34403W        W93664   4.430  43.441   1.232
34404W        W93665  34.457  14.202   1.282
34405W        W93666  36.012  11.285  12.960
34406W        W93667  21.237  33.481  10.582
34407W        W93668   7.745  34.101  12.947
34408W        W93669  19.198  31.573  12.960
34409W        W93670  18.725  13.678   3.279
34410W        W93671  31.122  17.304   2.847
34411W        W93672  31.960  30.531   3.739
34412W        W93673   6.237  24.078   1.891
34413W        W93674   3.920   5.363  11.406
34414W        W93675  18.761   1.276   2.702
34415W        W93676  10.656  36.858   2.235
34416W        W93677  34.021  40.539  11.493
34417W        W93678  17.223  20.597  11.087
34418W        W93679  38.013  35.484   0.903
34419W        W93680  31.501  43.771   3.321
34420W        W93681   7.853   8.861  13.811
34421W        W93682  13.344  23.523  12.964
34422W        W93683  18.263  29.919  12.432
34423W        W93684  38.529  32.991   0.406
34424W        W93685  22.249  30.497  12.501
34425W        W93686  14.330  12.631   1.247
34426W        W93687  16.177  17.270   2.813
34427W        W93688  16.788   5.432   4.141
34428W        W93689  11.230   0.297  11.862
34429W        W93690   5.713  20.059  13.933
34430W        W93691   6.827  15.153  10.504
34431W        W93692  36.407  25.518  12.906
34432W        W93693   7.234   8.195   4.682
34433W        W93694  31.470  28.540  11.392
34434W        W93695  37.058  18.650  11.019
34435W        W93696  33.459  36.579  10.445
34436W        W93697  37.402  28.622  14.902
34437W        W93698  18.775   5.344   5.177
34438W        W93699  26.148  41.850   4.639
34439W        W93700  33.924  23.045   1.415
34440W        W93701  22.134  35.879  12.978
34441W        W93702   7.710   7.382   1.407
34442W        W93703  24.017  22.220   1.704
34443W        W93704   5.904  12.122  11.445
34444W        W93705   1.968   1.282  11.556
34445W        W93706  33.000  31.546   3.802
34446W        W93707  20.134   1.285   2.807
34447W        W93708  30.962  43.484   2.392
34448W        W93709  27.659  13.107   4.646
34449W        W93710  26.584   7.283  12.996
34450W        W93711  34.371  26.951   4.186
34451W        W93712   3.938  13.179   1.414
34452W        W93713  25.703  17.802  14.440
34453W        W93714  10.789   6.204   4.304
34454W        W93715   6.321  29.102   4.608
34455W        W93716  35.561  24.072  13.000
34456W        W93717   3.442  17.291   2.864
34457W        W93718  22.537  31.899  12.836
34458W        W93719  42.844   2.371   0.432
34459W        W93720  27.137  23.037   3.640
34460W        W93721  19.703  17.077   1.859
34461W        W93722  36.587  32.495   0.378
34462W        W93723  36.369  44.009  12.895
34463W        W93724  40.416  24.006  12.839
34464W        W93725  19.574  38.336   2.692
34465W        W93726  17.646   2.865   0.415
34466W        W93727   6.204  40.430   0.830
34467W        W93728  30.976  43.776   2.213
34468W        W93729   1.275  23.083   3.321
34469W        W93730  23.521  27.947  10.413
34470W        W93731  32.606   6.211   3.312
34471W        W93732  37.016  23.619  11.435
34472W        W93733  10.730  32.549   2.686
34473W        W93734  38.840  14.698  10.608
34474W        W93735  13.258  17.101   0.438
34475W        W93736  44.765  23.136  11.442
34476W        W93737  42.400  14.753   3.810
34477W        W93738  32.899  16.687  13.330
34478W        W93739  25.548  39.543   2.867
34479W        W93740  24.518  28.671   0.887
34480W        W93741  34.370  25.497  11.975
34481W        W93742  30.553  28.155   0.316
34482W        W93743  36.549  34.945   0.356
34483W        W93744   1.877  17.795  11.045
34484W        W93745  22.052   1.277   3.185
34485W        W93746   0.305  44.295   3.844
34486W        W93747  20.109  23.095  14.777
34487W        W93748  22.071   6.688   3.147
34488W        W93749  20.712  20.104   0.374
34489W        W93750  20.588  35.414   0.252
34490W        W93751  43.889  30.109   4.280
34491W        W93752  41.816  32.046  14.982
34492W        W93753   2.300  11.191   4.600
34493W        W93754  12.620   4.405   1.718
34494W        W93755  39.334   5.772   2.768
34495W        W93756  27.586  17.727   3.701
34496W        W93757  23.160  32.100   3.653
34497W        W93758   7.321  23.195   3.786
34498W        W93759  41.407  23.606   5.316
34499W        W93760   0.861  36.939   0.248
34500W        W93761  18.757  20.604  14.914
34501W        W93762   5.927   4.415   0.276
34502W        W93763  10.758  14.207   2.261
34503W        W93764  10.829   4.815   1.427
34504W        W93765  20.649   2.958   4.717
34505W        W93766  28.996   0.385  12.577
34506W        W93767  32.584  28.638   1.285
34507W        W93768  15.706  44.964   0.354
34508W        W93769   7.363  20.737  12.510
34509W        W93770  37.880   5.933  14.878
34510W        W93771  21.687   0.440   0.260
34511W        W93772  40.876   1.891  10.962
34512W        W93773  16.128  35.993  10.623
34513W        W93774   3.860   9.889   1.374
34514W        W93775   7.415  29.562  11.382
34515W        W93776  12.156   4.286   0.388
34516W        W93777  34.978  10.756  11.939
34517W        W93778  19.217  17.757  11.420
34518W        W93779  16.596  15.722  11.968
34519W        W93780  15.307  11.362   0.275
34520W        W93781  26.577  40.443  12.914
34521W        W93782   4.791  34.107  10.914
34522W        W93783  37.021  25.054   4.625
34523W        W93784  41.373  28.096  12.892
34524W        W93785  33.385  23.603   3.169
34525W        W93786  38.966  42.910   1.838
34526W        W93787  44.898  41.794  12.968
34527W        W93788  17.115  23.171   4.196
34528W        W93789  43.884  39.815  11.382
34529W        W93790  26.690  37.064  11.062
34530W        W93791  21.240  13.601  13.910
34531W        W93792  13.345  39.382   1.330
34532W        W93793   8.673  13.107   5.262
34533W        W93794  32.894  15.089   4.208
34534W        W93795   3.883  28.546  14.417
34535W        W93796  30.580   0.947   4.230
34536W        W93797   0.931  24.482  13.023
34537W        W93798  12.770   8.767  10.581
34538W        W93799  38.883  10.823  11.866
34539W        W93800  25.145   1.306  14.473
34540W        W93801  30.952  27.988  14.332
34541W        W93802  26.653  34.567   4.183
34542W        W93803  25.676   4.329  13.873
34543W        W93804  13.752  40.827   0.877
34544W        W93805  16.309  33.568   2.806
34545W        W93806  31.975  25.698  12.068
34546W        W93807  22.135  17.306   4.738
34547W        W93808  38.495   6.747   1.781
34548W        W93809  21.091  22.630  12.366
34549W        W93810   4.216   5.198  13.347
34550W        W93811   5.809  41.384   4.134
34551W        W93812  42.289   3.452  10.589
34552W        W93813  43.017  19.084   2.809
34553W        W93814  29.480  11.641  14.510
34554W        W93815  41.941  34.586  12.365
34555W        W93816  44.323   7.309  12.350
34556W        W93817  33.972  33.030  10.571
34557W        W93818  34.043  35.886   1.430
34558W        W93819   4.702   6.284  10.001
34559W        W93820  26.574  11.671   0.327
34560W        W93821  26.619  23.732   4.834
34561W        W93822  15.749  31.502   4.173
34562W        W93823   6.912  38.482  13.476
34563W        W93824   7.890  10.319  14.509
34564W        W93825  34.056   6.833   3.796
34565W        W93826  11.211  29.155   4.837
34566W        W93827  22.188  20.646   4.597
34567W        W93828   6.210  13.226   1.842
34568W        W93829  13.643  20.179   4.129
34569W        W93830   7.882  17.658   2.242
34570W        W93831  34.934  39.358   0.299
34571W        W93832  26.507  23.530   2.237
34572W        W93833  22.725  16.724  10.066
34573W        W93834  16.699  25.690  13.010
34574W        W93835   0.800  15.133   1.741
34575W        W93836  42.308   6.734   1.312
34576W        W93837  22.008  41.017  11.543
34577W        W93838   4.932  13.347   4.347
34578W        W93839   7.906  37.064  13.487
34579W        W93840  21.542  18.594  10.630
34580W        W93841  37.068   0.984  13.892
34581W        W93842  13.760   9.274  10.405
34582W        W93843  11.166   3.224  13.894
34583W        W93844  18.645  42.932  14.951
34584W        W93845  34.575  23.039  12.540
34585W        W93846  12.700  34.527   1.906
34586W        W93847   0.929   0.791  10.947
34587W        W93848  40.864   7.785   0.429
34588W        W93849  10.333  11.222   2.701
34589W        W93850   9.371  16.678   3.685
34590W        W93851  16.270  10.791   3.197
34591W        W93852  23.147   8.298   0.849
34592W        W93853  13.826  29.940   3.230
34593W        W93854  10.349   0.472  11.381
34594W        W93855  19.180  32.062   3.292
34595W        W93856  44.801  14.795   3.159
34596W        W93857  14.106  11.226   3.324
34597W        W93858  17.782   0.290   1.390
34598W        W93859  26.121  16.598   1.328
34599W        W93860   6.895  10.732   1.864
34600W        W93861  13.723  13.110  10.502
34601W        W93862  42.327  35.067   0.947
34602W        W93863  17.768   6.287   2.248
34603W        W93864  38.568   4.279  11.509
34604W        W93865   9.690  11.768   4.220
34605W        W93866  16.658  17.123   2.687
34606W        W93867  13.696   3.369  13.313
34607W        W93868  26.095  30.583   3.855
34608W        W93869  14.608   8.885   4.153
34609W        W93870  34.029  18.096  11.544
34610W        W93871  25.097  23.999  12.054
34611W        W93872  38.360   3.883  12.857
34612W        W93873  24.037  28.627   3.630
34613W        W93874  29.976   0.827   2.705
34614W        W93875  44.853  29.444   4.704
34615W        W93876  17.074   9.355   1.754
34616W        W93877  41.397  24.090  13.357
34617W        W93878  30.443   5.357   0.321
34618W        W93879  28.662  17.696  12.868
34619W        W93880  34.538   8.247  12.494
34620W        W93881  20.733   1.935   1.739
34621W        W93882  10.661  30.082   1.243
34622W        W93883  16.772   8.204  10.130
34623W        W93884  30.441  16.155   4.828
34624W        W93885  24.635  10.176  11.586
34625W        W93886  28.581  17.105   0.791
34626W        W93887  24.653  18.070  12.044
34627W        W93888   3.851  26.695  11.872
34628W        W93889   7.903  15.742   5.160
34629W        W93890  28.532  15.776  13.045
34630W        W93891  18.253  41.947   0.296
34631W        W93892  14.809  34.897   0.907
34632W        W93893   8.181  36.550  13.493
34633W        W93894  17.760  39.004  13.430
34634W        W93895   6.813  39.548   0.824
34635W        W93896  33.476  29.552   2.200
34636W        W93897  32.437  25.013  14.798
34637W        W93898   0.439  41.963   1.839
34638W        W93899  29.939  12.356  12.079
34639W        W93900  23.191  28.994   4.638
34640W        W93901  12.736  15.585   4.138
34641W        W93902   7.265  15.214  10.426
34642W        W93903  35.441  23.665  10.637
34643W        W93904  41.503   0.351  14.010
34644W        W93905  23.658   1.808   2.878
34645W        W93906  31.935   2.236   5.141
34646W        W93907  29.149  44.928  14.990
34647W        W93908  35.526   3.320   2.334
34648W        W93909  16.311   4.396  14.963
34649W        W93910  29.560  31.030   3.261
34650W        W93911  37.415  29.664   1.885
34651W        W93912  41.814   2.278  11.997
34652W        W93913   8.352  28.646  11.074
34653W        W93914  36.093   8.897   1.324
34654W        W93915  18.721  36.089  13.994
34655W        W93916  23.632  42.440   1.286
34656W        W93917  15.588  20.595  10.001
34657W        W93918  41.314  17.779  13.504
34658W        W93919  33.955  17.247   3.282
34659W        W93920  42.490  32.068  11.999
34660W        W93921  13.633  14.135  10.968
34661W        W93922   0.806  22.049  10.569
34662W        W93923  29.520  24.623   3.346
34663W        W93924  19.198  25.486  12.857
34664W        W93925  22.655  42.303  11.975
34665W        W93926  12.327   6.814  11.881
34666W        W93927  31.419   0.420  13.307
34667W        W93928  12.280   4.828   1.926
34668W        W93929   6.403  21.238  10.439
34669W        W93930  33.392  36.967  11.535
34670W        W93931  12.145  41.388  11.408
34671W        W93932  25.092  15.182   2.790
34672W        W93933  16.106  19.258   9.527
34673W        W93934   8.318  18.199   0.345
34674W        W93935  10.739  23.522   4.617
34675W        W93936   1.345   0.983  10.620
34676W        W93937  34.470  34.498  11.121
34677W        W93938  35.047  17.775  14.846
34678W        W93939  35.054  27.184  11.100
34679W        W93940  34.117  43.784  12.002
34680W        W93941  35.560  42.836  11.103
34681W        W93942  25.671  27.485   5.278
34682W        W93943  11.848  40.859  14.775
34683W        W93944  10.655  44.825  12.568
34684W        W93945  33.027  40.040  12.484
34685W        W93946  14.799  30.110   1.330
34686W        W93947  26.078  13.211  12.923
34687W        W93948   2.246   6.194  11.452
34688W        W93949  41.496   1.903   1.346
34689W        W93950  26.579   3.742   2.792
34690W        W93951  13.816   8.661   0.264
34691W        W93952  14.629  26.703   5.273
34692W        W93953  26.694  10.327   1.732
34693W        W93954  23.650   5.690   4.757
34694W        W93955  41.965  16.249  12.469
34695W        W93956  17.581   2.424   3.794
34696W        W93957  11.197  42.900   2.316
34697W        W93958  30.982   8.825  14.331
34698W        W93959  23.696  17.271  14.363
34699W        W93960  16.245  32.038  13.518
34700W        W93961  22.020  11.826  13.932
34701W        W93962  20.270  15.190  13.003
34702W        W93963  44.400  39.908   2.219
34703W        W93964  36.500  39.844  10.567
34704W        W93965  41.981  22.515   2.397
34705W        W93966  32.898   7.715   2.381
34706W        W93967   3.275   9.865  14.318
34707W        W93968   0.367  31.554  12.870
34708W        W93969  13.240   1.778   2.378
34709W        W93970  28.466  44.900  11.115
34710W        W93971  29.016  21.054   0.745
34711W        W93972  23.019   9.175  13.507
34712W        W93973  28.185  34.931   3.380
34713W        W93974  14.177  25.529   1.213
34714W        W93975  23.180  16.185  13.330
34715W        W93976  28.962  30.979  11.612
34716W        W93977   2.911  13.220   0.814
34717W        W93978  19.264  30.095  14.411
34718W        W93979   6.330  43.403   0.743
34719W        W93980  20.761  43.998  12.361
34720W        W93981   7.333   0.982  12.489
34721W        W93982   6.783  31.024   3.801
34722W        W93983   0.874  31.451  11.879
34723W        W93984  16.310  28.607  12.452
34724W        W93985  15.159  33.057  12.928
34725W        W93986  25.041  44.875   4.281
34726W        W93987   7.270  35.865   4.678
34727W        W93988  17.690  34.513  12.405
34728W        W93989  24.706  16.318   1.915
34729W        W93990  12.730  33.891  10.943
34730W        W93991  34.460   9.690  13.418
34731W        W93992  33.508  27.986   1.343
34732W        W93993  26.681   4.393   2.285
34733W        W93994  38.385  27.687   1.750
34734W        W93995   6.217   5.388   2.311
34735W        W93996  39.500  40.492  12.043
34736W        W93997  43.766  40.008   4.138
34737W        W93998   4.881  12.742   2.796
34738W        W93999  41.506   2.967  14.332
34739W        W94000  13.772   5.428  10.004
34740W        W94001  41.426   4.370   1.318
34741W        W94002  21.746   0.353   1.271
34742W        W94003  22.079   0.981  11.484
34743W        W94004  17.764  34.062   0.952
34744W        W94005  15.293  25.051  11.403
34745W        W94006  30.572   2.850  14.932
34746W        W94007  15.655  31.105   1.872
34747W        W94008  28.988  37.937   0.859
34748W        W94009  38.381  20.116   1.393
34749W        W94010   1.921  13.303  14.456
34750W        W94011  39.453  24.036  11.574
34751W        W94012  28.582  28.101   2.187
34752W        W94013  15.758  25.472   2.664
34753W        W94014  42.418  35.587  10.492
34754W        W94015  26.976  10.148   4.675
34755W        W94016  26.006  31.404  12.918
34756W        W94017  28.555  28.982  12.037
34757W        W94018  42.387  32.897  13.327
34758W        W94019  42.308  40.980   4.638
34759W        W94020  35.508  32.395  13.911
34760W        W94021  43.478  12.815   9.956
34761W        W94022  27.044  17.241  11.026
34762W        W94023  36.053  24.671   3.341
34763W        W94024  11.799  29.474   1.914
34764W        W94025  35.533  34.939  12.882
34765W        W94026   3.933  24.000  11.537
34766W        W94027  29.146  24.130   4.285
34767W        W94028  19.113  11.643   2.301
34768W        W94029  31.117  37.379  14.322
34769W        W94030  36.059  11.731   1.745
34770W        W94031  40.319   9.336   0.338
34771W        W94032  12.769  22.094   0.453
34772W        W94033  24.535   2.842   4.820
34773W        W94034  35.570  35.601  13.901
34774W        W94035  12.826   4.441   4.262
34775W        W94036   2.819  25.507  10.911
34776W        W94037   0.962  36.980   2.200
34777W        W94038  15.766  31.525  13.798
34778W        W94039  41.351  23.229   1.789
34779W        W94040  43.798   2.967   2.405
34780W        W94041  16.698  31.943  10.531
34781W        W94042  42.930  26.995   0.371
34782W        W94043  21.539   7.187   3.632
34783W        W94044  17.152  28.958  14.030
34784W        W94045  22.551   1.968   0.276
34785W        W94046  38.480   7.407  10.640
34786W        W94047  31.638  29.616  12.435
34787W        W94048  36.950  42.322   0.848
34788W        W94049  40.935  35.962  13.916
34789W        W94050  31.582  14.334   3.285
34790W        W94051  36.349  27.657   4.835
34791W        W94052  37.491   4.883   2.732
34792W        W94053  22.144  18.621  12.945
34793W        W94054  19.056  22.229   0.334
34794W        W94055   8.736   3.360   1.221
34795W        W94056  36.944  31.953  14.964
34796W        W94057  23.520  36.535   3.639
34797W        W94058  30.020  40.858   4.344
34798W        W94059  38.841  39.002   0.419
34799W        W94060  32.626  21.064  10.434
34800W        W94061  22.535   5.359  13.406
34801W        W94062  36.467  21.163  14.769
34802W        W94063  32.951  12.850   4.225
34803W        W94064  41.482  37.072  14.468
34804W        W94065  17.572   3.263  10.083
34805W        W94066  13.205  15.580   0.943
34806W        W94067  30.493  12.294   2.903
34807W        W94068  10.325   4.701  11.120
34808W        W94069  28.181  25.647  14.922
34809W        W94070  20.238   5.230  12.403
34810W        W94071  20.268  10.649  12.455
34811W        W94072  42.923  30.000   2.401
34812W        W94073  20.727   7.674   5.153
34813W        W94074   1.831  34.453  10.636
34814W        W94075  27.069  44.789  14.437
34815W        W94076  26.989  35.490  14.856
34816W        W94077  20.124   2.818  13.818
34817W        W94078   9.682   5.292   9.621
34818W        W94079  11.836   3.454   4.317
34819W        W94080  41.834   6.269   4.833
34820W        W94081  28.508  16.705  14.777
34821W        W94082   7.730  26.031  12.344
34822W        W94083   6.748  11.812  12.452
34823W        W94084  24.669  16.586  14.359
34824W        W94085  22.716  21.122  12.023
34825W        W94086  20.130  25.657  11.416
34826W        W94087   6.679  37.848  12.093
34827W        W94088   6.868   4.310   0.482
34828W        W94089  28.011  19.081  14.439
34829W        W94090  25.700  39.466  12.031
34830W        W94091  10.217  41.504  11.121
34831W        W94092  26.677  20.670   3.792
34832W        W94093   6.799  41.298  13.885
34833W        W94094  10.732  30.525  12.578
34834W        W94095  22.043  31.120   2.338
34835W        W94096  31.596   4.282   1.906
34836W        W94097  41.334  13.709  12.005
34837W        W94098  11.288  27.678  13.356
34838W        W94099   9.171  25.105   1.771
34839W        W94100  17.759   2.934   3.869
34840W        W94101  25.029   8.749   5.280
34841W        W94102  18.550  12.348   3.364
34842W        W94103  23.083   1.753   3.312
34843W        W94104   0.875  30.594   3.864
34844W        W94105  28.065  15.117   0.460
34845W        W94106  36.986  41.908  13.438
34846W        W94107   2.880  17.173   2.264
34847W        W94108  33.122  32.034   3.680
34848W        W94109  31.470  18.060   3.811
34849W        W94110  23.550  36.935   2.842
34850W        W94111  44.393   3.881   1.283
34851W        W94112  18.556  27.467   1.391
34852W        W94113  16.158  30.116  10.644
34853W        W94114  44.887  44.830  12.834
34854W        W94115   8.363  30.418  12.489
34855W        W94116   6.782  40.309   4.329
34856W        W94117  10.201   6.363  10.996
34857W        W94118  42.370  22.008   2.818
34858W        W94119  35.991  32.601  12.065
34859W        W94120  16.174  24.615  11.430
34860W        W94121  43.293  27.005   4.636
34861W        W94122  23.048  28.943  11.998
34862W        W94123   2.391  20.523   1.299
34863W        W94124  24.102  40.880   0.965
34864W        W94125  14.248   2.399  14.358
34865W        W94126  41.466  36.944  11.895
34866W        W94127  22.644  15.110   2.888
34867W        W94128   9.299   6.848  10.607
34868W        W94129  39.543  18.642   1.872
34869W        W94130   8.728  15.087  12.884
34870W        W94131  29.069   5.787  13.850
34871W        W94132   6.721  23.131  11.986
34872W        W94133  42.450  18.569   2.415
34873W        W94134   8.183   2.412   2.215
34874W        W94135   6.277  34.994  13.802
34875W        W94136  18.253   8.770  12.453
34876W        W94137  42.396  34.447  13.027
34877W        W94138  26.670   6.329  10.895
34878W        W94139  38.023  23.089   2.337
34879W        W94140  35.905  12.738  14.275
34880W        W94141  34.922  27.558   1.309
34881W        W94142  33.023   2.416   2.695
34882W        W94143  29.116  31.453   9.619
34883W        W94144  11.291  43.931  14.972
34884W        W94145  21.551   3.850  11.503
34885W        W94146   6.359  31.571  12.963
34886W        W94147   6.327  44.466  13.881
34887W        W94148  17.071   5.395  13.976
34888W        W94149  20.606  42.400   3.727
34889W        W94150  27.108  26.546   2.304
34890W        W94151  18.118   0.376   0.475
34891W        W94152  33.483   4.387   4.164
34892W        W94153  22.631  22.110   3.351
34893W        W94154  38.485  38.407  12.559
34894W        W94155  25.580  38.397  12.052
34895W        W94156  28.489   8.749  11.461
34896W        W94157  35.956   7.887  11.928
34897W        W94158  24.683  11.676   4.246
34898W        W94159  15.788  19.567  12.411
34899W        W94160   8.238  36.479   4.664
34900W        W94161   2.823   2.360  11.955
34901W        W94162  10.218  24.115  14.995
34902W        W94163  21.719  20.760   3.679
34903W        W94164  26.965  18.053  11.415
34904W        W94165  34.932   4.391   3.185
34905W        W94166  24.006  20.561  12.061
34906W        W94167   1.468   4.800   2.846
34907W        W94168  38.884   3.305   2.410
34908W        W94169   3.450  21.017   0.742
34909W        W94170  23.574  17.121   2.194
34910W        W94171  38.962  22.745   2.814
34911W        W94172  11.364   1.791  13.964
34912W        W94173  32.952  36.435   1.753
34913W        W94174  10.376   7.236  11.975
34914W        W94175  15.162  39.054   3.164
34915W        W94176  26.652  24.604  14.342
34916W        W94177  20.665  37.347   2.301
34917W        W94178  18.591  13.270   3.386
34918W        W94179   9.809  18.135  13.488
34919W        W94180  44.325   7.835  13.418
34920W        W94181  43.379  28.187  10.944
34921W        W94182   6.848  44.001   2.815
34922W        W94183  33.032  15.312   1.755
34923W        W94184  31.572   5.297  14.831
34924W        W94185  32.561  18.091  14.408
34925W        W94186  30.118   8.792  10.578
34926W        W94187  43.467  34.931  13.314
34927W        W94188   2.237  32.920   1.779
34928W        W94189  43.918  21.059  14.917
34929W        W94190  21.740  35.880   2.806
34930W        W94191  17.264  12.772  13.024
34931W        W94192  40.981  43.918  13.499
34932W        W94193  19.761  16.811  11.090
34933W        W94194   9.344   5.887   1.765
34934W        W94195  25.093   8.831   3.636
34935W        W94196  14.201  18.109  10.443
34936W        W94197  32.528  26.976  14.791
34937W        W94198  44.947  37.458  11.879
34938W        W94199  38.473  31.456  10.468
34939W        W94200  20.232  15.311   2.795
34940W        W94201  24.523   2.722  11.555
34941W        W94202  41.299   5.387   4.298
34942W        W94203  11.320   5.301   1.338
34943W        W94204   2.872  39.550  11.037
34944W        W94205  29.070  37.507  14.851
34945W        W94206   0.797  27.132  12.051
34946W        W94207  25.539   8.771  14.788
34947W        W94208   4.894  25.685   4.635
34948W        W94209  34.420  36.939  10.514
34949W        W94210   2.329  14.218  10.459
34950W        W94211  26.690   7.374  13.933
34951W        W94212   3.720  36.368  11.003
34952W        W94213  22.192  36.944   3.199
34953W        W94214  25.643  43.994  11.881
34954W        W94215  24.002  17.781  12.877
34955W        W94216  20.035   1.821  10.526
34956W        W94217   2.434  15.200  11.082
34957W        W94218  28.562   7.205  14.849
34958W        W94219  40.419  25.168  14.986
34959W        W94220  26.457   5.873   2.193
34960W        W94221   4.763  22.592   2.249
34961W        W94222  37.400  10.822   1.796
34962W        W94223  18.632  43.377   1.757
34963W        W94224  13.734  29.644   3.350
34964W        W94225  30.093  11.131  10.941
34965W        W94226  35.546  34.570  10.405
34966W        W94227  32.583  34.445   0.282
34967W        W94228   1.884  32.487  12.003
34968W        W94229  21.610  32.100  10.931
34969W        W94230   2.345  14.640   2.739
34970W        W94231  16.739   9.174  13.027
34971W        W94232  17.145   2.911  12.965
34972W        W94233  40.515  16.603   2.246
34973W        W94234  32.516  12.202   3.869
34974W        W94235   5.393  35.440  11.128
34975W        W94236  30.141  23.999   4.187
34976W        W94237  43.507  16.304  11.027
34977W        W94238   6.231  21.620  11.387
34978W        W94239   3.327  25.070   0.808
34979W        W94240  38.904   5.193  11.934
34980W        W94241  18.654  13.182  14.763
34981W        W94242   6.384  15.608  13.311
34982W        W94243   6.333  16.795   4.322
34983W        W94244  12.242  38.497   2.367
34984W        W94245  17.283  22.168  13.961
34985W        W94246  13.842  36.847   2.395
34986W        W94247  15.616  20.679  14.022
34987W        W94248  31.033  29.654   2.325
34988W        W94249  44.766  21.542   3.661
34989W        W94250  30.613  44.363  11.604
34990W        W94251  28.064  36.547   2.246
34991W        W94252  13.726   2.228   0.900
34992W        W94253  14.213  42.324  14.505
34993W        W94254  23.526  17.100   3.809
34994W        W94255  14.746  43.867  13.531
34995W        W94256  11.732  14.325   5.316
34996W        W94257  28.988   4.873   1.321
34997W        W94258   6.296  30.629   0.335
34998W        W94259  37.483  13.656   0.420
34999W        W94260  33.966  18.081  10.540
35000W        W94261  11.817  41.847   3.799
35001W        W94262   6.733   2.470  14.880
35002W        W94263  29.974  31.645   5.797
35003W        W94264  23.507  16.308  12.926
35004W        W94265  15.271  27.175  14.815
35005W        W94266  18.665   1.286  14.830
35006W        W94267  43.409  37.531  13.836
35007W        W94268  15.176  43.425   1.356
35008W        W94269  41.360  18.251   1.755
35009W        W94270  21.226  14.802  12.021
35010W        W94271  39.465  41.926  11.023
35011W        W94272  35.913  33.057   1.444
35012W        W94273  15.728  41.296  13.389
35013W        W94274  23.735  12.359  12.449
35014W        W94275  15.183  38.950   2.850
35015W        W94276   4.785  30.514   0.326
35016W        W94277   3.819  25.994  11.969
35017W        W94278  23.154  27.958   1.401
35018W        W94279  20.692  27.654  11.943
35019W        W94280   4.367   0.274   2.842
35020W        W94281   1.477  34.904  13.994
35021W        W94282  36.904  17.642   4.820
35022W        W94283  38.325  32.521  13.987
35023W        W94284  18.106  17.640  14.919
35024W        W94285  30.463  29.505  11.487
35025W        W94286   8.231  18.108   4.341
35026W        W94287  20.677  40.536   0.851
35027W        W94288  36.027   6.698   0.435
35028W        W94289  22.018   8.874   4.208
35029W        W94290  29.557  34.487   3.639
35030W        W94291  36.904   8.304  13.983
35031W        W94292  43.443  30.915   3.671
35032W        W94293  31.466  32.971   1.419
35033W        W94294  44.930   6.688   2.385
35034W        W94295  12.151  39.944  10.619
35035W        W94296  15.679  34.107  11.886
35036W        W94297  35.950   8.189   0.824
35037W        W94298  18.575   7.799   2.208
35038W        W94299  11.370  38.023  14.804
35039W        W94300   4.852  40.816  13.997
35040W        W94301  33.468  25.575  13.018
35041W        W94302  11.148  36.482   2.711
35042W        W94303  33.000  18.582   2.712
35043W        W94304   3.731  35.479   1.914
35044W        W94305  37.899  19.628  14.815
35045W        W94306  28.946   5.749   2.789
35046W        W94307  10.868  19.540  11.913
35047W        W94308  26.507   8.689   3.213
35048W        W94309  18.637   3.711   4.791
35049W        W94310  14.736  14.258  14.876
35050W        W94311  11.811  30.557  11.954
35051W        W94312  28.467   5.372  12.427
35052W        W94313   2.430  35.501  13.969
35053W        W94314  30.551   7.679  14.763
35054W        W94315  19.628   0.397  11.584
35055W        W94316  34.940  35.418   4.610
35056W        W94317   6.299   9.864  13.339
35057W        W94318   0.472  42.983   0.891
35058W        W94319  43.339  13.837  11.105
35059W        W94320  14.777  22.236   0.807
35060W        W94321  20.165  13.228  13.955
35061W        W94322  12.217  41.879   4.762
35062W        W94323  40.484  32.525   2.296
35063W        W94324  27.620  10.168   0.938
35064W        W94325   4.250  26.127   3.187
35065W        W94326  21.600  40.962  14.280
35066W        W94327  33.971  16.792   1.442
35067W        W94328  10.683   7.793   9.961
35068W        W94329  12.839   2.887  11.579
35069W        W94330  39.395  33.105   1.369
35070W        W94331   7.348  42.451  13.440
35071W        W94332   6.393  26.134   1.817
35072W        W94333  26.583   0.979  10.924
35073W        W94334  10.359  36.927  12.433
35074W        W94335  39.002  35.076   3.643
35075W        W94336   3.871   8.334   3.669
35076W        W94337  20.046  28.613   3.823
35077W        W94338  36.931   3.404   1.265
35078W        W94339  33.913  42.285   2.681
35079W        W94340  14.654  41.431   4.150
35080W        W94341  41.022  44.964  14.366
35081W        W94342  16.309   4.355  13.989
35082W        W94343  22.187  22.718   4.147
35083W        W94344   7.887  14.226  13.943
35084W        W94345  34.020  33.977  10.921
35085W        W94346  14.716  20.265  12.546
35086W        W94347  42.467  42.290   0.265
35087W        W94348  32.949  41.808  13.985
35088W        W94349   3.247  22.710   2.826
35089W        W94350  14.715  21.582  14.030
35090W        W94351  40.423  16.611   2.710
35091W        W94352  28.606   2.848  13.953
35092W        W94353  44.965   8.846   3.201
35093W        W94354  24.527   6.707  12.035
35094W        W94355   3.270  15.221  14.309
35095W        W94356  33.107   0.911   4.165
35096W        W94357  31.564  15.214   1.890
35097W        W94358  16.145  29.122  12.537
35098W        W94359  36.477  20.569  11.607
35099W        W94360  37.497  29.998  10.997
35100W        W94361  34.987  40.951  10.930
35101W        W94362  42.409  33.380   2.884
35102W        W94363   9.268  44.323  13.513
35103W        W94364  32.501  36.417   1.391
35104W        W94365  10.662   4.349   1.753
35105W        W94366  37.422   5.910   0.915
35106W        W94367  12.155   3.388   1.786
35107W        W94368  41.321  12.823  11.965
35108W        W94369  22.578   5.198   0.891
35109W        W94370  11.675  29.996  10.640
35110W        W94371  36.841   1.934   0.863
35111W        W94372  24.029  38.416   1.225
35112W        W94373  34.587  15.316   1.746
35113W        W94374  13.767  10.267   0.931
35114W        W94375  10.848  16.608   0.434
35115W        W94376  32.597  15.635   0.731
35116W        W94377  21.618  27.523   4.152
35117W        W94378  40.815  18.098  14.954
35118W        W94379  39.971  37.039   1.332
35119W        W94380  25.137  28.084   0.482
35120W        W94381  24.097  14.783   1.390
35121W        W94382  41.350  41.334  13.480
35122W        W94383  17.213  40.055  10.514
35123W        W94384  18.631  29.642   2.842
35124W        W94385  40.539  15.621   0.868
35125W        W94386  13.324  16.182   4.129
35126W        W94387  36.481  11.661   1.327
35127W        W94388   1.460  17.637  10.585
35128W        W94389   3.945  28.983  11.977
35129W        W94390  32.529  21.657   4.697
35130W        W94391  39.919   4.264   0.245
35131W        W94392  39.961  41.332  10.482
35132W        W94393  41.847  30.651  11.098
35133W        W94394   7.242  23.000   0.780
35134W        W94395  27.526  18.238  11.887
35135W        W94396  20.653  22.727  12.535
35136W        W94397  22.194   2.941  14.427
35137W        W94398  25.585  26.601   1.266
35138W        W94399   4.263   7.364  14.764
35139W        W94400   3.314  14.830   0.885
35140W        W94401  41.298  35.891   2.812
35141W        W94402  20.675   2.848   1.261
35142W        W94403  10.372  44.794   3.147
35143W        W94404  28.444  10.762  14.792
35144W        W94405  14.237  30.496  12.897
35145W        W94406  19.070   5.889  14.433
35146W        W94407   2.941  33.961  13.047
35147W        W94408  14.227   2.722   4.615
35148W        W94409   0.966   5.320   0.357
35149W        W94410  25.497  33.564  13.013
35150W        W94411   6.368  26.126  13.011
35151W        W94412  16.749   0.745  12.876
35152W        W94413  29.514  23.102  12.455
35153W        W94414  38.825   0.437  10.134
35154W        W94415   5.928  25.652   3.631
35155W        W94416  12.348  10.237   1.788
35156W        W94417   3.436  36.563  11.073
35157W        W94418  26.090  10.262  14.428
35158W        W94419   3.321  34.461  12.945
35159W        W94420  37.893  25.607  11.932
35160W        W94421  12.202  10.676   2.788
35161W        W94422   3.276  29.918  14.921
35162W        W94423  41.999  20.729   1.300
35163W        W94424  40.935  18.784  14.445
35164W        W94425  31.036  34.931  10.970
35165W        W94426  22.058  17.735  14.456
35166W        W94427  35.063  14.185   1.228
35167W        W94428  34.541  34.432   1.266
35168W        W94429   4.341  16.235  11.930
35169W        W94430   9.236  44.920   0.866
35170W        W94431  30.519  22.222  14.840
35171W        W94432  30.985   0.742   2.318
35172W        W94433  10.816  37.402  12.885
35173W        W94434  26.003  28.009  11.942
35174W        W94435  33.064   5.275  14.783
35175W        W94436  17.571  25.639  11.985
35176W        W94437   3.273  11.769   3.239
35177W        W94438   1.831  18.099   2.367
35178W        W94439   5.753  21.592  12.535
35179W        W94440   1.735  14.131  12.935
35180W        W94441  21.087  41.903   1.824
35181W        W94442  32.097  14.798   1.393
35182W        W94443  40.414  27.099   3.658
35183W        W94444  38.954  26.680  13.478
35184W        W94445  39.371  28.983   0.731
35185W        W94446   6.682  36.966   0.386
35186W        W94447  34.423  34.557  14.506
35187W        W94448  24.200  36.916   2.878
35188W        W94449   1.790  15.156   0.834
35189W        W94450   0.385  44.758   3.658
35190W        W94451  41.792   4.846   2.327
35191W        W94452  10.634  10.328  13.380
35192W        W94453  28.008  12.217   4.689
35193W        W94454  30.125  44.380   2.238
35194W        W94455   6.393  32.026  12.091
35195W        W94456  26.970  32.476  13.938
35196W        W94457  35.017  26.487  12.847
35197W        W94458  39.345  33.602   2.774
35198W        W94459  35.951  26.510  10.526
35199W        W94460  13.247  16.711  13.999
35200W        W94461  23.206  31.614   4.292
35201W        W94462  31.623  29.654  11.924
35202W        W94463   2.851  44.437   4.665
35203W        W94464   5.864  16.747   3.355
35204W        W94465   0.463  19.246   0.304
35205W        W94466  29.945  20.663  13.361
35206W        W94467  24.506  27.613  14.828
35207W        W94468  37.851  13.789  12.862
35208W        W94469  41.959  26.489   9.960
35209W        W94470  24.675  21.253   0.436
35210W        W94471  37.907  25.963   0.883
35211W        W94472  31.483  38.821   4.304
35212W        W94473  39.363  32.121  14.435
35213W        W94474  25.998  31.402  11.607
35214W        W94475  17.203   7.279   5.574
35215W        W94476   3.235   0.437   3.808
35216W        W94477  37.830   1.898   5.255
35217W        W94478  33.468   4.215  14.411
35218W        W94479  31.027  25.025  10.543
35219W        W94480  42.784   9.726   9.941
35220W        W94481  18.601  32.057  13.807
35221W        W94482  28.029  30.614   1.375
35222W        W94483  19.596   5.353  14.455
35223W        W94484  21.609  12.267  10.561
35224W        W94485   7.235  44.847  12.362
35225W        W94486  34.602   9.651   2.882
35226W        W94487  35.001  25.149  11.509
35227W        W94488  15.158   1.290  11.465
35228W        W94489  10.829  26.104  10.589
35229W        W94490   6.333  32.900   4.277
35230W        W94491  28.588   6.923   1.842
35231W        W94492  20.178  38.912   0.301
35232W        W94493   4.209  16.794  10.929
35233W        W94494  36.913  12.657  10.462
35234W        W94495   6.420  26.209  12.509
35235W        W94496   1.893  14.640   0.881
35236W        W94497  29.101  31.557  14.392
35237W        W94498   2.914  34.068  13.403
35238W        W94499  21.259  11.654   5.311
35239W        W94500   2.471   4.313  14.869
35240W        W94501  32.107  25.477  14.895
35241W        W94502  30.131  33.608  10.138
35242W        W94503  10.295   1.821   2.738
35243W        W94504  30.970  40.925   3.357
35244W        W94505  34.611  24.703   2.889
35245W        W94506  39.989   4.835  13.006
35246W        W94507  10.648  37.368   0.962
35247W        W94508   1.318  33.896   2.675
35248W        W94509  13.622  43.766   0.759
35249W        W94510  12.832  27.533   3.754
35250W        W94511  10.857   7.216  14.509
35251W        W94512  12.332  33.581  12.940
35252W        W94513  23.569  25.554   0.387
35253W        W94514  29.947  20.061   2.826
35254W        W94515   6.700   4.434   0.875
35255W        W94516  43.462  31.504   4.169
35256W        W94517  34.879   9.650   0.845
35257W        W94518  29.033   0.249   4.228
35258W        W94519  27.466  24.114  11.936
35259W        W94520   9.272  25.565   3.831
35260W        W94521  16.753  35.956  13.535
35261W        W94522   1.947  13.107  10.550
35262W        W94523  29.542  37.979   2.838
35263W        W94524  36.378  19.641  12.095
35264W        W94525   5.736  38.391   4.133
35265W        W94526  42.971  27.084   1.357
35266W        W94527  16.244  23.585  10.975
35267W        W94528  30.159  43.368   3.253
35268W        W94529  31.910   3.839   1.343
35269W        W94530   6.680   8.365   0.432
35270W        W94531  41.982  36.526  12.079
35271W        W94532   7.194   4.350   1.817
35272W        W94533  32.462  26.088   4.227
35273W        W94534  10.680   6.782  12.830
35274W        W94535  21.562  34.988   1.881
35275W        W94536   8.734  44.773   4.664
35276W        W94537  42.806  25.972   3.299
35277W        W94538  24.098   2.332  10.437
35278W        W94539  39.936  34.107  14.413
35279W        W94540   5.334  24.134   2.827
35280W        W94541  28.063  44.875  13.982
35281W        W94542  27.488  27.498   3.702
35282W        W94543  17.229  19.765  13.790
35283W        W94544   8.337   2.736  11.400
35284W        W94545  36.447   5.849   0.471
35285W        W94546  39.492  34.970  13.902
35286W        W94547  30.487   6.380   2.783
35287W        W94548  35.039  17.298  11.584
35288W        W94549  27.486  42.301  10.498
35289W        W94550   6.292   0.867  12.360
35290W        W94551   4.777  41.412  13.874
35291W        W94552  21.567  11.779   0.911
35292W        W94553  22.686  24.703   3.784
35293W        W94554  25.670   8.235  13.359
35294W        W94555  33.555   0.484  13.372
35295W        W94556   9.848  17.598  10.593
35296W        W94557  41.429  42.875  12.401
35297W        W94558  30.141  44.921   4.648
35298W        W94559  26.202  34.118  11.036
35299W        W94560  24.137   6.726   2.273
35300W        W94561  21.140  27.167  12.894
35301W        W94562  25.154  20.622   3.176
35302W        W94563  34.529  27.472  13.470
35303W        W94564  13.317  34.056  10.519
35304W        W94565  22.137  15.781   2.732
35305W        W94566   3.367  31.607   1.909
35306W        W94567  10.279   2.281  14.851
35307W        W94568  18.193  32.455  10.943
35308W        W94569   0.751  36.903   1.307
35309W        W94570   3.445   6.233   3.862
35310W        W94571   2.326   1.402   1.378
35311W        W94572  27.134   9.888   1.294
35312W        W94573   9.695  36.435   2.714
35313W        W94574  24.001  16.140   0.396
35314W        W94575  29.559  31.621  13.901
35315W        W94576  14.247  30.617   1.930
35316W        W94577   0.461  16.119   2.189
35317W        W94578  37.367  29.611  13.505
35318W        W94579  29.069   6.847  10.952
35319W        W94580  31.089   3.348  14.471
35320W        W94581  32.423   4.352  12.554
35321W        W94582  21.525  32.584  12.040
35322W        W94583  41.409  10.338   3.352
35323W        W94584  44.373  10.710  12.910
35324W        W94585  23.650  30.063   3.762
35325W        W94586  24.056  32.473  14.796
35326W        W94587  31.057  29.972   2.705
35327W        W94588  39.859   2.965   0.315
35328W        W94589  39.409  21.643   2.725
35329W        W94590  14.183  37.081   3.747
35330W        W94591   8.878  24.998   4.602
35331W        W94592  11.652   0.750  11.098
35332W        W94593  39.531  33.880   3.733
35333W        W94594  31.940   0.302   2.892
35334W        W94595  31.449  23.595   0.392
35335W        W94596  26.478   1.968  13.544
35336W        W94597   7.724  39.536   3.687
35337W        W94598   1.388  14.246   4.313
35338W        W94599   8.184  32.042   1.863
35339W        W94600   2.390  31.432   3.781
35340W        W94601  16.125  26.150  12.965
35341W        W94602  32.421  44.929  12.831
35342W        W94603  24.480   4.704   3.240
35343W        W94604  22.095  14.174   3.841
35344W        W94605  31.468  44.780  13.380
35345W        W94606  23.613  17.599   1.292
35346W        W94607  30.045  28.159   4.287
35347W        W94608  12.617   8.230  13.335
35348W        W94609  20.655  22.551   3.248
35349W        W94610  27.176   6.706  11.429
35350W        W94611   7.372  12.736   4.138
35351W        W94612   4.275   1.338   4.320
35352W        W94613  17.084   6.309  12.473
35353W        W94614  40.505  41.469  11.868
35354W        W94615   9.797   2.294   0.921
35355W        W94616  21.606   2.908   1.448
35356W        W94617  35.585  34.477   1.434
35357W        W94618  25.071  23.001  11.932
35358W        W94619  23.728  26.653   4.690
35359W        W94620  27.492  19.708   1.402
35360W        W94621  13.248  15.810   1.388
35361W        W94622   9.315   4.431  14.993
35362W        W94623  39.952   8.312  14.991
35363W        W94624   4.725  24.599   5.219
35364W        W94625  16.623  33.923  12.354
35365W        W94626  12.339  18.209  13.444
35366W        W94627  29.648  20.660  12.433
35367W        W94628  35.531  43.897  10.954
35368W        W94629   2.244  26.649   0.844
35369W        W94630  38.072   8.837  11.087
35370W        W94631  41.831  43.296   3.870
35371W        W94632  24.679  22.041  13.456
35372W        W94633   9.256  15.661   1.867
35373W        W94634  18.260   7.832  11.934
35374W        W94635   2.451  41.503   5.206
35375W        W94636   6.756  11.646  12.980
35376W        W94637  18.263  27.526   1.437
35377W        W94638  24.489  14.302   2.264
35378W        W94639  13.256   2.816   1.745
35379W        W94640  22.601   7.808  13.452
35380W        W94641  12.272  39.363  11.447
35381W        W94642  12.776  35.056   4.757
35382W        W94643  18.204  12.119   0.414
35383W        W94644  20.168  14.215  14.322
35384W        W94645   8.221   6.815   0.820
35385W        W94646  34.591   1.259  13.047
35386W        W94647   4.886  36.056  13.995
35387W        W94648  15.649  40.974   3.262
35388W        W94649   0.769   8.172   4.276
35389W        W94650  34.582  15.590  10.428
35390W        W94651   1.750  32.410   1.345
35391W        W94652  19.095   1.806   2.860
35392W        W94653  44.940  35.977   2.721
35393W        W94654  13.786   8.736  12.898
35394W        W94655  34.444  42.288  11.065
35395W        W94656  15.686  10.707  13.830
35396W        W94657  18.565  25.111   0.896
35397W        W94658  10.347   5.751   4.255
35398W        W94659  20.200   6.849   5.266
35399W        W94660  38.550  31.434  14.851
35400W        W94661  14.157  28.492   2.313
35401W        W94662  36.057   7.774  12.858
35402W        W94663  15.210  40.799   2.401
35403W        W94664  22.188  19.760   5.124
35404W        W94665  39.476  23.663   3.207
35405W        W94666   7.769  39.847   2.418
35406W        W94667  27.490  22.712   3.266
35407W        W94668  10.831   8.733  12.421
35408W        W94669  28.929  40.390   4.806
35409W        W94670  21.626  10.691   2.899
35410W        W94671  16.128  32.610   0.315
35411W        W94672  28.125   8.313  11.126
35412W        W94673  40.336  41.423   0.479
35413W        W94674  40.898   7.360  12.038
35414W        W94675   8.306   1.920  13.523
35415W        W94676  43.783  21.184   3.236
35416W        W94677  44.849  24.086  11.608
35417W        W94678   4.381  28.971   1.313
35418W        W94679  34.454  41.860   2.793
35419W        W94680  13.282  42.398   2.800
35420W        W94681  42.469  16.298   4.152
35421W        W94682  29.957  35.604  13.943
35422W        W94683   4.856  34.589  13.806
35423W        W94684   7.199  24.141  12.461
35424W        W94685  23.021  17.719  14.910
35425W        W94686   3.274  41.828   1.852
35426W        W94687  39.396  36.956  11.907
35427W        W94688  27.010  37.054  11.469
35428W        W94689   8.201   9.209   2.221
35429W        W94690  38.945  25.618   0.945
35430W        W94691  14.339  40.365   4.157
35431W        W94692   2.905  23.038   0.899
35432W        W94693  44.371  18.141   0.894
35433W        W94694  21.090  12.779   4.155
35434W        W94695  10.747   4.262   4.670
35435W        W94696  39.397   3.887  11.494
35436W        W94697  31.044   3.394   0.242
35437W        W94698  15.123  37.884   0.303
35438W        W94699  37.997  21.103  12.992
35439W        W94700   2.364  13.810   2.794
35440W        W94701  10.763  28.472   2.882
35441W        W94702  40.320  24.995   0.273
35442W        W94703  30.993  19.100  14.771
35443W        W94704  11.127   2.867   4.782
35444W        W94705  43.948  19.557  13.866
35445W        W94706  23.609  42.471  10.514
35446W        W94707  16.160  43.330  14.341
35447W        W94708  36.868  13.215   4.289
35448W        W94709   5.777  21.169  10.414
35449W        W94710  42.901  28.934   0.351
35450W        W94711   6.357   5.778   0.799
35451W        W94712   2.306  32.129   2.894
35452W        W94713  16.706  16.751   2.798
35453W        W94714  41.989  30.444  14.923
35454W        W94715  43.374   8.870  13.825
35455W        W94716  20.219  39.886  11.978
35456W        W94717  14.102  33.109  14.406
35457W        W94718  10.673   0.857   4.342
35458W        W94719  41.486   9.175   3.816
35459W        W94720  29.491   1.321  13.460
35460W        W94721  23.696  13.776  14.276
35461W        W94722  20.074  36.075   0.780
35462W        W94723  12.693   5.849   1.433
35463W        W94724   6.361   2.836  13.852
35464W        W94725  16.086  14.829  13.031
35465W        W94726  39.372  13.731  12.948
35466W        W94727   0.936  17.227   5.207
35467W        W94728  22.084  20.236  11.409
35468W        W94729  12.816   1.424   1.806
35469W        W94730  12.155   5.364  13.790
35470W        W94731   8.788  43.830  13.442
35471W        W94732  11.808  12.718  10.609
35472W        W94733  29.620  25.029  12.983
35473W        W94734  23.021  26.698   2.673
35474W        W94735  44.863   8.893   3.828
35475W        W94736  42.857   3.275  12.363
35476W        W94737  22.174  34.988   2.196
35477W        W94738   8.264  19.567  12.920
35478W        W94739   5.823  30.132  13.942
35479W        W94740  24.212  31.100   0.248
35480W        W94741  21.046  30.424  13.527
35481W        W94742  11.655   9.162   0.395
35482W        W94743  11.623   4.443  10.631
35483W        W94744  20.049  21.712   3.173
35484W        W94745   5.765  29.670   4.790
35485W        W94746  34.041   3.387   1.840
35486W        W94747  11.849  17.112  10.630
35487W        W94748  12.637  22.129   2.202
35488W        W94749  24.118  19.585   2.752
35489W        W94750   7.775  41.460  12.407
35490W        W94751  37.539  37.849   1.932
35491W        W94752  41.837  31.944   2.663
35492W        W94753   6.828  19.079  11.542
35493W        W94754  21.548  41.826  10.554
35494W        W94755  11.664  36.032  12.905
35495W        W94756  40.320  14.785  14.899
35496W        W94757  30.591  39.818  14.764
35497W        W94758  10.844  21.685  14.997
35498W        W94759  23.129  33.989  11.431
35499W        W94760  15.778   0.433  14.009
35500W        W94761  39.941   6.299  13.874
35501W        W94762  15.258   7.271  12.437
35502W        W94763  43.425  38.929  12.571
35503W        W94764  17.133   3.798  11.116
35504W        W94765  25.968   6.723  12.035
35505W        W94766  42.481  13.699   5.712
35506W        W94767   7.216  23.535   4.255
35507W        W94768  19.569   2.414  12.911
35508W        W94769  24.663  16.193  14.322
35509W        W94770  17.801  40.428  13.817
35510W        W94771  18.129  30.949  13.918
35511W        W94772  26.597  44.762   0.323
35512W        W94773  26.595  41.971   0.805
35513W        W94774   7.897   2.271  11.464
35514W        W94775  37.026   2.297   3.756
35515W        W94776  14.223  11.169   4.304
35516W        W94777  35.486  22.241  12.977
35517W        W94778   0.793  29.980  12.903
35518W        W94779   8.768  24.998   0.288
35519W        W94780  23.640  37.395  12.868
35520W        W94781  41.984  38.043  14.823
35521W        W94782  12.218   1.298   1.218
35522W        W94783  23.140  26.483  11.600
35523W        W94784  40.997  21.254   0.912
35524W        W94785  21.515  38.478   0.331
35525W        W94786  16.154  29.507   3.749
35526W        W94787  23.129  35.513   2.901
35527W        W94788  37.579   3.753  13.835
35528W        W94789  31.953  23.133   0.962
35529W        W94790   3.322  31.608   2.863
35530W        W94791  38.901   5.846  11.075
35531W        W94792  34.576  19.240  10.927
35532W        W94793  23.688   9.204   3.365
35533W        W94794  43.918  24.168  13.510
35534W        W94795   9.383  22.696  10.443
35535W        W94796  35.877  40.901  12.487
35536W        W94797  40.889  41.855  13.961
35537W        W94798  30.658  10.363  14.512
35538W        W94799  19.722  31.558   0.951
35539W        W94800   7.414  19.154   2.212
35540W        W94801  10.307  10.685   4.809
35541W        W94802  14.271  20.078   5.133
35542W        W94803  19.623   2.226   3.833
35543W        W94804  36.904  39.441  12.957
35544W        W94805  28.183  34.444  13.022
35545W        W94806  33.421  43.882  14.358
35546W        W94807  36.513  15.650  10.943
35547W        W94808  42.495  19.716  13.480
35548W        W94809  23.538  17.282   2.849
35549W        W94810  34.085  40.991  13.856
35550W        W94811  41.017  11.286  11.067
35551W        W94812   8.207  11.235  10.889
35552W        W94813  37.847  39.560   2.395
35553W        W94814  37.076   6.228  12.945
35554W        W94815  23.163  10.208  11.911
35555W        W94816  13.334  16.142  10.550
35556W        W94817   1.347  28.092  11.519
35557W        W94818   2.749  28.055  13.910
35558W        W94819  17.784  31.445   0.824
35559W        W94820  34.435  31.986  11.899
35560W        W94821  17.703   3.270   1.398
35561W        W94822   8.322  38.882  13.402
35562W        W94823  42.521   1.301  14.420
35563W        W94824  42.482  40.523  12.390
35564W        W94825   4.321  20.695   3.798
35565W        W94826   3.913  30.005  10.540
35566W        W94827   2.897   2.395  11.049
35567W        W94828  10.782   3.829  14.800
35568W        W94829  36.524  41.526  14.510
35569W        W94830  16.223  44.875  11.901
35570W        W94831   1.966  18.681   4.654
35571W        W94832  42.483  43.879  14.820
35572W        W94833   6.277   3.337   1.745
35573W        W94834  43.946   6.256   1.311
35574W        W94835  36.870   8.385   2.316
35575W        W94836  20.072  14.137  10.534
35576W        W94837  10.724   8.184   1.332
35577W        W94838   5.887  21.708  14.365
35578W        W94839  14.131  23.040  14.276
35579W        W94840  11.194  23.510  14.473
35580W        W94841  41.316  32.521  12.955
35581W        W94842  37.896  15.226  12.910
35582W        W94843  17.146  32.941  14.508
35583W        W94844  22.158  25.640   0.465
35584W        W94845  13.228   5.793   1.281
35585W        W94846   7.833   6.724   4.680
35586W        W94847  19.075  31.924  10.973
35587W        W94848  16.694  41.840  12.397
35588W        W94849  12.619   6.376  12.402
35589W        W94850   2.858  29.950  12.881
35590W        W94851  31.096  37.030  11.098
35591W        W94852  42.779  42.395  14.438
35592W        W94853  39.881  18.160   3.261
35593W        W94854  12.227   4.749  12.867
35594W        W94855  29.658  17.704  12.467
35595W        W94856   0.931  14.188   0.312
35596W        W94857  27.049  38.835  14.450
35597W        W94858  35.546  32.441  10.902
35598W        W94859  14.653  14.734   1.740
35599W        W94860   6.195  16.706   0.835
35600W        W94861   8.835  40.444   0.956
35601W        W94862  33.475   3.900  11.438
35602W        W94863   7.692  44.838  14.337
35603W        W94864  23.196   4.881   0.843
35604W        W94865   8.765   4.793  12.885
35605W        W94866  29.591   2.840   3.836
35606W        W94867  14.663  28.097   2.739
35607W        W94868  24.531  30.537  13.537
35608W        W94869   2.841  22.567  13.351
35609W        W94870  32.550   2.305   3.151
35610W        W94871  35.483  29.995   1.344
35611W        W94872  23.012   4.325   0.394
35612W        W94873  22.172  23.634  12.546
35613W        W94874  24.185   2.804  13.435
35614W        W94875  23.204  36.885   4.795
35615W        W94876  23.172   6.814   4.768
35616W        W94877   1.969  19.274  10.527
35617W        W94878  12.832   5.436  10.009
35618W        W94879  12.673  41.869   2.190
35619W        W94880  36.440  11.697   3.850
35620W        W94881  29.123  33.091   0.356
35621W        W94882  24.702   2.859  12.871
35622W        W94883  29.599  20.769  13.975
35623W        W94884  36.546  18.102  11.030
35624W        W94885  14.634   5.313  10.933
35625W        W94886  43.865  20.698   4.678
35626W        W94887  18.228  32.002  14.031
35627W        W94888  23.519  18.219  13.898
35628W        W94889  22.676  25.050   4.608
35629W        W94890  18.729  29.567  14.796
35630W        W94891  28.581  43.777   1.780
35631W        W94892  44.003  31.150   2.224
35632W        W94893  10.671   0.404   3.358
35633W        W94894   3.872  42.288  12.411
35634W        W94895  12.143   0.429   1.264
35635W        W94896  43.790  34.405  10.418
35636W        W94897  36.507  29.427   0.756
35637W        W94898  24.612  21.598   0.880
35638W        W94899  24.227  36.445   4.122
35639W        W94900  44.336   2.403  12.842
35640W        W94901  17.585   8.188   4.170
35641W        W94902  44.499  11.275  11.861
35642W        W94903  32.000  14.297  12.956
35643W        W94904  14.147   2.965   2.412
35644W        W94905  29.043  40.542  12.519
35645W        W94906  23.590  23.583   1.767
35646W        W94907   2.858  22.514  13.830
35647W        W94908  15.187  16.705   1.374
35648W        W94909  34.382   9.860   0.292
35649W        W94910  26.180  18.698  12.847
35650W        W94911  21.031  37.984   0.926
35651W        W94912  15.304  43.840  11.129
35652W        W94913  20.145  43.847  10.978
35653W        W94914  12.236  44.434  13.822
35654W        W94915  35.529  13.250   2.336
35655W        W94916  31.588  30.557  14.838
35656W        W94917  30.066  43.408   3.770
35657W        W94918  20.150  15.146   4.668
35658W        W94919  32.433  26.037  12.900
35659W        W94920   7.869  32.096  14.976
35660W        W94921   1.333   2.842  13.414
35661W        W94922  23.058  25.209   3.639
35662W        W94923   9.662  26.524   1.732
35663W        W94924  36.452  41.456  10.045
35664W        W94925  23.693  26.495  10.086
35665W        W94926  41.538  15.253   0.340
35666W        W94927  31.952   6.716   2.899
35667W        W94928   8.722  40.803  11.591
35668W        W94929  27.561  12.650  14.422
35669W        W94930  40.968  15.693   4.599
35670W        W94931   4.723  43.481   2.844
35671W        W94932   6.385  12.116  10.492
35672W        W94933  15.802  19.546   0.284
35673W        W94934  14.774  35.957   1.935
35674W        W94935   4.383   7.827  14.854
35675W        W94936  40.860  11.703  11.865
35676W        W94937   6.776  30.158  10.903
35677W        W94938  36.858  33.932   4.774
35678W        W94939  11.630  22.197  13.060
35679W        W94940  16.260  20.703  12.429
35680W        W94941   2.755  35.058  11.120
35681W        W94942  43.805   9.330   3.657
35682W        W94943  10.864  13.191   0.404
35683W        W94944  18.699  33.532  12.963
35684W        W94945   4.893  38.446   4.176
35685W        W94946  31.897   3.916   1.704
35686W        W94947  43.467  23.986  14.295
35687W        W94948  17.614  35.438   2.749
35688W        W94949  10.172  37.450   1.403
35689W        W94950  39.940   3.412  11.396
35690W        W94951  25.146  10.233   0.746
35691W        W94952  37.903  34.556   4.246
35692W        W94953  40.367  23.113   3.180
35693W        W94954   5.909  29.644   1.721
35694W        W94955   5.383  16.566  13.896
35695W        W94956  24.699  12.120  13.875
35696W        W94957  27.500  31.621   0.875
35697W        W94958  42.399  26.088   1.292
35698W        W94959  32.541  38.983  12.997
35699W        W94960  11.799  24.115  10.490
35700W        W94961   0.914  40.833   2.350
35701W        W94962  41.031   0.300  11.607
35702W        W94963   3.406  25.026  14.026
35703W        W94964  35.470  25.645  13.505
35704W        W94965  15.143  17.079  12.021
35705W        W94966   9.318   7.407  11.996
35706W        W94967  20.177  11.308   1.905
35707W        W94968  23.606   5.763  12.055
35708W        W94969  38.354  19.063   2.388
35709W        W94970  23.198  33.537  13.008
35710W        W94971   1.256  37.877   0.890
35711W        W94972   3.806  30.536   2.716
35712W        W94973  38.497  42.966  12.367
35713W        W94974  35.525  23.017   1.862
35714W        W94975  29.157   7.832  12.575
35715W        W94976  22.208  42.285  11.990
35716W        W94977  18.292  38.044  12.011
35717W        W94978  41.433  36.513  11.397
35718W        W94979  37.519   6.734  10.506
35719W        W94980  23.492  38.054   0.444
35720W        W94981  39.889   0.271  12.530
35721W        W94982  16.799  12.172  12.576
35722W        W94983  41.367  15.257   3.860
35723W        W94984  25.644  31.644   2.370
35724W        W94985  28.171  18.652  13.355
35725W        W94986  23.091  12.293   3.168
35726W        W94987  28.620  41.979   3.192
35727W        W94988  11.349  44.475  13.037
35728W        W94989  21.670  34.524   2.321
35729W        W94990  11.709  15.305   1.835
35730W        W94991   1.760  37.425   3.273
35731W        W94992  39.393  22.743  14.375
35732W        W94993  22.624  24.975  13.957
35733W        W94994   6.825  15.681  11.066
35734W        W94995  26.524   4.801  14.760
35735W        W94996  35.929  33.410  10.447
35736W        W94997   9.834  25.056  11.481
35737W        W94998  37.022  31.520  11.606
35738W        W94999   0.387   1.903  14.959
35739W        W95000  22.609  40.977   4.839
35740W        W95001  35.031  25.662   0.336
35741W        W95002  11.169  38.015   0.313
35742W        W95003  18.570  41.294   1.427
35743W        W95004  42.494  11.154  13.798
35744W        W95005  13.313  32.574   0.741
35745W        W95006  20.147  43.343  13.417
35746W        W95007  43.787  30.928  13.042
35747W        W95008  44.974  40.986  14.979
35748W        W95009  14.722  27.543   3.229
35749W        W95010  19.691  19.723  14.875
35750W        W95011  10.301  15.670   1.220
35751W        W95012  23.690  14.254   0.302
35752W        W95013  26.697  27.071   5.300
35753W        W95014  20.677  17.607  14.793
35754W        W95015  44.499  27.061  14.375
35755W        W95016  12.251  18.077   4.745
35756W        W95017  43.793  23.145   3.817
35757W        W95018  36.964   0.783   0.871
35758W        W95019   5.345  34.488   4.314
35759W        W95020  32.489   0.807  14.889
35760W        W95021  24.570   8.782   4.598
35761W        W95022  26.069  43.877  13.895
35762W        W95023   2.442  24.588  12.959
35763W        W95024  36.907  27.663   1.441
35764W        W95025   4.837  17.610   3.291
35765W        W95026   7.860  17.218   4.328
35766W        W95027  40.866  14.330  12.941
35767W        W95028  20.244  16.112   3.813
35768W        W95029   0.368  22.543   1.702
35769W        W95030  35.408  27.194   4.241
35770W        W95031  30.540  18.638   3.827
35771W        W95032   8.348  28.133  11.502
35772W        W95033  41.950  29.485   3.761
35773W        W95034  37.931  25.980   2.690
35774W        W95035  11.235  22.125  12.056
35775W        W95036  28.599  16.212   3.251
35776W        W95037  29.984  30.041   2.227
35777W        W95038  11.795   7.240   3.219
35778W        W95039  30.159   9.646   4.146
35779W        W95040  14.117   8.692  12.399
35780W        W95041   4.376  27.646   0.460
35781W        W95042  16.293  32.027  11.568
35782W        W95043  22.522  40.838  13.472
35783W        W95044  39.051   4.357   4.248
35784W        W95045  42.383  21.540   2.718
35785W        W95046  43.924  11.763  14.463
35786W        W95047   8.780  40.961   1.727
35787W        W95048  41.455  13.241   3.266
35788W        W95049  10.832  27.997  12.530
35789W        W95050  40.364  38.823  14.844
35790W        W95051  17.129  36.997   2.229
35791W        W95052   6.846  34.864   3.272
35792W        W95053  35.552  15.697   2.318
35793W        W95054   6.250  15.723   1.789
35794W        W95055  10.240  32.443   1.728
35795W        W95056  22.052  28.009  11.581
35796W        W95057  27.667  19.541  14.898
35797W        W95058  20.190  20.717  12.933
35798W        W95059  30.060  30.139  13.041
35799W        W95060  36.963  21.260   2.707
35800W        W95061  36.347   8.327   1.214
35801W        W95062  15.784  37.419   1.212
35802W        W95063  23.109  33.088  13.483
35803W        W95064  12.834   6.773  13.386
35804W        W95065  40.339  38.461   0.345
35805W        W95066   2.427  15.193   4.803
35806W        W95067  28.975  39.378  13.043
35807W        W95068  33.620  32.414  14.471
35808W        W95069  44.893  22.534  14.877
35809W        W95070  28.445   0.962  14.357
35810W        W95071  34.889  34.091   2.766
35811W        W95072  31.942  32.006  14.822
35812W        W95073  16.193  29.482   1.920
35813W        W95074  43.464  43.837  11.864
35814W        W95075  37.479  41.384  14.280
35815W        W95076  23.689   5.898   0.965
35816W        W95077   9.838  43.902  12.089
35817W        W95078  36.377  15.324  13.311
35818W        W95079  14.319  16.722  11.083
35819W        W95080  20.205  11.866  13.532
35820W        W95081  33.485   4.931   1.240
35821W        W95082   3.382  43.429   0.727
35822W        W95083  13.271  31.016   0.735
35823W        W95084  10.684  30.043  13.836
35824W        W95085  41.790  26.026  12.402
35825W        W95086  36.574  11.282   1.823
35826W        W95087  10.360  42.490   1.874
35827W        W95088  16.643  15.668  14.321
35828W        W95089  19.758   9.861  14.350
35829W        W95090   5.752  41.037  11.608
35830W        W95091   1.872  37.419   1.931
35831W        W95092  15.177  32.428   3.179
35832W        W95093  16.144  34.897  12.500
35833W        W95094   8.261   7.794  13.812
35834W        W95095  30.648  34.588   0.351
35835W        W95096  11.262  12.295   3.741
35836W        W95097  22.083  15.223   0.365
35837W        W95098  28.006  40.367   1.796
35838W        W95099  20.708  32.564   3.149
35839W        W95100  13.120  30.569  11.377
35840W        W95101  38.436  18.759  14.870
35841W        W95102   5.355   5.816  13.955
35842W        W95103  28.481  21.253   0.836
35843W        W95104   7.829  36.554   3.765
35844W        W95105   3.772   9.643   3.843
35845W        W95106   2.383  15.722   2.792
35846W        W95107  41.929   0.359  14.854
35847W        W95108   1.965   2.334   4.347
35848W        W95109  24.582  33.061  14.811
35849W        W95110  28.972  26.132   2.666
35850W        W95111  39.475  29.435   2.898
35851W        W95112   2.368   8.849   3.764
35852W        W95113  32.606  14.640   4.743
35853W        W95114  42.324   1.815  11.011
35854W        W95115  14.215   0.946  12.852
35855W        W95116  19.112   3.359   4.237
35856W        W95117   4.783  25.017   0.759
35857W        W95118   4.376  36.899  11.445
35858W        W95119  41.452  41.979  11.397
35859W        W95120  44.947  27.126  11.893
35860W        W95121  22.143   6.327   3.629
35861W        W95122  44.830  38.967   1.929
35862W        W95123  12.271  31.607   2.693
35863W        W95124   7.844   4.262  14.301
35864W        W95125   8.265  28.657   1.743
35865W        W95126  25.628  39.400  12.863
35866W        W95127  12.257  16.189   0.929
35867W        W95128  23.650  30.128   2.867
35868W        W95129  25.074  21.146   2.206
35869W        W95130  36.519   1.933  12.971
35870W        W95131  19.190  33.418  14.328
35871W        W95132   5.285  21.621   4.224
35872W        W95133  19.643  20.734  14.432
35873W        W95134  12.116   5.417  14.799
35874W        W95135  33.524  19.047  11.083
35875W        W95136  32.980  23.540   2.292
35876W        W95137  15.773  40.427  12.526
35877W        W95138  27.469  43.392  10.412
35878W        W95139  12.280   7.824  11.956
35879W        W95140  29.496  43.276  14.420
35880W        W95141   1.812  18.730  11.072
35881W        W95142   1.307  25.008  12.572
35882W        W95143  23.184  25.118  12.450
35883W        W95144  42.845  17.283  12.855
35884W        W95145   7.372   8.702  14.405
35885W        W95146  10.765  33.605  11.052
35886W        W95147  17.153   4.361   2.201
35887W        W95148  42.443  40.951  11.018
35888W        W95149  10.310  31.058   3.263
35889W        W95150  36.032  36.960   3.651
35890W        W95151  10.738  13.639  10.983
35891W        W95152  38.398  20.120   1.796
35892W        W95153  14.629  18.703  13.814
35893W        W95154  16.153  35.097   2.216
35894W        W95155  29.020  43.293  12.503
35895W        W95156  31.979  44.262   4.116
35896W        W95157  44.959  17.140  12.895
35897W        W95158  27.666  44.994   0.863
35898W        W95159  10.372  41.036  14.973
35899W        W95160  40.816  35.486   0.895
35900W        W95161  11.702  29.152   2.700
35901W        W95162  30.023  25.107  12.533
35902W        W95163  32.403   0.272  12.417
35903W        W95164  18.659  32.945  11.433
35904W        W95165  22.048  16.633   3.197
35905W        W95166  37.870   6.716   0.342
35906W        W95167   9.686  13.797   1.752
35907W        W95168  41.824  10.145   2.294
35908W        W95169  20.676  27.189   4.728
35909W        W95170   0.872  22.145  11.563
35910W        W95171  38.566  29.510   3.794
35911W        W95172   1.853  26.082   0.333
35912W        W95173  28.053  22.050  13.462
35913W        W95174  38.426  15.129   1.226
35914W        W95175  12.741   7.767  12.454
35915W        W95176  21.196  35.500  14.002
35916W        W95177  24.619  36.489   2.303
35917W        W95178  33.975  15.325  14.011
35918W        W95179  15.806   4.936   3.791
35919W        W95180  20.579  28.059   3.828
35920W        W95181  18.617  33.528   3.178
35921W        W95182  30.529  32.583   4.325
35922W        W95183  24.054  28.021   5.220
35923W        W95184  19.227  42.845   4.679
35924W        W95185  29.121  16.663  10.482
35925W        W95186   0.812  37.549   0.247
35926W        W95187  14.101  30.927  10.986
35927W        W95188  23.603  25.517   0.876
35928W        W95189  15.290  23.651   0.460
35929W        W95190  43.924  44.458   0.317
35930W        W95191  42.776  15.322   4.823
35931W        W95192  31.532  33.986   4.701
35932W        W95193  17.664  27.540  14.299
35933W        W95194  14.340  23.625  11.976
35934W        W95195  12.627   1.733  12.982
35935W        W95196  37.518  24.201  12.560
35936W        W95197   7.209  11.191  13.956
35937W        W95198  29.500  10.749  11.443
35938W        W95199  20.155  39.355   4.608
35939W        W95200  12.761  39.947  14.947
35940W        W95201  41.365  28.608   4.314
35941W        W95202  43.790  14.185   0.475
35942W        W95203  12.736  40.838   2.270
35943W        W95204  41.389  38.889   0.772
35944W        W95205  15.109  14.783   2.776
35945W        W95206  33.875  17.267  12.900
35946W        W95207  14.701  25.692  12.060
35947W        W95208  29.550  23.159   2.837
35948W        W95209   7.695  10.653  10.909
35949W        W95210  31.147   7.315   0.742
35950W        W95211  23.493   6.815  13.796
35951W        W95212  27.111  36.576   2.668
35952W        W95213  22.219  29.990   3.865
35953W        W95214  28.548  39.945  12.896
35954W        W95215  42.379  34.961   3.213
35955W        W95216   6.807  36.924   4.224
35956W        W95217  11.856  29.967  12.831
35957W        W95218   9.212  42.340  14.299
35958W        W95219  43.351  40.025   3.281
35959W        W95220  39.320  38.915  14.295
35960W        W95221  35.407   5.276  10.953
35961W        W95222   1.813  38.991  11.064
35962W        W95223  10.208  21.022  12.880
35963W        W95224  23.701  32.586   0.418
35964W        W95225  29.071  30.085   0.932
35965W        W95226  44.262  25.509   1.726
35966W        W95227  17.182  30.445   1.281
35967W        W95228  37.581  32.007  11.528
35968W        W95229  40.916  30.499   2.334
35969W        W95230   5.346  13.306  12.436
35970W        W95231  24.174  20.058  14.799
35971W        W95232  10.677  32.918  12.037
35972W        W95233  33.908  15.630  12.505
35973W        W95234  27.183  19.235  11.047
35974W        W95235  14.326  17.104   4.640
35975W        W95236   5.262   4.891  13.027
35976W        W95237  38.824  30.986   4.647
35977W        W95238  28.015  38.857  10.947
35978W        W95239  25.118   7.826  13.449
35979W        W95240   5.691  27.599   4.743
35980W        W95241  41.894  25.584  13.451
35981W        W95242  18.657  21.055   1.319
35982W        W95243  22.741  26.603   4.748
35983W        W95244  26.575  14.269  11.994
35984W        W95245  24.054  13.289   0.435
35985W        W95246  18.598   5.713  11.913
35986W        W95247   9.237   5.899   2.226
35987W        W95248  41.326   1.940  11.470
35988W        W95249  38.045  32.406  13.877
35989W        W95250  23.608  32.443   2.804
35990W        W95251  31.452  20.158  13.885
35991W        W95252  34.520  29.640  10.432
35992W        W95253  25.590  23.492   3.696
35993W        W95254   9.154  41.971  13.942
35994W        W95255  36.990  21.178   0.899
35995W        W95256  33.899  26.101   0.768
35996W        W95257  30.586  17.208   4.317
35997W        W95258  27.548  28.142   3.301
35998W        W95259   5.743  35.509  11.439
35999W        W95260  18.126  37.516  11.053
36000W        W95261   0.769  34.590  13.327
36001W        W95262   4.204   2.736   3.318
36002W        W95263  29.168   4.233   2.334
36003W        W95264  21.154  16.120   3.284
36004W        W95265  31.045   0.263   0.248
36005W        W95266  28.990   6.819  14.928
36006W        W95267  34.070  39.446   2.793
36007W        W95268  22.165  27.533  11.002
36008W        W95269  21.050   9.276   0.888
36009W        W95270  41.456  36.406   4.255
36010W        W95271  27.555  27.181   4.621
36011W        W95272   7.188  30.000  12.522
36012W        W95273  41.997  32.962   2.257
36013W        W95274  32.978  12.249  12.381
36014W        W95275   3.405  16.661   4.813
36015W        W95276  15.779  43.495  12.874
36016W        W95277  38.492  29.923  12.350
36017W        W95278  18.194   6.688  10.954
36018W        W95279  23.002  22.640  14.795
36019W        W95280  42.776  24.695  14.293
36020W        W95281  18.144   8.788   0.934
36021W        W95282  22.018  13.163  12.054
36022W        W95283  32.623   7.416  14.295
36023W        W95284  26.146  13.197  11.087
36024W        W95285  12.665   5.767   4.643
36025W        W95286  41.955  28.516  14.452
36026W        W95287  44.405  26.557  14.893
36027W        W95288   7.766  28.940  10.122
36028W        W95289   9.801  41.872  14.430
36029W        W95290   6.823   2.463   2.405
36030W        W95291  44.459   4.935   4.353
36031W        W95292  21.100  27.452  12.973
36032W        W95293  14.151  37.337  12.459
36033W        W95294  37.388  23.691   4.167
36034W        W95295   9.242  10.363   1.715
36035W        W95296  33.931   0.916   2.675
36036W        W95297   3.364  43.310   2.677
36037W        W95298  27.682  11.696  13.451
36038W        W95299  32.483  21.202  13.481
36039W        W95300  44.261  11.667   2.255
36040W        W95301   9.187  14.174  10.617
36041W        W95302   4.719  14.672   0.357
36042W        W95303  26.206  32.132   5.244
36043W        W95304  34.468  40.877  12.867
36044W        W95305  13.795  20.692   0.786
36045W        W95306  40.422  21.197   2.399
36046W        W95307  27.969  21.220   4.672
36047W        W95308  19.715  23.509  10.404
36048W        W95309  41.787  10.685  11.586
36049W        W95310   8.661  22.523  12.959
36050W        W95311  21.206  31.426  13.043
36051W        W95312  44.974   9.725  10.581
36052W        W95313  30.524  24.093   4.784
36053W        W95314  31.143  15.200   3.676
36054W        W95315  44.792  27.019  14.317
36055W        W95316  15.314  10.381  14.388
36056W        W95317  23.072  28.535  10.567
36057W        W95318  31.579  19.556   4.168
36058W        W95319  31.922  20.136  11.545
36059W        W95320   9.250   9.742   1.836
36060W        W95321  22.693  16.766  14.828
36061W        W95322  17.641  24.569   4.597
36062W        W95323  16.271  13.714   3.239
36063W        W95324  29.617  30.430  11.889
36064W        W95325  44.877  33.110   2.319
36065W        W95326  10.232  41.802  12.550
36066W        W95327   9.751  15.798   1.235
36067W        W95328  30.050  17.664  13.005
36068W        W95329  17.579   8.345  10.968
36069W        W95330  24.053  44.798  12.835
36070W        W95331  43.922  35.461   1.303
36071W        W95332  43.843  40.808  12.485
36072W        W95333   0.292  34.895   3.364
36073W        W95334  31.019  27.032  12.887
36074W        W95335  38.057  23.498  11.863
36075W        W95336   5.931   9.666   2.889
36076W        W95337  17.210  24.049  11.104
36077W        W95338   6.295   3.717  11.890
36078W        W95339  34.113  42.444  11.918
36079W        W95340  28.161  42.917  12.558
36080W        W95341   8.888  39.485   4.222
36081W        W95342  27.092  14.713  14.945
36082W        W95343  10.340  21.733  12.429
36083W        W95344  11.172  13.655   0.965
36084W        W95345  29.122  25.646   1.276
36085W        W95346   4.921  38.927   2.878
36086W        W95347  15.662  16.245   3.812
36087W        W95348  20.060  43.346   1.360
36088W        W95349  44.930   0.770   3.371
36089W        W95350  34.550   3.752  13.400
36090W        W95351  22.108   4.885   3.636
36091W        W95352   5.269   6.881   3.696
36092W        W95353  24.630   5.738  11.095
36093W        W95354   8.200  20.149  12.852
36094W        W95355  28.648  10.871  13.539
36095W        W95356   8.809  18.116  13.479
36096W        W95357  19.564  32.058  14.506
36097W        W95358  31.927   8.775   2.763
36098W        W95359  20.767  32.043   1.321
36099W        W95360  14.616  28.530   4.755
36100W        W95361  10.843  17.625   2.662
36101W        W95362  22.187  39.942  14.841
36102W        W95363  13.109   2.231  14.830
36103W        W95364  26.517  43.403   4.255
36104W        W95365  10.209  34.540  12.536
36105W        W95366  17.200   1.897   0.423
36106W        W95367  37.535  12.335  11.095
36107W        W95368  30.550   1.872  13.062
36108W        W95369  30.554   1.264   2.205
36109W        W95370  30.051  38.011   1.290
36110W        W95371   8.831  31.934   1.909
36111W        W95372   4.795  15.632  10.905
36112W        W95373  18.190  43.298   2.415
36113W        W95374  44.841  33.624   2.259
36114W        W95375  11.829  18.236   2.327
36115W        W95376   9.849   2.864   3.721
36116W        W95377   0.783  43.777  12.513
36117W        W95378  10.805  24.219   4.794
36118W        W95379  10.167  36.915   1.765
36119W        W95380   4.314  22.638   0.409
36120W        W95381   8.829  11.133   0.297
36121W        W95382  42.372  31.969   1.831
36122W        W95383  26.477   8.839  14.282
36123W        W95384  32.593  17.183  10.527
36124W        W95385  39.448  22.179   0.340
36125W        W95386  31.935  33.111  13.820
36126W        W95387  31.614  21.673   2.406
36127W        W95388  10.775  18.780   0.748
36128W        W95389   6.185  14.589   1.322
36129W        W95390  19.707   2.873   1.847
36130W        W95391  36.470   3.804   0.766
36131W        W95392  29.538  36.452  12.398
36132W        W95393   2.287   2.328  11.880
36133W        W95394  43.910   4.712   2.350
36134W        W95395   3.266  21.208   1.247
36135W        W95396  42.420  24.166   0.782
36136W        W95397  26.615  39.814   1.776
36137W        W95398  37.043  27.063  10.902
36138W        W95399  44.491   7.381  10.002
36139W        W95400  20.150  34.599   0.352
36140W        W95401  39.491  23.080   5.153
36141W        W95402  28.133  24.078  12.538
36142W        W95403   4.731  15.728   4.730
36143W        W95404  20.196  35.395  12.945
36144W        W95405  27.448   4.888   0.254
36145W        W95406  41.877  27.171  14.349
36146W        W95407  38.871   0.258  13.852
36147W        W95408   4.385  38.920   4.642
36148W        W95409   8.876  26.004   1.315
36149W        W95410  16.308  34.583   1.214
36150W        W95411  30.986   5.814   1.250
36151W        W95412  26.189  14.710   3.851
36152W        W95413  13.135  19.537  13.882
36153W        W95414  36.884  36.850  10.582
36154W        W95415  15.773   8.169  13.008
36155W        W95416   7.295   0.943  13.509
36156W        W95417   4.210  41.028   0.765
36157W        W95418   6.803  29.611   3.339
36158W        W95419  43.343  36.021   5.119
36159W        W95420   4.899  43.437   3.378
36160W        W95421  18.140  16.105  14.287
36161W        W95422  44.832  37.567  11.020
36162W        W95423  30.437  23.585   3.223
36163W        W95424  33.114  13.320   2.283
36164W        W95425  23.638  44.789   0.408
36165W        W95426  29.066  13.795  13.912
36166W        W95427   2.933  39.905   2.884
36167W        W95428   5.386  25.665  11.010
36168W        W95429  22.637  38.915   0.866
36169W        W95430  33.986  32.511   3.742
36170W        W95431  38.022  23.005  13.412
36171W        W95432   3.282  14.595  12.078
36172W        W95433  13.271  41.474  12.525
36173W        W95434   1.819  25.158  14.401
36174W        W95435  26.639   1.765   3.227
36175W        W95436  32.571  26.686  14.426
36176W        W95437   5.877  12.817  11.958
36177W        W95438  32.539  21.549   0.957
36178W        W95439   8.783   3.322   0.927
36179W        W95440  17.286  42.371   0.274
36180W        W95441  24.066   5.438   0.424
36181W        W95442   2.769  41.931  11.070
36182W        W95443  24.572  30.503  13.802
36183W        W95444  13.692  32.956   3.661
36184W        W95445  44.323  16.779  13.802
36185W        W95446   0.419  14.606   2.372
36186W        W95447  39.331  33.459  13.522
36187W        W95448  42.908  13.774   2.334
36188W        W95449  44.937   4.940   3.813
36189W        W95450  42.996  11.706  13.453
36190W        W95451  16.763  12.679  13.896
36191W        W95452  15.154  17.626   1.791
36192W        W95453  42.401  10.787   1.255
36193W        W95454  41.018  31.500  13.548
36194W        W95455  40.529  23.239   1.289
36195W        W95456  31.051  40.330  12.545
36196W        W95457  21.236  36.394  12.089
36197W        W95458  40.420   3.333   1.304
36198W        W95459  22.679  29.599  10.644
36199W        W95460  23.701   1.946   0.798
36200W        W95461   9.228  41.528   1.857
36201W        W95462  20.136  34.924   2.227
36202W        W95463  43.816   8.399  13.475
36203W        W95464  38.363  30.923  11.462
36204W        W95465   1.834  36.402   1.736
36205W        W95466  26.171   7.767   0.966
36206W        W95467  35.573  30.645  12.889
36207W        W95468  42.923  11.323  10.516
36208W        W95469  23.069  17.207  13.488
36209W        W95470  26.686   4.884   0.809
36210W        W95471  36.927  20.190  12.522
36211W        W95472  23.074   3.718  11.017
36212W        W95473  20.119  32.112   0.365
36213W        W95474   2.813   5.756   4.331
36214W        W95475  31.579   5.276   3.747
36215W        W95476  10.380  33.428  12.428
36216W        W95477  29.664   8.878  13.908
36217W        W95478  14.652  39.489   1.412
36218W        W95479  10.645  38.533   3.810
36219W        W95480   4.889   4.274  11.968
36220W        W95481  38.923  23.710  14.988
36221W        W95482  34.098  21.526   3.816
36222W        W95483  41.801  11.224   4.690
36223W        W95484  38.458  42.439  11.531
36224W        W95485  32.010  41.963  14.885
36225W        W95486  12.764  29.963  14.292
36226W        W95487  36.057  12.810  13.986
36227W        W95488   7.726  37.338   2.775
36228W        W95489  16.132  36.445  14.380
36229W        W95490  17.098   2.447  11.502
36230W        W95491  20.027   0.971   0.839
36231W        W95492  42.350  11.751   2.901
36232W        W95493  19.608  23.182   3.334
36233W        W95494   2.231  12.752  13.973
36234W        W95495  27.578  32.100  12.049
36235W        W95496   6.230  43.846   2.299
36236W        W95497  14.127  41.421  11.045
36237W        W95498  43.905  33.529  13.508
36238W        W95499  36.962  43.959   4.162
36239W        W95500  42.453  35.495  14.444
36240W        W95501  30.963  24.219  14.893
36241W        W95502   4.742  41.494   2.273
36242W        W95503  25.690  41.860  12.824
36243W        W95504   9.853  32.088  13.005
36244W        W95505  27.467   4.717   3.695
36245W        W95506  19.134  39.350   1.903
36246W        W95507  26.692  38.075   4.175
36247W        W95508   8.373   8.351   2.389
36248W        W95509  36.446   6.782   3.761
36249W        W95510  32.622   7.675  10.408
36250W        W95511   9.843  26.980  11.372
36251W        W95512  42.515  25.004  13.319
36252W        W95513  20.131  25.219   5.113
36253W        W95514  24.674  32.598   0.766
36254W        W95515   4.850  16.112  12.000
36255W        W95516  44.309   7.765   0.781
36256W        W95517  42.457  35.957   1.378
36257W        W95518  16.305  30.991  12.375
36258W        W95519  27.650  40.467   4.154
36259W        W95520  28.602  18.725  12.873
36260W        W95521  20.759  18.694  14.902
36261W        W95522  36.934  13.759  11.061
36262W        W95523  12.845  34.022   4.158
36263W        W95524   4.428   9.212   2.214
36264W        W95525   6.189  33.440  13.948
36265W        W95526  27.551  37.921  13.351
36266W        W95527   6.741  37.833  10.575
36267W        W95528   2.720  11.836  12.577
36268W        W95529  39.020  24.632   4.625
36269W        W95530  34.434   4.746  12.542
36270W        W95531  44.485  23.613  13.388
36271W        W95532  27.192  28.508   2.703
36272W        W95533  13.737  44.498  11.079
36273W        W95534  35.597   9.884   3.254
36274W        W95535  40.379  30.626  13.041
36275W        W95536  29.497   9.359  12.982
36276W        W95537   6.262  34.501  12.917
36277W        W95538   9.210   3.815   1.786
36278W        W95539  33.400  11.272   0.409
36279W        W95540  16.794   7.740  13.316
36280W        W95541  41.836  21.596   0.870
36281W        W95542  22.134  16.712  13.021
36282W        W95543  26.703  35.471  14.808
36283W        W95544  27.148  28.114   4.335
36284W        W95545  20.539  32.527  10.633
36285W        W95546  43.831   5.770   2.325
36286W        W95547  24.687  25.033  11.867
36287W        W95548  41.931  29.616   0.369
36288W        W95549  40.904  18.212   0.423
36289W        W95550  16.762  24.659  13.366
36290W        W95551  11.753   4.806   0.952
36291W        W95552  26.021  24.487  13.923
36292W        W95553   7.717  19.165  14.401
36293W        W95554  41.361  40.421   1.743
36294W        W95555  37.035   6.683   3.343
36295W        W95556   7.805   4.383  12.479
36296W        W95557  11.738  29.632   1.354
36297W        W95558   8.791  34.598  14.765
36298W        W95559  37.557  40.821  11.472
36299W        W95560  38.427   1.239   3.639
36300W        W95561  29.625  27.621  12.886
36301W        W95562  34.914  27.600   4.829
36302W        W95563  12.332  31.504  13.829
36303W        W95564  40.408   7.411  10.567
36304W        W95565  31.607  13.720  11.013
36305W        W95566  16.196  24.171  14.478
36306W        W95567  17.238   7.716   0.782
36307W        W95568   3.317  30.023   3.731
36308W        W95569  40.973  21.594   0.255
36309W        W95570   0.453  37.044   4.830
36310W        W95571  41.804  16.218   4.201
36311W        W95572  43.476  38.036   3.829
36312W        W95573  18.545  39.494  12.902
36313W        W95574  19.767   0.471   4.699
36314W        W95575   0.349  16.760  12.576
36315W        W95576  40.938   4.253  11.042
36316W        W95577  27.971   5.816  13.960
36317W        W95578  38.508   6.255   3.231
36318W        W95579  39.351   7.371   3.220
36319W        W95580  38.564  42.463  14.456
36320W        W95581  13.320  40.309  13.516
36321W        W95582  29.043  12.757   3.214
36322W        W95583  19.777   2.238  11.390
36323W        W95584  40.401  25.539  13.325
36324W        W95585  33.605  13.621  14.821
36325W        W95586  33.963   8.787   0.964
36326W        W95587  27.539  39.978   2.841
36327W        W95588  42.918  21.656  14.362
36328W        W95589   8.657  10.336   1.341
36329W        W95590   5.822  22.617   3.685
36330W        W95591   3.289  24.141   0.246
36331W        W95592  27.614  18.232  10.417
36332W        W95593  41.510  40.951   1.380
36333W        W95594   0.968  31.974   2.406
36334W        W95595  19.144  20.563  14.456
36335W        W95596  15.780  22.188   3.247
36336W        W95597  37.973  17.103  12.898
36337W        W95598  14.302  11.159  13.545
36338W        W95599  28.501  16.101   0.432
36339W        W95600   4.704  16.147   3.366
36340W        W95601  22.537  25.099   3.301
36341W        W95602   4.250  16.222  14.450
36342W        W95603  13.169  20.092  13.923
36343W        W95604  43.926  42.872   0.348
36344W        W95605  38.467  37.436  12.463
36345W        W95606   2.786  37.995   3.242
36346W        W95607  13.233  24.224  10.471
36347W        W95608  22.208  11.816   0.255
36348W        W95609  38.017  24.514   4.250
36349W        W95610  31.460  16.283   1.272
36350W        W95611  15.094  20.238  13.480
36351W        W95612  32.902  13.280  12.969
36352W        W95613  30.440  24.170   3.689
36353W        W95614  37.950  24.107  10.509
36354W        W95615  20.272  17.300  13.887
36355W        W95616   4.885   0.979   0.254
36356W        W95617  30.015  17.226   2.740
36357W        W95618  10.751   3.888  12.018
36358W        W95619  44.953  24.586   3.376
36359W        W95620  38.564   9.209   0.774
36360W        W95621  28.044  32.897  13.795
36361W        W95622  39.910  29.095   4.757
36362W        W95623  20.556   0.899   3.842
36363W        W95624  16.689  41.512   3.734
36364W        W95625  44.368  18.576  11.947
36365W        W95626  32.944  25.134   2.822
36366W        W95627   8.829  42.943  13.521
36367W        W95628  38.021  30.416   2.698
36368W        W95629  27.177  33.585  10.637
36369W        W95630   7.227  13.828   1.714
36370W        W95631   4.443   9.846   0.342
36371W        W95632  36.487  16.713   1.874
36372W        W95633  26.183  29.112   1.436
36373W        W95634  25.097  32.041  11.975
36374W        W95635  32.096  32.067  11.968
36375W        W95636   3.404   4.760  11.091
36376W        W95637  19.748   7.742   1.903
36377W        W95638  13.229  28.076   2.790
36378W        W95639  11.366  33.472  14.379
36379W        W95640  24.979  31.463   0.483
36380W        W95641  26.197  12.850  12.839
36381W        W95642  28.575  40.497   4.182
36382W        W95643   3.358  14.780   3.193
36383W        W95644  10.327  38.453  13.975
36384W        W95645  27.084  24.563   3.638
36385W        W95646  19.039  38.525   2.200
36386W        W95647  33.455  10.158   3.252
36387W        W95648  15.213   1.767   2.760
36388W        W95649  25.686  26.174   1.747
36389W        W95650  44.322  22.053   3.804
36390W        W95651  17.199  41.503  10.975
36391W        W95652   6.354  10.699  14.956
36392W        W95653  39.375  14.627   4.149
36393W        W95654  22.185  15.707   0.734
36394W        W95655  22.556  12.334  11.893
36395W        W95656  44.363  33.479   1.302
36396W        W95657  20.769  42.012   0.470
36397W        W95658  42.403  23.091  14.917
36398W        W95659  42.301  38.825   1.912
36399W        W95660  29.072  11.813  14.958
36400W        W95661   7.776  23.035   0.242
36401W        W95662  27.621   1.268  13.919
36402W        W95663  15.702  33.941  13.823
36403W        W95664   2.438  11.368  13.463
36404W        W95665  33.499   8.233  12.021
36405W        W95666  21.695  24.515  14.507
36406W        W95667   1.454  26.615   3.831
36407W        W95668  15.708  26.005   2.786
36408W        W95669  36.577  30.147   1.281
36409W        W95670  16.104  38.993   3.337
36410W        W95671  23.191  38.432  13.946
36411W        W95672  30.481  28.606  11.520
36412W        W95673  40.386  38.915   2.764
36413W        W95674  41.395  29.661  14.956
36414W        W95675  23.002   1.906  11.095
36415W        W95676  32.108   7.266   1.382
36416W        W95677  30.037  10.356  12.987
36417W        W95678  14.243  31.635   3.180
36418W        W95679  33.625  37.982   1.258
36419W        W95680  18.279  26.687  12.037
36420W        W95681   6.312  24.116   5.150
36421W        W95682   9.240   1.770  13.835
36422W        W95683   5.804   3.778  11.543
36423W        W95684  12.345  33.574  12.493
36424W        W95685   6.910  21.201  14.436
36425W        W95686  25.188  11.867  13.427
36426W        W95687  32.908  24.172   1.254
36427W        W95688  30.419  23.072   2.747
36428W        W95689  34.931  21.099   3.727
36429W        W95690  39.464  18.081   1.880
36430W        W95691  35.603   0.475  11.496
36431W        W95692  33.504  18.165   3.804
36432W        W95693  19.741  22.582   1.698
36433W        W95694   7.213  22.239   2.764
36434W        W95695   8.406  14.265  11.391
36435W        W95696  19.097  30.412  11.608
36436W        W95697   6.426  10.846   4.695
36437W        W95698  36.942  18.577  12.943
36438W        W95699  37.371  22.631   1.427
36439W        W95700  18.710  37.374   3.299
36440W        W95701  38.375   2.960   0.381
36441W        W95702  23.993  26.166   2.746
36442W        W95703  38.943   4.925  11.396
36443W        W95704   7.905   2.799   9.923
36444W        W95705  29.120  40.324   2.679
36445W        W95706  44.995  41.444   2.826
36446W        W95707  44.275   7.779   2.369
36447W        W95708  30.570   7.860   4.271
36448W        W95709  12.360   4.872  11.585
36449W        W95710  37.391  32.478  12.389
36450W        W95711  44.451  16.587   9.980
36451W        W95712   4.717  30.459  14.979
36452W        W95713   1.974  34.114  14.313
36453W        W95714  35.508  30.588   3.350
36454W        W95715  43.852  11.723  12.861
36455W        W95716   4.404   0.925  11.463
36456W        W95717   3.882  30.960  12.913
36457W        W95718  32.051  10.297  10.919
36458W        W95719  10.295  32.014   1.384
36459W        W95720  15.607   5.768  12.499
36460W        W95721  21.698  10.202  14.502
36461W        W95722   2.879  18.609   3.869
36462W        W95723  38.860  40.324  11.416
36463W        W95724  30.134  22.999  14.352
36464W        W95725  26.484  18.594  12.827
36465W        W95726  19.764  34.871   0.479
36466W        W95727   0.397   5.196   3.365
36467W        W95728  26.651  19.182  10.497
36468W        W95729  14.282  19.193   3.758
36469W        W95730  24.577  18.208   0.480
36470W        W95731  41.403  37.978   3.252
36471W        W95732  14.592   5.278   3.301
36472W        W95733  35.439  23.072  10.932
36473W        W95734   5.355  44.942  14.003
36474W        W95735  23.534  18.652  10.436
36475W        W95736  14.301   6.839  13.401
36476W        W95737  27.545  13.238   2.237
36477W        W95738  41.892  16.099  11.982
36478W        W95739  42.290  19.098  10.075
36479W        W95740  40.968  36.072   3.334
36480W        W95741   4.752  28.096   3.791
36481W        W95742  43.282  32.586   4.701
36482W        W95743  44.819  13.332  14.450
36483W        W95744   0.928  13.721  14.300
36484W        W95745  34.471   9.803   0.788
36485W        W95746  27.458  35.420  13.454
36486W        W95747  26.691  36.437  14.926
36487W        W95748  15.802  14.132  10.102
36488W        W95749  42.499  36.045   2.722
36489W        W95750   8.161  10.329  13.499
36490W        W95751  31.438  35.897   4.319
36491W        W95752  28.066  27.510   2.213
36492W        W95753  29.976  24.687  13.426
36493W        W95754   8.271  14.640  12.071
36494W        W95755  26.660  28.966  10.960
36495W        W95756  38.962   5.290  14.382
36496W        W95757  38.838  14.240   2.207
36497W        W95758  29.508  38.017   1.897
36498W        W95759  31.014  18.619   4.660
36499W        W95760  22.044  25.535   1.735
36500W        W95761  17.589  13.277   4.339
36501W        W95762   9.844  26.582   3.848
36502W        W95763  28.476  13.249   1.739
36503W        W95764  16.570  23.736  14.456
36504W        W95765   6.196   8.733   2.822
36505W        W95766  35.055  41.337  14.927
36506W        W95767  35.485   2.235  10.582
36507W        W95768   7.380  14.813   1.301
36508W        W95769  35.014  31.101  11.047
36509W        W95770  29.550  29.464   5.306
36510W        W95771  31.534  27.176  11.087
36511W        W95772  20.570  11.720   2.243
36512W        W95773  27.131   5.864  11.108
36513W        W95774  38.521   2.249   2.226
36514W        W95775  24.545  24.993  13.873
36515W        W95776  21.046  24.208   4.245
36516W        W95777   5.893  35.414   4.729
36517W        W95778  17.561   9.170   9.575
36518W        W95779   2.777  41.965   4.137
36519W        W95780  34.552  24.615   1.423
36520W        W95781  37.942  39.008   1.833
36521W        W95782  20.034  25.026  10.585
36522W        W95783  32.976  40.538   4.789
36523W        W95784   7.880  12.166  11.465
36524W        W95785   1.474  33.002   0.246
36525W        W95786   5.253  36.590   0.274
36526W        W95787  30.997  18.688   4.207
36527W        W95788   7.841  13.612   2.367
36528W        W95789  38.536  18.728  10.622
36529W        W95790   6.858  43.764   1.727
36530W        W95791  23.540  43.483   1.284
36531W        W95792  12.801  11.309   3.777
36532W        W95793  44.300  38.848   2.209
36533W        W95794  20.247  14.596   4.665
36534W        W95795  30.099  15.166   3.651
36535W        W95796  26.495  20.583  13.319
36536W        W95797  32.924   9.843   1.889
36537W        W95798  24.526  35.884   3.187
36538W        W95799   7.792   3.719  14.031
36539W        W95800  26.050  24.533   4.748
36540W        W95801   9.164   6.700   0.381
36541W        W95802  30.572  19.061   3.791
36542W        W95803  24.661  31.637   1.363
36543W        W95804  14.702   2.346  11.881
36544W        W95805   1.480  27.625   4.827
36545W        W95806   1.865  44.943   2.770
36546W        W95807   1.322  14.159   1.450
36547W        W95808  15.274  18.556  11.605
36548W        W95809  31.518  29.056   3.790
36549W        W95810   8.212  11.734   3.744
36550W        W95811  44.334  16.177  13.352
36551W        W95812   4.727  38.024  10.910
36552W        W95813  26.679  41.884   5.167
36553W        W95814  32.943   3.905   3.806
36554W        W95815  29.575  12.779  11.939
36555W        W95816  23.069  44.905   4.274
36556W        W95817  40.864  11.787  12.892
36557W        W95818  11.175  16.183   3.717
36558W        W95819   1.453  10.679  11.071
36559W        W95820  22.182  39.529  12.919
36560W        W95821  27.674   5.273   3.158
36561W        W95822  12.634   9.313  13.008
36562W        W95823  19.606  24.082  14.495
36563W        W95824  15.713  22.094   4.305
36564W        W95825  34.473  41.987   1.304
36565W        W95826  29.123  23.635  11.569
36566W        W95827  26.595   0.915   3.266
36567W        W95828  17.797  13.331  11.379
36568W        W95829  19.619  32.632  12.373
36569W        W95830  21.542  33.118  12.825
36570W        W95831  32.996   4.343  13.436
36571W        W95832  29.660  22.684   5.269
36572W        W95833  23.672  36.947   4.796
36573W        W95834  43.772  28.975   2.807
36574W        W95835   8.315   9.261   1.237
36575W        W95836   2.426  10.667   3.373
36576W        W95837  41.847   6.685   3.231
36577W        W95838   2.445   4.859  12.008
36578W        W95839  15.262  13.674   4.756
36579W        W95840  27.626  22.212  14.819
36580W        W95841   5.400  10.333   2.666
36581W        W95842  25.591  31.977   4.748
36582W        W95843  26.504  37.892   3.177
36583W        W95844  32.495  23.505  11.980
36584W        W95845  43.987  36.085   3.820
36585W        W95846  25.654  20.616   3.268
36586W        W95847  11.755  19.771   3.828
36587W        W95848  30.628  10.273  10.456
36588W        W95849  24.071  24.198   5.154
36589W        W95850  34.022  24.207   4.318
36590W        W95851   6.332  23.611   1.245
36591W        W95852  12.665   8.282   0.885
36592W        W95853   8.673  44.756   3.707
36593W        W95854  14.259  28.514  12.983
36594W        W95855  27.066  18.626   2.707
36595W        W95856  35.601  16.591  10.631
36596W        W95857  23.084  32.613   2.672
36597W        W95858  40.449   8.250   1.434
36598W        W95859  21.512   2.261   0.902
36599W        W95860  20.755  39.893   3.188
36600W        W95861  41.866  37.443   5.176
36601W        W95862  42.455  41.796  11.866
36602W        W95863  26.650   5.250  13.806
36603W        W95864   1.344  18.701   0.841
36604W        W95865  28.039  37.422  10.018
36605W        W95866  29.928   5.919   0.372
36606W        W95867   4.783  23.026  12.497
36607W        W95868  17.781  18.611   4.273
36608W        W95869  34.968  23.726  12.953
36609W        W95870   5.831  33.978  11.082
36610W        W95871   1.937  41.007   2.743
36611W        W95872   2.929  31.939  12.372
36612W        W95873   2.963  44.756   2.219
36613W        W95874  11.648  39.349  12.434
36614W        W95875  11.207  39.322  13.307
36615W        W95876  29.534  20.750   0.846
36616W        W95877  25.103  42.299   1.397
36617W        W95878   8.756  23.221  14.407
36618W        W95879  20.221   4.899  10.496
36619W        W95880  31.439  18.225  14.389
36620W        W95881  11.819   2.938  10.475
36621W        W95882  18.170  37.394   2.692
36622W        W95883  17.153  36.424   3.714
36623W        W95884  41.793  16.624   1.876
36624W        W95885  43.887   0.453   0.809
36625W        W95886   8.303  38.517   1.445
36626W        W95887  22.048  36.553  11.926
36627W        W95888  41.800  31.075   2.852
36628W        W95889  12.251  30.427   4.724
36629W        W95890  19.679  10.830  12.445
36630W        W95891  35.508  35.944   0.286
36631W        W95892  44.498  25.482  10.041
36632W        W95893  16.298  26.969  10.570
36633W        W95894   2.913  10.820  12.041
36634W        W95895  24.618  36.913  12.524
36635W        W95896  35.915  38.013  14.451
36636W        W95897  15.577  26.031  12.999
36637W        W95898   0.308  33.894   1.409
36638W        W95899  16.700  24.528  11.420
36639W        W95900  38.904  31.008  13.456
36640W        W95901  26.583  20.150   4.730
36641W        W95902  25.121  43.937  13.362
36642W        W95903   6.815  44.969  10.897
36643W        W95904   5.210  19.775   1.345
36644W        W95905  13.240  16.234   2.202
36645W        W95906  24.641  23.541  11.872
36646W        W95907   4.919  33.038   0.965
36647W        W95908  33.007  14.127   0.923
36648W        W95909   5.232  11.270   2.208
36649W        W95910  35.450  35.574   2.284
36650W        W95911  15.791  21.641  14.337
36651W        W95912  36.930  19.689  10.621
36652W        W95913  44.985   2.274   1.438
36653W        W95914  20.551  29.600   3.804
36654W        W95915  41.490  17.252  14.277
36655W        W95916   3.917  36.004  10.443
36656W        W95917   3.906  15.289   1.702
36657W        W95918   9.865  19.164  12.518
36658W        W95919   8.784  26.573   4.197
36659W        W95920   6.245  25.158   0.345
36660W        W95921  18.662  17.218  14.775
36661W        W95922  42.459  42.834  14.275
36662W        W95923  42.341  15.737  11.937
36663W        W95924   7.191  36.588  12.868
36664W        W95925   4.867  44.426   2.316
36665W        W95926  38.477  42.487  10.931
36666W        W95927  12.186  19.697   1.761
36667W        W95928  30.933   6.851  10.643
36668W        W95929  10.187   2.860   1.425
36669W        W95930  41.787  18.148   1.735
36670W        W95931  35.471  44.465   4.616
36671W        W95932  24.643   4.765   1.311
36672W        W95933  35.048  22.124  11.489
36673W        W95934  39.344  32.085  13.933
36674W        W95935  10.250  28.623  12.947
36675W        W95936  37.518  34.472  12.390
36676W        W95937  14.263  24.154   0.948
36677W        W95938   2.806   8.815  12.403
36678W        W95939  44.272  42.485   3.161
36679W        W95940  41.302  43.452   1.843
36680W        W95941  15.097  20.097  12.438
36681W        W95942   0.308   0.835   4.751
36682W        W95943  11.167  40.800   4.182
36683W        W95944  41.446  21.747  12.529
36684W        W95945  31.919  23.685   0.960
36685W        W95946  20.094  33.984   0.749
36686W        W95947  28.049  18.691   3.833
36687W        W95948  30.031   3.739   1.759
36688W        W95949  41.036   9.231  10.591
36689W        W95950  44.864   3.727  13.998
36690W        W95951  27.983  15.245  13.922
36691W        W95952  16.247  13.777   4.761
36692W        W95953   5.341  37.043  12.346
36693W        W95954  30.972  26.652   2.215
36694W        W95955  14.761  39.832   3.646
36695W        W95956  40.325  17.660   5.690
36696W        W95957   5.404  21.210  12.051
36697W        W95958  23.114  43.788   4.642
36698W        W95959  23.197  39.946   4.184
36699W        W95960  17.100  35.399   2.899
36700W        W95961  44.288  15.262  14.465
36701W        W95962   9.367  11.825  13.831
36702W        W95963  34.571  13.341   1.280
36703W        W95964  17.574  18.132  12.869
36704W        W95965  28.514  35.531   1.287
36705W        W95966  16.294  13.797   1.322
36706W        W95967  41.302  41.355   3.849
36707W        W95968  44.344  37.512  14.028
36708W        W95969  23.723  35.362   2.790
36709W        W95970  43.477  41.341   0.842
36710W        W95971  38.497  36.913  10.501
36711W        W95972   3.805  31.452  14.867
36712W        W95973   3.440  23.530  13.527
36713W        W95974  18.122  26.566   0.409
36714W        W95975  18.600  14.322  12.826
36715W        W95976  32.562   9.681   2.719
36716W        W95977   4.365  24.556  13.537
36717W        W95978  21.160  10.300   3.848
36718W        W95979  16.609  37.484   1.934
36719W        W95980   3.309  22.623  11.900
36720W        W95981  38.072  44.332  11.603
36721W        W95982  18.640   0.287  11.608
36722W        W95983  11.272  37.346   3.689
36723W        W95984  42.809  10.859  13.480
36724W        W95985   4.902  24.583   2.873
36725W        W95986  41.335  36.857  13.043
36726W        W95987  19.752  44.788  12.007
36727W        W95988  24.573  38.068   3.377
36728W        W95989  36.907  19.676   1.763
36729W        W95990   4.366  21.697  10.604
36730W        W95991  12.669  43.779   4.768
36731W        W95992  16.114  33.617   4.662
36732W        W95993  34.449  27.979  10.564
36733W        W95994   1.415  38.395  13.409
36734W        W95995  16.663  31.480   4.741
36735W        W95996   3.451   7.291  13.312
36736W        W95997  35.390  36.001   0.898
36737W        W95998  26.173  37.900   4.801
36738W        W95999  15.305   5.334   1.372
36739W        W96000  19.581  11.733   5.106
36740W        W96001  27.636  31.074  12.413
36741W        W96002  37.427  11.768   0.477
36742W        W96003  10.767  29.978   3.786
36743W        W96004  38.523  43.440   2.781
36744W        W96005  21.597  39.938   5.098
36745W        W96006  17.239  30.452  12.530
36746W        W96007  16.319  25.540   5.311
36747W        W96008  13.150  22.639  14.334
36748W        W96009   4.209  41.896  10.497
36749W        W96010   6.792  11.132  11.447
36750W        W96011  18.111   2.958  12.431
36751W        W96012   6.298  41.910   1.826
36752W        W96013  25.608  24.510   3.180
36753W        W96014  16.215   6.412   2.871
36754W        W96015  21.661  27.605   2.786
36755W        W96016  20.242   9.174   4.598
36756W        W96017  43.354  21.198  13.883
36757W        W96018  20.591  20.131  13.019
36758W        W96019  13.315  23.095   1.726
36759W        W96020  30.953   8.839   4.624
36760W        W96021  43.277  22.618  10.066
36761W        W96022  35.484  39.832  11.409
36762W        W96023  21.731  20.642   4.144
36763W        W96024  18.699  43.995   0.425
36764W        W96025  10.193  21.023  10.079
36765W        W96026  16.288  22.679   2.817
36766W        W96027  29.051   3.251  13.921
36767W        W96028   9.331   9.863  13.933
36768W        W96029  22.032  27.553  12.957
36769W        W96030  11.757  31.996   1.291
36770W        W96031  36.512  32.526  13.862
36771W        W96032   4.413  32.472   0.302
36772W        W96033  17.802  18.108   3.167
36773W        W96034   9.717  37.860  11.597
36774W        W96035  11.839  32.138  13.900
36775W        W96036  30.929  33.543   4.229
36776W        W96037  29.016   1.353   1.910
36777W        W96038  30.544  24.712  11.428
36778W        W96039  14.327  41.955  10.532
36779W        W96040  24.689  32.975   1.885
36780W        W96041  20.716  10.773  10.556
36781W        W96042  17.658  14.648  11.452
36782W        W96043  29.565  43.928  10.424
36783W        W96044  16.264  28.997  13.038
36784W        W96045  37.027  10.226  10.605
36785W        W96046   3.839  22.013   2.784
36786W        W96047   8.677   0.471  14.989
36787W        W96048  27.145  37.460  13.476
36788W        W96049  33.462  33.951   3.663
36789W        W96050  36.984  34.614   0.361
36790W        W96051  20.693  17.238  14.865
36791W        W96052   2.472   1.878   0.866
36792W        W96053  43.810   0.307  13.028
36793W        W96054  36.409  12.183   2.401
36794W        W96055  39.552  31.110   2.801
36795W        W96056  29.424  26.651   3.338
36796W        W96057   5.882   5.760  14.497
36797W        W96058  36.064  39.899   4.146
36798W        W96059  38.038   3.443  12.921
36799W        W96060  26.683  25.191  14.849
36800W        W96061  15.796  44.265  12.087
36801W        W96062  21.230  44.442   3.787
36802W        W96063  43.967  33.574   1.365
36803W        W96064   5.762   1.923  12.364
36804W        W96065  22.112   2.750  11.010
36805W        W96066  27.148  33.453   1.348
36806W        W96067  22.097  31.917  12.980
36807W        W96068  43.912  26.579  11.382
36808W        W96069  15.732  12.261   1.718
36809W        W96070  43.468  23.005  14.799
36810W        W96071  44.393  41.979   1.389
36811W        W96072  34.554  29.427  11.460
36812W        W96073  37.546  36.356   0.756
36813W        W96074   6.423  31.996  10.417
36814W        W96075  18.608  15.769   4.630
36815W        W96076   7.175  43.363  11.116
36816W        W96077  24.630   0.454   1.738
36817W        W96078  41.806  34.455  13.366
36818W        W96079  37.430  31.952  13.977
36819W        W96080   0.353  13.144  14.793
36820W        W96081   7.876  15.692  11.983
36821W        W96082  23.718  23.682   3.367
36822W        W96083   6.917  31.089  11.019
36823W        W96084   0.318  32.142  12.554
36824W        W96085   4.205  37.472   4.809
36825W        W96086   7.893  29.161  14.960
36826W        W96087  37.959  11.750   1.842
36827W        W96088   5.222  34.562  14.817
36828W        W96089  24.089  40.822   1.376
36829W        W96090   3.322   3.329  11.950
36830W        W96091   1.941  20.645   4.311
36831W        W96092   6.790   1.798   0.303
36832W        W96093  43.365  18.737   3.265
36833W        W96094  19.090  36.910   1.211
36834W        W96095  40.349  27.596  14.330
36835W        W96096  20.195   7.281   0.453
36836W        W96097  10.754  23.045   3.248
36837W        W96098  34.584  13.129   2.837
36838W        W96099   6.313  31.993  12.558
36839W        W96100  21.724   3.234   1.425
36840W        W96101   7.788  25.000   3.228
36841W        W96102  43.014  42.441  11.019
36842W        W96103  16.592  13.228  12.390
36843W        W96104  10.372   9.694   0.416
36844W        W96105   7.815  31.474  12.895
36845W        W96106  35.921  35.925   0.852
36846W        W96107  15.646  12.164  10.482
36847W        W96108   0.380  10.385   0.264
36848W        W96109   0.879  18.601  13.307
36849W        W96110  31.098  38.075  11.887
36850W        W96111  40.438  42.980  13.954
36851W        W96112   3.364  44.450   3.147
36852W        W96113  43.871   5.432  11.421
36853W        W96114  39.048  22.537  13.870
36854W        W96115  22.115  17.618   3.317
36855W        W96116   9.647  37.019  10.579
36856W        W96117  10.637  33.923  12.065
36857W        W96118   3.398  12.796   4.736
36858W        W96119  26.660  24.082   2.380
36859W        W96120  17.628  27.567   2.321
36860W        W96121  40.815  21.117   0.463
36861W        W96122  22.060  26.553  12.977
36862W        W96123  13.131   8.793   0.299
36863W        W96124   5.852  31.609  13.846
36864W        W96125  36.543  16.219  13.995
36865W        W96126  44.296  10.144   5.269
36866W        W96127   2.884  30.464   3.866
36867W        W96128  35.392  34.075  13.797
36868W        W96129  26.048  24.640   3.355
36869W        W96130  44.766  23.203   2.876
36870W        W96131  23.209  39.400  14.493
36871W        W96132  20.568  24.651   1.256
36872W        W96133  13.674  12.219  11.907
36873W        W96134  27.999  40.454   3.194
36874W        W96135  44.877   8.710  12.575
36875W        W96136  17.746  29.559   2.742
36876W        W96137   3.841  19.643   2.793
36877W        W96138  21.125  16.655   1.760
36878W        W96139   6.766  22.678  11.566
36879W        W96140  12.167   2.793  12.423
36880W        W96141  28.463  24.006   3.243
36881W        W96142   4.747  12.614   4.347
36882W        W96143  18.723  15.738  10.630
36883W        W96144  28.956   0.396  14.318
36884W        W96145   7.296   6.266  13.447
36885W        W96146  28.053  41.347   3.227
36886W        W96147   2.284  32.474   3.783
36887W        W96148  34.041  17.575   3.643
36888W        W96149  10.774   2.819   4.725
36889W        W96150   2.915  10.153  13.834
36890W        W96151  26.078  37.451  13.827
36891W        W96152  37.991   8.350   0.478
36892W        W96153  25.669   9.838   1.393
36893W        W96154  22.546  39.313   2.193
36894W        W96155  41.813  33.088  14.817
36895W        W96156  25.997   0.423  10.945
36896W        W96157   2.870   1.328   0.300
36897W        W96158   7.310  39.341   1.323
36898W        W96159  34.863   7.827   2.868
36899W        W96160  20.686  38.974  12.568
36900W        W96161  39.359   4.353   1.848
36901W        W96162  27.946   9.741  14.794
36902W        W96163   0.348   1.777   0.811
36903W        W96164  23.641   7.294   3.244
36904W        W96165  32.461  31.548  12.471
36905W        W96166  13.625  36.530  10.514
36906W        W96167  11.182  31.994  12.415
36907W        W96168   1.874  23.014   3.353
36908W        W96169  25.554  37.510  10.523
36909W        W96170  28.579   8.329  14.904
36910W        W96171  12.846   0.427  13.420
36911W        W96172  14.825  13.306  11.571
36912W        W96173  11.757  24.711  13.496
36913W        W96174  18.284  42.866   1.818
36914W        W96175  27.961  37.028   4.148
36915W        W96176   9.729  35.495  10.554
36916W        W96177  34.501  37.533  11.077
36917W        W96178   1.285  40.335  11.081
36918W        W96179  42.812  31.975  12.512
36919W        W96180   9.709  12.800   1.431
36920W        W96181  44.418  21.566  12.437
36921W        W96182  33.450  37.354  10.922
36922W        W96183   9.756   4.246  13.445
36923W        W96184  17.162  43.965   2.789
36924W        W96185   4.871  23.127  11.573
36925W        W96186  29.061   3.836   1.809
36926W        W96187  33.043   0.383   0.850
36927W        W96188  20.193  41.531  13.487
36928W        W96189  12.297  30.579  12.902
36929W        W96190  32.003   7.407  13.435
36930W        W96191  23.639  19.674   0.840
36931W        W96192  25.964  32.538   1.362
36932W        W96193  42.451  34.118   3.840
36933W        W96194  14.180  11.634  11.962
36934W        W96195   6.704   8.185   4.190
36935W        W96196  15.121  15.311  14.867
36936W        W96197  26.204   4.893   0.331
36937W        W96198  25.532   5.887   3.168
36938W        W96199  37.392  19.118   2.719
36939W        W96200  23.031   6.870  10.449
36940W        W96201  23.238  39.972   0.267
36941W        W96202  22.087  34.600   1.751
36942W        W96203  30.070   1.742  10.949
36943W        W96204   9.235  10.691   0.930
36944W        W96205   4.278   6.196   1.277
36945W        W96206   4.787  11.774  14.026
36946W        W96207  28.493   1.862  11.540
36947W        W96208  36.390  34.517   3.161
36948W        W96209  13.657  12.273  14.434
36949W        W96210  11.750  23.730  14.860
36950W        W96211  24.713  34.396   2.693
36951W        W96212   0.761  44.282  14.939
36952W        W96213  22.627  26.583  13.929
36953W        W96214  36.535   3.238   1.812
36954W        W96215  39.979  35.856   2.254
36955W        W96216  28.499  40.994   3.776
36956W        W96217   6.922  24.613  10.518
36957W        W96218  16.202  29.610   4.745
36958W        W96219   7.854  38.955   3.262
36959W        W96220  32.420  32.116  13.874
36960W        W96221  21.103  35.931  13.846
36961W        W96222  43.397  39.445  10.520
36962W        W96223   5.756  36.866   4.773
36963W        W96224  25.105   8.330  13.871
36964W        W96225  25.631   8.859   2.720
36965W        W96226  10.648  17.127  12.478
36966W        W96227  35.067  21.593   3.787
36967W        W96228  35.050  11.780   1.807
36968W        W96229  17.289  39.044  11.038
36969W        W96230  39.937  34.076   2.667
36970W        W96231  43.000  31.990  11.976
36971W        W96232  29.155  42.861  11.441
36972W        W96233   5.321  16.755   2.836
36973W        W96234  31.445  34.614   0.302
36974W        W96235  19.740   7.853  14.319
36975W        W96236  14.114  21.668   3.668
36976W        W96237  21.130  44.936   0.315
36977W        W96238   3.729   5.380   2.881
36978W        W96239  36.073  32.601   0.281
36979W        W96240  21.152  42.328  14.496
36980W        W96241  14.235  39.857  12.947
36981W        W96242  42.872  42.022   0.304
36982W        W96243  37.506  37.961   0.938
36983W        W96244  34.911  25.652  13.541
36984W        W96245  28.155  10.644   4.695
36985W        W96246  13.318  22.610  14.772
36986W        W96247  29.527  28.053   9.922
36987W        W96248  10.671   3.955   4.638
36988W        W96249  26.484  44.854  11.015
36989W        W96250   6.751  31.552  13.835
36990W        W96251   7.184  38.985  13.522
36991W        W96252  33.538  38.949  13.938
36992W        W96253  11.203  22.999   2.292
36993W        W96254  17.289   2.752   2.383
36994W        W96255  37.423  43.864  12.393
36995W        W96256   5.866  26.545  11.098
36996W        W96257  11.824  13.751   2.837
36997W        W96258  23.660  28.505   4.145
36998W        W96259  36.874  41.532   4.224
36999W        W96260  17.795  12.734  12.827
37000W        W96261  37.536  15.192   3.264
37001W        W96262  21.656  37.904   3.726
37002W        W96263  20.676  37.919  12.014
37003W        W96264   5.771   2.439  13.491
37004W        W96265   4.860  17.618   0.962
37005W        W96266   0.425  11.731   3.799
37006W        W96267  30.956  19.281  13.441
37007W        W96268  33.996  23.241   1.846
37008W        W96269  10.155  25.073  14.840
37009W        W96270  11.850  12.268   0.351
37010W        W96271  23.114  30.612   2.751
37011W        W96272  14.191  38.921   1.760
37012W        W96273   1.858  18.124   3.387
37013W        W96274  27.461  43.964  13.001
37014W        W96275  36.056  43.407   4.828
37015W        W96276   5.697  32.026   1.752
37016W        W96277  36.887  23.237  12.830
37017W        W96278   1.476   9.208  12.082
37018W        W96279   4.898  26.483  12.842
37019W        W96280  19.216  35.891  11.065
37020W        W96281   1.390  19.767  14.890
37021W        W96282   6.205   3.877   0.731
37022W        W96283  33.052  29.982  14.397
37023W        W96284  24.016  42.921   3.728
37024W        W96285   7.866  10.282  12.002
37025W        W96286   3.242  17.785   2.899
37026W        W96287  40.854   7.844   2.799
37027W        W96288  41.005  24.047  11.930
37028W        W96289   9.818   5.764   0.799
37029W        W96290   8.696  21.552   4.796
37030W        W96291  28.941   4.916  11.044
37031W        W96292  19.768  42.289  13.529
37032W        W96293   5.737   3.225  11.426
37033W        W96294   0.459   6.808   2.230
37034W        W96295   0.747   0.791   0.735
37035W        W96296  21.549  12.839   2.813
37036W        W96297  36.515  30.474  10.095
37037W        W96298  12.816  38.966   4.189
37038W        W96299  37.872  42.482  14.846
37039W        W96300   8.888  18.689  10.904
37040W        W96301  27.485  12.353   0.422
37041W        W96302   6.342  21.216   5.143
37042W        W96303  17.194  11.205  12.404
37043W        W96304  12.317  43.507  10.490
37044W        W96305  28.562   0.434   2.242
37045W        W96306   5.870   0.335   4.214
37046W        W96307   3.742   2.409  11.877
37047W        W96308  43.930  34.551   4.630
37048W        W96309  13.121  13.140  12.096
37049W        W96310  13.242  16.725   3.173
37050W        W96311  33.548  13.825   0.464
37051W        W96312  41.836  12.244   2.715
37052W        W96313  27.544   2.402  10.607
37053W        W96314   7.818  17.728  12.517
37054W        W96315  13.830   1.374   0.853
37055W        W96316   9.241  40.428  13.363
37056W        W96317  30.021  18.197  10.561
37057W        W96318   8.359  17.742   2.798
37058W        W96319  13.208  34.564   1.771
37059W        W96320  27.629  41.794  14.965
37060W        W96321  40.400  28.470  11.376
37061W        W96322  44.350  24.655   3.819
37062W        W96323  28.976  37.514  11.105
37063W        W96324  17.095  33.624  10.408
37064W        W96325   8.350  21.648  13.535
37065W        W96326   4.384  25.502  13.412
37066W        W96327  26.629   2.877  10.593
37067W        W96328  38.956   1.834  14.799
37068W        W96329  29.488   7.373   2.221
37069W        W96330  15.239  37.570  14.901
37070W        W96331  33.473   3.312   2.761
37071W        W96332  43.438  40.020  10.596
37072W        W96333  36.879  23.631  12.904
37073W        W96334  23.725  42.804   0.728
37074W        W96335  41.983  44.416   9.956
37075W        W96336  29.622  15.117   0.282
37076W        W96337  27.151  16.600  14.915
37077W        W96338  21.653  26.524  12.958
37078W        W96339   8.734   2.833   3.368
37079W        W96340  22.104  32.472  10.930
37080W        W96341   8.302   7.732   9.479
37081W        W96342  16.167  43.897  13.470
37082W        W96343  36.374  35.096   2.379
37083W        W96344  37.859  32.981   0.336
37084W        W96345  31.043  22.578  13.369
37085W        W96346  44.868  17.594   2.898
37086W        W96347  18.728  32.403   3.358
37087W        W96348   5.727  30.591  12.081
37088W        W96349  35.486  20.088  10.591
37089W        W96350  31.116  35.048  14.298
37090W        W96351  24.060  25.639  14.834
37091W        W96352  15.777  14.233   1.742
37092W        W96353  32.391   3.262  13.531
37093W        W96354  33.124  25.966   1.448
37094W        W96355  26.574  28.046  10.114
37095W        W96356  43.362  39.506   4.277
37096W        W96357   8.245  21.690  14.365
37097W        W96358  29.082   4.917   2.760
37098W        W96359  25.711  16.274  13.511
37099W        W96360   7.839  37.848  14.876
37100W        W96361  43.789  39.037  12.031
37101W        W96362  41.989   3.321   1.307
37102W        W96363   2.820  38.556  11.574
37103W        W96364  37.358  13.159   1.225
37104W        W96365  17.624  38.529   3.695
37105W        W96366  33.940  35.580  14.816
37106W        W96367  44.410  14.747   5.222
37107W        W96368   5.833  44.981  12.519
37108W        W96369   6.890   2.780   3.325
37109W        W96370  10.706  43.299   2.210
37110W        W96371  28.152  23.130  10.547
37111W        W96372  27.609   9.332   2.848
37112W        W96373  42.363   3.835  12.095
37113W        W96374  19.230  35.914  14.302
37114W        W96375  44.415  32.397   2.878
37115W        W96376  43.968  20.070   1.399
37116W        W96377  36.052   0.908   0.801
37117W        W96378  11.630  21.723   0.475
37118W        W96379  10.760  29.646   2.251
37119W        W96380  25.474  36.955  12.932
37120W        W96381   5.272  30.593  14.362
37121W        W96382  42.424  41.876  14.386
37122W        W96383  11.326  20.142   0.364
37123W        W96384  19.041  22.734   3.796
37124W        W96385  31.920  27.501  14.892
37125W        W96386  32.088   9.319   3.869
37126W        W96387  40.811  27.983  12.470
37127W        W96388  36.910  38.334   3.304
37128W        W96389  19.572  30.056  12.848
37129W        W96390  20.145  31.465   0.805
37130W        W96391  16.147   8.703   2.675
37131W        W96392  17.148  44.484  14.867
37132W        W96393  16.613  19.752   3.147
37133W        W96394  28.594   4.719   1.329
37134W        W96395  38.498  31.944  13.065
37135W        W96396  28.106  26.601  14.993
37136W        W96397   3.399  18.293   0.968
37137W        W96398  28.537  21.095   3.787
37138W        W96399  37.465  43.468  11.056
37139W        W96400  27.656  12.257  11.532
37140W        W96401  13.266   3.397  12.374
37141W        W96402  15.108  42.884  11.375
37142W        W96403  22.188   0.411   0.904
37143W        W96404  22.143  34.942   2.750
37144W        W96405  26.129   2.965  12.022
37145W        W96406  17.193  25.508  12.540
37146W        W96407  21.598   4.316  10.625
37147W        W96408  30.540  37.492   4.114
37148W        W96409  13.121  20.563  10.412
37149W        W96410  44.487  32.491  11.126
37150W        W96411  28.497  32.038   3.385
37151W        W96412   5.228  38.840   1.755
37152W        W96413  19.057  22.729   0.853
37153W        W96414  22.714  34.880  11.996
37154W        W96415  37.027  25.150  12.955
37155W        W96416  34.553  30.067   4.191
37156W        W96417  35.528  12.773  14.434
37157W        W96418  40.872  41.848   0.748
37158W        W96419  12.246  34.478  14.818
37159W        W96420  31.909  26.110  12.953
37160W        W96421  35.604  21.689   3.766
37161W        W96422  39.927  35.858  14.480
37162W        W96423   6.361  23.622   4.703
37163W        W96424  42.417  14.187   5.319
37164W        W96425  17.154  18.281   4.354
37165W        W96426   7.766  31.959   0.369
37166W        W96427  12.319  10.680   2.332
37167W        W96428   1.957  31.072   3.296
37168W        W96429   8.346   8.728   0.894
37169W        W96430  15.138  24.164  12.994
37170W        W96431  42.842  43.964   0.446
37171W        W96432  26.700  24.064  13.834
37172W        W96433  33.074  25.538   2.698
37173W        W96434   1.824  41.948   0.726
37174W        W96435  38.334   2.753  10.979
37175W        W96436   6.357   3.251  12.971
37176W        W96437  41.485  43.503  13.409
37177W        W96438  29.607  30.004  14.276
37178W        W96439  10.821   3.451   4.220
37179W        W96440  44.933   6.896  12.513
37180W        W96441  13.304   7.365   0.838
37181W        W96442  38.899  21.031   9.971
37182W        W96443  26.111   6.856   1.248
37183W        W96444  44.337  29.923   3.214
37184W        W96445  12.204  30.923   4.171
37185W        W96446   0.296   0.353  10.525
37186W        W96447  22.039  41.472  14.974
37187W        W96448  22.652  44.005  10.968
37188W        W96449  12.664  20.757  11.966
37189W        W96450  30.561  11.734  10.629
37190W        W96451  43.447   8.755   1.420
37191W        W96452  14.659  26.630   2.377
37192W        W96453  43.021  44.403  14.420
37193W        W96454  38.931  12.817  10.529
37194W        W96455  34.973  44.263  13.895
37195W        W96456  44.797  21.709  11.866
37196W        W96457  22.159   5.791  13.317
37197W        W96458   8.704  24.172   3.672
37198W        W96459  44.453   3.263   1.765
37199W        W96460  43.854  33.040  13.483
37200W        W96461  32.514  11.152   0.812
37201W        W96462  29.078  10.251  11.554
37202W        W96463  31.469  38.519   1.403
37203W        W96464  29.516  23.645  14.394
37204W        W96465  16.661   3.828   3.194
37205W        W96466  22.638  14.665  13.000
37206W        W96467  35.049  13.221   3.272
37207W        W96468  37.342  33.993   4.315
37208W        W96469  33.029   2.254   4.763
37209W        W96470  42.326  16.682   2.309
37210W        W96471  43.923   5.825  11.497
37211W        W96472  18.270  21.139   1.251
37212W        W96473   4.930  34.028  12.561
37213W        W96474   3.854  13.185  11.098
37214W        W96475  22.731   0.859   4.152
37215W        W96476  13.766  39.368  13.037
37216W        W96477  15.135  16.193   1.731
37217W        W96478  44.907  13.119   2.686
37218W        W96479  27.622   6.261  10.608
37219W        W96480  21.204  31.554  10.473
37220W        W96481  25.185  44.457  14.877
37221W        W96482   1.361  20.115   4.239
37222W        W96483  24.217  33.959   2.812
37223W        W96484  18.122  35.398   1.450
37224W        W96485   0.773  36.389  11.122
37225W        W96486  21.145   4.914   4.188
37226W        W96487  25.163  18.144   3.785
37227W        W96488  27.083  18.279   1.357
37228W        W96489  17.571  26.507  12.500
37229W        W96490   5.804  11.364   3.772
37230W        W96491  20.618  31.441   3.649
37231W        W96492  25.596  42.500   0.476
37232W        W96493  20.569  33.496   0.431
37233W        W96494   1.930  25.215  13.364
37234W        W96495  37.538  20.542   2.388
37235W        W96496  20.693  38.924   1.801
37236W        W96497   4.866  11.824  11.519
37237W        W96498  24.014  37.493   0.902
37238W        W96499  13.724  27.017   5.142
37239W        W96500  21.131  18.566   3.255
37240W        W96501  38.943   2.891   4.284
37241W        W96502  14.670   9.775   4.800
37242W        W96503  40.849   6.849   3.226
37243W        W96504  12.824  28.050  11.907
37244W        W96505  38.893  25.054   0.284
37245W        W96506  37.358  30.592   3.699
37246W        W96507   9.262  44.890   1.698
37247W        W96508  34.102  24.678  11.894
37248W        W96509  35.489  19.558  14.030
37249W        W96510  43.813  40.991   4.235
37250W        W96511  31.476   1.356   2.296
37251W        W96512  12.353  13.755   3.184
37252W        W96513  32.009  13.831  14.401
37253W        W96514  21.674  14.106  14.993
37254W        W96515  21.528  33.046   0.884
37255W        W96516  44.939   6.834  10.597
37256W        W96517   9.759  34.370  14.994
37257W        W96518  39.465  21.040   3.379
37258W        W96519  31.493  26.461   2.806
37259W        W96520  17.136  44.268  12.468
37260W        W96521  35.954  22.997  13.867
37261W        W96522  41.980  20.549   3.211
37262W        W96523  16.642  34.065  11.517
37263W        W96524   0.985  32.928   4.275
37264W        W96525  34.082  42.033  14.377
37265W        W96526  25.709  22.713  14.408
37266W        W96527  11.795  38.897   0.835
37267W        W96528  15.131  41.908  13.042
37268W        W96529   1.337  26.671  12.968
37269W        W96530   4.272   2.917  12.559
37270W        W96531   9.698  18.060   2.346
37271W        W96532   5.752  25.698  14.358
37272W        W96533  11.708  23.237   9.976
37273W        W96534  10.200  34.612   1.722
37274W        W96535   5.907  16.704   0.780
37275W        W96536  37.459  14.155   1.439
37276W        W96537  31.958   0.963  14.358
37277W        W96538  39.323  36.863   2.875
37278W        W96539  33.436  28.145  13.046
37279W        W96540  15.695  14.608  12.364
37280W        W96541  39.559   7.330   1.898
37281W        W96542  39.980  27.481  12.443
37282W        W96543  40.827  25.999  14.391
37283W        W96544   5.225  35.437   2.342
37284W        W96545   3.932   9.304  13.947
37285W        W96546   1.945   3.350  14.316
37286W        W96547  20.673  22.569   4.738
37287W        W96548   2.325  20.547  12.490
37288W        W96549  42.813  23.708  14.797
37289W        W96550  39.384  40.393   3.835
37290W        W96551  18.181   6.213  12.464
37291W        W96552  41.441  44.261  11.511
37292W        W96553   4.368  26.528  11.418
37293W        W96554  10.196  12.748   0.885
37294W        W96555  34.470  42.523  10.624
37295W        W96556  25.000   2.876  13.374
37296W        W96557  18.052  10.194   4.168
37297W        W96558  23.001   0.278   3.320
37298W        W96559   8.849  35.568   1.887
37299W        W96560   7.889  19.591  14.022
37300W        W96561  30.550  37.475  10.112
37301W        W96562  19.114  11.845   4.227
37302W        W96563  25.597  14.608  14.848
37303W        W96564  16.801   2.910   2.756
37304W        W96565  44.340  26.685   1.821
37305W        W96566  23.136  44.906  12.363
37306W        W96567  24.983  19.194  13.901
37307W        W96568  28.991  21.675   2.350
37308W        W96569  18.053  43.302  13.530
37309W        W96570  41.442  23.167   3.731
37310W        W96571  17.743  43.419   2.351
37311W        W96572  32.562  44.996  13.355
37312W        W96573  31.425  24.503   3.360
37313W        W96574  22.514  27.161   2.321
37314W        W96575  38.442  27.025   4.700
37315W        W96576  13.634  36.465   3.823
37316W        W96577  18.695  11.751  14.972
37317W        W96578  43.021  20.588  14.889
37318W        W96579  19.139  24.523  11.444
37319W        W96580  31.917  34.597  10.452
37320W        W96581  44.465  23.091   1.705
37321W        W96582  34.499  11.333   2.671
37322W        W96583  42.446   2.412   3.716
37323W        W96584  24.715  18.754  12.959
37324W        W96585  11.804  25.516   2.179
37325W        W96586   7.882  15.755   0.396
37326W        W96587  10.291   7.204   1.243
37327W        W96588  27.061  12.847   2.194
37328W        W96589  37.857  31.092   3.286
37329W        W96590   8.335  42.860   1.757
37330W        W96591  39.969   9.203  11.900
37331W        W96592  21.643  10.694   4.287
37332W        W96593  34.056  29.522   4.705
37333W        W96594   9.861   9.236  12.482
37334W        W96595  23.537  37.567   0.796
37335W        W96596  26.154  39.985   4.281
37336W        W96597  13.122  23.582   3.241
37337W        W96598   2.765   8.404  11.393
37338W        W96599  34.960  30.962   2.701
37339W        W96600  33.576  17.776  14.425
37340W        W96601   8.209   1.912  10.956
37341W        W96602  23.183  21.543   4.630
37342W        W96603  27.616  15.318   3.643
37343W        W96604  34.059  39.983   0.421
37344W        W96605  28.638  41.420  14.430
37345W        W96606  33.042  26.651  13.523
37346W        W96607  29.516  36.391   0.870
37347W        W96608  16.599  18.741   2.221
37348W        W96609  44.373  14.098  12.463
37349W        W96610  44.457   1.976   4.133
37350W        W96611  24.035  37.496  10.926
37351W        W96612  31.123  22.209  12.353
37352W        W96613  26.107   8.178   1.703
37353W        W96614  21.197  22.052   0.359
37354W        W96615  21.159   5.204  12.030
37355W        W96616   0.431  20.180  10.494
37356W        W96617  14.692  30.539  14.934
37357W        W96618  29.972  22.054  14.842
37358W        W96619   5.256  10.828  14.011
37359W        W96620  18.293  40.520   0.242
37360W        W96621  44.003   5.734  12.979
37361W        W96622  10.185  36.453  10.559
37362W        W96623  28.104  43.901   3.165
37363W        W96624  22.531  42.403   4.660
37364W        W96625   1.284  38.941   0.358
37365W        W96626  26.106  16.235   3.181
37366W        W96627   7.792  40.390  12.975
37367W        W96628  20.606   6.427   4.617
37368W        W96629  36.029  40.421   1.223
37369W        W96630  32.033   2.875   1.766
37370W        W96631   3.778  29.963  13.308
37371W        W96632  42.518  21.047   0.449
37372W        W96633  25.041   9.850  12.943
37373W        W96634  37.518   8.247  11.611
37374W        W96635   9.224  41.292  11.084
37375W        W96636  26.022  39.403  12.564
37376W        W96637  16.598   7.302  10.941
37377W        W96638   8.738  38.466  14.769
37378W        W96639  21.145  16.278  14.771
37379W        W96640  34.422   0.480  13.430
37380W        W96641  35.598   8.778  11.940
37381W        W96642  11.170   8.691   4.166
37382W        W96643  37.441   5.349   4.680
37383W        W96644   2.298  41.963  14.983
37384W        W96645  40.533  25.543   2.236
37385W        W96646  16.226  39.876  10.536
37386W        W96647  35.464   6.319   0.928
37387W        W96648  27.122  41.463   3.718
37388W        W96649  43.396  24.078   1.275
37389W        W96650  39.558  39.473   2.292
37390W        W96651   4.365  10.161  12.358
37391W        W96652  20.607   1.323  13.895
37392W        W96653  44.760   7.233  13.410
37393W        W96654  42.871  30.995   0.961
37394W        W96655  32.572  34.538  12.404
37395W        W96656  31.423  31.440   4.794
37396W        W96657  35.973  22.071  14.840
37397W        W96658  40.924  16.789  12.862
37398W        W96659  17.754   5.309  14.996
37399W        W96660  20.755   3.415   1.782
37400W        W96661  40.455  39.877  10.071
37401W        W96662  30.645   4.854  10.986
37402W        W96663  31.107  34.947  11.971
37403W        W96664  39.997   6.291   2.712
37404W        W96665  34.496  10.188   1.410
37405W        W96666  36.080  34.385  14.285
37406W        W96667  38.421  16.567  14.308
37407W        W96668   6.700  34.387  11.945
37408W        W96669   3.404  36.392  11.389
37409W        W96670  40.398  10.272  14.966
37410W        W96671  24.209  15.577   2.869
37411W        W96672  12.155  17.668   2.791
37412W        W96673  34.551  20.545  11.433
37413W        W96674   8.738  21.042   3.248
37414W        W96675  42.484   3.757   4.800
37415W        W96676  18.586  27.061   2.681
37416W        W96677  29.049  20.762  12.547
37417W        W96678  13.686  21.198   2.288
37418W        W96679  38.884  29.546  12.418
37419W        W96680  29.999  36.032  12.561
37420W        W96681  32.130   1.739  14.506
37421W        W96682  26.687  13.126   1.828
37422W        W96683  32.489  21.260   3.231
37423W        W96684  27.507  11.172   3.206
37424W        W96685   4.372   9.174  14.858
37425W        W96686   4.213  43.796   4.731
37426W        W96687   0.924  14.684   4.156
37427W        W96688  27.169  39.421  10.900
37428W        W96689  29.624  14.727  13.487
37429W        W96690  29.460  26.056   2.741
37430W        W96691   3.731  28.438  13.816
37431W        W96692   7.277  10.862  13.325
37432W        W96693   3.713  18.737  10.605
37433W        W96694   3.348  16.642  10.420
37434W        W96695  43.913  37.376  13.354
37435W        W96696  31.422   8.781   3.771
37436W        W96697  43.819   6.417  14.314
37437W        W96698  26.987  26.476  10.950
37438W        W96699  37.947  42.448   1.354
37439W        W96700  39.348  33.924  14.441
37440W        W96701  32.958  11.745  12.486
37441W        W96702  43.856  19.701   0.300
37442W        W96703   6.847  41.363  12.375
37443W        W96704   6.848  23.209   2.221
37444W        W96705  30.523  40.466  12.852
37445W        W96706  34.501  42.947   4.333
37446W        W96707  16.142  36.440  14.977
37447W        W96708   6.706  33.520  12.571
37448W        W96709  35.471  17.224  13.909
37449W        W96710  38.329  44.818  12.931
37450W        W96711  12.798   1.466   0.255
37451W        W96712  38.977  16.716   1.388
37452W        W96713  20.075  32.128  12.921
37453W        W96714   7.292   2.323  13.379
37454W        W96715   8.808  11.701   2.691
37455W        W96716  20.164  18.245   0.860
37456W        W96717  20.757  30.611   4.307
37457W        W96718  44.759  11.331  11.934
37458W        W96719  29.016  30.618  11.912
37459W        W96720  24.180  37.856  14.799
37460W        W96721  36.387  41.899   2.761
37461W        W96722  20.108  40.953  12.571
37462W        W96723   5.795  38.544  11.412
37463W        W96724  28.183  38.977   4.158
37464W        W96725  10.739  26.494   1.278
37465W        W96726  40.047   1.352  12.859
37466W        W96727   4.376  27.119  11.994
37467W        W96728  37.052   5.347   4.242
37468W        W96729  15.757  28.980   4.820
37469W        W96730  30.590  28.580  13.805
37470W        W96731  38.503  32.075   0.916
37471W        W96732  30.655  28.612   4.790
37472W        W96733  13.242  40.519   0.812
37473W        W96734  16.172  10.228  14.847
37474W        W96735  30.514  34.030  12.541
37475W        W96736  27.470  35.100   4.630
37476W        W96737   2.920  21.602  11.377
37477W        W96738  39.884   8.697   0.412
37478W        W96739  18.671  39.853   2.790
37479W        W96740  31.469  21.087  10.483
37480W        W96741  41.800  26.518   5.230
37481W        W96742  44.933  24.079   0.883
37482W        W96743  44.866   7.396   4.232
37483W        W96744  38.445  19.673   2.900
37484W        W96745  30.414  44.829  12.380
37485W        W96746  25.689  42.400   3.244
37486W        W96747  15.687   0.860   4.744
37487W        W96748  36.477  43.861  10.534
37488W        W96749   7.881  33.008  11.919
37489W        W96750   9.197  42.993  11.456
37490W        W96751   0.447  37.863  14.483
37491W        W96752   1.895   4.896  10.474
37492W        W96753  44.940  20.091   0.943
37493W        W96754  36.352  36.019  14.837
37494W        W96755  41.304  30.516  12.397
37495W        W96756  36.576  22.652  13.035
37496W        W96757  43.416  25.502   3.200
37497W        W96758   9.341  14.792   0.415
37498W        W96759  22.015  44.857  14.453
37499W        W96760  21.746  26.951   2.671
37500W        W96761  12.150  32.140   5.118
37501W        W96762   8.752  44.459   3.361
37502W        W96763   2.390  33.505  14.506
37503W        W96764   2.403  34.383   0.940
37504W        W96765  25.534  44.266   1.227
37505W        W96766   0.323  12.755   1.302
37506W        W96767  35.067  40.804  14.876
37507W        W96768  16.267  16.244   1.876
37508W        W96769  23.559  13.835   1.343
37509W        W96770  14.789  21.202  12.552
37510W        W96771  44.821   3.949  12.529
37511W        W96772   9.257  20.087   4.839
37512W        W96773  21.142  25.632  11.516
37513W        W96774  42.937   5.389  14.795
37514W        W96775  34.401  18.280   3.194
37515W        W96776  21.225  12.848   4.706
37516W        W96777  29.074  31.981   3.385
37517W        W96778  37.951  26.499  14.456
37518W        W96779  18.130  17.626  12.977
37519W        W96780  34.439   2.402   4.323
37520W        W96781   7.214  20.524   3.151
37521W        W96782  13.241  27.561  14.855
37522W        W96783   7.332  38.856  10.533
37523W        W96784  41.809  32.616   2.772
37524W        W96785  41.040  10.355  13.544
37525W        W96786  41.350   7.824   0.287
37526W        W96787  30.625  34.900   1.790
37527W        W96788  37.874  26.079  14.010
37528W        W96789  24.030  33.032   3.826
37529W        W96790  17.686  14.624   4.128
37530W        W96791  13.234  27.448  10.991
37531W        W96792  22.664  16.719  14.293
37532W        W96793  36.502  37.857  12.529
37533W        W96794  13.831  43.805  14.966
37534W        W96795  33.008   7.353  11.581
37535W        W96796   5.876  33.089   2.879
37536W        W96797  22.153  21.129   3.323
37537W        W96798  35.983   8.899  13.967
37538W        W96799   9.830  36.096   0.868
37539W        W96800  34.096   9.811   3.178
37540W        W96801   3.427  29.623  13.451
37541W        W96802  39.893   8.756   2.302
37542W        W96803   5.373  14.760   4.224
37543W        W96804  39.539  31.986  11.940
37544W        W96805  22.107   1.430  10.457
37545W        W96806  16.241   1.942   5.086
37546W        W96807  16.675  32.987  10.437
37547W        W96808  29.493  31.146   0.750
37548W        W96809  19.158  26.607   4.245
37549W        W96810   8.738  27.000   4.255
37550W        W96811  44.002   7.865   3.832
37551W        W96812   9.746  25.125   2.363
37552W        W96813  30.648  36.048  13.851
37553W        W96814  40.324  17.168   3.818
37554W        W96815   8.843  39.831  13.516
37555W        W96816   8.311  40.398  11.456
37556W        W96817  40.029  28.660   4.200
37557W        W96818  19.595  23.580  14.953
37558W        W96819   7.755  23.614  10.959
37559W        W96820  13.322   1.267   3.237
37560W        W96821   9.210  39.961  14.767
37561W        W96822  33.615  40.385   1.388
37562W        W96823  19.123  19.608   2.704
37563W        W96824  37.013  30.549   4.195
37564W        W96825  34.995  13.230  14.784
37565W        W96826  12.638   2.380  12.905
37566W        W96827  35.574  14.269   3.302
37567W        W96828  28.530  15.228  10.476
37568W        W96829  25.507  33.572  12.015
37569W        W96830   1.819  17.760  13.429
37570W        W96831  34.957  20.601  13.507
37571W        W96832  41.439  29.078   0.253
37572W        W96833  43.940  35.961   5.236
37573W        W96834   2.818  35.521  10.467
37574W        W96835  10.855  43.280   4.212
37575W        W96836  10.644  10.708  12.373
37576W        W96837  33.992  25.062   3.642
37577W        W96838  17.230  28.051   1.712
37578W        W96839  37.923  13.674   1.376
37579W        W96840  38.861  27.046   4.619
37580W        W96841  39.862  22.213   0.387
37581W        W96842  14.756  37.346   4.796
37582W        W96843  30.656  36.841  14.499
37583W        W96844  21.244  39.846   4.773
37584W        W96845  11.843  25.047   2.717
37585W        W96846  17.261  21.524   3.767
37586W        W96847  44.413  32.086   9.946
37587W        W96848  31.026  29.460   3.242
37588W        W96849  16.805  25.988   9.923
37589W        W96850  21.749  32.112  11.608
37590W        W96851  36.517  34.506  12.078
37591W        W96852  19.078  11.224   1.423
37592W        W96853  32.430   9.805  12.529
37593W        W96854   7.398  28.513   4.180
37594W        W96855  14.277   0.303  12.917
37595W        W96856  16.266   8.692  12.888
37596W        W96857  35.583  10.714   0.895
37597W        W96858  34.476  37.434  12.044
37598W        W96859   6.854  20.569   1.765
37599W        W96860  19.547   7.397  14.418
37600W        W96861   2.765  12.173  14.908
37601W        W96862  20.615  43.795  12.875
37602W        W96863  10.194  17.729   4.782
37603W        W96864  15.713  40.456  10.947
37604W        W96865  11.343   3.260  14.336
37605W        W96866  18.660  34.430  10.080
37606W        W96867  20.176  22.676   1.777
37607W        W96868   3.234   3.278  12.982
37608W        W96869  36.001  28.078  12.566
37609W        W96870  37.441  14.143  13.473
37610W        W96871   2.871   5.862   0.379
37611W        W96872  28.183  40.832  13.396
37612W        W96873  30.556  39.397  12.980
37613W        W96874  43.918   7.312  10.405
37614W        W96875  16.140  29.048  14.019
37615W        W96876  16.685  13.126   0.881
37616W        W96877   9.392  24.973   5.265
37617W        W96878   9.719  10.729   1.907
37618W        W96879   3.266  27.505  13.009
37619W        W96880   5.750  11.691  11.036
37620W        W96881   1.919  26.956  11.088
37621W        W96882  36.981  29.024   3.166
37622W        W96883  24.019  34.392  12.969
37623W        W96884   7.400  16.282  12.360
37624W        W96885  21.231  10.178   0.466
37625W        W96886  28.166  27.547  14.935
37626W        W96887   7.902  43.436  13.030
37627W        W96888  26.679  44.857   4.258
37628W        W96889  35.092  28.499   0.278
37629W        W96890  40.460  44.303   9.941
37630W        W96891  26.463  12.732  11.583
37631W        W96892  33.462  42.352  11.909
37632W        W96893  35.005  22.066   2.370
37633W        W96894  19.211   6.347  10.896
37634W        W96895  32.449   0.983   2.873
37635W        W96896  14.624  43.340   1.450
37636W        W96897  17.763  32.033   1.315
37637W        W96898   7.257  25.212   4.238
37638W        W96899  30.124   1.764   2.713
37639W        W96900  27.468  12.687   0.826
37640W        W96901  26.003  30.095   3.246
37641W        W96902   0.930   3.940   4.708
37642W        W96903  38.842   0.803   2.854
37643W        W96904  25.112  43.305   0.477
37644W        W96905  34.525   1.322   2.697
37645W        W96906  19.131  24.561  14.942
37646W        W96907  11.234  16.195   1.238
37647W        W96908  25.564  23.521   1.231
37648W        W96909  16.735  33.956   1.437
37649W        W96910  14.168  11.150  13.976
37650W        W96911  37.920   0.318   2.185
37651W        W96912  43.796  22.173   4.759
37652W        W96913  14.708   8.869   3.775
37653W        W96914   8.885  17.253  14.328
37654W        W96915  44.365   0.280   4.285
37655W        W96916  39.809  11.372   1.220
37656W        W96917  39.471  36.356  14.943
37657W        W96918  17.656  44.271  12.028
37658W        W96919  39.988   6.196   0.806
37659W        W96920  10.699   7.365   3.677
37660W        W96921  35.107  21.733  14.483
37661W        W96922   2.392  43.847  12.985
37662W        W96923  40.041   9.649  12.879
37663W        W96924  15.191  19.643  12.413
37664W        W96925  10.726  40.509  13.931
37665W        W96926  27.572  26.596   0.886
37666W        W96927   2.347  43.996  14.475
37667W        W96928  43.840  38.909   2.845
37668W        W96929   3.457   9.298   0.430
37669W        W96930   8.797  32.118  11.577
37670W        W96931  21.645  26.462   3.820
37671W        W96932  17.705  21.120   2.826
37672W        W96933  27.106   2.733  13.900
37673W        W96934   0.249  32.103   4.833
37674W        W96935  26.192  27.488  10.443
37675W        W96936   3.722  14.825   2.271
37676W        W96937  34.980  27.984  10.565
37677W        W96938  28.621  36.901  14.836
37678W        W96939  22.006   3.459   1.884
37679W        W96940  25.659  10.328   1.821
37680W        W96941   1.259  36.448  11.079
37681W        W96942  36.994  41.040   0.761
37682W        W96943  41.905  35.993   3.295
37683W        W96944   9.388  33.902   4.218
37684W        W96945  12.326  11.142  10.494
37685W        W96946   1.330   7.195  14.397
37686W        W96947  16.649  12.141   2.293
37687W        W96948  21.563   8.815   4.188
37688W        W96949  24.151  38.822  13.838
37689W        W96950  27.024   7.717   2.301
37690W        W96951  21.723  44.461   3.856
37691W        W96952  18.612  29.615   3.227
37692W        W96953  10.226  10.160   4.804
37693W        W96954  26.600  41.407   0.823
37694W        W96955   0.382  26.529   0.849
37695W        W96956   2.856  44.314  10.613
37696W        W96957   7.225   3.417  14.772
37697W        W96958   0.924  10.316  12.029
37698W        W96959  13.218  44.995   3.707
37699W        W96960  20.556  40.946   4.605
37700W        W96961  38.547  30.470   3.696
37701W        W96962  24.553  25.543   2.776
37702W        W96963  43.445  42.959   4.168
37703W        W96964  38.986   3.457   3.175
37704W        W96965  11.730   8.785   4.348
37705W        W96966  38.330  18.668   4.290
37706W        W96967  25.624   4.420   0.455
37707W        W96968  34.996  33.446   4.164
37708W        W96969  41.487  27.003   4.713
37709W        W96970  34.112  20.566  11.021
37710W        W96971  30.979  20.760   0.338
37711W        W96972  41.980  37.853  10.956
37712W        W96973  11.820  31.037  14.447
37713W        W96974  26.618  21.752   3.630
37714W        W96975  42.887  39.879  12.048
37715W        W96976  27.092  18.257   0.913
37716W        W96977  18.561  18.180  10.078
37717W        W96978  39.043  22.729   1.419
37718W        W96979  41.868  21.529   5.253
37719W        W96980  20.094   3.405   0.411
37720W        W96981  11.221  18.740   1.256
37721W        W96982  11.730  16.652   2.758
37722W        W96983  12.122  39.511  10.529
37723W        W96984  37.938  25.633   0.461
37724W        W96985  42.884   4.777   3.634
37725W        W96986   0.391   0.821   4.215
37726W        W96987   0.438  28.076  10.454
37727W        W96988  28.980  10.715  13.872
37728W        W96989  19.619  33.997  12.524
37729W        W96990  16.742  29.534   5.197
37730W        W96991  31.519  12.718  12.840
37731W        W96992   7.736   6.843  13.884
37732W        W96993  44.413  38.876   3.247
37733W        W96994  39.887  19.540   3.863
37734W        W96995  22.030  27.578   0.396
37735W        W96996  29.991  14.666  11.504
37736W        W96997   4.340  38.058   2.693
37737W        W96998   9.709   2.917  13.972
37738W        W96999   3.231  37.536  13.543
37739W        W97000  30.938  28.989   3.246
37740W        W97001  22.656  23.633  13.834
37741W        W97002  31.115   2.854  11.104
37742W        W97003   7.238  13.840  13.908
37743W        W97004   0.297   2.886  10.463
37744W        W97005  41.313  33.092   2.244
37745W        W97006   2.790   9.875  14.367
37746W        W97007  18.581   7.766  11.548
37747W        W97008  28.062   7.406   0.735
37748W        W97009  19.284  30.592   4.804
37749W        W97010  17.611  42.301  13.792
37750W        W97011   7.793  28.180   3.192
37751W        W97012  16.073   5.792   3.840
37752W        W97013  33.001  11.656  14.907
37753W        W97014  22.518  10.197  12.340
37754W        W97015  19.223   2.810   0.473
37755W        W97016  19.720  19.701   4.346
37756W        W97017   4.303  34.066  11.384
37757W        W97018  38.424  23.639  13.374
37758W        W97019  42.347  33.948  14.342
37759W        W97020  30.565  20.253   1.849
37760W        W97021  19.742  26.167  14.349
37761W        W97022  29.998  32.098   0.855
37762W        W97023  14.143  40.433  10.612
37763W        W97024  11.208   7.233  14.445
37764W        W97025  16.140  24.484  14.825
37765W        W97026  29.495  20.174  10.527
37766W        W97027   2.869  39.870  14.508
37767W        W97028  43.783  38.349   4.741
37768W        W97029  26.595  41.522  12.452
37769W        W97030  41.927  27.083   0.792
37770W        W97031  10.740  42.413   1.373
37771W        W97032  26.059   0.252   1.765
37772W        W97033  44.925  33.888   0.753
37773W        W97034  31.928   2.883  12.883
37774W        W97035  42.010   2.930   3.355
37775W        W97036  28.620   9.717  13.384
37776W        W97037  38.878   0.345   4.721
37777W        W97038   8.667   9.710   2.355
37778W        W97039   1.413  28.476  10.488
37779W        W97040  15.700  21.668   2.717
37780W        W97041  16.760  24.490   0.244
37781W        W97042  16.087  39.821   2.182
37782W        W97043   9.732  28.984   0.444
37783W        W97044  12.637  28.467   1.269
37784W        W97045  14.264  23.499   2.379
37785W        W97046  33.015  25.503   3.231
37786W        W97047   2.397  30.952   1.753
37787W        W97048  29.467  31.460   2.265
37788W        W97049  44.439  27.641  10.136
37789W        W97050  29.469  44.970  13.892
37790W        W97051  29.665  30.124  10.011
37791W        W97052  29.517   1.430  11.860
37792W        W97053  37.514  15.600  10.454
37793W        W97054  31.560  35.478   2.851
37794W        W97055  43.908  18.588   0.345
37795W        W97056  17.242  11.195   2.233
37796W        W97057  38.380  42.895   0.332
37797W        W97058   0.882   4.435   2.689
37798W        W97059  15.105   4.780   2.746
37799W        W97060  10.640   1.358   1.915
37800W        W97061  33.581  26.136   1.734
37801W        W97062   4.730  11.652  14.932
37802W        W97063  44.868  26.641   4.658
37803W        W97064  35.564  17.207   2.301
37804W        W97065   8.336  10.685   3.702
37805W        W97066  23.512  43.450   3.728
37806W        W97067   0.288  34.439  13.490
37807W        W97068  10.852  40.930  14.283
37808W        W97069  28.466  34.924   4.129
37809W        W97070  16.804   4.354  12.418
37810W        W97071   9.320  36.864  11.011
37811W        W97072  11.285  16.631  12.032
37812W        W97073  43.330  15.301   1.793
37813W        W97074  12.266  12.316   3.643
37814W        W97075  37.501  34.599   4.274
37815W        W97076  28.121  32.131  12.477
37816W        W97077   6.694  15.251   1.408
37817W        W97078  37.448  37.504   3.240
37818W        W97079  22.060  23.221   1.324
37819W        W97080   6.377  37.416  11.015
37820W        W97081  32.133  22.620  14.778
37821W        W97082  18.766  21.718  11.965
37822W        W97083  10.697   5.282  12.340
37823W        W97084   5.795  14.725   4.339
37824W        W97085  30.498  43.812   4.680
37825W        W97086  44.819  38.419  11.874
37826W        W97087   0.383  16.641  11.080
37827W        W97088  16.076  22.677  13.399
37828W        W97089  39.438   4.433  13.421
37829W        W97090  33.072  15.268  13.499
37830W        W97091  29.098  13.754   2.337
37831W        W97092  28.138  31.509  13.801
37832W        W97093   1.893   0.893   4.767
37833W        W97094  27.472  24.097   2.248
37834W        W97095  13.232  39.401   3.373
37835W        W97096  30.493  12.845  14.788
37836W        W97097  17.780  31.903  11.419
37837W        W97098   2.397  30.590  13.813
37838W        W97099  24.513  17.567  11.977
37839W        W97100  17.741  15.159   1.408
37840W        W97101   8.287  10.730  14.505
37841W        W97102  23.514  15.181  11.115
37842W        W97103  17.793   7.809   1.791
37843W        W97104   0.306  15.686   0.754
37844W        W97105   2.231  44.468   2.817
37845W        W97106  41.004   2.918   0.921
37846W        W97107   2.794  15.283   1.882
37847W        W97108  33.396  34.538  11.872
37848W        W97109   9.301  27.945  14.413
37849W        W97110  43.935  30.148  10.407
37850W        W97111  13.319  14.305   1.788
37851W        W97112  10.289  30.588  10.963
37852W        W97113   8.346   9.790  13.050
37853W        W97114  14.291   1.953   2.707
37854W        W97115  41.987  16.302  12.831
37855W        W97116  16.073  34.507   2.815
37856W        W97117  35.433   5.767  10.940
37857W        W97118  44.421   7.372  10.406
37858W        W97119  10.200   8.667  14.356
37859W        W97120  19.208  14.198   1.401
37860W        W97121  22.212   4.409  10.906
37861W        W97122   4.848  30.942   4.260
37862W        W97123  21.525  15.805  13.521
37863W        W97124  34.868  41.024   0.734
37864W        W97125  33.575  23.088   1.842
37865W        W97126   0.328  25.485   2.879
37866W        W97127  28.145   3.813   1.363
37867W        W97128   4.943   7.327  11.054
37868W        W97129  28.478  38.567   1.795
37869W        W97130  15.745  42.416   4.639
37870W        W97131  38.826  14.122   3.158
37871W        W97132  21.155  16.805   4.666
37872W        W97133   1.256  30.039   0.843
37873W        W97134  30.413  25.505   4.723
37874W        W97135  13.606  35.485   2.865
37875W        W97136  39.040  12.197   0.866
37876W        W97137  22.997  11.315   3.255
37877W        W97138  16.572  12.340  10.631
37878W        W97139   1.937  25.019   0.944
37879W        W97140  31.568  42.027  12.560
37880W        W97141  38.016  27.009   3.759
37881W        W97142  35.024   4.800   1.367
37882W        W97143   0.769  23.720  10.493
37883W        W97144  44.424  25.507   0.293
37884W        W97145  18.265  21.593   1.334
37885W        W97146  35.956  16.155  14.296
37886W        W97147   5.888  43.445  11.002
37887W        W97148  37.451   7.685   3.681
37888W        W97149  13.618   4.768  11.443
37889W        W97150   1.734  19.061   2.754
37890W        W97151  44.485  42.029   0.809
37891W        W97152  18.150  25.155  13.828
37892W        W97153  28.485  33.077  14.444
37893W        W97154  29.076  21.745  10.537
37894W        W97155  21.046  41.495  14.968
37895W        W97156  21.145  44.458   3.294
37896W        W97157   5.293  38.489  14.895
37897W        W97158   5.337  28.515  12.060
37898W        W97159  25.641  19.646  10.160
37899W        W97160  34.435   7.826  11.569
37900W        W97161  10.296  28.108  11.025
37901W        W97162  20.134  29.150  12.567
37902W        W97163  13.763   5.309  14.390
37903W        W97164  27.171  41.420  14.924
37904W        W97165  39.837  33.449   0.258
37905W        W97166  39.395  20.700  13.798
37906W        W97167  15.808  36.085  10.890
37907W        W97168   5.882  29.664  14.998
37908W        W97169  37.377  27.578  11.095
37909W        W97170   2.243   9.871  13.873
37910W        W97171  20.215  12.299  12.960
37911W        W97172  38.892  44.443  11.577
37912W        W97173   9.674  35.381  13.447
37913W        W97174  10.723  36.565   0.393
37914W        W97175   2.317  27.634  14.283
37915W        W97176   0.350  15.242   1.893
37916W        W97177   1.895  30.051   1.888
37917W        W97178   7.886  39.860   2.755
37918W        W97179  33.059  22.053  13.858
37919W        W97180  40.362  32.103   0.261
37920W        W97181  21.251  22.662  14.335
37921W        W97182   1.943   8.876  10.444
37922W        W97183  32.589   0.436  12.927
37923W        W97184  42.889  35.932   5.304
37924W        W97185  13.181  41.794  14.761
37925W        W97186   8.709   8.792  11.991
37926W        W97187  33.478  35.103   3.277
37927W        W97188  32.564  30.484  13.806
37928W        W97189   5.322  23.034   2.677
37929W        W97190  19.196  22.163   2.338
37930W        W97191  38.054   0.248   4.787
37931W        W97192  10.235  44.843  11.607
37932W        W97193  15.753  22.243  13.864
37933W        W97194  43.442  10.166  11.583
37934W        W97195  28.489   9.380   1.415
37935W        W97196  42.372  37.446   2.782
37936W        W97197  20.070   2.283  11.868
37937W        W97198   6.250  41.535   0.907
37938W        W97199  11.151  10.376   1.901
37939W        W97200   0.433  44.423  11.408
37940W        W97201  27.196   3.367  12.840
37941W        W97202  28.063  35.902   4.261
37942W        W97203   4.766  22.546  14.322
37943W        W97204   9.179  22.206  14.779
37944W        W97205  17.218   0.469   0.441
37945W        W97206  31.981  14.258  12.353
37946W        W97207   4.778  39.518   3.784
37947W        W97208  31.536  17.785   1.226
37948W        W97209  14.194  14.141  14.818
37949W        W97210  34.947  41.842  11.495
37950W        W97211  37.948   1.787  10.579
37951W        W97212   0.941   5.696  12.835
37952W        W97213   6.712  24.698   4.633
37953W        W97214  21.123  15.094   0.869
37954W        W97215  38.425  27.502  11.608
37955W        W97216  27.043  37.968  13.396
37956W        W97217   1.329  17.158  14.338
37957W        W97218  32.527   3.431   4.638
37958W        W97219   1.253   0.337   3.355
37959W        W97220  40.407  44.268  12.829
37960W        W97221   2.915  35.590   4.170
37961W        W97222  20.097  41.805  13.313
37962W        W97223  31.480  39.809  13.429
37963W        W97224  40.928  23.202  13.474
37964W        W97225  14.120   1.464  13.381
37965W        W97226  44.831  35.969   1.753
37966W        W97227  43.368   4.245  11.398
37967W        W97228  22.655  27.002  12.846
37968W        W97229   6.353   9.334   0.384
37969W        W97230  27.979  27.044   0.280
37970W        W97231  11.747  41.447   4.306
37971W        W97232  15.177   4.345   3.360
37972W        W97233  28.625  16.779   2.354
37973W        W97234  12.626  41.475   4.828
37974W        W97235  41.854  26.474  12.510
37975W        W97236  44.350  42.350   2.800
37976W        W97237   7.278   9.795  11.421
37977W        W97238  21.152   7.851  10.488
37978W        W97239  28.041  13.650  14.984
37979W        W97240   8.173   9.681  11.109
37980W        W97241  21.757  44.799  11.893
37981W        W97242  19.606   1.777  13.019
37982W        W97243   9.215  18.604   0.956
37983W        W97244  36.472  21.693  12.535
37984W        W97245   9.253  21.709  13.338
37985W        W97246  16.749   0.260  11.414
37986W        W97247  18.211   3.731   4.206
37987W        W97248  17.775   2.297  10.906
37988W        W97249  38.997  33.589  13.047
37989W        W97250  24.190  10.244   1.853
37990W        W97251  30.419  31.911  13.965
37991W        W97252   8.821   7.827   1.274
37992W        W97253  32.494  23.986   4.748
37993W        W97254  43.795  12.677  11.968
37994W        W97255  41.509  20.071   0.383
37995W        W97256  23.123  41.522   3.829
37996W        W97257  37.983  43.280  14.420
37997W        W97258   3.899  31.986  11.925
37998W        W97259   0.980  14.300   3.868
37999W        W97260   3.786  23.712  12.886
38000W        W97261  11.192  33.404   0.779
38001W        W97262   6.354  12.298  12.360
38002W        W97263   5.257  17.084  13.407
38003W        W97264   5.909  17.630  14.319
38004W        W97265  30.045  10.637  14.368
38005W        W97266  39.878  32.915  11.495
38006W        W97267  30.969  33.461   4.777
38007W        W97268  28.074  30.072   2.375
38008W        W97269  17.252   6.360  12.912
38009W        W97270  43.968  37.456  10.628
38010W        W97271   4.234  13.185   0.759
38011W        W97272   5.394   3.884  14.962
38012W        W97273  31.912  11.153   3.668
38013W        W97274  41.519  10.169  13.442
38014W        W97275  32.549  24.677  12.534
38015W        W97276   4.751   3.800  14.428
38016W        W97277  33.086  29.588   1.784
38017W        W97278   6.806  20.745  11.431
38018W        W97279  12.199  38.521  13.500
38019W        W97280  16.129  21.135   0.749
38020W        W97281  31.042  11.162  10.506
38021W        W97282   5.865  38.464   1.700
38022W        W97283   9.160  24.171   2.847
38023W        W97284  26.111   8.685   3.755
38024W        W97285  16.221  18.132  13.477
38025W        W97286  39.025  21.670   0.833
38026W        W97287  44.004  18.213  14.921
38027W        W97288  25.498  26.640   2.208
38028W        W97289  23.076  13.635   0.814
38029W        W97290  23.124   0.297  14.856
38030W        W97291  12.279  13.315  10.917
38031W        W97292  43.366   5.289   0.830
38032W        W97293  32.528  10.805  13.485
38033W        W97294  21.168   5.879   3.223
38034W        W97295  30.037  44.274  13.034
38035W        W97296  13.803  28.091  13.434
38036W        W97297  12.231  40.908   2.381
38037W        W97298  44.327  12.198   0.393
38038W        W97299  10.331   1.831  12.867
38039W        W97300   2.380  15.133  13.859
38040W        W97301  38.912  28.631   4.221
38041W        W97302   4.708   9.778  11.898
38042W        W97303  12.314  42.893  11.990
38043W        W97304   1.866  15.766  14.485
38044W        W97305  35.008  41.919   0.407
38045W        W97306  36.895  16.714   4.691
38046W        W97307  33.487  23.109   3.195
38047W        W97308  33.553  36.435  11.904
38048W        W97309  14.313  16.571  10.449
38049W        W97310  41.789  19.225  10.491
38050W        W97311  35.927  18.661   4.233
38051W        W97312  24.545  37.859  10.564
38052W        W97313  44.416  26.165  14.468
38053W        W97314  35.484  29.556  11.068
38054W        W97315   8.207  14.674   2.859
38055W        W97316   2.257   2.428   0.376
38056W        W97317  13.249  26.695  12.032
38057W        W97318  21.257  34.023  14.399
38058W        W97319  20.764  29.437  13.447
38059W        W97320  21.179  21.601  13.835
38060W        W97321  10.253   2.278   0.953
38061W        W97322   7.769  26.641  13.024
38062W        W97323   5.352  18.726  13.911
38063W        W97324   8.746   4.275   0.788
38064W        W97325  23.722  11.866  12.909
38065W        W97326  24.711  13.135   1.380
38066W        W97327  34.389  15.605  10.892
38067W        W97328  42.965   4.857   0.837
38068W        W97329  37.083  21.237  10.501
38069W        W97330  32.094  26.666   1.864
38070W        W97331   2.243  38.830   0.741
38071W        W97332  43.769  44.781  11.055
38072W        W97333   2.913  35.489   1.782
38073W        W97334   5.852  34.094   4.626
38074W        W97335  37.082   3.415  14.844
38075W        W97336  21.058  20.060   9.620
38076W        W97337  39.924  39.851  14.324
38077W        W97338  24.059  42.982   0.308
38078W        W97339  11.835  11.162  10.929
38079W        W97340  22.166  20.549  14.862
38080W        W97341  33.943   4.781   2.419
38081W        W97342   3.223   3.271   2.804
38082W        W97343   1.416   7.758  13.441
38083W        W97344  27.448  43.959  11.580
38084W        W97345  37.878  29.986  14.393
38085W        W97346   0.764  42.449  10.406
38086W        W97347  44.395  26.135  14.015
38087W        W97348  13.326  15.742  14.373
38088W        W97349  30.475   6.919   0.762
38089W        W97350  36.376  31.960   4.264
38090W        W97351  33.119  29.577  14.480
38091W        W97352  27.969  38.898  12.851
38092W        W97353  33.927  19.634  14.851
38093W        W97354  44.801  13.340   4.123
38094W        W97355  19.055  41.974  13.430
38095W        W97356  13.660  20.219  12.840
38096W        W97357  44.760  17.618  11.924
38097W        W97358  40.816  41.969   1.853
38098W        W97359  18.290   1.329   1.887
38099W        W97360   7.908  32.016  13.318
38100W        W97361  30.097   6.227   2.887
38101W        W97362   3.382  41.462  12.449
38102W        W97363   3.389  34.409  11.903
38103W        W97364  32.909   1.905   4.159
38104W        W97365  32.501  30.450  10.142
38105W        W97366  12.135  37.455  13.972
38106W        W97367  13.309  26.991   3.330
38107W        W97368  22.693   8.791  11.526
38108W        W97369  43.473  39.006   0.430
38109W        W97370  32.898  22.659   2.744
38110W        W97371  41.815  15.185  13.978
38111W        W97372  27.456  31.534   3.221
38112W        W97373  36.960  11.255  11.081
38113W        W97374   3.238  41.529  12.836
38114W        W97375   2.954  32.474  14.504
38115W        W97376  44.275   6.211  12.978
38116W        W97377  14.620  11.246  10.087
38117W        W97378  29.608   6.311   1.305
38118W        W97379  40.484  25.140   3.309
38119W        W97380  43.971  37.422  12.473
38120W        W97381  31.012  24.705   3.870
38121W        W97382  11.748  21.716   1.836
38122W        W97383  28.078  28.435  13.826
38123W        W97384  42.298  27.675   2.783
38124W        W97385  35.058   0.919  11.926
38125W        W97386  24.489  17.268   4.141
38126W        W97387  13.152  34.422  14.886
38127W        W97388   5.710  35.870  13.464
38128W        W97389  26.164  36.023  14.834
38129W        W97390   7.885  40.368  14.419
38130W        W97391  39.327   2.450  13.838
38131W        W97392   0.742  32.980  11.377
38132W        W97393   1.836  38.571  13.495
38133W        W97394  10.230  16.132  13.963
38134W        W97395  16.291  17.730   9.515
38135W        W97396  31.971  30.604  14.954
38136W        W97397   8.683  17.592  11.975
38137W        W97398   1.844  16.115  12.874
38138W        W97399  23.099  18.275   0.389
38139W        W97400  12.222   8.325   1.274
38140W        W97401  29.954  16.572   1.411
38141W        W97402  29.574  40.844   3.251
38142W        W97403   0.283  37.917  11.518
38143W        W97404  18.210  36.514  14.943
38144W        W97405  12.726  24.032  10.578
38145W        W97406  14.105  34.398   4.348
38146W        W97407  23.041  37.059  11.592
38147W        W97408   3.940  21.656   3.321
38148W        W97409   5.702  40.372   4.652
38149W        W97410  18.251  41.926  13.817
38150W        W97411  42.838  34.586  10.598
38151W        W97412  20.629   7.693   2.901
38152W        W97413   7.675  27.589   4.139
38153W        W97414  21.669   8.292  10.543
38154W        W97415   8.854  11.692  13.056
38155W        W97416   0.335   9.321  11.469
38156W        W97417  37.438  26.185  12.033
38157W        W97418   9.225  13.105  11.890
38158W        W97419   3.834  24.032  12.033
38159W        W97420  30.089  22.639   3.205
38160W        W97421  26.608  38.822   3.737
38161W        W97422  31.107  30.511   1.290
38162W        W97423   9.288  20.647   3.780
38163W        W97424  36.393   8.816   2.705
38164W        W97425  30.018  39.510   4.315
38165W        W97426  17.104  10.806   3.161
38166W        W97427   1.333  40.831  14.305
38167W        W97428  43.884   1.445   3.660
38168W        W97429  28.613  11.703   3.801
38169W        W97430  38.565  39.977   0.855
38170W        W97431   3.304  32.115  13.464
38171W        W97432  20.227  41.450  13.916
38172W        W97433  31.637  14.176   4.298
38173W        W97434  40.352   3.294   0.372
38174W        W97435  41.426  10.280   3.707
38175W        W97436  34.465   9.219   3.669
38176W        W97437   6.269   8.837  11.024
38177W        W97438  32.956  12.719  13.395
38178W        W97439  43.883  43.864   0.751
38179W        W97440   7.694   1.350   2.361
38180W        W97441  36.942  34.110  14.842
38181W        W97442  35.949  16.157   4.688
38182W        W97443   7.331   5.814  12.380
38183W        W97444  34.022  21.646  10.547
38184W        W97445  42.330  31.061   0.855
38185W        W97446  42.820  26.037  13.415
38186W        W97447  40.866   1.257   0.745
38187W        W97448  23.508  24.047  13.320
38188W        W97449  40.818  29.655   2.207
38189W        W97450  12.810  39.421   1.863
38190W        W97451   5.341   7.312  10.579
38191W        W97452  42.463   5.892  11.045
38192W        W97453  24.596  11.288  11.395
38193W        W97454  29.055  44.996   3.744
38194W        W97455  43.421  21.205   3.730
38195W        W97456  27.629  36.006  10.976
38196W        W97457   7.402  10.155  14.336
38197W        W97458  25.648  32.018  11.975
38198W        W97459  29.553   0.886  11.611
38199W        W97460  36.418  29.078  14.802
38200W        W97461   3.347  30.413   5.272
38201W        W97462  34.466  20.139   3.271
38202W        W97463   3.713  27.081  12.912
38203W        W97464   1.446  34.934  14.814
38204W        W97465  33.892   1.928   4.655
38205W        W97466  41.404  14.160  14.924
38206W        W97467  34.487  32.118   2.852
38207W        W97468   4.736  44.825  11.392
38208W        W97469   9.652   6.692   2.395
38209W        W97470  36.923  30.042   1.248
38210W        W97471  35.855  14.287  10.496
38211W        W97472  28.120   8.771   4.334
38212W        W97473  25.667   3.439  10.575
38213W        W97474   1.786  40.445   4.169
38214W        W97475  28.549  21.729  11.987
38215W        W97476  30.651  41.405  12.469
38216W        W97477  16.093   6.697  13.903
38217W        W97478  29.607  12.685  11.535
38218W        W97479  23.579  13.316   2.789
38219W        W97480   0.810   0.743   2.703
38220W        W97481  13.146  35.563   0.277
38221W        W97482  16.689  19.043  13.375
38222W        W97483   3.361  38.823  11.442
38223W        W97484  25.526   5.404   3.319
38224W        W97485   4.768  31.096  12.026
38225W        W97486   6.899  21.108   4.174
38226W        W97487  29.610  27.568  11.409
38227W        W97488  20.231  11.828   0.918
38228W        W97489   8.229  22.999   1.225
38229W        W97490  22.122  36.082   4.116
38230W        W97491   5.773  20.047  13.374
38231W        W97492  44.862  25.477  13.488
38232W        W97493  29.492   2.338  14.305
38233W        W97494  33.462  26.701  10.912
38234W        W97495  33.006  27.164   3.816
38235W        W97496  26.973  40.876  11.011
38236W        W97497  40.321  13.655  11.567
38237W        W97498  29.043  22.050   3.217
38238W        W97499  20.136  13.283   0.829
38239W        W97500  25.066  12.799   3.794
38240W        W97501  26.665  40.045   0.794
38241W        W97502  36.918  15.594   4.749
38242W        W97503  21.633  15.595  13.981
38243W        W97504  24.484  35.588   2.225
38244W        W97505  20.097  37.910   0.858
38245W        W97506  30.073  39.932  14.876
38246W        W97507   4.423   2.319   3.781
38247W        W97508  38.356   4.808  12.834
38248W        W97509  39.808  18.116  10.539
38249W        W97510  26.603  10.298   0.462
38250W        W97511   8.704  44.785   2.671
38251W        W97512  15.118  22.672   0.831
38252W        W97513  40.447  39.332   4.793
38253W        W97514  24.567  12.293   1.791
38254W        W97515   2.351  28.129   3.681
38255W        W97516  13.180   7.372  12.523
38256W        W97517  39.897  11.809   2.900
38257W        W97518  42.817  44.823  12.410
38258W        W97519  20.748  31.622   1.915
38259W        W97520  11.336  35.417  11.855
38260W        W97521  30.446  15.126  10.895
38261W        W97522  20.692  38.971   1.432
38262W        W97523  22.575  12.839  12.506
38263W        W97524  21.691   1.975   1.821
38264W        W97525  43.302  16.678  11.881
38265W        W97526  31.405   9.723  10.461
38266W        W97527  19.144  31.117   3.192
38267W        W97528  24.148   7.334  14.803
38268W        W97529  27.113  19.236  14.919
38269W        W97530  20.099   4.715   1.839
38270W        W97531  10.804  12.325   1.218
38271W        W97532  23.058  34.875  11.997
38272W        W97533  23.099   4.885  11.411
38273W        W97534  42.456  14.689  14.876
38274W        W97535  13.679   4.262  14.809
38275W        W97536  44.282  44.866   0.762
38276W        W97537  19.621  37.955   1.778
38277W        W97538   6.351  36.404   4.338
38278W        W97539  12.362  16.298  11.440
38279W        W97540   2.822  43.833   0.934
38280W        W97541   3.783  26.100   3.753
38281W        W97542  44.290  10.758  12.045
38282W        W97543  25.522  18.628  13.307
38283W        W97544   5.722   7.885  13.318
38284W        W97545  31.618  22.187   2.704
38285W        W97546  15.225  39.830  11.565
38286W        W97547  28.036  19.609  13.436
38287W        W97548  15.194  37.983  12.516
38288W        W97549  19.103   7.406  10.640
38289W        W97550  33.023  29.923   3.160
38290W        W97551  33.509  30.960   9.933
38291W        W97552  26.970  38.326   0.385
38292W        W97553  21.649  26.060   3.372
38293W        W97554  35.515  24.051  11.896
38294W        W97555  17.280  31.576  10.041
38295W        W97556  35.992  19.285  11.109
38296W        W97557  13.337  19.699  10.122
38297W        W97558  24.684   3.787   3.167
38298W        W97559  20.681  16.610  12.981
38299W        W97560  21.534  17.124  14.509
38300W        W97561   7.805  11.779   0.331
38301W        W97562  34.464  10.780   9.998
38302W        W97563  25.008  40.347  10.515
38303W        W97564  41.987  27.541  14.297
38304W        W97565  21.696  39.023  10.011
38305W        W97566  38.437  32.634  11.450
38306W        W97567  15.105  43.378   2.254
38307W        W97568   0.779  14.821  12.878
38308W        W97569   5.288  25.702  13.865
38309W        W97570  16.801  25.468  10.965
38310W        W97571  25.642  16.694   1.428
38311W        W97572   6.878  11.135  10.493
38312W        W97573   2.744  23.658  14.375
38313W        W97574  40.020  29.130   2.288
38314W        W97575   2.869  12.799  13.537
38315W        W97576  19.662  28.675  10.412
38316W        W97577  12.142  39.528   0.750
38317W        W97578   6.783  32.391   3.678
38318W        W97579   0.906  24.001   4.814
38319W        W97580  20.752  21.178   0.774
38320W        W97581  26.692  22.590  14.891
38321W        W97582  12.208  40.819   2.891
38322W        W97583  21.087   2.254  12.918
38323W        W97584   9.167   2.345   3.644
38324W        W97585  36.941  35.921   4.295
38325W        W97586  38.365  38.465   3.282
38326W        W97587  34.121  39.361   0.392
38327W        W97588  25.171   3.421   2.832
38328W        W97589   6.860  40.504  14.882
38329W        W97590  25.201  11.810   0.759
38330W        W97591  44.278  18.652   2.345
38331W        W97592  14.714  41.517   1.844
38332W        W97593  27.475  44.397   3.712
38333W        W97594   6.244  32.427  11.919
38334W        W97595  13.291  19.722  11.470
38335W        W97596  10.798  34.457  10.924
38336W        W97597  41.409  34.369  10.631
38337W        W97598  34.019  31.646   4.330
38338W        W97599  27.564   5.800   0.353
38339W        W97600  21.179  26.636   0.771
38340W        W97601   2.945   4.928   4.310
38341W        W97602   2.233  19.680  11.562
38342W        W97603   9.739  22.571   2.869
38343W        W97604  39.879  43.393  13.442
38344W        W97605  39.485  42.980  13.518
38345W        W97606  13.218   0.786  12.359
38346W        W97607  35.365  34.436   4.770
38347W        W97608   3.922  12.183  13.364
38348W        W97609  38.830   4.919  13.967
38349W        W97610  37.446  44.323  14.458
38350W        W97611  33.524  19.158  14.500
38351W        W97612  30.997  38.465  11.450
38352W        W97613   3.451  36.499   1.751
38353W        W97614   8.319  23.732  14.974
38354W        W97615   1.834  35.599  13.860
38355W        W97616  41.340  17.751  13.885
38356W        W97617   7.220  41.030   1.868
38357W        W97618  27.664  12.333  12.561
38358W        W97619  39.558   6.703   4.196
38359W        W97620  10.727   7.344   2.779
38360W        W97621   7.883  44.957   3.364
38361W        W97622  32.970  43.789  12.364
38362W        W97623  38.505  43.859  12.514
38363W        W97624  16.174  42.464   4.645
38364W        W97625   4.249  22.061  13.046
38365W        W97626  39.320  23.498   0.243
38366W        W97627   1.884  18.175  13.506
38367W        W97628  33.111   6.848   0.781
38368W        W97629  20.754  29.095   1.919
38369W        W97630   3.406  19.189   1.721
38370W        W97631  41.417   4.849   4.751
38371W        W97632  44.484   1.922   3.690
38372W        W97633  20.764  44.301  12.495
38373W        W97634   6.398   6.289   2.862
38374W        W97635   8.730  39.332   1.885
38375W        W97636   6.305  38.380   4.782
38376W        W97637  18.728  15.119  10.420
38377W        W97638  34.981   1.263  12.478
38378W        W97639  36.578  36.443   1.745
38379W        W97640   6.288  38.341  14.398
38380W        W97641  23.701  39.456  11.108
38381W        W97642  15.798  14.319   3.855
38382W        W97643   0.961  12.725  13.400
38383W        W97644  33.912  13.809   2.802
38384W        W97645  17.610  39.337  12.395
38385W        W97646   2.260  22.137   0.352
38386W        W97647  25.608  43.904   1.392
38387W        W97648   6.315  40.806   3.371
38388W        W97649  10.276  23.622   4.323
38389W        W97650  20.590   5.403  14.778
38390W        W97651  10.819   2.964   3.870
38391W        W97652  20.697  37.485  12.461
38392W        W97653   4.335  16.789   3.372
38393W        W97654   9.675  26.593  12.435
38394W        W97655   0.405  43.307   0.455
38395W        W97656  19.251  33.110   4.806
38396W        W97657   6.691  11.701   1.884
38397W        W97658  41.416  19.196   1.315
38398W        W97659  17.219  29.010   2.703
38399W        W97660  41.978  42.024  10.612
38400W        W97661  35.494  32.429   0.392
38401W        W97662  39.936  13.693   2.315
38402W        W97663   3.317  35.464  11.483
38403W        W97664  19.054  43.897   2.856
38404W        W97665   5.361  35.364  11.563
38405W        W97666   4.244   7.672  11.972
38406W        W97667  32.892  34.483   2.712
38407W        W97668  18.689  40.398   0.344
38408W        W97669  26.157  37.963   2.370
38409W        W97670  27.053  42.372  11.024
38410W        W97671   3.273  28.609   3.777
38411W        W97672   4.356  27.045   4.219
38412W        W97673  41.800  19.269   3.251
38413W        W97674  43.938  19.130  14.510
38414W        W97675  10.799  17.668  10.406
38415W        W97676  44.848  42.797   5.087
38416W        W97677  21.595  10.362   4.730
38417W        W97678  19.584   9.650   0.344
38418W        W97679  10.648   7.388   2.328
38419W        W97680   5.320  16.642  12.575
38420W        W97681   0.860  33.500  12.414
38421W        W97682  30.932  12.202  10.489
38422W        W97683  34.491  36.000  10.970
38423W        W97684  32.423  34.020   4.648
38424W        W97685  30.041  32.056  12.394
38425W        W97686  13.210  34.520   2.900
38426W        W97687  16.621  28.496   1.930
38427W        W97688  12.687  41.996  11.901
38428W        W97689  34.875  33.889  13.899
38429W        W97690  40.489   0.930  12.970
38430W        W97691  39.327  39.524   4.667
38431W        W97692   5.853  10.147  14.822
38432W        W97693   5.892   1.849   3.845
38433W        W97694  14.288  18.651   4.696
38434W        W97695  22.087  39.894   3.656
38435W        W97696   4.916  11.720   3.312
38436W        W97697  38.491  36.968  12.446
38437W        W97698   9.242  18.744   2.323
38438W        W97699  13.819  17.771   4.320
38439W        W97700  20.172  29.537  14.366
38440W        W97701  20.705  16.141   1.795
38441W        W97702  13.770  34.994  13.857
38442W        W97703   0.324  33.095   1.397
38443W        W97704  23.005  41.527  12.862
38444W        W97705  22.684  28.502  12.399
38445W        W97706   6.258  27.118  11.446
38446W        W97707  42.429  18.138   4.676
38447W        W97708  23.149  15.204   1.864
38448W        W97709  44.468  30.619  11.460
38449W        W97710   0.346   5.231  11.967
38450W        W97711  13.210  32.597  13.521
38451W        W97712  35.549   9.297  13.993
38452W        W97713   3.784  39.963   2.824
38453W        W97714  34.457  38.389   3.835
38454W        W97715  35.107   1.895  11.048
38455W        W97716  40.385   5.895   0.869
38456W        W97717   3.733  41.347   3.776
38457W        W97718   4.702  25.088   5.236
38458W        W97719  15.277  23.032  12.513
38459W        W97720  12.305  19.207   1.856
38460W        W97721  24.624  10.790  11.525
38461W        W97722  33.944  26.533  11.387
38462W        W97723   3.433   3.719   1.239
38463W        W97724  20.028  18.776  13.539
38464W        W97725   9.866   5.246   1.235
38465W        W97726   2.757  38.889  11.577
38466W        W97727  39.430  20.582  14.986
38467W        W97728  37.581  20.233  12.923
38468W        W97729  14.248  42.961  12.998
38469W        W97730  10.828  12.320   2.392
38470W        W97731  33.999  26.077   3.819
38471W        W97732   4.208   0.459  13.521
38472W        W97733  37.430  26.675  12.946
38473W        W97734  30.590   0.830  10.939
38474W        W97735  11.655  24.679   4.725
38475W        W97736  31.959   0.492  11.390
38476W        W97737   2.338  37.473  12.378
38477W        W97738  40.002  40.523   4.160
38478W        W97739  20.221  12.785   0.754
38479W        W97740  21.603  13.158   3.816
38480W        W97741   3.853  24.148  12.341
38481W        W97742  24.082  19.144   2.407
38482W        W97743   6.789  12.350   1.851
38483W        W97744  28.678   0.790   1.863
38484W        W97745   7.331  42.030   2.850
38485W        W97746  31.546  24.703   2.193
38486W        W97747  17.750  40.893   4.692
38487W        W97748  16.197   8.399  10.605
38488W        W97749   7.412  34.871   3.706
38489W        W97750  40.999  25.547  10.503
38490W        W97751  22.551   3.934   1.871
38491W        W97752   6.308  41.873  14.009
38492W        W97753  37.349  12.712  11.099
38493W        W97754  16.123   9.392   0.447
38494W        W97755  19.704   4.262  14.010
38495W        W97756  33.454  21.246   0.392
38496W        W97757  25.143  38.985   4.264
38497W        W97758  10.225  13.296  12.059
38498W        W97759  22.070  28.615   4.597
38499W        W97760   0.462   1.399  10.528
38500W        W97761  33.622   0.815  10.500
38501W        W97762  37.041   9.825  12.846
38502W        W97763   3.895  42.844  12.038
38503W        W97764  41.303  19.569   2.669
38504W        W97765   4.313  18.161   0.473
38505W        W97766  12.233  31.143  13.364
38506W        W97767  26.001  11.166  13.353
38507W        W97768  13.250  21.597  14.277
38508W        W97769  33.533  23.662  12.463
38509W        W97770  35.507  22.604  10.466
38510W        W97771   4.844  14.157  14.281
38511W        W97772  12.696  25.640  13.022
38512W        W97773  16.641  40.945  14.515
38513W        W97774  18.768  15.173  12.385
38514W        W97775  12.302  42.908  12.415
38515W        W97776  10.156   4.752  14.984
38516W        W97777  39.967  11.658   1.326
38517W        W97778  26.549  27.615  14.300
38518W        W97779  10.369  18.568  13.869
38519W        W97780  40.909  43.481  13.342
38520W        W97781   5.412  14.162  11.565
38521W        W97782   9.318  28.104   4.607
38522W        W97783  35.955  20.760   4.641
38523W        W97784  36.081  10.711  11.107
38524W        W97785  36.898  26.000   4.351
38525W        W97786   1.255  12.699  10.518
38526W        W97787  16.598   7.882  14.910
38527W        W97788  17.138  11.328   0.888
38528W        W97789  30.633  19.718  14.874
38529W        W97790  24.147   9.859  12.855
38530W        W97791  41.956  22.082  14.388
38531W        W97792   0.798  44.835  13.000
38532W        W97793  34.430  42.977  13.901
38533W        W97794  24.689  42.806   2.727
38534W        W97795  41.796  27.138   4.688
38535W        W97796   5.280  38.568   2.803
38536W        W97797   1.433  31.070   2.192
38537W        W97798  31.637  19.591   1.709
38538W        W97799   3.868  43.383   4.731
38539W        W97800  17.718  18.131   1.913
38540W        W97801  39.037   8.783  13.819
38541W        W97802  40.469  44.955   2.255
38542W        W97803  24.580  26.523   0.316
38543W        W97804  24.157  31.443  12.976
38544W        W97805  11.680   2.336   0.246
38545W        W97806  15.737  10.825  11.538
38546W        W97807  24.576  21.112  13.403
38547W        W97808  34.572   2.313  13.810
38548W        W97809   6.220  38.374   4.130
38549W        W97810  20.064  36.879   4.115
38550W        W97811  27.451  41.324  11.007
38551W        W97812  11.658   1.786   4.671
38552W        W97813  20.724  44.813  11.555
38553W        W97814  30.568  25.167  10.501
38554W        W97815  13.700   8.241   0.786
38555W        W97816  25.515  17.799   4.777
38556W        W97817   1.763   0.782   0.249
38557W        W97818  27.987  14.756  14.437
38558W        W97819   9.264  27.635  11.373
38559W        W97820  41.360  13.349   0.271
38560W        W97821  37.017  17.676  14.348
38561W        W97822  36.054  29.920   4.821
38562W        W97823  31.587  42.946  11.940
38563W        W97824  31.042  12.282  14.952
38564W        W97825  12.776  16.175   4.113
38565W        W97826  35.498  34.865   1.882
38566W        W97827  11.650   3.394   4.634
38567W        W97828   0.270  12.819  14.425
38568W        W97829  44.383  11.248  11.069
38569W        W97830   8.660  14.328   1.879
38570W        W97831  22.552  14.218  12.402
38571W        W97832  38.532  36.496  14.508
38572W        W97833  44.420  40.951   2.203
38573W        W97834  24.693  42.445  10.536
38574W        W97835  40.370  12.738   5.112
38575W        W97836  32.442  16.217  12.521
38576W        W97837   9.712  10.295   0.247
38577W        W97838  44.411   1.791  11.005
38578W        W97839  16.580  11.320  13.350
38579W        W97840  43.936   4.283  14.422
38580W        W97841  32.093   4.859   1.378
38581W        W97842   9.387  42.388   0.750
38582W        W97843  14.247  22.155  13.375
38583W        W97844   0.256   5.791  13.058
38584W        W97845   2.285  25.684  11.009
38585W        W97846  18.205   0.360  11.371
38586W        W97847  25.639  35.996   5.266
38587W        W97848   3.867  21.130   1.787
38588W        W97849  12.203  32.031   2.382
38589W        W97850   0.380  40.799   0.340
38590W        W97851  43.415  31.459  10.507
38591W        W97852  36.905  13.818   0.921
38592W        W97853   1.910  38.412   3.767
38593W        W97854   3.956   5.931   1.411
38594W        W97855  12.823  14.161   3.812
38595W        W97856   2.760  33.562  11.564
38596W        W97857  22.143  13.693  11.041
38597W        W97858   1.918  12.773   1.446
38598W        W97859  39.536  20.092   2.841
38599W        W97860  35.855  31.963  10.983
38600W        W97861  20.543  24.201  14.897
38601W        W97862  11.649  38.881   4.615
38602W        W97863   0.786  28.160  13.322
38603W        W97864  38.351  14.612  13.005
38604W        W97865  31.991  35.390  10.937
38605W        W97866  23.068  35.380   3.325
38606W        W97867  20.524  17.801  14.487
38607W        W97868  33.421  25.697  13.369
38608W        W97869  38.393  18.130   5.131
38609W        W97870  41.864  13.736   0.330
38610W        W97871   7.295  44.872  13.509
38611W        W97872  13.342  24.500   3.746
38612W        W97873  37.063  23.648  13.313
38613W        W97874  16.220  40.516  12.444
38614W        W97875  22.020  30.432   2.329
38615W        W97876  27.994  41.405   2.766
38616W        W97877  13.348  43.000  10.118
38617W        W97878  44.395  41.391  11.485
38618W        W97879  29.619   6.336  12.834
38619W        W97880  27.506  38.964   3.254
38620W        W97881  37.411  19.163  10.437
38621W        W97882   4.795  34.369   2.411
38622W        W97883   3.795  36.032   5.166
38623W        W97884  40.428  38.406  12.943
38624W        W97885   7.693  33.936  13.390
38625W        W97886   8.305  17.745  12.023
38626W        W97887  16.156  31.436  14.967
38627W        W97888  11.356   9.840   3.287
38628W        W97889   2.932   9.393  11.582
38629W        W97890  32.948  26.481   3.820
38630W        W97891  43.833   4.295  10.438
38631W        W97892  27.483  24.088   0.779
38632W        W97893  38.438  44.993  10.482
38633W        W97894  18.736  13.708  10.560
38634W        W97895  30.043  19.148  14.968
38635W        W97896  44.385  42.796   0.365
38636W        W97897  42.455  35.981  11.477
38637W        W97898  41.888  42.852  12.562
38638W        W97899  13.262  26.524   3.235
38639W        W97900  24.223  20.585  11.381
38640W        W97901  10.256  25.634  12.502
38641W        W97902  37.481  21.630  10.923
38642W        W97903  14.757  25.637   0.347
38643W        W97904  40.347  20.566  14.351
38644W        W97905   7.881  39.354  10.433
38645W        W97906  35.382  11.772   4.176
38646W        W97907   4.240  39.896  12.431
38647W        W97908  15.591   9.360   5.262
38648W        W97909  15.595  29.962   1.283
38649W        W97910  35.600  30.519   1.414
38650W        W97911  27.020  44.857   5.113
38651W        W97912  26.645  33.913  14.776
38652W        W97913  16.780   6.334  11.980
38653W        W97914  15.686   8.246   2.309
38654W        W97915  43.491  44.440   1.782
38655W        W97916   6.860  25.164   3.725
38656W        W97917   0.877  39.433   3.747
38657W        W97918  37.026  44.817   4.237
38658W        W97919  36.017  38.384   2.349
38659W        W97920  28.453  22.199  14.337
38660W        W97921  43.501  39.891  14.408
38661W        W97922  26.514   4.265  14.863
38662W        W97923  34.088  43.316  12.085
38663W        W97924  41.904  28.449   0.409
38664W        W97925  24.143  36.910   2.304
38665W        W97926  41.988  33.892  14.483
38666W        W97927  32.968   0.859  10.407
38667W        W97928   5.800  41.808   2.702
38668W        W97929  16.265   6.850  14.329
38669W        W97930   2.323  42.778   9.942
38670W        W97931   3.853  36.041  13.806
38671W        W97932  23.614  17.294   0.771
38672W        W97933  20.060  31.556   0.369
38673W        W97934  19.771  14.707  11.039
38674W        W97935  27.190  22.121  10.627
38675W        W97936   3.765  36.876  11.608
38676W        W97937  12.194   8.401   3.859
38677W        W97938  11.818   7.819  11.531
38678W        W97939  31.950  43.874   4.241
38679W        W97940  29.951  27.538   4.317
38680W        W97941  26.618  40.989  10.442
38681W        W97942   5.692  11.663  14.274
38682W        W97943  21.543  23.192   4.340
38683W        W97944   9.780  42.850   1.401
38684W        W97945  28.526  33.126  13.444
38685W        W97946  30.644   4.937   0.418
38686W        W97947  20.731  26.693  14.884
38687W        W97948   9.289  23.626   3.706
38688W        W97949  18.748  28.113   2.388
38689W        W97950   5.823  16.629  13.063
38690W        W97951   2.806   9.867   3.379
38691W        W97952  35.483  15.821   0.965
38692W        W97953   8.848  29.982   4.238
38693W        W97954  41.820  28.942  14.870
38694W        W97955  44.414   8.782   9.920
38695W        W97956  31.560  44.321  12.042
38696W        W97957  14.825  42.310   2.245
38697W        W97958  35.881  22.042   3.320
38698W        W97959  24.646  25.664  11.579
38699W        W97960  18.733   9.742   0.337
38700W        W97961  36.542   7.197   4.307
38701W        W97962  31.430  18.231  13.974
38702W        W97963  22.563  20.273   3.826
38703W        W97964  12.722  17.741   4.783
38704W        W97965   7.182   1.819  12.356
38705W        W97966  27.146  42.281  14.328
38706W        W97967  28.573   3.396  11.862
38707W        W97968   3.458  37.377   3.178
38708W        W97969  38.956  28.567  13.926
38709W        W97970   5.278  14.196   4.637
38710W        W97971  25.525  43.452  10.416
38711W        W97972  33.097  16.656   1.448
38712W        W97973  15.269  33.103  14.017
38713W        W97974   5.720  15.732   3.377
38714W        W97975  37.430  41.310   2.273
38715W        W97976  35.392  41.451   4.741
38716W        W97977  24.691   6.265   4.169
38717W        W97978   5.883  36.868  13.860
38718W        W97979  29.508  37.560  12.567
38719W        W97980  22.122   4.379  11.575
38720W        W97981  21.173  20.716   1.360
38721W        W97982   2.433  31.046   2.767
38722W        W97983  43.291  35.870  14.905
38723W        W97984   8.770  17.802   1.703
38724W        W97985  11.693   3.230  11.019
38725W        W97986  13.769  13.748  14.000
38726W        W97987  18.201  44.874  12.457
38727W        W97988  44.459  37.007   0.403
38728W        W97989  36.379   2.440   3.632
38729W        W97990   5.356   9.226  14.417
38730W        W97991  38.451  38.368   2.782
38731W        W97992  26.958   3.805  12.401
38732W        W97993  29.093   1.339   2.223
38733W        W97994  13.341  12.267  11.480
38734W        W97995   9.157  34.539  12.354
38735W        W97996  38.954  21.656  11.932
38736W        W97997  32.499   9.762   0.284
38737W        W97998   1.889   7.745   4.183
38738W        W97999  28.629   1.360  14.821
38739W        W98000  40.809  35.432  11.068
38740W        W98001  11.734   7.269   2.748
38741W        W98002  32.921   9.304  14.390
38742W        W98003  44.281  42.815   3.282
38743W        W98004  38.464  16.310  12.074
38744W        W98005  15.123  32.450   1.340
38745W        W98006   3.396   3.917  13.391
38746W        W98007  43.876  32.584  14.898
38747W        W98008   7.324  32.060   0.327
38748W        W98009  32.953   7.184   2.195
38749W        W98010   0.854   9.879   4.670
38750W        W98011  16.784  43.957   3.825
38751W        W98012   7.882  33.900  10.891
38752W        W98013  30.053  18.064   2.201
38753W        W98014  20.757   5.199  12.548
38754W        W98015  32.023  34.921   1.855
38755W        W98016  41.961  21.073   1.914
38756W        W98017  26.542  12.740  13.379
38757W        W98018  37.510  44.267  12.365
38758W        W98019   0.393   4.373   4.758
38759W        W98020  29.451   0.971   0.459
38760W        W98021  29.093   2.368   5.616
38761W        W98022  14.218   4.437  12.428
38762W        W98023  34.377  29.572  14.004
38763W        W98024   9.884  37.354  13.977
38764W        W98025  30.096   2.372   2.275
38765W        W98026  42.324  18.715  12.580
38766W        W98027   0.974  31.942  12.484
38767W        W98028  11.707  25.571  12.915
38768W        W98029  18.232  33.903   2.366
38769W        W98030  27.453  15.255   2.889
38770W        W98031   5.820  43.969   2.254
38771W        W98032  36.039  32.473   2.851
38772W        W98033  14.241  40.950   1.874
38773W        W98034  33.583   9.794  12.037
38774W        W98035   5.247  36.865  13.527
38775W        W98036  20.036  41.978   2.815
38776W        W98037   4.237  35.007   2.741
38777W        W98038  26.133  35.403   4.348
38778W        W98039  34.014   7.404   2.220
38779W        W98040  23.222  24.703  14.326
38780W        W98041   2.832  13.706  14.031
38781W        W98042   7.386  37.849   1.244
38782W        W98043  39.864   0.444  11.045
38783W        W98044  23.035  29.116   1.846
38784W        W98045  33.874  39.387  13.471
38785W        W98046   0.792  28.030  10.584
38786W        W98047  39.809  38.975   1.258
38787W        W98048  33.550  14.723   1.839
38788W        W98049   4.218  38.335   2.871
38789W        W98050  32.919  31.568   1.762
38790W        W98051   3.824  37.445  11.524
38791W        W98052  35.056  15.601   1.747
38792W        W98053  43.991   5.718   3.284
38793W        W98054  23.551  38.956   0.349
38794W        W98055   0.386  34.895   4.763
38795W        W98056  13.746  18.671   2.679
38796W        W98057  40.872  29.950  10.953
38797W        W98058  32.475  39.984   1.701
38798W        W98059  36.418  28.518   0.471
38799W        W98060  26.140   3.790  12.414
38800W        W98061   6.777   8.334  12.934
38801W        W98062   0.912  26.582   4.213
38802W        W98063  15.299  11.789   2.681
38803W        W98064  28.078  16.598   2.706
38804W        W98065  39.865  37.379   2.392
38805W        W98066   3.748   1.320  13.865
38806W        W98067  14.144  13.351  10.933
38807W        W98068   8.707  44.424   0.796
38808W        W98069  29.059  39.047   4.720
38809W        W98070  13.644  30.164  12.000
38810W        W98071  13.836  29.622  14.847
38811W        W98072  34.562  36.439   1.837
38812W        W98073   7.336  19.614  12.958
38813W        W98074  30.432  43.435   0.376
38814W        W98075   4.845   4.346   1.230
38815W        W98076  23.623  11.850   0.733
38816W        W98077   8.829  26.111  14.766
38817W        W98078  39.026  41.483  11.955
38818W        W98079  27.946   6.288  11.011
38819W        W98080  41.040  31.496  13.006
38820W        W98081  44.800  24.034   3.350
38821W        W98082  20.551  18.212  14.381
38822W        W98083  25.492  33.422   4.794
38823W        W98084  26.644  28.949   2.417
38824W        W98085  30.512  42.828   3.672
38825W        W98086  39.918  10.732   1.228
38826W        W98087   3.755  12.225   1.279
38827W        W98088  42.407  35.600   1.320
38828W        W98089  41.935  34.409  13.886
38829W        W98090  34.521  27.996  11.385
38830W        W98091  10.825  13.692  13.315
38831W        W98092  40.522  14.766   0.251
38832W        W98093  43.307  33.114  10.630
38833W        W98094  24.149   0.428  11.492
38834W        W98095  42.877  23.585   4.266
38835W        W98096  28.007  24.008   0.805
38836W        W98097  14.590  14.185   1.235
38837W        W98098  33.079  43.769  13.401
38838W        W98099  22.202   3.814   3.744
38839W        W98100   4.934  32.034  11.382
38840W        W98101  25.022   3.300   4.650
38841W        W98102  28.168  21.745   2.297
38842W        W98103  11.810  28.461  11.060
38843W        W98104  10.168  18.630  11.516
38844W        W98105  44.896   6.899   3.837
38845W        W98106  25.017  12.253   0.272
38846W        W98107  20.247  26.206   4.260
38847W        W98108  30.136   1.271   4.768
38848W        W98109  28.641   9.158   4.608
38849W        W98110  23.057   0.337   4.750
38850W        W98111   3.329  38.998   5.283
38851W        W98112  37.879  18.744  11.432
38852W        W98113  44.888  37.871  12.875
38853W        W98114  42.002  28.171  14.488
38854W        W98115  35.386   0.313  10.424
38855W        W98116  33.505  38.414   3.791
38856W        W98117  22.652  35.963  14.799
38857W        W98118  44.340   4.829   3.798
38858W        W98119  29.033  34.398   2.800
38859W        W98120  25.479  36.949   1.407
38860W        W98121  26.583  32.897  12.951
38861W        W98122   9.388   2.880  11.993
38862W        W98123   0.875  20.141   3.268
38863W        W98124  34.435   6.416  11.501
38864W        W98125  28.461  28.572  10.592
38865W        W98126  26.035   3.854   1.265
38866W        W98127  27.681   4.822  13.938
38867W        W98128  35.880   0.878   3.654
38868W        W98129  18.593  21.573  14.807
38869W        W98130  11.256  24.591   0.243
38870W        W98131  11.801  11.750  13.920
38871W        W98132  44.276   9.710   3.698
38872W        W98133  43.459  22.667  13.533
38873W        W98134  21.092  43.926   3.332
38874W        W98135  11.637  36.031   2.291
38875W        W98136  30.130  37.912   0.792
38876W        W98137  25.967  43.882   4.120
38877W        W98138  34.514  27.079  12.827
38878W        W98139  39.841  34.386  14.285
38879W        W98140  36.015  44.260  12.359
38880W        W98141  36.874  23.147  13.920
38881W        W98142  40.819  14.821  10.427
38882W        W98143  16.690  20.732  13.904
38883W        W98144  33.441  24.973  13.494
38884W        W98145  15.717  42.862  14.500
38885W        W98146   3.784  41.319  14.787
38886W        W98147  40.363   4.726  14.437
38887W        W98148  36.096  44.460  13.052
38888W        W98149  27.494   5.703  14.459
38889W        W98150  37.504  14.095  10.006
38890W        W98151  41.021  17.123   2.700
38891W        W98152  43.338  22.545   4.618
38892W        W98153  28.538  14.141  11.038
38893W        W98154  15.705  42.830  14.011
38894W        W98155  20.639  29.959  11.980
38895W        W98156   5.193   9.890  14.927
38896W        W98157  11.633  37.921   1.451
38897W        W98158   3.383  25.514  13.387
38898W        W98159  12.666  27.998   2.386
38899W        W98160  35.062  34.047  12.516
38900W        W98161  30.093  41.842  14.933
38901W        W98162  11.215   5.916  10.631
38902W        W98163  26.190  37.927  13.536
38903W        W98164   5.842  36.483   3.755
38904W        W98165  16.724  32.980  11.433
38905W        W98166  40.044  20.538   2.366
38906W        W98167  30.944  22.714   4.689
38907W        W98168  24.649  22.518  14.834
38908W        W98169  15.710  38.920   4.247
38909W        W98170  11.827  12.127  11.462
38910W        W98171  22.526  29.645   1.277
38911W        W98172   5.841  38.932  11.448
38912W        W98173  15.158  19.565   4.156
38913W        W98174  27.687  43.832  11.969
38914W        W98175  44.880  33.033   4.776
38915W        W98176  33.581  24.512   0.869
38916W        W98177  13.182  21.512  12.000
38917W        W98178  29.151  42.887   1.302
38918W        W98179   4.376  10.704  12.823
38919W        W98180  19.074  25.083   1.735
38920W        W98181   5.837   6.705   1.388
38921W        W98182  42.364  14.589   5.170
38922W        W98183   9.664   3.238  12.401
38923W        W98184  38.020  30.128   0.829
38924W        W98185  41.941  37.392  14.487
38925W        W98186  24.113  40.375  14.282
38926W        W98187  42.003   0.957  13.935
38927W        W98188  26.700  20.640  12.426
38928W        W98189  41.313  18.756  13.363
38929W        W98190  40.380  24.540  14.278
38930W        W98191   7.347  43.323  13.834
38931W        W98192   4.260   9.202   3.157
38932W        W98193  24.695   9.393   1.265
38933W        W98194   3.375  29.069   3.730
38934W        W98195   4.763  16.791  11.574
38935W        W98196   3.459  18.685  11.075
38936W        W98197  38.330  43.914   1.815
38937W        W98198   4.937  13.709  14.005
38938W        W98199  35.089  15.258  14.792
38939W        W98200   0.924   0.298  13.990
38940W        W98201  23.499  20.708   1.765
38941W        W98202  34.058  41.450   3.355
38942W        W98203  15.822   7.275   2.216
38943W        W98204  35.949  39.907  12.965
38944W        W98205  44.443  33.521   3.274
38945W        W98206  21.119   7.373  13.533
38946W        W98207   1.914  43.777  10.468
38947W        W98208   9.370   5.928  13.538
38948W        W98209  13.686  14.619  13.996
38949W        W98210  38.538  19.199   0.439
38950W        W98211  17.135  34.604  14.908
38951W        W98212  25.709  19.133   3.760
38952W        W98213   9.185  44.937  13.984
38953W        W98214   4.360   1.372  12.920
38954W        W98215  12.205  17.162   1.425
38955W        W98216  20.661  42.502  12.427
38956W        W98217  37.057  26.009   0.901
38957W        W98218  13.241  36.970   0.349
38958W        W98219  34.024  21.557   3.328
38959W        W98220  23.729   1.357  11.487
38960W        W98221  29.627   0.878   1.439
38961W        W98222  30.021   4.841  12.053
38962W        W98223   3.412  31.987   1.859
38963W        W98224   0.367  36.543   0.325
38964W        W98225  12.842  15.766  13.475
38965W        W98226  32.500  37.432  10.524
38966W        W98227  16.197  18.570   1.313
38967W        W98228  23.698  30.094   1.885
38968W        W98229   1.243  26.663   4.833
38969W        W98230  31.132  10.809  13.477
38970W        W98231  11.342  10.708   0.357
38971W        W98232   6.242  41.461   1.237
38972W        W98233   7.352  12.276  14.994
38973W        W98234  33.028  18.714   3.634
38974W        W98235   6.374  13.350   3.203
38975W        W98236  11.287   0.304  14.314
38976W        W98237  42.883  18.162  12.061
38977W        W98238  41.835  38.860   4.788
38978W        W98239  44.403  40.025   4.196
38979W        W98240  31.573  39.369  14.980
38980W        W98241  17.111   0.456  12.964
38981W        W98242  24.620   6.710  10.999
38982W        W98243  19.671  27.023   2.316
38983W        W98244   2.360  15.698   3.790
38984W        W98245   3.786  21.540   2.384
38985W        W98246  25.178  20.754   1.353
38986W        W98247   3.259  40.495   1.309
38987W        W98248  40.982  41.941   1.338
38988W        W98249  15.170  16.661  11.936
38989W        W98250  25.131  19.044   4.777
38990W        W98251  18.066  37.079   0.459
38991W        W98252  34.468  34.462   0.728
38992W        W98253   0.286   2.280  12.438
38993W        W98254  44.966   0.960   0.764
38994W        W98255  21.199  21.669   9.627
38995W        W98256  27.008  33.963   5.268
38996W        W98257  32.050  23.675  10.144
38997W        W98258   0.769  29.655  14.869
38998W        W98259  34.442   9.382   1.729
38999W        W98260  35.969   6.403  11.073
39000W        W98261  25.064   6.321   4.632
39001W        W98262  15.609  24.068   4.619
39002W        W98263  44.272   6.217   5.181
39003W        W98264  14.109  40.965  14.502
39004W        W98265  11.816   7.413   0.790
39005W        W98266  20.046   1.778  10.011
39006W        W98267  30.600  27.058  13.513
39007W        W98268  12.336  33.385  13.310
39008W        W98269  29.640   7.779  10.444
39009W        W98270  30.008  18.553  12.041
39010W        W98271  30.514   9.677  11.955
39011W        W98272   9.796  11.320  12.073
39012W        W98273   2.965  13.137   3.384
39013W        W98274  32.625  28.177   4.134
39014W        W98275  40.380  31.476   3.642
39015W        W98276  18.746  33.402  12.579
39016W        W98277  35.871  39.822   3.667
39017W        W98278  32.406  15.303  14.017
39018W        W98279  26.531  36.485   2.396
39019W        W98280  35.447  12.145   2.843
39020W        W98281  38.929  15.190  12.838
39021W        W98282  36.479  16.724   2.813
39022W        W98283  19.272  44.841  14.821
39023W        W98284  42.794  40.956  14.511
39024W        W98285   3.397  29.923  11.488
39025W        W98286  15.202  40.529  12.060
39026W        W98287  38.867  17.137  13.369
39027W        W98288  20.709  10.355  11.071
39028W        W98289   8.303  15.702   0.824
39029W        W98290  43.302  25.176   4.196
39030W        W98291  32.420  19.248   4.794
39031W        W98292  32.057  17.798   4.220
39032W        W98293  33.940  23.222  14.778
39033W        W98294  23.077   9.869   0.904
39034W        W98295   7.376   2.935  14.376
39035W        W98296   1.915  14.220  11.408
39036W        W98297  10.751   0.827   1.853
39037W        W98298   7.750  38.994   4.138
39038W        W98299  13.789  22.546   1.744
39039W        W98300   5.721   2.234   1.767
39040W        W98301  12.192  10.634  12.020
39041W        W98302  32.131   6.761   0.427
39042W        W98303  10.845  25.565  13.529
39043W        W98304  30.934  35.455  14.994
39044W        W98305   9.345  36.026  11.901
39045W        W98306  19.066  28.476   3.800
39046W        W98307   9.691  30.022   2.734
39047W        W98308  38.902   2.814  10.940
39048W        W98309  19.072  44.776   3.789
39049W        W98310  36.937  18.643   4.242
39050W        W98311   7.909  44.341  12.093
39051W        W98312  27.659  15.134   2.319
39052W        W98313  23.064   0.765  13.482
39053W        W98314   5.876   9.294  14.003
39054W        W98315   0.840  24.493   3.184
39055W        W98316   2.859  42.280  12.844
39056W        W98317  26.532  11.657  13.032
39057W        W98318  16.645  11.244   4.268
39058W        W98319  22.081  22.550   3.829
39059W        W98320   6.836  33.016  13.956
39060W        W98321  41.942   8.881  12.576
39061W        W98322   2.918  28.131  14.956
39062W        W98323  39.342   0.789   0.391
39063W        W98324   4.229  37.998  11.901
39064W        W98325  35.972  18.133  12.858
39065W        W98326   5.344   6.896  11.918
39066W        W98327  30.502  26.607   4.680
39067W        W98328  41.490  37.926  14.891
39068W        W98329  14.110  31.049   4.344
39069W        W98330   5.439  26.208   2.278
39070W        W98331  41.291  27.953   3.271
39071W        W98332  16.582   8.397   0.351
39072W        W98333  38.560  16.729  11.048
39073W        W98334   3.441  33.448  13.520
39074W        W98335   5.332  38.984   9.989
39075W        W98336  31.589   0.281   1.238
39076W        W98337  15.269   0.974   4.781
39077W        W98338  26.148  39.528  11.022
39078W        W98339  35.945  27.689  12.082
39079W        W98340  20.577  33.534  11.578
39080W        W98341  25.552  31.482  11.866
39081W        W98342  32.981  19.768  12.024
39082W        W98343  28.996   4.839   3.268
39083W        W98344  14.279   2.372   2.794
39084W        W98345  12.758  27.153   3.215
39085W        W98346  33.389   2.870   3.334
39086W        W98347  22.534   0.345  12.536
39087W        W98348  35.532  12.683  12.961
39088W        W98349  34.901   9.692  13.959
39089W        W98350   4.790   5.267   5.747
39090W        W98351  35.889  18.261  14.967
39091W        W98352  40.490  14.641  14.462
39092W        W98353  43.479  17.141  14.382
39093W        W98354  40.887  32.457  13.358
39094W        W98355  30.957  23.986   3.173
39095W        W98356  28.643   5.720  11.125
39096W        W98357  20.596  40.952   2.675
39097W        W98358   3.863  18.730   2.189
39098W        W98359   0.921  30.941   4.782
39099W        W98360  11.344  33.922   1.906
39100W        W98361  30.917   4.280   2.215
39101W        W98362  25.219  35.599  13.371
39102W        W98363  33.994   8.859  11.988
39103W        W98364  36.403  20.569  13.535
39104W        W98365   0.859  23.120   1.327
39105W        W98366  44.909  21.149   4.820
39106W        W98367  22.503  32.455  14.951
39107W        W98368  42.870   6.919  13.485
39108W        W98369  21.683  25.062  14.960
39109W        W98370   1.743  26.537   3.299
39110W        W98371  38.535  39.501  10.614
39111W        W98372   0.370   2.264   2.263
39112W        W98373  15.813  38.820   4.636
39113W        W98374  18.607  42.381   4.353
39114W        W98375  40.309  29.533  14.920
39115W        W98376  36.579  21.172  11.451
39116W        W98377  36.060  35.024   0.793
39117W        W98378  41.392  35.480  14.911
39118W        W98379   4.293  44.862  12.931
39119W        W98380  10.236  22.200  12.449
39120W        W98381  10.744  18.094   0.814
39121W        W98382  35.007  43.307  13.909
39122W        W98383   7.900  38.453   1.725
39123W        W98384  35.582  26.627   3.723
39124W        W98385   3.853   1.400   2.894
39125W        W98386  40.980  23.004   1.298
39126W        W98387  11.777  41.844  13.488
39127W        W98388   2.232  32.623  12.355
39128W        W98389  25.082  10.288   2.224
39129W        W98390   0.427  24.633   4.246
39130W        W98391  19.134  14.148   3.660
39131W        W98392  25.061  34.028   1.356
39132W        W98393  36.927  13.775  13.802
39133W        W98394   8.830  25.479  13.941
39134W        W98395  26.471   2.860   5.192
39135W        W98396  27.565  24.540  12.461
39136W        W98397  19.224  30.565   1.290
39137W        W98398  40.490  41.386   2.823
39138W        W98399  34.383  23.566  12.010
39139W        W98400  28.551  22.011  14.890
39140W        W98401  35.362  13.727   1.763
39141W        W98402  36.484  38.900   0.271
39142W        W98403  38.881  12.254   2.822
39143W        W98404   6.758  32.604  13.422
39144W        W98405  19.678   6.200  12.919
39145W        W98406  29.061   9.827   3.239
39146W        W98407  19.771   8.741   1.934
39147W        W98408  41.984  19.106   1.258
39148W        W98409  24.068  36.920   3.160
39149W        W98410   9.362  24.560   1.717
39150W        W98411   8.747  16.649  11.047
39151W        W98412   0.389  22.995   2.178
39152W        W98413  11.285  27.081  13.364
39153W        W98414  41.814  18.098  10.056
39154W        W98415  41.017  40.839  11.894
39155W        W98416  40.980  15.124   2.196
39156W        W98417  29.123  29.924   4.760
39157W        W98418  33.955  30.924   0.297
39158W        W98419   4.836  15.251   0.888
39159W        W98420  44.356  42.873  14.320
39160W        W98421  30.093  43.357  13.922
39161W        W98422  32.508  38.975   0.958
39162W        W98423  17.708  22.048  12.035
39163W        W98424   4.722   3.392  13.538
39164W        W98425   8.654  28.496   2.861
39165W        W98426   3.738  21.094  13.498
39166W        W98427  44.759  13.670   1.815
39167W        W98428  19.206  36.364   1.414
39168W        W98429  12.138   0.357  11.520
39169W        W98430  36.422  23.699   4.137
39170W        W98431   6.392   3.740   4.737
39171W        W98432  41.304  22.071   4.800
39172W        W98433  10.250  13.630   1.716
39173W        W98434  34.461  43.295  14.763
39174W        W98435  18.730  21.681  12.405
39175W        W98436   2.739   4.235   3.347
39176W        W98437  22.537  36.068  14.374
39177W        W98438  34.400  27.024   1.394
39178W        W98439   4.316  19.053  10.445
39179W        W98440  19.132  43.963  12.512
39180W        W98441  16.782  31.572  10.525
39181W        W98442  25.992  32.116   2.338
39182W        W98443  28.129  39.009   2.727
39183W        W98444   3.888  22.239  10.561
39184W        W98445   6.351  41.390   0.463
39185W        W98446  44.294  28.643   4.276
39186W        W98447  31.507  16.129  12.955
39187W        W98448   9.378   4.898   5.093
39188W        W98449  31.402  31.062   2.711
39189W        W98450  11.364  18.556  10.640
39190W        W98451  35.885  17.796   3.311
39191W        W98452  37.397  27.669   4.729
39192W        W98453   7.308  12.254  12.533
39193W        W98454  24.644   8.802  14.861
39194W        W98455   9.769  26.038  10.565
39195W        W98456   3.229  41.917  10.969
39196W        W98457  40.968  22.569  12.030
39197W        W98458  31.518  28.625  14.511
39198W        W98459  26.062   1.910   2.884
39199W        W98460  42.364  17.271   1.764
39200W        W98461  16.753  12.128  12.943
39201W        W98462  36.377  26.014   0.388
39202W        W98463  26.463   7.292  14.986
39203W        W98464  27.592  33.411  13.979
39204W        W98465  39.868  12.780   0.295
39205W        W98466  25.676  40.810   0.308
39206W        W98467   0.784  11.257   4.768
39207W        W98468  27.137  24.053  11.110
39208W        W98469  41.409  14.794   4.712
39209W        W98470   1.359  26.189   2.214
39210W        W98471  15.710  17.073  12.548
39211W        W98472  27.155  20.040  12.072
39212W        W98473   0.752  34.913  11.971
39213W        W98474  18.230  10.706   3.662
39214W        W98475   5.370  28.557  10.640
39215W        W98476  37.343  32.547  12.894
39216W        W98477  36.877  22.735  13.417
39217W        W98478  13.195  41.529  14.958
39218W        W98479  36.866  23.580  14.840
39219W        W98480   0.807   0.391   1.216
39220W        W98481  26.693  33.556  13.037
39221W        W98482   3.353  43.320  14.358
39222W        W98483  25.659  11.334  11.986
39223W        W98484   3.257  38.377   0.439
39224W        W98485  33.381  44.367   1.392
39225W        W98486  35.009  12.751   4.734
39226W        W98487  27.487  33.420   1.736
39227W        W98488   3.941  18.775  14.021
39228W        W98489  38.408   3.796  12.003
39229W        W98490  22.190  34.916   4.221
39230W        W98491   9.276  11.195  10.523
39231W        W98492  40.481   1.267  13.061
39232W        W98493   6.719  30.983   2.278
39233W        W98494  36.879   0.912  11.939
39234W        W98495  41.925  18.782   5.307
39235W        W98496  38.921  41.896   0.448
39236W        W98497  26.134  14.739  14.832
39237W        W98498  42.421  39.947  14.875
39238W        W98499   9.327  22.198   1.342
39239W        W98500  31.099  32.886  11.918
39240W        W98501  20.122   9.693   4.292
39241W        W98502  28.169  17.657   0.917
39242W        W98503  27.113  14.100   4.805
39243W        W98504  42.834  15.243   2.379
39244W        W98505  25.083  33.001   1.730
39245W        W98506  11.638  39.506   4.650
39246W        W98507  28.652  18.678  12.477
39247W        W98508   8.697  16.606  14.417
39248W        W98509  13.742  13.199   3.869
39249W        W98510  17.182  34.392   4.775
39250W        W98511  12.838  20.582   3.243
39251W        W98512  10.192  41.035   2.369
39252W        W98513  11.811   7.688   3.208
39253W        W98514  17.674  32.553  11.579
39254W        W98515  40.403  16.571   0.295
39255W        W98516  30.571  37.847  14.277
39256W        W98517  39.868  39.004   4.699
39257W        W98518  16.193  40.458  14.841
39258W        W98519  26.617  19.624   0.345
39259W        W98520  41.292   4.286  12.908
39260W        W98521  28.656  39.053  12.386
39261W        W98522  29.997  38.466  14.856
39262W        W98523  32.966  22.598  12.004
39263W        W98524  14.617  36.482  14.311
39264W        W98525  30.160  21.253  13.351
39265W        W98526  42.878  18.637  14.509
39266W        W98527  26.001  40.479   1.219
39267W        W98528  24.229  27.626  12.356
39268W        W98529  16.793  24.146   2.900
39269W        W98530  13.309  12.183   2.820
39270W        W98531  19.206  30.067   1.385
39271W        W98532  28.963  14.712  11.428
39272W        W98533  27.092  28.120   2.746
39273W        W98534  18.551  16.282   4.782
39274W        W98535   1.829  26.462  10.903
39275W        W98536  17.072  42.515  14.420
39276W        W98537  35.476  27.193   2.777
39277W        W98538   2.777  19.248  14.425
39278W        W98539  43.940  19.646   2.734
39279W        W98540  35.589  14.713  14.475
39280W        W98541  28.964  41.913  11.394
39281W        W98542  24.093   4.402   1.264
39282W        W98543  39.824  27.532  11.493
39283W        W98544  16.167  26.599   3.226
39284W        W98545  28.121  32.089   3.257
39285W        W98546  31.454  39.445   2.736
39286W        W98547   5.927  30.617   4.169
39287W        W98548  10.259  30.963  11.997
39288W        W98549  34.507   1.239  11.946
39289W        W98550  10.347  31.518  14.412
39290W        W98551   4.789  15.600   1.901
39291W        W98552  37.490  37.352   2.336
39292W        W98553   6.377  27.469   1.866
39293W        W98554   8.797  42.493  10.642
39294W        W98555   4.900  27.152  14.860
39295W        W98556  26.676   1.901  11.081
39296W        W98557  15.198   2.884   9.449
39297W        W98558  34.976   0.969   3.245
39298W        W98559  25.535  19.645  10.420
39299W        W98560  23.621  14.123  14.932
39300W        W98561   7.366  39.027   1.744
39301W        W98562  11.176  42.281   0.266
39302W        W98563   4.301   1.425   2.388
39303W        W98564  11.370   0.853  14.976
39304W        W98565  21.650  17.662  13.872
39305W        W98566  27.611  24.005   1.244
39306W        W98567  43.516   5.746  13.012
39307W        W98568  32.575  38.851  11.935
39308W        W98569  33.522  24.150   3.732
39309W        W98570   6.734  21.560  14.778
39310W        W98571  25.122  40.049  12.054
39311W        W98572   3.890  24.119   0.454
39312W        W98573  22.026   0.475  14.474
39313W        W98574  27.109  18.204   0.260
39314W        W98575   9.157  42.357  13.998
39315W        W98576   6.386  27.137  14.455
39316W        W98577  41.355  11.845  13.965
39317W        W98578  20.191   4.249  12.943
39318W        W98579   4.864  28.953   3.811
39319W        W98580  14.283  12.842  13.315
39320W        W98581   7.304   0.755  14.869
39321W        W98582  31.961   9.869   2.295
39322W        W98583  25.587  33.599   5.137
39323W        W98584  23.985  42.779  10.898
39324W        W98585  27.136  41.340   5.113
39325W        W98586  13.717  18.247  10.519
39326W        W98587  17.622   9.645   0.783
39327W        W98588  30.435  23.149  11.002
39328W        W98589   9.649  44.866  12.895
39329W        W98590  12.318   3.745   4.239
39330W        W98591  14.773  31.086  12.572
39331W        W98592  14.714  15.176   2.739
39332W        W98593   9.325   5.362  12.422
39333W        W98594   6.882  42.869  13.520
39334W        W98595  44.997  10.683  12.945
39335W        W98596  23.150  29.136   3.704
39336W        W98597  44.323  26.459   0.818
39337W        W98598  21.258  30.608   1.387
39338W        W98599   8.262  27.011  13.326
39339W        W98600  36.960  26.178   3.295
39340W        W98601  15.788  30.504  13.380
39341W        W98602   3.338  36.568   3.651
39342W        W98603   8.667   3.271  12.555
39343W        W98604  13.114  17.576   1.774
39344W        W98605  35.066  16.748   4.642
39345W        W98606  41.372   5.299   3.279
39346W        W98607   0.746  11.824  12.498
39347W        W98608  33.057  23.531   4.317
39348W        W98609  13.756  25.666   2.189
39349W        W98610  27.099   9.339  11.042
39350W        W98611   7.812  44.820   4.818
39351W        W98612   6.705  27.462   4.182
39352W        W98613  31.413   2.928   1.445
39353W        W98614   5.838  39.452  12.931
39354W        W98615   6.855  31.578  11.472
39355W        W98616  23.602   5.380  12.472
39356W        W98617   7.736  13.661  13.414
39357W        W98618  26.009   1.418  14.389
39358W        W98619  24.072  14.169  12.022
39359W        W98620   6.266   0.945  12.983
39360W        W98621  40.438  24.163   5.699
39361W        W98622  32.062  11.354  12.457
39362W        W98623  17.250  34.073  11.956
39363W        W98624  33.002   3.870  13.818
39364W        W98625   7.736  21.111  11.091
39365W        W98626  39.895  17.640  13.002
39366W        W98627   3.338  26.162   2.416
39367W        W98628  31.063  36.353  12.023
39368W        W98629  17.749  29.665  11.120
39369W        W98630  40.345   7.714  14.886
39370W        W98631   1.832  21.229   2.269
39371W        W98632   6.866  42.915   0.370
39372W        W98633  23.235  21.113  13.497
39373W        W98634  40.797   7.192   4.271
39374W        W98635   8.249  22.732   2.326
39375W        W98636  40.502  16.283   4.616
39376W        W98637  14.272  44.369  13.793
39377W        W98638  23.194  15.098   2.756
39378W        W98639  31.584  11.640   1.314
39379W        W98640  19.688  35.879   2.398
39380W        W98641  34.432  32.996  11.944
39381W        W98642  23.034  34.446  14.283
39382W        W98643  31.638  32.956   4.829
39383W        W98644  22.587  14.280   5.305
39384W        W98645  25.211   3.433  14.896
39385W        W98646  25.182  40.044   3.828
39386W        W98647  28.547  43.979  12.921
39387W        W98648  41.410  27.540  12.990
39388W        W98649  29.958  15.731   2.782
39389W        W98650   7.809  27.534  14.283
39390W        W98651   7.823  38.060  13.484
39391W        W98652  22.501   5.401  10.954
39392W        W98653  42.919  17.793  12.428
39393W        W98654  28.131  34.377  11.557
39394W        W98655  22.239  15.598  12.440
39395W        W98656   0.408  26.668  14.348
39396W        W98657  34.455  26.615   2.878
39397W        W98658  40.549  30.071   1.720
39398W        W98659  30.114  23.615   1.394
39399W        W98660  34.041  38.483   0.369
39400W        W98661   0.743  35.408   3.745
39401W        W98662  27.948   7.700  13.857
39402W        W98663  26.614   6.767   4.116
39403W        W98664  39.326  10.228  14.280
39404W        W98665  28.971   7.825   4.761
39405W        W98666  20.192  28.657   0.925
39406W        W98667  42.784  21.665  11.406
39407W        W98668  44.278  17.729  14.781
39408W        W98669  31.051  22.678  12.367
39409W        W98670  24.587   5.925   3.779
39410W        W98671   2.777   6.688  12.027
39411W        W98672  43.276  10.203   4.146
39412W        W98673  17.743  23.709   3.356
39413W        W98674  43.828  21.684   0.955
39414W        W98675  10.308  24.608  11.097
39415W        W98676  31.020   6.897  12.363
39416W        W98677   3.335   4.887   2.890
39417W        W98678  13.108  43.488  11.997
39418W        W98679   7.740  20.227   0.323
39419W        W98680  18.207   3.732   2.892
39420W        W98681  13.631  38.370  12.494
39421W        W98682  12.132  32.111  10.438
39422W        W98683  23.686  28.636  12.438
39423W        W98684  39.931  29.451   0.325
39424W        W98685  10.349   0.962   3.869
39425W        W98686   6.703  24.028   3.819
39426W        W98687   5.820  29.067   4.790
39427W        W98688   2.428  11.682   0.334
39428W        W98689  25.042   8.664   4.666
39429W        W98690   8.326  42.015  14.434
39430W        W98691  32.111  26.993  11.860
39431W        W98692  38.396   1.325   1.931
39432W        W98693  20.528  41.884   4.120
39433W        W98694  36.012  19.238   1.929
39434W        W98695  44.778   2.877   2.230
39435W        W98696  18.634   4.812  11.542
39436W        W98697  23.696   0.961  12.903
39437W        W98698   4.703   3.285  10.953
39438W        W98699  20.734   4.806  13.839
39439W        W98700   3.927  24.632  13.320
39440W        W98701  36.972  39.490   1.698
39441W        W98702  29.016   8.195  10.941
39442W        W98703  13.123  10.263   1.302
39443W        W98704  37.457  23.535  10.624
39444W        W98705   7.775  35.900  11.872
39445W        W98706   1.769   6.399   0.742
39446W        W98707  33.393  42.776   2.230
39447W        W98708   1.830  15.600   2.411
39448W        W98709   5.807  41.459   3.234
39449W        W98710  41.997  20.177   3.704
39450W        W98711  18.142  24.632   2.255
39451W        W98712  19.256  41.520  11.571
39452W        W98713  26.142  24.588  12.935
39453W        W98714  28.097  29.485  12.395
39454W        W98715  21.568  14.286  12.416
39455W        W98716   2.923  31.412   2.225
39456W        W98717  21.618  17.576   2.728
39457W        W98718  10.325  22.641   4.242
39458W        W98719  10.836  43.874   3.633
39459W        W98720  33.617  23.139  12.939
39460W        W98721  31.991  34.113   1.349
39461W        W98722   0.388  34.466   4.670
39462W        W98723  43.960  11.166   4.613
39463W        W98724  18.069   2.852  11.465
39464W        W98725  27.072  37.559   2.810
39465W        W98726   2.881  15.736  11.958
39466W        W98727  26.153  34.098   2.225
39467W        W98728  42.368  15.175   3.281
39468W        W98729  14.766  25.983   2.839
39469W        W98730  23.043  34.961  14.415
39470W        W98731  22.037  23.005   2.217
39471W        W98732   6.362  22.197   3.728
39472W        W98733   8.894   7.782   0.433
39473W        W98734  26.136  12.755  14.884
39474W        W98735   5.243  32.099   4.649
39475W        W98736  11.868  14.821  10.433
39476W        W98737   9.800  28.670  12.410
39477W        W98738  11.203  32.611   2.349
39478W        W98739  36.013  41.928   0.801
39479W        W98740  33.022   8.671  13.543
39480W        W98741  22.110   7.173   0.319
39481W        W98742  30.043  41.979   4.196
39482W        W98743  40.903  26.630  13.871
39483W        W98744  37.860  30.652  10.981
39484W        W98745  25.702  37.372   0.778
39485W        W98746  18.064  41.905  13.036
39486W        W98747  28.933  21.065   1.406
39487W        W98748  18.589   6.697   4.180
39488W        W98749  37.553  20.758  12.852
39489W        W98750  37.568  42.464  13.531
39490W        W98751   0.766  42.926   1.432
39491W        W98752  37.833  33.555   1.347
39492W        W98753  16.581  15.118  10.445
39493W        W98754  11.770  14.095   4.306
39494W        W98755  19.774  24.530  11.408
39495W        W98756  28.055  11.737   2.748
39496W        W98757  29.970   8.742  14.295
39497W        W98758  31.627  38.372   0.922
39498W        W98759  15.696  16.252   2.766
39499W        W98760  32.920  44.853   3.307
39500W        W98761  18.720  42.030   1.391
39501W        W98762  16.586  26.459  14.901
39502W        W98763  35.919  19.728   1.392
39503W        W98764  14.190  33.938   1.892
39504W        W98765   3.738  17.275  14.460
39505W        W98766  37.970  26.117  11.088
39506W        W98767  25.000  41.375   4.635
39507W        W98768  21.535  18.284   3.791
39508W        W98769   0.968  25.142   2.792
39509W        W98770  19.228  43.765  11.515
39510W        W98771   0.922  38.917   3.636
39511W        W98772  28.087  35.028   1.393
39512W        W98773  22.225   3.218   4.824
39513W        W98774  24.162  14.672   1.844
39514W        W98775  27.134  25.503   1.226
39515W        W98776  15.705  32.104   4.189
39516W        W98777  40.998  11.244  14.942
39517W        W98778   9.164  31.546   1.766
39518W        W98779  27.942  11.325  11.563
39519W        W98780  40.970  17.591  12.093
39520W        W98781  39.885  17.246   3.328
39521W        W98782  11.758   6.873   2.263
39522W        W98783  29.490  18.070   1.231
39523W        W98784   2.806   3.760  10.495
39524W        W98785  12.719  19.614  14.329
39525W        W98786  20.553  24.121   2.325
39526W        W98787  13.678  17.229  13.396
39527W        W98788  25.501  12.761   2.665
39528W        W98789  26.543  24.984   1.836
39529W        W98790   6.269  14.740   3.359
39530W        W98791  36.998   1.364   2.224
39531W        W98792   3.450  35.490  10.418
39532W        W98793  32.530  37.947  10.611
39533W        W98794  44.799  28.095   0.423
39534W        W98795   4.931  42.013   2.204
39535W        W98796  36.881   6.337   2.295
39536W        W98797   7.234  36.347  13.823
39537W        W98798  42.010  32.966  10.983
39538W        W98799  10.348  44.827  11.983
39539W        W98800  32.395  41.810   4.757
39540W        W98801  14.653  31.601  14.891
39541W        W98802  15.242  25.559   5.602
39542W        W98803  14.204  17.669  14.805
39543W        W98804  19.254  41.857  12.899
39544W        W98805  28.529   7.741  13.948
39545W        W98806   9.394  13.326  14.437
39546W        W98807  38.891  38.033  12.390
39547W        W98808  11.207  42.979   1.735
39548W        W98809  25.084  32.433   1.727
39549W        W98810  32.902   1.732  10.433
39550W        W98811   6.853  44.299   2.239
39551W        W98812  40.804  36.889  13.397
39552W        W98813   4.371  32.417  10.470
39553W        W98814  18.675  39.004   4.187
39554W        W98815   4.426   6.309  11.001
39555W        W98816   2.431  41.872  11.031
39556W        W98817  10.277  33.034  10.562
39557W        W98818   9.881  11.820   0.768
39558W        W98819  43.335  23.501   4.723
39559W        W98820   4.730  14.663   3.234
39560W        W98821   8.274  14.279   0.963
39561W        W98822  27.456  35.009  12.980
39562W        W98823  16.666   5.308   2.192
39563W        W98824  16.742   3.775  11.414
39564W        W98825  34.588   2.838   0.789
39565W        W98826   0.872   9.748   4.219
39566W        W98827  37.502  38.028  13.317
39567W        W98828  39.501  41.036  12.862
39568W        W98829  40.049  12.336   3.171
39569W        W98830  41.306  21.020  11.857
39570W        W98831  15.243  41.038   2.741
39571W        W98832  11.831  21.216  13.459
39572W        W98833   6.328   7.274   4.350
39573W        W98834  20.531  22.681  11.596
39574W        W98835   7.255  19.087  10.534
39575W        W98836   9.651  40.896  13.950
39576W        W98837  36.841  11.304   4.232
39577W        W98838  38.841  40.035   1.916
39578W        W98839  23.607  17.731   2.187
39579W        W98840   5.898   7.250  12.573
39580W        W98841  30.004  21.038   2.395
39581W        W98842  27.535   8.332   2.686
39582W        W98843   2.229  23.679  11.382
39583W        W98844  33.121  38.073   2.708
39584W        W98845  37.858  32.540   2.858
39585W        W98846  28.560  15.668   1.912
39586W        W98847  24.624  19.605  12.998
39587W        W98848  40.351  27.050   2.746
39588W        W98849  30.071   7.350   4.323
39589W        W98850   2.369  35.416  14.484
39590W        W98851  34.895  22.563   3.648
39591W        W98852  18.576  35.415  11.542
39592W        W98853  35.525  15.244  10.462
39593W        W98854  28.518  20.225   4.635
39594W        W98855   0.414  32.130  13.952
39595W        W98856  36.048  19.686  12.846
39596W        W98857  33.474   8.216  14.765
39597W        W98858  33.476  33.094   2.404
39598W        W98859  29.585   0.343   0.901
39599W        W98860  11.212  11.694  13.374
39600W        W98861  26.076  36.356   1.386
39601W        W98862  26.183   7.785   2.284
39602W        W98863  30.651  36.545   3.853
39603W        W98864  44.361  19.638  10.428
39604W        W98865  38.936  16.217  13.811
39605W        W98866  15.123  16.073   3.749
39606W        W98867  26.503   5.377   4.714
39607W        W98868   4.757  37.456  14.305
39608W        W98869  14.626   5.307  13.314
39609W        W98870  32.445   8.173   2.277
39610W        W98871  22.660  42.522  11.128
39611W        W98872   1.359  28.638   3.243
39612W        W98873  12.241   2.843  14.489
39613W        W98874  25.137  30.426   3.247
39614W        W98875  17.742  42.946  13.431
39615W        W98876  22.101  39.440  11.472
39616W        W98877  14.241  24.205   2.334
39617W        W98878   6.884  41.862   4.610
39618W        W98879  31.513   6.680   5.273
39619W        W98880  21.261  13.124  11.567
39620W        W98881  36.994  41.479  12.910
39621W        W98882  35.878  34.986  12.893
39622W        W98883  10.238  18.711  14.463
39623W        W98884  28.088  19.275   1.432
39624W        W98885  24.101  40.045   1.786
39625W        W98886   2.939  35.054  14.278
39626W        W98887   7.797  25.557  14.761
39627W        W98888  11.778  36.911   2.294
39628W        W98889   5.306  42.937   3.633
39629W        W98890   5.828  37.950   0.810
39630W        W98891  23.032  34.065   4.651
39631W        W98892  33.436  34.091  14.381
39632W        W98893  21.728  42.422  14.999
39633W        W98894   1.883  10.268  13.847
39634W        W98895  43.011  26.990   4.681
39635W        W98896   5.872  27.096   2.185
39636W        W98897  34.398  19.124  12.509
39637W        W98898  42.389   3.309   4.644
39638W        W98899   8.789  22.165  14.878
39639W        W98900  16.176  12.126   4.672
39640W        W98901  14.213  36.056  12.072
39641W        W98902  44.985  42.892  13.792
39642W        W98903   2.837  23.704   1.770
39643W        W98904  30.002  31.007   3.651
39644W        W98905   0.885  11.722   2.328
39645W        W98906   9.343   1.950   2.850
39646W        W98907  39.442   3.773   0.449
39647W        W98908   5.367   8.685  10.000
39648W        W98909  17.674  12.667  13.349
39649W        W98910  12.281  14.100  14.348
39650W        W98911  12.308  22.076  11.428
39651W        W98912  14.097   9.831  11.485
39652W        W98913  24.548  36.063  10.598
39653W        W98914  40.329  16.621  14.788
39654W        W98915  31.130  16.790   0.743
39655W        W98916  35.476  17.763  11.577
39656W        W98917  44.970  14.248   3.185
39657W        W98918  21.252  40.310   0.936
39658W        W98919   0.397  13.293   3.352
39659W        W98920  41.797  43.427   1.269
39660W        W98921  16.202  30.593   3.207
39661W        W98922  31.525  39.830  14.898
39662W        W98923   3.946   7.244  11.501
39663W        W98924  14.323  10.319  13.512
39664W        W98925  39.505  23.537  13.312
39665W        W98926  23.655   3.847   0.733
39666W        W98927  41.304  31.994   3.219
39667W        W98928  32.519  15.182   3.235
39668W        W98929  17.296  39.472   0.443
39669W        W98930  27.544  28.669  11.978
39670W        W98931  39.392   7.826  11.545
39671W        W98932  11.253   9.717  12.015
39672W        W98933  13.836   0.342   3.707
39673W        W98934   5.314  23.498  13.351
39674W        W98935  43.765  27.448   0.397
39675W        W98936  20.252  35.958  12.919
39676W        W98937  36.392  28.089  11.048
39677W        W98938  43.333  40.035  13.988
39678W        W98939  20.101  31.628  12.509
39679W        W98940   3.444  27.587  10.064
39680W        W98941  22.645  22.504   2.791
39681W        W98942  12.262  13.242   2.342
39682W        W98943  21.597  22.204  10.934
39683W        W98944  32.020  38.915   3.735
39684W        W98945  34.909  33.958   0.277
39685W        W98946  28.998  26.063  12.460
39686W        W98947  19.534  21.710   2.370
39687W        W98948  12.720  40.447  13.866
39688W        W98949  36.488   7.221   1.859
39689W        W98950  14.234  40.494  14.793
39690W        W98951  38.484  13.286  13.320
39691W        W98952   5.717  43.372  11.973
39692W        W98953  44.432  40.904  12.526
39693W        W98954  25.190  24.531   2.409
39694W        W98955  30.040   5.331   0.784
39695W        W98956  39.545  14.816   2.391
39696W        W98957  44.932  30.478  12.477
39697W        W98958  34.574   9.733   5.273
39698W        W98959   7.184  31.115   1.823
39699W        W98960  10.315  35.021  10.960
39700W        W98961  35.097  25.527   1.765
39701W        W98962  36.417  43.857  14.925
39702W        W98963  20.183  44.372   9.997
39703W        W98964  23.160  19.756   1.320
39704W        W98965  26.463  19.222   3.203
39705W        W98966  38.544  32.960   4.267
39706W        W98967   2.239   5.864  12.518
39707W        W98968   3.859  38.056  14.014
39708W        W98969   5.903   3.392   4.117
39709W        W98970   1.924   3.742  12.359
39710W        W98971  30.606   4.862   3.706
39711W        W98972  19.553  11.134   4.718
39712W        W98973  33.549   2.825  13.821
39713W        W98974   1.769  12.799  12.044
39714W        W98975  38.396  43.790  12.883
39715W        W98976   1.786  10.138  14.976
39716W        W98977  43.331   8.397   0.764
39717W        W98978  29.136  15.800  14.320
39718W        W98979   5.826  28.080   1.909
39719W        W98980  33.948  39.889  14.900
39720W        W98981  26.132  35.926   3.695
39721W        W98982  23.197  21.208   2.378
39722W        W98983   7.792  39.372  13.325
39723W        W98984  25.039   8.733  14.001
39724W        W98985   1.460  41.335   2.869
39725W        W98986  18.051  32.392   3.680
39726W        W98987   5.397  38.869  14.511
39727W        W98988  22.171  30.477  13.460
39728W        W98989  24.992  23.093   0.810
39729W        W98990  26.090  38.371  14.299
39730W        W98991  40.444  43.801   2.779
39731W        W98992  43.990   6.293   0.288
39732W        W98993   6.848  29.524   4.758
39733W        W98994  42.400  37.052  12.033
39734W        W98995  17.673  15.708   0.921
39735W        W98996  32.474   0.891   0.401
39736W        W98997  15.184  35.585  13.951
39737W        W98998  33.621   6.786   5.701
39738W        W98999  43.444   4.878   4.727
39739W        W99000  41.965  42.486  10.995
39740W        W99001  12.319  40.416  12.071
39741W        W99002  27.197  26.165  13.310
39742W        W99003   1.826  36.468  13.961
39743W        W99004  18.577  35.417   0.256
39744W        W99005  24.002  38.520   0.272
39745W        W99006   0.426  28.170   3.197
39746W        W99007   0.392  27.638  13.474
39747W        W99008  40.405  28.094   3.782
39748W        W99009  22.723  15.823   1.230
39749W        W99010  11.686   0.356  13.800
39750W        W99011  17.160  27.590  13.924
39751W        W99012  18.237   7.373   3.648
39752W        W99013  37.066  43.885   0.394
39753W        W99014  18.743   9.727   0.854
39754W        W99015  38.075  16.773   0.815
39755W        W99016  18.082  17.586   3.870
39756W        W99017  29.078   5.308   1.260
39757W        W99018   1.875  28.967  10.489
39758W        W99019  26.512  44.480   3.341
39759W        W99020   3.339   3.445   4.629
39760W        W99021  34.596  32.952   3.793
39761W        W99022  22.180   9.749  12.541
39762W        W99023   0.468   3.863   1.839
39763W        W99024  38.567   1.818   0.830
39764W        W99025  25.084   6.851   1.268
39765W        W99026   7.666  32.472   0.941
39766W        W99027  14.117   3.386  14.470
39767W        W99028  10.760  38.568  14.999
39768W        W99029   6.809   6.286   1.793
39769W        W99030  23.182  21.018   0.733
39770W        W99031  30.990  27.147  14.857
39771W        W99032  19.682  19.084  11.503
39772W        W99033   9.211  26.970  12.450
39773W        W99034   7.691  28.939   3.712
39774W        W99035  35.504  15.169  13.342
39775W        W99036  20.055   6.766  11.424
39776W        W99037   9.871   5.779  13.804
39777W        W99038   4.919   7.314  13.904
39778W        W99039  28.110  20.751   3.667
39779W        W99040  34.049  43.479   1.755
39780W        W99041  19.749  31.904   4.266
39781W        W99042  19.539  24.168   1.354
39782W        W99043  17.209   8.319  11.093
39783W        W99044  40.935  12.184   3.316
39784W        W99045   2.261  14.104   1.386
39785W        W99046   7.385  13.603  10.981
39786W        W99047  19.558  28.980   0.483
39787W        W99048  13.609  18.108  10.945
39788W        W99049  42.909  15.791   1.777
39789W        W99050  27.133  16.597  11.514
39790W        W99051   2.789  17.232  13.380
39791W        W99052  21.260  34.521   0.480
39792W        W99053  28.505   9.847   4.633
39793W        W99054  20.097  26.996  10.420
39794W        W99055  39.418   7.363  13.424
39795W        W99056   9.834  35.584   4.125
39796W        W99057  26.981   5.343  13.427
39797W        W99058  30.078   0.904   3.175
39798W        W99059  11.758  24.691   1.233
39799W        W99060   6.376  15.665   3.239
39800W        W99061  15.120  39.385   0.249
39801W        W99062  33.970   0.482   0.865
39802W        W99063  41.990   3.419  13.000
39803W        W99064  31.151   1.968   3.262
39804W        W99065  40.036   5.410  10.457
39805W        W99066  27.157   2.925   4.277
39806W        W99067  30.595  25.077  13.445
39807W        W99068  17.685   8.256   0.375
39808W        W99069   3.390  19.212   4.696
39809W        W99070  21.717  27.025  14.822
39810W        W99071  33.118  30.573   1.932
39811W        W99072  23.226   0.761  10.935
39812W        W99073  35.375  44.417   3.386
39813W        W99074  24.494  44.501  13.457
39814W        W99075  30.046  44.908   2.308
39815W        W99076  41.952  39.473   0.942
39816W        W99077  32.628  32.392  12.481
39817W        W99078  11.312   2.722   3.815
39818W        W99079  28.640  44.863  13.893
39819W        W99080  32.450  24.111   3.210
39820W        W99081   0.286  21.142   3.227
39821W        W99082  17.708  33.024  11.518
39822W        W99083  39.971  43.476   1.818
39823W        W99084   5.270  44.998  11.532
39824W        W99085  43.984   4.732   2.865
39825W        W99086  16.715  36.569   3.310
39826W        W99087  39.843   9.358  11.513
39827W        W99088  41.432  35.401   5.322
39828W        W99089  31.498   3.249   3.833
39829W        W99090  36.509  43.300   0.262
39830W        W99091  38.516  19.056  10.928
39831W        W99092  26.681  26.165   1.757
39832W        W99093  39.534  10.783   3.692
39833W        W99094  26.043  12.324   1.412
39834W        W99095  11.346  26.206  14.318
39835W        W99096   9.220  22.110  11.940
39836W        W99097  37.532  33.398  11.462
39837W        W99098  18.282  31.426   4.829
39838W        W99099  30.055  35.952   3.232
39839W        W99100  10.755  26.031   2.371
39840W        W99101  42.908   2.309   0.922
39841W        W99102  21.256  38.463   0.831
39842W        W99103   4.850  41.005   3.349
39843W        W99104  16.275  39.432   0.950
39844W        W99105   1.322   2.893   4.336
39845W        W99106   1.438  39.851   0.928
39846W        W99107   6.721  41.402   3.233
39847W        W99108  41.925  27.121  12.348
39848W        W99109  38.921  40.441  11.018
39849W        W99110  39.469  33.994  11.074
39850W        W99111   8.382   9.154   0.420
39851W        W99112  41.882  42.843  14.987
39852W        W99113   8.264  34.898  14.276
39853W        W99114  16.780  18.106  12.448
39854W        W99115  32.094  14.696   1.917
39855W        W99116  25.588  28.128   3.330
39856W        W99117  32.459   8.763  13.525
39857W        W99118   3.335   1.761  11.874
39858W        W99119  20.766  10.848   0.789
39859W        W99120   0.800  12.724   2.780
39860W        W99121  35.032  13.318  12.948
39861W        W99122  31.037  34.578   0.483
39862W        W99123  20.257  15.131  11.861
39863W        W99124  23.052  43.327  10.448
39864W        W99125  44.945   4.853   1.354
39865W        W99126  11.218  31.449   0.456
39866W        W99127  20.699  35.903  12.533
39867W        W99128   9.739   9.883  13.508
39868W        W99129  34.110   9.209   0.831
39869W        W99130   1.923  38.009   1.381
39870W        W99131  30.425  27.015   2.319
39871W        W99132  22.586   5.277   4.295
39872W        W99133  20.717  16.183  12.379
39873W        W99134  37.379  11.150   2.233
39874W        W99135  15.098  14.330  11.878
39875W        W99136   7.351  23.535   3.322
39876W        W99137  23.119  19.059  14.979
39877W        W99138  22.734   0.305   3.245
39878W        W99139  27.943  12.839  13.472
39879W        W99140  35.442  10.694   3.189
39880W        W99141  10.318  27.067   2.291
39881W        W99142  20.158  19.571   9.583
39882W        W99143  33.603  29.108  12.831
39883W        W99144  24.615   6.354   0.848
39884W        W99145  21.082  30.449   4.836
39885W        W99146  14.236  35.585  13.926
39886W        W99147  21.748  42.832  12.501
39887W        W99148  27.186  33.406   2.229
39888W        W99149  37.002  33.900  11.424
39889W        W99150  36.446  17.677   0.250
39890W        W99151   4.388  17.587  13.847
39891W        W99152  20.601  27.561  14.372
39892W        W99153  39.449  21.194  12.055
39893W        W99154  30.613  34.996  14.841
39894W        W99155  41.944   4.740   1.286
39895W        W99156  32.068  36.026   4.635
39896W        W99157  25.081  22.156   3.369
39897W        W99158  34.927  33.879  12.950
39898W        W99159  10.677  35.518   0.251
39899W        W99160  21.228  24.540  12.051
39900W        W99161   0.777  19.204  12.380
39901W        W99162  24.997  23.735   4.126
39902W        W99163   5.393  39.054  10.568
39903W        W99164   6.791  21.658  13.412
39904W        W99165  16.805   4.894  12.515
39905W        W99166  29.572  19.540   3.167
39906W        W99167   3.234   5.281   4.127
39907W        W99168   8.311   2.811   0.266
39908W        W99169  12.851  43.795  10.604
39909W        W99170  36.944   1.761   1.784
39910W        W99171  18.782   7.886  12.076
39911W        W99172  39.345  43.481   3.365
39912W        W99173  28.559   0.826   2.766
39913W        W99174  17.178  11.188  10.530
39914W        W99175  44.895  13.186   1.278
39915W        W99176  34.944  21.139   3.311
39916W        W99177  12.333  17.644  12.824
39917W        W99178  32.012  23.555   4.350
39918W        W99179   4.243  34.977   4.227
39919W        W99180  27.686  35.512   4.142
39920W        W99181  25.975  10.291  11.087
39921W        W99182  10.322  15.676  14.366
39922W        W99183  38.918  42.509  12.480
39923W        W99184  40.903  45.000   3.779
39924W        W99185  29.444  18.175  12.907
39925W        W99186  17.151   7.396   3.256
39926W        W99187  13.279   4.748  13.431
39927W        W99188  35.986  34.379   3.241
39928W        W99189  32.632  22.008  12.531
39929W        W99190   3.235  17.294   3.372
39930W        W99191  21.565   8.296   0.254
39931W        W99192  11.247  26.659   1.267
39932W        W99193  23.719  38.923  14.967
39933W        W99194   8.230   8.896  10.120
39934W        W99195  24.149  13.834  13.039
39935W        W99196  22.220  39.024   1.222
39936W        W99197  35.023  26.511  12.420
39937W        W99198   5.270  39.557   2.247
39938W        W99199  40.415  19.206  13.355
39939W        W99200  37.357  32.628   0.859
39940W        W99201  28.507   5.392   3.284
39941W        W99202  23.601   8.696  13.400
39942W        W99203  11.331  10.648   4.135
39943W        W99204   1.414  30.532  13.953
39944W        W99205  24.172  39.917  11.515
39945W        W99206  38.981   6.248   5.244
39946W        W99207   8.726   4.717   0.828
39947W        W99208  30.533  29.564  10.956
39948W        W99209  43.991  32.448  14.397
39949W        W99210  30.538  37.509   1.270
39950W        W99211  24.165  29.071   2.752
39951W        W99212   7.201  23.205  10.993
39952W        W99213  25.174  42.480   2.888
39953W        W99214  33.478  43.508  13.018
39954W        W99215   7.201   0.483  13.888
39955W        W99216  42.322   8.256   1.733
39956W        W99217   0.849  33.431  11.490
39957W        W99218  44.765  27.943   5.292
39958W        W99219  25.516  14.742  14.370
39959W        W99220   2.733  40.310  12.339
39960W        W99221  38.539  38.025  14.474
39961W        W99222  34.888   7.711  13.846
39962W        W99223  37.558  33.013   2.350
39963W        W99224   4.441   9.174  12.472
39964W        W99225  29.606  21.585   0.836
39965W        W99226  15.306  40.450  13.966
39966W        W99227   9.260  29.592  11.576
39967W        W99228   5.789  18.203   3.280
39968W        W99229   6.768  12.703  13.841
39969W        W99230  30.932  22.188  14.876
39970W        W99231   9.774   6.219   2.712
39971W        W99232  19.084  29.499   1.350
39972W        W99233  18.177  30.618  14.860
39973W        W99234  24.653  31.946   1.897
39974W        W99235  39.535   7.855  10.587
39975W        W99236  44.871  20.116   2.863
39976W        W99237  33.421  37.462  14.866
39977W        W99238  38.559  40.043  13.878
39978W        W99239   3.286  23.049  12.525
39979W        W99240  41.483  42.967   4.669
39980W        W99241  10.341   7.273  14.457
39981W        W99242  29.438   9.182  14.855
39982W        W99243  44.822  31.056  14.998
39983W        W99244  39.845  32.039   4.711
39984W        W99245  15.775  11.229  12.520
39985W        W99246  26.595   0.409   5.566
39986W        W99247  42.377  44.915  14.857
39987W        W99248  31.451  33.412   1.281
39988W        W99249  24.003  30.460   2.898
39989W        W99250  11.256   6.886   3.763
39990W        W99251   7.779  43.968   4.639
39991W        W99252   0.808   4.441  13.848
39992W        W99253  21.694  14.663  13.032
39993W        W99254  29.575  43.890   4.185
39994W        W99255   4.881  38.457  14.315
39995W        W99256  38.819  32.967  12.394
39996W        W99257  32.105  30.969   4.622
39997W        W99258  14.601  38.422  12.073
39998W        W99259  16.797  30.506   2.392
39999W        W99260  29.149  14.167  11.435
40000W        W99261  42.881  28.447   3.798
40001W        W99262  11.158  44.975   3.316
40002W        W99263  11.269  38.502  11.442
40003W        W99264  40.341  33.076  10.043
40004W        W99265   8.223  37.368   0.776
40005W        W99266  20.599  19.747   2.416
40006W        W99267   2.955   2.247  11.433
40007W        W99268   2.466   9.294  14.879
40008W        W99269  39.344  26.570  11.870
40009W        W99270   6.829  42.358  10.474
40010W        W99271  13.718  26.591  10.552
40011W        W99272  27.972  18.155   1.840
40012W        W99273   7.280  19.064   0.840
40013W        W99274   6.219  23.543  10.001
40014W        W99275  14.771  41.882  13.002
40015W        W99276  20.554   8.774   4.615
40016W        W99277  44.941  42.504  13.997
40017W        W99278  18.172  43.454  11.425
40018W        W99279  14.621  15.205  11.047
40019W        W99280  20.131  14.232   0.343
40020W        W99281  37.370  33.481  10.562
40021W        W99282  11.238   6.428  12.886
40022W        W99283  33.416  34.046   4.138
40023W        W99284   1.780  40.799   4.216
40024W        W99285  28.481  31.466  12.020
40025W        W99286  13.300  37.086  13.815
40026W        W99287  23.076  27.541   3.806
40027W        W99288   3.278  41.322  10.030
40028W        W99289   3.899   2.899   2.770
40029W        W99290  14.157  38.038  10.979
40030W        W99291  12.801  13.615  13.987
40031W        W99292  38.013   9.346   2.769
40032W        W99293   8.870  37.079  11.969
40033W        W99294  18.714  44.948   2.244
40034W        W99295  22.730  33.968  14.886
40035W        W99296   6.374  38.867  12.893
40036W        W99297   0.271  34.380   3.180
40037W        W99298  24.709  19.263  14.831
40038W        W99299  40.042  29.501   2.681
40039W        W99300  34.864  19.621  13.439
40040W        W99301   6.792  33.574  13.464
40041W        W99302  28.516   9.652  11.939
40042W        W99303   6.846  40.833   4.792
40043W        W99304  31.099  32.426   4.246
40044W        W99305   0.897  17.096   3.841
40045W        W99306  30.477  29.487  14.030
40046W        W99307  32.439  36.867  11.462
40047W        W99308  15.748  16.086   4.751
40048W        W99309  22.623  34.607  10.422
40049W        W99310  36.365   6.914   4.713
40050W        W99311  17.618  13.317   3.676
40051W        W99312  15.580  23.218   2.271
40052W        W99313  18.084  37.982  13.834
40053W        W99314  23.077   7.388   1.351
40054W        W99315  14.778   1.921  10.125
40055W        W99316   1.923  21.111   3.765
40056W        W99317  40.915  34.953   0.891
40057W        W99318   2.938  43.800  10.425
40058W        W99319  11.330  12.810  10.543
40059W        W99320  40.418  25.215   2.688
40060W        W99321  38.022  28.440  14.502
40061W        W99322  27.970  16.138  14.333
40062W        W99323  42.887  13.683   3.800
40063W        W99324  10.788  36.960   2.883
40064W        W99325  19.600   8.712  10.467
40065W        W99326   3.850   4.928  13.857
40066W        W99327  12.764  41.296  12.507
40067W        W99328  44.466  16.772  11.894
40068W        W99329  40.839  33.954  13.500
40069W        W99330  13.164  44.405   5.303
40070W        W99331  26.528  14.808  12.053
40071W        W99332  34.097  29.923   4.229
40072W        W99333  12.752  43.980   3.825
40073W        W99334   3.395  14.109  13.460
40074W        W99335  15.746   0.342   1.380
40075W        W99336  22.548  38.853   1.347
40076W        W99337  30.122  23.160   1.850
40077W        W99338  43.802  20.245   1.883
40078W        W99339  40.337   5.286  12.069
40079W        W99340   4.777  11.753  13.511
40080W        W99341  15.781   1.292   2.740
40081W        W99342  21.028  17.231  13.899
40082W        W99343  39.003  11.622  11.917
40083W        W99344  44.382  20.109  11.594
40084W        W99345  23.628   9.728  11.462
40085W        W99346   9.687   5.352   4.614
40086W        W99347   0.409  27.117   9.951
40087W        W99348  42.979   1.732   0.354
40088W        W99349  39.354   5.367  13.992
40089W        W99350  40.848  42.855  14.325
40090W        W99351  33.997  31.634   4.605
40091W        W99352  39.417  21.134   0.820
40092W        W99353  15.264  39.463   2.183
40093W        W99354  10.302  28.539  13.880
40094W        W99355   8.699  32.980  12.074
40095W        W99356  21.089  10.177   9.940
40096W        W99357  26.565  35.987   4.220
40097W        W99358  14.719  43.438  14.351
40098W        W99359   8.688   2.366  12.511
40099W        W99360  40.940   2.906   3.660
40100W        W99361  12.785   4.718   3.696
40101W        W99362   5.711  23.600   0.929
40102W        W99363  37.402  24.121   4.141
40103W        W99364   1.281  29.049  14.833
40104W        W99365  20.148   9.781   3.268
40105W        W99366  44.436  14.707  10.544
40106W        W99367  36.080  26.625  14.354
40107W        W99368  27.671   0.296   0.861
40108W        W99369  23.059   5.241   2.679
40109W        W99370  15.179  18.628  14.899
40110W        W99371  16.270  37.572   1.416
40111W        W99372  39.000  24.054   2.240
40112W        W99373   5.898   3.327   1.380
40113W        W99374  30.977  36.924  12.955
40114W        W99375   6.396  28.548  11.043
40115W        W99376   5.347  42.347   0.460
40116W        W99377   4.701  41.520   1.919
40117W        W99378   4.734  31.519   2.787
40118W        W99379  23.600  35.077  10.943
40119W        W99380  42.858  26.051  12.576
40120W        W99381  18.266  27.950   2.411
40121W        W99382  13.132  21.207  12.452
40122W        W99383  36.040  13.132   3.349
40123W        W99384  41.511  36.965   1.769
40124W        W99385  36.022  28.630  14.778
40125W        W99386  10.876  28.064  14.326
40126W        W99387   1.309  31.990   3.701
40127W        W99388   9.769  37.344  14.858
40128W        W99389   5.382  38.511   3.650
40129W        W99390  33.510   8.836  12.457
40130W        W99391  44.472   3.930  10.982
40131W        W99392  23.700  43.803  14.009
40132W        W99393  11.713  41.906   0.365
40133W        W99394  22.088   0.357  11.071
40134W        W99395  27.946  11.806  12.516
40135W        W99396  30.036  16.168  13.492
40136W        W99397   2.470  28.969  12.901
40137W        W99398  38.419   3.864  13.925
40138W        W99399  29.497  34.880   1.908
40139W        W99400  14.663  15.177   4.640
40140W        W99401  43.977  34.435   2.278
40141W        W99402  17.580  33.896  12.400
40142W        W99403  20.554  15.288   4.121
40143W        W99404  22.153  36.547   0.769
40144W        W99405   0.883  23.493  13.810
40145W        W99406   9.149  24.636   3.662
40146W        W99407  33.132  33.406  14.969
40147W        W99408  33.914  41.536  10.512
40148W        W99409  30.039   3.736   4.294
40149W        W99410  29.608  25.971  12.059
40150W        W99411  12.353  14.202   4.605
40151W        W99412  44.429  42.922  11.519
40152W        W99413   8.224  21.041  11.117
40153W        W99414  24.976  27.998   3.675
40154W        W99415  19.649   4.752   0.482
40155W        W99416  44.780  12.646   0.433
40156W        W99417  30.911  41.397   4.608
40157W        W99418  21.656  39.391   1.441
40158W        W99419   9.320  33.451  13.844
40159W        W99420  29.957  11.679  14.898
40160W        W99421  22.120   1.750  10.470
40161W        W99422  25.569  27.560   1.301
40162W        W99423  34.936   0.903  14.920
40163W        W99424   5.297  11.819  10.533
40164W        W99425  40.478  15.113  12.925
40165W        W99426  10.312  44.360  13.432
40166W        W99427  12.317  19.648   3.385
40167W        W99428  40.481  20.632   4.241
40168W        W99429  16.232   0.400  11.049
40169W        W99430  32.141  24.166  12.981
40170W        W99431  43.002  35.888  12.077
40171W        W99432  25.657  22.595  13.817
40172W        W99433   1.887  16.100   4.608
40173W        W99434  38.920  15.684  14.352
40174W        W99435  39.348  27.670   0.316
40175W        W99436  35.429  31.990   1.397
40176W        W99437  28.989  18.103  12.903
40177W        W99438   6.847   9.177   2.408
40178W        W99439  43.988  17.066   0.931
40179W        W99440  15.731   2.425   0.737
40180W        W99441   2.790  29.989   1.757
40181W        W99442   0.949  41.972  13.385
40182W        W99443  33.943  22.152   2.837
40183W        W99444  23.623  11.634   2.215
40184W        W99445  11.218   9.168   4.336
40185W        W99446   1.897   0.987   3.326
40186W        W99447  29.993  32.015  12.089
40187W        W99448  13.303  20.526   2.362
40188W        W99449  38.918  28.642  11.388
40189W        W99450   7.417  38.005  11.976
40190W        W99451   6.368  10.212  14.323
40191W        W99452  40.440  36.561   5.095
40192W        W99453  30.437   0.982   0.899
40193W        W99454   3.328  35.603  13.971
40194W        W99455  33.105  19.090   1.901
40195W        W99456  15.254  19.161  10.573
40196W        W99457  17.632  44.910  13.365
40197W        W99458   7.770   4.929  13.824
40198W        W99459  35.088   3.314  10.965
40199W        W99460  10.739  41.994   1.720
40200W        W99461  23.595  10.667   2.218
40201W        W99462   9.224  31.619  11.485
40202W        W99463   3.440  31.473  14.785
40203W        W99464   4.793  33.089   3.318
40204W        W99465  37.979  26.191  14.924
40205W        W99466  24.192  33.452   0.479
40206W        W99467   1.768   8.314   1.766
40207W        W99468  27.106  23.141   0.469
40208W        W99469   8.750  19.550  12.506
40209W        W99470  26.146  43.820   9.633
40210W        W99471  35.962   9.715   3.273
40211W        W99472  22.089  33.071   3.344
40212W        W99473  37.073  38.525  11.093
40213W        W99474  26.030   5.755  11.418
40214W        W99475   6.784  36.407  13.045
40215W        W99476   4.760  10.362   0.781
40216W        W99477  24.492  43.299  13.322
40217W        W99478  30.425  28.962   4.700
40218W        W99479  16.586  21.719  10.969
40219W        W99480  44.351   3.719  11.394
40220W        W99481   4.752  15.278  13.466
40221W        W99482   0.792   3.319  12.071
40222W        W99483  39.386   7.703   3.372
40223W        W99484  18.163   9.800   4.793
40224W        W99485  38.027  12.610  12.825
40225W        W99486   3.750  22.129  12.039
40226W        W99487  21.175  34.482   2.864
40227W        W99488  30.592  23.087   3.361
40228W        W99489   2.322   8.323  12.034
40229W        W99490   2.845  41.501   2.718
40230W        W99491  35.986  21.603  14.960
40231W        W99492  41.459  31.069  14.832
40232W        W99493  36.958  23.720  14.501
40233W        W99494  22.607   6.215   4.656
40234W        W99495  38.521  16.616   0.941
40235W        W99496  16.177  10.669  12.093
40236W        W99497  32.083  41.437  11.066
40237W        W99498  24.566  20.755  11.404
40238W        W99499   3.753  37.373  12.409
40239W        W99500  40.843  41.374   0.920
40240W        W99501  33.004  23.001   2.325
40241W        W99502  39.010  17.070   3.768
40242W        W99503  41.858  44.982  14.363
40243W        W99504  40.360   6.392  13.007
40244W        W99505  39.426  11.357   2.893
40245W        W99506  12.361  11.818   2.404
40246W        W99507  26.063  42.988  14.275
40247W        W99508  17.184   9.269  14.409
40248W        W99509  29.428  26.671   3.857
40249W        W99510  21.037   3.427  10.088
40250W        W99511  19.177  15.605   1.934
40251W        W99512  17.282   1.478   1.318
40252W        W99513  16.629  34.380   1.250
40253W        W99514  22.230  20.163   9.963
40254W        W99515  20.698  40.503  10.925
40255W        W99516  20.604  19.044  12.957
40256W        W99517  31.095  18.595   0.833
40257W        W99518  20.090  42.332   1.274
40258W        W99519  11.338  38.361  13.963
40259W        W99520  20.765  23.127  11.458
40260W        W99521  30.928   8.359  13.527
40261W        W99522  20.748  25.077  12.372
40262W        W99523  44.457  14.246   3.824
40263W        W99524  30.107  13.129  13.868
40264W        W99525   0.976  12.632  14.855
40265W        W99526  33.538   8.404   3.220
40266W        W99527  12.756  17.080   3.821
40267W        W99528  16.778  27.970   0.392
40268W        W99529   6.354  10.688   1.336
40269W        W99530   2.864   4.926  12.343
40270W        W99531   7.670  41.409   5.308
40271W        W99532  35.031  36.484  10.425
40272W        W99533  25.699  28.048  11.924
40273W        W99534  37.011  33.109  14.857
40274W        W99535  44.987   0.354   2.262
40275W        W99536  44.438  21.674   0.333
40276W        W99537  37.069  42.514  12.509
40277W        W99538  34.471  14.753   1.773
40278W        W99539  32.116  11.841   3.182
40279W        W99540  12.335  25.117  11.040
40280W        W99541  33.524  42.380  14.911
40281W        W99542  25.593  37.403   3.222
40282W        W99543   7.357  42.302   1.871
40283W        W99544  31.562   0.249  11.581
40284W        W99545  16.178  27.532   1.400
40285W        W99546  10.342   6.698  13.394
40286W        W99547   9.293  43.987  11.441
40287W        W99548  33.034  27.089   2.698
40288W        W99549  27.178   4.389  11.558
40289W        W99550  18.627  32.112  11.527
40290W        W99551  26.183  11.768   4.269
40291W        W99552  27.176  39.472  10.440
40292W        W99553   1.334  23.211   3.692
40293W        W99554  41.028  20.601   1.372
40294W        W99555  44.306  14.270   5.168
40295W        W99556  42.783   7.331   9.993
40296W        W99557  41.814  11.301   3.327
40297W        W99558  18.075  28.595  11.079
40298W        W99559   0.417  41.379   2.382
40299W        W99560  14.693  15.280  13.400
40300W        W99561  43.899   8.216  11.108
40301W        W99562   7.806   0.787  13.998
40302W        W99563  10.701  31.630  14.287
40303W        W99564  24.210  25.637   0.877
40304W        W99565  18.150  18.136   1.865
40305W        W99566  33.544  38.507  11.909
40306W        W99567  19.606  41.956  14.274
40307W        W99568  14.271  42.400  11.011
40308W        W99569   0.983  43.438  10.463
40309W        W99570  13.741  21.703   0.959
40310W        W99571   3.348   2.724  12.469
40311W        W99572  40.961   4.314  12.580
40312W        W99573   3.741  42.379  10.592
40313W        W99574  14.775  39.889  14.770
40314W        W99575  29.000  43.512   0.793
40315W        W99576  21.540  43.906   0.828
40316W        W99577  19.064  33.536  10.418
40317W        W99578  31.588   8.387   9.448
40318W        W99579  21.023  23.163  14.356
40319W        W99580  33.993  37.911  14.822
40320W        W99581   8.316  25.070  13.992
40321W        W99582  12.684  33.430  14.514
40322W        W99583  26.470  42.954   4.666
40323W        W99584   7.396  30.489  14.934
40324W        W99585   4.353  32.606   2.855
40325W        W99586  14.662  40.989  13.340
40326W        W99587  33.921  13.828   3.740
40327W        W99588   4.810  34.397  13.420
40328W        W99589  10.852   4.234   3.252
40329W        W99590  19.090   8.400   1.293
40330W        W99591  38.007  35.914  13.472
40331W        W99592  31.083  12.730  13.035
40332W        W99593  30.591  24.172   1.809
40333W        W99594  43.794  11.857  12.033
40334W        W99595  32.547  33.461   1.359
40335W        W99596  13.169  17.643  12.408
40336W        W99597  13.140   9.317   0.738
40337W        W99598  27.508  31.029   1.781
40338W        W99599  32.959   3.815  14.779
40339W        W99600  14.206   3.237   4.140
40340W        W99601  22.739   0.493   0.303
40341W        W99602   4.246  25.135  10.458
40342W        W99603   8.399  20.530   2.799
40343W        W99604   9.371  34.044   0.261
40344W        W99605   6.696  25.052   1.757
40345W        W99606  41.989  24.995   0.317
40346W        W99607   9.683   3.365  13.925
40347W        W99608  33.065  37.988   4.710
40348W        W99609  34.543  34.003   4.691
40349W        W99610   8.770  26.161   4.180
40350W        W99611  22.052  17.135   1.722
40351W        W99612  13.663  22.667  12.868
40352W        W99613  29.608  17.223   2.757
40353W        W99614  13.726  43.398   0.797
40354W        W99615  42.806  39.920   1.236
40355W        W99616   6.893  27.145  12.089
40356W        W99617   6.824   3.855  11.533
40357W        W99618  34.866  29.452   3.278
40358W        W99619   0.341   7.368  14.026
40359W        W99620   0.351  12.721   3.782
40360W        W99621  16.113   0.378   0.288
40361W        W99622  15.700  39.046   0.853
40362W        W99623  42.419  12.813   3.158
40363W        W99624  35.904  27.149  12.342
40364W        W99625  11.315  19.721  11.403
40365W        W99626  19.768  25.056   2.217
40366W        W99627  21.157  44.445   1.286
40367W        W99628  24.134  12.651  10.913
40368W        W99629  16.710  15.162   2.715
40369W        W99630  32.128  19.544  11.988
40370W        W99631  22.547  28.604  11.603
40371W        W99632  44.759  44.428  11.400
40372W        W99633   5.214  33.535  13.312
40373W        W99634  42.866  15.682   0.819
40374W        W99635  36.956  19.676   2.830
40375W        W99636  10.235  36.975  14.334
40376W        W99637  40.055   3.242  12.058
40377W        W99638   7.195  18.658   0.834
40378W        W99639  23.128  14.689   1.322
40379W        W99640  44.280  38.486   2.184
40380W        W99641   2.472  36.475   4.812
40381W        W99642   1.899  38.363  12.381
40382W        W99643   0.394  33.124  11.070
40383W        W99644   7.407  12.342   4.604
40384W        W99645  17.775  11.736  11.893
40385W        W99646  22.580  18.653  14.960
40386W        W99647  36.009  43.278   0.895
40387W        W99648  17.686  25.513  13.844
40388W        W99649  26.528   8.352   3.670
40389W        W99650  14.610  37.865   3.378
40390W        W99651  25.574  42.933  12.914
40391W        W99652  21.713  38.493   0.923
40392W        W99653  18.674  42.904   2.372
40393W        W99654   9.226  36.505   2.402
40394W        W99655  39.958  31.082   3.358
40395W        W99656  17.121  36.999   3.176
40396W        W99657  16.109  35.521   3.284
40397W        W99658  13.607   7.861  14.968
40398W        W99659  24.563   7.694   1.298
40399W        W99660  36.536  42.897   1.360
40400W        W99661  13.304  22.691   1.933
40401W        W99662   2.901  18.128  13.026
40402W        W99663   1.737   2.437   3.805
40403W        W99664  33.890  43.967   0.447
40404W        W99665   3.379  26.473   2.372
40405W        W99666  16.286  41.362  11.520
40406W        W99667  33.112  14.223   4.193
40407W        W99668  14.266  26.612   0.959
40408W        W99669  19.651   8.361   3.299
40409W        W99670  23.532  10.714  12.450
40410W        W99671  10.189   3.721  11.386
40411W        W99672  44.391  20.128   0.895
40412W        W99673   9.232  43.018   5.194
40413W        W99674  21.247  28.662  12.460
40414W        W99675  26.084  23.212  13.833
40415W        W99676  14.681  22.188  10.513
40416W        W99677  21.231   8.884  10.608
40417W        W99678  31.473  18.073  13.009
40418W        W99679  30.496  33.893  11.402
40419W        W99680   4.257   7.259  14.386
40420W        W99681  21.181  23.500   1.715
40421W        W99682  40.480  42.851  13.395
40422W        W99683   3.887  16.084   2.854
40423W        W99684  41.977  41.863  11.981
40424W        W99685  18.768   7.840   0.731
40425W        W99686   1.461  20.126  13.419
40426W        W99687  39.434  43.415  12.451
40427W        W99688  22.080  37.397  13.844
40428W        W99689  35.970  37.460  12.567
40429W        W99690  37.578  24.491   3.280
40430W        W99691  30.046  32.449  11.891
40431W        W99692   3.384  36.907  11.921
40432W        W99693   6.283  19.209  11.593
40433W        W99694   6.855  43.397  12.044
40434W        W99695  39.485  39.876   4.131
40435W        W99696  41.952  40.865  13.893
40436W        W99697   5.365  14.592  10.539
40437W        W99698   0.408   8.795  12.427
40438W        W99699  36.494   4.785   4.143
40439W        W99700   5.203  41.466   2.873
40440W        W99701  39.910  20.154  12.907
40441W        W99702  15.629  23.127  10.428
40442W        W99703   9.841  32.953   1.235
40443W        W99704   1.383  16.212   4.271
40444W        W99705  38.067  27.112   3.352
40445W        W99706  30.029  19.153   0.470
40446W        W99707  23.165  15.673  13.313
40447W        W99708   7.857  24.039  12.562
40448W        W99709   2.295  10.333  11.033
40449W        W99710   7.265   6.252   3.147
40450W        W99711  33.059  10.223  13.529
40451W        W99712   3.832   8.170  13.061
40452W        W99713  22.047  18.632   0.826
40453W        W99714   7.381  42.801  11.947
40454W        W99715  37.085  20.636   1.323
40455W        W99716  39.977  29.529   2.404
40456W        W99717  40.888   4.805   1.804
40457W        W99718   9.271  13.297   0.788
40458W        W99719   2.901  29.020  14.298
40459W        W99720  38.559  16.095  10.481
40460W        W99721  32.429  28.512   2.707
40461W        W99722  29.135  17.728  11.406
40462W        W99723  38.921  15.168   1.323
40463W        W99724  20.602   2.433   3.338
40464W        W99725  26.074  35.542  12.889
40465W        W99726  23.490  19.680  10.958
40466W        W99727  12.122  10.856  12.510
40467W        W99728   5.220  15.242  12.548
40468W        W99729  43.021  24.219   2.758
40469W        W99730   1.765  25.618   1.259
40470W        W99731  38.991  11.755   4.678
40471W        W99732  44.466  44.961  10.566
40472W        W99733  25.963  32.463  11.993
40473W        W99734  20.570  16.803   2.835
40474W        W99735  29.987  28.632  12.483
40475W        W99736  43.945  40.503  13.410
40476W        W99737  23.670   8.164   1.859
40477W        W99738   9.297  33.491   0.469
40478W        W99739  43.425   0.960   2.814
40479W        W99740  16.111  28.171   2.788
40480W        W99741  14.129  44.498  11.511
40481W        W99742  14.795  41.535  11.935
40482W        W99743   0.852  17.585   4.125
40483W        W99744  44.475  36.482   0.928
40484W        W99745   2.837  41.491   0.813
40485W        W99746   9.246  38.473  12.083
40486W        W99747   2.367  24.606   3.785
40487W        W99748  38.367  32.510  11.877
40488W        W99749  29.921  32.566   3.242
40489W        W99750  17.220  41.501  14.819
40490W        W99751  19.077  29.439   0.292
40491W        W99752  26.021   6.397  10.633
40492W        W99753  26.664  42.967  12.415
40493W        W99754  29.492  30.476  12.842
40494W        W99755  43.462  28.977  10.934
40495W        W99756  23.112  29.470   2.731
40496W        W99757  22.701  32.556  12.361
40497W        W99758  28.121  15.123  14.796
40498W        W99759  16.241  41.961   0.355
40499W        W99760  19.041  44.895   2.373
40500W        W99761  20.743  32.956  12.569
40501W        W99762  41.537  15.126   1.330
40502W        W99763  43.297  10.655  14.871
40503W        W99764  35.952  36.069  10.507
40504W        W99765  20.073  13.720  12.894
40505W        W99766  21.532   2.897  13.041
40506W        W99767  36.001  17.092  12.359
40507W        W99768  35.962  26.525   1.243
40508W        W99769  33.479  13.262  13.462
40509W        W99770  28.010   1.285  11.947
40510W        W99771  13.812  19.609  14.428
40511W        W99772  23.045  36.026  12.053
40512W        W99773   7.796  37.074   2.820
40513W        W99774   8.266  18.572   3.757
40514W        W99775  20.110  42.832  10.517
40515W        W99776  28.584   2.739  14.849
40516W        W99777  18.242  27.127  14.289
40517W        W99778  21.216  31.025   1.846
40518W        W99779  11.728   8.712  12.378
40519W        W99780  36.905  40.959   2.722
40520W        W99781   9.746  35.910  12.541
40521W        W99782  18.073  31.067   9.941
40522W        W99783   1.240  41.945   3.857
40523W        W99784  40.899  30.617   0.792
40524W        W99785  29.608  33.974  14.825
40525W        W99786  43.437  44.493  12.927
40526W        W99787   9.261   6.183   1.351
40527W        W99788  20.197  38.026  14.927
40528W        W99789  36.389  13.749  14.853
40529W        W99790  32.423  36.003   5.100
40530W        W99791  44.320   2.352   2.879
40531W        W99792  21.209  44.441   4.650
40532W        W99793   0.298  13.630   3.861
40533W        W99794   3.289  15.091   4.760
40534W        W99795  40.341  39.851  12.863
40535W        W99796  15.288  37.522   4.656
40536W        W99797  44.366   0.424  11.117
40537W        W99798   2.439  17.643  12.538
40538W        W99799  35.396  34.956   4.690
40539W        W99800  27.193  31.090  14.394
40540W        W99801  41.367  19.642  14.920
40541W        W99802  24.689  44.963   0.870
40542W        W99803  33.567  21.133  11.563
40543W        W99804  34.606   7.753   1.404
40544W        W99805   7.755  11.790  12.901
40545W        W99806  23.159  35.485   0.866
40546W        W99807  11.353  37.902  10.456
40547W        W99808  32.565   6.759   2.221
40548W        W99809  17.161  21.694   0.898
40549W        W99810  38.455  39.314   4.339
40550W        W99811  31.029   1.732  14.942
40551W        W99812   9.158   2.295  13.862
40552W        W99813   2.289  10.226   2.866
40553W        W99814   4.774  33.504   4.185
40554W        W99815  13.840  15.324  12.451
40555W        W99816  14.798   8.371   1.881
40556W        W99817  28.033  27.033   1.784
40557W        W99818   7.857  25.984   2.832
40558W        W99819  41.835   6.238   1.746
40559W        W99820  26.085  42.451  12.827
40560W        W99821   9.394  44.261   0.279
40561W        W99822  37.545  40.949   1.442
40562W        W99823  17.183  42.487  11.109
40563W        W99824  21.156   3.221   0.410
40564W        W99825  31.965  27.585  10.469
40565W        W99826   0.862   7.822  13.906
40566W        W99827  23.613  11.174  10.531
40567W        W99828  23.637  22.554  11.948
40568W        W99829   6.806   3.715  11.953
40569W        W99830  14.188  35.458   3.250
40570W        W99831   5.769   7.229  13.932
40571W        W99832  17.668  10.671  11.898
40572W        W99833   7.327  10.835  12.340
40573W        W99834  37.016  31.033  14.339
40574W        W99835  33.104  34.451   1.239
40575W        W99836  28.011  42.364  12.479
40576W        W99837  41.506  33.505  11.908
40577W        W99838  22.683   9.800   4.741
40578W        W99839  19.207  29.020  10.416
40579W        W99840  33.072   0.369  13.891
40580W        W99841   6.737  31.022  13.340
40581W        W99842  39.497  28.045   2.302
40582W        W99843  12.639  34.032   3.700
40583W        W99844  20.199  18.221   4.171
40584W        W99845  32.590   2.286   0.285
40585W        W99846  33.011  33.913  11.868
40586W        W99847  13.327  41.474   4.603
40587W        W99848  15.658   3.954  14.856
40588W        W99849   9.767  19.670  10.488
40589W        W99850   9.695  31.005  10.410
40590W        W99851   8.759  41.331  12.864
40591W        W99852  32.395  12.784   1.350
40592W        W99853   7.193  31.552  13.011
40593W        W99854   7.313  39.319   4.133
40594W        W99855  23.107  13.737   4.198
40595W        W99856  16.222  40.454  11.110
40596W        W99857  30.018  35.074   1.880
40597W        W99858  20.669   7.221  13.433
40598W        W99859   2.748  42.890  12.867
40599W        W99860   3.920  30.121   3.190
40600W        W99861   5.704  25.212  11.405
40601W        W99862  30.446  31.080   0.359
40602W        W99863  14.095  28.986   0.310
40603W        W99864   1.425  15.631  12.064
40604W        W99865  26.684  33.023  11.936
40605W        W99866  36.941  19.659   3.367
40606W        W99867   4.356  15.278  12.984
40607W        W99868   4.401  26.685  12.022
40608W        W99869  21.121  14.264   4.149
40609W        W99870  36.429   1.859   4.770
40610W        W99871  27.509  17.154   4.693
40611W        W99872  18.565  29.564   0.370
40612W        W99873  14.194  12.354   1.740
40613W        W99874   6.193  35.530  12.885
40614W        W99875  34.972   3.942   2.704
40615W        W99876   4.874   4.846  10.601
40616W        W99877   7.389  29.496  12.052
40617W        W99878  36.076  10.372  13.799
40618W        W99879  37.948  38.858  11.392
40619W        W99880  44.405  22.615   1.935
40620W        W99881  38.491   1.335  12.416
40621W        W99882  16.758  30.022  13.505
40622W        W99883   0.889   3.722  10.985
40623W        W99884   7.749  16.716  13.934
40624W        W99885  44.903   9.391   3.288
40625W        W99886  17.616  26.648   4.197
40626W        W99887   2.939  14.781  10.533
40627W        W99888  40.428   0.364   0.875
40628W        W99889   7.838  10.187  13.404
40629W        W99890  17.695  17.253   3.819
40630W        W99891  40.460  20.732  12.859
40631W        W99892  26.532  40.981  11.079
40632W        W99893  41.395  38.516   4.603
40633W        W99894  40.024  18.714   4.135
40634W        W99895  13.731  20.716  12.938
40635W        W99896  38.500  41.974  11.547
40636W        W99897  30.994   7.711   3.834
40637W        W99898  39.525  12.808   4.147
40638W        W99899  43.813  39.322   0.246
40639W        W99900  33.564  16.208  14.957
40640W        W99901  40.316   3.293  10.998
40641W        W99902   2.855  23.724   3.252
40642W        W99903  24.569  10.782  14.812
40643W        W99904  31.431   7.179  13.986
40644W        W99905   8.717  14.334  11.382
40645W        W99906  14.658  18.237  11.574
40646W        W99907   9.291  37.448   2.210
40647W        W99908  29.513  44.767   3.241
40648W        W99909  39.547  17.171   5.303
40649W        W99910  35.422  22.703   2.302
40650W        W99911  41.987  38.896   0.756
40651W        W99912  18.689  38.971  12.573
40652W        W99913   4.259  39.477  11.061
40653W        W99914  35.109  31.586   1.761
40654W        W99915  21.534  39.063  14.012
40655W        W99916  13.741  22.735   3.781
40656W        W99917  39.947  16.267  14.500
40657W        W99918  28.680  41.401   0.761
40658W        W99919  38.987  35.069   9.661
40659W        W99920  44.275   2.820  11.887
40660W        W99921  34.062  27.182  13.049
40661W        W99922  14.327  15.111   2.395
40662W        W99923  33.567  26.205   2.816
40663W        W99924  30.909   4.318   0.943
40664W        W99925  29.516  10.717  14.014
40665W        W99926  44.797   8.825  14.950
40666W        W99927  33.985   1.867   0.877
40667W        W99928  16.124  12.751   0.468
40668W        W99929   6.777   8.671  13.823
40669W        W99930  29.964  34.930  11.871
40670W        W99931  36.434   6.346  12.531
40671W        W99932   7.207  41.433  13.485
40672W        W99933  43.302  13.695   1.255
40673W        W99934  14.648   7.347   0.777
40674W        W99935  43.348  25.098   4.618
40675W        W99936   4.767  28.504  13.800
40676W        W99937  13.642  41.936  11.895
40677W        W99938  23.059  28.575  14.768
40678W        W99939  14.590  17.100   4.254
40679W        W99940  35.962  37.853   4.775
40680W        W99941  43.007  43.395   4.833
40681W        W99942  43.986  15.090   1.223
40682W        W99943  40.487   8.279   3.725
40683W        W99944  26.206  42.886   2.665
40684W        W99945  43.801   4.427  10.965
40685W        W99946  19.691  10.652  14.986
40686W        W99947   2.267   1.887  10.617
40687W        W99948  38.423  40.381  11.949
40688W        W99949  16.739   9.329   0.752
40689W        W99950  32.111  18.717  11.050
40690W        W99951  23.527  28.678   5.127
40691W        W99952  17.172  13.790   1.353
40692W        W99953  11.185  14.648   1.369
40693W        W99954   6.683  28.138  14.471
40694W        W99955   5.352  43.007  11.046
40695W        W99956  22.692  40.051   2.327
40696W        W99957   8.336  26.129  12.843
40697W        W99958  44.402  14.833   4.688
40698W        W99959  10.865  24.547  13.017
40699W        W99960  10.645  16.794   3.821
40700W        W99961  12.304  31.113  10.611
40701W        W99962  35.486  35.854  13.985
40702W        W99963  27.065   7.221   3.834
40703W        W99964   9.262   4.941  11.009
40704W        W99965  31.557  40.517   4.216
40705W        W99966  30.476  18.659  10.546
40706W        W99967  37.400  41.401  12.506
40707W        W99968  18.146  42.881  12.901
40708W        W99969  39.406  33.057  13.420
40709W        W99970  39.003   9.754  11.430
40710W        W99971  42.494   6.771   3.847
40711W        W99972  37.506   6.741   4.732
40712W        W99973  43.429  21.147   2.196
40713W        W99974  31.585  37.494   2.281
40714W        W99975  18.715   7.358   0.808
40715W        W99976  39.841  21.580   0.865
40716W        W99977  32.932  40.990  13.884
40717W        W99978  26.549  29.981   0.403
40718W        W99979  24.157  38.857   4.606
40719W        W99980  27.031  41.989  11.546
40720W        W99981  43.881  10.652   0.269
40721W        W99982  18.698  32.988   1.887
40722W        W99983  10.721   4.823  12.408
40723W        W99984  14.293  43.008   0.376
40724W        W99985  19.716  27.977   0.274
40725W        W99986  32.075   3.918  14.911
40726W        W99987  42.833  23.115  13.960
40727W        W99988  11.772  19.278   0.867
40728W        W99989  20.253  33.406  14.314
40729W        W99990   1.423  25.030   4.169
40730W        W99991   9.818  13.326  12.008
40731W        W99992  16.098  15.314   1.771
40732W        W99993  26.702  11.685   4.839
40733W        W99994  37.054  13.105  14.360
40734W        W99995  32.975   0.415  11.452
40735W        W99996  36.959   9.817   3.857
40736W        W99997  19.133  33.915  13.447
40737W        W99998  43.401  33.047   1.883
40738W        W99999  28.459  23.099  12.965
40739W        W    0  29.666  31.979  13.790
40740W        W    1  15.700  13.653  14.814
40741W        W    2  31.896  23.110   0.478
40742W        W    3  33.051  25.080   4.692
40743W        W    4   1.309   6.696  13.363
40744W        W    5   2.955  35.923   4.143
40745W        W    6  12.275  11.691  14.446
40746W        W    7  31.113   8.810  10.487
40747W        W    8  38.074   5.296  10.545
40748W        W    9   0.464  22.727  10.642
40749W        W   10  28.975  21.588   4.626
40750W        W   11  40.915  19.757  13.423
40751W        W   12  21.188   2.443   0.407
40752W        W   13  33.993  38.360  12.095
40753W        W   14   0.476  17.722   3.681
40754W        W   15  11.650  29.624   4.167
40755W        W   16  33.395  27.179   0.267
40756W        W   17  43.957  14.246  11.960
40757W        W   18   4.231  18.112   3.379
40758W        W   19  42.412  39.029  14.935
40759W        W   20  44.314  31.416  10.616
40760W        W   21  23.212   2.962  11.865
40761W        W   22  26.511  38.342  12.427
40762W        W   23  24.719  37.902  12.894
40763W        W   24  29.946  38.478   1.264
40764W        W   25   5.735  40.825   1.269
40765W        W   26  42.381   1.375  12.442
40766W        W   27  11.758  21.201  10.551
40767W        W   28  28.614   1.470   1.754
40768W        W   29  12.160  24.534  12.508
40769W        W   30  23.567  28.041  13.398
40770W        W   31   2.785  37.027   0.963
40771W        W   32  32.917  42.907  13.930
40772W        W   33  23.578  29.118  13.487
40773W        W   34   9.248   0.457   3.246
40774W        W   35   4.708  42.821  12.851
40775W        W   36  34.877  28.002  11.577
40776W        W   37  41.322  32.045   1.358
40777W        W   38  25.527  37.337  13.989
40778W        W   39  40.375  24.552   1.402
40779W        W   40  44.423  10.301   2.875
40780W        W   41  40.887  39.556  13.955
40781W        W   42  10.230  11.137  12.932
40782W        W   43  40.979  26.546   1.260
40783W        W   44   7.845   7.328   1.818
40784W        W   45  26.657  32.010   1.223
40785W        W   46  29.051  19.553   1.864
40786W        W   47   1.477   5.794  11.523
40787W        W   48  29.068   4.905  14.876
40788W        W   49  36.439   3.851   3.253
40789W        W   50  26.076   0.418   3.717
40790W        W   51  35.033  18.133   2.180
40791W        W   52  39.413  35.003   2.294
40792W        W   53  31.003  19.669   3.864
40793W        W   54   1.394  27.177  13.809
40794W        W   55  18.761  29.630   2.293
40795W        W   56  33.039  24.173   0.453
40796W        W   57   8.401   2.794   2.829
40797W        W   58   8.293  37.895   4.767
40798W        W   59  20.045  41.840  14.357
40799W        W   60  17.671   9.332   5.262
40800W        W   61  12.754  36.047  10.568
40801W        W   62  30.547  22.581  10.584
40802W        W   63  39.996  20.594   3.208
40803W        W   64  34.900   5.348   4.133
40804W        W   65  17.589  35.556  14.942
40805W        W   66   7.262  31.496  14.321
40806W        W   67  32.104  29.019   2.903
40807W        W   68  12.843  11.810   4.263
40808W        W   69  22.633  29.624   1.825
40809W        W   70  25.040   2.846  14.381
40810W        W   71  22.031   1.961   2.881
40811W        W   72   2.453  19.275   2.198
40812W        W   73  38.021  36.355  14.926
40813W        W   74   1.253  35.917  13.533
40814W        W   75   9.704  19.750  11.052
40815W        W   76  39.006  37.381  11.083
40816W        W   77  44.976   7.346   2.813
40817W        W   78  39.012  18.080  11.516
40818W        W   79  43.445   0.443  11.473
40819W        W   80  13.305  11.653  12.974
40820W        W   81  34.436  21.576  14.942
40821W        W   82  22.156  40.863   3.705
40822W        W   83   4.390  18.194  11.996
40823W        W   84  44.289  26.502   1.239
40824W        W   85  37.983  37.880   1.275
40825W        W   86  11.739   4.334  14.396
40826W        W   87  14.134  17.092  11.064
40827W        W   88  30.977  10.765   4.237
40828W        W   89  29.524  29.931  14.879
40829W        W   90  19.658  41.427  14.285
40830W        W   91  20.562  39.043   3.776
40831W        W   92  20.124  37.564   1.443
40832W        W   93  23.681   1.735  12.483
40833W        W   94  43.926  29.617  10.481
40834W        W   95  11.309  24.514   4.237
40835W        W   96  16.227   0.424   2.246
40836W        W   97  26.953  15.693   3.194
40837W        W   98  44.366  35.023   2.272
40838W        W   99   3.362  35.905  10.064
40839W        W  100  28.607  20.534   0.424
40840W        W  101  43.513   8.813  11.001
40841W        W  102   5.201   7.400   0.380
40842W        W  103   9.788  13.834  11.902
40843W        W  104  23.581  42.374   4.680
40844W        W  105  15.194  35.934   0.873
40845W        W  106   5.814  11.247   2.393
40846W        W  107  37.520  25.692   4.143
40847W        W  108   3.741  12.761  11.084
40848W        W  109  15.648   8.866  12.868
40849W        W  110  28.117  10.800  11.924
40850W        W  111  20.206  24.494   3.176
40851W        W  112  13.340  26.641   1.788
40852W        W  113   4.223  35.436  12.448
40853W        W  114  34.021   0.794   0.450
40854W        W  115  26.951  35.542  13.379
40855W        W  116  34.081  33.116   0.959
40856W        W  117  39.886  28.503   3.224
40857W        W  118   5.767  26.567  13.840
40858W        W  119  12.313  21.125  12.851
40859W        W  120  15.134   1.287   0.903
40860W        W  121  21.542   2.958  12.092
40861W        W  122   8.364  17.647   4.253
40862W        W  123  20.262  41.476   0.260
40863W        W  124  31.449  21.732  11.551
40864W        W  125  22.576  25.560  13.435
40865W        W  126  35.558  13.602  13.028
40866W        W  127   2.870   6.702  10.963
40867W        W  128   3.341  27.046   2.192
40868W        W  129  16.076  39.454  12.836
40869W        W  130   1.249   6.784  11.972
40870W        W  131  33.463   8.797  11.528
40871W        W  132  35.447  31.987   1.743
40872W        W  133   4.701  21.234   9.962
40873W        W  134  30.571  26.559   2.278
40874W        W  135  35.073  28.569  12.026
40875W        W  136  25.104  40.907  13.516
40876W        W  137  18.632  19.694   3.202
40877W        W  138  33.570   2.908   3.714
40878W        W  139   1.308  13.742   2.215
40879W        W  140  28.610  38.381  12.559
40880W        W  141  17.242  25.582   2.901
40881W        W  142  23.637  19.729  13.904
40882W        W  143   2.305  36.358   2.289
40883W        W  144  35.970   4.718   3.193
40884W        W  145  40.307   0.439  14.300
40885W        W  146   4.332  40.039   2.347
40886W        W  147  33.515  26.025  14.449
40887W        W  148  33.619  44.002   2.820
40888W        W  149   2.243  15.749   0.289
40889W        W  150  21.565  41.370  14.011
40890W        W  151  26.516  18.634   0.914
40891W        W  152  25.653   4.388  13.398
40892W        W  153  40.930   4.324  11.945
40893W        W  154  11.285  36.581  11.513
40894W        W  155  16.085   1.314   3.364
40895W        W  156  20.540  25.983  10.962
40896W        W  157   6.783  33.984  10.972
40897W        W  158  26.614   9.326   1.215
40898W        W  159  21.166  12.660  12.999
40899W        W  160  37.406  38.385  14.920
40900W        W  161   9.701  23.496   3.655
40901W        W  162  31.118  23.100   1.847
40902W        W  163  37.482   7.817  11.603
40903W        W  164  34.535   0.944   4.296
40904W        W  165   0.387  43.497   2.363
40905W        W  166  20.028  40.852   2.290
40906W        W  167  20.183  23.110   3.161
40907W        W  168  22.157  40.950  12.517
40908W        W  169  18.198   6.226  11.375
40909W        W  170  23.154   1.337  13.997
40910W        W  171   8.773   5.761  11.505
40911W        W  172  44.301  15.643   4.315
40912W        W  173  20.058  16.169  12.398
40913W        W  174  43.978  41.430   1.788
40914W        W  175  31.083  14.809   0.407
40915W        W  176  26.132  17.774  10.502
40916W        W  177  39.357   2.905   0.806
40917W        W  178  41.017   0.814  11.925
40918W        W  179  28.638  28.112   4.618
40919W        W  180   4.421  36.932   2.334
40920W        W  181   5.427  44.957  13.424
40921W        W  182   0.475  22.671   3.248
40922W        W  183   4.790  36.074   0.726
40923W        W  184   3.818  36.012  11.396
40924W        W  185   6.682  42.917  12.030
40925W        W  186  33.562   4.387   3.729
40926W        W  187  38.827  44.335  14.948
40927W        W  188  31.967  40.408  10.916
40928W        W  189  28.958  21.029   2.195
40929W        W  190  44.449  39.363   4.125
40930W        W  191  33.595  34.874  12.833
40931W        W  192  13.602  41.296  14.906
40932W        W  193  24.495  30.154   0.459
40933W        W  194  41.870  38.414   0.772
40934W        W  195  17.586  27.108   0.759
40935W        W  196  38.846   5.826   2.393
40936W        W  197  19.274  35.855   0.758
40937W        W  198  40.864  28.954   2.299
40938W        W  199   0.335  36.091  11.092
40939W        W  200  30.601   4.880  14.800
40940W        W  201  30.971  43.934  14.329
40941W        W  202   8.355  40.964  13.857
40942W        W  203  40.450  41.841  13.884
40943W        W  204  15.198  19.094   0.788
40944W        W  205  29.039   6.221   0.729
40945W        W  206   1.317   4.883   3.759
40946W        W  207  32.999  30.588   3.339
40947W        W  208  11.364   4.344   1.333
40948W        W  209  27.055  11.242   0.876
40949W        W  210  36.049  44.448  11.484
40950W        W  211  18.585   5.695  13.433
40951W        W  212   4.256  20.585   4.653
40952W        W  213   3.407  17.160  14.987
40953W        W  214  20.067   1.261  12.019
40954W        W  215  12.291  35.105  14.390
40955W        W  216   2.881   3.318  14.963
40956W        W  217   8.799   3.863   4.177
40957W        W  218  21.517  28.543  12.368
40958W        W  219   1.820  10.743  11.595
40959W        W  220  35.390  31.503  13.852
40960W        W  221   4.264  10.384   1.886
40961W        W  222  10.838  30.131  11.431
40962W        W  223  27.995  23.532  12.058
40963W        W  224  25.091   5.790   3.201
40964W        W  225  27.650  11.773   3.776
40965W        W  226  32.038  23.133  12.353
40966W        W  227   4.301   8.256   1.854
40967W        W  228  41.359  33.405  12.377
40968W        W  229   9.667  25.516  12.575
40969W        W  230  21.158  11.270  13.997
40970W        W  231  24.585  22.610   4.286
40971W        W  232   5.334  41.020  12.458
40972W        W  233  28.985  44.943  14.358
40973W        W  234  11.326  15.694  13.020
40974W        W  235  17.561  15.084   3.847
40975W        W  236   1.272   8.335   1.409
40976W        W  237  25.034  12.276  10.507
40977W        W  238  16.072  44.395  12.571
40978W        W  239  27.119  24.051   4.122
40979W        W  240   8.280  34.944   4.757
40980W        W  241  35.961  16.578  11.492
40981W        W  242  23.664  27.092   4.285
40982W        W  243  17.585  23.162   0.828
40983W        W  244  20.138  16.655  10.044
40984W        W  245  29.012  18.129   1.724
40985W        W  246  18.255  25.577  14.326
40986W        W  247  20.168  18.765  11.978
40987W        W  248   0.323   1.392  12.374
40988W        W  249  21.259  26.696   3.383
40989W        W  250  39.400  32.518   0.248
40990W        W  251  23.234   9.873   4.737
40991W        W  252  16.794  34.374   3.779
40992W        W  253  43.375  15.224  14.423
40993W        W  254  13.111  29.427   3.327
40994W        W  255  22.730  44.770   4.226
40995W        W  256  25.067  39.479   2.761
40996W        W  257   5.255  43.387  12.386
40997W        W  258  13.191   0.391  12.919
40998W        W  259  10.684  18.249   4.245
40999W        W  260  38.479  26.951   0.299
41000W        W  261   5.720  30.025  12.865
41001W        W  262   5.428  25.572   2.721
41002W        W  263  41.959  23.086  10.416
41003W        W  264  12.734  35.970   1.803
41004W        W  265  22.729  12.135  11.484
41005W        W  266  29.062  41.007  12.988
41006W        W  267   6.918   2.317   3.637
41007W        W  268  17.712  42.778   0.795
41008W        W  269  28.141   1.436   0.361
41009W        W  270  10.654   3.845  11.394
41010W        W  271  44.361  32.509  12.027
41011W        W  272  23.167  19.698  11.534
41012W        W  273  31.014   8.834   5.264
41013W        W  274  11.825  10.269   0.746
41014W        W  275  34.117  24.009  13.980
41015W        W  276   7.757  36.860  14.777
41016W        W  277  16.298  11.781  12.352
41017W        W  278  41.887  32.957  12.828
41018W        W  279  40.537  13.187  11.031
41019W        W  280   4.861  14.770   1.832
41020W        W  281  14.619  43.988  12.401
41021W        W  282   5.798  11.762  13.399
41022W        W  283   1.964  17.199  13.353
41023W        W  284  20.542  14.174   3.346
41024W        W  285   2.926  39.894   3.185
41025W        W  286  37.984  30.498   9.935
41026W        W  287  15.742  22.663  11.610
41027W        W  288   7.202  21.699   4.343
41028W        W  289  14.634   4.700  11.500
41029W        W  290  39.936  18.202   3.785
41030W        W  291  40.949  21.550  11.876
41031W        W  292  12.248  29.053  11.607
41032W        W  293  35.396  21.026   2.852
41033W        W  294  18.783  41.411  14.953
41034W        W  295  11.828  34.574  11.469
41035W        W  296  37.903  21.526   3.740
41036W        W  297   4.224  28.061   0.407
41037W        W  298  29.166  42.859   4.736
41038W        W  299  41.442  29.145  14.912
41039W        W  300  34.069  36.579   1.270
41040W        W  301  42.376  15.760   4.137
41041W        W  302   4.267  36.437  13.368
41042W        W  303  26.541   3.783  11.395
41043W        W  304   8.739   6.200  12.868
41044W        W  305  43.822   6.703   1.357
41045W        W  306   5.835  33.043  13.363
41046W        W  307  16.782  32.581  14.893
41047W        W  308  28.678  42.496   2.670
41048W        W  309   3.435  24.050  11.515
41049W        W  310   3.433  28.460  13.825
41050W        W  311  31.416  42.519  14.485
41051W        W  312  40.878   2.936  10.909
41052W        W  313  35.020  32.527  13.058
41053W        W  314  26.487  18.638  13.323
41054W        W  315   5.268  20.549  12.862
41055W        W  316  19.677  13.283  11.067
41056W        W  317   0.837   7.758  14.799
41057W        W  318   8.694   4.259   3.707
41058W        W  319   7.698  29.991  11.432
41059W        W  320  22.699  37.061   3.197
41060W        W  321  25.213   1.947   1.913
41061W        W  322   4.771  38.375  11.015
41062W        W  323   1.312  30.567  13.442
41063W        W  324  44.004  30.511   0.472
41064W        W  325  31.068   2.923   3.327
41065W        W  326  14.116   5.914  14.959
41066W        W  327  41.386  31.101  13.978
41067W        W  328  33.542  30.543  10.096
41068W        W  329  28.489  38.326  11.927
41069W        W  330  41.859  15.625  13.412
41070W        W  331   2.238  31.016  13.890
41071W        W  332  39.358   3.797  12.864
41072W        W  333  20.698   8.678  10.632
41073W        W  334  34.579  10.374  14.288
41074W        W  335  22.123  15.303  12.026
41075W        W  336  20.223   5.697  10.508
41076W        W  337   5.798  31.925  12.974
41077W        W  338  38.023  38.399   2.812
41078W        W  339   5.204  30.944   1.224
41079W        W  340  32.003   3.239  12.549
41080W        W  341   1.411  18.647  14.927
41081W        W  342  31.607  12.122   3.747
41082W        W  343  40.811   9.292  14.903
41083W        W  344  11.659   2.805  14.447
41084W        W  345   8.232  40.050   1.858
41085W        W  346  28.031   8.808   5.175
41086W        W  347  13.120   5.859   4.119
41087W        W  348  13.658  14.221  12.907
41088W        W  349  41.823  33.409  11.048
41089W        W  350  24.210  15.161  11.574
41090W        W  351  40.538  12.156   0.344
41091W        W  352  16.666  42.900  11.393
41092W        W  353  20.079  44.368  11.481
41093W        W  354  42.785   4.272  14.515
41094W        W  355  33.546  32.977   2.886
41095W        W  356  33.010  23.724   0.736
41096W        W  357  27.157  34.572   0.867
41097W        W  358  10.259  42.329  13.048
41098W        W  359   7.756   7.743   2.265
41099W        W  360  35.476  32.079  10.909
41100W        W  361  32.410   7.806  11.435
41101W        W  362  33.967  37.876  13.453
41102W        W  363  22.063   2.438   0.938
41103W        W  364  29.115  43.454   1.338
41104W        W  365  22.100  44.371  11.101
41105W        W  366  44.462  42.953   4.321
41106W        W  367  20.247  20.691   3.177
41107W        W  368  37.522  22.545   2.323
41108W        W  369  23.217  18.745   3.281
41109W        W  370  40.912  36.453   0.787
41110W        W  371  43.956  42.507  14.848
41111W        W  372  32.964  29.076   2.814
41112W        W  373  33.021  36.586   3.859
41113W        W  374  35.861  22.690   4.600
41114W        W  375  44.357  35.542  14.400
41115W        W  376   4.253  42.289  14.495
41116W        W  377  39.522  42.791  13.060
41117W        W  378   2.354  21.068   3.804
41118W        W  379   1.246  42.371  13.469
41119W        W  380  24.620  43.313   4.786
41120W        W  381  43.965  10.772  11.956
41121W        W  382  40.501  29.993  14.032
41122W        W  383  35.518  32.136  10.496
41123W        W  384  17.562  37.939  14.828
41124W        W  385  20.252  29.066   4.160
41125W        W  386  35.867  34.502   4.245
41126W        W  387  20.046   3.842  10.985
41127W        W  388  19.653  21.177  14.479
41128W        W  389   6.299  17.225   3.191
41129W        W  390  40.482   8.760  12.053
41130W        W  391  15.645  11.357   3.685
41131W        W  392  25.111  22.043   2.314
41132W        W  393  35.467  23.667  14.769
41133W        W  394   3.404  40.037   1.298
41134W        W  395  34.054   2.369  12.990
41135W        W  396  36.059  33.996  12.447
41136W        W  397   7.382  27.692   1.741
41137W        W  398  15.226   4.851   2.348
41138W        W  399  34.487  35.586   3.189
41139W        W  400  25.692  21.583  13.329
41140W        W  401   6.736  22.627   4.770
41141W        W  402  44.425   8.198  10.442
41142W        W  403  13.767  23.099  11.450
41143W        W  404  14.205   3.308  12.440
41144W        W  405   4.776  36.027   1.826
41145W        W  406  11.819  15.597   0.863
41146W        W  407   9.153  40.973  10.489
41147W        W  408  15.190  30.029   1.840
41148W        W  409  33.131  29.922   2.295
41149W        W  410  41.882  33.460   5.164
41150W        W  411  36.566  19.174   1.335
41151W        W  412  20.569  30.536  14.468
41152W        W  413  41.008  27.510  12.435
41153W        W  414  31.034  10.681   1.731
41154W        W  415  24.638  20.066   2.399
41155W        W  416   0.308  22.061   0.737
41156W        W  417   5.880   0.983  12.945
41157W        W  418  17.229   0.864  12.449
41158W        W  419  43.445  20.206  11.576
41159W        W  420  28.947  20.198  10.530
41160W        W  421  34.059  13.657  13.831
41161W        W  422  13.171  19.706  10.559
41162W        W  423   2.308   7.687   0.435
41163W        W  424   3.757  18.243   5.172
41164W        W  425  42.347  10.697  14.787
41165W        W  426  18.671   1.873   2.390
41166W        W  427  11.814  35.469  11.449
41167W        W  428  25.486  22.049   4.195
41168W        W  429  21.153   6.315   1.761
41169W        W  430   7.887  31.153  11.431
41170W        W  431  15.123  35.477   4.168
41171W        W  432  44.304  36.587   4.238
41172W        W  433  17.715  16.155   4.789
41173W        W  434  19.759  25.497  11.063
41174W        W  435   7.835  40.474   9.924
41175W        W  436  27.942  13.127  10.109
41176W        W  437  16.745  40.042  12.040
41177W        W  438  34.099  21.189  12.914
41178W        W  439  26.538  14.271   0.875
41179W        W  440  27.483  42.934  14.794
41180W        W  441  13.841   0.398   1.237
41181W        W  442  41.985   5.829   0.831
41182W        W  443  14.656  37.488  11.936
41183W        W  444  37.875  28.955  11.895
41184W        W  445   5.720  16.674   2.885
41185W        W  446  14.226   3.788  12.076
41186W        W  447  43.932   9.859   1.823
41187W        W  448  12.272  20.620   1.723
41188W        W  449  34.517  34.058   0.301
41189W        W  450  44.799  16.166   1.915
41190W        W  451  16.683  39.856  10.987
41191W        W  452  35.053  13.332  13.822
41192W        W  453  15.705  43.770  12.830
41193W        W  454  40.804  19.626   2.388
41194W        W  455  44.756   1.337   2.845
41195W        W  456  29.021  24.479   1.899
41196W        W  457  24.174   5.243   0.955
41197W        W  458  40.854   1.760  12.536
41198W        W  459  16.253  34.507  12.507
41199W        W  460  42.487   9.219   0.479
41200W        W  461  30.441  31.473   1.927
41201W        W  462  38.908   1.316  14.933
41202W        W  463  38.998   4.412  11.589
41203W        W  464  42.986   9.656  11.003
41204W        W  465  14.174  13.641  13.967
41205W        W  466  13.803  37.570  12.029
41206W        W  467  33.038   5.343   5.243
41207W        W  468  26.969  36.848  10.922
41208W        W  469  19.114  41.442  11.955
41209W        W  470   0.890  23.530  10.145
41210W        W  471  40.952  23.624   0.265
41211W        W  472  33.925  38.353   4.659
41212W        W  473  38.490  43.953   1.319
41213W        W  474   0.383  10.145  14.450
41214W        W  475   1.910  29.548  12.570
41215W        W  476   6.802  30.538  12.417
41216W        W  477  18.775  15.131   1.390
41217W        W  478   6.317  18.786   1.717
41218W        W  479  31.909  32.504  14.909
41219W        W  480  25.115  42.516   1.855
41220W        W  481  14.222  34.566   2.782
41221W        W  482   3.811   4.863  14.876
41222W        W  483  42.877  27.004  13.973
41223W        W  484  42.826  24.479   2.363
41224W        W  485  15.133  17.674  13.964
41225W        W  486  14.320   7.252  14.406
41226W        W  487   2.273   9.237  12.972
41227W        W  488  36.085  21.176   1.235
41228W        W  489  22.742  11.362  12.966
41229W        W  490  10.222   5.377  13.539
41230W        W  491  32.031  35.577  12.037
41231W        W  492   2.774  43.367  12.427
41232W        W  493  11.135  35.564  12.455
41233W        W  494  33.888  22.734  11.516
41234W        W  495  16.668  16.207  13.407
41235W        W  496   8.772  38.074   4.177
41236W        W  497  10.192   4.277  12.029
41237W        W  498   7.698   3.390   4.597
41238W        W  499  15.183  14.250   4.633
41239W        W  500   6.859  34.444  12.414
41240W        W  501  29.032  27.161  12.027
41241W        W  502   2.912  15.623  14.006
41242W        W  503  44.370  22.999  13.307
41243W        W  504  23.984  40.429   4.348
41244W        W  505  23.058   5.418  10.917
41245W        W  506   3.858   8.320   0.754
41246W        W  507   5.771  12.170  10.492
41247W        W  508  20.589   2.841  12.575
41248W        W  509   2.309  37.471   1.701
41249W        W  510  39.867  34.418  12.054
41250W        W  511  26.524  41.470   2.795
41251W        W  512  16.266  39.544   0.383
41252W        W  513  41.937  36.938  13.960
41253W        W  514  15.610  11.860  13.876
41254W        W  515  40.944  10.755  14.403
41255W        W  516  26.143   9.234   0.749
41256W        W  517  40.304  16.584  12.094
41257W        W  518  13.212  36.375   1.384
41258W        W  519  25.655  39.342  10.947
41259W        W  520  43.403  33.940   2.183
41260W        W  521  28.075  39.439  12.343
41261W        W  522   0.386  31.635  13.897
41262W        W  523  30.620  10.849   0.248
41263W        W  524  10.836  27.690  11.031
41264W        W  525  11.711  36.350  12.080
41265W        W  526   6.229  31.963  14.898
41266W        W  527   2.769   9.195  12.529
41267W        W  528  43.964  28.982   2.204
41268W        W  529  11.816  37.055  13.323
41269W        W  530  14.181  17.800  11.516
41270W        W  531  30.965  33.982   3.202
41271W        W  532  11.294   9.269  12.569
41272W        W  533   8.343  31.506   3.245
41273W        W  534  18.574  10.709  13.882
41274W        W  535   6.715  18.640  12.507
41275W        W  536   6.363  33.933   3.827
41276W        W  537  37.938  28.931  10.928
41277W        W  538  19.265   9.280  14.365
41278W        W  539  21.732  35.415   3.725
41279W        W  540  27.600  12.319   1.292
41280W        W  541  28.458  42.956   2.860
41281W        W  542  42.929   4.415  12.902
41282W        W  543   3.284  18.661   5.211
41283W        W  544   7.679   7.867  11.587
41284W        W  545  14.595   2.836  12.051
41285W        W  546   4.874   0.408  13.514
41286W        W  547   9.363  12.640   0.900
41287W        W  548  11.843   4.416  13.514
41288W        W  549   9.186  41.352  13.525
41289W        W  550   6.401  12.766  14.943
41290W        W  551  15.270   2.819   1.363
41291W        W  552  30.959  40.458   1.883
41292W        W  553   0.303  44.454   1.765
41293W        W  554  44.965  34.541  13.904
41294W        W  555  22.210  43.467  10.909
41295W        W  556   4.864   6.679   5.182
41296W        W  557  14.620  18.191  12.573
41297W        W  558   5.725  44.499  14.945
41298W        W  559  44.261  17.215  11.556
41299W        W  560  24.581   5.262   1.212
41300W        W  561  31.506  20.690   2.293
41301W        W  562  21.666  28.573   1.234
41302W        W  563  24.034   3.298   3.706
41303W        W  564  26.683  31.476  10.564
41304W        W  565  35.474  22.205  10.619
41305W        W  566  37.383   2.883  12.567
41306W        W  567  16.588   0.844  12.455
41307W        W  568  32.558  13.260  14.854
41308W        W  569  14.168  11.151  14.943
41309W        W  570  25.204  16.608   4.265
41310W        W  571  42.013   5.370  13.831
41311W        W  572  15.147  16.733  14.813
41312W        W  573  33.626   2.249  14.818
41313W        W  574  32.599   5.792   4.627
41314W        W  575  26.146  36.453  14.873
41315W        W  576   6.217  30.072   4.192
41316W        W  577  25.593   8.168   0.423
41317W        W  578  28.004  16.175   4.267
41318W        W  579  24.554  38.911  14.028
41319W        W  580  22.674   9.364  12.476
41320W        W  581  41.904  41.835  11.123
41321W        W  582  44.447  41.409   5.295
41322W        W  583  20.093  17.289  10.932
41323W        W  584  32.589   5.305   3.790
41324W        W  585  19.057  41.471  13.363
41325W        W  586  14.235  13.613  10.640
41326W        W  587  37.363  43.469  10.438
41327W        W  588  21.658  28.044  10.003
41328W        W  589  33.445  44.828  13.961
41329W        W  590  43.379  22.237  11.076
41330W        W  591  33.448  34.961  13.521
41331W        W  592  18.600  25.654  14.001
41332W        W  593  33.621   4.204  14.877
41333W        W  594  39.991   4.734  14.333
41334W        W  595  39.473  44.987  10.470
41335W        W  596   9.289  12.833  12.904
41336W        W  597  21.073  42.966   0.338
41337W        W  598  19.118  34.030   1.400
41338W        W  599  43.790  31.470  14.837
41339W        W  600  39.860  13.235   0.308
41340W        W  601   6.307  31.617  11.460
41341W        W  602   7.183  24.661  13.005
41342W        W  603  12.325  39.019   2.756
41343W        W  604   3.767  24.045  13.451
41344W        W  605  39.551   0.481  14.332
41345W        W  606   8.699  19.683  14.843
41346W        W  607  18.273  22.695  12.037
41347W        W  608  42.374  20.701  12.462
41348W        W  609  38.869  31.474   0.347
41349W        W  610  33.107   5.869  11.948
41350W        W  611  18.164  32.129  11.603
41351W        W  612   1.468  37.481   3.246
41352W        W  613  11.212  37.471   2.851
41353W        W  614  29.063  17.797  13.939
41354W        W  615   7.855  27.518   0.411
41355W        W  616  28.048  19.228  12.467
41356W        W  617  36.068  29.937   0.277
41357W        W  618  15.603  19.211   3.151
41358W        W  619  38.052  24.997   4.315
41359W        W  620  39.506  34.451   0.726
41360W        W  621  17.283  40.899  13.060
41361W        W  622   9.851   0.929   4.681
41362W        W  623  39.360  40.965  12.064
41363W        W  624  24.538  15.737  11.023
41364W        W  625  39.983  40.308  11.010
41365W        W  626  29.149  14.200   0.852
41366W        W  627  19.548  25.126  12.872
41367W        W  628  41.978  15.651  11.095
41368W        W  629  39.346  15.289   5.197
41369W        W  630  24.637  26.494  11.559
41370W        W  631  17.597  27.191   2.268
41371W        W  632  40.013  28.459  14.355
41372W        W  633  34.908  12.644  13.028
41373W        W  634  33.082  19.725  11.533
41374W        W  635  12.751  13.215   0.398
41375W        W  636  32.441  17.675   2.333
41376W        W  637  10.329  21.583   1.320
41377W        W  638  41.824   7.254   0.251
41378W        W  639  42.928   3.847   0.259
41379W        W  640  41.408  31.077   4.717
41380W        W  641  18.641   9.868   3.793
41381W        W  642  16.084  43.798   2.231
41382W        W  643  43.826  34.116  13.847
41383W        W  644  28.590   4.917  13.530
41384W        W  645  27.628  20.124  12.536
41385W        W  646  38.898  27.658  12.539
41386W        W  647  21.119   5.810   2.837
41387W        W  648   5.223   6.714   3.255
41388W        W  649  27.949  43.886  14.371
41389W        W  650  29.530   3.329  12.473
41390W        W  651  21.651  36.842   0.408
41391W        W  652  36.400  18.749   4.787
41392W        W  653  44.792  32.000  12.949
41393W        W  654  42.509  11.212   4.826
41394W        W  655   5.270   6.197   5.805
41395W        W  656  27.991  41.019   3.274
41396W        W  657  13.829  37.537   2.294
41397W        W  658  22.535  10.182   4.735
41398W        W  659  24.715  32.101  11.571
41399W        W  660  27.087  36.890  13.830
41400W        W  661  36.448  39.017  13.364
41401W        W  662  20.694   4.913  12.030
41402W        W  663   3.754  34.931   4.651
41403W        W  664  32.030  28.480   1.885
41404W        W  665  20.144  31.508  11.973
41405W        W  666  40.002   5.830  11.421
41406W        W  667  42.298  42.805   2.302
41407W        W  668  34.535  20.041   4.324
41408W        W  669  32.909  34.880   2.382
41409W        W  670   1.365  15.649   2.799
41410W        W  671  14.114  36.468   3.332
41411W        W  672  36.497   6.827  13.034
41412W        W  673  17.713   5.213  13.491
41413W        W  674  34.979  27.477  12.548
41414W        W  675   0.799  27.660   3.690
41415W        W  676  42.331   4.443   1.422
41416W        W  677  43.414  18.772   0.323
41417W        W  678   4.413   0.978   1.319
41418W        W  679  37.414  33.063  14.297
41419W        W  680   4.436  31.904   3.248
41420W        W  681  30.148  35.068   4.274
41421W        W  682  18.289  30.918  14.979
41422W        W  683  23.599  36.063  12.475
41423W        W  684  10.219   6.350   1.711
41424W        W  685  27.119  29.158   1.230
41425W        W  686  39.844  39.049   2.881
41426W        W  687  33.925  16.801  14.797
41427W        W  688  30.648  25.051   3.833
41428W        W  689  26.486  23.050  13.821
41429W        W  690   6.742  16.232  14.397
41430W        W  691  37.920  33.623   2.779
41431W        W  692  13.334  15.789   3.295
41432W        W  693  36.532  38.538  12.014
41433W        W  694   0.397  42.893   2.253
41434W        W  695  40.804  28.577   2.868
41435W        W  696  42.017  17.069  13.432
41436W        W  697  15.152  39.410  10.470
41437W        W  698  40.472  40.835   0.352
41438W        W  699  36.449  26.032   3.855
41439W        W  700   1.409  10.700   0.422
41440W        W  701   7.723  12.821  12.543
41441W        W  702  24.035  35.452   3.666
41442W        W  703  12.187  19.217  10.478
41443W        W  704  28.567  27.468   1.236
41444W        W  705  37.565   2.249  14.921
41445W        W  706   1.805   2.299  11.443
41446W        W  707  13.785  40.846  14.302
41447W        W  708  31.487  40.396   1.252
41448W        W  709  17.141  41.851   0.736
41449W        W  710  10.188  10.259  14.367
41450W        W  711  15.774  28.151   3.820
41451W        W  712  24.642   1.968   0.313
41452W        W  713  11.792  35.859   9.923
41453W        W  714  20.147  20.646  14.820
41454W        W  715  12.767  32.971  14.949
41455W        W  716  31.060   7.810  11.479
41456W        W  717   4.312   4.899  10.508
41457W        W  718   5.271  41.865   4.216
41458W        W  719  41.532  44.917  12.835
41459W        W  720  22.511  15.768  11.522
41460W        W  721  37.993  29.153  10.483
41461W        W  722  38.485  35.873  13.913
41462W        W  723  18.761  22.091   0.910
41463W        W  724  38.830  42.461   1.751
41464W        W  725   6.236  32.399   1.380
41465W        W  726  10.721  44.323   4.612
41466W        W  727  34.963  31.099  13.444
41467W        W  728  35.421  44.345  10.425
41468W        W  729  31.486  14.311  12.955
41469W        W  730   5.831  32.486   3.194
41470W        W  731  26.675  25.189  10.463
41471W        W  732  25.617  25.514  10.590
41472W        W  733  27.579  27.670   1.384
41473W        W  734  35.591  35.071   3.682
41474W        W  735  21.593  27.041  10.561
41475W        W  736  34.945  14.626  11.535
41476W        W  737  12.613  40.880  11.862
41477W        W  738  18.091   6.855  13.813
41478W        W  739  18.707  17.171  14.012
41479W        W  740  31.968   2.469  11.429
41480W        W  741  30.631   7.247   1.255
41481W        W  742  40.010  30.920  11.077
41482W        W  743  10.805  11.848  10.470
41483W        W  744  29.069  11.636   1.702
41484W        W  745  14.834  33.560   1.217
41485W        W  746  38.485  22.072   1.765
41486W        W  747  20.685  24.672   3.184
41487W        W  748  10.318  39.513   4.228
41488W        W  749  23.220   8.289  12.970
41489W        W  750  18.659  17.201   0.474
41490W        W  751  36.508  18.247  13.903
41491W        W  752  30.057   8.233  12.978
41492W        W  753  28.055  44.943  11.870
41493W        W  754   4.915  25.184  11.993
41494W        W  755  17.663   6.187  13.387
41495W        W  756   6.816  16.228   3.678
41496W        W  757  34.881  29.621  13.531
41497W        W  758  39.363  12.162   2.727
41498W        W  759  29.919  33.571   4.292
41499W        W  760  30.112   0.361  11.026
41500W        W  761  10.169  13.205   0.294
41501W        W  762   0.810  15.720  10.614
41502W        W  763  19.589  38.881  12.076
41503W        W  764  41.897   7.250  12.900
41504W        W  765  27.479  20.176  11.408
41505W        W  766   3.331  21.060  11.938
41506W        W  767  32.497   6.680  13.861
41507W        W  768  12.853  16.302   1.756
41508W        W  769  40.389  42.434  13.321
41509W        W  770  19.559  37.537   2.226
41510W        W  771  39.865  44.496   0.847
41511W        W  772  20.654  25.602   1.323
41512W        W  773  17.236   1.390  10.501
41513W        W  774  39.062  13.844  11.894
41514W        W  775  42.885  29.528   5.209
41515W        W  776  20.627  26.132   4.125
41516W        W  777  22.025  43.798   3.206
41517W        W  778  41.984  31.916   1.778
41518W        W  779  13.673  16.141  13.489
41519W        W  780   7.861   8.368   4.224
41520W        W  781  40.900  35.869  12.012
41521W        W  782  36.975   2.884   3.166
41522W        W  783  27.128  32.994   0.386
41523W        W  784  31.968  43.340  10.450
41524W        W  785   0.298  28.997  11.513
41525W        W  786  27.008  43.979  11.437
41526W        W  787  26.554  38.064  10.441
41527W        W  788  40.414  32.982  14.471
41528W        W  789  23.594   3.917   1.271
41529W        W  790  23.067  25.623   2.325
41530W        W  791  26.126  36.938   3.651
41531W        W  792  32.586  29.958  10.912
41532W        W  793  34.034  41.947  14.762
41533W        W  794  27.479  17.759   1.813
41534W        W  795  21.124  32.936   3.157
41535W        W  796  24.192  26.596   9.976
41536W        W  797  37.988  42.433  13.357
41537W        W  798  21.237  34.889  12.975
41538W        W  799   9.823   8.306   3.787
41539W        W  800  41.323  29.541  11.127
41540W        W  801  12.312  17.589  12.421
41541W        W  802  22.541   1.877   5.318
41542W        W  803  23.691  38.328   0.459
41543W        W  804  34.060  38.960  10.106
41544W        W  805  36.586  31.473  12.014
41545W        W  806  10.786  16.171  14.313
41546W        W  807  12.205   2.388   4.761
41547W        W  808  18.580  28.675  11.902
41548W        W  809  33.474  14.626  11.477
41549W        W  810   8.772  32.429  13.860
41550W        W  811   5.439   4.785  13.410
41551W        W  812  16.077  33.546  14.766
41552W        W  813   1.409  14.158  12.979
41553W        W  814   7.229  29.046   2.404
41554W        W  815  43.827  24.536  10.030
41555W        W  816  22.743   1.238  12.409
41556W        W  817   6.858   9.771   3.781
41557W        W  818  29.592  33.432   4.303
41558W        W  819  43.345  36.912   3.214
41559W        W  820  38.072  25.122   4.805
41560W        W  821  43.500   2.381  11.526
41561W        W  822   4.387   2.746  14.421
41562W        W  823  25.471  42.324  11.427
41563W        W  824  30.509  42.777  10.497
41564W        W  825  25.028  34.487   4.666
41565W        W  826   4.265   3.351  13.927
41566W        W  827   6.200   9.676  10.925
41567W        W  828  25.176  21.600   2.777
41568W        W  829   6.264  11.218  14.873
41569W        W  830  22.145  18.735   5.323
41570W        W  831  24.632   7.809  12.953
41571W        W  832  34.528   9.315   3.376
41572W        W  833  42.880  22.065  10.896
41573W        W  834  16.217  36.060  12.361
41574W        W  835  41.415  37.409  13.831
41575W        W  836   2.819  13.189   1.268
41576W        W  837  20.597  37.852   2.273
41577W        W  838  17.244  24.123   0.781
41578W        W  839  15.123   3.386   0.390
41579W        W  840  28.005  21.707   4.668
41580W        W  841  40.975  35.993  11.553
41581W        W  842  25.098  30.083   5.657
41582W        W  843   9.870  39.509   1.702
41583W        W  844   7.834  38.521   2.385
41584W        W  845  40.007  38.896  12.453
41585W        W  846   5.822  44.435   3.149
41586W        W  847  30.465  33.064  12.896
41587W        W  848  26.674  43.005  13.432
41588W        W  849   6.308  18.569  13.930
41589W        W  850  35.413  28.534   3.672
41590W        W  851  41.974  37.874   5.291
41591W        W  852  10.257  42.801   1.745
41592W        W  853  26.061  16.156  14.418
41593W        W  854  38.326  41.465  14.420
41594W        W  855  40.939  31.054  14.813
41595W        W  856  36.014  32.630   0.814
41596W        W  857  23.036   3.351  12.868
41597W        W  858  20.730   9.644  12.471
41598W        W  859  11.859   1.474  12.901
41599W        W  860  40.386   8.716  13.812
41600W        W  861  14.154  13.306  11.983
41601W        W  862  26.466   2.443   1.413
41602W        W  863  29.068  14.806   2.838
41603W        W  864  31.491  14.630   2.885
41604W        W  865  29.024   7.393  14.303
41605W        W  866  12.125  27.607  11.873
41606W        W  867  29.529  26.583   0.762
41607W        W  868  25.555  25.694   3.689
41608W        W  869  33.528  17.167   2.305
41609W        W  870  13.732   4.372   0.314
41610W        W  871  36.095   2.927  12.530
41611W        W  872  30.123  10.827  14.774
41612W        W  873   8.342  36.354   3.201
41613W        W  874  11.372  31.150  14.020
41614W        W  875   7.672   7.390   4.146
41615W        W  876  23.709  40.443  14.016
41616W        W  877  19.241  34.545   3.843
41617W        W  878  20.036  39.425   1.908
41618W        W  879  42.955  23.654  13.358
41619W        W  880  11.154  39.017  10.923
41620W        W  881   7.269  33.538   3.785
41621W        W  882  15.146   8.662   2.189
41622W        W  883  18.631   4.255  14.362
41623W        W  884  34.501  38.569   1.381
41624W        W  885  37.539  15.253  10.445
41625W        W  886  20.112  12.176  13.800
41626W        W  887  37.493  27.489   4.162
41627W        W  888  19.173  17.606  11.878
41628W        W  889  10.775  39.946   4.353
41629W        W  890  39.489   3.406  12.892
41630W        W  891   9.777  16.190   4.786
41631W        W  892  19.696   3.792   1.360
41632W        W  893  21.658  30.121  11.115
41633W        W  894  35.919  33.950   2.724
41634W        W  895   6.699  20.100   4.739
41635W        W  896  29.975  13.115   3.156
41636W        W  897  31.614  25.079   4.194
41637W        W  898  30.117  32.458   2.271
41638W        W  899  27.993  29.090  13.956
41639W        W  900  32.074  19.252  12.046
41640W        W  901  16.667  44.893  10.965
41641W        W  902   1.862  12.720  14.491
41642W        W  903  25.000  32.059  14.979
41643W        W  904  35.456  36.002   2.788
41644W        W  905   6.272   6.393   3.281
41645W        W  906   2.331   2.809  11.590
41646W        W  907   7.415  22.505   1.437
41647W        W  908  30.935  12.709  10.023
41648W        W  909  20.084   9.268  10.932
41649W        W  910  43.955  38.934   4.709
41650W        W  911   8.799  41.430  14.775
41651W        W  912   4.357  20.757  12.916
41652W        W  913   5.771  30.640  13.377
41653W        W  914  11.749  44.795  12.422
41654W        W  915   6.215  37.973   4.781
41655W        W  916  38.405  36.459   4.773
41656W        W  917   6.204  16.178  12.896
41657W        W  918  24.695  20.637   4.202
41658W        W  919  19.271  28.170  11.117
41659W        W  920  11.784  42.372  11.007
41660W        W  921  13.124   6.349   3.380
41661W        W  922   4.444  37.546   0.446
41662W        W  923  12.631  37.403  12.852
41663W        W  924  41.014  38.837   0.243
41664W        W  925  12.630  22.603  11.088
41665W        W  926  21.145  38.409   4.827
41666W        W  927  15.739  16.132  14.460
41667W        W  928  26.468  24.131   1.398
41668W        W  929  12.172  23.689   0.793
41669W        W  930   2.251  42.010  10.487
41670W        W  931  11.691  18.196  12.492
41671W        W  932  42.920   4.353  10.585
41672W        W  933  20.209   0.884  10.993
41673W        W  934  35.053   5.704   4.338
41674W        W  935  43.438   4.773  10.450
41675W        W  936  29.578  29.034  12.386
41676W        W  937  44.925  19.250  12.919
41677W        W  938  19.627  44.407   0.270
41678W        W  939  23.535  20.604  11.981
41679W        W  940  18.581  41.410   9.996
41680W        W  941  25.060  13.245   1.760
41681W        W  942   1.285  36.351  10.515
41682W        W  943  10.819  29.465   4.263
41683W        W  944  41.971  18.699  13.817
41684W        W  945  15.286  24.552   0.775
41685W        W  946  16.777   3.738   4.207
41686W        W  947  37.009  30.122   3.230
41687W        W  948   4.441   4.750   2.681
41688W        W  949  36.584  31.532  11.066
41689W        W  950  11.717   1.937   0.879
41690W        W  951  43.996  22.032  14.299
41691W        W  952  10.268  36.533   3.630
41692W        W  953  15.215  41.824   1.299
41693W        W  954  42.820  11.291  13.361
41694W        W  955  24.000  10.758   1.280
41695W        W  956  44.261   4.854  13.971
41696W        W  957  32.919  33.525  12.578
41697W        W  958  44.325  28.468   0.336
41698W        W  959  13.155  13.731  13.886
41699W        W  960  43.315  27.972  13.059
41700W        W  961  23.667  20.066   0.335
41701W        W  962  16.209   5.221   3.838
41702W        W  963  25.213   8.888   0.737
41703W        W  964  32.481  33.537   4.266
41704W        W  965  13.809  10.156   0.459
41705W        W  966  44.823  18.089   2.335
41706W        W  967  28.524  11.144   2.347
41707W        W  968  30.011  31.412   2.726
41708W        W  969  35.895  38.988  13.534
41709W        W  970  20.124  26.986   5.267
41710W        W  971  24.211  19.599  13.375
41711W        W  972  37.425  26.568   2.292
41712W        W  973  32.920  19.257  14.821
41713W        W  974  41.307  24.500   3.317
41714W        W  975   9.707  25.476  10.571
41715W        W  976  18.615  12.143  14.397
41716W        W  977  14.104   4.205   4.316
41717W        W  978  23.695  15.587  10.990
41718W        W  979  20.213   6.820   9.983
41719W        W  980   8.757  35.885   0.821
41720W        W  981  16.256  24.548   1.856
41721W        W  982   2.266  22.669   5.209
41722W        W  983  35.972  17.766  10.925
41723W        W  984  35.515  32.950  11.510
41724W        W  985  43.772   3.341  13.437
41725W        W  986  21.548  15.664  10.631
41726W        W  987  10.753  43.786   4.183
41727W        W  988  31.081  32.066  14.023
41728W        W  989  22.692   6.839  13.966
41729W        W  990   3.455  40.937   1.246
41730W        W  991  14.753  15.596  11.388
41731W        W  992   1.842  37.410  12.947
41732W        W  993  22.172   6.375  10.627
41733W        W  994  28.135  20.640   2.368
41734W        W  995   9.808  16.728   1.852
41735W        W  996   7.260  37.397  13.862
41736W        W  997  32.447  28.122   3.349
41737W        W  998  25.077  29.456   3.356
41738W        W  999   3.397  20.596   1.290
41739W        W 1000  44.811  13.798  14.916
41740W        W 1001  26.682  27.599  13.999
41741W        W 1002   2.415  10.373   3.255
41742W        W 1003  33.590  32.935   0.285
41743W        W 1004  23.023  41.495   1.825
41744W        W 1005   3.838  35.944   2.685
41745W        W 1006   5.705  19.637   1.832
41746W        W 1007  32.426  11.271   1.253
41747W        W 1008   4.798  19.640  12.486
41748W        W 1009  38.994  27.184  13.042
41749W        W 1010  41.442   5.316  11.405
41750W        W 1011   4.873   4.763   2.282
41751W        W 1012  12.121  27.154   3.256
41752W        W 1013  42.785  30.425   3.302
41753W        W 1014  20.195  26.201   2.814
41754W        W 1015  35.409  14.755   1.400
41755W        W 1016   4.797  35.500   2.738
41756W        W 1017  26.966  39.422  11.408
41757W        W 1018  21.619  42.965   3.861
41758W        W 1019  27.036  37.088   2.258
41759W        W 1020  36.396  24.064   3.649
41760W        W 1021  22.134  28.641  14.910
41761W        W 1022  41.021  30.538   5.096
41762W        W 1023  36.491  23.518  13.428
41763W        W 1024  39.516  32.057  12.559
41764W        W 1025  33.546  32.067   5.094
41765W        W 1026  32.055  41.901   4.835
41766W        W 1027   0.385   2.353  14.797
41767W        W 1028  33.550  19.088  13.808
41768W        W 1029  29.083  15.635   3.188
41769W        W 1030  12.758   5.398  11.862
41770W        W 1031  14.621  43.833   4.717
41771W        W 1032   6.720  21.513  14.475
41772W        W 1033  43.285  42.480  13.542
41773W        W 1034  30.576  42.861   2.290
41774W        W 1035   2.293  30.573   0.403
41775W        W 1036  29.557  13.761  10.441
41776W        W 1037  28.511   6.755   3.275
41777W        W 1038   7.881  28.447   1.316
41778W        W 1039  32.424  19.254   4.292
41779W        W 1040  38.561  30.463   1.782
41780W        W 1041   6.703   5.841  11.877
41781W        W 1042   2.443   1.358  13.930
41782W        W 1043  16.073  44.844   2.240
41783W        W 1044   5.420  42.410   1.413
41784W        W 1045  43.767  28.658   4.782
41785W        W 1046   1.874  38.506   0.905
41786W        W 1047   5.931   2.400   2.306
41787W        W 1048  18.189  42.987  11.090
41788W        W 1049   1.889  37.429  14.805
41789W        W 1050  16.580   8.891   4.781
41790W        W 1051  35.069  12.688  12.355
41791W        W 1052   0.353  39.384  12.971
41792W        W 1053   6.762  11.347   4.750
41793W        W 1054  23.196  15.818   4.288
41794W        W 1055  22.008  14.315  14.905
41795W        W 1056  31.116  39.347   3.823
41796W        W 1057  25.195  38.972  13.404
41797W        W 1058  29.547  20.187   4.292
41798W        W 1059  22.695  23.087  10.928
41799W        W 1060  25.078   7.786   3.690
41800W        W 1061  42.981  28.640   3.227
41801W        W 1062  39.490  13.294   2.774
41802W        W 1063  37.895  18.708  14.316
41803W        W 1064   7.894  17.761   3.702
41804W        W 1065   3.257  21.658   1.745
41805W        W 1066   1.920  44.327   4.648
41806W        W 1067  38.530  38.949   2.285
41807W        W 1068   6.723  36.962  12.429
41808W        W 1069  38.020  14.666   2.411
41809W        W 1070  34.382  22.111   0.846
41810W        W 1071  21.117  18.606   0.374
41811W        W 1072   2.292   1.297   4.154
41812W        W 1073   2.237   6.858  10.426
41813W        W 1074   3.422   1.751   1.772
41814W        W 1075  32.932  12.316   3.723
41815W        W 1076  32.605  28.561  14.429
41816W        W 1077   7.819  39.896  10.901
41817W        W 1078  14.617  17.616  10.469
41818W        W 1079  41.355   9.389   2.304
41819W        W 1080  43.934   2.245  10.443
41820W        W 1081  29.475  19.153  14.336
41821W        W 1082  22.018  16.211  14.881
41822W        W 1083   2.909  38.825  12.912
41823W        W 1084  42.526  28.970   0.375
41824W        W 1085  24.668  13.130  10.960
41825W        W 1086  10.826  26.152  12.898
41826W        W 1087  23.041  38.004   0.449
41827W        W 1088  22.615  19.582  12.901
41828W        W 1089   8.842  40.536  13.798
41829W        W 1090  27.064  35.934  10.607
41830W        W 1091  19.683  22.694  14.321
41831W        W 1092  38.379  10.770   1.814
41832W        W 1093   3.424   4.838  13.537
41833W        W 1094  27.510  17.681  12.406
41834W        W 1095  18.574  16.244  10.929
41835W        W 1096  39.340  43.852  11.526
41836W        W 1097  24.708  26.048   2.672
41837W        W 1098  19.051  11.650  12.824
41838W        W 1099  24.654  27.998   2.178
41839W        W 1100  38.470   0.427   1.376
41840W        W 1101  30.164  14.339   3.738
41841W        W 1102  15.167   6.328  11.943
41842W        W 1103  33.494   1.975   0.360
41843W        W 1104  33.513  25.493   4.121
41844W        W 1105  34.466   2.933   3.863
41845W        W 1106  12.132  19.190   4.695
41846W        W 1107  17.296   1.827  13.816
41847W        W 1108   9.223  18.555  13.890
41848W        W 1109   4.401  38.359  11.883
41849W        W 1110  44.902  20.270   2.302
41850W        W 1111  33.897  24.166  10.624
41851W        W 1112  42.493  43.883   3.768
41852W        W 1113  26.181  14.816  10.903
41853W        W 1114  43.474  30.131  14.355
41854W        W 1115  32.417  37.059   2.687
41855W        W 1116   0.794  22.124   2.215
41856W        W 1117   2.772   6.330  13.050
41857W        W 1118   1.751  44.889  10.495
41858W        W 1119  37.463  43.021   4.315
41859W        W 1120  44.413  14.832  12.477
41860W        W 1121  13.762  38.874  10.431
41861W        W 1122   3.221  42.492   3.677
41862W        W 1123  23.670  33.877  12.962
41863W        W 1124  33.015  28.633   3.347
41864W        W 1125  28.019  19.060  13.373
41865W        W 1126  22.118  35.437   2.386
41866W        W 1127  15.262  14.800  11.577
41867W        W 1128  40.924  39.557   3.663
41868W        W 1129  19.625  20.649  11.389
41869W        W 1130  31.556  30.453  12.490
41870W        W 1131   8.832   1.896  12.009
41871W        W 1132  26.589   5.362  11.608
41872W        W 1133  13.617  25.213   4.641
41873W        W 1134  33.983  42.020  12.880
41874W        W 1135  33.503   1.281   1.891
41875W        W 1136  17.630  41.907  11.447
41876W        W 1137  37.391  35.421  12.943
41877W        W 1138  36.407  31.122  12.459
41878W        W 1139  20.059  28.640   4.288
41879W        W 1140  17.134   7.905   3.801
41880W        W 1141  10.690  26.676  14.302
41881W        W 1142  44.762  26.153  14.462
41882W        W 1143  35.430  40.533   2.740
41883W        W 1144   3.282   9.740  13.902
41884W        W 1145  31.484  14.213   0.758
41885W        W 1146  17.753  43.459   1.437
41886W        W 1147  12.848  30.125   2.248
41887W        W 1148  15.230  36.452   3.746
41888W        W 1149   9.715  33.565   0.471
41889W        W 1150  21.190   9.804  11.867
41890W        W 1151  28.076  11.190   4.683
41891W        W 1152  31.408  14.287   0.387
41892W        W 1153  38.394  19.109  14.864
41893W        W 1154  39.463  29.588  13.481
41894W        W 1155  22.185  30.922  12.355
41895W        W 1156  19.595  33.023  14.280
41896W        W 1157  15.102  29.425  13.863
41897W        W 1158   8.187  41.376  11.994
41898W        W 1159  13.639   3.900   5.214
41899W        W 1160  37.446  16.790   1.734
41900W        W 1161   9.369  15.705   1.322
41901W        W 1162  42.829  25.527   3.288
41902W        W 1163  43.458   6.866   4.145
41903W        W 1164  39.831   2.840  11.590
41904W        W 1165  22.636   4.381  11.900
41905W        W 1166  14.158   0.979   1.370
41906W        W 1167  20.060   4.734   3.337
41907W        W 1168  36.067  37.865  11.960
41908W        W 1169   4.902  17.281  12.844
41909W        W 1170  12.707   1.432   3.289
41910W        W 1171  37.945  15.641   3.275
41911W        W 1172  18.233  13.805   2.305
41912W        W 1173   1.857  11.674   4.251
41913W        W 1174   1.294   6.888   3.335
41914W        W 1175  32.458   5.223   0.358
41915W        W 1176  25.659  20.129  11.498
41916W        W 1177   0.771  22.080   2.891
41917W        W 1178  17.073  30.981   4.747
41918W        W 1179   8.728  44.460  13.818
41919W        W 1180  36.061  42.962   1.770
41920W        W 1181  43.959  16.650   0.462
41921W        W 1182   2.347  11.806  12.823
41922W        W 1183  32.604   6.421   4.353
41923W        W 1184  20.633  34.397   0.392
41924W        W 1185  22.099  39.315  14.903
41925W        W 1186   9.340  20.615  13.899
41926W        W 1187  16.689  17.671  12.976
41927W        W 1188   7.326  30.934  10.980
41928W        W 1189  13.768  27.968  14.463
41929W        W 1190  12.838  35.495   2.679
41930W        W 1191   3.373   6.876  10.603
41931W        W 1192   6.281  15.097   4.669
41932W        W 1193  37.915  28.955   2.335
41933W        W 1194   0.819  11.156   1.353
41934W        W 1195  42.300   4.931  10.000
41935W        W 1196   7.173  32.000   0.898
41936W        W 1197  33.119   2.945   4.657
41937W        W 1198  26.009  39.869  14.477
41938W        W 1199  31.915  28.011  11.868
41939W        W 1200  44.376  26.954  12.394
41940W        W 1201   4.245  10.768  14.803
41941W        W 1202  34.106  29.057   2.757
41942W        W 1203  42.333  14.744  13.894
41943W        W 1204  26.134  41.489   0.871
41944W        W 1205  38.033   5.878   2.344
41945W        W 1206  34.508  38.927  11.086
41946W        W 1207  31.902  30.077  11.575
41947W        W 1208  38.557   1.784  12.025
41948W        W 1209  22.009  12.237   4.153
41949W        W 1210  21.706  12.246   2.740
41950W        W 1211   6.725  32.889   2.863
41951W        W 1212  38.028  14.615   1.922
41952W        W 1213   9.270  27.132  13.339
41953W        W 1214  19.651  30.040   1.832
41954W        W 1215  43.319  25.503   9.997
41955W        W 1216  19.640  33.936  13.311
41956W        W 1217  40.303   5.199  13.453
41957W        W 1218  13.329  20.189  11.556
41958W        W 1219  12.676  10.265  13.414
41959W        W 1220  38.540  19.260  12.475
41960W        W 1221  10.821  23.104   1.829
41961W        W 1222  39.447  22.143   1.241
41962W        W 1223   7.179   7.221   2.343
41963W        W 1224  23.175  14.790   1.919
41964W        W 1225  36.443  21.565   0.791
41965W        W 1226   7.232  23.516   2.230
41966W        W 1227  35.893  25.117  10.562
41967W        W 1228  18.653  24.546  13.443
41968W        W 1229  43.460  17.608   0.422
41969W        W 1230  26.522  26.047  12.039
41970W        W 1231  10.294  29.626   4.155
41971W        W 1232  11.633  22.103   1.440
41972W        W 1233  40.965  31.922   1.338
41973W        W 1234  26.676  15.206   1.864
41974W        W 1235  34.965   8.669  11.016
41975W        W 1236  28.460  30.449  12.524
41976W        W 1237   6.814  40.836   4.128
41977W        W 1238  12.746  13.683   3.668
41978W        W 1239  32.406  30.047  14.798
41979W        W 1240  44.390   2.465  13.479
41980W        W 1241  38.949  21.718  12.913
41981W        W 1242  11.237   5.826   3.148
41982W        W 1243  19.599  37.896  14.454
41983W        W 1244  39.430  40.534  13.361
41984W        W 1245  29.014  26.586   3.291
41985W        W 1246  34.893  26.613  11.958
41986W        W 1247  38.901  25.987   1.306
41987W        W 1248  43.874  18.655  11.461
41988W        W 1249  21.616   3.285  13.914
41989W        W 1250  23.590  34.928  14.514
41990W        W 1251  32.129  29.643   4.783
41991W        W 1252   4.774  13.179  12.844
41992W        W 1253   7.367  15.239  14.914
41993W        W 1254  17.073   8.282   0.795
41994W        W 1255  22.027  33.897  12.902
41995W        W 1256  12.276  14.165  10.902
41996W        W 1257  27.616  19.730   4.249
41997W        W 1258  33.419  18.129  13.976
41998W        W 1259  18.782  30.627  14.986
41999W        W 1260  37.852  37.859  11.391
42000W        W 1261  10.773   4.243  14.791
42001W        W 1262  13.844  39.902   0.376
42002W        W 1263  29.510  16.249   0.857
42003W        W 1264  10.820  21.641   4.294
42004W        W 1265  26.649  25.146  14.362
42005W        W 1266  29.466  42.969  14.885
42006W        W 1267  41.953  35.531   3.739
42007W        W 1268  19.200  44.856   0.477
42008W        W 1269  39.852  11.718   3.173
42009W        W 1270   8.897  23.058   1.315
42010W        W 1271   6.920  33.883  10.459
42011W        W 1272  44.447  31.628   3.686
42012W        W 1273  19.574  22.617  12.347
42013W        W 1274  43.815  11.650   2.419
42014W        W 1275   8.161  12.753   4.607
42015W        W 1276  31.478  29.011  14.885
42016W        W 1277  42.442  34.093   2.292
42017W        W 1278  32.637  36.388  10.605
42018W        W 1279   7.222   0.394  12.453
42019W        W 1280   0.794  20.592  10.893
42020W        W 1281   9.311  28.095   4.259
42021W        W 1282  33.423  35.978  12.971
42022W        W 1283  43.861  28.471   0.733
42023W        W 1284  28.666  12.356  13.807
42024W        W 1285   2.897  22.711  12.859
42025W        W 1286  30.946  23.615   4.610
42026W        W 1287  31.502  23.493   2.783
42027W        W 1288  13.623  10.376   3.204
42028W        W 1289   4.825   9.724   1.358
42029W        W 1290  44.909  35.908   3.229
42030W        W 1291   8.237  21.188  12.009
42031W        W 1292  17.088  17.559   3.374
42032W        W 1293  43.774  32.636  11.012
42033W        W 1294  10.278  32.422   1.352
42034W        W 1295  10.277  30.609   1.744
42035W        W 1296   3.858  17.122   2.185
42036W        W 1297  37.476  23.585   0.727
42037W        W 1298   0.909  22.076   4.625
42038W        W 1299  41.835  18.171   3.294
42039W        W 1300  16.643  30.076  11.992
42040W        W 1301  20.567  39.854   2.360
42041W        W 1302  18.763   0.492  11.948
42042W        W 1303   3.879   9.251  12.531
42043W        W 1304   5.907  26.071   4.251
42044W        W 1305   1.472  20.567  14.828
42045W        W 1306   6.737  25.031   3.270
42046W        W 1307   6.222  44.932   2.784
42047W        W 1308  31.448  18.289   4.671
42048W        W 1309  36.947  43.452   2.369
42049W        W 1310  21.139  23.651   3.693
42050W        W 1311  22.997  32.119   2.699
42051W        W 1312  25.618   7.341  13.446
42052W        W 1313  25.193  37.081   4.177
42053W        W 1314  44.296   4.414  11.043
42054W        W 1315   3.367  39.911  14.837
42055W        W 1316  20.558  22.217   3.279
42056W        W 1317  11.804  32.975  13.547
42057W        W 1318  19.650  44.926  13.040
42058W        W 1319  36.892  10.725  10.993
42059W        W 1320  24.631  25.130   2.408
42060W        W 1321  34.898  18.196   1.800
42061W        W 1322  10.268  19.654   1.815
42062W        W 1323  38.470  31.090   0.417
42063W        W 1324  23.139  43.907   2.382
42064W        W 1325  37.884   3.334  10.635
42065W        W 1326   6.893  37.832   4.709
42066W        W 1327  37.444   8.704   0.936
42067W        W 1328  41.915  21.675   5.576
42068W        W 1329  17.285  11.693   0.396
42069W        W 1330  18.767   3.796   2.803
42070W        W 1331  13.193  14.205   2.809
42071W        W 1332  38.883   5.894  13.479
42072W        W 1333  31.534  13.745   1.704
42073W        W 1334   8.812   8.895  11.072
42074W        W 1335  44.266   2.769   1.445
42075W        W 1336  19.158   9.674  14.803
42076W        W 1337   5.736  38.054  10.632
42077W        W 1338  10.267  16.764  10.151
42078W        W 1339   6.877  42.809   2.858
42079W        W 1340  25.144  42.316  11.007
42080W        W 1341  24.705   4.824   3.650
42081W        W 1342  30.055  44.446   2.666
42082W        W 1343   2.881  30.545   4.711
42083W        W 1344  20.124  29.124  12.079
42084W        W 1345  35.905  25.135  12.351
42085W        W 1346  10.657   8.895  13.467
42086W        W 1347  30.623  42.874   1.291
42087W        W 1348  42.389  39.890  10.640
42088W        W 1349   1.476   2.250   0.750
42089W        W 1350  29.072  15.275  10.494
42090W        W 1351   9.780  23.204  13.960
42091W        W 1352  35.079  26.101  11.125
42092W        W 1353  14.178  41.359   2.336
42093W        W 1354  18.691  25.676  11.049
42094W        W 1355  10.712  34.910   4.641
42095W        W 1356  41.814  12.123  11.106
42096W        W 1357  44.901  19.283   2.887
42097W        W 1358  35.558   2.904   0.855
42098W        W 1359  26.666  42.781  13.793
42099W        W 1360  25.119  12.331  13.927
42100W        W 1361   6.302  10.250   0.402
42101W        W 1362  27.681   6.916  14.361
42102W        W 1363  16.571  11.806  12.543
42103W        W 1364  32.578  16.210   3.648
42104W        W 1365  27.047  19.108   4.706
42105W        W 1366  26.575   8.830   2.741
42106W        W 1367  27.951  33.116  12.990
42107W        W 1368  24.136  27.668  14.378
42108W        W 1369  24.484   0.792   4.156
42109W        W 1370   7.269  12.671  11.958
42110W        W 1371  11.327   6.695  10.411
42111W        W 1372  10.368  12.752  11.105
42112W        W 1373  11.290  34.115   2.818
42113W        W 1374   2.720   9.391  14.378
42114W        W 1375  22.524  29.065   0.959
42115W        W 1376  27.095   9.647  12.500
42116W        W 1377   7.283   7.852   2.813
42117W        W 1378   4.810  34.563  12.347
42118W        W 1379   7.849  23.081   2.864
42119W        W 1380  30.417   7.306   2.886
42120W        W 1381  22.253   2.883   0.380
42121W        W 1382  23.077  27.118   0.306
42122W        W 1383  37.026  17.273  11.452
42123W        W 1384  44.811  36.052  10.052
42124W        W 1385  11.701  33.555   1.916
42125W        W 1386  44.919  36.486   2.312
42126W        W 1387   1.452  22.216   1.839
42127W        W 1388  29.105  35.500   4.627
42128W        W 1389  22.092  29.583  13.499
42129W        W 1390  44.927  30.102  12.977
42130W        W 1391  40.014  23.698   2.830
42131W        W 1392  31.588  27.139   4.195
42132W        W 1393  31.910   3.829  14.295
42133W        W 1394   9.728  40.308   0.772
42134W        W 1395   0.426  31.147  13.366
42135W        W 1396  12.815  41.351  12.855
42136W        W 1397  38.559   3.760  13.537
42137W        W 1398  16.238  39.526  11.061
42138W        W 1399  26.137  40.871   4.345
42139W        W 1400   3.752  18.162   4.727
42140W        W 1401  11.225  25.554   3.841
42141W        W 1402  35.965  22.217  14.028
42142W        W 1403   0.357  26.519   3.346
42143W        W 1404  35.011  26.644   4.782
42144W        W 1405  32.048   1.362  12.524
42145W        W 1406  35.860  24.020   2.410
42146W        W 1407  38.485  28.641   2.819
42147W        W 1408  27.509   9.312  11.968
42148W        W 1409  10.675  17.570  14.330
42149W        W 1410  14.131   9.247  12.363
42150W        W 1411  11.168  14.697   1.700
42151W        W 1412   0.487  30.468   1.772
42152W        W 1413  30.634  41.001  13.510
42153W        W 1414  33.617  22.012   4.628
42154W        W 1415  38.855  42.826   1.212
42155W        W 1416   9.761   2.260  12.969
42156W        W 1417  38.435  26.951   4.315
42157W        W 1418  17.727   2.270   3.193
42158W        W 1419  34.532  30.629   1.820
42159W        W 1420  44.987   6.833   4.693
42160W        W 1421   1.925  10.759   4.310
42161W        W 1422  23.583  10.161  12.526
42162W        W 1423  12.637   6.398  12.016
42163W        W 1424  14.118  34.991   2.324
42164W        W 1425   9.268  44.800   4.609
42165W        W 1426  14.176  29.624  12.479
42166W        W 1427  15.607  18.191   3.704
42167W        W 1428   0.356  26.119   4.230
42168W        W 1429   1.391   5.212   2.760
42169W        W 1430   7.738  33.539  13.445
42170W        W 1431  19.571  22.055  14.919
42171W        W 1432  42.499  34.111  10.540
42172W        W 1433  44.820   8.305   1.711
42173W        W 1434  18.690  28.986   3.292
42174W        W 1435  31.906  19.086   4.670
42175W        W 1436  25.035   0.454  11.424
42176W        W 1437  21.677   6.725   0.290
42177W        W 1438  33.532  29.037   3.664
42178W        W 1439  33.067  16.792   2.898
42179W        W 1440  38.445  43.815   4.674
42180W        W 1441  13.221  30.543  10.483
42181W        W 1442  35.080   0.294   2.732
42182W        W 1443  44.462  11.679  12.836
42183W        W 1444  23.569  31.975   4.697
42184W        W 1445  12.778  11.816   3.304
42185W        W 1446  42.412  26.483  13.885
42186W        W 1447   6.220  11.203   2.901
42187W        W 1448   5.326  33.998  13.859
42188W        W 1449  43.372   3.714  11.566
42189W        W 1450  18.575  29.471   4.290
42190W        W 1451   5.387  29.965  13.843
42191W        W 1452  33.982  33.604   3.279
42192W        W 1453  23.646   2.397  11.494
42193W        W 1454  18.129  29.539   1.725
42194W        W 1455  41.515  38.961  12.013
42195W        W 1456   1.861  26.029  11.560
42196W        W 1457  21.202  28.478   2.356
42197W        W 1458  20.660  36.445   3.676
42198W        W 1459  43.358  25.687  12.528
42199W        W 1460  22.008   0.315   2.290
42200W        W 1461  32.470  13.606   2.873
42201W        W 1462  17.669  20.083  14.004
42202W        W 1463  18.709  32.019  13.452
42203W        W 1464   8.160  37.011  14.877
42204W        W 1465  29.533  27.110   3.761
42205W        W 1466  37.841   9.241  11.402
42206W        W 1467  27.110  18.664   0.295
42207W        W 1468  19.662  26.546  13.544
42208W        W 1469   1.271  22.581   3.813
42209W        W 1470  32.059  38.557   4.171
42210W        W 1471  44.410  36.489   2.693
42211W        W 1472  21.183  15.301   2.220
42212W        W 1473   0.385  20.673  14.909
42213W        W 1474  35.058  24.706   1.268
42214W        W 1475  44.310   9.734  10.083
42215W        W 1476  25.994  24.484   1.365
42216W        W 1477   7.753  42.803   4.336
42217W        W 1478  18.730  11.204   3.180
42218W        W 1479  41.867  23.102   1.798
42219W        W 1480  27.653   7.666   3.657
42220W        W 1481   5.810  44.993  13.445
42221W        W 1482  41.520   3.233   1.415
42222W        W 1483  10.192   6.219   1.397
42223W        W 1484  28.052  37.889  10.097
42224W        W 1485  42.781  29.065  12.848
42225W        W 1486  40.049  38.326   2.672
42226W        W 1487  15.648  37.836  10.439
42227W        W 1488  18.575  34.890   2.876
42228W        W 1489   5.874  17.182  13.503
42229W        W 1490  33.489  42.820   0.836
42230W        W 1491  10.332  38.553  10.517
42231W        W 1492  33.546  10.692  13.370
42232W        W 1493  21.531  44.486  11.528
42233W        W 1494  26.140  11.213  12.852
42234W        W 1495  20.235  14.824  12.504
42235W        W 1496  10.237  22.558  10.612
42236W        W 1497  36.505  36.878   0.810
42237W        W 1498  16.743  40.832  12.501
42238W        W 1499  36.852  44.004   2.666
42239W        W 1500  12.247  27.078   5.738
42240W        W 1501  41.991  29.632   2.747
42241W        W 1502  16.661  18.710  14.394
42242W        W 1503   3.720  30.549   3.731
42243W        W 1504  28.660   2.826   2.409
42244W        W 1505  18.606  22.691   2.725
42245W        W 1506  41.468  22.037  12.891
42246W        W 1507   3.743  30.000  12.454
42247W        W 1508  44.805  27.080   4.246
42248W        W 1509  12.670  21.146  14.984
42249W        W 1510   8.300  16.113   3.211
42250W        W 1511  11.654  18.073   3.745
42251W        W 1512  43.410  23.611   1.286
42252W        W 1513  23.518  26.469  11.991
42253W        W 1514  32.415   6.719   4.326
42254W        W 1515  35.007  24.511   3.826
42255W        W 1516   9.373  39.921   3.301
42256W        W 1517   3.322  13.232   1.889
42257W        W 1518  16.706   7.214   4.633
42258W        W 1519  10.727   1.275  10.442
42259W        W 1520  33.975  43.835  13.998
42260W        W 1521  10.752  44.279  12.537
42261W        W 1522   7.274   9.347  11.910
42262W        W 1523  42.878  22.198   3.196
42263W        W 1524  34.043  15.782  14.923
42264W        W 1525   5.841  39.496  11.421
42265W        W 1526  42.452   9.670   0.325
42266W        W 1527  39.458  33.016   2.693
42267W        W 1528  36.942  13.688  12.495
42268W        W 1529   2.303  30.430   1.703
42269W        W 1530  28.469  18.607  13.369
42270W        W 1531  21.258  35.499   4.665
42271W        W 1532  32.099  36.888   3.349
42272W        W 1533  17.774   6.873  14.352
42273W        W 1534  25.995  30.961   1.308
42274W        W 1535   6.299  32.583   3.674
42275W        W 1536  31.531   4.938  10.569
42276W        W 1537   2.310  20.072   1.706
42277W        W 1538  10.647  41.383   2.285
42278W        W 1539  10.653   4.428  10.912
42279W        W 1540  22.181  40.036  12.026
42280W        W 1541  20.038  32.449  13.975
42281W        W 1542  15.737  13.332  13.425
42282W        W 1543  44.292   7.347   4.154
42283W        W 1544  41.531  24.145   3.676
42284W        W 1545  33.468  38.481   4.603
42285W        W 1546  31.638   0.853  12.977
42286W        W 1547  34.597   2.378  10.440
42287W        W 1548  23.140  38.894  12.910
42288W        W 1549  31.626  10.263   2.902
42289W        W 1550   2.863  37.526  11.020
42290W        W 1551   0.943  38.560  10.424
42291W        W 1552  18.059   3.359   1.754
42292W        W 1553  25.495  43.939  12.574
42293W        W 1554  38.930  35.991   0.933
42294W        W 1555  12.235  43.780   3.715
42295W        W 1556  32.040  38.473  14.772
42296W        W 1557   2.308  27.024  12.539
42297W        W 1558  18.554  24.040  10.486
42298W        W 1559  35.372  39.552  12.057
42299W        W 1560  28.439   9.884  12.933
42300W        W 1561  32.414   0.403   0.425
42301W        W 1562  38.461  35.573  14.866
42302W        W 1563  11.133  24.164  14.019
42303W        W 1564  36.467  41.519   2.805
42304W        W 1565  42.336  31.132  13.459
42305W        W 1566  13.638  22.724   0.424
42306W        W 1567  34.613  35.046  13.434
42307W        W 1568  30.512  42.380   2.280
42308W        W 1569   3.403  29.140  11.492
42309W        W 1570  44.364  24.212   3.677
42310W        W 1571  30.089  25.665  14.801
42311W        W 1572  38.863  40.524   3.667
42312W        W 1573  12.706  25.583   3.347
42313W        W 1574  33.519  42.814  11.392
42314W        W 1575  29.129  33.437   0.774
42315W        W 1576  21.535  25.639   4.651
42316W        W 1577  14.704   3.450   1.307
42317W        W 1578   1.307   2.966  12.388
42318W        W 1579  43.909   4.376  14.915
42319W        W 1580   0.925   1.337   0.380
42320W        W 1581  17.671  15.579   4.689
42321W        W 1582  33.935  21.036   3.176
42322W        W 1583  36.008  29.070  10.626
42323W        W 1584   4.725  11.814   4.186
42324W        W 1585  21.722   6.352   0.320
42325W        W 1586   0.408  43.900  10.633
42326W        W 1587  13.817  23.550   1.224
42327W        W 1588   9.293  29.022  12.860
42328W        W 1589  34.965   9.846   3.256
42329W        W 1590  38.365   7.681  12.394
42330W        W 1591  35.960  34.558  13.831
42331W        W 1592  18.618  26.586   3.860
42332W        W 1593  33.538  12.842   9.981
42333W        W 1594   9.766  38.347  13.917
42334W        W 1595  32.955  20.532  12.061
42335W        W 1596  20.063  44.295  13.544
42336W        W 1597   4.310   3.810   0.776
42337W        W 1598  20.601  29.545   1.407
42338W        W 1599   6.341  19.252   3.834
42339W        W 1600  36.580   9.329   9.477
42340W        W 1601  20.536  21.131   5.665
42341W        W 1602  10.279  16.695   4.142
42342W        W 1603  24.004  39.978   4.207
42343W        W 1604  39.388  20.175  10.569
42344W        W 1605  41.027   7.306  11.025
42345W        W 1606   3.357  18.261   4.770
42346W        W 1607  22.567  20.036   9.668
42347W        W 1608  39.437  18.219  12.580
42348W        W 1609  37.527  41.953  13.012
42349W        W 1610  42.945  28.991   1.918
42350W        W 1611  16.148  25.599  13.423
42351W        W 1612  37.437  31.927   3.292
42352W        W 1613   9.686   1.783   3.341
42353W        W 1614   1.468   7.238  13.906
42354W        W 1615  23.207  36.010   0.817
42355W        W 1616  24.134  42.345   1.767
42356W        W 1617  30.502  26.069   3.239
42357W        W 1618   1.949   6.885   3.182
42358W        W 1619  19.745  10.676   1.437
42359W        W 1620  11.684   2.939   2.782
42360W        W 1621  32.115  41.790  13.027
42361W        W 1622  35.463  16.641   3.645
42362W        W 1623   9.838  13.756  10.974
42363W        W 1624  17.770  37.571  14.995
42364W        W 1625  39.467  22.102  12.463
42365W        W 1626  38.409  23.591   3.310
42366W        W 1627  28.183  12.631   0.388
42367W        W 1628  33.416  34.445   3.850
42368W        W 1629  27.689  11.755  13.821
42369W        W 1630  22.683  27.509   0.840
42370W        W 1631  19.123  14.782   0.461
42371W        W 1632  22.066  30.589   3.178
42372W        W 1633  43.407  26.172   0.298
42373W        W 1634  26.463  31.919   3.672
42374W        W 1635  29.106  30.083  12.528
42375W        W 1636   7.701  32.902   0.896
42376W        W 1637  25.208   5.287   2.299
42377W        W 1638  12.738  12.214  13.415
42378W        W 1639  12.241  20.578  11.959
42379W        W 1640  11.662  11.678   3.666
42380W        W 1641  17.606  11.301   4.241
42381W        W 1642  32.516   0.408   0.890
42382W        W 1643  27.474  43.979   4.768
42383W        W 1644   2.779  11.368   0.785
42384W        W 1645  13.105   5.821  13.047
42385W        W 1646  42.432   7.747   0.860
42386W        W 1647  27.682  29.457  11.974
42387W        W 1648  26.960  11.261  13.038
42388W        W 1649  18.266  26.178   3.640
42389W        W 1650  16.732   7.804   3.284
42390W        W 1651  16.301  22.091  12.459
42391W        W 1652   3.459  19.541  13.437
42392W        W 1653  22.053  18.075  12.369
42393W        W 1654  38.488   1.958  10.899
42394W        W 1655  29.538   5.277  13.490
42395W        W 1656  29.572  25.643  11.098
42396W        W 1657  33.042  42.434  10.454
42397W        W 1658  36.944   4.298  11.591
42398W        W 1659  32.586  17.073  10.992
42399W        W 1660  33.447  28.976   0.784
42400W        W 1661   1.377   4.345  13.408
42401W        W 1662  43.303  24.526   3.818
42402W        W 1663  16.072  32.939   3.796
42403W        W 1664  24.104  14.638   2.346
42404W        W 1665   1.922  25.071  11.885
42405W        W 1666  34.064  11.845   0.372
42406W        W 1667  30.543  19.581   0.347
42407W        W 1668  23.064  16.127  12.387
42408W        W 1669   5.236  22.147   1.796
42409W        W 1670  23.493  10.236  12.952
42410W        W 1671  43.442  12.668  12.975
42411W        W 1672  42.362  22.233  13.527
42412W        W 1673   1.440  19.686  12.979
42413W        W 1674  18.600  36.900  12.900
42414W        W 1675  18.268   4.713   5.237
42415W        W 1676  11.238  32.569   3.312
42416W        W 1677  14.710   8.353  13.502
42417W        W 1678  19.233  30.578   3.359
42418W        W 1679   1.848  36.082  12.433
42419W        W 1680  23.236  36.350  13.355
42420W        W 1681  22.034  24.571   3.183
42421W        W 1682   1.417  42.798  12.523
42422W        W 1683  11.357  13.645   0.475
42423W        W 1684  38.956  13.288   5.322
42424W        W 1685  32.887   1.468  11.927
42425W        W 1686   1.885   4.823  11.436
42426W        W 1687  18.164  13.280   3.652
42427W        W 1688  18.145  40.859  11.527
42428W        W 1689  20.029  22.628   1.330
42429W        W 1690  39.485  32.570  10.936
42430W        W 1691  42.820   5.299  12.462
42431W        W 1692  41.033  39.954  14.940
42432W        W 1693  41.463  23.059  13.040
42433W        W 1694  20.227   6.769   4.255
42434W        W 1695   2.918   7.898  13.362
42435W        W 1696  25.003  13.200   0.278
42436W        W 1697  26.125   2.933  14.858
42437W        W 1698  14.187  42.394   2.861
42438W        W 1699   3.954   2.449  14.948
42439W        W 1700  31.645  44.884   1.314
42440W        W 1701  29.636   0.308  14.980
42441W        W 1702  19.605  41.417  13.414
42442W        W 1703  11.779  22.130  10.532
42443W        W 1704  44.916  44.945   1.699
42444W        W 1705  13.143   7.304  10.583
42445W        W 1706  35.088  28.116   0.305
42446W        W 1707   6.402  14.762  10.940
42447W        W 1708  16.146   7.357   1.245
42448W        W 1709  31.632  37.886   0.804
42449W        W 1710   4.776  16.752  10.011
42450W        W 1711  38.019  23.126  10.497
42451W        W 1712  33.622  14.815   3.718
42452W        W 1713  10.296  39.522  13.036
42453W        W 1714  25.617  22.507   4.751
42454W        W 1715   1.286  30.089   0.277
42455W        W 1716   4.930  12.820   3.777
42456W        W 1717  35.482  10.293  14.868
42457W        W 1718  17.744  24.622   3.326
42458W        W 1719  29.049  10.234  10.441
42459W        W 1720  10.290  24.069   5.291
42460W        W 1721  40.402  42.894  11.528
42461W        W 1722  18.718   3.319   2.409
42462W        W 1723  25.631  42.848  14.315
42463W        W 1724  11.201   8.848   0.930
42464W        W 1725  19.626  24.486  13.859
42465W        W 1726  25.164  33.934   3.248
42466W        W 1727  30.416  32.929  14.454
42467W        W 1728  41.933  27.997  11.520
42468W        W 1729   2.850  14.340  11.490
42469W        W 1730  30.994  18.733   3.665
42470W        W 1731  41.998  35.580  10.496
42471W        W 1732   5.249  16.609   0.766
42472W        W 1733  23.527  22.195  13.941
42473W        W 1734  18.719   2.869  10.513
42474W        W 1735  41.008   2.779  14.475
42475W        W 1736  26.974  34.443   3.265
42476W        W 1737  23.063   1.474   9.648
42477W        W 1738  15.186  15.585  14.821
42478W        W 1739  10.782  28.531  14.881
42479W        W 1740   5.722  37.476   0.885
42480W        W 1741  32.393  26.472  13.815
42481W        W 1742  20.612  38.510  14.336
42482W        W 1743   8.812  29.942  14.903
42483W        W 1744   1.948  18.080  13.910
42484W        W 1745   1.346  20.263  11.077
42485W        W 1746  34.979  21.106  11.400
42486W        W 1747   3.277   4.246  12.528
42487W        W 1748  18.584  43.481   2.748
42488W        W 1749   9.326  19.282   0.333
42489W        W 1750  28.485  26.593   1.694
42490W        W 1751  26.460  17.128   0.449
42491W        W 1752  14.094   0.474  10.514
42492W        W 1753  15.711  26.107   5.646
42493W        W 1754  32.393   4.725   1.395
42494W        W 1755  27.522   2.249  13.945
42495W        W 1756  42.939  36.917   0.436
42496W        W 1757   0.444  16.644   2.230
42497W        W 1758  26.042  30.969  11.909
42498W        W 1759  33.481  14.809   3.333
42499W        W 1760  33.552  39.514   4.290
42500W        W 1761  20.240  10.268  13.992
42501W        W 1762  13.758  21.149  14.453
42502W        W 1763  38.025  35.491  13.866
42503W        W 1764   4.770  37.030   4.338
42504W        W 1765   5.235  28.645  12.362
42505W        W 1766  26.953  11.196   1.867
42506W        W 1767  20.205   9.815  12.947
42507W        W 1768  11.361  15.782  10.900
42508W        W 1769   1.945   2.903  11.957
42509W        W 1770   8.376   7.273   0.923
42510W        W 1771   3.359  17.201   1.277
42511W        W 1772   9.326  20.208   1.908
42512W        W 1773  43.774  27.517  13.922
42513W        W 1774  27.159  34.441   0.480
42514W        W 1775  19.068   2.406   1.246
42515W        W 1776  36.859  15.320  13.931
42516W        W 1777  18.264  34.610  11.029
42517W        W 1778  33.889   8.347   1.227
42518W        W 1779  42.803  43.012  10.427
42519W        W 1780  27.093   7.759  11.908
42520W        W 1781  40.440  23.002  12.036
42521W        W 1782   7.867  42.012  14.506
42522W        W 1783  40.503  21.087  14.502
42523W        W 1784   4.699   1.947  14.954
42524W        W 1785  44.498   9.366   2.679
42525W        W 1786   2.791   2.311  10.571
42526W        W 1787  39.021   3.824   3.788
42527W        W 1788  31.561  18.630   1.312
42528W        W 1789   3.721  20.182  10.435
42529W        W 1790  30.112   9.848   4.765
42530W        W 1791   8.214  43.971  14.790
42531W        W 1792  36.926  35.562   0.356
42532W        W 1793  13.828  27.609   0.277
42533W        W 1794  29.550  14.606  11.895
42534W        W 1795  31.902   4.389   3.780
42535W        W 1796  14.138  35.078   0.886
42536W        W 1797  37.042  32.001   3.674
42537W        W 1798  44.265   5.221  10.567
42538W        W 1799  29.106  10.336   0.358
42539W        W 1800  44.965  24.983  14.402
42540W        W 1801  20.265  18.086   5.299
42541W        W 1802   2.893  31.579   4.115
42542W        W 1803  32.457  31.642   2.318
42543W        W 1804  21.085  42.308  12.891
42544W        W 1805  21.113   4.869  11.032
42545W        W 1806  21.149  38.012   4.161
42546W        W 1807  30.003  35.574   4.749
42547W        W 1808  32.459  15.139  11.031
42548W        W 1809  37.346  13.789   3.644
42549W        W 1810  33.038   1.247   0.805
42550W        W 1811  14.750   8.895  11.003
42551W        W 1812   4.346  18.132   1.329
42552W        W 1813  32.070   5.330   2.880
42553W        W 1814  26.663  20.043  11.062
42554W        W 1815  42.011   3.945   2.367
42555W        W 1816  30.646   6.204   0.962
42556W        W 1817   5.729  39.388  14.506
42557W        W 1818   1.908   8.402   2.808
42558W        W 1819  31.455  22.096  13.829
42559W        W 1820  27.122   4.942  14.901
42560W        W 1821  36.526  15.261  14.878
42561W        W 1822   2.459  25.213  13.892
42562W        W 1823   1.365  26.590   3.284
42563W        W 1824  34.059   9.857   4.800
42564W        W 1825  25.165  31.558   3.335
42565W        W 1826   7.693  18.586   4.281
42566W        W 1827  32.908  44.307   3.327
42567W        W 1828  28.439  36.870   2.720
42568W        W 1829  38.396  24.547  10.136
42569W        W 1830  20.247  14.685  14.503
42570W        W 1831  43.500   6.338  10.478
42571W        W 1832  30.499  14.598   0.919
42572W        W 1833  39.551  19.172   2.846
42573W        W 1834  41.037  22.046  12.401
42574W        W 1835  42.404  32.964   2.700
42575W        W 1836  28.525  34.468   4.294
42576W        W 1837  36.422  19.663  12.965
42577W        W 1838  22.242  32.527  10.449
42578W        W 1839  21.075   9.356  13.334
42579W        W 1840  29.562  23.108   0.946
42580W        W 1841  14.647  29.472   3.168
42581W        W 1842  43.964   7.907  14.509
42582W        W 1843  26.989   3.724   3.768
42583W        W 1844   5.229  28.594  11.500
42584W        W 1845   6.792  15.746   1.365
42585W        W 1846  31.566  42.883  11.520
42586W        W 1847  10.719  11.139  13.010
42587W        W 1848  44.288  41.792  10.915
42588W        W 1849  34.442   5.419  12.449
42589W        W 1850  15.642  29.982   5.728
42590W        W 1851   8.870   2.342  13.014
42591W        W 1852  26.012  31.463  12.365
42592W        W 1853  14.619  16.079   1.707
42593W        W 1854  25.042  30.031   1.244
42594W        W 1855  43.380  19.123  13.009
42595W        W 1856   7.200  32.907  10.431
42596W        W 1857  30.506  11.670  11.091
42597W        W 1858  13.615  38.461  11.610
42598W        W 1859  15.782  17.796  13.502
42599W        W 1860  12.219   0.866   3.640
42600W        W 1861  44.822  28.149  14.318
42601W        W 1862  37.361  35.087  14.786
42602W        W 1863   9.222  41.340  11.521
42603W        W 1864  25.116  11.162   3.210
42604W        W 1865   7.415   6.820   3.184
42605W        W 1866  24.126  23.508  10.988
42606W        W 1867  12.640   0.841  10.478
42607W        W 1868  38.838  14.713   4.772
42608W        W 1869  33.542  34.110   2.323
42609W        W 1870  25.617  22.621   0.363
42610W        W 1871  12.277  17.078  13.505
42611W        W 1872  28.067  14.146  11.122
42612W        W 1873  16.690  29.931   0.801
42613W        W 1874  11.689  19.164   4.233
42614W        W 1875   6.742  26.159   2.872
42615W        W 1876  23.709  26.209   2.183
42616W        W 1877  31.062  32.998  13.548
42617W        W 1878  19.229  27.475  11.522
42618W        W 1879  30.497   8.383   5.236
42619W        W 1880  30.057  25.492   4.143
42620W        W 1881  43.960  43.381   1.884
42621W        W 1882  17.218  28.455  14.510
42622W        W 1883   1.779  41.894  14.939
42623W        W 1884  12.700   9.256   4.779
42624W        W 1885  42.310   4.360  14.505
42625W        W 1886  15.649  24.661   4.127
42626W        W 1887   1.858  20.610  11.606
42627W        W 1888   3.819  25.513  11.115
42628W        W 1889  38.974  26.035  13.883
42629W        W 1890  34.411  33.520  14.032
42630W        W 1891  20.569  33.939   0.897
42631W        W 1892   0.853  16.698  12.489
42632W        W 1893  34.120   4.938  14.944
42633W        W 1894   7.279  27.462   4.785
42634W        W 1895  10.637  12.692  11.055
42635W        W 1896  38.375  31.612   2.840
42636W        W 1897  27.500  18.082   4.237
42637W        W 1898  37.972  15.729   2.363
42638W        W 1899  22.217   7.174   4.167
42639W        W 1900  30.120  43.908  12.426
42640W        W 1901   9.300  22.529   1.920
42641W        W 1902  29.578   8.172   2.887
42642W        W 1903  32.498  43.322   3.679
42643W        W 1904  34.503   5.194   3.814
42644W        W 1905   4.257  14.099  10.579
42645W        W 1906  38.864  26.606  12.065
42646W        W 1907   1.940   4.368   1.396
42647W        W 1908  44.348  21.104   4.239
42648W        W 1909  43.324  41.439   1.342
42649W        W 1910  11.711  32.547   4.622
42650W        W 1911   1.419  10.635   4.832
42651W        W 1912  10.824   8.876  12.888
42652W        W 1913   8.357  32.019   1.221
42653W        W 1914   7.231   4.274   2.289
42654W        W 1915   6.825  40.410  12.988
42655W        W 1916  38.012   7.896  10.052
42656W        W 1917   0.757  36.073   4.648
42657W        W 1918   8.345  16.134   1.338
42658W        W 1919  40.820  11.634  12.357
42659W        W 1920  40.955   2.740   1.761
42660W        W 1921  36.862  17.273  14.486
42661W        W 1922  25.193  21.170   0.730
42662W        W 1923  32.011  43.998   3.183
42663W        W 1924  18.258  11.289   1.702
42664W        W 1925  41.038  34.086  13.982
42665W        W 1926  32.973  17.288  12.034
42666W        W 1927  34.056  31.450   0.956
42667W        W 1928  41.310  16.232   1.809
42668W        W 1929  37.382   5.231   2.772
42669W        W 1930   6.896   1.945  13.861
42670W        W 1931   3.232  31.058  10.963
42671W        W 1932  33.564  20.091   4.159
42672W        W 1933  32.505  14.750  13.055
42673W        W 1934  26.165  33.084  11.052
42674W        W 1935  39.470  16.290   0.864
42675W        W 1936  43.402  38.342  13.810
42676W        W 1937  35.988  23.139  13.416
42677W        W 1938  18.290   9.149   2.396
42678W        W 1939  41.863  13.168  14.296
42679W        W 1940  43.420  18.655  13.794
42680W        W 1941  21.587  40.840  13.313
42681W        W 1942  15.294   4.731   3.156
42682W        W 1943  19.198   4.438   1.240
42683W        W 1944  34.942  42.786  12.502
42684W        W 1945  23.162  33.453   0.466
42685W        W 1946  26.532   3.768  13.904
42686W        W 1947   9.875   8.363   0.954
42687W        W 1948  10.812   0.954  13.903
42688W        W 1949  43.874  40.834  10.930
42689W        W 1950  41.831  15.741   1.210
42690W        W 1951  44.494  16.115   0.746
42691W        W 1952   3.952  28.176  13.869
42692W        W 1953  30.116   8.713  12.527
42693W        W 1954   1.242   9.354   3.665
42694W        W 1955  18.746  12.684   2.720
42695W        W 1956  20.033  34.494  11.447
42696W        W 1957  34.928  40.882  13.032
42697W        W 1958  22.615   0.821  13.449
42698W        W 1959  20.176   1.253   1.314
42699W        W 1960  35.013  30.457  13.388
42700W        W 1961   2.240  10.301  13.924
42701W        W 1962  13.777  44.912  14.986
42702W        W 1963   8.197  22.689  11.412
42703W        W 1964  14.774  25.995  12.440
42704W        W 1965  36.015  38.876  10.446
42705W        W 1966  15.728   5.227   2.399
42706W        W 1967  25.138  36.526   1.697
42707W        W 1968   6.800  42.283  10.898
42708W        W 1969  43.373  25.138   5.191
42709W        W 1970  43.418  23.494   5.081
42710W        W 1971   4.260  32.611   0.915
42711W        W 1972  29.052  35.510   4.201
42712W        W 1973  40.359  32.398  11.520
42713W        W 1974  35.428  38.880  14.303
42714W        W 1975  23.021   1.455   2.795
42715W        W 1976  36.537   9.198  11.540
42716W        W 1977   0.453  36.932  12.525
42717W        W 1978  12.328  34.434   0.404
42718W        W 1979  37.075  11.682  14.968
42719W        W 1980  18.163  38.427  11.879
42720W        W 1981  13.604  29.604   2.840
42721W        W 1982   1.834  12.673  11.590
42722W        W 1983  17.250  33.036  14.950
42723W        W 1984  11.332  32.929   1.283
42724W        W 1985  20.695  33.597   3.674
42725W        W 1986   7.846  38.019   3.313
42726W        W 1987  14.183  12.256  14.811
42727W        W 1988   0.833  32.082   3.664
42728W        W 1989  33.497  33.592  13.323
42729W        W 1990  25.562   2.450  13.313
42730W        W 1991  25.528  27.533   4.181
42731W        W 1992  12.122  15.651   2.863
42732W        W 1993  17.615  33.577   2.741
42733W        W 1994  33.570  17.100  13.792
42734W        W 1995  11.704  26.649  11.923
42735W        W 1996  41.882  21.595  13.911
42736W        W 1997  26.079  27.659   4.196
42737W        W 1998  23.001  22.083   0.815
42738W        W 1999  36.497  42.445  12.847
42739W        W 2000  13.287   5.742  11.129
42740W        W 2001   1.853  26.593   4.307
42741W        W 2002   5.813  35.495  10.952
42742W        W 2003  24.596  31.069  12.946
42743W        W 2004  24.567   6.678   1.856
42744W        W 2005  43.980  42.988   2.708
42745W        W 2006  26.476  40.935   3.804
42746W        W 2007  14.130  44.999  14.308
42747W        W 2008  22.176  27.647  13.805
42748W        W 2009  43.311  12.311   4.203
42749W        W 2010  32.933  26.010   0.846
42750W        W 2011  39.049   4.876   4.144
42751W        W 2012  12.274   8.374  11.945
42752W        W 2013  37.473   0.790   5.295
42753W        W 2014  27.116   6.382  11.612
42754W        W 2015   2.444  20.551  14.513
42755W        W 2016   3.799   3.418   0.397
42756W        W 2017  44.817   2.286  12.049
42757W        W 2018  30.088  37.919   4.257
42758W        W 2019  32.997  36.895   3.651
42759W        W 2020  39.894  27.976   4.133
42760W        W 2021  29.958  39.540   2.796
42761W        W 2022  15.592  26.100  10.033
42762W        W 2023  39.482  40.420  10.911
42763W        W 2024  38.856  28.155   2.892
42764W        W 2025  40.010  30.430   1.405
42765W        W 2026  43.286  18.625   0.813
42766W        W 2027  32.038  19.581   4.795
42767W        W 2028  11.763  28.617   2.206
42768W        W 2029  43.354   3.333  13.542
42769W        W 2030  12.682  11.776  11.990
42770W        W 2031   1.896  17.122   4.671
42771W        W 2032  38.929  23.515  13.797
42772W        W 2033  16.211  32.048   3.283
42773W        W 2034  15.796  37.553   4.767
42774W        W 2035  33.510   5.233  10.969
42775W        W 2036  37.489   6.354  14.949
42776W        W 2037  40.975  18.286  12.032
42777W        W 2038  31.441  24.524  14.010
42778W        W 2039   4.822  24.125  11.520
42779W        W 2040  16.755  38.518   2.806
42780W        W 2041  37.064   0.821  10.610
42781W        W 2042  34.573   7.414   4.154
42782W        W 2043  22.740   3.925   1.394
42783W        W 2044  25.043   0.445   0.459
42784W        W 2045  28.446  37.573   3.231
42785W        W 2046  18.697  14.717  13.858
42786W        W 2047  39.431  28.038   0.304
42787W        W 2048  38.915  31.045   1.930
42788W        W 2049   5.420  24.078   3.214
42789W        W 2050   7.710  30.108   4.144
42790W        W 2051  25.195  43.886   1.230
42791W        W 2052  38.332  35.953  10.530
42792W        W 2053  30.008  30.953  14.287
42793W        W 2054  21.224  28.025   2.308
42794W        W 2055  34.483  41.886  13.946
42795W        W 2056  13.118  28.039  13.988
42796W        W 2057  40.883   9.775   1.421
42797W        W 2058   8.692  23.685  12.028
42798W        W 2059  40.452  31.910  10.128
42799W        W 2060  21.680  30.491   0.733
42800W        W 2061   0.772  32.478   3.659
42801W        W 2062   4.324   5.745  10.536
42802W        W 2063  29.489   0.408  13.946
42803W        W 2064   0.384  19.642  10.619
42804W        W 2065   2.429  31.973  12.015
42805W        W 2066  22.588  25.621   1.334
42806W        W 2067  34.591   5.845   4.660
42807W        W 2068  30.915  10.179  14.469
42808W        W 2069  15.755  35.527   0.749
42809W        W 2070  21.660  35.065  14.990
42810W        W 2071  23.176   6.679  14.360
42811W        W 2072  22.729  14.767   2.278
42812W        W 2073  42.784  42.018  11.548
42813W        W 2074  13.798  44.442   1.257
42814W        W 2075  43.881  42.922   2.300
42815W        W 2076  20.054  37.408   3.754
42816W        W 2077   9.702  37.069  14.021
42817W        W 2078  44.975  20.586  13.445
42818W        W 2079  16.575  34.975  11.502
42819W        W 2080   4.922  24.495  11.540
42820W        W 2081  18.202  28.933  11.867
42821W        W 2082  13.723  15.579   2.866
42822W        W 2083  22.157  22.596   9.996
42823W        W 2084  37.483   0.481  14.500
42824W        W 2085   9.149  20.636  13.437
42825W        W 2086  33.588   7.179  11.856
42826W        W 2087  40.940  18.160  12.875
42827W        W 2088  17.170  29.458   2.770
42828W        W 2089  10.278  34.598  11.027
42829W        W 2090  23.197  43.991  10.430
42830W        W 2091  26.975   2.860   1.244
42831W        W 2092  44.850  27.484  11.442
42832W        W 2093  14.698  33.084  14.456
42833W        W 2094  35.864  43.919  10.567
42834W        W 2095  31.962  25.536  13.043
42835W        W 2096  40.868  25.190   2.727
42836W        W 2097  14.232  15.283  11.078
42837W        W 2098  41.400  40.465   1.254
42838W        W 2099  18.648  17.163   2.180
42839W        W 2100  33.444   2.856  10.932
42840W        W 2101  17.200  35.013  10.443
42841W        W 2102   1.952   8.305  13.979
42842W        W 2103  35.012  25.127   1.762
42843W        W 2104  14.640   6.822  13.826
42844W        W 2105   2.439  21.082   1.849
42845W        W 2106  40.335  16.152  10.595
42846W        W 2107  37.884   0.886  12.954
42847W        W 2108  18.138  14.289  13.982
42848W        W 2109   6.694  28.498  13.007
42849W        W 2110  15.751  20.101   4.702
42850W        W 2111  31.624  33.874  10.454
42851W        W 2112  39.941  44.370  13.029
42852W        W 2113  43.770  26.973   4.751
42853W        W 2114  26.539  36.542  11.576
42854W        W 2115   4.422   1.249   1.411
42855W        W 2116  22.746  19.539   2.327
42856W        W 2117  10.660  20.247   0.335
42857W        W 2118   9.695  14.735   4.777
42858W        W 2119  23.659  39.011  13.428
42859W        W 2120  22.091   1.359   2.681
42860W        W 2121  44.878  17.618  11.008
42861W        W 2122   5.886   2.815  13.526
42862W        W 2123   4.891  38.962   1.850
42863W        W 2124  12.712  27.989  13.836
42864W        W 2125  43.458  42.961  14.475
42865W        W 2126   9.856  26.168   4.353
42866W        W 2127  43.800   1.777   0.323
42867W        W 2128  23.115  12.711  12.580
42868W        W 2129  12.680  30.080   4.209
42869W        W 2130  10.338  15.656  10.894
42870W        W 2131  33.964  28.681  14.759
42871W        W 2132  40.894  28.445   3.871
42872W        W 2133  26.681  41.293  12.083
42873W        W 2134  37.518   3.247  10.007
42874W        W 2135  25.157  42.304  14.797
42875W        W 2136  15.206  15.146   0.306
42876W        W 2137   6.808  37.922   3.755
42877W        W 2138  21.259  41.335   1.222
42878W        W 2139  39.469   5.867   1.342
42879W        W 2140  26.161  33.983   9.947
42880W        W 2141   5.363  32.964   1.932
42881W        W 2142  13.209   2.448  13.991
42882W        W 2143   4.357  37.083   2.733
42883W        W 2144  19.559   0.823   1.317
42884W        W 2145  21.599  26.085   0.856
42885W        W 2146  10.767   3.759  10.953
42886W        W 2147   4.889  16.593  13.392
42887W        W 2148  16.768  24.695   3.867
42888W        W 2149  34.003  10.730  13.978
42889W        W 2150  10.286   0.985   2.886
42890W        W 2151  26.132  21.084   4.305
42891W        W 2152  43.985   6.228  13.010
42892W        W 2153  13.834  35.359  12.385
42893W        W 2154  25.987  42.861   0.728
42894W        W 2155   6.860  13.172   3.347
42895W        W 2156  40.826   6.396   2.810
42896W        W 2157  39.966   2.765  13.834
42897W        W 2158  41.788   4.939   4.188
42898W        W 2159  30.630  30.978   1.374
42899W        W 2160  10.297   8.320  10.042
42900W        W 2161  13.651   0.870  13.956
42901W        W 2162   6.830  13.752   3.187
42902W        W 2163  29.559  39.917  12.984
42903W        W 2164   2.431  30.038   1.306
42904W        W 2165   6.183  26.688   2.884
42905W        W 2166   0.298   4.291   4.215
42906W        W 2167  34.449  38.397   4.807
42907W        W 2168  13.704  21.071  12.984
42908W        W 2169  32.605  29.646  13.384
42909W        W 2170  16.232  24.123   1.304
42910W        W 2171   1.476  13.350  12.009
42911W        W 2172   1.732  31.022   1.383
42912W        W 2173  33.972  23.040   3.806
42913W        W 2174  26.581  42.867   1.928
42914W        W 2175  22.585  17.628   1.795
42915W        W 2176  11.174   4.853   2.782
42916W        W 2177  23.726  41.369   1.742
42917W        W 2178   0.742  32.027   1.788
42918W        W 2179  28.530   1.397   0.339
42919W        W 2180  21.122   6.360  10.533
42920W        W 2181   5.312   1.915   0.455
42921W        W 2182  36.554  41.530   5.288
42922W        W 2183  42.280  26.020   5.202
42923W        W 2184  21.548  24.162  12.561
42924W        W 2185  37.349  39.469   0.758
42925W        W 2186  44.409   3.299  10.098
42926W        W 2187  24.503   3.836  12.949
42927W        W 2188  22.534  27.029   4.127
42928W        W 2189  16.223   8.173  11.110
42929W        W 2190  19.747  39.443  13.019
42930W        W 2191  44.468  28.663   3.248
42931W        W 2192  44.773  23.632  10.939
42932W        W 2193  16.236  44.940  12.350
42933W        W 2194  35.059  12.180   1.773
42934W        W 2195  30.160   6.895   4.837
42935W        W 2196  16.101  21.718   0.753
42936W        W 2197   5.297  32.589  11.415
42937W        W 2198   3.785  23.161   2.413
42938W        W 2199  12.629   8.181   4.124
42939W        W 2200  14.756  15.621   3.314
42940W        W 2201  38.904  41.451   0.433
42941W        W 2202  11.244  14.297   1.809
42942W        W 2203  36.012  42.320  13.548
42943W        W 2204  34.425  31.618   2.221
42944W        W 2205  34.969  36.911   3.813
42945W        W 2206   1.436   9.753   1.724
42946W        W 2207   0.308  29.453   3.229
42947W        W 2208  14.740  10.842  13.411
42948W        W 2209  30.509  21.123   4.213
42949W        W 2210  19.081  19.059  13.979
42950W        W 2211  38.055  28.139   4.291
42951W        W 2212  18.122  38.450   4.684
42952W        W 2213  17.580  15.665   1.761
42953W        W 2214  12.784  38.858  11.529
42954W        W 2215   4.909  19.079  10.140
42955W        W 2216   2.930   3.398   1.792
42956W        W 2217  32.405   4.399   2.792
42957W        W 2218  22.720   0.839  10.153
42958W        W 2219  15.690   8.851   2.891
42959W        W 2220  14.598   4.442   4.308
42960W        W 2221   1.872  14.330   3.312
42961W        W 2222  18.636  39.560  12.503
42962W        W 2223   7.375   9.712  14.827
42963W        W 2224   0.743  34.877  10.989
42964W        W 2225  32.060  11.129   2.186
42965W        W 2226  36.543  37.566   3.846
42966W        W 2227  32.540  16.085   4.627
42967W        W 2228   5.714   0.456   0.914
42968W        W 2229   7.277  38.040   2.848
42969W        W 2230  11.709  19.114   1.757
42970W        W 2231  33.051  35.378  10.542
42971W        W 2232  35.957  23.208   0.798
42972W        W 2233  29.966  30.023   9.496
42973W        W 2234  36.466  42.398  13.872
42974W        W 2235  19.622  26.678   0.381
42975W        W 2236   2.833  14.755  12.524
42976W        W 2237   2.285  30.445   5.185
42977W        W 2238  36.444  26.532  10.628
42978W        W 2239  23.091  11.304   4.657
42979W        W 2240  26.463  26.550  13.814
42980W        W 2241   1.478   3.428   5.137
42981W        W 2242  35.902  17.740  13.054
42982W        W 2243   5.351  11.232  14.760
42983W        W 2244  36.557  18.596   1.360
42984W        W 2245  12.161   0.910   1.854
42985W        W 2246  11.790  29.481   2.238
42986W        W 2247   6.784   2.244  11.091
42987W        W 2248  30.154  41.499   2.835
42988W        W 2249   7.238   9.727   4.168
42989W        W 2250  24.189  33.495  11.532
42990W        W 2251  31.602  32.425   3.203
42991W        W 2252  18.689  33.050   0.831
42992W        W 2253  40.917   6.792  11.440
42993W        W 2254  27.973  42.031  11.468
42994W        W 2255  35.578  40.934   4.241
42995W        W 2256  34.023   3.460  14.991
42996W        W 2257  22.231  36.497  12.928
42997W        W 2258  39.954  29.627  13.010
42998W        W 2259   6.394   7.869   1.856
42999W        W 2260   4.321  34.429  11.042
43000W        W 2261  33.505  18.624   1.770
43001W        W 2262  14.250   9.238   4.271
43002W        W 2263  12.811  16.075   0.288
43003W        W 2264   5.842  44.392  14.500
43004W        W 2265  24.667   5.382   2.299
43005W        W 2266  30.953  13.321  12.085
43006W        W 2267  13.614  25.476   4.732
43007W        W 2268   2.749  29.522  11.590
43008W        W 2269  32.424  22.124  12.979
43009W        W 2270   7.747   6.272   2.264
43010W        W 2271  37.472  17.102  13.334
43011W        W 2272  25.115  15.698   4.796
43012W        W 2273  40.312  24.541   3.654
43013W        W 2274  33.010  38.848   2.863
43014W        W 2275  23.662   9.208   3.813
43015W        W 2276  15.093  31.122  11.380
43016W        W 2277  14.144  39.833   1.910
43017W        W 2278  41.791  42.968   0.914
43018W        W 2279  18.692  23.187   1.820
43019W        W 2280  25.991  12.229  13.504
43020W        W 2281  22.113  44.939  12.423
43021W        W 2282  44.298   0.412   1.857
43022W        W 2283  12.319  39.411  13.368
43023W        W 2284  29.590  17.738  14.361
43024W        W 2285   6.406   8.876   3.201
43025W        W 2286   4.888   5.884   3.810
43026W        W 2287  13.326   2.817  12.340
43027W        W 2288  10.150  42.299  14.792
43028W        W 2289  43.941  44.804  12.381
43029W        W 2290  41.439  42.508  10.558
43030W        W 2291  33.482  24.480  11.888
43031W        W 2292   8.302  14.127  12.499
43032W        W 2293  24.203  40.913   3.674
43033W        W 2294  31.956  17.225   0.381
43034W        W 2295  30.435  39.419  14.429
43035W        W 2296   3.328  31.638   3.761
43036W        W 2297   7.898  35.907   4.353
43037W        W 2298  32.441   2.963  11.503
43038W        W 2299  30.034   6.806  14.905
43039W        W 2300  29.499   9.886  11.127
43040W        W 2301  26.466  16.271  13.426
43041W        W 2302  38.896  35.899  12.011
43042W        W 2303  33.119   1.264  14.452
43043W        W 2304  26.147  33.974   1.322
43044W        W 2305   5.362  28.071  11.957
43045W        W 2306  24.705   3.417  12.571
43046W        W 2307   1.351   2.232   3.799
43047W        W 2308  33.042  30.092  12.458
43048W        W 2309  43.322   6.250   0.357
43049W        W 2310  44.894  11.682   1.339
43050W        W 2311   2.456  14.236   3.645
43051W        W 2312  22.726  17.794  13.000
43052W        W 2313   5.269  41.946   0.828
43053W        W 2314  37.504  40.892   3.230
43054W        W 2315  18.790  13.693   0.483
43055W        W 2316   3.224  31.445  14.302
43056W        W 2317  16.632   0.375  14.460
43057W        W 2318  42.959   5.727  10.470
43058W        W 2319  26.667  38.880   1.313
43059W        W 2320  15.308  20.533   4.622
43060W        W 2321   0.353  14.139  13.944
43061W        W 2322   9.694  12.626   0.316
43062W        W 2323   4.885  16.757  12.980
43063W        W 2324  31.111  21.553  13.934
43064W        W 2325   3.898  18.718   0.934
43065W        W 2326  31.415   5.215   2.831
43066W        W 2327  20.657  21.021  12.920
43067W        W 2328  17.616  16.576   5.655
43068W        W 2329  37.061   8.709  11.380
43069W        W 2330  33.945  14.169  11.395
43070W        W 2331  32.021  28.032   1.835
43071W        W 2332   0.859  30.921  12.863
43072W        W 2333  31.151  15.765   2.888
43073W        W 2334  23.558   5.377   2.781
43074W        W 2335  32.602  29.614   4.147
43075W        W 2336  12.309   8.732  13.896
43076W        W 2337  13.714   6.267   5.320
43077W        W 2338  13.118  10.758   0.402
43078W        W 2339  30.574  29.950   1.733
43079W        W 2340  32.557  25.019  11.117
43080W        W 2341  14.601  43.447  13.965
43081W        W 2342   9.882  39.034   2.797
43082W        W 2343  40.358  10.763   1.808
43083W        W 2344  34.604  37.415  12.553
43084W        W 2345  29.552  21.515   1.860
43085W        W 2346   5.273  25.131  12.347
43086W        W 2347  15.582  25.071  14.794
43087W        W 2348  44.960  26.614   1.799
43088W        W 2349  41.007  33.930   2.767
43089W        W 2350  26.958  22.169   0.851
43090W        W 2351  38.491  20.719   0.963
43091W        W 2352  24.551   2.747   0.879
43092W        W 2353  42.935  22.145  11.421
43093W        W 2354   4.823  41.415  14.367
43094W        W 2355  26.202  25.176   4.124
43095W        W 2356  39.375  38.356   2.270
43096W        W 2357  21.178  40.843  14.888
43097W        W 2358  19.147  27.661  12.845
43098W        W 2359  27.067  10.786   1.720
43099W        W 2360   5.352   8.659  12.825
43100W        W 2361  38.478  28.676   0.244
43101W        W 2362   1.463  36.928  13.808
43102W        W 2363  41.855  35.364  13.450
43103W        W 2364  14.707  22.652   3.275
43104W        W 2365  44.402  37.442  14.290
43105W        W 2366   9.687   9.881   3.817
43106W        W 2367  34.931  42.872  14.437
43107W        W 2368   3.254  26.160  13.423
43108W        W 2369   6.812  21.600   3.335
43109W        W 2370  37.487  10.283   0.443
43110W        W 2371  21.244   6.422   5.225
43111W        W 2372   7.366  35.983   2.743
43112W        W 2373  36.953   2.775  11.866
43113W        W 2374   0.922  18.274   3.197
43114W        W 2375  32.624  17.735   3.799
43115W        W 2376  40.850   1.355  14.766
43116W        W 2377  42.342  31.594  12.988
43117W        W 2378  17.138  27.523   0.879
43118W        W 2379  33.040  10.369   0.925
43119W        W 2380   1.287  22.216  13.378
43120W        W 2381  25.018  32.000  10.052
43121W        W 2382  27.941  40.883  11.558
43122W        W 2383  37.040  11.340  12.343
43123W        W 2384   4.842  10.218   3.840
43124W        W 2385  20.592  13.609   2.178
43125W        W 2386   6.727  10.215  14.850
43126W        W 2387  42.797   7.409  14.479
43127W        W 2388   7.177  25.663  14.025
43128W        W 2389   5.929   9.764   1.253
43129W        W 2390  36.466  14.223  12.433
43130W        W 2391  23.582  18.055  11.923
43131W        W 2392  25.485  18.600   4.838
43132W        W 2393  28.158   6.313   2.681
43133W        W 2394  17.565  30.144  11.858
43134W        W 2395  39.970  43.002   4.799
43135W        W 2396  23.134  19.634   3.310
43136W        W 2397  42.355  15.623   3.831
43137W        W 2398  34.520  26.984   0.919
43138W        W 2399  39.996  29.434  14.975
43139W        W 2400   9.376  34.612   2.818
43140W        W 2401  12.271   1.375  14.813
43141W        W 2402  13.820   6.839   0.847
43142W        W 2403   9.278  26.515   3.162
43143W        W 2404   9.881  43.895  14.349
43144W        W 2405  37.525  25.679  13.520
43145W        W 2406   2.301  11.265  14.951
43146W        W 2407  39.945   5.886   2.839
43147W        W 2408  23.721   1.353   3.793
43148W        W 2409  22.144  24.191   0.806
43149W        W 2410  41.841  37.489  13.449
43150W        W 2411  29.571   9.200  10.921
43151W        W 2412  27.470  39.825   1.830
43152W        W 2413  44.811  15.753  11.112
43153W        W 2414  41.412   7.890  11.988
43154W        W 2415  35.934  30.120   2.717
43155W        W 2416  14.752  36.010  12.522
43156W        W 2417  21.124   0.385  13.033
43157W        W 2418  19.277  43.986   3.250
43158W        W 2419  39.477   5.266  11.979
43159W        W 2420  27.981  16.120   3.685
43160W        W 2421  29.142  11.227  12.482
43161W        W 2422  30.080   3.916  12.536
43162W        W 2423  16.220  25.471   1.886
43163W        W 2424  16.098   2.889  13.337
43164W        W 2425   6.208  21.133  12.071
43165W        W 2426  17.568  18.105   0.332
43166W        W 2427  37.046  40.353  14.401
43167W        W 2428  24.647  12.219  14.770
43168W        W 2429  32.588   2.881  13.513
43169W        W 2430  27.016  19.064  10.436
43170W        W 2431   5.805  29.661  10.420
43171W        W 2432   6.754  42.318  11.437
43172W        W 2433  34.459  20.195   1.413
43173W        W 2434  24.190  15.721  11.123
43174W        W 2435  21.023  40.339  14.897
43175W        W 2436  43.807   3.757   1.776
43176W        W 2437  18.597  27.663   4.813
43177W        W 2438  28.610   7.318  11.977
43178W        W 2439  36.529   7.817   2.866
43179W        W 2440  36.973   8.746  10.092
43180W        W 2441  23.693  12.667  12.839
43181W        W 2442  36.368  39.919   4.123
43182W        W 2443  13.695  24.974   3.864
43183W        W 2444  37.968   1.902  13.441
43184W        W 2445  42.977  28.594  13.955
43185W        W 2446  38.495  40.822  12.025
43186W        W 2447   2.723  35.424   0.945
43187W        W 2448  32.138  34.107   0.468
43188W        W 2449  39.393  34.425   2.765
43189W        W 2450   2.806  32.002   4.255
43190W        W 2451  34.118   0.466   1.857
43191W        W 2452  21.205  12.833  12.427
43192W        W 2453  11.781  43.005  12.867
43193W        W 2454   6.426  32.010  13.046
43194W        W 2455  34.487  29.129  14.944
43195W        W 2456  21.039  38.928   1.322
43196W        W 2457  12.635  21.129   1.273
43197W        W 2458  14.699  18.687  12.891
43198W        W 2459  24.559  35.434   4.348
43199W        W 2460   3.321  43.821  12.553
43200W        W 2461  38.849   6.751  13.902
43201W        W 2462  10.745   7.748  10.454
43202W        W 2463  31.115  15.148  12.850
43203W        W 2464  36.017  24.605   4.693
43204W        W 2465   7.292  27.666   2.844
43205W        W 2466   0.745  41.791  10.895
43206W        W 2467  21.684  24.486   3.319
43207W        W 2468   4.850  26.035   0.848
43208W        W 2469   8.339   8.820  12.555
43209W        W 2470  37.871   3.428  12.350
43210W        W 2471   5.708  43.360   1.337
43211W        W 2472  18.160   2.360   2.772
43212W        W 2473  13.770  10.868  13.529
43213W        W 2474  14.186   2.752   0.454
43214W        W 2475  10.255  30.959  13.468
43215W        W 2476  38.077  10.680   2.809
43216W        W 2477  37.077  18.230   0.275
43217W        W 2478   0.308  32.594  13.932
43218W        W 2479   7.792  34.036  11.422
43219W        W 2480   1.754  43.989  11.877
43220W        W 2481  36.565  11.695  11.988
43221W        W 2482  40.851  32.037   2.735
43222W        W 2483  16.092  38.958  11.077
43223W        W 2484  30.510  39.435   0.763
43224W        W 2485  12.350  36.529   1.362
43225W        W 2486  44.281  36.404  13.477
43226W        W 2487  16.174   1.790   2.335
43227W        W 2488  29.487  18.115  13.429
43228W        W 2489   2.417  29.453   0.333
43229W        W 2490  42.904  26.681  10.014
43230W        W 2491  29.542   1.867  13.807
43231W        W 2492  38.552  35.910  12.926
43232W        W 2493  11.852  23.647   0.798
43233W        W 2494  39.370   5.692   0.461
43234W        W 2495  22.053  33.908  14.439
43235W        W 2496  36.516   0.968   4.294
43236W        W 2497  23.129  34.470   3.254
43237W        W 2498   0.279  19.744   4.221
43238W        W 2499  39.493  34.583   3.706
43239W        W 2500  40.968  11.334   4.246
43240W        W 2501  22.226  31.937  10.481
43241W        W 2502  38.439   0.827   0.283
43242W        W 2503   0.292  10.765   0.906
43243W        W 2504  25.056  37.941   3.719
43244W        W 2505  33.001  22.054  12.524
43245W        W 2506  20.614  39.440  11.049
43246W        W 2507  26.113  17.592   4.710
43247W        W 2508  30.949  26.659   3.753
43248W        W 2509  31.596  18.634  12.898
43249W        W 2510  33.100  26.642  12.877
43250W        W 2511  18.560  15.800  12.073
43251W        W 2512  20.701  30.008  13.498
43252W        W 2513  42.921  21.700   4.601
43253W        W 2514  36.974  13.620   3.862
43254W        W 2515  34.424  32.390   0.828
43255W        W 2516  30.126  31.941  10.645
43256W        W 2517  14.262  17.224  10.471
43257W        W 2518   0.415   2.766  12.827
43258W        W 2519  30.501  38.484   4.621
43259W        W 2520  21.647  10.255   3.726
43260W        W 2521   7.764  34.966   5.297
43261W        W 2522  17.633  18.732  13.900
43262W        W 2523  34.613  16.737  14.494
43263W        W 2524   5.380  26.066   2.796
43264W        W 2525  41.990  25.484  13.878
43265W        W 2526  17.118  12.319   0.738
43266W        W 2527  27.514  25.478  14.894
43267W        W 2528  22.170   2.754   3.714
43268W        W 2529  26.639   9.358   5.250
43269W        W 2530  27.566   7.213   1.218
43270W        W 2531   4.912  34.974  14.024
43271W        W 2532   3.233  37.038  10.520
43272W        W 2533   8.860   0.359  11.533
43273W        W 2534  29.047  38.964   0.255
43274W        W 2535  35.369   2.958  13.885
43275W        W 2536  29.576   1.941   4.640
43276W        W 2537  38.852  33.128  14.799
43277W        W 2538  29.041  31.954   1.893
43278W        W 2539  12.173  24.016  10.634
43279W        W 2540  10.724  29.935  10.985
43280W        W 2541   7.189  22.535  12.568
43281W        W 2542   9.707   0.375   4.189
43282W        W 2543  37.395  39.012  11.879
43283W        W 2544  17.610  43.940   3.729
43284W        W 2545  43.335  26.072  14.332
43285W        W 2546  18.769  24.988   2.693
43286W        W 2547   8.353  19.196   0.465
43287W        W 2548  34.957  34.089  11.556
43288W        W 2549   3.811  21.574  12.500
43289W        W 2550  23.681  14.721  14.775
43290W        W 2551   3.745   0.433   0.828
43291W        W 2552  42.338  22.575  13.434
43292W        W 2553  16.091  13.786  12.441
43293W        W 2554   1.889  25.161  12.558
43294W        W 2555  22.559  36.593  14.493
43295W        W 2556  39.042  41.329   3.151
43296W        W 2557   0.325   2.256   2.873
43297W        W 2558  23.241  18.139  14.300
43298W        W 2559   2.787  22.609   1.369
43299W        W 2560   6.918  11.755   4.607
43300W        W 2561  32.540  16.112  11.478
43301W        W 2562  19.141  34.553   4.734
43302W        W 2563   7.215  19.547   4.604
43303W        W 2564   0.446  16.143  14.465
43304W        W 2565  35.449   6.195  12.952
43305W        W 2566  30.157  18.586  12.360
43306W        W 2567  29.469  33.907  10.440
43307W        W 2568  42.891  33.985  14.826
43308W        W 2569   8.672  37.005   0.371
43309W        W 2570  39.823  30.127  13.429
43310W        W 2571   8.379   7.676   1.723
43311W        W 2572  15.223  13.156   0.341
43312W        W 2573   0.467  28.128  13.793
43313W        W 2574   2.779   6.215   2.379
43314W        W 2575  36.405  37.354   1.275
43315W        W 2576   4.235  23.023  12.983
43316W        W 2577  38.415  16.111  13.334
43317W        W 2578  30.658   7.394  13.064
43318W        W 2579  27.683  37.861   2.291
43319W        W 2580  33.959  37.581   2.832
43320W        W 2581   8.689  22.042   4.201
43321W        W 2582   2.772  27.016   3.736
43322W        W 2583  42.482   2.272   2.258
43323W        W 2584  24.661   4.435  13.029
43324W        W 2585  18.643  17.221  11.591
43325W        W 2586  35.466  43.439  13.932
43326W        W 2587  42.414  24.226   1.814
43327W        W 2588  24.002  17.624   1.913
43328W        W 2589  34.433  29.937   1.789
43329W        W 2590   1.359  43.963   1.820
43330W        W 2591  40.425  24.030  13.828
43331W        W 2592  12.269  42.907   3.870
43332W        W 2593   2.273  36.413  14.367
43333W        W 2594  12.158   6.799   0.314
43334W        W 2595   3.932   0.834   1.371
43335W        W 2596   5.317  37.949   1.922
43336W        W 2597   8.167  33.087   3.214
43337W        W 2598  24.978  10.348  12.546
43338W        W 2599   3.283   2.348   5.145
43339W        W 2600  33.504  30.596   0.309
43340W        W 2601  11.851  32.412  13.847
43341W        W 2602  35.468  24.020  14.470
43342W        W 2603  11.263  20.658   2.385
43343W        W 2604  26.012   8.806   2.293
43344W        W 2605  13.699  13.735  10.955
43345W        W 2606  15.602  16.104  14.766
43346W        W 2607  32.631  33.427   0.936
43347W        W 2608  43.967  33.131   3.147
43348W        W 2609  19.752  26.621  11.554
43349W        W 2610  37.012   8.885   0.853
43350W        W 2611  20.566  28.543   3.220
43351W        W 2612  44.313  21.627   1.865
43352W        W 2613  41.945  34.420  11.520
43353W        W 2614  39.030   8.879   0.469
43354W        W 2615  11.721  23.044   3.203
43355W        W 2616  17.692  21.079  11.127
43356W        W 2617  39.509  28.181   0.770
43357W        W 2618  29.544  33.380   5.164
43358W        W 2619  37.460   4.879   5.313
43359W        W 2620  38.883   2.938  13.317
43360W        W 2621  36.515  18.192   4.666
43361W        W 2622  27.660  34.865   4.209
43362W        W 2623  20.048   8.735   2.385
43363W        W 2624  25.528  16.231  12.572
43364W        W 2625  11.135  20.190  12.958
43365W        W 2626  39.955  26.009   2.766
43366W        W 2627  19.615  23.181  14.455
43367W        W 2628  18.671  22.707   0.898
43368W        W 2629   6.795  39.436   3.758
43369W        W 2630  23.585   0.377  13.517
43370W        W 2631  41.533  21.577   3.336
43371W        W 2632  24.171  41.397   3.685
43372W        W 2633  44.756  14.168   1.886
43373W        W 2634   2.316  31.096  11.547
43374W        W 2635   1.926   4.906   2.373
43375W        W 2636  11.353  17.237   4.781
43376W        W 2637  43.926  41.905   1.720
43377W        W 2638  32.396   8.844   3.231
43378W        W 2639  30.139  44.790  14.369
43379W        W 2640   3.246  10.697  11.413
43380W        W 2641  35.967   8.179   4.202
43381W        W 2642  43.886   2.389   2.384
43382W        W 2643  40.500  11.771  14.329
43383W        W 2644  21.692  19.772   0.348
43384W        W 2645  22.737  11.636   3.173
43385W        W 2646   8.377  37.847  11.971
43386W        W 2647  17.688  20.766  13.381
43387W        W 2648  32.997  13.325  10.452
43388W        W 2649   2.852  23.070   4.338
43389W        W 2650  36.525  11.776   1.907
43390W        W 2651  10.191   0.461  14.466
43391W        W 2652  39.032   6.735  13.547
43392W        W 2653   0.775  19.632   2.852
43393W        W 2654  14.727  36.007   0.438
43394W        W 2655  21.260  25.696   2.387
43395W        W 2656  36.060  12.802   0.958
43396W        W 2657  26.553  37.952   0.411
43397W        W 2658   8.211  37.565   4.704
43398W        W 2659  32.509  20.222   0.279
43399W        W 2660  24.031  10.642  14.302
43400W        W 2661  23.636  28.002  12.580
43401W        W 2662  21.513  26.691  12.026
43402W        W 2663  35.398   4.863   0.792
43403W        W 2664   2.751   8.343  14.814
43404W        W 2665   2.464  12.137   1.323
43405W        W 2666  42.360   8.380   1.247
43406W        W 2667  31.476   1.238  14.427
43407W        W 2668   8.683  12.337  12.932
43408W        W 2669   5.230  31.639   4.634
43409W        W 2670  42.781  30.413  10.545
43410W        W 2671  15.113  35.085  14.763
43411W        W 2672  23.664  28.123  14.766
43412W        W 2673  34.867  39.954   3.870
43413W        W 2674  43.865  18.713   2.796
43414W        W 2675  40.874  32.565   2.794
43415W        W 2676  24.501  18.220   4.760
43416W        W 2677  23.162  25.032  13.803
43417W        W 2678  31.977  15.676   0.798
43418W        W 2679  35.452  37.038  14.472
43419W        W 2680  36.522   3.905  13.954
43420W        W 2681  17.617  25.116   0.403
43421W        W 2682  41.866  37.512  10.991
43422W        W 2683  22.653  13.236  10.601
43423W        W 2684   4.318   5.934   3.324
43424W        W 2685   7.777  16.113   3.842
43425W        W 2686  21.152  30.417   3.337
43426W        W 2687  20.153  14.745   2.756
43427W        W 2688  41.802  13.685  13.926
43428W        W 2689  42.291  43.882  12.391
43429W        W 2690  19.284  42.455  13.421
43430W        W 2691  43.409   7.367   1.284
43431W        W 2692  32.505  29.981   3.661
43432W        W 2693   1.890   4.775   1.837
43433W        W 2694  21.022  15.660   0.449
43434W        W 2695   3.400  34.877  11.446
43435W        W 2696  34.093  25.666   1.826
43436W        W 2697  18.633  17.120   2.739
43437W        W 2698  40.974  29.031  10.953
43438W        W 2699  22.658  21.578  13.383
43439W        W 2700  17.629   2.368  12.967
43440W        W 2701  38.926  11.768   3.291
43441W        W 2702  41.367  31.131  14.486
43442W        W 2703  25.714  23.009  12.944
43443W        W 2704  44.279  35.048  13.823
43444W        W 2705  32.565  41.439  10.411
43445W        W 2706   9.240   0.809   0.749
43446W        W 2707  20.726  19.594   3.840
43447W        W 2708  22.068  13.606   3.728
43448W        W 2709  35.942  18.701   3.156
43449W        W 2710  38.953   2.921   1.281
43450W        W 2711  27.944   9.751   4.121
43451W        W 2712  31.530   3.937  13.809
43452W        W 2713  37.554  14.735   2.238
43453W        W 2714  11.644   2.902   1.264
43454W        W 2715  19.677  11.283   0.307
43455W        W 2716   8.224  17.686  10.590
43456W        W 2717   0.280   9.713  12.989
43457W        W 2718  34.116   9.379   0.454
43458W        W 2719  26.054   5.297  11.496
43459W        W 2720  17.563  28.113  14.475
43460W        W 2721  30.482  33.048   3.254
43461W        W 2722  35.013  30.024  10.592
43462W        W 2723   2.340  22.172   2.860
43463W        W 2724  43.974  28.968  10.936
43464W        W 2725  11.325   0.296  14.878
43465W        W 2726  29.660  39.844   2.695
43466W        W 2727  28.537  41.002  12.505
43467W        W 2728  20.740  27.102  14.843
43468W        W 2729  37.526  14.749   4.350
43469W        W 2730  42.996  25.100  13.918
43470W        W 2731   9.808   7.240   3.725
43471W        W 2732  33.503  35.098   4.621
43472W        W 2733   7.245   5.735   1.875
43473W        W 2734  32.523   8.208  13.877
43474W        W 2735   0.783  43.926  14.361
43475W        W 2736   9.215  41.415   4.673
43476W        W 2737  44.989  32.552  12.439
43477W        W 2738  14.821   6.235  14.963
43478W        W 2739  16.706   4.427   2.192
43479W        W 2740   0.490   4.241  14.966
43480W        W 2741  10.173  25.206   4.806
43481W        W 2742  24.575  40.000   4.354
43482W        W 2743   9.779   8.166  10.574
43483W        W 2744  37.390  36.877   2.748
43484W        W 2745  24.999  37.356   1.430
43485W        W 2746  14.305   2.752  12.885
43486W        W 2747  10.260  43.975  14.404
43487W        W 2748  44.998  17.200   1.222
43488W        W 2749  16.583  20.575   1.824
43489W        W 2750  18.652  38.356   3.646
43490W        W 2751  17.739  11.339   0.396
43491W        W 2752  13.301  17.721  11.106
43492W        W 2753  21.745  27.159   3.210
43493W        W 2754  39.873  41.502   2.363
43494W        W 2755  38.507  43.783   2.238
43495W        W 2756  12.220  26.983  11.064
43496W        W 2757   8.304  24.553   3.781
43497W        W 2758  14.100  28.517  14.778
43498W        W 2759  42.013  21.121  11.953
43499W        W 2760   5.739  31.011   4.316
43500W        W 2761  41.033  14.119  11.449
43501W        W 2762  38.824   1.867  12.062
43502W        W 2763   8.313  16.576  12.904
43503W        W 2764  24.517   5.762   2.285
43504W        W 2765  15.815   6.713   2.886
43505W        W 2766  15.269  24.095   0.770
43506W        W 2767  42.417  42.285   3.641
43507W        W 2768  34.935  11.326   3.203
43508W        W 2769  39.821  19.541   0.753
43509W        W 2770  35.362  28.669   2.725
43510W        W 2771  41.842  43.494   3.214
43511W        W 2772   7.255  21.074   2.201
43512W        W 2773  20.041  11.765   3.817
43513W        W 2774  31.565  17.159  12.941
43514W        W 2775   9.867  39.519  14.456
43515W        W 2776   1.838   3.284   1.211
43516W        W 2777   0.906  40.343   2.259
43517W        W 2778   2.833  20.096  11.502
43518W        W 2779  43.401   0.392   4.661
43519W        W 2780  40.988   7.358  13.307
43520W        W 2781   0.332  22.616   3.735
43521W        W 2782  28.551  32.485   4.800
43522W        W 2783  27.046  44.837   9.599
43523W        W 2784  24.216   3.227  10.565
43524W        W 2785  34.002  37.409   1.908
43525W        W 2786   6.684  33.405   2.683
43526W        W 2787  15.815  29.109  11.488
43527W        W 2788  44.439  35.039  10.964
43528W        W 2789  41.895  42.976  14.508
43529W        W 2790  43.853  26.698  13.335
43530W        W 2791  12.119  30.058  14.847
43531W        W 2792  28.045  15.709  11.479
43532W        W 2793  21.718  36.516  13.895
43533W        W 2794  34.559  17.072   1.868
43534W        W 2795  36.551   7.870  14.971
43535W        W 2796   3.712   1.418  12.559
43536W        W 2797  42.474   1.236   1.879
43537W        W 2798   5.275  26.481   0.290
43538W        W 2799  41.024  15.804  14.417
43539W        W 2800   7.320   2.824  13.405
43540W        W 2801  11.168  15.203  14.802
43541W        W 2802  11.246  17.600  14.400
43542W        W 2803  30.081  29.142  13.008
43543W        W 2804  16.783  14.710  13.314
43544W        W 2805  23.533   7.273  14.025
43545W        W 2806   5.280  11.678  13.040
43546W        W 2807  18.577  21.122  13.926
43547W        W 2808  42.419  24.621   2.730
43548W        W 2809  26.541  21.634   2.827
43549W        W 2810  34.878  10.291  13.357
43550W        W 2811  39.961  30.557  13.482
43551W        W 2812   7.195  33.539  10.628
43552W        W 2813   0.858  17.740  14.319
43553W        W 2814   1.468  39.047   3.378
43554W        W 2815  33.491  12.352   2.892
43555W        W 2816  16.756  39.910   0.470
43556W        W 2817  36.059  20.116   4.266
43557W        W 2818  34.531   1.370  14.332
43558W        W 2819  22.110  12.838  10.437
43559W        W 2820  44.497  34.032  12.549
43560W        W 2821   9.864   9.156  14.933
43561W        W 2822  17.280  23.190  12.507
43562W        W 2823  44.413  27.620   4.779
43563W        W 2824  26.697   1.288   3.643
43564W        W 2825  12.739  15.217   2.856
43565W        W 2826  23.044  29.971  14.778
43566W        W 2827  25.057  35.470  12.980
43567W        W 2828   9.854  19.238  11.927
43568W        W 2829  21.108  30.128   0.327
43569W        W 2830   5.432   5.771  12.009
43570W        W 2831  26.970  11.206  14.807
43571W        W 2832  31.099  41.885   1.285
43572W        W 2833  25.109  11.731  14.452
43573W        W 2834  11.164  11.774   2.722
43574W        W 2835  23.129  29.541   4.307
43575W        W 2836  38.868  43.281   4.309
43576W        W 2837  18.735   8.391  13.034
43577W        W 2838  11.732  44.933  10.929
43578W        W 2839  24.225  15.689   4.798
43579W        W 2840   2.943  13.337   4.164
43580W        W 2841  25.566  42.315  13.922
43581W        W 2842  29.559   1.285  13.040
43582W        W 2843  37.844  23.047   0.874
43583W        W 2844  12.617  44.777   2.809
43584W        W 2845   5.925   0.870   2.887
43585W        W 2846  34.033  43.836   2.731
43586W        W 2847  28.043  24.520  12.072
43587W        W 2848  23.652   6.807   4.730
43588W        W 2849  34.101  28.528  11.024
43589W        W 2850  38.508  20.046   0.810
43590W        W 2851  29.639  22.575  14.884
43591W        W 2852   7.813   7.859  14.339
43592W        W 2853  17.608  42.468   3.818
43593W        W 2854  19.543  33.527  14.493
43594W        W 2855  34.481  34.993  14.792
43595W        W 2856   1.773  41.517   3.325
43596W        W 2857  31.134  15.135  13.340
43597W        W 2858   8.837   4.416   0.421
43598W        W 2859  17.602  42.500  11.893
43599W        W 2860  23.132   5.752  13.371
43600W        W 2861  43.930  14.145   0.938
43601W        W 2862   3.745  18.061   4.331
43602W        W 2863  41.489  17.217   3.185
43603W        W 2864   6.807  10.210  10.561
43604W        W 2865   4.829  35.860  12.933
43605W        W 2866  24.090  14.769  11.003
43606W        W 2867  26.061  26.172   2.352
43607W        W 2868  44.897  10.299   4.114
43608W        W 2869  30.089  32.992  14.020
43609W        W 2870  37.463  17.206   1.274
43610W        W 2871  20.627  43.389  13.367
43611W        W 2872   1.290  42.364  14.018
43612W        W 2873  42.437  25.709   1.431
43613W        W 2874  36.586  37.570   4.646
43614W        W 2875  42.423  29.502  12.353
43615W        W 2876   4.825  21.512  11.033
43616W        W 2877  22.154  27.157  13.933
43617W        W 2878   0.960   6.890  14.759
43618W        W 2879  39.815  14.118  12.066
43619W        W 2880  31.480  38.533  11.577
43620W        W 2881  26.501   8.749  10.889
43621W        W 2882  13.807   1.461  13.380
43622W        W 2883  29.506  42.519   0.265
43623W        W 2884  24.073  27.484  13.370
43624W        W 2885   0.948   7.356   1.860
43625W        W 2886  19.590  15.774  14.924
43626W        W 2887  38.452  13.657   1.377
43627W        W 2888   3.391  15.602  11.094
43628W        W 2889   5.227  36.022   2.880
43629W        W 2890  16.095  33.425  10.486
43630W        W 2891  33.455  41.016  13.455
43631W        W 2892  19.154  35.472   1.262
43632W        W 2893  33.625  43.393  13.343
43633W        W 2894  33.464   0.753   3.817
43634W        W 2895  19.737  29.590   9.945
43635W        W 2896  44.893  31.110   1.792
43636W        W 2897  43.449   8.232  12.559
43637W        W 2898   9.846   9.792   1.929
43638W        W 2899  28.557   9.699   1.224
43639W        W 2900   2.761  38.876   2.240
43640W        W 2901  34.968  43.960  14.919
43641W        W 2902  31.431   1.754   0.422
43642W        W 2903   6.283   5.309  14.363
43643W        W 2904  14.619  32.490   1.286
43644W        W 2905  15.727  24.124   0.907
43645W        W 2906  24.036  21.637  12.455
43646W        W 2907  10.154  32.508   2.247
43647W        W 2908   5.758  15.786   1.850
43648W        W 2909  18.137  18.067   5.294
43649W        W 2910  22.697  44.816   4.717
43650W        W 2911  35.913  14.787  14.508
43651W        W 2912  14.751   0.815  14.296
43652W        W 2913   9.769  12.357  12.859
43653W        W 2914  28.969   7.296   1.249
43654W        W 2915   5.690  33.062  10.594
43655W        W 2916   8.878  30.469   9.937
43656W        W 2917  18.688  22.682  10.625
43657W        W 2918  14.238  28.440   0.864
43658W        W 2919  19.612  17.687  11.927
43659W        W 2920  40.537  44.965  13.503
43660W        W 2921   1.935   4.840   2.666
43661W        W 2922  11.755   6.808   1.391
43662W        W 2923  44.895  28.664  13.792
43663W        W 2924  15.088   8.871  12.941
43664W        W 2925   1.905  33.466   3.718
43665W        W 2926  22.108  12.134  13.936
43666W        W 2927  44.293  19.210  12.434
43667W        W 2928   1.794   7.299  14.847
43668W        W 2929  37.951   9.890   3.837
43669W        W 2930  12.241  15.143  12.474
43670W        W 2931  27.052   8.197   2.675
43671W        W 2932   3.352   8.721   2.195
43672W        W 2933  22.613   1.842   3.283
43673W        W 2934  33.112  26.488  11.530
43674W        W 2935  16.658   6.885  13.541
43675W        W 2936  29.561   3.739  12.956
43676W        W 2937   1.382  35.428  12.861
43677W        W 2938  31.112  34.445  13.924
43678W        W 2939  39.035  35.512   1.287
43679W        W 2940   7.210  21.673  12.837
43680W        W 2941  32.495  33.974   4.229
43681W        W 2942   8.666  19.044   2.848
43682W        W 2943  21.170  32.512   1.729
43683W        W 2944  24.641  34.414  12.513
43684W        W 2945  29.940  18.606  11.530
43685W        W 2946  31.591  10.244   4.152
43686W        W 2947  34.947  40.303   1.905
43687W        W 2948  15.279  17.797  14.994
43688W        W 2949  21.162  15.140  14.405
43689W        W 2950  11.849  21.642  13.495
43690W        W 2951  10.235  25.476  13.382
43691W        W 2952  21.107  32.924   2.239
43692W        W 2953  20.643  18.274   2.409
43693W        W 2954  33.920  35.430  11.856
43694W        W 2955  25.012  40.997  10.552
43695W        W 2956  11.204  29.504   0.419
43696W        W 2957  39.379  43.436   1.329
43697W        W 2958  28.989   4.789   4.163
43698W        W 2959   4.814  41.354  11.113
43699W        W 2960  43.372  26.053   5.600
43700W        W 2961   1.362   8.254  10.543
43701W        W 2962  19.080  40.334  13.986
43702W        W 2963  40.000  28.158  12.560
43703W        W 2964  20.116  12.254   2.774
43704W        W 2965  43.389  37.518   0.269
43705W        W 2966  10.866  42.933  14.026
43706W        W 2967   1.447   4.292  14.963
43707W        W 2968  28.959  39.515   2.270
43708W        W 2969  29.645  33.511   1.381
43709W        W 2970  11.229  28.663  12.834
43710W        W 2971   8.359  37.970  10.957
43711W        W 2972  40.801  27.166  11.586
43712W        W 2973  42.394  39.857   2.897
43713W        W 2974  38.388  32.610   3.702
43714W        W 2975  44.829  13.322   0.441
43715W        W 2976   0.929  38.483  11.060
43716W        W 2977  34.482  20.582   4.125
43717W        W 2978  35.401  40.364   0.277
43718W        W 2979  26.064   1.255   0.847
43719W        W 2980   6.801  28.085   0.250
43720W        W 2981  27.104  37.959  12.027
43721W        W 2982  23.171  37.424   2.779
43722W        W 2983  31.638   2.835   4.157
43723W        W 2984   6.895  11.267   3.636
43724W        W 2985   1.334   9.339   4.638
43725W        W 2986   6.704   5.888  11.435
43726W        W 2987  13.778  25.617   5.122
43727W        W 2988  13.280  26.090  13.370
43728W        W 2989  24.110   9.268   2.217
43729W        W 2990  36.857  42.505  10.525
43730W        W 2991   3.752  25.098   5.321
43731W        W 2992  17.609  32.931   1.281
43732W        W 2993  22.626  36.582   3.725
43733W        W 2994  28.556  19.583  14.279
43734W        W 2995  12.289   5.889  10.999
43735W        W 2996  20.218  39.315  10.574
43736W        W 2997  15.710  15.590   1.323
43737W        W 2998  13.775  22.112  13.894
43738W        W 2999   0.295  43.444   3.758
43739W        W 3000  38.870   4.347  14.327
43740W        W 3001  35.486  35.471   4.259
43741W        W 3002  18.757  14.295  10.436
43742W        W 3003  30.485  23.529   1.706
43743W        W 3004  12.116  16.734   4.232
43744W        W 3005  15.637   3.823   3.845
43745W        W 3006  14.638   6.193  14.294
43746W        W 3007   2.808   2.790  12.874
43747W        W 3008  27.479  42.428  14.479
43748W        W 3009  42.926  41.856  14.358
43749W        W 3010   3.220  27.626  11.530
43750W        W 3011  11.860   5.712   3.236
43751W        W 3012  30.151  29.168  13.946
43752W        W 3013  44.339  22.678   3.769
43753W        W 3014  20.189   6.193  14.820
43754W        W 3015  25.981   4.351  12.503
43755W        W 3016  19.690   2.940   2.731
43756W        W 3017   3.829   3.881   4.204
43757W        W 3018  11.656   9.691   2.683
43758W        W 3019   0.433  20.256   4.603
43759W        W 3020  40.312  15.251   4.236
43760W        W 3021   2.750  44.477  13.051
43761W        W 3022  25.576  30.073  14.350
43762W        W 3023  18.625   0.485   3.211
43763W        W 3024   9.777  21.530   0.848
43764W        W 3025  33.441   9.391  12.544
43765W        W 3026  17.077  44.004   4.352
43766W        W 3027  12.696  37.859  12.862
43767W        W 3028  30.590  35.894   2.822
43768W        W 3029   6.279  39.548   3.223
43769W        W 3030  40.975  11.290  13.393
43770W        W 3031  36.855   8.303  14.279
43771W        W 3032  30.533  30.526  13.496
43772W        W 3033  26.968  21.076  11.078
43773W        W 3034  32.390  38.015   4.632
43774W        W 3035  20.587  19.146  14.892
43775W        W 3036  21.261  15.138  10.956
43776W        W 3037   2.836  14.132   0.265
43777W        W 3038  22.065  17.579  14.806
43778W        W 3039   6.760  16.779   3.746
43779W        W 3040  18.596   9.855   3.256
43780W        W 3041  19.144   3.353   3.787
43781W        W 3042  30.097  15.814  10.415
43782W        W 3043   1.739   0.792  11.410
43783W        W 3044  20.699  20.651   2.815
43784W        W 3045  39.430   5.280   0.878
43785W        W 3046  16.610  11.795  12.013
43786W        W 3047  37.860  32.941  12.503
43787W        W 3048  25.525  43.463  12.550
43788W        W 3049   8.403   4.335   1.272
43789W        W 3050   1.433  18.575  12.393
43790W        W 3051  29.035   4.773   2.233
43791W        W 3052  13.732  43.966  10.988
43792W        W 3053  44.497  33.070  13.993
43793W        W 3054   3.234  41.979  13.853
43794W        W 3055  20.048  11.271  14.919
43795W        W 3056  27.999  27.619  11.547
43796W        W 3057  25.515  29.991  13.028
43797W        W 3058  14.700   9.812   3.386
43798W        W 3059  33.405   9.890   0.962
43799W        W 3060  38.957   9.741   2.894
43800W        W 3061  34.107   4.801   0.750
43801W        W 3062   6.289   3.807   2.851
43802W        W 3063  35.514  23.681  11.118
43803W        W 3064  39.000  21.563   4.797
43804W        W 3065  23.989   2.882   1.847
43805W        W 3066  42.309  28.183  11.113
43806W        W 3067  14.205  15.095   1.779
43807W        W 3068  10.815  10.675   1.406
43808W        W 3069  17.781  41.365  13.928
43809W        W 3070  27.990   0.299  12.554
43810W        W 3071  14.125  22.127  14.383
43811W        W 3072  37.338  17.265  14.857
43812W        W 3073  38.963  34.529  13.996
43813W        W 3074  36.027  42.880   3.681
43814W        W 3075   7.359  33.099   3.255
43815W        W 3076   5.818  19.048   2.743
43816W        W 3077  43.339  41.418   5.286
43817W        W 3078   8.701  33.879   4.616
43818W        W 3079  17.086  25.010   1.326
43819W        W 3080   0.314  27.167   5.663
43820W        W 3081  20.636  23.197  13.354
43821W        W 3082  22.525  11.195   3.685
43822W        W 3083   0.347  24.984   3.827
43823W        W 3084   9.840   4.351  12.056
43824W        W 3085   6.679  30.971   4.301
43825W        W 3086  27.547  27.465  13.917
43826W        W 3087   0.770  23.707   0.362
43827W        W 3088   4.343  33.068   0.903
43828W        W 3089  26.579  37.878   1.256
43829W        W 3090  37.868  42.973  10.903
43830W        W 3091  36.973  41.906  14.969
43831W        W 3092   3.717   0.254   2.774
43832W        W 3093  37.942   3.228  14.376
43833W        W 3094  40.982  26.165  13.918
43834W        W 3095  13.345  28.634  14.411
43835W        W 3096  44.475  43.971   2.362
43836W        W 3097   5.217  24.649   1.768
43837W        W 3098  11.775  34.916   0.438
43838W        W 3099  43.874  43.325  10.476
43839W        W 3100   5.325  12.742   1.731
43840W        W 3101  37.358  20.563   0.404
43841W        W 3102   4.881  15.280   3.287
43842W        W 3103  18.613   6.421   3.726
43843W        W 3104  39.332  18.062   4.215
43844W        W 3105  43.438  44.287  10.535
43845W        W 3106  35.444  14.185  14.030
43846W        W 3107  23.079  40.368  14.407
43847W        W 3108  34.389  40.889  11.571
43848W        W 3109  22.716  28.099   1.252
43849W        W 3110  44.310  22.571  14.973
43850W        W 3111  24.478   9.686  10.989
43851W        W 3112  20.268  40.816  11.998
43852W        W 3113   5.868   6.254   0.380
43853W        W 3114  42.004  37.411   2.762
43854W        W 3115  11.759  21.530  13.903
43855W        W 3116  29.964  43.959  14.011
43856W        W 3117  28.082  23.108   1.392
43857W        W 3118  35.934  20.551  11.056
43858W        W 3119  13.139  38.046  14.884
43859W        W 3120  34.527  10.772   0.481
43860W        W 3121  26.551  17.575   4.186
43861W        W 3122  40.899  24.522   2.389
43862W        W 3123  43.294  34.964   0.814
43863W        W 3124   4.437   7.258   0.823
43864W        W 3125  32.602  25.533  11.082
43865W        W 3126  36.985  11.126  13.414
43866W        W 3127   1.325  21.602  13.929
43867W        W 3128   8.320   3.849   4.240
43868W        W 3129   5.422  22.111   4.808
43869W        W 3130  10.364  23.526   4.793
43870W        W 3131  24.568  43.009  14.354
43871W        W 3132  20.204   4.401   2.723
43872W        W 3133  25.105  29.488   1.895
43873W        W 3134  22.679   3.733   3.828
43874W        W 3135   2.350  32.397  13.857
43875W        W 3136  43.788  35.550   0.286
43876W        W 3137  39.930  33.613  13.475
43877W        W 3138  16.078  39.334  12.425
43878W        W 3139   1.440  35.882  14.317
43879W        W 3140  34.417  10.236  11.510
43880W        W 3141  27.111  15.685  12.978
43881W        W 3142   4.914  24.627  12.044
43882W        W 3143   3.390  11.690   0.835
43883W        W 3144  33.458  18.279   3.277
43884W        W 3145   9.304  25.966  11.063
43885W        W 3146  29.595  25.141   3.713
43886W        W 3147  44.989  27.576  10.992
43887W        W 3148  29.149  30.509   4.614
43888W        W 3149   1.362   8.876   2.342
43889W        W 3150  40.504   7.311  14.336
43890W        W 3151   8.185  32.924  10.410
43891W        W 3152  32.002  44.949   4.814
43892W        W 3153  23.583  27.530   2.724
43893W        W 3154  18.065  22.692  12.536
43894W        W 3155  25.711  36.948  14.777
43895W        W 3156  43.491  28.081   0.481
43896W        W 3157  42.010  14.143  12.827
43897W        W 3158   6.379   2.272   3.698
43898W        W 3159  20.270  27.642  13.841
43899W        W 3160   6.855  16.252   1.292
43900W        W 3161  43.406  25.539   9.557
43901W        W 3162  25.539   1.864  13.430
43902W        W 3163  43.771  44.823  13.371
43903W        W 3164  22.605  18.778   3.301
43904W        W 3165  25.048  34.033  14.365
43905W        W 3166  44.474  26.996  11.979
43906W        W 3167  23.623   7.904  13.453
43907W        W 3168   7.738  37.507   3.635
43908W        W 3169  20.592   0.413   0.258
43909W        W 3170  26.025  30.094  12.534
43910W        W 3171  11.784  31.553  14.497
43911W        W 3172   0.334  40.400  14.368
43912W        W 3173  40.995  41.427   3.856
43913W        W 3174   0.465  13.161   1.756
43914W        W 3175  21.258  29.652   5.239
43915W        W 3176  15.585  21.518   4.212
43916W        W 3177  10.224  23.219   0.838
43917W        W 3178  43.420  18.113  11.993
43918W        W 3179   1.352  40.898   3.306
43919W        W 3180  20.222  26.197  12.045
43920W        W 3181  21.589  36.960   1.408
43921W        W 3182   5.852  34.078  12.010
43922W        W 3183  19.716   5.918   3.280
43923W        W 3184  16.671  10.339   3.360
43924W        W 3185  21.626  21.157   1.929
43925W        W 3186  34.468  34.480  12.848
43926W        W 3187  18.245  27.626  13.839
43927W        W 3188  12.328  18.106   0.740
43928W        W 3189   1.882  35.380  11.976
43929W        W 3190  34.076  27.652  11.063
43930W        W 3191  28.151   8.861   2.417
43931W        W 3192  42.918   7.373  11.932
43932W        W 3193  33.130  18.242   1.862
43933W        W 3194  32.554  30.911  13.044
43934W        W 3195  16.615  37.340   2.838
43935W        W 3196   6.747  42.941  10.956
43936W        W 3197  11.165   3.296   0.456
43937W        W 3198  37.487  30.069  12.554
43938W        W 3199  44.302   3.850   0.456
43939W        W 3200   0.752   1.426   1.274
43940W        W 3201  29.514  26.040  14.795
43941W        W 3202  18.075  43.483   3.332
43942W        W 3203  11.787   3.812  14.494
43943W        W 3204   9.388  36.500   1.926
43944W        W 3205  40.516  37.952   2.896
43945W        W 3206   5.878   8.710   1.727
43946W        W 3207   9.824  22.650  14.896
43947W        W 3208   0.385  42.394   2.680
43948W        W 3209  24.547  23.626  14.286
43949W        W 3210  29.548  26.541   2.237
43950W        W 3211  27.127  26.529   4.349
43951W        W 3212  20.692   6.335   2.892
43952W        W 3213  32.024  34.568   0.767
43953W        W 3214  27.069  26.575  13.427
43954W        W 3215  20.551  23.022   1.218
43955W        W 3216   0.985   1.917   4.739
43956W        W 3217  37.448  15.688   3.347
43957W        W 3218  20.687  42.330   4.246
43958W        W 3219  15.593  21.600  10.530
43959W        W 3220  25.101  11.828   3.641
43960W        W 3221   1.469   4.395  11.127
43961W        W 3222   3.746   7.797  13.044
43962W        W 3223  28.453  10.829  12.027
43963W        W 3224   6.350  42.803  12.502
43964W        W 3225  18.632  13.701   3.720
43965W        W 3226  14.602  15.700   0.376
43966W        W 3227  29.968  18.208  13.867
43967W        W 3228  17.570  34.607   2.228
43968W        W 3229  27.093  21.618   2.247
43969W        W 3230  19.276   1.478   4.161
43970W        W 3231   1.385  31.898   4.741
43971W        W 3232  38.003  30.465  14.341
43972W        W 3233  41.373  39.452   2.789
43973W        W 3234  41.823  29.649  10.107
43974W        W 3235  44.403  10.674   3.704
43975W        W 3236  11.724  38.534   1.414
43976W        W 3237  35.513  26.631  12.347
43977W        W 3238  34.939  34.896   4.720
43978W        W 3239  24.618  36.529   1.932
43979W        W 3240   2.448  10.166   0.261
43980W        W 3241  16.629   8.765  12.893
43981W        W 3242   8.224  36.013  11.900
43982W        W 3243   2.945   6.875   2.368
43983W        W 3244  14.252  20.729   3.205
43984W        W 3245  18.204  34.574  12.520
43985W        W 3246  27.953   3.364   4.672
43986W        W 3247   7.865  38.857   5.245
43987W        W 3248  14.095  32.940  13.922
43988W        W 3249  32.929  36.020  11.579
43989W        W 3250  18.644  28.629   0.764
43990W        W 3251  16.735  27.940  11.534
43991W        W 3252  35.912   7.725   3.706
43992W        W 3253  13.326  30.965  11.883
43993W        W 3254  27.563  22.110  11.986
43994W        W 3255  31.134  31.595  12.904
43995W        W 3256  19.182  13.728   1.392
43996W        W 3257  18.767  32.942   3.387
43997W        W 3258  15.737  36.549  12.848
43998W        W 3259  33.478  27.530  14.804
43999W        W 3260  37.451  20.187  11.558
44000W        W 3261  13.160  38.475   0.418
44001W        W 3262  17.262  31.519  12.520
44002W        W 3263  34.572  17.789  14.783
44003W        W 3264  20.204  16.251   2.278
44004W        W 3265  36.393  41.412  10.416
44005W        W 3266  28.101   0.972   0.358
44006W        W 3267  42.846   9.767   2.771
44007W        W 3268  17.242  40.010   3.248
44008W        W 3269  38.904  36.502   0.750
44009W        W 3270  15.183   7.297  13.324
44010W        W 3271  31.999  40.907   2.361
44011W        W 3272  40.825  16.290  13.457
44012W        W 3273  17.610  24.693   4.218
44013W        W 3274   7.675  28.014  14.852
44014W        W 3275  14.748  29.465   0.961
44015W        W 3276   2.315  33.995  13.524
44016W        W 3277  22.169  11.262  11.863
44017W        W 3278  28.662   6.359   4.689
44018W        W 3279   1.374  42.886  11.086
44019W        W 3280  23.516   4.797   0.805
44020W        W 3281  30.947  15.578   1.366
44021W        W 3282  28.140  32.436  12.917
44022W        W 3283  21.248  12.244   0.748
44023W        W 3284  17.600  32.131   3.309
44024W        W 3285   8.843  35.420   0.419
44025W        W 3286  32.565  29.171   4.685
44026W        W 3287  31.084  39.426  13.458
44027W        W 3288  25.216  40.876  11.593
44028W        W 3289  42.310  20.677  13.956
44029W        W 3290   6.897  17.151  13.490
44030W        W 3291   4.351  42.477  12.558
44031W        W 3292  33.045  30.633   2.827
44032W        W 3293   6.807  18.075   1.762
44033W        W 3294  32.416  19.666   3.722
44034W        W 3295  27.160  11.828   1.806
44035W        W 3296  41.803   8.347   3.216
44036W        W 3297  33.384  30.602  14.361
44037W        W 3298  30.079   9.395   0.961
44038W        W 3299   1.353   3.454  11.952
44039W        W 3300   4.355  24.069   2.873
44040W        W 3301   7.416  22.031   2.183
44041W        W 3302  29.937  10.354  11.465
44042W        W 3303  37.874  34.941   5.664
44043W        W 3304  10.686   9.170   3.216
44044W        W 3305  36.924  40.451   2.367
44045W        W 3306   5.765   0.330  11.511
44046W        W 3307  43.498  21.627   0.430
44047W        W 3308  18.707  15.244   1.801
44048W        W 3309   0.304  41.819  14.895
44049W        W 3310   4.830  39.529  12.985
44050W        W 3311   6.247  28.675   1.829
44051W        W 3312  11.658  15.187   1.383
44052W        W 3313   7.832  18.117   1.242
44053W        W 3314   6.290  14.126  14.891
44054W        W 3315  17.708  36.557  10.550
44055W        W 3316  23.179   4.751  11.094
44056W        W 3317   6.183  25.976   3.655
44057W        W 3318  20.043  40.342   0.937
44058W        W 3319   2.424  10.799   0.961
44059W        W 3320  25.646  35.550  11.085
44060W        W 3321   4.379   4.899   1.293
44061W        W 3322   4.263  34.494   4.620
44062W        W 3323   0.369  40.883  10.636
44063W        W 3324   3.726  32.907   4.836
44064W        W 3325  21.197  41.997   0.736
44065W        W 3326  18.692  19.724  14.813
44066W        W 3327  31.563  42.476   4.766
44067W        W 3328  35.097  10.700   1.888
44068W        W 3329  42.858  43.829  11.429
44069W        W 3330   1.452   2.278   4.320
44070W        W 3331  16.160   7.271   0.305
44071W        W 3332  18.171  11.308  13.485
44072W        W 3333  20.037  25.076   2.728
44073W        W 3334  25.081   6.266   1.918
44074W        W 3335  28.012   5.394  12.403
44075W        W 3336   0.430  34.928   4.296
44076W        W 3337   2.367  18.197  12.035
44077W        W 3338  42.449  29.450  14.461
44078W        W 3339  21.642  25.194   1.716
44079W        W 3340   8.657  24.534  12.088
44080W        W 3341   4.329  34.445  13.967
44081W        W 3342  25.709   7.396  12.066
44082W        W 3343  34.876  19.065   0.465
44083W        W 3344  14.822  29.666  12.382
44084W        W 3345  27.031  12.135   3.301
44085W        W 3346  25.008  33.391  11.006
44086W        W 3347  28.002  43.860   0.324
44087W        W 3348  14.626  42.973   4.746
44088W        W 3349  33.911  13.285   2.291
44089W        W 3350  23.685  43.884  12.859
44090W        W 3351  34.906  20.649   1.795
44091W        W 3352  30.430  28.511  14.865
44092W        W 3353  28.977  35.539  12.943
44093W        W 3354  27.624  35.945   4.604
44094W        W 3355   8.281  43.888   3.781
44095W        W 3356  36.940  20.066   3.209
44096W        W 3357  43.941  39.937   3.725
44097W        W 3358  38.930  29.496   0.437
44098W        W 3359  28.144  26.633  10.482
44099W        W 3360   2.770  21.188  14.973
44100W        W 3361   3.788   5.890   4.316
44101W        W 3362  26.066  44.821  13.016
44102W        W 3363  15.674  32.510  12.006
44103W        W 3364  26.134   1.384   3.336
44104W        W 3365   7.683  15.596  10.030
44105W        W 3366  24.065   0.461   2.395
44106W        W 3367  32.947  26.671  13.878
44107W        W 3368  14.256  42.396   3.325
44108W        W 3369  18.555  31.552  11.955
44109W        W 3370   0.483  37.523   2.748
44110W        W 3371  40.336   6.415   2.321
44111W        W 3372  18.185  31.584   3.722
44112W        W 3373  40.985  44.422  13.324
44113W        W 3374  41.496  35.072   3.729
44114W        W 3375  44.760  21.196   0.764
44115W        W 3376  12.826   7.749   2.369
44116W        W 3377  44.284  35.960   9.975
44117W        W 3378  21.648  30.039  13.317
44118W        W 3379  18.205   3.258   3.752
44119W        W 3380  10.867   1.853   2.407
44120W        W 3381  25.109  28.581  10.138
44121W        W 3382  30.923   0.416   2.232
44122W        W 3383   1.320   0.249  14.950
44123W        W 3384  18.607   8.366   2.826
44124W        W 3385  18.787  30.019  14.897
44125W        W 3386  20.547  44.302   4.170
44126W        W 3387  34.378   6.717   4.135
44127W        W 3388   8.196  15.780   1.865
44128W        W 3389  11.314  21.640  14.307
44129W        W 3390  40.911  30.041  11.424
44130W        W 3391  39.809  18.063   0.346
44131W        W 3392  30.453  39.371   2.839
44132W        W 3393  17.294  23.653  11.006
44133W        W 3394  17.705  37.578  12.920
44134W        W 3395  37.488   0.262   2.883
44135W        W 3396  20.575  25.701   3.860
44136W        W 3397  31.602  42.348  10.596
44137W        W 3398   9.830   7.386   1.316
44138W        W 3399  41.326   3.812  11.084
44139W        W 3400   6.334   1.300   2.838
44140W        W 3401  17.238  26.632  14.353
44141W        W 3402  34.977  35.959  11.440
44142W        W 3403  42.885   4.747   1.890
44143W        W 3404  31.644  20.147  11.112
44144W        W 3405  24.979  23.024   4.774
44145W        W 3406   7.279   8.359   1.378
44146W        W 3407  20.230  22.217  13.995
44147W        W 3408   8.794  32.479   4.162
44148W        W 3409  44.802  31.439   1.301
44149W        W 3410  33.387  38.860  12.062
44150W        W 3411  17.657  28.581   0.734
44151W        W 3412   9.810  32.551  11.474
44152W        W 3413  32.096   1.874  11.586
44153W        W 3414  19.086  17.789  14.944
44154W        W 3415  34.397  33.021   1.414
44155W        W 3416  29.047  36.593   1.901
44156W        W 3417   8.382  37.519  12.487
44157W        W 3418  38.979   7.318  11.602
44158W        W 3419   8.683   0.258  12.989
44159W        W 3420  27.128  17.184  13.455
44160W        W 3421  17.657   6.290   0.442
44161W        W 3422   6.724  31.647   3.252
44162W        W 3423   1.410  26.609   4.320
44163W        W 3424  26.565  27.683   2.864
44164W        W 3425  32.890  22.173  13.003
44165W        W 3426   1.891  14.772   3.689
44166W        W 3427   2.329  37.982   3.644
44167W        W 3428   4.824  25.648  11.492
44168W        W 3429  10.219  16.160   5.182
44169W        W 3430  12.236  21.597   3.824
44170W        W 3431  30.630  25.210  10.073
44171W        W 3432   4.270  12.785  14.856
44172W        W 3433  16.590   5.695   2.255
44173W        W 3434   2.726  27.025   2.673
44174W        W 3435  30.570  15.651  13.945
44175W        W 3436  19.729   2.720  12.010
44176W        W 3437  43.006  15.232  13.019
44177W        W 3438  35.081  23.719   1.375
44178W        W 3439   2.279  38.827  10.997
44179W        W 3440  44.297   9.247  11.992
44180W        W 3441  18.748   0.823  11.864
44181W        W 3442   5.776  42.802   3.303
44182W        W 3443  12.300  22.131  14.376
44183W        W 3444   2.407  37.418   3.829
44184W        W 3445  22.647  41.478   4.616
44185W        W 3446  15.611  31.578  13.517
44186W        W 3447  13.757  25.962  14.376
44187W        W 3448   6.677  20.059  14.912
44188W        W 3449  42.372  23.633  14.005
44189W        W 3450  15.710  19.274  10.411
44190W        W 3451  24.642   8.689  12.030
44191W        W 3452  12.801  23.572  11.510
44192W        W 3453  26.532  24.206   4.662
44193W        W 3454  26.604  42.843  10.466
44194W        W 3455  44.951  30.582  11.511
44195W        W 3456  44.458   0.445  14.394
44196W        W 3457  14.326  22.741  13.909
44197W        W 3458   1.291   3.896  14.844
44198W        W 3459  18.661  36.523  12.077
44199W        W 3460   4.762  24.039  14.329
44200W        W 3461  34.487   2.375   4.771
44201W        W 3462  42.978   0.826   4.144
44202W        W 3463  42.523  22.552  12.072
44203W        W 3464  42.884  28.153   4.135
44204W        W 3465   2.422  23.558   0.260
44205W        W 3466  11.330  13.694  14.339
44206W        W 3467   6.336  28.086  13.795
44207W        W 3468  43.391  21.077   1.810
44208W        W 3469  26.057  32.998  13.459
44209W        W 3470   3.423  20.716  11.561
44210W        W 3471  39.835  22.245  14.346
44211W        W 3472  29.018  11.627  13.339
44212W        W 3473  42.517  14.321  10.609
44213W        W 3474  15.273   1.899   0.825
44214W        W 3475  40.862  15.735   0.373
44215W        W 3476  33.393  34.114   1.787
44216W        W 3477  25.559  17.122  10.423
44217W        W 3478  41.856   6.297   5.293
44218W        W 3479   3.880  30.517  14.859
44219W        W 3480   6.753   1.282   4.722
44220W        W 3481  16.193  31.006   3.681
44221W        W 3482  39.832  23.549   3.161
44222W        W 3483  41.518   0.797   3.837
44223W        W 3484  26.623  25.022   9.943
44224W        W 3485  32.448  44.398   3.792
44225W        W 3486  20.048  16.711  12.459
44226W        W 3487  22.079  23.729   2.746
44227W        W 3488  42.910  14.726   0.309
44228W        W 3489  32.096  24.701  14.907
44229W        W 3490  27.178  40.368  12.511
44230W        W 3491  20.728   2.876   0.266
44231W        W 3492  20.050  21.609   4.240
44232W        W 3493  41.963  40.384   2.350
44233W        W 3494  43.811  10.318   4.327
44234W        W 3495  27.067  40.048   0.744
44235W        W 3496  18.281  33.461  12.435
44236W        W 3497  25.083  41.459  13.813
44237W        W 3498  14.758   3.711   1.698
44238W        W 3499   7.321   3.268  11.990
44239W        W 3500  27.155  32.993  10.561
44240W        W 3501  21.123  41.425   4.270
44241W        W 3502  42.880   6.374  13.430
44242W        W 3503  30.619  22.093   1.362
44243W        W 3504  42.849  32.576   2.731
44244W        W 3505  27.080  42.886  11.058
44245W        W 3506  20.041   8.299  12.516
44246W        W 3507   2.260  21.027  13.852
44247W        W 3508  13.334  43.377  14.459
44248W        W 3509   8.368  15.292   3.232
44249W        W 3510   5.905  13.671   4.641
44250W        W 3511  30.917  27.523  11.988
44251W        W 3512  32.065  20.758  14.448
44252W        W 3513   5.748  34.396   2.290
44253W        W 3514   9.686  34.498  10.540
44254W        W 3515  19.101  25.177  11.450
44255W        W 3516  24.578  17.286   0.747
44256W        W 3517  29.495  22.587   4.287
44257W        W 3518  25.587  32.395  10.615
44258W        W 3519  17.787  16.225   0.315
44259W        W 3520  41.890   2.454  13.535
44260W        W 3521  15.692  33.929   1.913
44261W        W 3522  25.653  35.041  13.980
44262W        W 3523  38.077  33.601  13.832
44263W        W 3524  35.374  27.017   3.725
44264W        W 3525  21.105  41.893  14.443
44265W        W 3526  15.578   4.397   4.198
44266W        W 3527  19.588  40.799   2.321
44267W        W 3528  24.592  28.032  14.343
44268W        W 3529  21.523  23.118  13.829
44269W        W 3530  29.604  35.600   0.769
44270W        W 3531  30.589   7.686  11.908
44271W        W 3532   3.221  43.838   4.234
44272W        W 3533  33.532  32.430   2.187
44273W        W 3534  10.168  24.679   2.743
44274W        W 3535   8.720  25.635  13.417
44275W        W 3536  18.087   8.200  14.374
44276W        W 3537  29.940  25.153   3.630
44277W        W 3538  33.092  11.834  12.000
44278W        W 3539  22.243  20.191   0.243
44279W        W 3540  40.994   9.270  13.876
44280W        W 3541  42.333  18.730  13.875
44281W        W 3542  37.572  36.351   2.725
44282W        W 3543  28.463  22.201  11.855
44283W        W 3544  13.621  41.873  10.927
44284W        W 3545  30.049  40.482   1.298
44285W        W 3546   2.238  23.113  10.417
44286W        W 3547  35.448  42.386  14.386
44287W        W 3548  41.981   4.313   1.834
44288W        W 3549  23.550  22.037   0.804
44289W        W 3550  44.923  24.974  13.322
44290W        W 3551   7.365  22.552  12.979
44291W        W 3552  11.305   7.229   4.668
44292W        W 3553  37.856  18.593   4.637
44293W        W 3554   2.226  18.170  12.522
44294W        W 3555  39.410  41.918   1.253
44295W        W 3556  30.971  16.663   2.729
44296W        W 3557   5.334   3.765  12.442
44297W        W 3558  34.020  40.347  13.363
44298W        W 3559   8.703  21.612   1.414
44299W        W 3560  42.480  28.469   0.464
44300W        W 3561  32.470   8.279  11.076
44301W        W 3562   9.838  22.243   1.222
44302W        W 3563  38.507   5.855   0.259
44303W        W 3564   7.867  21.748  13.054
44304W        W 3565  38.852  35.521   0.749
44305W        W 3566  31.993   4.331  11.101
44306W        W 3567  22.576   6.802   4.237
44307W        W 3568   2.912  43.806   0.301
44308W        W 3569  43.374  15.286  11.585
44309W        W 3570  30.084  39.064  13.421
44310W        W 3571  10.746  15.743  12.835
44311W        W 3572  24.680  34.534  10.944
44312W        W 3573  33.059  10.200  14.961
44313W        W 3574  31.922   8.236  14.866
44314W        W 3575   0.984  41.036   4.245
44315W        W 3576  30.569  14.716   3.867
44316W        W 3577  37.893  18.636  10.588
44317W        W 3578  19.539   3.368  12.015
44318W        W 3579  29.064   3.306   3.309
44319W        W 3580   6.272   1.946  14.298
44320W        W 3581  40.478  42.909  12.039
44321W        W 3582   2.337  28.164  14.792
44322W        W 3583  42.437  37.442  13.421
44323W        W 3584  21.623  32.602  10.584
44324W        W 3585  17.076  13.743   3.642
44325W        W 3586  44.280  40.054   4.820
44326W        W 3587   7.346   3.829  10.538
44327W        W 3588  36.485  43.496  14.332
44328W        W 3589  21.546  42.387   1.757
44329W        W 3590   1.742  34.911   0.370
44330W        W 3591  21.060  39.333  10.544
44331W        W 3592  39.456  26.204   2.882
44332W        W 3593  34.535  10.756  10.924
44333W        W 3594  28.072  19.691  13.015
44334W        W 3595   2.453  42.949   4.682
44335W        W 3596  33.924  12.323   4.825
44336W        W 3597   0.819  17.102  10.965
44337W        W 3598  32.029  21.672   3.384
44338W        W 3599   3.804  18.156  13.504
44339W        W 3600  20.532  16.286   3.659
44340W        W 3601  15.121   0.405  11.557
44341W        W 3602  28.630   8.357   4.193
44342W        W 3603   3.907  15.248  10.551
44343W        W 3604   7.670  27.069  14.809
44344W        W 3605  25.506  26.617  14.837
44345W        W 3606  35.967  13.753   4.832
44346W        W 3607   0.334  16.099  10.961
44347W        W 3608  43.933  18.052   0.338
44348W        W 3609  25.172  29.957   0.854
44349W        W 3610   5.434   6.369  13.880
44350W        W 3611  42.806  33.995   2.813
44351W        W 3612  25.662  38.394  12.537
44352W        W 3613  15.784  41.453   1.762
44353W        W 3614  40.344  14.287  11.556
44354W        W 3615  24.086   1.305   3.353
44355W        W 3616  16.761   5.755   3.635
44356W        W 3617   5.269   5.846  14.463
44357W        W 3618  11.860  44.859   4.759
44358W        W 3619  29.166  30.416  12.843
44359W        W 3620  42.935  43.863  14.759
44360W        W 3621   0.364  39.413  11.965
44361W        W 3622  43.507  44.385   1.330
44362W        W 3623   6.780  42.456  13.500
44363W        W 3624  15.630  41.954   3.667
44364W        W 3625   9.162  39.438   1.867
44365W        W 3626  25.103  25.581   0.398
44366W        W 3627   8.401   1.870  14.909
44367W        W 3628  37.365  14.192   3.154
44368W        W 3629  34.458  42.300   2.753
44369W        W 3630  34.515  17.108  14.475
44370W        W 3631   9.308   4.791   2.901
44371W        W 3632   0.864  43.373  13.426
44372W        W 3633  18.271   2.264   4.271
44373W        W 3634  10.632  25.002   2.227
44374W        W 3635   2.855  36.574   0.264
44375W        W 3636  20.083  28.147   3.226
44376W        W 3637  32.086  38.020   2.282
44377W        W 3638   1.414  28.608   2.356
44378W        W 3639   3.762  28.631  12.566
44379W        W 3640   1.236   0.451  14.384
44380W        W 3641  11.340  16.104   3.354
44381W        W 3642  16.602  32.902   3.273
44382W        W 3643  12.264   5.869  14.984
44383W        W 3644   2.284  11.293  10.497
44384W        W 3645  44.785  42.835  10.890
44385W        W 3646  19.675  37.001   0.946
44386W        W 3647  24.678  12.796  11.605
44387W        W 3648  44.928   0.849   4.320
44388W        W 3649  19.703   6.221   4.288
44389W        W 3650  40.955  31.151   0.911
44390W        W 3651  42.822   9.696   3.690
44391W        W 3652   5.362  29.426   2.698
44392W        W 3653   0.853  39.339   4.340
44393W        W 3654   2.756   1.364  12.083
44394W        W 3655  27.044  26.686   1.817
44395W        W 3656  30.630  24.714   0.770
44396W        W 3657  33.545  10.154  10.605
44397W        W 3658  16.265   0.490   4.349
44398W        W 3659  23.646  30.119  11.096
44399W        W 3660  44.764  23.155   1.702
44400W        W 3661  28.522  38.994   0.773
44401W        W 3662  25.036  26.675  13.042
44402W        W 3663  33.039  35.451  12.883
44403W        W 3664  32.102  11.770  12.989
44404W        W 3665  30.004  14.720   2.685
44405W        W 3666  39.973  41.530   0.365
44406W        W 3667   9.882  43.353   2.706
44407W        W 3668  13.658  13.264   2.814
44408W        W 3669  22.170  23.612  11.612
44409W        W 3670   3.431  17.688   3.245
44410W        W 3671   7.295  34.915   0.337
44411W        W 3672   0.323   5.871   1.439
44412W        W 3673  38.902  39.487   4.201
44413W        W 3674  27.092  27.629  10.573
44414W        W 3675  24.997  29.666   5.211
44415W        W 3676  42.340  31.977  11.043
44416W        W 3677   7.344   9.343   0.365
44417W        W 3678  17.201  22.662  10.121
44418W        W 3679  40.042  41.030  12.530
44419W        W 3680   7.710   4.272   4.787
44420W        W 3681  23.540  35.380  12.024
44421W        W 3682  22.560   7.334   2.331
44422W        W 3683   6.424   0.473   0.458
44423W        W 3684  31.028  32.902   1.256
44424W        W 3685   9.841  18.679  14.914
44425W        W 3686  22.212  19.106  13.443
44426W        W 3687  31.945   0.436   1.894
44427W        W 3688  19.068  33.113   1.410
44428W        W 3689   2.324  23.098  12.436
44429W        W 3690   3.221  12.649  11.962
44430W        W 3691  16.787  24.063  14.001
44431W        W 3692   5.310  29.005   0.890
44432W        W 3693  16.282  33.425  11.059
44433W        W 3694  37.961  38.903  12.502
44434W        W 3695  41.391  20.615   0.749
44435W        W 3696  18.106  22.030  11.992
44436W        W 3697  14.160  24.480   0.466
44437W        W 3698  38.336  22.553   2.865
44438W        W 3699  42.906  27.146  12.382
44439W        W 3700  15.671   7.380  11.928
44440W        W 3701   8.669   3.306   4.160
44441W        W 3702  26.200  33.045  14.016
44442W        W 3703  26.513  20.668   1.720
44443W        W 3704  10.296  42.520  12.409
44444W        W 3705   8.870  10.159  14.822
44445W        W 3706  32.609  24.075  14.807
44446W        W 3707   1.952   4.808  13.955
44447W        W 3708  21.724  29.986   3.262
44448W        W 3709   2.809  34.524   4.671
44449W        W 3710  22.186  34.913  13.440
44450W        W 3711   6.263  39.321  12.934
44451W        W 3712   3.752  27.623  13.851
44452W        W 3713  21.214  17.610   0.386
44453W        W 3714  44.445  30.442   0.870
44454W        W 3715  30.640  37.033  10.435
44455W        W 3716  13.720  32.529  11.913
44456W        W 3717  19.091  31.152  11.389
44457W        W 3718  18.651  15.807  14.487
44458W        W 3719  25.113  20.163   0.344
44459W        W 3720  41.457  22.654   5.688
44460W        W 3721   9.363  33.486  12.997
44461W        W 3722  11.672  35.861   5.145
44462W        W 3723  14.687  21.026  13.507
44463W        W 3724   0.754  14.808  13.807
44464W        W 3725  34.372  21.543   4.204
44465W        W 3726   3.853  11.136   0.914
44466W        W 3727  31.503   4.761   1.901
44467W        W 3728  25.967   7.398  12.515
44468W        W 3729  24.159  37.521  12.957
44469W        W 3730  40.023  10.294   2.804
44470W        W 3731  41.452  21.041  14.277
44471W        W 3732  20.071  34.885  14.339
44472W        W 3733  28.513  23.565   2.330
44473W        W 3734  29.567  28.124  11.879
44474W        W 3735  14.284  24.196  10.573
44475W        W 3736  14.164   8.878   2.830
44476W        W 3737  24.676   4.799   1.738
44477W        W 3738   7.755  18.680   3.280
44478W        W 3739   3.244  39.813  13.895
44479W        W 3740  28.443  42.826   3.255
44480W        W 3741  10.787   8.295  11.068
44481W        W 3742  23.191   9.154  11.088
44482W        W 3743  16.610  22.634   0.776
44483W        W 3744  17.564  31.129   0.859
44484W        W 3745  10.773  21.064   4.337
44485W        W 3746  10.770  16.290  13.796
44486W        W 3747  19.597  43.434   0.437
44487W        W 3748  18.781  37.941   3.723
44488W        W 3749   2.917  19.617   3.659
44489W        W 3750  14.632  19.755  10.607
44490W        W 3751  15.757  31.045   0.766
44491W        W 3752  15.329  24.185   1.369
44492W        W 3753  22.128  39.814  10.439
44493W        W 3754  25.079  11.724  11.871
44494W        W 3755  20.240   0.304  10.595
44495W        W 3756  43.958  27.968   0.463
44496W        W 3757  33.566  32.924   4.247
44497W        W 3758  13.251  33.934  12.016
44498W        W 3759  35.926   9.713   3.705
44499W        W 3760   5.876  37.471   3.186
44500W        W 3761  42.838  32.562   3.649
44501W        W 3762  24.542  11.821  13.540
44502W        W 3763  17.255  35.478   3.788
44503W        W 3764   2.939  18.548   2.387
44504W        W 3765  44.504  29.043  12.933
44505W        W 3766  14.249   0.930   4.116
44506W        W 3767  23.024  42.915   4.602
44507W        W 3768  11.354  33.567  12.896
44508W        W 3769  31.976  29.434  10.414
44509W        W 3770  15.321  36.526  13.972
44510W        W 3771  23.723  32.090   2.753
44511W        W 3772  10.207  17.141   0.850
44512W        W 3773  18.643  32.620  13.881
44513W        W 3774  13.236   4.333   3.697
44514W        W 3775  28.102  25.580  12.878
44515W        W 3776  12.725   0.426   3.857
44516W        W 3777  38.358   7.840   0.303
44517W        W 3778  39.462  40.400  14.377
44518W        W 3779  26.466  16.298   1.394
44519W        W 3780  18.686  36.907  14.473
44520W        W 3781  39.409  31.097   0.269
44521W        W 3782  23.589  25.096  12.537
44522W        W 3783  31.600   6.275  13.844
44523W        W 3784  17.230   5.769  12.916
44524W        W 3785  28.019  30.063  10.509
44525W        W 3786  28.138  19.555   2.331
44526W        W 3787   1.841  16.693  10.587
44527W        W 3788  36.354  21.158   2.340
44528W        W 3789   7.329  26.701   4.819
44529W        W 3790  12.209  24.702  10.439
44530W        W 3791  11.630   7.816  10.481
44531W        W 3792   8.298   6.422  12.925
44532W        W 3793   3.415  19.281   2.330
44533W        W 3794  25.527  40.492  10.995
44534W        W 3795   2.855  12.362   3.325
44535W        W 3796   0.280  32.596  14.793
44536W        W 3797  32.935  39.898  14.021
44537W        W 3798  41.789  38.398  13.363
44538W        W 3799  37.478  39.827   4.273
44539W        W 3800  29.425  25.980   4.167
44540W        W 3801  35.504  27.968   3.735
44541W        W 3802  36.589  30.501   1.222
44542W        W 3803  30.444  19.740  12.518
44543W        W 3804   6.812  26.632  14.020
44544W        W 3805  13.239  19.540   5.108
44545W        W 3806  11.658   0.362  14.831
44546W        W 3807  14.255  25.038  12.066
44547W        W 3808  16.591  36.375  11.484
44548W        W 3809  22.245  17.647   1.212
44549W        W 3810  20.551  13.202   0.885
44550W        W 3811  20.747  14.617  12.480
44551W        W 3812  40.349  38.968  10.924
44552W        W 3813   9.385  22.650  14.346
44553W        W 3814  37.082   9.355   4.699
44554W        W 3815  17.564  37.563   5.237
44555W        W 3816   0.447  18.089   2.737
44556W        W 3817   6.681  19.068   0.265
44557W        W 3818  15.589   0.767  13.323
44558W        W 3819  25.066  20.159   4.352
44559W        W 3820   7.729  22.196  11.509
44560W        W 3821  18.071  37.955   0.471
44561W        W 3822  27.597  44.978  11.968
44562W        W 3823  20.740  40.481   4.815
44563W        W 3824   7.416  41.351  11.541
44564W        W 3825  32.604  17.247   3.656
44565W        W 3826  32.997  44.463   2.352
44566W        W 3827   0.258  16.081  12.906
44567W        W 3828  10.268  28.449   1.368
44568W        W 3829   7.805  18.225   4.722
44569W        W 3830   7.700  27.472   4.770
44570W        W 3831  14.733  30.637  11.421
44571W        W 3832  31.940  34.434  11.491
44572W        W 3833   7.685  26.585  14.887
44573W        W 3834  39.947  24.985  13.991
44574W        W 3835   9.691   3.298   3.209
44575W        W 3836  20.530   1.467   0.908
44576W        W 3837  14.791  25.002  11.377
44577W        W 3838   9.733  35.405  11.928
44578W        W 3839  21.254  43.286   4.602
44579W        W 3840  19.232  12.232   2.334
44580W        W 3841  18.230  22.099  13.314
44581W        W 3842  26.038  18.695   2.865
44582W        W 3843   1.416  42.521  11.555
44583W        W 3844  16.131  15.093  14.869
44584W        W 3845  28.008  27.544  12.412
44585W        W 3846  44.852  28.435  12.072
44586W        W 3847  18.091  41.401  14.908
44587W        W 3848  40.957  42.289   3.764
44588W        W 3849  35.904  43.923  12.899
44589W        W 3850  21.066   0.858  12.017
44590W        W 3851  23.041  43.417   0.367
44591W        W 3852  20.685  13.782  14.345
44592W        W 3853  36.392  16.158   0.252
44593W        W 3854  11.138  11.696  14.413
44594W        W 3855  32.994  12.631   2.237
44595W        W 3856  14.808  33.874   1.791
44596W        W 3857  10.358   9.720   2.253
44597W        W 3858  16.223  26.467  12.932
44598W        W 3859   4.430  44.308  13.511
44599W        W 3860   1.353  15.137  13.005
44600W        W 3861  35.518  15.182   4.620
44601W        W 3862   4.902  33.451   5.154
44602W        W 3863  18.141  32.919  12.416
44603W        W 3864  33.571  44.471  14.890
44604W        W 3865   2.725  16.722   1.308
44605W        W 3866  26.656   3.409  12.358
44606W        W 3867   7.221  25.056   3.644
44607W        W 3868  12.227   2.842   3.668
44608W        W 3869  22.633  22.136  12.057
44609W        W 3870   1.805  21.048  11.377
44610W        W 3871  21.675  40.853   3.685
44611W        W 3872  16.295  36.547   0.315
44612W        W 3873  43.887   6.680  11.400
44613W        W 3874  29.014  14.799   4.716
44614W        W 3875  29.045  20.666   1.356
44615W        W 3876   4.848  24.019   3.693
44616W        W 3877  11.757   6.237  14.278
44617W        W 3878  13.786  18.203  14.903
44618W        W 3879   3.292   0.791   2.396
44619W        W 3880  15.589  24.988   2.313
44620W        W 3881  42.347  31.559  14.425
44621W        W 3882  29.153  37.943  11.881
44622W        W 3883  13.315   7.819   4.232
44623W        W 3884   3.446  11.639  14.822
44624W        W 3885  43.989  40.422  11.041
44625W        W 3886  13.709  11.630   2.239
44626W        W 3887  23.549  24.606  11.898
44627W        W 3888  37.410  18.230  13.952
44628W        W 3889  22.736   7.207   1.282
44629W        W 3890  19.753  16.741   4.811
44630W        W 3891  12.229  33.508  14.393
44631W        W 3892  40.310  38.523  14.350
44632W        W 3893  19.095  37.911   1.922
44633W        W 3894  39.036  30.601  14.889
44634W        W 3895  18.782  37.564   4.758
44635W        W 3896  10.378  36.879  14.987
44636W        W 3897   3.382  21.686  13.024
44637W        W 3898  42.342  41.330   1.333
44638W        W 3899   8.396   9.706   2.287
44639W        W 3900  12.787  17.252  13.913
44640W        W 3901  44.469  26.170  14.830
44641W        W 3902  22.700  12.193  12.416
44642W        W 3903   7.865  39.863  13.450
44643W        W 3904  44.484  42.391   2.411
44644W        W 3905   1.384  27.629   2.662
44645W        W 3906  34.595  16.613  11.416
44646W        W 3907   4.273  40.030   4.120
44647W        W 3908  36.870  33.016   3.147
44648W        W 3909   3.814  33.601  11.426
44649W        W 3910  14.144   4.712  12.499
44650W        W 3911  14.095  29.096   2.381
44651W        W 3912  15.285  16.112  14.908
44652W        W 3913  24.180  43.947  14.334
44653W        W 3914   5.207   0.920   4.751
44654W        W 3915  20.631  22.167   0.883
44655W        W 3916  29.584  40.024  11.457
44656W        W 3917  35.395   5.821  12.092
44657W        W 3918  29.649   8.809   5.314
44658W        W 3919  26.478  34.562   2.853
44659W        W 3920  17.698  35.520   3.853
44660W        W 3921   6.266   6.372   2.293
44661W        W 3922  36.924  44.272  11.373
44662W        W 3923  35.442  17.307  12.983
44663W        W 3924  10.300   7.314   3.663
44664W        W 3925  31.041  39.032  12.970
44665W        W 3926   0.879  39.438  13.937
44666W        W 3927  43.986   7.737  12.390
44667W        W 3928  12.616  16.153   2.262
44668W        W 3929  31.414  32.119   1.305
44669W        W 3930  37.557  30.114  13.520
44670W        W 3931   2.452  17.683   1.929
44671W        W 3932  20.600  40.868  12.511
44672W        W 3933  17.307   1.966  10.983
44673W        W 3934  32.412  23.148  10.545
44674W        W 3935  15.249  14.668  13.526
44675W        W 3936  26.037  32.624  12.846
44676W        W 3937  36.018  32.514  12.402
44677W        W 3938  11.666  37.549  10.076
44678W        W 3939  32.567  17.746  10.892
44679W        W 3940  16.752   2.275   0.447
44680W        W 3941  12.787  44.489   4.838
44681W        W 3942  16.309  11.158   0.361
44682W        W 3943   5.358  36.378   1.351
44683W        W 3944   3.233  10.835  13.516
44684W        W 3945  10.827  15.580  14.276
44685W        W 3946  27.024  37.484   0.397
44686W        W 3947  11.241  35.950   1.772
44687W        W 3948  34.993  29.569  14.399
44688W        W 3949  35.868   5.427   3.186
44689W        W 3950  22.213  34.983   1.829
44690W        W 3951  34.402  42.947   0.434
44691W        W 3952  21.202   3.836   1.306
44692W        W 3953   0.924  22.741  11.416
44693W        W 3954  25.641  15.612  14.027
44694W        W 3955  30.492   8.712  12.894
44695W        W 3956  21.216  44.308  13.424
44696W        W 3957  39.315   1.289   2.727
44697W        W 3958  43.499  14.693   2.275
44698W        W 3959  16.100  11.187  13.042
44699W        W 3960   9.300  20.563   0.382
44700W        W 3961  26.983  39.837  14.973
44701W        W 3962  38.853   8.358  10.498
44702W        W 3963  10.355  21.242   5.136
44703W        W 3964  34.998  33.121   3.159
44704W        W 3965   6.804  23.686   0.411
44705W        W 3966   4.724  35.573   0.466
44706W        W 3967  22.566  11.848  13.957
44707W        W 3968   0.266  11.237  12.475
44708W        W 3969  25.574  20.646  14.841
44709W        W 3970  31.097   5.923  12.470
44710W        W 3971  10.218  41.534   2.414
44711W        W 3972  35.401  26.675  11.610
44712W        W 3973  38.974  38.377   0.754
44713W        W 3974  25.680  40.020   3.238
44714W        W 3975  25.216  41.357   3.688
44715W        W 3976   3.351  13.739  12.382
44716W        W 3977   7.378  11.760   2.877
44717W        W 3978  23.092  16.316   1.235
44718W        W 3979  13.277  12.722   4.802
44719W        W 3980  20.127  16.218  10.954
44720W        W 3981  33.597  44.419   2.334
44721W        W 3982  28.495  13.749   3.242
44722W        W 3983   3.759  35.024  12.574
44723W        W 3984  33.047   6.724  11.004
44724W        W 3985  37.853  21.579   1.303
44725W        W 3986  34.020  21.117   2.879
44726W        W 3987  23.173  44.999  10.449
44727W        W 3988  30.651  13.676   0.483
44728W        W 3989  33.121  25.211   1.897
44729W        W 3990  24.101   6.869  11.115
44730W        W 3991  37.837  39.487   4.116
44731W        W 3992  35.402  25.553   2.805
44732W        W 3993  11.687  31.634   1.448
44733W        W 3994  27.494   4.834  11.375
44734W        W 3995  36.574  18.574  11.554
44735W        W 3996   0.808  43.955   4.214
44736W        W 3997  41.333  11.849  13.524
44737W        W 3998  28.505  21.599   1.420
44738W        W 3999  25.625  15.652  11.524
44739W        W 4000   1.477  23.130  13.471
44740W        W 4001  27.190  19.773   3.340
44741W        W 4002  25.165  31.140  12.909
44742W        W 4003   7.196  21.608  10.970
44743W        W 4004  22.691   1.851   1.892
44744W        W 4005   9.700  40.390   2.358
44745W        W 4006   2.919  33.616  13.876
44746W        W 4007  22.577  37.415  10.632
44747W        W 4008  17.745  25.684   1.391
44748W        W 4009  29.069  16.740  11.910
44749W        W 4010  23.109   6.680   3.667
44750W        W 4011   7.372  22.111  14.871
44751W        W 4012  36.551  43.000  10.030
44752W        W 4013  31.560  40.364   3.328
44753W        W 4014  26.053  31.060  14.399
44754W        W 4015  19.725  30.470   0.316
44755W        W 4016  28.511  21.608  12.909
44756W        W 4017  18.271   9.227   3.859
44757W        W 4018  40.359  35.021  13.021
44758W        W 4019   9.804  14.312   0.812
44759W        W 4020  14.129   4.285  13.494
44760W        W 4021  35.983   9.154   3.831
44761W        W 4022  14.207  24.027  14.334
44762W        W 4023   7.376  20.073  14.402
44763W        W 4024  31.468  22.697  12.537
44764W        W 4025  30.414  36.844   1.411
44765W        W 4026  25.132  33.505   1.886
44766W        W 4027  25.594  17.579   4.282
44767W        W 4028  15.131  30.929   0.871
44768W        W 4029  19.132  26.143   2.217
44769W        W 4030  26.046  24.583  14.373
44770W        W 4031  34.559  22.197  10.600
44771W        W 4032   9.324  34.023   0.929
44772W        W 4033  20.272   7.342   2.693
44773W        W 4034   2.869   6.372   3.159
44774W        W 4035  33.072   1.766   0.752
44775W        W 4036  12.166  25.704   0.441
44776W        W 4037  26.076  43.917   0.371
44777W        W 4038   9.228  39.522  12.854
44778W        W 4039   1.947  26.567  11.534
44779W        W 4040  36.505  20.600   1.807
44780W        W 4041  31.076  23.525  10.471
44781W        W 4042  11.224  29.170  13.481
44782W        W 4043  13.137   3.281  11.887
44783W        W 4044  31.937  19.602  10.566
44784W        W 4045  23.498  31.029   2.768
44785W        W 4046  21.521  18.628   4.694
44786W        W 4047  26.140  18.269  14.816
44787W        W 4048  10.879  35.486   2.888
44788W        W 4049  44.968  23.110  12.385
44789W        W 4050   0.299   4.211  12.941
44790W        W 4051  40.003  22.216  12.512
44791W        W 4052  10.850  17.763   0.811
44792W        W 4053  40.810  23.022  13.843
44793W        W 4054   4.316  21.097  10.492
44794W        W 4055  22.081  20.665   1.808
44795W        W 4056  37.971  41.043  12.838
44796W        W 4057  26.000  21.243   4.676
44797W        W 4058  44.436  35.091  14.343
44798W        W 4059  38.874  36.521   3.247
44799W        W 4060   7.300   8.186   0.957
44800W        W 4061  38.868  20.542   4.800
44801W        W 4062   4.338  20.224   4.748
44802W        W 4063  40.821  31.916  10.056
44803W        W 4064  26.674   8.390  11.018
44804W        W 4065  29.925   6.415  14.411
44805W        W 4066  36.901  33.042   1.332
44806W        W 4067  19.175  44.870   0.753
44807W        W 4068   9.258  13.730   2.742
44808W        W 4069   9.159  32.583  11.070
44809W        W 4070   0.487  28.045  12.423
44810W        W 4071  22.076  21.549  11.065
44811W        W 4072   3.846  43.929  11.107
44812W        W 4073  28.436   3.851   1.704
44813W        W 4074   0.377  26.988   2.310
44814W        W 4075  41.843   8.877   3.815
44815W        W 4076  19.774   8.252   0.447
44816W        W 4077  17.224  26.486  14.858
44817W        W 4078  10.706  29.655   2.836
44818W        W 4079  35.904  33.125  13.996
44819W        W 4080  44.998  34.915  13.946
44820W        W 4081   8.187  42.850  14.029
44821W        W 4082   7.863   9.813   4.784
44822W        W 4083  40.924  20.617  13.463
44823W        W 4084  20.576   4.225  12.828
44824W        W 4085  27.983  19.634  12.440
44825W        W 4086  33.008  28.587   2.762
44826W        W 4087   3.372   5.902  14.479
44827W        W 4088   1.930  14.601  11.508
44828W        W 4089  30.074  14.297  11.046
44829W        W 4090   1.882  21.069   4.196
44830W        W 4091  43.449  11.182   3.153
44831W        W 4092  10.754  40.015  14.349
44832W        W 4093  10.344  11.653  10.920
44833W        W 4094  20.526   1.946  14.352
44834W        W 4095  42.815  35.923   3.196
44835W        W 4096  13.839   1.270   3.639
44836W        W 4097   1.843  20.649   3.655
44837W        W 4098  42.304  37.359   1.296
44838W        W 4099  43.402  12.800   3.788
44839W        W 4100  22.578  10.704   1.254
44840W        W 4101  39.016   8.772  14.778
44841W        W 4102   1.945  29.657   0.877
44842W        W 4103  38.543  41.859  14.447
44843W        W 4104  27.627  15.813  11.562
44844W        W 4105  24.692  32.597  11.423
44845W        W 4106  44.945   9.252   4.252
44846W        W 4107  35.043  25.204  10.414
44847W        W 4108   5.783  39.938  14.442
44848W        W 4109   5.204   6.875  12.947
44849W        W 4110  14.283   5.281   3.376
44850W        W 4111   6.749   4.349  10.577
44851W        W 4112  17.150   4.769   3.777
44852W        W 4113  43.514  41.038  10.506
44853W        W 4114  25.071  25.577   1.238
44854W        W 4115  29.658  23.637   3.735
44855W        W 4116  13.146   5.910  12.512
44856W        W 4117  31.616  16.607  10.948
44857W        W 4118  26.609  12.657  12.854
44858W        W 4119  15.185  43.510  13.474
44859W        W 4120  20.039  14.159  12.002
44860W        W 4121   6.327  16.661  14.359
44861W        W 4122  44.317  10.764   0.342
44862W        W 4123  40.510   7.687  11.403
44863W        W 4124  18.159  41.902   2.393
44864W        W 4125  25.569  12.730   1.358
44865W        W 4126  36.382  19.236  12.007
44866W        W 4127  25.127  35.916  14.947
44867W        W 4128  35.930  43.945  11.422
44868W        W 4129   4.342  22.071   0.813
44869W        W 4130   3.225  24.673  14.759
44870W        W 4131  13.802  27.133   0.346
44871W        W 4132   4.894  29.966   2.292
44872W        W 4133   8.839  42.918   4.629
44873W        W 4134  14.707  42.493  10.610
44874W        W 4135  17.257  19.584   2.385
44875W        W 4136  20.136  16.186  13.424
44876W        W 4137   9.699  37.519  11.871
44877W        W 4138  23.606  43.968  11.498
44878W        W 4139  38.564   2.455  12.828
44879W        W 4140  33.950  28.973  13.947
44880W        W 4141  37.418   8.792  14.769
44881W        W 4142  36.878  36.054  10.933
44882W        W 4143   9.391   5.913   9.606
44883W        W 4144  43.388  12.855  10.619
44884W        W 4145  27.029  21.139   0.244
44885W        W 4146   5.201   9.341   3.656
44886W        W 4147  32.011  21.560   1.420
44887W        W 4148  10.236   7.707  12.926
44888W        W 4149  12.140  14.594   0.293
44889W        W 4150   0.450  43.853   3.863
44890W        W 4151  39.868  43.923   2.190
44891W        W 4152   7.415   8.244  12.032
44892W        W 4153   9.331  11.368  14.283
44893W        W 4154  38.482  18.127  14.401
44894W        W 4155  38.401  38.957   0.781
44895W        W 4156   8.222   2.265   4.748
44896W        W 4157  25.647  42.325   4.633
44897W        W 4158   2.785  31.921   4.761
44898W        W 4159   9.661  37.855   1.218
44899W        W 4160   8.258  35.051  11.464
44900W        W 4161   2.760  26.550   0.864
44901W        W 4162  21.619  25.537  12.859
44902W        W 4163  28.109  25.174   0.912
44903W        W 4164  37.339  42.019   3.367
44904W        W 4165  10.305  30.504   1.259
44905W        W 4166   5.399   9.235   0.284
44906W        W 4167   0.273  43.280  12.513
44907W        W 4168  38.452  22.124   2.807
44908W        W 4169  44.759  21.583   0.368
44909W        W 4170  33.606   9.290   2.755
44910W        W 4171  36.885  12.207  11.437
44911W        W 4172  35.049  44.926   0.467
44912W        W 4173  29.451  32.075   0.751
44913W        W 4174  18.545  26.095   0.262
44914W        W 4175  33.121  29.598  13.511
44915W        W 4176   6.184   8.673  13.955
44916W        W 4177  38.919  34.985  13.025
44917W        W 4178  24.223   2.946  14.821
44918W        W 4179  20.272  25.985   0.778
44919W        W 4180  41.467  35.563  14.390
44920W        W 4181  14.695  25.685  13.909
44921W        W 4182  34.420  12.696   4.186
44922W        W 4183  36.854  14.762  10.564
44923W        W 4184  41.865  14.752   2.775
44924W        W 4185  12.825   8.769  14.769
44925W        W 4186  33.946  17.266  11.567
44926W        W 4187  12.686  19.079   3.656
44927W        W 4188  16.288  26.059  13.999
44928W        W 4189  41.898   9.660  11.124
44929W        W 4190   4.347  11.779  14.795
44930W        W 4191  11.355  44.828   4.262
44931W        W 4192   8.405   9.158  14.421
44932W        W 4193   2.436  35.594   2.699
44933W        W 4194  26.604  12.256   1.332
44934W        W 4195  28.567  41.858  11.493
44935W        W 4196  14.150  27.494   5.699
44936W        W 4197  39.947  26.690  10.031
44937W        W 4198  15.242  43.297  12.890
44938W        W 4199  39.825  44.963  12.992
44939W        W 4200  19.213  13.110   4.634
44940W        W 4201  26.476  12.614   1.842
44941W        W 4202   8.857   0.279   0.256
44942W        W 4203  34.503  34.371   3.643
44943W        W 4204   8.265  26.673   2.774
44944W        W 4205  31.904  24.104  13.372
44945W        W 4206   0.953  16.797  11.498
44946W        W 4207  31.499  15.815   4.659
44947W        W 4208   1.318  22.569   0.748
44948W        W 4209   0.341  31.636   3.830
44949W        W 4210   0.935  15.714   3.195
44950W        W 4211  25.679   3.225   0.449
44951W        W 4212  29.966  14.257   4.231
44952W        W 4213  27.564   6.263   5.193
44953W        W 4214  30.008  34.954  14.512
44954W        W 4215   4.215  23.238  11.950
44955W        W 4216  26.173  20.528   4.220
44956W        W 4217  33.414  13.183  11.540
44957W        W 4218  21.646   3.854   0.909
44958W        W 4219  15.306  38.526   2.400
44959W        W 4220  14.258   5.822   9.532
44960W        W 4221  14.638  20.257   2.837
44961W        W 4222  38.859   3.421   4.798
44962W        W 4223  14.589  25.707   2.708
44963W        W 4224  39.969  17.801   0.450
44964W        W 4225  27.173  17.148   4.305
44965W        W 4226   9.877  29.647   2.682
44966W        W 4227  17.281  18.550   0.383
44967W        W 4228   0.790   8.165   2.306
44968W        W 4229  41.916  32.396   0.892
44969W        W 4230   7.753  42.847  12.558
44970W        W 4231  20.704   4.424   1.703
44971W        W 4232  10.720  37.377   4.235
44972W        W 4233  11.192   4.850  13.028
44973W        W 4234  38.958   4.351   3.682
44974W        W 4235  33.622  20.098  14.277
44975W        W 4236  36.397   8.767   2.233
44976W        W 4237  37.022  25.055  10.441
44977W        W 4238  20.732  26.693  11.500
44978W        W 4239  39.829   5.792   0.937
44979W        W 4240  38.546  39.485   1.216
44980W        W 4241  40.456  29.565   2.277
44981W        W 4242  39.397  24.167   4.705
44982W        W 4243  33.939   0.946  13.994
44983W        W 4244  33.082  11.681   0.410
44984W        W 4245  32.967   0.390  11.991
44985W        W 4246   5.839   0.264   2.767
44986W        W 4247  19.184  43.307   2.707
44987W        W 4248  10.842  27.548  14.896
44988W        W 4249   0.803  36.542  13.842
44989W        W 4250  37.346  11.681  14.357
44990W        W 4251  12.768  22.164   2.682
44991W        W 4252  29.996  41.923   0.318
44992W        W 4253  25.155  19.752   1.349
44993W        W 4254  21.228   7.855   4.616
44994W        W 4255  14.225  27.684  12.084
44995W        W 4256  26.458  35.525  12.916
44996W        W 4257  11.293  42.000  10.544
44997W        W 4258  19.716   1.974   1.442
44998W        W 4259  12.791  32.980  13.505
44999W        W 4260   8.767  41.350   1.259
45000W        W 4261   4.746  33.921   3.825
45001W        W 4262   8.312  25.071  14.347
45002W        W 4263  34.943  41.979   3.795
45003W        W 4264  20.260  32.037   3.772
45004W        W 4265  23.023   0.454  12.994
45005W        W 4266  42.509  20.542   3.217
45006W        W 4267   7.669  15.733  14.349
45007W        W 4268   7.736   7.187  14.311
45008W        W 4269  43.299  11.724   1.374
45009W        W 4270  11.216  11.190   4.322
45010W        W 4271   1.781  44.776   1.779
45011W        W 4272  30.539  44.847   4.668
45012W        W 4273  23.509  40.875  13.522
45013W        W 4274   8.739  26.664   0.757
45014W        W 4275  21.524  40.542   4.174
45015W        W 4276  34.429  37.863  14.902
45016W        W 4277  32.009  11.801  11.448
45017W        W 4278  29.046  16.262   0.445
45018W        W 4279   1.474  23.060   2.757
45019W        W 4280   0.258  27.034   1.282
45020W        W 4281  27.116  17.695  14.328
45021W        W 4282  15.629  23.734   0.766
45022W        W 4283  41.487  15.281  11.036
45023W        W 4284  11.713  14.792   4.772
45024W        W 4285   1.759  42.281  13.535
45025W        W 4286   7.708  32.074  13.913
45026W        W 4287  18.708  38.528   1.419
45027W        W 4288  35.445  31.609  14.359
45028W        W 4289  20.712   5.348   4.193
45029W        W 4290  17.277   2.922   3.843
45030W        W 4291  18.089  25.183   5.219
45031W        W 4292  29.037  22.593   1.925
45032W        W 4293  41.916  32.587  13.468
45033W        W 4294  38.821  10.222   4.229
45034W        W 4295  16.618   8.879   4.320
45035W        W 4296   6.746  32.604  11.996
45036W        W 4297  29.175  11.657   0.399
45037W        W 4298  25.051  28.673   1.847
45038W        W 4299  17.690   6.292   1.891
45039W        W 4300   8.317   6.269  12.372
45040W        W 4301   0.898   4.936   4.181
45041W        W 4302   2.373  41.826   4.294
45042W        W 4303  32.035  44.350   3.186
45043W        W 4304  11.315  14.274   4.772
45044W        W 4305   3.921   0.865  14.313
45045W        W 4306  31.956   1.293   3.869
45046W        W 4307  35.399  24.708  11.512
45047W        W 4308  27.000   2.369  14.847
45048W        W 4309  18.255  12.759   4.603
45049W        W 4310  34.472  27.543  10.632
45050W        W 4311  24.675  31.080  12.404
45051W        W 4312   4.365  18.639  11.555
45052W        W 4313  43.955  29.112  14.435
45053W        W 4314  11.200  44.488   4.311
45054W        W 4315  28.025  16.687  14.880
45055W        W 4316   0.426  25.513   3.794
45056W        W 4317  26.527   8.335   2.405
45057W        W 4318  35.859  30.999   4.830
45058W        W 4319   3.721   6.349   1.879
45059W        W 4320  16.126  16.744   3.704
45060W        W 4321  31.433  18.208  12.416
45061W        W 4322  15.310  37.483   1.879
45062W        W 4323   2.768   4.284  10.426
45063W        W 4324   6.282  33.536   1.398
45064W        W 4325  33.105  23.726   4.774
45065W        W 4326   5.408  10.674   1.811
45066W        W 4327  27.022   8.804  13.529
45067W        W 4328  14.233  44.311   5.209
45068W        W 4329  23.664  12.661   3.146
45069W        W 4330  40.912  24.571  12.512
45070W        W 4331  16.655   8.893  11.403
45071W        W 4332  18.759   3.235  10.157
45072W        W 4333   3.362   3.242  14.387
45073W        W 4334  41.473  31.077   3.377
45074W        W 4335  11.340   8.655   1.872
45075W        W 4336  13.806   6.309  10.635
45076W        W 4337  30.989  27.618   2.693
45077W        W 4338  42.866  19.085   2.384
45078W        W 4339  14.319  37.903   5.285
45079W        W 4340  33.879  42.900  12.383
45080W        W 4341  41.835   9.361  11.502
45081W        W 4342  15.260  24.980  11.929
45082W        W 4343  24.116  12.772  13.350
45083W        W 4344   7.838  30.513   5.088
45084W        W 4345  40.998  20.251   3.236
45085W        W 4346  44.404  22.067  13.384
45086W        W 4347   5.225  24.224  13.905
45087W        W 4348   6.279  14.607  10.023
45088W        W 4349  10.811   0.493  11.863
45089W        W 4350  30.135   0.880   1.228
45090W        W 4351  27.643  14.634  12.395
45091W        W 4352  37.513  37.834   4.793
45092W        W 4353  28.113  30.485   0.244
45093W        W 4354  16.803  39.549   1.212
45094W        W 4355  10.318  32.420   0.275
45095W        W 4356  41.880  20.073   4.288
45096W        W 4357   7.273  44.439   0.941
45097W        W 4358  27.474  33.490  11.446
45098W        W 4359  44.964  12.141   1.755
45099W        W 4360  11.276  23.073   2.786
45100W        W 4361  23.228  24.088  14.867
45101W        W 4362   8.745   3.275   2.803
45102W        W 4363   9.710  42.459  13.875
45103W        W 4364  38.418  29.513   2.812
45104W        W 4365  16.712  32.957   1.761
45105W        W 4366  27.629  13.780  13.530
45106W        W 4367  36.944  38.469  12.024
45107W        W 4368  35.595  17.254   3.711
45108W        W 4369  24.595  16.651  13.503
45109W        W 4370  17.673   5.290   0.767
45110W        W 4371   8.785  14.120   0.738
45111W        W 4372  23.119  38.452   0.282
45112W        W 4373   2.298  35.001  14.874
45113W        W 4374  29.039  38.838  11.521
45114W        W 4375  38.338  35.480   3.829
45115W        W 4376  19.255  24.566   0.852
45116W        W 4377  11.822  19.073   3.195
45117W        W 4378  31.571  21.103  12.014
45118W        W 4379  26.065  34.880   1.881
45119W        W 4380  29.170  36.964  12.368
45120W        W 4381   3.374  21.018  11.494
45121W        W 4382   6.216  28.620  12.436
45122W        W 4383  33.502  34.592  14.453
45123W        W 4384  38.013   4.447  14.994
45124W        W 4385   4.751  27.629   0.414
45125W        W 4386  23.047   2.317   4.319
45126W        W 4387   5.371  37.056  12.061
45127W        W 4388  43.421  13.209  13.440
45128W        W 4389   7.706  33.525   4.610
45129W        W 4390  26.159  37.340   1.822
45130W        W 4391  14.781  17.093   1.739
45131W        W 4392  12.794  10.303  11.401
45132W        W 4393   9.786  10.161   4.244
45133W        W 4394  18.743  36.520   1.213
45134W        W 4395   9.181  44.383  14.431
45135W        W 4396   9.745  21.663   2.415
45136W        W 4397  22.665  35.035  10.904
45137W        W 4398   4.387  42.284   0.442
45138W        W 4399   4.246  13.290  12.554
45139W        W 4400  21.709  15.688  14.781
45140W        W 4401  28.624  42.939   0.786
45141W        W 4402   1.873  29.668  12.873
45142W        W 4403  19.673  31.907  12.527
45143W        W 4404  10.242   3.382   9.939
45144W        W 4405  25.591   3.352   3.745
45145W        W 4406  15.112   8.190  12.895
45146W        W 4407  12.854  32.910  10.463
45147W        W 4408   2.746  32.487   4.779
45148W        W 4409  10.327  17.239  10.973
45149W        W 4410  31.084  10.646   2.221
45150W        W 4411  26.505  41.439  14.965
45151W        W 4412  31.113  20.056  10.532
45152W        W 4413   8.317  37.998   3.834
45153W        W 4414   5.292  38.031   2.723
45154W        W 4415  29.559  44.878   3.631
45155W        W 4416   8.258  30.648  14.940
45156W        W 4417  14.180  30.519  10.984
45157W        W 4418  23.648  22.717   1.880
45158W        W 4419   2.260  19.640  10.496
45159W        W 4420  17.209   1.902  14.408
45160W        W 4421  28.452  28.563  14.790
45161W        W 4422   3.387   6.291  13.467
45162W        W 4423  13.325  29.984   0.356
45163W        W 4424  28.513   8.750   4.228
45164W        W 4425  21.572  33.918   2.323
45165W        W 4426  23.495  27.031  12.000
45166W        W 4427  24.624  44.322   4.306
45167W        W 4428  31.428  19.061   4.276
45168W        W 4429  21.026  33.527   3.306
45169W        W 4430  23.503  40.422   1.272
45170W        W 4431  21.151  16.762  12.967
45171W        W 4432  35.899  20.215  10.489
45172W        W 4433  10.871  21.238   0.758
45173W        W 4434   5.397  38.000  13.036
45174W        W 4435  15.179  28.081   1.799
45175W        W 4436  11.204  17.783  11.569
45176W        W 4437  23.701   6.809   0.285
45177W        W 4438  44.490   4.884   1.449
45178W        W 4439  22.188  30.082  12.571
45179W        W 4440  39.814  11.786  11.977
45180W        W 4441  22.191   2.772  12.857
45181W        W 4442  39.489  25.137  13.490
45182W        W 4443  19.657  42.922  14.962
45183W        W 4444  16.710  28.135  14.797
45184W        W 4445  22.237  19.047  11.998
45185W        W 4446  24.193  25.539   4.225
45186W        W 4447   0.746  32.433   4.636
45187W        W 4448  26.513  16.079  14.989
45188W        W 4449  21.191  33.520   4.699
45189W        W 4450  43.296  25.075  14.467
45190W        W 4451  40.510  27.544   2.263
45191W        W 4452  12.304   6.905   1.402
45192W        W 4453  32.916  38.548  14.884
45193W        W 4454  11.199   8.674  13.987
45194W        W 4455  22.237  21.079   0.338
45195W        W 4456   8.830  36.393   2.224
45196W        W 4457   0.894  23.660  14.907
45197W        W 4458   6.302  24.080   2.350
45198W        W 4459  30.910  12.197  11.464
45199W        W 4460  13.817  36.001   4.293
45200W        W 4461  14.643  31.099   3.721
45201W        W 4462  23.991   6.701   4.186
45202W        W 4463  24.699  23.615   1.769
45203W        W 4464  44.901   2.393   0.459
45204W        W 4465   9.255   5.300   5.736
45205W        W 4466  29.092  38.047  10.896
45206W        W 4467  43.365   1.272  14.347
45207W        W 4468  33.888  43.325  14.887
45208W        W 4469  23.695  43.003  13.513
45209W        W 4470  12.678   0.423  11.481
45210W        W 4471  43.961   2.810  13.435
45211W        W 4472  29.623  36.376   1.762
45212W        W 4473  40.978  12.618   2.256
45213W        W 4474  27.447  16.577   1.371
45214W        W 4475  25.615  18.737  12.558
45215W        W 4476   7.788   7.244   5.604
45216W        W 4477   1.904  18.772   3.752
45217W        W 4478  24.976  31.066   1.756
45218W        W 4479  24.026  10.181  10.156
45219W        W 4480  28.102   6.821  10.600
45220W        W 4481  40.322  13.188  10.573
45221W        W 4482  20.133  20.544  14.339
45222W        W 4483   1.482   3.273  12.389
45223W        W 4484  44.318  13.290   4.740
45224W        W 4485   2.897  10.675   0.777
45225W        W 4486  31.014   8.222   4.124
45226W        W 4487  26.470  16.643  10.449
45227W        W 4488  12.812  19.167  13.917
45228W        W 4489  36.474   3.268   2.886
45229W        W 4490  13.111  15.807  13.442
45230W        W 4491  28.674  24.556   3.323
45231W        W 4492  32.115  30.649  14.330
45232W        W 4493  29.975  28.944   3.749
45233W        W 4494  10.802  23.015  12.020
45234W        W 4495  23.607  16.701   1.351
45235W        W 4496  11.812   8.342  10.435
45236W        W 4497  41.832   4.764  14.411
45237W        W 4498  26.128  41.822   2.707
45238W        W 4499   7.275  32.399  12.823
45239W        W 4500  15.725   3.742   1.857
45240W        W 4501  30.908  38.472   2.189
45241W        W 4502   2.793  19.248   4.299
45242W        W 4503  27.511  35.360  14.455
45243W        W 4504  27.461  11.367   2.319
45244W        W 4505   6.400   8.363   2.812
45245W        W 4506  38.004   5.787  12.470
45246W        W 4507  10.666  32.040   0.940
45247W        W 4508  41.998  38.939   2.749
45248W        W 4509   1.931  23.011   1.844
45249W        W 4510   0.272  39.835   1.355
45250W        W 4511  23.133  21.256   4.813
45251W        W 4512  24.088  33.595   2.307
45252W        W 4513  10.224  19.255  11.076
45253W        W 4514  13.729  33.013   4.617
45254W        W 4515  34.410  37.902  13.420
45255W        W 4516  13.602  32.507  12.376
45256W        W 4517  19.592  32.432  13.336
45257W        W 4518  24.583  17.115  12.017
45258W        W 4519  40.854  20.603   3.655
45259W        W 4520  25.500  15.772   3.241
45260W        W 4521   0.877  43.825  10.516
45261W        W 4522   4.416  25.685  14.369
45262W        W 4523   2.326   4.735  13.421
45263W        W 4524  19.578  31.560   2.243
45264W        W 4525   4.745   1.765   4.133
45265W        W 4526   7.683  29.479   1.267
45266W        W 4527  23.192  10.182   2.282
45267W        W 4528  27.602   4.236   5.135
45268W        W 4529  23.499  37.891  10.949
45269W        W 4530  27.545  29.003   0.807
45270W        W 4531  13.294  17.617   2.842
45271W        W 4532  13.193  28.092  13.384
45272W        W 4533  24.585  29.478  12.351
45273W        W 4534  38.902  42.384   2.287
45274W        W 4535  30.631  35.498   0.884
45275W        W 4536  13.239  36.860   1.696
45276W        W 4537  26.548  22.155   0.287
45277W        W 4538  13.692  40.816   3.685
45278W        W 4539  34.864   6.852   0.473
45279W        W 4540  14.797  16.162   0.760
45280W        W 4541   2.930  19.172   3.378
45281W        W 4542  15.173  42.928   1.746
45282W        W 4543   6.759  14.288   0.811
45283W        W 4544  12.339   6.421   2.870
45284W        W 4545  25.006   2.346  14.433
45285W        W 4546  21.648  17.720  10.996
45286W        W 4547  32.576  43.367  12.955
45287W        W 4548  22.602  38.822  11.110
45288W        W 4549  25.659  24.566  14.958
45289W        W 4550  33.505  24.489   4.714
45290W        W 4551  44.418  20.107   3.730
45291W        W 4552  26.626  12.752   5.296
45292W        W 4553   0.943  25.093   0.280
45293W        W 4554  39.876  10.702  11.605
45294W        W 4555  35.365  16.293  13.053
45295W        W 4556  41.861  39.930   3.267
45296W        W 4557  17.796  21.605  11.532
45297W        W 4558  19.646  17.606  13.062
45298W        W 4559  11.179  19.082  14.395
45299W        W 4560  29.047   2.320  13.528
45300W        W 4561  41.884  21.634   4.208
45301W        W 4562  43.360  40.432  12.579
45302W        W 4563  27.666  43.400   2.192
45303W        W 4564   8.752  27.979   5.207
45304W        W 4565  38.515  21.251   4.833
45305W        W 4566   2.469  41.955  14.411
45306W        W 4567  26.993  40.456   2.861
45307W        W 4568  28.944   1.792   5.594
45308W        W 4569  28.981   8.667   1.883
45309W        W 4570   9.872   2.875  13.415
45310W        W 4571   8.710  18.658   1.844
45311W        W 4572  16.809  35.971  11.548
45312W        W 4573   8.719  13.743  11.080
45313W        W 4574  32.902  22.033   3.827
45314W        W 4575  11.755   6.817   1.729
45315W        W 4576  16.700  11.369  11.930
45316W        W 4577  41.871  28.059  10.584
45317W        W 4578  17.658   3.229   2.703
45318W        W 4579  27.128  44.354  11.878
45319W        W 4580  24.146  24.095  13.383
45320W        W 4581  23.563  33.096   2.371
45321W        W 4582   8.750  26.664  10.558
45322W        W 4583  36.482  18.709   3.199
45323W        W 4584   1.318   9.182   0.868
45324W        W 4585  39.464  28.568   2.800
45325W        W 4586  15.599  32.977   1.926
45326W        W 4587  11.665  29.958   0.468
45327W        W 4588   8.674  27.038  11.969
45328W        W 4589  13.238  26.603   1.409
45329W        W 4590  25.682  14.152   3.258
45330W        W 4591  20.138   2.897  13.497
45331W        W 4592  26.598  16.312   2.727
45332W        W 4593  41.017  19.043   3.833
45333W        W 4594   8.388  35.506   0.457
45334W        W 4595  19.106   1.785  11.040
45335W        W 4596   1.950  12.752   3.156
45336W        W 4597  39.986   3.368   2.395
45337W        W 4598  33.055  33.419   4.208
45338W        W 4599   4.422  11.829  11.941
45339W        W 4600  19.189  35.101   0.956
45340W        W 4601   7.784  44.476  14.367
45341W        W 4602  36.564   6.285  11.533
45342W        W 4603   1.978  39.537   0.472
45343W        W 4604  19.262   3.437  11.377
45344W        W 4605   9.754   1.755  10.446
45345W        W 4606  18.220   7.198  14.817
45346W        W 4607  36.927   9.190   0.433
45347W        W 4608  18.591  36.365  10.598
45348W        W 4609  16.732  32.466  13.379
45349W        W 4610  19.266  36.583  12.026
45350W        W 4611  37.931  37.471   9.480
45351W        W 4612  37.348  20.754  12.439
45352W        W 4613   3.750  11.364   1.814
45353W        W 4614  29.537  21.519   2.718
45354W        W 4615  31.585  25.613  12.058
45355W        W 4616  10.176  24.021  10.600
45356W        W 4617  16.628  10.645  10.621
45357W        W 4618  12.293  43.973   2.762
45358W        W 4619  22.169  34.899  12.953
45359W        W 4620  24.671  35.910   2.262
45360W        W 4621   4.876  39.419  12.079
45361W        W 4622  12.728  18.080   4.269
45362W        W 4623  24.106  12.136  10.501
45363W        W 4624  41.496  36.934   0.349
45364W        W 4625  32.955   0.755   3.642
45365W        W 4626  38.570  36.565  13.392
45366W        W 4627  25.506   9.163   3.735
45367W        W 4628   0.829   8.381   1.866
45368W        W 4629  21.121  24.194   3.788
45369W        W 4630  11.256  38.376   1.406
45370W        W 4631  23.226  11.160   3.677
45371W        W 4632  21.567   3.736  13.989
45372W        W 4633  34.545  21.523  10.428
45373W        W 4634  22.524   1.867  14.873
45374W        W 4635  27.032  29.939   0.770
45375W        W 4636  26.098  13.763   1.301
45376W        W 4637  20.682  27.542  12.504
45377W        W 4638   9.318  22.541   2.755
45378W        W 4639  11.724  29.509  10.606
45379W        W 4640   0.901  34.405   4.311
45380W        W 4641  44.915  32.907  11.513
45381W        W 4642  14.708   5.817  14.441
45382W        W 4643  14.643  10.687   2.704
45383W        W 4644  39.879  40.852   2.413
45384W        W 4645  27.012  20.115  14.956
45385W        W 4646  11.326  10.716  11.978
45386W        W 4647   8.271  12.306  10.437
45387W        W 4648  28.162  33.483   3.187
45388W        W 4649  30.075  20.569  13.012
45389W        W 4650  29.453  29.565  14.983
45390W        W 4651  30.553  43.864   1.334
45391W        W 4652  25.661  44.860   0.879
45392W        W 4653   6.889  16.257   4.163
45393W        W 4654  30.435  16.314   3.195
45394W        W 4655  20.741  25.118  10.531
45395W        W 4656  42.022  39.843  14.365
45396W        W 4657   3.932   2.470   3.199
45397W        W 4658  30.942  33.073  11.560
45398W        W 4659  31.019  21.673   3.318
45399W        W 4660  12.128  25.639   2.227
45400W        W 4661   2.270   9.705  11.035
45401W        W 4662  35.946  26.636  12.531
45402W        W 4663  14.271  19.230   2.828
45403W        W 4664   1.355  26.496  10.936
45404W        W 4665   7.311  39.863  11.928
45405W        W 4666  24.993  28.534   0.283
45406W        W 4667   0.452  15.596  10.041
45407W        W 4668   6.706  38.388  10.579
45408W        W 4669  34.544  25.136   1.877
45409W        W 4670  41.463  32.545  11.939
45410W        W 4671  40.315  24.057   2.406
45411W        W 4672   3.889   6.254  14.494
45412W        W 4673  18.669  27.551   1.902
45413W        W 4674  36.933  14.126  13.431
45414W        W 4675  44.475   1.970  10.627
45415W        W 4676  19.657  39.393   1.235
45416W        W 4677   7.763  15.695   4.686
45417W        W 4678  38.041  37.345   3.797
45418W        W 4679   8.238  20.590   4.650
45419W        W 4680   0.889  20.068   1.765
45420W        W 4681  20.110  31.043   2.242
45421W        W 4682  13.843  17.732  13.944
45422W        W 4683  43.441  39.827   3.714
45423W        W 4684   4.866  43.900  12.493
45424W        W 4685  11.214   7.276   4.283
45425W        W 4686  21.187   2.877   0.821
45426W        W 4687  29.005  32.538   3.833
45427W        W 4688  28.948  25.578  11.543
45428W        W 4689  30.050  43.317  13.456
45429W        W 4690  42.478   8.324  10.446
45430W        W 4691  15.225   6.911   3.316
45431W        W 4692  36.569  37.575  11.487
45432W        W 4693   9.648  30.504   4.225
45433W        W 4694  35.507  15.165  14.764
45434W        W 4695   0.816   1.876  11.417
45435W        W 4696  35.498   8.725  12.989
45436W        W 4697  14.631   4.212  11.074
45437W        W 4698   9.368  25.675   1.727
45438W        W 4699  38.420  42.512   3.804
45439W        W 4700  38.350  25.694  13.830
45440W        W 4701  31.576  28.592  14.922
45441W        W 4702   0.801  34.058  11.553
45442W        W 4703  14.623   9.768  11.600
45443W        W 4704  43.427  42.953  12.053
45444W        W 4705  44.338  19.169  10.465
45445W        W 4706  15.306  27.451   1.769
45446W        W 4707  19.173  21.526   1.803
45447W        W 4708  28.663  19.536  10.891
45448W        W 4709   7.828  23.185   2.367
45449W        W 4710   5.412  14.110  14.417
45450W        W 4711  17.250  23.105   2.896
45451W        W 4712  40.420  18.765   3.870
45452W        W 4713   5.826   8.382   2.321
45453W        W 4714  15.277   1.875  10.918
45454W        W 4715  31.413  33.909   1.445
45455W        W 4716  32.513  34.544   0.772
45456W        W 4717  22.547   7.842   1.321
45457W        W 4718  11.673  32.966  11.602
45458W        W 4719  34.012  19.631   4.125
45459W        W 4720  25.564  38.977   2.363
45460W        W 4721  31.031   5.688  12.005
45461W        W 4722  15.617  30.937  14.410
45462W        W 4723  18.609  13.283  13.532
45463W        W 4724  34.554  31.436  11.992
45464W        W 4725   3.265  26.066   3.223
45465W        W 4726  28.621  32.419  13.023
45466W        W 4727  35.873  14.714  10.566
45467W        W 4728  26.102  17.150  13.507
45468W        W 4729  23.696  35.588  14.291
45469W        W 4730  42.407  37.529   9.976
45470W        W 4731  22.158  29.941  12.037
45471W        W 4732   8.237   0.464  11.449
45472W        W 4733  41.924  39.439  13.021
45473W        W 4734  21.171  15.599   5.113
45474W        W 4735  39.354  22.095   3.174
45475W        W 4736  38.350  17.246  12.971
45476W        W 4737  18.636  25.032  10.631
45477W        W 4738  10.200  18.149  11.969
45478W        W 4739  33.598  41.907   1.712
45479W        W 4740  23.180  24.518   3.219
45480W        W 4741  23.578  37.576   1.243
45481W        W 4742  11.149  15.767   1.355
45482W        W 4743  44.007   5.329   1.352
45483W        W 4744  14.328  19.222  12.446
45484W        W 4745  30.051  37.059  12.029
45485W        W 4746  20.634  35.084  11.500
45486W        W 4747  11.851   5.830   1.409
45487W        W 4748  15.128  21.604   0.924
45488W        W 4749  35.482  38.899   3.710
45489W        W 4750   6.228  15.778  14.316
45490W        W 4751  37.409  24.545   0.398
45491W        W 4752   0.412  21.103  11.409
45492W        W 4753  35.052   4.745   4.814
45493W        W 4754  17.177  24.022   4.779
45494W        W 4755  43.818  26.604  10.633
45495W        W 4756   9.311  28.025   1.744
45496W        W 4757  20.209  23.210   0.744
45497W        W 4758  32.931   6.819  13.805
45498W        W 4759  25.637  23.490   2.358
45499W        W 4760  43.858  34.570  11.877
45500W        W 4761   5.299  43.767  10.408
45501W        W 4762   0.815  43.338   3.643
45502W        W 4763  26.152  13.701  13.958
45503W        W 4764  26.997  35.876  14.914
45504W        W 4765  28.099  21.215   3.385
45505W        W 4766   8.346  37.566   3.254
45506W        W 4767  17.618  43.317   4.767
45507W        W 4768  40.939   4.375  11.409
45508W        W 4769   1.764  41.827   5.215
45509W        W 4770  39.949  40.806   1.241
45510W        W 4771  19.765  15.281   0.357
45511W        W 4772   5.399  19.223   0.307
45512W        W 4773  24.018  18.574   3.176
45513W        W 4774  27.017  18.063  14.500
45514W        W 4775  35.956  15.167  13.365
45515W        W 4776   7.698  11.199   1.380
45516W        W 4777  23.630  22.506   3.735
45517W        W 4778   3.403  42.811   4.153
45518W        W 4779  27.135   9.210   1.240
45519W        W 4780  12.665  24.660   0.287
45520W        W 4781  20.080  38.413  13.509
45521W        W 4782   9.200  29.494   2.719
45522W        W 4783  18.784  11.334   1.877
45523W        W 4784  11.635   7.205  10.639
45524W        W 4785  12.250  23.991  12.435
45525W        W 4786   6.346  36.050   0.357
45526W        W 4787  42.818  41.446  11.496
45527W        W 4788   8.357   2.244  12.442
45528W        W 4789   2.291   6.710   1.341
45529W        W 4790  35.481  22.150   4.160
45530W        W 4791   2.823  28.556   2.178
45531W        W 4792  38.448  33.011   2.227
45532W        W 4793  40.933  27.642   4.251
45533W        W 4794  44.781   2.881  11.978
45534W        W 4795  23.210  10.733  12.364
45535W        W 4796  43.452   6.364  12.413
45536W        W 4797  12.823  12.851   1.783
45537W        W 4798  30.639  34.461   3.235
45538W        W 4799  23.099  15.795   0.362
45539W        W 4800  13.838  10.290  13.489
45540W        W 4801   1.360  24.069   2.682
45541W        W 4802   8.183  36.015   0.475
45542W        W 4803  25.977  38.346   1.831
45543W        W 4804  42.466  23.095   0.794
45544W        W 4805  26.499  30.943   2.667
45545W        W 4806  35.991   1.304  13.805
45546W        W 4807  30.504  11.193  13.375
45547W        W 4808  26.040  37.487   4.155
45548W        W 4809   6.734   2.927  11.864
45549W        W 4810  12.815  32.955   3.375
45550W        W 4811  13.317  10.825  12.065
45551W        W 4812  40.033  31.636   0.933
45552W        W 4813  43.862  28.083  13.892
45553W        W 4814  24.584   2.910  10.938
45554W        W 4815  39.513  44.964  10.915
45555W        W 4816  32.008  27.490  13.863
45556W        W 4817  44.934   7.898   0.285
45557W        W 4818  43.357  12.752   4.264
45558W        W 4819  28.611  12.245  11.407
45559W        W 4820  10.768  38.820   1.709
45560W        W 4821  42.283  44.421  11.597
45561W        W 4822  10.205  33.052   1.723
45562W        W 4823   0.416  25.712  13.964
45563W        W 4824  10.720  10.764  10.552
45564W        W 4825  16.125  11.745   0.860
45565W        W 4826  22.192  22.554  10.987
45566W        W 4827  11.864  30.563   4.301
45567W        W 4828  31.600  34.489  14.329
45568W        W 4829  33.934  19.203  10.902
45569W        W 4830  18.086   3.244  13.898
45570W        W 4831  35.033   6.770   1.795
45571W        W 4832  21.544  18.657   1.891
45572W        W 4833  39.043  13.226   0.303
45573W        W 4834  25.509  35.537  11.860
45574W        W 4835  37.893  14.269   1.387
45575W        W 4836  26.701  38.829   3.313
45576W        W 4837  32.086  26.598  14.817
45577W        W 4838  32.549   0.286   2.201
45578W        W 4839   2.324  31.917   1.932
45579W        W 4840  34.536  31.062  12.521
45580W        W 4841  19.664  28.639  11.379
45581W        W 4842  38.877  31.421   2.243
45582W        W 4843   1.887  21.201   0.945
45583W        W 4844   6.364   2.421  10.918
45584W        W 4845  27.997  21.024  12.018
45585W        W 4846  36.873  23.585  13.927
45586W        W 4847  16.278  23.590  11.395
45587W        W 4848  11.803   4.264  12.510
45588W        W 4849  17.230  36.054  12.408
45589W        W 4850   8.673  33.429   1.780
45590W        W 4851   0.939  22.719  14.428
45591W        W 4852  26.573  22.192  14.275
45592W        W 4853   8.790  12.777   0.318
45593W        W 4854  26.532  10.338  13.906
45594W        W 4855  12.336   9.765   1.397
45595W        W 4856   1.770  14.684  11.865
45596W        W 4857  38.464   7.391  12.970
45597W        W 4858  33.109  24.081  14.759
45598W        W 4859   1.417  40.351   2.378
45599W        W 4860   7.179  23.649  12.473
45600W        W 4861  28.624  39.896  14.477
45601W        W 4862   7.200   8.245  10.157
45602W        W 4863  29.108  44.272  14.851
45603W        W 4864  11.701  28.446   4.208
45604W        W 4865  34.372  25.601  13.866
45605W        W 4866  37.078   2.466  14.350
45606W        W 4867   3.391  38.521   1.704
45607W        W 4868  23.734  18.143  14.759
45608W        W 4869  20.266  36.049  11.968
45609W        W 4870  40.842  39.432   0.772
45610W        W 4871   9.285  42.783  12.520
45611W        W 4872  30.579   7.339   2.298
45612W        W 4873  22.244  42.030   3.647
45613W        W 4874   5.311  24.636  13.048
45614W        W 4875   3.769  36.530  14.926
45615W        W 4876  34.612  25.490   3.165
45616W        W 4877   0.859  15.239   1.413
45617W        W 4878  24.024  35.879  11.560
45618W        W 4879  13.285  31.057  10.926
45619W        W 4880  18.595   4.938   0.774
45620W        W 4881  35.001  25.154  12.541
45621W        W 4882  26.649  31.489   0.789
45622W        W 4883  29.424   8.707  11.530
45623W        W 4884  15.793  33.457  13.837
45624W        W 4885  30.074   0.842   4.300
45625W        W 4886  23.690  19.110  13.442
45626W        W 4887  19.216  21.733  14.797
45627W        W 4888   4.359  15.651  11.985
45628W        W 4889  21.066  38.892   2.351
45629W        W 4890  14.290  27.196   3.736
45630W        W 4891  42.874  20.707   3.344
45631W        W 4892  38.549  16.149   1.891
45632W        W 4893  40.017  15.134   3.351
45633W        W 4894   9.209  10.830  14.468
45634W        W 4895  41.980  41.385   2.851
45635W        W 4896  38.917  36.450  12.057
45636W        W 4897   9.286  41.040  13.798
45637W        W 4898  43.282  24.039   4.242
45638W        W 4899  24.106  34.017  13.828
45639W        W 4900   1.871  12.239  11.378
45640W        W 4901  22.627  17.617   0.901
45641W        W 4902   8.672  28.549   2.321
45642W        W 4903  19.708  10.245   3.851
45643W        W 4904  41.368  43.482   5.207
45644W        W 4905  13.670  37.575   2.902
45645W        W 4906  16.773  31.089   3.220
45646W        W 4907   4.907  19.063  11.397
45647W        W 4908  13.837   3.296  13.943
45648W        W 4909  18.773  10.181   1.845
45649W        W 4910  34.072  43.013  13.380
45650W        W 4911  36.043  42.886  10.623
45651W        W 4912  42.807   2.469  13.825
45652W        W 4913  43.444  39.522   2.189
45653W        W 4914  35.949  25.055   1.330
45654W        W 4915  41.336  20.645   1.342
45655W        W 4916  14.606  39.337  11.870
45656W        W 4917  15.667  24.142  12.503
45657W        W 4918  43.003   9.746   4.643
45658W        W 4919  33.516  44.481   2.865
45659W        W 4920  31.030  43.379   1.714
45660W        W 4921  41.438  18.550   0.938
45661W        W 4922  19.179  40.400   2.674
45662W        W 4923   3.908  20.148   0.865
45663W        W 4924  21.692  22.137  13.498
45664W        W 4925  26.036  35.854   0.354
45665W        W 4926  44.259  33.034  12.883
45666W        W 4927  38.527  33.576   3.294
45667W        W 4928  37.916  21.042   2.324
45668W        W 4929   2.921  17.303   1.440
45669W        W 4930  33.541   3.358  10.454
45670W        W 4931   7.256  17.105   4.597
45671W        W 4932  39.526  36.058  12.356
45672W        W 4933  36.505  10.710  13.881
45673W        W 4934   4.439   5.779  13.487
45674W        W 4935  27.129  29.919   3.344
45675W        W 4936  32.619  22.161  14.818
45676W        W 4937  29.976   3.360   2.693
45677W        W 4938  44.928  41.040   4.200
45678W        W 4939  26.072  41.319   2.316
45679W        W 4940   7.210  43.979   0.251
45680W        W 4941  43.419  26.673   3.216
45681W        W 4942  14.124   6.230  11.855
45682W        W 4943  30.960  15.197  14.955
45683W        W 4944  42.424  26.049   2.662
45684W        W 4945  27.184  13.628  12.066
45685W        W 4946  14.828  22.193   2.802
45686W        W 4947  41.422   6.219   0.436
45687W        W 4948  22.719  14.177  14.380
45688W        W 4949   9.683  36.938  14.865
45689W        W 4950  26.698  13.669  13.343
45690W        W 4951  29.443  34.877  10.500
45691W        W 4952  13.804  21.079  12.380
45692W        W 4953  31.012   4.701   0.942
45693W        W 4954   4.777  12.152  13.539
45694W        W 4955   2.354  21.562  13.861
45695W        W 4956  32.024   7.353   0.907
45696W        W 4957  12.323  17.792  11.997
45697W        W 4958  20.090  11.274   3.307
45698W        W 4959  29.960  17.630  14.331
45699W        W 4960  12.305  22.069  13.981
45700W        W 4961  33.544  13.264   2.818
45701W        W 4962   9.272  42.289   4.231
45702W        W 4963  14.745  15.104  11.892
45703W        W 4964  24.040   0.441   4.650
45704W        W 4965  37.424  36.375   5.209
45705W        W 4966   5.313  31.449  13.518
45706W        W 4967   6.391  15.632  10.573
45707W        W 4968  10.670  18.218   2.723
45708W        W 4969  25.185  19.710   0.944
45709W        W 4970   9.759  30.017  12.982
45710W        W 4971  22.689  40.027  11.880
45711W        W 4972  21.032  11.221   3.861
45712W        W 4973  25.129  35.375  12.079
45713W        W 4974  41.801  33.114   0.820
45714W        W 4975  33.903  11.762  12.897
45715W        W 4976  29.540  41.396  11.989
45716W        W 4977  24.585  39.828  11.114
45717W        W 4978   9.160   2.759  12.349
45718W        W 4979   4.762  31.036   2.731
45719W        W 4980  15.770  28.058  11.562
45720W        W 4981  41.875  11.651  14.922
45721W        W 4982  21.604  43.442   1.281
45722W        W 4983  29.082  14.281   3.746
45723W        W 4984  30.440  43.512  12.897
45724W        W 4985  27.085  18.232  11.906
45725W        W 4986  20.660  12.793   3.633
45726W        W 4987   1.248  13.141   0.321
45727W        W 4988  12.241  32.469   1.721
45728W        W 4989  26.531  33.480   1.921
45729W        W 4990   9.160  24.029  10.435
45730W        W 4991  43.927   8.660   4.245
45731W        W 4992  15.720  16.576  13.527
45732W        W 4993  41.409  41.880   4.274
45733W        W 4994  37.541  15.259   3.651
45734W        W 4995  20.544  25.474  11.892
45735W        W 4996   4.449  32.556  11.102
45736W        W 4997  20.168  38.881  10.456
45737W        W 4998  18.137  29.656  14.808
45738W        W 4999  32.488  17.297   4.185
45739W        W 5000  35.950  19.544   2.389
45740W        W 5001  21.095   6.812   0.423
45741W        W 5002  38.876  22.122   9.983
45742W        W 5003  10.189  29.929  10.541
45743W        W 5004  33.995  15.761  13.989
45744W        W 5005  10.863  23.668  13.507
45745W        W 5006  11.836  23.150   3.649
45746W        W 5007  34.082  34.001   0.439
45747W        W 5008  37.917  33.944  12.460
45748W        W 5009  42.888  19.284   3.782
45749W        W 5010   6.840   2.950  12.452
45750W        W 5011  35.474  32.939   2.308
45751W        W 5012  21.191   8.389  11.560
45752W        W 5013  31.044  28.497   0.449
45753W        W 5014  10.257  39.850  14.922
45754W        W 5015  40.307  43.390   1.780
45755W        W 5016  26.032  14.245  11.509
45756W        W 5017  41.391  41.924  13.030
45757W        W 5018   3.353   9.715   4.734
45758W        W 5019   0.445  27.115  11.903
45759W        W 5020  18.075  16.197  12.852
45760W        W 5021  36.359  41.919  10.496
45761W        W 5022   1.778  23.716   1.821
45762W        W 5023  39.055  35.568  11.592
45763W        W 5024   5.837  22.158  10.524
45764W        W 5025  41.792  38.054   0.864
45765W        W 5026  38.933  24.662   1.389
45766W        W 5027  23.536  24.040   1.718
45767W        W 5028   4.831   4.708  14.380
45768W        W 5029   4.397  21.057  14.482
45769W        W 5030  29.513  32.081  10.614
45770W        W 5031  22.602   8.242   4.651
45771W        W 5032  44.456  32.992   0.352
45772W        W 5033  22.731  20.691   2.248
45773W        W 5034  29.944  40.522   2.750
45774W        W 5035  12.814  23.113  11.440
45775W        W 5036  26.669  11.199  12.345
45776W        W 5037   1.969   9.660  14.775
45777W        W 5038  40.432  17.143  11.577
45778W        W 5039  25.538  43.986   0.266
45779W        W 5040  10.772  33.492  13.842
45780W        W 5041   4.407  41.911  13.836
45781W        W 5042  30.611  15.658   2.864
45782W        W 5043  24.017  36.022   3.828
45783W        W 5044  11.800   2.943  14.795
45784W        W 5045  33.007  16.300   4.211
45785W        W 5046  12.360  25.081   4.737
45786W        W 5047  37.502  35.022   3.322
45787W        W 5048   7.691  14.743   0.277
45788W        W 5049  43.908  27.578   3.785
45789W        W 5050  42.512  28.100   0.398
45790W        W 5051  17.722  12.154   1.360
45791W        W 5052   3.351  11.126   3.706
45792W        W 5053  26.536  44.273   2.727
45793W        W 5054  43.400  36.582  11.983
45794W        W 5055  11.360  15.217  13.333
45795W        W 5056   4.747  29.542   1.284
45796W        W 5057  15.132   6.420  14.407
45797W        W 5058  30.109  33.034   0.265
45798W        W 5059  21.069   2.251  13.530
45799W        W 5060  39.358   5.769  10.982
45800W        W 5061  18.712  10.730  11.009
45801W        W 5062   5.821   7.912   1.882
45802W        W 5063  40.383  27.493   3.338
45803W        W 5064  14.783  18.222  11.004
45804W        W 5065  26.574  26.001   4.289
45805W        W 5066  25.664   5.240   2.842
45806W        W 5067  44.373  25.006  10.995
45807W        W 5068  36.480  42.360  13.388
45808W        W 5069  34.894  17.282  13.010
45809W        W 5070  37.555  14.730  11.119
45810W        W 5071   4.700  32.536  14.883
45811W        W 5072  29.589   5.761  12.437
45812W        W 5073  12.746  27.484   0.377
45813W        W 5074   2.874  19.763   4.619
45814W        W 5075  27.110  25.525   4.322
45815W        W 5076  16.593   9.324  11.583
45816W        W 5077   6.325   4.761   2.319
45817W        W 5078   1.837  34.037   0.788
45818W        W 5079  39.440  25.482   3.258
45819W        W 5080   6.356  44.867  12.526
45820W        W 5081  24.114  29.499  10.029
45821W        W 5082  37.017  38.359   0.445
45822W        W 5083  44.266  35.488   1.430
45823W        W 5084  12.331  22.572  13.885
45824W        W 5085  27.026  34.042   1.811
45825W        W 5086  24.718  29.653   1.335
45826W        W 5087  30.952  37.366  12.487
45827W        W 5088  12.717  29.631  10.944
45828W        W 5089  11.787  16.262   0.831
45829W        W 5090   7.687  40.812   4.349
45830W        W 5091   0.962  16.179  10.072
45831W        W 5092  10.295  13.312   3.334
45832W        W 5093   7.861  36.544  12.960
45833W        W 5094  38.524  28.048   4.214
45834W        W 5095  16.745  44.396   1.899
45835W        W 5096  32.451  29.966   1.352
45836W        W 5097  38.063  10.303  11.956
45837W        W 5098  22.195  23.563  11.992
45838W        W 5099  43.000  20.237  14.346
45839W        W 5100  27.451  35.476  14.983
45840W        W 5101   7.243  38.537   3.771
45841W        W 5102  14.254  43.970  11.948
45842W        W 5103   7.756  11.823   4.241
45843W        W 5104   0.329   4.881   4.248
45844W        W 5105  18.565  38.427  11.102
45845W        W 5106   2.382  38.074  10.444
45846W        W 5107  12.623  34.879   4.218
45847W        W 5108   2.842  12.273  13.324
45848W        W 5109  35.402   1.352  14.822
45849W        W 5110  11.206  30.618   4.654
45850W        W 5111  13.289   2.310   4.159
45851W        W 5112  31.143  23.659   3.292
45852W        W 5113  29.638  27.949   0.340
45853W        W 5114   1.813  16.637   4.264
45854W        W 5115  37.837  33.483  11.125
45855W        W 5116  27.177   9.315   4.708
45856W        W 5117  43.872   1.260   0.398
45857W        W 5118   3.898   0.271   4.817
45858W        W 5119  24.989  30.508   0.259
45859W        W 5120  21.659  30.147  13.881
45860W        W 5121  18.234  19.053  13.462
45861W        W 5122  33.030  26.005   4.653
45862W        W 5123  28.976   8.885  12.527
45863W        W 5124  26.013  22.570   0.272
45864W        W 5125  34.460  41.011   4.167
45865W        W 5126  17.720  31.570  13.992
45866W        W 5127  14.106  16.116  11.064
45867W        W 5128   7.244  23.034  13.434
45868W        W 5129  32.058  34.092   0.761
45869W        W 5130  40.531   3.395   5.255
45870W        W 5131  22.715   8.885  11.856
45871W        W 5132   9.797  40.471  11.428
45872W        W 5133   9.383   4.939   3.303
45873W        W 5134  26.457   0.366   1.791
45874W        W 5135  25.499   1.885   3.206
45875W        W 5136  18.717  28.609  13.000
45876W        W 5137  33.457  29.477   0.354
45877W        W 5138  23.584   7.355  12.972
45878W        W 5139  32.425  12.228   0.864
45879W        W 5140  28.615  30.488  10.905
45880W        W 5141  29.102  13.758   3.205
45881W        W 5142  35.442   4.749  14.028
45882W        W 5143  14.593  23.491   1.831
45883W        W 5144  25.203  10.811   0.911
45884W        W 5145  11.340  21.669   2.848
45885W        W 5146   9.271  10.179   3.263
45886W        W 5147   8.846  33.020  12.952
45887W        W 5148  17.155  33.087   4.737
45888W        W 5149  10.775  13.740  12.509
45889W        W 5150  10.381   6.233  14.350
45890W        W 5151  38.371  40.980  12.428
45891W        W 5152  24.576  14.594  12.360
45892W        W 5153  33.994  36.578   0.386
45893W        W 5154  28.152  30.980   3.162
45894W        W 5155  10.193  40.840   4.263
45895W        W 5156  30.034   3.758  11.051
45896W        W 5157   4.259  26.683  10.995
45897W        W 5158  37.047  14.177  14.357
45898W        W 5159  18.613  40.532  11.044
45899W        W 5160  21.710  26.460   2.803
45900W        W 5161   4.218  37.031  10.459
45901W        W 5162  38.399  24.488   1.922
45902W        W 5163  17.256  40.355  14.760
45903W        W 5164   6.736  12.224  14.304
45904W        W 5165  41.498   6.246  12.829
45905W        W 5166  16.785  21.243  11.502
45906W        W 5167  20.155  40.496   0.450
45907W        W 5168  43.784  18.731  13.499
45908W        W 5169  13.337  12.288   1.425
45909W        W 5170  16.805  16.164   4.330
45910W        W 5171  15.282  25.136   1.891
45911W        W 5172  21.094  21.043  11.467
45912W        W 5173  26.016   3.225  10.503
45913W        W 5174  33.394   1.483  11.542
45914W        W 5175   0.414   2.859   4.182
45915W        W 5176  26.161  15.132   1.780
45916W        W 5177  13.112   8.811  10.552
45917W        W 5178  32.506  10.842   1.882
45918W        W 5179  35.546  34.005  14.371
45919W        W 5180  19.158  38.421   4.249
45920W        W 5181  38.933   4.256  14.009
45921W        W 5182  14.819  11.707   1.705
45922W        W 5183  35.419   9.221   2.894
45923W        W 5184  26.637  32.956   2.189
45924W        W 5185  43.407  11.128   1.363
45925W        W 5186  34.941  36.517  12.926
45926W        W 5187  14.098  44.993   0.956
45927W        W 5188  25.560   0.490  14.014
45928W        W 5189   3.361  28.533  12.428
45929W        W 5190  33.393  33.594  14.490
45930W        W 5191  34.567  19.570  11.887
45931W        W 5192  42.024  26.589  14.784
45932W        W 5193  22.122  10.270   2.709
45933W        W 5194  13.285   6.203  14.021
45934W        W 5195  33.391   3.834  13.418
45935W        W 5196  39.361  11.277   1.316
45936W        W 5197  20.177  26.990   2.836
45937W        W 5198  27.073  19.067   4.276
45938W        W 5199  31.608   2.324  13.002
45939W        W 5200  29.049  22.531  13.330
45940W        W 5201  33.937   3.414   0.784
45941W        W 5202   0.422   3.782  13.802
45942W        W 5203  20.552  40.993   3.170
45943W        W 5204   1.328  43.840  11.936
45944W        W 5205   2.370  21.673  13.466
45945W        W 5206  42.786  16.269   1.802
45946W        W 5207   1.860   7.244   2.203
45947W        W 5208  32.930   0.313  10.643
45948W        W 5209   8.842  40.980  12.365
45949W        W 5210  24.617  17.111   3.354
45950W        W 5211  25.522   9.784   2.281
45951W        W 5212   8.246   8.792   2.408
45952W        W 5213  26.024  16.776   4.250
45953W        W 5214  37.479   3.937  11.602
45954W        W 5215   0.421  42.804   1.832
45955W        W 5216   0.354   9.823  11.904
45956W        W 5217  39.534  41.802  14.495
45957W        W 5218  41.406  27.656  11.374
45958W        W 5219  30.133  41.860   1.277
45959W        W 5220  32.570  44.806  10.564
45960W        W 5221  23.094  39.499   2.406
45961W        W 5222  21.102  14.323  11.961
45962W        W 5223   3.437   2.386  10.409
45963W        W 5224  35.410  33.478  10.003
45964W        W 5225  13.245   6.707   2.269
45965W        W 5226   7.241  32.442   2.231
45966W        W 5227  25.163  44.293   4.124
45967W        W 5228  39.368  25.089  14.294
45968W        W 5229  19.160   4.341  12.577
45969W        W 5230  32.579  23.550   2.765
45970W        W 5231   9.683   7.359   2.666
45971W        W 5232   9.855   9.381   4.791
45972W        W 5233  24.057   9.868  11.512
45973W        W 5234   5.808   7.223  10.580
45974W        W 5235   0.268  13.793  13.976
45975W        W 5236  40.529  28.632   2.892
45976W        W 5237  38.861  21.577   4.117
45977W        W 5238  11.238  38.551   2.409
45978W        W 5239   6.422  26.029   2.193
45979W        W 5240  12.783  32.012   1.233
45980W        W 5241  25.008   8.712   0.415
45981W        W 5242  20.050  15.128  14.327
45982W        W 5243  35.472   7.414   2.884
45983W        W 5244  24.629  40.398  14.898
45984W        W 5245   6.236  15.793  10.064
45985W        W 5246  18.649  37.404  13.977
45986W        W 5247  22.046   0.423  12.054
45987W        W 5248   2.812  15.719  10.941
45988W        W 5249  12.311  21.591  12.053
45989W        W 5250  35.553  11.306   3.291
45990W        W 5251  36.011  25.677  14.277
45991W        W 5252  12.851  26.055  10.526
45992W        W 5253  32.407  22.611  12.403
45993W        W 5254  11.330  25.037  12.853
45994W        W 5255  26.179  44.853   1.264
45995W        W 5256  10.847  39.836   3.774
45996W        W 5257  39.498  34.933  14.285
45997W        W 5258   4.281   9.349   4.742
45998W        W 5259  19.554  30.999   1.795
45999W        W 5260  32.590   9.332   0.308
46000W        W 5261  17.189  24.519   1.773
46001W        W 5262  35.884  31.050   2.371
46002W        W 5263  15.786  16.679  10.473
46003W        W 5264  36.006  11.189  12.477
46004W        W 5265  41.965  14.769   1.300
46005W        W 5266  37.901  30.628  12.056
46006W        W 5267  30.629  34.112   2.754
46007W        W 5268  32.435  20.588  11.564
46008W        W 5269  25.512  24.501   1.825
46009W        W 5270  21.228  29.501   2.848
46010W        W 5271   6.323  39.010   2.280
46011W        W 5272   3.808  36.071  14.321
46012W        W 5273  16.139  39.857  14.893
46013W        W 5274  39.933  10.873  10.627
46014W        W 5275  15.144  22.069  10.558
46015W        W 5276  37.924  41.395   4.722
46016W        W 5277  35.375  33.513  11.066
46017W        W 5278   5.836  14.638   2.707
46018W        W 5279  43.444   9.831  11.933
46019W        W 5280  43.348  26.502   4.227
46020W        W 5281  14.752  40.452  13.447
46021W        W 5282  27.081  27.186   2.188
46022W        W 5283  29.950  37.012   4.221
46023W        W 5284  31.421  16.296  12.009
46024W        W 5285  35.882  29.965  11.966
46025W        W 5286  28.537  35.875  11.497
46026W        W 5287  35.380   8.290  14.813
46027W        W 5288  42.288   6.785  14.385
46028W        W 5289  20.587  40.888   1.366
46029W        W 5290   6.903  14.685   3.644
46030W        W 5291  39.930   2.760   1.235
46031W        W 5292  40.400  38.997  11.448
46032W        W 5293  35.387   2.757  14.375
46033W        W 5294  21.577   3.232  14.866
46034W        W 5295   8.875  31.128  13.911
46035W        W 5296  20.616  23.673  12.538
46036W        W 5297  16.283  27.506  13.495
46037W        W 5298   6.812  16.734   2.327
46038W        W 5299  25.200  39.429   3.172
46039W        W 5300  30.958   0.766  13.895
46040W        W 5301  39.490  32.420  11.536
46041W        W 5302  41.868  41.444   5.251
46042W        W 5303  40.965  16.737  14.304
46043W        W 5304  24.154  19.229  12.067
46044W        W 5305   4.913  10.693   1.746
46045W        W 5306  16.160  24.041  10.471
46046W        W 5307  26.957  31.540   0.917
46047W        W 5308  33.114  41.013   2.240
46048W        W 5309  21.601  30.589  11.068
46049W        W 5310   6.680  25.510  14.810
46050W        W 5311  41.394  30.577  14.473
46051W        W 5312  42.371  31.978  13.415
46052W        W 5313   5.830  39.384   0.876
46053W        W 5314   6.705  27.609   3.672
46054W        W 5315  22.647  18.236   2.392
46055W        W 5316  22.565  42.841   5.105
46056W        W 5317  43.990  25.568   3.208
46057W        W 5318  36.352  43.377  14.778
46058W        W 5319   3.710  29.031  10.997
46059W        W 5320  38.883   5.198  10.422
46060W        W 5321  21.554   2.374   1.346
46061W        W 5322   1.784  41.010   1.258
46062W        W 5323  15.637  14.742   0.423
46063W        W 5324  38.953   7.405   4.176
46064W        W 5325   1.411  19.107  11.574
46065W        W 5326   6.703  14.665  13.993
46066W        W 5327  27.468  44.996  14.929
46067W        W 5328  30.986  39.910  11.884
46068W        W 5329  26.147   3.340   3.801
46069W        W 5330   4.772  42.026  10.412
46070W        W 5331  32.916  34.891  13.839
46071W        W 5332  31.495  39.863   3.225
46072W        W 5333  35.962  23.236   3.709
46073W        W 5334   8.743  13.724  11.409
46074W        W 5335  42.819   4.808   5.107
46075W        W 5336  13.336  19.200  14.408
46076W        W 5337  36.041  16.673   3.683
46077W        W 5338  29.017  12.358  14.811
46078W        W 5339  18.771  13.639  12.880
46079W        W 5340   3.808   8.659   4.217
46080W        W 5341  15.674  18.647  11.954
46081W        W 5342  19.628  20.530   4.240
46082W        W 5343  14.710  32.954  11.863
46083W        W 5344  41.819  43.791  12.562
46084W        W 5345  32.554  14.694   1.883
46085W        W 5346  17.290  14.714  13.944
46086W        W 5347  13.302  13.348   4.690
46087W        W 5348  12.639  36.555   2.815
46088W        W 5349  18.079  44.474  13.803
46089W        W 5350  18.739  19.164  12.557
46090W        W 5351  41.002  38.349  10.553
46091W        W 5352  10.689  25.044  10.496
46092W        W 5353  17.184   9.831   4.146
46093W        W 5354  43.000  42.912   0.950
46094W        W 5355  33.584   5.697   0.244
46095W        W 5356   1.242  15.597  12.371
46096W        W 5357  38.544  16.791   2.696
46097W        W 5358  42.455  11.778  12.526
46098W        W 5359  36.403   0.252  11.985
46099W        W 5360  40.923  11.297   3.766
46100W        W 5361  29.479  20.236  13.432
46101W        W 5362  24.001  29.546   0.839
46102W        W 5363  43.276  42.334  14.452
46103W        W 5364   5.408  33.444   0.929
46104W        W 5365  37.876  44.468   4.752
46105W        W 5366   8.731  29.462   2.690
46106W        W 5367   9.272  36.387  11.867
46107W        W 5368   6.361  42.455   3.727
46108W        W 5369  38.395  12.315   0.790
46109W        W 5370  31.006  23.714  14.907
46110W        W 5371  38.515  12.633   4.657
46111W        W 5372  26.186  27.150  14.490
46112W        W 5373  18.728  11.314  12.064
46113W        W 5374   9.727  36.861  11.978
46114W        W 5375  38.420  11.622  14.435
46115W        W 5376   0.760  10.369   4.617
46116W        W 5377  13.188  16.289  12.829
46117W        W 5378  44.007  33.003   1.709
46118W        W 5379  10.180  29.079   0.895
46119W        W 5380   5.851  15.308   3.825
46120W        W 5381  33.901  34.043  13.508
46121W        W 5382  28.669  11.201   1.222
46122W        W 5383  10.381  29.081  11.056
46123W        W 5384   4.816  30.576   4.321
46124W        W 5385  34.889  36.469  13.819
46125W        W 5386  27.605  37.534   3.802
46126W        W 5387  29.058  44.407  14.504
46127W        W 5388  39.860  15.766   3.307
46128W        W 5389   2.316  38.562  11.942
46129W        W 5390  34.599  42.324   0.901
46130W        W 5391  26.057  34.920  13.990
46131W        W 5392  13.654  25.024   5.318
46132W        W 5393  21.691  15.619   2.280
46133W        W 5394  36.492   5.416   4.350
46134W        W 5395  19.130   0.423   1.222
46135W        W 5396  13.199  16.267  14.413
46136W        W 5397  32.588  16.768  14.501
46137W        W 5398  43.860   2.723   2.682
46138W        W 5399  31.564  42.395  13.469
46139W        W 5400  42.292  28.065  13.367
46140W        W 5401   6.695  23.062   2.845
46141W        W 5402  20.152  18.142   3.727
46142W        W 5403   7.882  33.985   4.309
46143W        W 5404  42.888  27.974   2.828
46144W        W 5405  32.427   8.338  12.343
46145W        W 5406  20.658  13.138  13.543
46146W        W 5407  32.134   0.478   4.729
46147W        W 5408  20.547  28.567  12.058
46148W        W 5409  35.070  36.038  12.044
46149W        W 5410  31.955  12.669  10.951
46150W        W 5411  28.165  25.596   2.819
46151W        W 5412  12.140  32.055   0.763
46152W        W 5413  42.509  39.493   1.742
46153W        W 5414   5.316  17.304  10.907
46154W        W 5415   3.337  38.353  14.960
46155W        W 5416  12.692  38.561  11.937
46156W        W 5417   2.786  24.977  13.032
46157W        W 5418  18.147   3.924  14.972
46158W        W 5419  41.972   9.794   4.170
46159W        W 5420  34.519  43.374  12.977
46160W        W 5421  18.646  40.978  14.461
46161W        W 5422  14.728  27.005   0.294
46162W        W 5423  37.931   0.272   3.869
46163W        W 5424   1.939  16.764  14.003
46164W        W 5425  28.602   1.785  12.379
46165W        W 5426  23.633  23.560   2.775
46166W        W 5427  24.059  30.642  13.824
46167W        W 5428  39.986   2.290  14.762
46168W        W 5429  19.103  23.132  11.523
46169W        W 5430  32.941   2.411  13.366
46170W        W 5431  14.767  44.897   3.674
46171W        W 5432   0.977  19.533  11.483
46172W        W 5433  43.975  32.079   0.765
46173W        W 5434  33.583  35.934  10.469
46174W        W 5435  35.561   6.243  13.839
46175W        W 5436   2.736   5.201   4.604
46176W        W 5437  37.991  31.481   1.325
46177W        W 5438  23.170  33.952   2.198
46178W        W 5439  32.037   3.901  10.914
46179W        W 5440  16.646   7.342   3.377
46180W        W 5441  33.600  37.072  13.330
46181W        W 5442  18.250  21.700  12.838
46182W        W 5443  26.646  44.875   3.702
46183W        W 5444   7.227   8.720   4.160
46184W        W 5445  29.669  36.948  14.853
46185W        W 5446   8.899   3.849  11.013
46186W        W 5447   6.328  38.023   2.255
46187W        W 5448  39.438  24.165   0.460
46188W        W 5449  39.516  29.031  13.455
46189W        W 5450  42.972  17.620   1.872
46190W        W 5451  28.065  18.689  10.586
46191W        W 5452  29.581  44.261   0.827
46192W        W 5453  21.635  28.180   0.355
46193W        W 5454   5.877  30.986   3.811
46194W        W 5455  35.582   3.883  11.043
46195W        W 5456  17.699   6.190  14.511
46196W        W 5457  44.304  29.606   4.673
46197W        W 5458  36.359  43.939   1.328
46198W        W 5459  37.057  31.582  14.860
46199W        W 5460  22.077   5.222   3.779
46200W        W 5461  35.106   7.212   2.898
46201W        W 5462  30.908  35.954   3.714
46202W        W 5463  23.062  18.642  10.454
46203W        W 5464  12.617  27.151  14.759
46204W        W 5465  44.818   6.741  12.898
46205W        W 5466  41.968  12.819   1.753
46206W        W 5467  25.987  21.637   1.891
46207W        W 5468  30.026   6.717   0.966
46208W        W 5469  27.624  17.629   0.736
46209W        W 5470  44.805  17.556   3.197
46210W        W 5471   4.773  30.610  13.794
46211W        W 5472  15.119  25.498  11.046
46212W        W 5473  12.656  19.627   0.855
46213W        W 5474  36.512  18.175  12.826
46214W        W 5475   6.333  37.346  12.425
46215W        W 5476   3.848  37.503   4.191
46216W        W 5477  18.615  18.749  14.993
46217W        W 5478  11.255  32.085  12.852
46218W        W 5479  19.064  18.282  13.466
46219W        W 5480  17.152  25.539  12.083
46220W        W 5481  23.717  13.261   3.711
46221W        W 5482  28.985  16.720   3.707
46222W        W 5483  17.155  39.348  11.418
46223W        W 5484  14.711  29.046  10.466
46224W        W 5485  35.402  28.969  13.967
46225W        W 5486  21.263  30.548  14.885
46226W        W 5487  41.516  16.212  13.800
46227W        W 5488  27.578   2.826   5.322
46228W        W 5489  20.704  30.066   0.248
46229W        W 5490  17.701   0.455   1.932
46230W        W 5491  10.280   6.208  12.385
46231W        W 5492   1.465  18.051  14.493
46232W        W 5493   8.359  13.136   1.816
46233W        W 5494  16.758  23.636  12.080
46234W        W 5495  29.437  43.943  12.565
46235W        W 5496  11.197  43.016  11.981
46236W        W 5497  12.117  10.319   3.705
46237W        W 5498  14.100   3.435   3.788
46238W        W 5499  22.607  37.414  11.610
46239W        W 5500  13.195   7.674   3.177
46240W        W 5501  41.828  29.430   4.754
46241W        W 5502  10.175  26.468  10.533
46242W        W 5503  43.505   8.203   0.298
46243W        W 5504   0.469  34.973   0.383
46244W        W 5505  35.424  33.023  11.040
46245W        W 5506  15.758  27.166   4.180
46246W        W 5507  30.126  28.122  14.833
46247W        W 5508  41.414  44.781   3.633
46248W        W 5509  35.422   5.234   1.430
46249W        W 5510  25.132  20.708   0.907
46250W        W 5511  17.746   8.184   3.861
46251W        W 5512  30.969   6.818   3.207
46252W        W 5513  17.122  19.050   0.408
46253W        W 5514   4.406  32.620  11.608
46254W        W 5515  30.078  11.286   4.779
46255W        W 5516  15.746  41.484  12.387
46256W        W 5517  44.885  33.619  13.893
46257W        W 5518  11.734  32.613   0.476
46258W        W 5519  12.851  26.209  13.941
46259W        W 5520  17.756  27.452  11.427
46260W        W 5521  34.007  41.950   1.799
46261W        W 5522  18.572  16.219  10.417
46262W        W 5523  21.695  41.374   1.225
46263W        W 5524  42.800  17.135  13.862
46264W        W 5525   7.829  27.972   0.775
46265W        W 5526  25.993   0.962   1.311
46266W        W 5527  13.763  35.397  11.516
46267W        W 5528  26.153  24.143  12.864
46268W        W 5529  33.382  44.857   2.281
46269W        W 5530  40.392  34.979  12.398
46270W        W 5531   5.705  21.066  12.357
46271W        W 5532  37.841  20.089  11.566
46272W        W 5533  29.542  37.830   1.226
46273W        W 5534  12.705  33.581  10.940
46274W        W 5535   7.814  27.553  12.537
46275W        W 5536   2.815  43.771  10.952
46276W        W 5537   8.741  40.990   2.894
46277W        W 5538  25.523  44.797   2.193
46278W        W 5539  30.060  12.339  10.912
46279W        W 5540  16.073  30.476   2.788
46280W        W 5541  22.656   4.401   1.354
46281W        W 5542  26.524  19.142   2.822
46282W        W 5543  11.666  18.206  11.949
46283W        W 5544  26.993  18.268   3.852
46284W        W 5545   8.675  37.401  14.832
46285W        W 5546   4.207  16.274  13.850
46286W        W 5547  38.561  12.317  14.924
46287W        W 5548   8.751  41.797   5.099
46288W        W 5549  36.920   4.232   3.302
46289W        W 5550  19.732  22.012  14.415
46290W        W 5551   0.389  41.292  10.967
46291W        W 5552  21.216  35.366  12.042
46292W        W 5553  24.111  21.552  11.576
46293W        W 5554  42.981  22.203  12.470
46294W        W 5555  35.886  19.238  12.011
46295W        W 5556  29.606  31.565  11.429
46296W        W 5557  33.485  12.123  10.492
46297W        W 5558  20.165  10.866   3.152
46298W        W 5559  16.681   9.350   2.812
46299W        W 5560  39.387  11.685   1.381
46300W        W 5561  44.276  15.671   1.781
46301W        W 5562   5.755   3.877   1.752
46302W        W 5563   9.848  33.974   0.879
46303W        W 5564  31.920  10.164   4.725
46304W        W 5565  29.086  10.768  11.917
46305W        W 5566  40.368   4.838  11.056
46306W        W 5567  37.517   5.921   2.277
46307W        W 5568   1.354  41.973   0.872
46308W        W 5569  21.714   0.398   3.224
46309W        W 5570   5.382  20.137   0.478
46310W        W 5571  35.421  40.969  10.994
46311W        W 5572   8.346   0.746   4.786
46312W        W 5573   8.896  15.609   0.895
46313W        W 5574  26.189   0.414   4.263
46314W        W 5575   0.492  21.633  12.521
46315W        W 5576   7.681  39.417   1.702
46316W        W 5577  28.633   7.744  11.597
46317W        W 5578  16.170  44.866   2.758
46318W        W 5579  34.596   1.290   1.754
46319W        W 5580  18.769  44.878   0.774
46320W        W 5581  19.670  31.447  12.533
46321W        W 5582   5.402   0.877   2.256
46322W        W 5583  26.645   4.435  14.461
46323W        W 5584   8.706   6.323  11.896
46324W        W 5585  19.739  28.110   1.845
46325W        W 5586  34.435  37.003  12.854
46326W        W 5587  19.603  19.039   1.864
46327W        W 5588  15.327  21.600  13.933
46328W        W 5589  14.622  39.416  12.406
46329W        W 5590  12.705  10.822   1.377
46330W        W 5591  25.130   2.815  13.953
46331W        W 5592  39.391  20.148  11.999
46332W        W 5593  39.031   7.877  11.991
46333W        W 5594  15.147   4.882  10.059
46334W        W 5595  11.259  44.331  10.444
46335W        W 5596  27.002   4.434   5.162
46336W        W 5597   1.819  17.563   1.430
46337W        W 5598  21.158  29.572  14.773
46338W        W 5599  40.440  39.368   0.421
46339W        W 5600  14.136  11.332   0.363
46340W        W 5601  19.565  23.180  14.015
46341W        W 5602  32.071  10.325   3.635
46342W        W 5603  26.617  40.468   3.214
46343W        W 5604  21.749  12.720   4.809
46344W        W 5605  24.059  30.429  10.135
46345W        W 5606  23.206  30.582  10.893
46346W        W 5607   3.869  34.571  11.539
46347W        W 5608  43.813   9.695  10.634
46348W        W 5609  32.432   1.954   1.884
46349W        W 5610  44.380   7.351   2.715
46350W        W 5611   1.411  20.699   3.842
46351W        W 5612  22.713  33.412   3.329
46352W        W 5613  34.450   3.760  12.955
46353W        W 5614   5.245  29.601  13.516
46354W        W 5615  39.882  29.991   0.832
46355W        W 5616  23.686  23.050  12.980
46356W        W 5617   6.358   1.951   3.233
46357W        W 5618  10.222   6.732   3.292
46358W        W 5619   4.777  38.943  10.070
46359W        W 5620  37.992  39.322  14.302
46360W        W 5621  21.562  19.561   1.864
46361W        W 5622  12.275  16.656   3.219
46362W        W 5623  39.818  16.709   1.215
46363W        W 5624   6.693   0.453   2.244
46364W        W 5625  44.791  25.663  14.875
46365W        W 5626   7.400  24.659  10.955
46366W        W 5627  25.625   7.175  11.003
46367W        W 5628   5.326  20.221  14.424
46368W        W 5629  21.243  37.492  12.968
46369W        W 5630  23.138   4.818  13.954
46370W        W 5631  28.467  27.942  14.840
46371W        W 5632   9.871  40.358   2.794
46372W        W 5633  11.783  18.108  14.314
46373W        W 5634  10.235   2.852   1.845
46374W        W 5635  37.534  20.683  13.917
46375W        W 5636  16.591  27.953   3.728
46376W        W 5637  29.581   9.846  10.499
46377W        W 5638  21.068  14.712  13.896
46378W        W 5639  15.247  27.458   0.823
46379W        W 5640  19.185  11.181  11.560
46380W        W 5641  38.376  15.106  12.402
46381W        W 5642  19.047  15.642   2.736
46382W        W 5643  30.912  42.851  11.519
46383W        W 5644  14.114  14.308   0.397
46384W        W 5645   9.282  37.430  13.975
46385W        W 5646  19.165  14.317  12.567
46386W        W 5647  40.507  27.502  11.512
46387W        W 5648  12.182   5.403  12.029
46388W        W 5649   4.400  23.716   4.717
46389W        W 5650  20.611  35.587   2.179
46390W        W 5651  12.301  11.194  11.991
46391W        W 5652  10.351  34.439  14.499
46392W        W 5653   4.773  27.170   4.219
46393W        W 5654   4.441  43.387   0.309
46394W        W 5655  37.966  16.738  11.098
46395W        W 5656   0.953   6.380  12.991
46396W        W 5657  10.209  28.530  10.615
46397W        W 5658  34.558  14.168   1.862
46398W        W 5659   7.877  23.206   1.819
46399W        W 5660   1.949  32.968  13.372
46400W        W 5661   8.685  25.193   4.241
46401W        W 5662  31.607   2.409  13.370
46402W        W 5663  35.559  23.577  14.457
46403W        W 5664  44.991  33.017   0.285
46404W        W 5665  35.926   0.483  11.123
46405W        W 5666  40.348  17.651   9.947
46406W        W 5667  18.733  40.542  13.043
46407W        W 5668  40.964   2.776  14.994
46408W        W 5669  30.564   8.299   0.252
46409W        W 5670  26.980  44.774  12.052
46410W        W 5671  28.133  25.630  10.409
46411W        W 5672   3.803  40.344  12.382
46412W        W 5673   8.348  25.544   4.116
46413W        W 5674  10.675  26.538   0.844
46414W        W 5675  26.665  33.534   3.342
46415W        W 5676  24.204  26.181   4.312
46416W        W 5677  40.966  18.569   1.800
46417W        W 5678   1.325  11.795   2.806
46418W        W 5679   8.265  19.560  13.800
46419W        W 5680   6.295  28.162   2.666
46420W        W 5681  26.646  37.368   2.371
46421W        W 5682  20.592   2.379  14.769
46422W        W 5683   2.832  21.188   3.724
46423W        W 5684  29.920  21.021  11.526
46424W        W 5685  25.013   2.456  13.444
46425W        W 5686  18.593  22.689   3.682
46426W        W 5687  14.622   3.932   2.868
46427W        W 5688  10.832  19.673   1.714
46428W        W 5689   0.795  15.777   3.631
46429W        W 5690  43.325  23.139   1.368
46430W        W 5691  20.096   7.694   0.877
46431W        W 5692  13.640  34.120   4.747
46432W        W 5693   7.758  12.842   2.793
46433W        W 5694   3.765  27.527  11.522
46434W        W 5695  43.001   3.452   4.314
46435W        W 5696  41.324  24.006   2.740
46436W        W 5697  42.945  19.768   3.320
46437W        W 5698  30.095  16.085  11.117
46438W        W 5699  35.483  10.666   4.228
46439W        W 5700   9.661  15.165   2.205
46440W        W 5701  10.835  19.267  11.056
46441W        W 5702  10.324  42.977   1.402
46442W        W 5703  20.044   7.708  12.081
46443W        W 5704  37.922  35.576   0.290
46444W        W 5705   3.912  33.911   2.211
46445W        W 5706  24.570   9.244   0.911
46446W        W 5707   2.428  35.866  13.525
46447W        W 5708  25.145  25.593   3.283
46448W        W 5709   7.233  18.738   1.244
46449W        W 5710  39.910   1.255  11.452
46450W        W 5711  12.144  40.464   0.933
46451W        W 5712  31.145  35.551  12.877
46452W        W 5713   8.726  33.006   1.215
46453W        W 5714  12.352  36.464   3.222
46454W        W 5715  30.429  27.590  13.326
46455W        W 5716   6.373  18.573   1.294
46456W        W 5717  10.147  44.927  14.910
46457W        W 5718  40.998  32.404   0.781
46458W        W 5719   0.468   3.283   4.305
46459W        W 5720  41.968  11.845  12.004
46460W        W 5721   3.423   0.318  11.968
46461W        W 5722  33.432  31.910   2.309
46462W        W 5723  36.489  27.116  12.422
46463W        W 5724  29.608  20.538   1.238
46464W        W 5725  21.712   9.831   0.934
46465W        W 5726  33.500  12.350   3.380
46466W        W 5727   0.430   9.706  14.407
46467W        W 5728  11.801   5.888  13.488
46468W        W 5729  32.084  33.554   4.747
46469W        W 5730  15.315  31.625   3.320
46470W        W 5731   0.876  22.068   3.797
46471W        W 5732  43.894   8.846   2.751
46472W        W 5733  11.736  36.089  14.872
46473W        W 5734  29.500   8.877   0.910
46474W        W 5735  26.032  31.633   2.314
46475W        W 5736  34.895   8.290  12.052
46476W        W 5737   8.692   6.879   0.763
46477W        W 5738  39.553   2.449   3.257
46478W        W 5739  23.539   1.239  13.870
46479W        W 5740  31.143  38.445  13.838
46480W        W 5741  20.544  33.415   3.167
46481W        W 5742  39.059  31.929   4.340
46482W        W 5743  16.096  35.107   0.278
46483W        W 5744  31.620  24.719   1.701
46484W        W 5745  30.907   7.177   3.205
46485W        W 5746   8.232  12.621  10.907
46486W        W 5747   3.323  31.581   0.263
46487W        W 5748   5.310  33.132   2.355
46488W        W 5749  44.352  12.304  12.087
46489W        W 5750   2.433   5.374  14.384
46490W        W 5751   0.459  17.770   4.707
46491W        W 5752  34.096   1.291   0.843
46492W        W 5753  14.269  26.507  11.526
46493W        W 5754   8.290  13.242  13.906
46494W        W 5755  17.571  31.004   1.869
46495W        W 5756  43.777  24.975  14.850
46496W        W 5757   5.353  36.387   2.391
46497W        W 5758  12.345  41.893   0.262
46498W        W 5759  40.392  44.899  12.494
46499W        W 5760   9.316  12.831   0.394
46500W        W 5761  25.066  33.403   4.287
46501W        W 5762  26.614  44.008   1.380
46502W        W 5763  41.424   9.261   1.729
46503W        W 5764  18.184  16.153   4.221
46504W        W 5765  29.503  41.034  13.335
46505W        W 5766  13.262  21.643  12.449
46506W        W 5767  44.807   8.299   0.772
46507W        W 5768  43.892  35.889   2.270
46508W        W 5769   5.277  18.577  11.920
46509W        W 5770  23.997  44.986   3.746
46510W        W 5771  20.054  28.052   4.288
46511W        W 5772  34.994  21.674  11.870
46512W        W 5773  43.449  13.334  11.894
46513W        W 5774  38.928  33.990   2.329
46514W        W 5775  41.478  12.193   2.299
46515W        W 5776  42.872   4.304  11.015
46516W        W 5777   7.714  21.578  12.560
46517W        W 5778  42.459  25.075  12.501
46518W        W 5779   3.843  22.072   2.266
46519W        W 5780  39.412   3.710   2.747
46520W        W 5781  32.392  17.564   0.327
46521W        W 5782  24.715  35.043   2.286
46522W        W 5783  44.966  41.395  13.010
46523W        W 5784  24.605  10.795   0.924
46524W        W 5785  32.531  33.625  13.822
46525W        W 5786   1.859   1.330   3.359
46526W        W 5787  29.647  19.561   1.812
46527W        W 5788  30.515  34.470  14.861
46528W        W 5789  42.802  34.112   0.358
46529W        W 5790   8.719  24.484   1.302
46530W        W 5791   3.326  39.475  14.428
46531W        W 5792  43.004   9.717  11.956
46532W        W 5793  11.329  26.991   2.400
46533W        W 5794  10.716   0.977   0.484
46534W        W 5795   4.381  16.807  11.425
46535W        W 5796  31.989  12.615   4.788
46536W        W 5797  12.333  27.516  12.367
46537W        W 5798  35.562  39.468  11.113
46538W        W 5799  26.472  29.092  12.046
46539W        W 5800  28.050  24.973  12.990
46540W        W 5801  20.183  18.291   1.711
46541W        W 5802  42.867  36.385  13.047
46542W        W 5803  11.821  37.427  11.120
46543W        W 5804  38.332  30.514  13.000
46544W        W 5805  17.688  32.989   1.880
46545W        W 5806  32.480  35.484  12.890
46546W        W 5807  29.470  17.588   1.797
46547W        W 5808   8.222   5.436   1.217
46548W        W 5809  19.760   8.289   4.647
46549W        W 5810   0.316  29.639  11.495
46550W        W 5811  12.244  33.056  12.888
46551W        W 5812  44.944  18.705  11.531
46552W        W 5813  18.137   8.373   3.750
46553W        W 5814  31.581   9.230  10.934
46554W        W 5815  24.089  42.497   2.383
46555W        W 5816  12.790  36.369   4.166
46556W        W 5817  24.148   8.191  12.001
46557W        W 5818  40.012  42.287   0.376
46558W        W 5819  23.208  21.682  11.500
46559W        W 5820   8.728  23.105   2.370
46560W        W 5821  41.990  21.223  12.916
46561W        W 5822  11.319  37.455   3.253
46562W        W 5823   0.431  44.900   2.672
46563W        W 5824   3.375   1.456   1.740
46564W        W 5825  33.092  18.761  11.110
46565W        W 5826  35.094  12.222   1.329
46566W        W 5827  15.820  13.658   2.323
46567W        W 5828  18.620  35.928   1.801
46568W        W 5829  43.904  24.072   4.790
46569W        W 5830   5.366  22.653   1.789
46570W        W 5831   5.877   0.948   3.192
46571W        W 5832  30.162  23.617  12.462
46572W        W 5833  29.095  21.533  13.041
46573W        W 5834  24.162  18.720  14.817
46574W        W 5835   0.968  34.491   4.647
46575W        W 5836  22.640  10.795  14.398
46576W        W 5837  32.055  28.975   0.839
46577W        W 5838  31.568  41.467   3.276
46578W        W 5839  22.089  32.978   4.634
46579W        W 5840  41.402  44.379  13.798
46580W        W 5841  35.026  34.079   4.227
46581W        W 5842  34.615  33.394   0.423
46582W        W 5843  30.584  36.080  14.847
46583W        W 5844  17.664   0.296   4.668
46584W        W 5845  16.625  35.917  11.000
46585W        W 5846   2.257  12.277  11.418
46586W        W 5847   2.954   2.312   0.927
46587W        W 5848   2.883  19.545   4.184
46588W        W 5849  12.209  32.583  12.963
46589W        W 5850  29.618   6.285  14.942
46590W        W 5851  20.607  37.500  11.092
46591W        W 5852   7.702  35.906  13.513
46592W        W 5853  29.068  28.051   2.759
46593W        W 5854  42.967   6.860  10.963
46594W        W 5855  11.135   6.702   0.455
46595W        W 5856  16.144  36.415   3.252
46596W        W 5857  13.651   7.791  13.873
46597W        W 5858  37.396  31.483   4.627
46598W        W 5859  26.180  22.528   2.207
46599W        W 5860   6.714  22.006   3.248
46600W        W 5861   8.698  40.359  10.500
46601W        W 5862   3.912  30.057  11.573
46602W        W 5863  39.890  23.013   2.903
46603W        W 5864   8.777   9.860  13.983
46604W        W 5865  22.241  14.759  11.964
46605W        W 5866  16.216  35.979  11.413
46606W        W 5867   5.383   3.883  13.416
46607W        W 5868  22.040  10.178   0.401
46608W        W 5869  32.081  29.978   0.865
46609W        W 5870   4.878  21.668  14.464
46610W        W 5871  15.681  31.460  12.884
46611W        W 5872  16.213   3.816  10.489
46612W        W 5873  30.504   3.726   4.674
46613W        W 5874   7.786  20.097   2.260
46614W        W 5875  31.568  36.977   4.236
46615W        W 5876  31.990  12.295   4.200
46616W        W 5877  30.071  22.646  14.507
46617W        W 5878  23.006  29.636   2.225
46618W        W 5879  20.712   2.340  14.403
46619W        W 5880  10.815  21.152  11.069
46620W        W 5881  21.201  43.483  14.778
46621W        W 5882   9.229  18.153  14.806
46622W        W 5883  27.983  41.476  14.993
46623W        W 5884  21.162   7.382  11.387
46624W        W 5885  26.542  34.962  14.832
46625W        W 5886   9.855   0.749   3.187
46626W        W 5887  44.977  25.664  13.913
46627W        W 5888  36.970  10.261   2.211
46628W        W 5889  34.886  11.154  12.365
46629W        W 5890  27.678  16.651   0.739
46630W        W 5891  26.698   4.402  10.893
46631W        W 5892  27.117  42.314   1.772
46632W        W 5893  41.527  31.926   0.900
46633W        W 5894   1.414  18.671  11.535
46634W        W 5895  20.663  15.280  11.378
46635W        W 5896   1.312  24.552  10.949
46636W        W 5897  12.621  27.562  10.531
46637W        W 5898  44.373  43.909   4.268
46638W        W 5899  25.059  12.646   0.406
46639W        W 5900  28.495  22.575  10.494
46640W        W 5901  38.357  19.039   3.287
46641W        W 5902  41.981  30.090   0.341
46642W        W 5903  33.524  27.494   2.238
46643W        W 5904  17.618  25.037   5.244
46644W        W 5905  38.332  41.315   2.768
46645W        W 5906  35.866   2.796  10.616
46646W        W 5907  42.320  31.547  12.384
46647W        W 5908   5.217  40.394  11.911
46648W        W 5909  39.963  23.584  11.927
46649W        W 5910  17.107  20.752  14.294
46650W        W 5911  20.639   3.952  11.476
46651W        W 5912  16.142   9.762  12.486
46652W        W 5913  22.228  29.928   1.712
46653W        W 5914  41.817  38.069   2.267
46654W        W 5915   3.949  32.456   3.821
46655W        W 5916  10.289  27.014  10.499
46656W        W 5917  16.103  18.104   0.320
46657W        W 5918  24.480  38.443  10.537
46658W        W 5919  39.419   0.807   3.277
46659W        W 5920  21.202  32.143   5.249
46660W        W 5921  18.100  28.064   0.374
46661W        W 5922  17.783  44.779   1.815
46662W        W 5923  29.959   0.773   3.723
46663W        W 5924  30.505   8.210  14.857
46664W        W 5925   5.359  33.434   3.233
46665W        W 5926   9.251  14.621   1.699
46666W        W 5927  29.103   2.402  14.501
46667W        W 5928  37.486   6.363  12.001
46668W        W 5929  26.508  40.407   2.838
46669W        W 5930   4.372  35.513   4.291
46670W        W 5931  29.496  42.446  13.520
46671W        W 5932   3.921   9.194   3.205
46672W        W 5933   5.384  42.897   3.358
46673W        W 5934   5.272  13.632   2.779
46674W        W 5935   5.351   2.245   3.648
46675W        W 5936  24.024  44.854   0.472
46676W        W 5937  31.964  39.484  11.403
46677W        W 5938   9.259   8.170   0.331
46678W        W 5939  20.216   4.256   3.771
46679W        W 5940  14.660   8.400  11.378
46680W        W 5941   0.350  14.274   2.355
46681W        W 5942  32.025   7.742   2.343
46682W        W 5943  29.049  39.897  14.373
46683W        W 5944   8.700  35.525  13.399
46684W        W 5945   9.717  41.323  12.991
46685W        W 5946   8.273  16.264   4.662
46686W        W 5947  32.395  39.820   3.145
46687W        W 5948  18.607  38.965   3.336
46688W        W 5949   4.341  32.964  13.847
46689W        W 5950   8.196  32.926  11.940
46690W        W 5951   9.729   5.888  14.930
46691W        W 5952  11.364  24.118  11.389
46692W        W 5953   8.327  43.795  10.481
46693W        W 5954  12.796  17.085  12.443
46694W        W 5955   2.881  26.573   3.655
46695W        W 5956   1.411  16.132  12.856
46696W        W 5957   2.760  18.698   4.167
46697W        W 5958  35.409  36.358  13.797
46698W        W 5959  14.149  13.715  12.358
46699W        W 5960  34.084   1.243   0.364
46700W        W 5961   8.322   7.729  11.921
46701W        W 5962  10.792  38.831  11.912
46702W        W 5963   1.294  14.734  14.475
46703W        W 5964   8.234  20.035  11.434
46704W        W 5965  39.967  24.028  10.551
46705W        W 5966  42.956  34.056  13.807
46706W        W 5967  17.132   7.751  13.881
46707W        W 5968  39.359  15.270   4.770
46708W        W 5969   8.264  15.736   2.397
46709W        W 5970   5.716  13.613   0.864
46710W        W 5971  11.161   3.446   1.420
46711W        W 5972  23.597   8.852  10.583
46712W        W 5973  15.648  19.536   9.989
46713W        W 5974   7.768   7.853   0.757
46714W        W 5975  27.941  28.668  12.397
46715W        W 5976  44.009  11.688   4.708
46716W        W 5977  41.398  31.978   0.377
46717W        W 5978   4.784  13.602   0.315
46718W        W 5979   0.266  34.615  11.907
46719W        W 5980  18.768  35.027   0.402
46720W        W 5981  13.650  32.427   0.871
46721W        W 5982  32.508  15.193   0.449
46722W        W 5983  23.655  31.992  14.904
46723W        W 5984  42.027  17.152  14.789
46724W        W 5985  14.261  25.210  13.837
46725W        W 5986  42.909  24.689   3.684
46726W        W 5987  42.008  28.120  13.003
46727W        W 5988  32.572   2.459   3.695
46728W        W 5989  42.009  27.679   3.828
46729W        W 5990  25.974  32.101   4.121
46730W        W 5991  38.521  24.052   3.199
46731W        W 5992  12.139  11.818   1.437
46732W        W 5993  39.052   9.268  10.054
46733W        W 5994  24.195   9.263   1.270
46734W        W 5995  29.605   5.881   0.781
46735W        W 5996   3.377  42.493   3.243
46736W        W 5997   1.767  13.215   1.322
46737W        W 5998  16.211   5.922   3.246
46738W        W 5999  40.332  13.624  11.977
46739W        W 6000  39.551  39.448  13.427
46740W        W 6001  39.517  43.981   0.965
46741W        W 6002  18.740   6.283   1.870
46742W        W 6003  35.107  26.693   2.898
46743W        W 6004  29.123  25.678  12.362
46744W        W 6005  17.641   9.855   1.242
46745W        W 6006  12.334  40.329  14.348
46746W        W 6007  23.595  44.320  11.497
46747W        W 6008  41.327  31.012   0.425
46748W        W 6009  19.736   8.161  11.099
46749W        W 6010   1.877  22.194   2.690
46750W        W 6011  43.304  22.584  12.828
46751W        W 6012  31.062   1.855  10.464
46752W        W 6013  31.993  26.119   1.761
46753W        W 6014  36.001  35.078   1.441
46754W        W 6015  35.411  18.638   2.838
46755W        W 6016  40.015  37.879  12.897
46756W        W 6017  27.128   1.409  13.857
46757W        W 6018  31.577  26.496  13.331
46758W        W 6019   1.318  12.844  12.345
46759W        W 6020  32.011  28.666   4.665
46760W        W 6021  12.732   9.339   1.927
46761W        W 6022   2.327   7.289   3.750
46762W        W 6023  20.650  37.922   3.251
46763W        W 6024  15.135  19.244   4.759
46764W        W 6025   0.955  36.094   1.317
46765W        W 6026  37.582  17.167  14.453
46766W        W 6027  29.084  43.434   4.352
46767W        W 6028   5.744  20.719  14.888
46768W        W 6029  33.614  11.152   2.895
46769W        W 6030  21.699  33.063  14.026
46770W        W 6031  25.050   4.777   2.720
46771W        W 6032  18.611  19.118  13.351
46772W        W 6033   7.847  10.842   3.671
46773W        W 6034   9.753   6.269   5.252
46774W        W 6035  36.893  20.722  13.956
46775W        W 6036  22.507  24.525   1.731
46776W        W 6037  21.227   7.286  11.956
46777W        W 6038  39.036   0.435  14.876
46778W        W 6039  40.520  41.840   1.252
46779W        W 6040  15.697   3.929   9.471
46780W        W 6041  20.559   6.903   1.271
46781W        W 6042   6.733  42.912   0.753
46782W        W 6043  19.274   4.433   3.309
46783W        W 6044  13.222  29.158  13.434
46784W        W 6045   8.790   6.358   9.502
46785W        W 6046  39.021  18.182   9.989
46786W        W 6047  28.145  27.642  11.026
46787W        W 6048  20.758  38.472   3.366
46788W        W 6049   1.402  18.674   4.729
46789W        W 6050  11.666   9.692   0.327
46790W        W 6051   5.256   7.737   0.445
46791W        W 6052  26.179  21.666  11.462
46792W        W 6053   0.817  33.998   0.783
46793W        W 6054  31.134  11.822  11.435
46794W        W 6055  30.430  30.001  11.506
46795W        W 6056  16.776  22.027  13.983
46796W        W 6057  19.753   9.187  13.320
46797W        W 6058   7.666  26.156  11.486
46798W        W 6059   6.259  19.658   0.386
46799W        W 6060  25.540  23.081   0.380
46800W        W 6061   2.434  28.018  11.086
46801W        W 6062  23.056  28.565   4.282
46802W        W 6063  27.004  18.056  10.906
46803W        W 6064  41.010  27.543   5.746
46804W        W 6065  37.580  23.153   4.141
46805W        W 6066  35.012  16.312  10.919
46806W        W 6067  20.657  15.133  12.847
46807W        W 6068  31.507  13.160   4.250
46808W        W 6069  37.494   0.841   3.846
46809W        W 6070  24.714  22.746   0.931
46810W        W 6071   6.694  26.952   3.807
46811W        W 6072  41.893  44.994   3.309
46812W        W 6073   2.388   4.917  13.899
46813W        W 6074  26.198  26.071   4.213
46814W        W 6075  33.386   2.409  13.893
46815W        W 6076  36.354  33.096  11.106
46816W        W 6077   5.706  30.110   2.251
46817W        W 6078   8.359  44.950   0.467
46818W        W 6079  37.948   9.670  14.425
46819W        W 6080  11.675  23.490  13.842
46820W        W 6081  18.729  34.585  12.996
46821W        W 6082  27.669  16.305   0.391
46822W        W 6083  15.619  13.332   4.223
46823W        W 6084  17.688  32.446  11.015
46824W        W 6085   6.260  38.389  12.932
46825W        W 6086  19.703  39.952  11.114
46826W        W 6087  26.140  28.492  14.382
46827W        W 6088  41.415   9.877   0.409
46828W        W 6089   2.452  39.439   3.870
46829W        W 6090  34.485  17.086   0.339
46830W        W 6091  21.029   1.351   1.346
46831W        W 6092   6.331  37.909   0.846
46832W        W 6093  27.611  20.721   1.275
46833W        W 6094  44.934  39.429  14.983
46834W        W 6095  12.241  36.876  11.124
46835W        W 6096  32.459  24.519   2.738
46836W        W 6097   6.210  20.133  14.851
46837W        W 6098  28.490  37.355  13.346
46838W        W 6099  19.773  35.000   4.352
46839W        W 6100  17.084  25.522   0.359
46840W        W 6101  24.085  21.034  12.371
46841W        W 6102  24.542  29.156   2.353
46842W        W 6103  39.029   7.384   0.804
46843W        W 6104  12.337  18.694  11.982
46844W        W 6105  14.774  22.549   3.642
46845W        W 6106  39.924   4.395   1.218
46846W        W 6107  35.420  16.653  10.966
46847W        W 6108   1.757   6.923  12.348
46848W        W 6109  37.878  15.717  11.884
46849W        W 6110  13.291   4.884   0.839
46850W        W 6111  44.899  35.940   5.246
46851W        W 6112  18.579  27.530   3.813
46852W        W 6113  12.853   2.922  14.866
46853W        W 6114  29.963  22.626   4.774
46854W        W 6115  16.572  40.426   4.116
46855W        W 6116  38.909  37.019  13.396
46856W        W 6117  24.516  41.993  12.451
46857W        W 6118  20.636   8.243  12.486
46858W        W 6119  36.094  18.211   3.192
46859W        W 6120  10.142  28.980   0.259
46860W        W 6121   6.189  38.060  11.466
46861W        W 6122  33.380  22.055   0.907
46862W        W 6123  44.928  33.485   2.739
46863W        W 6124  33.918  37.870   0.251
46864W        W 6125   3.834  21.074   0.346
46865W        W 6126  16.290  18.592   1.910
46866W        W 6127  36.988  42.893   5.112
46867W        W 6128  38.487  22.600  12.964
46868W        W 6129   5.704   4.385   4.615
46869W        W 6130  15.307  16.573   0.421
46870W        W 6131  41.388  13.337  14.835
46871W        W 6132  40.439  39.534  13.897
46872W        W 6133  10.218  23.722  12.452
46873W        W 6134   5.201  21.613   0.852
46874W        W 6135  14.795  21.687   0.925
46875W        W 6136   0.455   2.262   0.320
46876W        W 6137   8.380  36.020   3.335
46877W        W 6138  20.124  35.408  13.445
46878W        W 6139  32.636  40.851  14.903
46879W        W 6140  44.760  20.252   4.306
46880W        W 6141  42.420  33.015  11.084
46881W        W 6142  37.972  21.244   3.684
46882W        W 6143   0.419  41.306  14.965
46883W        W 6144   5.332  25.468  13.497
46884W        W 6145  15.694   4.431   3.363
46885W        W 6146  34.973  18.152  14.848
46886W        W 6147  33.038  19.764   2.720
46887W        W 6148   1.966  30.134  11.530
46888W        W 6149   4.346  22.152   1.895
46889W        W 6150  17.256  36.022   3.155
46890W        W 6151   9.311  30.616  14.300
46891W        W 6152  30.925  29.973  10.609
46892W        W 6153  36.940  10.314  11.600
46893W        W 6154   8.311  18.727   3.268
46894W        W 6155  27.124  17.200  10.525
46895W        W 6156  43.486   9.731   4.140
46896W        W 6157  37.399  13.603   2.827
46897W        W 6158  19.135  17.135  14.292
46898W        W 6159  26.121   6.190  11.501
46899W        W 6160  39.314  22.157   2.840
46900W        W 6161  28.101  19.703   1.696
46901W        W 6162  18.108  12.183   2.180
46902W        W 6163  34.995  18.632   5.186
46903W        W 6164  18.697  39.489   1.326
46904W        W 6165  42.967   0.960   3.687
46905W        W 6166  10.198  22.210  13.811
46906W        W 6167  20.707  36.074   4.677
46907W        W 6168  35.491   6.906   0.837
46908W        W 6169   8.850  15.599   0.478
46909W        W 6170  23.000   9.675  11.430
46910W        W 6171  35.416  26.671   0.787
46911W        W 6172  14.758  25.476   3.855
46912W        W 6173  22.043  41.006   2.192
46913W        W 6174  25.029  35.069  10.504
46914W        W 6175  30.652  30.034  14.453
46915W        W 6176  24.068  41.835   1.234
46916W        W 6177  15.152  27.600  14.979
46917W        W 6178  39.453  37.398   4.629
46918W        W 6179  39.894  26.473   0.775
46919W        W 6180  35.458  38.405  12.557
46920W        W 6181  41.945  41.996  13.975
46921W        W 6182  33.940  40.494  14.831
46922W        W 6183  14.727  23.089  12.424
46923W        W 6184   2.307  12.143   1.851
46924W        W 6185   0.819  22.540  13.852
46925W        W 6186  11.225  44.824  11.076
46926W        W 6187   4.432  42.007   2.716
46927W        W 6188  41.380  22.581   5.093
46928W        W 6189  11.204  44.327   3.730
46929W        W 6190  27.464   2.461  10.044
46930W        W 6191  29.010  29.080  14.906
46931W        W 6192   9.655  44.849  14.440
46932W        W 6193   2.380  37.033   4.653
46933W        W 6194  41.348   5.398  10.631
46934W        W 6195   9.266   5.749  14.879
46935W        W 6196  40.842  20.043   0.889
46936W        W 6197   0.309  17.668   0.301
46937W        W 6198  29.632  37.912  12.020
46938W        W 6199  11.657  24.549   2.810
46939W        W 6200   3.420   9.392   4.810
46940W        W 6201  19.168  14.148  13.941
46941W        W 6202   3.808   1.400   3.202
46942W        W 6203  30.078   1.759   3.748
46943W        W 6204  31.589  33.455  12.528
46944W        W 6205  20.688  27.188   2.254
46945W        W 6206  17.726  27.087  12.494
46946W        W 6207   1.434  44.312  13.044
46947W        W 6208  27.963  27.467   0.889
46948W        W 6209   7.333   2.274  14.484
46949W        W 6210  27.451  26.045   3.805
46950W        W 6211  11.655  43.836   2.277
46951W        W 6212   8.215  27.523   1.859
46952W        W 6213  28.500  41.798   2.192
46953W        W 6214   1.305  21.111  13.798
46954W        W 6215  34.076  42.805   3.221
46955W        W 6216  31.023  29.511  11.544
46956W        W 6217  16.277  33.006   2.828
46957W        W 6218   6.302  28.679  12.908
46958W        W 6219  16.116  27.581   3.654
46959W        W 6220   9.861  24.557  14.334
46960W        W 6221  37.882  38.875  14.822
46961W        W 6222  10.852   8.200  12.488
46962W        W 6223  17.591  31.132   2.676
46963W        W 6224  17.122  24.486   2.285
46964W        W 6225   0.823  42.907   9.931
46965W        W 6226  32.121   1.916   2.761
46966W        W 6227   7.220  22.062   1.447
46967W        W 6228   7.184   7.750  14.471
46968W        W 6229   5.242  26.653   1.258
46969W        W 6230   5.705  14.255   0.893
46970W        W 6231   4.339  17.203   4.782
46971W        W 6232   8.311  44.348   4.628
46972W        W 6233  44.397  17.641   1.916
46973W        W 6234  37.388  31.912  13.429
46974W        W 6235  32.509   6.857   3.149
46975W        W 6236  32.508  24.580   2.354
46976W        W 6237  21.082  44.361  14.341
46977W        W 6238  27.457  11.348   2.824
46978W        W 6239   6.312  23.062   4.309
46979W        W 6240  18.210  21.240   2.848
46980W        W 6241  26.482  23.645   3.843
46981W        W 6242  27.637  37.440   0.938
46982W        W 6243  36.507  14.094  14.806
46983W        W 6244   9.285  23.056  14.759
46984W        W 6245  32.076  10.803   4.121
46985W        W 6246  37.880  28.546  13.968
46986W        W 6247  40.900  14.635  12.951
46987W        W 6248   7.790  20.102  13.416
46988W        W 6249  13.677  44.324  13.385
46989W        W 6250  38.393   7.298   0.452
46990W        W 6251  33.086  14.818   0.923
46991W        W 6252  29.503   5.299   5.244
46992W        W 6253   2.930   2.471  13.062
46993W        W 6254  30.591  14.756  13.344
46994W        W 6255  18.283  36.447   1.370
46995W        W 6256   9.363  18.230  12.469
46996W        W 6257  28.114  10.224   5.213
46997W        W 6258  35.462   4.800   1.910
46998W        W 6259  13.187  24.158   3.772
46999W        W 6260  10.848  44.935  13.057
47000W        W 6261  21.199  40.401  13.545
47001W        W 6262   7.707   3.445  11.044
47002W        W 6263   6.315  10.270   4.829
47003W        W 6264  33.439   5.759  14.399
47004W        W 6265  24.112  22.639  12.089
47005W        W 6266  15.791  44.886  13.484
47006W        W 6267  22.616   4.408  12.502
47007W        W 6268  32.045  28.484  14.028
47008W        W 6269   0.933  23.135  10.575
47009W        W 6270  20.157  17.737   0.748
47010W        W 6271  11.307  25.145  13.813
47011W        W 6272   9.883  35.876   2.186
47012W        W 6273   8.737  16.200   4.133
47013W        W 6274  22.073  42.857   0.805
47014W        W 6275  12.120  30.935  14.777
47015W        W 6276  39.017  36.072  14.024
47016W        W 6277  30.556   7.290   3.224
47017W        W 6278  19.595  21.730  13.016
47018W        W 6279   3.422   5.858  11.997
47019W        W 6280  26.985  12.179  10.427
47020W        W 6281  19.618  43.433  14.402
47021W        W 6282  29.558   9.858  13.893
47022W        W 6283  29.086  24.569   3.642
47023W        W 6284  40.486  10.840   3.867
47024W        W 6285  30.460   8.799  13.919
47025W        W 6286  43.310  22.185  12.069
47026W        W 6287  14.800  43.306  11.555
47027W        W 6288  16.131  38.826  12.957
47028W        W 6289  30.428   1.398  10.056
47029W        W 6290   6.348  22.614  12.982
47030W        W 6291  32.528  16.076  13.494
47031W        W 6292  27.460  38.028   4.223
47032W        W 6293  33.937   9.297   1.708
47033W        W 6294   0.460  35.464   0.354
47034W        W 6295  23.634  28.448  14.320
47035W        W 6296  15.141  30.502  10.931
47036W        W 6297  30.094  42.781   3.327
47037W        W 6298  18.110  30.487   3.159
47038W        W 6299   7.769  20.724  14.872
47039W        W 6300  44.430  27.050   9.504
47040W        W 6301  12.775  20.200   2.258
47041W        W 6302  29.596   9.150  12.010
47042W        W 6303  18.269  20.660  14.416
47043W        W 6304   3.431   4.208   0.362
47044W        W 6305   9.310  16.808   2.359
47045W        W 6306  10.186  19.647   2.241
47046W        W 6307  39.844  25.603  12.864
47047W        W 6308  44.977   1.831  13.988
47048W        W 6309  11.249  42.842   4.168
47049W        W 6310  10.192  32.614   0.939
47050W        W 6311  12.154  28.957  13.952
47051W        W 6312  10.173  25.079   2.223
47052W        W 6313  29.605  37.473  10.574
47053W        W 6314   4.352   2.249  11.011
47054W        W 6315  14.140   8.293   2.795
47055W        W 6316  24.117  25.593  11.885
47056W        W 6317  20.174  10.155  10.054
47057W        W 6318  10.336  18.787   3.646
47058W        W 6319   3.348  15.671   1.881
47059W        W 6320   3.929  28.482  10.418
47060W        W 6321   3.911  42.408   2.292
47061W        W 6322  36.971  29.029  10.586
47062W        W 6323  24.664  37.547  11.544
47063W        W 6324  31.637  18.653   3.753
47064W        W 6325  30.657  39.952   2.785
47065W        W 6326   0.299  40.382  11.128
47066W        W 6327  18.148  20.619   1.766
47067W        W 6328  13.235  42.002  11.883
47068W        W 6329  19.776  37.385   0.321
47069W        W 6330   8.229   9.393   4.300
47070W        W 6331   6.915  16.748  13.900
47071W        W 6332  18.774  12.294  13.459
47072W        W 6333   8.317  10.375   3.145
47073W        W 6334   6.770  43.443   1.857
47074W        W 6335  41.812  26.046   2.372
47075W        W 6336  12.280   9.163  11.933
47076W        W 6337   6.680  29.436  13.472
47077W        W 6338  24.023  38.931   1.349
47078W        W 6339  36.896  11.340  13.818
47079W        W 6340  31.054  35.530  11.577
47080W        W 6341  10.175  22.560   3.865
47081W        W 6342  11.165  20.562  13.383
47082W        W 6343  33.989  34.940   1.267
47083W        W 6344  33.472  33.428  14.831
47084W        W 6345  28.495  28.024   3.236
47085W        W 6346  40.920  26.192  12.965
47086W        W 6347  27.000  33.391  12.920
47087W        W 6348   4.708  26.965  13.877
47088W        W 6349  44.942   0.294  13.321
47089W        W 6350  17.283  40.885  10.469
47090W        W 6351  42.417  16.086   0.942
47091W        W 6352  27.009  18.292  12.400
47092W        W 6353   1.417  12.735  11.527
47093W        W 6354  25.159  10.211  12.929
47094W        W 6355  40.028  25.186   0.356
47095W        W 6356   8.837  40.868   4.735
47096W        W 6357  10.245  16.086   4.144
47097W        W 6358  16.660   7.806   0.906
47098W        W 6359  12.646   8.168   1.740
47099W        W 6360  19.562   2.333  10.438
47100W        W 6361  43.411  22.044   3.190
47101W        W 6362  24.556  44.989  14.362
47102W        W 6363  17.610   9.236  14.758
47103W        W 6364  41.849  18.775   5.599
47104W        W 6365  40.903  28.104   1.383
47105W        W 6366  13.741  11.320   4.204
47106W        W 6367  11.865  41.881  12.927
47107W        W 6368  16.806  41.883   1.735
47108W        W 6369  44.965  43.322  10.425
47109W        W 6370  34.985  36.943  12.358
47110W        W 6371  23.039   7.677   4.198
47111W        W 6372  25.554  26.579  11.971
47112W        W 6373   4.921  25.507  13.389
47113W        W 6374  18.112  32.433  13.924
47114W        W 6375  37.912  39.013   4.699
47115W        W 6376   1.311  21.231   0.931
47116W        W 6377   0.345  38.500   2.261
47117W        W 6378  24.047   7.729   3.632
47118W        W 6379  26.979  36.429  14.306
47119W        W 6380  41.853  22.713   5.806
47120W        W 6381  35.998   1.739  11.886
47121W        W 6382  32.995  31.151  12.481
47122W        W 6383  43.878  36.434  10.471
47123W        W 6384  14.646  15.582   1.302
47124W        W 6385   1.950  20.603  13.958
47125W        W 6386  24.517   4.813  11.024
47126W        W 6387  19.691  38.904   1.325
47127W        W 6388  14.802   9.185   3.814
47128W        W 6389  28.156  42.795  14.405
47129W        W 6390  32.603  22.617   3.206
47130W        W 6391   9.257  10.688  11.117
47131W        W 6392  17.135  31.515   3.358
47132W        W 6393  17.135  37.060   4.793
47133W        W 6394   5.900  36.934  14.947
47134W        W 6395  19.667  23.143  14.941
47135W        W 6396   4.849  24.190  12.517
47136W        W 6397  41.349   9.303   0.838
47137W        W 6398  15.170   7.250  11.927
47138W        W 6399  17.744  21.028  13.909
47139W        W 6400  30.148  25.586  14.478
47140W        W 6401  14.795  19.068  11.065
47141W        W 6402  35.056  10.361  13.940
47142W        W 6403  16.679  36.854   3.164
47143W        W 6404  32.485   0.852   1.934
47144W        W 6405  15.190  37.439  10.937
47145W        W 6406   6.409  34.460  10.890
47146W        W 6407  15.152  43.988   4.318
47147W        W 6408  29.081  17.089   4.231
47148W        W 6409   6.877  33.394   3.738
47149W        W 6410  22.197  34.923   3.702
47150W        W 6411  13.147  30.602  13.946
47151W        W 6412  40.022  41.526   3.799
47152W        W 6413  13.154  13.652   1.818
47153W        W 6414  20.190  21.107   0.436
47154W        W 6415   1.771   7.336  12.871
47155W        W 6416   1.273  13.301   1.401
47156W        W 6417  41.413  42.827   1.245
47157W        W 6418  15.118   7.782  14.792
47158W        W 6419  20.122  30.627   3.739
47159W        W 6420  39.443  15.193  12.076
47160W        W 6421  41.023  18.766   4.178
47161W        W 6422  44.917  34.118   0.329
47162W        W 6423  33.083  19.044  13.845
47163W        W 6424  16.281   4.840  12.084
47164W        W 6425  42.889  27.048   4.263
47165W        W 6426  11.358  13.274  12.494
47166W        W 6427   4.428  15.600  10.627
47167W        W 6428  17.585  43.436  14.943
47168W        W 6429  17.606  35.995  11.916
47169W        W 6430  31.968  21.107  12.949
47170W        W 6431   1.786   8.892  11.003
47171W        W 6432  42.984  18.687   0.261
47172W        W 6433  43.882  24.524  11.438
47173W        W 6434  37.435  35.046   2.761
47174W        W 6435  44.361  28.939  10.088
47175W        W 6436  41.907  39.815   5.114
47176W        W 6437  28.033  19.239   2.277
47177W        W 6438  37.446  13.176  12.522
47178W        W 6439  10.680  27.654  10.599
47179W        W 6440  41.799  40.925  11.378
47180W        W 6441  41.907  41.419  13.949
47181W        W 6442  32.507  37.543   1.869
47182W        W 6443  39.508  22.664  14.774
47183W        W 6444  30.158   1.800   3.166
47184W        W 6445   0.474  23.519   1.739
47185W        W 6446  18.688   1.975  12.854
47186W        W 6447   5.236  12.310   4.282
47187W        W 6448  15.265  18.260   4.197
47188W        W 6449   8.239   9.857  12.539
47189W        W 6450  17.742  22.713  12.828
47190W        W 6451   1.395   0.464  10.480
47191W        W 6452  39.858   8.295   4.804
47192W        W 6453  38.557  25.126  14.979
47193W        W 6454  38.545  42.487  13.441
47194W        W 6455  21.559  17.762   4.354
47195W        W 6456  43.945  25.160   1.422
47196W        W 6457  25.072  17.137  12.054
47197W        W 6458  32.935  11.748  10.957
47198W        W 6459  20.680  32.954   2.201
47199W        W 6460  38.511  34.117   0.460
47200W        W 6461  31.052  20.583   0.926
47201W        W 6462  37.339   9.681   3.803
47202W        W 6463  28.637  14.106  13.387
47203W        W 6464  33.023  15.230   3.151
47204W        W 6465  26.586  27.140  14.351
47205W        W 6466  20.727  36.932   1.445
47206W        W 6467  21.124  38.966  11.590
47207W        W 6468  43.366  14.104   3.370
47208W        W 6469   2.743  31.038   3.155
47209W        W 6470  12.318  26.536   3.688
47210W        W 6471  41.042   8.845   2.751
47211W        W 6472   6.814   1.477  13.445
47212W        W 6473  32.912  10.765   0.301
47213W        W 6474  31.956  33.444   2.328
47214W        W 6475  36.465  22.676   5.316
47215W        W 6476  35.474   0.254   4.354
47216W        W 6477  36.511  37.013  14.388
47217W        W 6478  29.466   6.236   2.210
47218W        W 6479  43.954  15.255   4.176
47219W        W 6480  10.795  40.487  10.440
47220W        W 6481  19.702  30.539   4.676
47221W        W 6482  25.079  35.433   1.274
47222W        W 6483  23.114  16.703  10.532
47223W        W 6484  35.031  37.353  10.129
47224W        W 6485  13.727   1.764  14.013
47225W        W 6486  26.146  13.277   2.314
47226W        W 6487  24.586  14.821   3.726
47227W        W 6488   6.703  17.281   0.395
47228W        W 6489  32.104  19.040   0.435
47229W        W 6490  37.081   7.187  10.890
47230W        W 6491  23.020  22.746   0.817
47231W        W 6492   8.805   6.360   2.192
47232W        W 6493  17.654  43.409  10.920
47233W        W 6494  10.700  22.602  11.128
47234W        W 6495   8.309  26.147  10.486
47235W        W 6496  30.979   4.858   1.930
47236W        W 6497  24.187  21.042  12.930
47237W        W 6498  21.056  11.760   3.214
47238W        W 6499  43.847  20.658   4.286
47239W        W 6500  20.158  29.545   4.604
47240W        W 6501  23.620   1.287   0.318
47241W        W 6502  27.156   3.215   5.709
47242W        W 6503  26.465   7.860  10.605
47243W        W 6504   4.308  32.928   3.152
47244W        W 6505  41.003  35.588  13.884
47245W        W 6506  18.247   7.243   2.217
47246W        W 6507  22.709  12.359  14.922
47247W        W 6508   9.237  43.857  13.519
47248W        W 6509   7.320  34.475   4.617
47249W        W 6510  37.861  25.485   2.748
47250W        W 6511  19.637   4.803  12.949
47251W        W 6512  36.584  30.551   2.884
47252W        W 6513  20.250  42.026   4.207
47253W        W 6514  24.515  11.632   0.483
47254W        W 6515   6.864  24.016  13.829
47255W        W 6516  22.568  32.532   4.230
47256W        W 6517  16.229   8.184   4.622
47257W        W 6518   2.776  16.616  11.996
47258W        W 6519  35.575  18.204  10.980
47259W        W 6520  29.052  16.176   0.947
47260W        W 6521  43.402  30.149   3.834
47261W        W 6522  21.598  38.505  14.365
47262W        W 6523  42.857  29.000   2.339
47263W        W 6524  37.474  12.269  13.053
47264W        W 6525  19.075  13.736  14.340
47265W        W 6526  36.938  37.489   1.227
47266W        W 6527  25.703  14.228  11.409
47267W        W 6528  27.667   7.357   3.308
47268W        W 6529  32.900  33.406   2.846
47269W        W 6530  28.564   9.688   3.832
47270W        W 6531  37.997  27.621   2.825
47271W        W 6532  33.536   0.856  14.282
47272W        W 6533   3.239  22.735   0.482
47273W        W 6534   7.745   4.353  13.934
47274W        W 6535  39.537  23.529  13.987
47275W        W 6536  16.612  31.930   4.235
47276W        W 6537  24.533  36.525  14.853
47277W        W 6538  30.534  18.235   0.464
47278W        W 6539  16.282   1.474  14.013
47279W        W 6540  31.447   0.439   2.766
47280W        W 6541  37.078  34.409   1.719
47281W        W 6542   0.765   1.924  13.343
47282W        W 6543  33.926  30.155  11.516
47283W        W 6544  35.997  25.472   0.305
47284W        W 6545   8.383  17.766  12.342
47285W        W 6546  16.763  14.139   0.320
47286W        W 6547  29.562  32.009  11.892
47287W        W 6548  11.800  29.475  13.511
47288W        W 6549  15.233  41.295   1.810
47289W        W 6550  37.346  35.466  12.471
47290W        W 6551  42.407  32.396  13.537
47291W        W 6552  21.205  14.317  13.813
47292W        W 6553  33.948   4.917  12.914
47293W        W 6554  14.752  27.661   2.381
47294W        W 6555  25.605  37.518   1.733
47295W        W 6556  39.963  16.699   9.942
47296W        W 6557  32.899   1.925   2.318
47297W        W 6558  42.481  37.837   4.143
47298W        W 6559  14.704  26.618   0.417
47299W        W 6560  22.627   4.286  11.406
47300W        W 6561  10.179   9.167  14.283
47301W        W 6562  29.606   7.260   1.789
47302W        W 6563  44.374  13.696  14.300
47303W        W 6564  39.352  27.512   5.806
47304W        W 6565  11.719   3.742   1.246
47305W        W 6566  33.463  18.156  10.609
47306W        W 6567   7.869  33.452  11.037
47307W        W 6568  29.996  19.771   0.348
47308W        W 6569  15.755  23.679  13.334
47309W        W 6570  19.739  24.632  10.923
47310W        W 6571  41.296  41.318   2.798
47311W        W 6572  14.608  16.163  11.954
47312W        W 6573  10.858   5.708  12.057
47313W        W 6574  43.845   9.733   3.306
47314W        W 6575  26.563  37.561  10.630
47315W        W 6576  33.995  32.415   4.238
47316W        W 6577  39.996  26.962   0.365
47317W        W 6578  40.511  38.856   3.256
47318W        W 6579  15.660  33.015  10.612
47319W        W 6580   1.248  41.942  11.042
47320W        W 6581  21.183  23.136  11.469
47321W        W 6582  29.434  19.161   3.700
47322W        W 6583  31.590  28.009   3.797
47323W        W 6584  42.950  26.541  11.583
47324W        W 6585  34.995  15.628   4.302
47325W        W 6586  23.013   9.671  13.363
47326W        W 6587  22.252  14.249  14.402
47327W        W 6588  23.164  27.548   0.820
47328W        W 6589   8.762  17.707   2.323
47329W        W 6590  23.707  29.530   0.308
47330W        W 6591  14.161  28.012   1.294
47331W        W 6592  44.800  18.782  13.848
47332W        W 6593  20.212   4.381   1.315
47333W        W 6594  41.982  42.423   3.304
47334W        W 6595  25.017  10.846   3.273
47335W        W 6596  31.997  13.115  10.466
47336W        W 6597  19.710  33.385   2.178
47337W        W 6598  29.547   5.699  10.434
47338W        W 6599  24.621  20.212  11.498
47339W        W 6600  28.656  41.024   3.311
47340W        W 6601  14.211  22.215   2.851
47341W        W 6602  24.592  21.242   0.959
47342W        W 6603   4.403   9.282  11.023
47343W        W 6604  18.270  21.747   0.444
47344W        W 6605  44.796  20.680  12.506
47345W        W 6606  42.879  34.041   1.247
47346W        W 6607  27.674  31.436  12.511
47347W        W 6608   3.955  40.509   2.410
47348W        W 6609  44.763   1.430  12.072
47349W        W 6610   2.253   7.748  14.835
47350W        W 6611  44.407  44.429   2.760
47351W        W 6612  34.478   1.829   2.417
47352W        W 6613  42.364  17.289   0.853
47353W        W 6614  13.343  25.700   0.780
47354W        W 6615  24.703  24.685   2.397
47355W        W 6616   9.335   2.310   0.366
47356W        W 6617  38.454   7.326  12.569
47357W        W 6618  37.419  17.772  14.960
47358W        W 6619  20.159  34.521  10.519
47359W        W 6620  20.551   6.678   4.171
47360W        W 6621  34.098  27.192   2.830
47361W        W 6622  44.887  36.384   0.885
47362W        W 6623   5.796  12.641   2.805
47363W        W 6624  26.546  17.077  11.564
47364W        W 6625  25.675  16.734  14.869
47365W        W 6626  31.440  18.647  14.435
47366W        W 6627   3.266  14.744   5.195
47367W        W 6628   7.898   4.733   0.730
47368W        W 6629  21.176  12.168  11.577
47369W        W 6630  26.622  43.819   3.654
47370W        W 6631  13.780  29.968   2.724
47371W        W 6632  35.090   8.727   3.643
47372W        W 6633  14.697  22.053  11.917
47373W        W 6634   2.276  29.447  13.526
47374W        W 6635   5.849  15.786   3.810
47375W        W 6636  20.580  13.749  13.963
47376W        W 6637   2.926   1.438   4.663
47377W        W 6638  11.836   0.860   0.402
47378W        W 6639  34.587   8.861   3.351
47379W        W 6640   7.765  21.075  13.509
47380W        W 6641  42.955   3.900   4.121
47381W        W 6642  20.177  35.074   4.821
47382W        W 6643   0.319   4.430  14.341
47383W        W 6644  21.087   8.241  11.114
47384W        W 6645  38.440  33.486   0.377
47385W        W 6646  14.275  21.200   2.302
47386W        W 6647  18.745  41.481  14.393
47387W        W 6648  31.538   1.368   4.307
47388W        W 6649  24.561  40.914  11.118
47389W        W 6650  17.092   0.438   4.670
47390W        W 6651  24.696  24.223  13.936
47391W        W 6652  28.600  26.619  11.422
47392W        W 6653  19.269  42.479  12.420
47393W        W 6654  37.365  37.041   1.712
47394W        W 6655   4.915  28.018   1.287
47395W        W 6656  23.681  41.017  13.048
47396W        W 6657  29.495  17.168  10.601
47397W        W 6658   7.779  18.750  11.444
47398W        W 6659  11.835   1.756   1.880
47399W        W 6660   0.789  42.281  11.529
47400W        W 6661  38.365  16.758   1.892
47401W        W 6662  21.601  37.080  12.535
47402W        W 6663  36.024  39.036   3.310
47403W        W 6664  10.788  13.735   4.330
47404W        W 6665  31.081   3.940  11.084
47405W        W 6666  20.583  22.540   2.410
47406W        W 6667  37.348  37.076   5.142
47407W        W 6668   7.899  15.779  10.407
47408W        W 6669   8.317  36.843  11.016
47409W        W 6670  23.491  19.632  14.900
47410W        W 6671  38.473  11.672  11.100
47411W        W 6672  26.608  42.997  12.083
47412W        W 6673  10.769   8.208   3.759
47413W        W 6674   0.834  28.040   4.287
47414W        W 6675  28.465  18.564  10.405
47415W        W 6676  29.557  15.295   4.748
47416W        W 6677  23.656  21.541   4.126
47417W        W 6678   4.909   7.291   4.202
47418W        W 6679   5.771   5.292  12.927
47419W        W 6680  12.237  32.400  12.027
47420W        W 6681   0.815  11.723  14.497
47421W        W 6682  13.298  27.639   3.663
47422W        W 6683  27.993  44.869   1.737
47423W        W 6684   2.338  11.321  12.384
47424W        W 6685  35.506  11.282   4.330
47425W        W 6686  39.951  26.074  12.024
47426W        W 6687  15.205  39.862  13.425
47427W        W 6688  11.760  30.465  10.107
47428W        W 6689   8.391   5.854  12.095
47429W        W 6690  40.901  28.052  14.298
47430W        W 6691  27.637  15.669  13.320
47431W        W 6692  26.199  12.621  13.509
47432W        W 6693  35.990  32.119  13.996
47433W        W 6694  22.624  40.865   2.784
47434W        W 6695   8.284  27.140  14.840
47435W        W 6696  37.001  32.996   4.722
47436W        W 6697   9.388  14.778   4.711
47437W        W 6698   3.938  28.662   2.237
47438W        W 6699  23.052  21.521  12.847
47439W        W 6700  42.481  30.628  13.373
47440W        W 6701   2.471   0.749   2.297
47441W        W 6702  37.035  34.886   4.280
47442W        W 6703  15.283  23.542   4.294
47443W        W 6704  27.012  38.035   0.838
47444W        W 6705  22.014  41.513  11.517
47445W        W 6706  30.464  22.571   2.227
47446W        W 6707  22.733  32.089   1.893
47447W        W 6708   5.791  39.477  12.577
47448W        W 6709  25.031  22.064  14.348
47449W        W 6710  21.228  37.454  12.514
47450W        W 6711   8.688  23.636   1.323
47451W        W 6712  17.303  23.715   0.904
47452W        W 6713  34.094  40.829  14.292
47453W        W 6714  29.959  33.060  10.550
47454W        W 6715  24.085  43.513   2.292
47455W        W 6716  19.077  27.569  11.071
47456W        W 6717  17.085   4.405  10.421
47457W        W 6718   6.762  19.685  14.288
47458W        W 6719  23.179   9.835   3.377
47459W        W 6720  38.568  35.523   5.713
47460W        W 6721   0.444  26.125  11.009
47461W        W 6722  40.993  33.930   9.543
47462W        W 6723  42.297  37.553  14.858
47463W        W 6724  44.933  15.620   1.823
47464W        W 6725   0.364  30.442  13.801
47465W        W 6726  31.147   4.262   1.928
47466W        W 6727  18.570   3.357   3.310
47467W        W 6728  29.069   9.808   0.847
47468W        W 6729  17.721   1.454  14.473
47469W        W 6730  34.547  20.671  13.344
47470W        W 6731  17.711  23.491   2.316
47471W        W 6732  26.532   3.390   1.259
47472W        W 6733  41.405   8.723   4.831
47473W        W 6734  29.099  14.178   3.352
47474W        W 6735  29.928  17.141  13.855
47475W        W 6736  37.554   4.226  12.946
47476W        W 6737  32.019   6.296   1.788
47477W        W 6738  24.663  44.500   4.717
47478W        W 6739  40.519  26.059  13.331
47479W        W 6740  19.558  23.020  11.868
47480W        W 6741  44.798  27.476   5.305
47481W        W 6742  14.670  39.384   1.906
47482W        W 6743  40.369   8.224  13.395
47483W        W 6744   5.306  14.117  10.525
47484W        W 6745   7.174  42.952   1.888
47485W        W 6746  35.541  39.892  12.478
47486W        W 6747   3.742  32.506  13.990
47487W        W 6748  39.027  13.707   3.173
47488W        W 6749  27.113  22.235   3.648
47489W        W 6750  40.471   7.252  10.945
47490W        W 6751  34.611   7.214  11.053
47491W        W 6752  13.648  21.694  10.450
47492W        W 6753  42.328  12.621  14.950
47493W        W 6754  30.096   4.761   1.234
47494W        W 6755   2.843  37.903   4.339
47495W        W 6756  24.576  20.244  12.423
47496W        W 6757  20.225  29.141   2.313
47497W        W 6758  28.486  31.106   0.912
47498W        W 6759  28.557  11.256   4.289
47499W        W 6760  19.074   3.337  12.402
47500W        W 6761  15.158   8.237   3.340
47501W        W 6762   1.274  44.392  10.541
47502W        W 6763  12.724  12.705  14.783
47503W        W 6764  23.506  25.588  14.355
47504W        W 6765   8.357  40.415   2.383
47505W        W 6766  15.600  26.018  14.937
47506W        W 6767  38.425  11.171   3.162
47507W        W 6768  20.635  26.549   3.164
47508W        W 6769  28.656  23.099   1.851
47509W        W 6770  40.514   2.348  11.570
47510W        W 6771   3.388   3.377   3.374
47511W        W 6772  34.402   8.219   2.852
47512W        W 6773   4.270  15.269   3.682
47513W        W 6774  43.871   7.334   4.146
47514W        W 6775  39.836  25.142   0.771
47515W        W 6776  16.280  39.063  11.581
47516W        W 6777   4.700  42.451   2.217
47517W        W 6778   2.819   5.863   3.195
47518W        W 6779  37.495  14.784  14.312
47519W        W 6780   5.883  19.709  11.509
47520W        W 6781  17.137  35.860  10.004
47521W        W 6782  21.226   5.277  12.359
47522W        W 6783  16.077  19.581   2.321
47523W        W 6784  39.429   0.789   0.779
47524W        W 6785  19.206  18.229  11.957
47525W        W 6786  19.591  10.742  13.919
47526W        W 6787   9.249  27.999   3.329
47527W        W 6788  20.243  33.044  10.461
47528W        W 6789  19.582  41.949  10.618
47529W        W 6790  25.603  20.102   0.390
47530W        W 6791  16.075   2.273   1.738
47531W        W 6792   4.902  37.921   5.143
47532W        W 6793  15.128  40.465  10.896
47533W        W 6794  31.084  40.829  14.496
47534W        W 6795  20.650  21.700  14.374
47535W        W 6796  33.010  43.346   4.132
47536W        W 6797   9.227   7.308   2.766
47537W        W 6798  14.726  30.968  12.055
47538W        W 6799  31.542  12.630   4.314
47539W        W 6800  18.544   5.798  12.354
47540W        W 6801  33.395   5.281   0.809
47541W        W 6802  24.118  14.829  11.583
47542W        W 6803  39.380  31.519  11.944
47543W        W 6804   4.208  34.030  11.000
47544W        W 6805  25.651  10.267  10.583
47545W        W 6806  12.668  33.881   1.395
47546W        W 6807  29.511  29.139   2.189
47547W        W 6808  34.120  40.984  14.816
47548W        W 6809  17.765  11.834  13.346
47549W        W 6810   9.845  40.948   0.317
47550W        W 6811  44.760  15.100   2.322
47551W        W 6812  14.708  13.844  10.636
47552W        W 6813  36.967  32.921   1.837
47553W        W 6814  38.496  24.524  13.321
47554W        W 6815  18.156  15.781  11.375
47555W        W 6816  36.477  19.173  11.528
47556W        W 6817  14.826   5.369   3.839
47557W        W 6818  12.767  31.118   2.758
47558W        W 6819  27.970  43.793   1.839
47559W        W 6820  32.965  39.418  11.933
47560W        W 6821  34.494  16.602   2.369
47561W        W 6822   1.432  44.916   2.751
47562W        W 6823  11.759   1.861   1.353
47563W        W 6824  31.899  22.161   4.711
47564W        W 6825  32.967  23.009  12.997
47565W        W 6826   2.733  36.041   1.438
47566W        W 6827   3.231  34.386   0.747
47567W        W 6828  32.393  44.846  10.993
47568W        W 6829  37.534  28.940  12.515
47569W        W 6830  33.063  42.000  14.497
47570W        W 6831  10.688  40.823   2.222
47571W        W 6832  38.980  40.398   3.175
47572W        W 6833  32.996  24.658   4.632
47573W        W 6834   0.444  30.597   2.903
47574W        W 6835   8.705  38.566  11.553
47575W        W 6836   1.745   8.216   4.253
47576W        W 6837   1.409  40.363   3.248
47577W        W 6838   9.258  40.904   0.264
47578W        W 6839  32.114  38.329   0.250
47579W        W 6840  28.164  30.151   1.344
47580W        W 6841  37.444   7.205  12.509
47581W        W 6842  24.992  36.455   2.332
47582W        W 6843  31.953  38.393   1.925
47583W        W 6844  13.662   2.794   2.357
47584W        W 6845  35.554   5.284   2.735
47585W        W 6846  23.719   1.816  10.437
47586W        W 6847  33.553  20.597   4.836
47587W        W 6848   4.204  31.899  12.074
47588W        W 6849  15.700  30.029   3.166
47589W        W 6850  32.945  38.332   0.398
47590W        W 6851  22.111  31.101   1.882
47591W        W 6852  15.202  29.974  11.872
47592W        W 6853  19.255  40.000   0.426
47593W        W 6854  12.307  38.827   2.358
47594W        W 6855  24.514  29.556   1.828
47595W        W 6856  23.711  23.526  11.568
47596W        W 6857  12.272  11.220   0.466
47597W        W 6858   2.872   6.222  11.578
47598W        W 6859  10.674  35.442   3.736
47599W        W 6860   9.881   5.702  13.447
47600W        W 6861   4.206  27.580   0.814
47601W        W 6862   3.876  44.384   1.216
47602W        W 6863  17.233   6.343   0.313
47603W        W 6864  35.860   2.335   3.239
47604W        W 6865  24.685  31.017   1.928
47605W        W 6866  43.411  16.770  10.541
47606W        W 6867   8.388  14.829   1.326
47607W        W 6868   5.713   8.212  14.281
47608W        W 6869   2.369  38.412  11.581
47609W        W 6870  41.304  27.467  11.105
47610W        W 6871  36.570  37.427  10.950
47611W        W 6872  17.630  43.817   0.462
47612W        W 6873  28.566   9.184  13.416
47613W        W 6874  12.265  29.923  10.600
47614W        W 6875  44.991  37.950   3.805
47615W        W 6876   7.904  34.033   3.679
47616W        W 6877  24.703   4.413   3.204
47617W        W 6878  20.036  27.471  14.928
47618W        W 6879  41.435  27.692   0.425
47619W        W 6880  16.080  20.595   9.561
47620W        W 6881  19.708  24.974  14.311
47621W        W 6882   0.876  23.988   3.680
47622W        W 6883  24.122  21.258   4.118
47623W        W 6884  35.587  44.473   3.642
47624W        W 6885   2.326  44.998  10.615
47625W        W 6886  12.739  36.421  13.943
47626W        W 6887  26.980  31.022   0.270
47627W        W 6888  41.377  12.821  10.907
47628W        W 6889   8.239  28.072   1.366
47629W        W 6890  29.626  42.974   4.272
47630W        W 6891  33.075  34.889  10.902
47631W        W 6892  10.733  20.173   4.324
47632W        W 6893  35.459  21.261  14.467
47633W        W 6894   3.273   2.253   1.782
47634W        W 6895  17.096  17.070  14.924
47635W        W 6896  30.568  29.503   4.781
47636W        W 6897  28.647  34.885  12.532
47637W        W 6898  28.076  24.054   3.280
47638W        W 6899   2.737  34.477   0.832
47639W        W 6900  37.028  39.898  14.863
47640W        W 6901  38.902   4.895   0.784
47641W        W 6902  11.309  13.603  10.417
47642W        W 6903   1.890  13.185   1.841
47643W        W 6904  38.461  38.047   0.283
47644W        W 6905  22.109  33.046  11.411
47645W        W 6906  23.174   3.932   5.699
47646W        W 6907  16.285  30.536   0.953
47647W        W 6908  15.789   2.814  11.486
47648W        W 6909  16.731   1.411  14.402
47649W        W 6910  17.271  33.962  13.459
47650W        W 6911   4.301  25.990  12.874
47651W        W 6912  16.108  27.516   4.690
47652W        W 6913  43.430  33.500   2.836
47653W        W 6914  20.238  23.692   1.296
47654W        W 6915   6.697   2.749   0.359
47655W        W 6916  32.402  36.412  12.050
47656W        W 6917  22.588  20.228   4.157
47657W        W 6918  33.904  13.633  13.009
47658W        W 6919  17.249  20.147  12.962
47659W        W 6920  35.109   6.293  13.489
47660W        W 6921  20.599  11.814   1.743
47661W        W 6922   2.720  16.687  11.535
47662W        W 6923   0.403  23.577  14.487
47663W        W 6924  36.519  19.650   0.429
47664W        W 6925  23.735  28.502  10.069
47665W        W 6926  29.019  19.228   1.859
47666W        W 6927  20.040   3.757   3.253
47667W        W 6928  34.577  17.285   2.749
47668W        W 6929  23.647  34.385   3.645
47669W        W 6930  32.104  18.166   3.153
47670W        W 6931  28.460  30.617  13.391
47671W        W 6932  27.049   1.869   2.783
47672W        W 6933  43.406  32.990   4.787
47673W        W 6934  19.057  17.299   2.840
47674W        W 6935   9.252  32.422  14.902
47675W        W 6936  37.914  14.245   4.757
47676W        W 6937  21.169  27.638   4.802
47677W        W 6938  33.545   5.696  10.906
47678W        W 6939   4.842  29.623  11.404
47679W        W 6940  16.304  37.547  12.933
47680W        W 6941   3.876  16.733   1.862
47681W        W 6942  21.692  38.063  14.402
47682W        W 6943  39.496  24.483  11.119
47683W        W 6944   1.426  22.576   0.253
47684W        W 6945  40.038  36.384   2.731
47685W        W 6946   6.683  41.838   3.798
47686W        W 6947   3.912  28.976   4.680
47687W        W 6948  42.299  15.214   1.836
47688W        W 6949  29.067  13.614   0.302
47689W        W 6950   7.735  40.889  10.445
47690W        W 6951  28.606  11.738   0.870
47691W        W 6952  42.974   4.355   1.388
47692W        W 6953  23.531  29.161  11.524
47693W        W 6954  33.974  37.563   1.291
47694W        W 6955  17.575  15.250  13.042
47695W        W 6956  27.450  27.628  11.530
47696W        W 6957   8.735  28.051   3.735
47697W        W 6958   9.232  41.409   3.370
47698W        W 6959  22.701  21.723   3.233
47699W        W 6960  35.067  31.636  13.876
47700W        W 6961  38.993  13.693  12.914
47701W        W 6962   0.406  32.486   3.634
47702W        W 6963  44.460  21.643   0.934
47703W        W 6964   4.381  23.513   0.839
47704W        W 6965  12.851  31.029  13.859
47705W        W 6966  22.014  12.615  14.361
47706W        W 6967   8.300  40.466   0.391
47707W        W 6968  27.055  12.190   4.674
47708W        W 6969   8.743  28.944  11.976
47709W        W 6970  37.054  13.820  14.360
47710W        W 6971  41.373  44.283   0.459
47711W        W 6972  30.046  37.954  11.594
47712W        W 6973  32.498  29.049  11.025
47713W        W 6974  25.971  41.506   0.274
47714W        W 6975  33.451  27.513  13.894
47715W        W 6976   6.689   9.241   1.347
47716W        W 6977  43.933  39.029   1.218
47717W        W 6978  13.325   9.180  10.992
47718W        W 6979  36.494  23.722  12.959
47719W        W 6980   7.682  34.510   4.264
47720W        W 6981   5.920  25.200   0.949
47721W        W 6982  42.859  44.004  12.858
47722W        W 6983  10.835  43.909  12.058
47723W        W 6984  32.942  40.968   2.741
47724W        W 6985   8.881  30.461  12.075
47725W        W 6986  30.495  25.111   2.363
47726W        W 6987  34.095  34.072   0.727
47727W        W 6988  25.578  21.600   0.463
47728W        W 6989  27.985  40.986   4.242
47729W        W 6990   3.768  29.558  10.970
47730W        W 6991  34.888  32.604  12.048
47731W        W 6992   9.262  28.572   1.300
47732W        W 6993   6.713   4.799  14.380
47733W        W 6994  42.949  11.168   2.797
47734W        W 6995  14.790  39.974   2.833
47735W        W 6996  30.993  21.589  10.438
47736W        W 6997  25.139   6.856   4.687
47737W        W 6998  20.635   4.353   0.771
47738W        W 6999  27.489  35.086  11.421
47739W        W 7000  28.072  15.593   4.754
47740W        W 7001  36.367  44.489   0.422
47741W        W 7002  17.271  14.709   4.151
47742W        W 7003   3.889   9.247   4.777
47743W        W 7004   9.178   2.413  12.457
47744W        W 7005   9.375  24.686   4.811
47745W        W 7006  40.962  34.990  11.544
47746W        W 7007  10.858  42.336   2.344
47747W        W 7008  30.565   4.771   1.354
47748W        W 7009  31.898   2.409   1.285
47749W        W 7010   5.888  14.287   2.390
47750W        W 7011  41.001  16.137  14.297
47751W        W 7012  11.759  26.044   2.350
47752W        W 7013  12.341  35.926  12.015
47753W        W 7014  11.794  12.818  11.955
47754W        W 7015   0.792  14.101  10.614
47755W        W 7016  27.566  29.123   3.152
47756W        W 7017  28.141  32.064  10.978
47757W        W 7018  20.673  34.030   4.615
47758W        W 7019   3.236  43.872  12.896
47759W        W 7020  14.638  23.999   2.695
47760W        W 7021  29.454  14.680   4.617
47761W        W 7022   3.346   4.753  13.016
47762W        W 7023  44.451  27.080  13.323
47763W        W 7024  38.460   3.406  11.412
47764W        W 7025   0.378   1.338  10.939
47765W        W 7026  38.048   7.356  11.017
47766W        W 7027  42.430  36.900  14.938
47767W        W 7028  27.511  10.832   3.762
47768W        W 7029  19.673  30.938   2.396
47769W        W 7030  33.980  27.146  11.056
47770W        W 7031  39.416  21.695   4.823
47771W        W 7032  34.088  14.606   0.268
47772W        W 7033  28.614  43.429  14.385
47773W        W 7034   6.712   7.415   1.358
47774W        W 7035  18.122  15.275  11.084
47775W        W 7036   1.732   8.721   4.679
47776W        W 7037  31.600   5.900   0.311
47777W        W 7038  32.597  33.472   2.734
47778W        W 7039  11.644  34.040  11.021
47779W        W 7040  22.046  32.470  11.481
47780W        W 7041   0.883  33.435  11.019
47781W        W 7042  16.139   2.938  13.906
47782W        W 7043  32.580  28.560  12.826
47783W        W 7044  19.761   3.295   1.317
47784W        W 7045  35.900  24.608  12.348
47785W        W 7046   1.479   6.895  11.415
47786W        W 7047   6.799  38.416   1.289
47787W        W 7048  23.157   9.742  13.004
47788W        W 7049   4.438  20.622  13.895
47789W        W 7050   1.858   9.222   3.323
47790W        W 7051   3.874  22.570   1.826
47791W        W 7052   8.736  36.067   4.610
47792W        W 7053  38.927  37.858   1.357
47793W        W 7054  18.284  35.399   3.232
47794W        W 7055  10.338  36.089   2.836
47795W        W 7056  39.507  39.324  12.546
47796W        W 7057   5.775   7.315  14.767
47797W        W 7058  39.437  31.602   3.265
47798W        W 7059  38.502  33.390  13.843
47799W        W 7060  12.326  35.551  13.509
47800W        W 7061  27.085   7.832  12.422
47801W        W 7062   9.293  38.419   2.817
47802W        W 7063  14.724   3.781  12.019
47803W        W 7064  18.710  36.060  11.475
47804W        W 7065  22.185  44.793  13.894
47805W        W 7066  25.590   2.953   2.721
47806W        W 7067  13.190  25.515  10.411
47807W        W 7068  14.332   7.285  12.016
47808W        W 7069  19.744  24.044   5.171
47809W        W 7070  15.098  26.551  10.911
47810W        W 7071   2.723  42.806   3.170
47811W        W 7072  18.071  42.988  12.477
47812W        W 7073   6.695  20.595  14.406
47813W        W 7074  14.749  30.012  10.923
47814W        W 7075  36.958  11.667   4.210
47815W        W 7076  13.208  19.049  10.420
47816W        W 7077   5.863  22.686   1.291
47817W        W 7078  21.584  42.366   2.245
47818W        W 7079  19.638  38.512   1.931
47819W        W 7080  22.573  38.484   4.326
47820W        W 7081   6.753  40.817  12.373
47821W        W 7082  11.657  13.815   3.222
47822W        W 7083   9.233  23.149   4.606
47823W        W 7084   4.896  44.386   3.294
47824W        W 7085  35.362  28.163   2.820
47825W        W 7086   9.754  25.679  14.965
47826W        W 7087  10.273   0.371  12.499
47827W        W 7088  40.941   7.856   3.718
47828W        W 7089  20.684   5.825   4.118
47829W        W 7090  19.198  18.577   0.788
47830W        W 7091  16.087  26.153   0.784
47831W        W 7092  38.370  25.128  13.007
47832W        W 7093  40.483  10.712  11.475
47833W        W 7094   8.739  22.196  13.522
47834W        W 7095  43.837  32.952   2.682
47835W        W 7096  17.146  31.557   2.257
47836W        W 7097  12.163  29.068  10.061
47837W        W 7098  38.075  37.411  14.286
47838W        W 7099  34.005  44.817  12.575
47839W        W 7100   8.222  33.444   4.198
47840W        W 7101   3.801  15.729  10.529
47841W        W 7102   6.729  21.654   4.322
47842W        W 7103  28.651  40.802   0.923
47843W        W 7104  38.384  11.709   3.169
47844W        W 7105  24.695  33.547  14.359
47845W        W 7106  14.724  33.604   3.726
47846W        W 7107  18.066   4.441  11.403
47847W        W 7108  14.787  38.909  12.555
47848W        W 7109  22.125  32.556  13.351
47849W        W 7110   4.745   6.877   4.302
47850W        W 7111  34.103  10.817   0.482
47851W        W 7112  32.971  15.595  11.585
47852W        W 7113  37.442  21.732  13.464
47853W        W 7114  19.054  38.988   0.902
47854W        W 7115  40.037  24.541   0.872
47855W        W 7116  14.324  28.616  10.559
47856W        W 7117  14.797  14.138   4.242
47857W        W 7118  18.205   7.255  12.580
47858W        W 7119  17.654  41.971   1.828
47859W        W 7120  28.096  15.622   0.380
47860W        W 7121  43.297  27.497   4.315
47861W        W 7122  44.344   2.893   0.954
47862W        W 7123   3.292  16.179   0.792
47863W        W 7124  35.904  15.786   2.189
47864W        W 7125   3.780  27.073   3.239
47865W        W 7126  16.144  38.941   2.863
47866W        W 7127  12.336  21.236   0.324
47867W        W 7128  25.101  25.598  10.529
47868W        W 7129  16.223  42.401  12.002
47869W        W 7130  39.021  25.668  14.310
47870W        W 7131  43.490  31.902   4.346
47871W        W 7132  27.686  32.921  13.521
47872W        W 7133  22.184   7.209  11.892
47873W        W 7134  43.784  37.845   4.695
47874W        W 7135   0.289  42.855   4.614
47875W        W 7136  11.645  28.134  14.501
47876W        W 7137  26.613  18.707   3.765
47877W        W 7138  32.513  36.978  12.419
47878W        W 7139  26.170   9.352   3.652
47879W        W 7140  35.445  39.530   4.281
47880W        W 7141   7.687  37.855   0.389
47881W        W 7142  34.530  40.054   1.738
47882W        W 7143  23.691  10.805  10.528
47883W        W 7144  44.320   0.455  10.510
47884W        W 7145   7.747   7.708  13.883
47885W        W 7146  44.820  16.576  14.780
47886W        W 7147   8.329   7.253  12.479
47887W        W 7148  10.170  24.498   0.818
47888W        W 7149   4.433   8.754   0.906
47889W        W 7150   5.795   0.390   3.758
47890W        W 7151  16.690  37.555  10.006
47891W        W 7152  22.101  18.768   3.743
47892W        W 7153  30.101   4.271  11.978
47893W        W 7154   4.808  36.499  11.105
47894W        W 7155   2.309  32.541  11.502
47895W        W 7156  23.533  38.500  10.528
47896W        W 7157  42.400  15.220  10.906
47897W        W 7158  20.553  12.785   4.807
47898W        W 7159  28.555  36.560  13.022
47899W        W 7160  35.409  29.986  13.011
47900W        W 7161   9.698   3.947  11.500
47901W        W 7162   9.353   2.960   2.405
47902W        W 7163  16.300  34.967   1.286
47903W        W 7164  36.571  25.498   1.378
47904W        W 7165   9.789  19.644  13.371
47905W        W 7166  10.146   3.357   3.308
47906W        W 7167  44.337   2.354  10.560
47907W        W 7168  18.213  12.337   3.362
47908W        W 7169  19.091  28.440   5.776
47909W        W 7170  20.768  22.636  11.926
47910W        W 7171   9.797   6.766  12.439
47911W        W 7172  23.651  30.137   2.190
47912W        W 7173  33.505  18.069  10.079
47913W        W 7174  30.161   5.846  14.440
47914W        W 7175  22.118  26.466  10.460
47915W        W 7176  40.028  10.761  10.902
47916W        W 7177  22.505  39.013   1.847
47917W        W 7178  26.074  22.068  12.062
47918W        W 7179  40.325  11.241   1.325
47919W        W 7180  13.321  44.962   2.307
47920W        W 7181  21.163  44.979   1.890
47921W        W 7182  34.497  34.050   2.358
47922W        W 7183  29.018  15.170  13.940
47923W        W 7184  43.383  43.960  14.031
47924W        W 7185   7.676  17.169  13.049
47925W        W 7186  19.602   0.772   2.302
47926W        W 7187  28.526  30.128  14.396
47927W        W 7188  32.918  20.114   3.704
47928W        W 7189  10.782   1.770  13.518
47929W        W 7190  17.179  20.098   4.777
47930W        W 7191  18.782  16.588  12.355
47931W        W 7192   7.346  31.407   2.837
47932W        W 7193   3.796  43.843   4.277
47933W        W 7194  22.679  15.145  11.939
47934W        W 7195  30.587  16.686   4.167
47935W        W 7196   7.324  17.556  14.899
47936W        W 7197  15.621  15.726   2.401
47937W        W 7198   0.323   6.340   3.319
47938W        W 7199  18.080   2.815  13.018
47939W        W 7200  21.688   0.285   3.866
47940W        W 7201  25.067   9.321  10.512
47941W        W 7202  35.402  11.336   0.327
47942W        W 7203  15.244  19.775   2.875
47943W        W 7204  33.598  13.770  11.022
47944W        W 7205  26.994  39.461   0.900
47945W        W 7206  14.251  33.070  10.888
47946W        W 7207  12.738  27.610   1.439
47947W        W 7208  24.161  26.495  14.027
47948W        W 7209  10.251  40.323  11.855
47949W        W 7210  12.268  28.094  12.839
47950W        W 7211   2.392  25.982   4.250
47951W        W 7212  31.556  43.395   1.713
47952W        W 7213  30.965  22.053  13.479
47953W        W 7214  16.592  34.105   2.224
47954W        W 7215  15.587  25.557   5.267
47955W        W 7216   5.407  28.469   4.761
47956W        W 7217  40.983  19.625  12.540
47957W        W 7218  29.526  27.946   2.785
47958W        W 7219  23.085  15.743  10.525
47959W        W 7220  28.978  19.233  14.516
47960W        W 7221  30.481  22.141   0.967
47961W        W 7222  16.289  29.121   2.258
47962W        W 7223  27.601   9.278   0.932
47963W        W 7224  12.307  35.857  13.836
47964W        W 7225   3.947   7.841   4.123
47965W        W 7226   4.875  29.603   2.715
47966W        W 7227  29.553  30.947  13.844
47967W        W 7228  35.403  29.584   4.314
47968W        W 7229  28.480  33.543   1.367
47969W        W 7230  39.937  26.688  13.446
47970W        W 7231  30.641  19.181   1.367
47971W        W 7232  28.569  24.523  12.523
47972W        W 7233   4.779  40.835  11.378
47973W        W 7234   3.452  33.459  10.591
47974W        W 7235  19.103  39.963   1.905
47975W        W 7236  42.861  22.646  14.350
47976W        W 7237  11.804  23.174   1.410
47977W        W 7238  39.953  29.987  14.435
47978W        W 7239  33.596   9.315   0.730
47979W        W 7240  36.549   9.762   3.194
47980W        W 7241   4.243  25.038  11.857
47981W        W 7242  36.976  21.174  11.065
47982W        W 7243  29.442  42.979   5.262
47983W        W 7244  38.371   1.926  10.518
47984W        W 7245  40.528  44.008  13.931
47985W        W 7246  24.700  26.981   3.371
47986W        W 7247  21.743  37.387  13.888
47987W        W 7248  42.286  10.856   2.228
47988W        W 7249  20.170  30.611  14.892
47989W        W 7250  35.544  22.609  14.954
47990W        W 7251   1.768  15.230   1.905
47991W        W 7252  20.712  31.993  10.961
47992W        W 7253  21.033  34.033  10.427
47993W        W 7254   0.979  17.163   0.324
47994W        W 7255  44.456  30.561  10.508
47995W        W 7256  29.531  18.609  10.632
47996W        W 7257  39.895  23.553  10.963
47997W        W 7258   9.226  34.570   1.366
47998W        W 7259  20.054  31.127  11.433
47999W        W 7260  21.573   6.709  12.486
48000W        W 7261  23.224   2.908   3.734
48001W        W 7262  11.687  13.156  14.398
48002W        W 7263  34.922  18.268  10.459
48003W        W 7264   5.804  40.809  10.532
48004W        W 7265  34.476  23.629   4.207
48005W        W 7266  33.479  14.131   1.431
48006W        W 7267   4.756  23.572  12.966
48007W        W 7268  42.354  16.202  12.085
48008W        W 7269  23.126  10.177  14.497
48009W        W 7270  41.410   9.804   3.180
48010W        W 7271  41.396   0.367   3.267
48011W        W 7272   5.929  16.150  12.905
48012W        W 7273  23.130  16.153  10.580
48013W        W 7274  44.869  22.662  11.912
48014W        W 7275  43.803   8.366  11.587
48015W        W 7276  29.453  35.898  13.015
48016W        W 7277  43.460  20.610  14.300
48017W        W 7278  22.715  13.120   3.325
48018W        W 7279   3.441  43.468  13.347
48019W        W 7280  25.136  20.051   2.241
48020W        W 7281  21.740  29.587   1.765
48021W        W 7282  17.694   3.221  12.030
48022W        W 7283   2.941  35.530  11.047
48023W        W 7284  16.570  39.977  14.426
48024W        W 7285   8.780   2.448   3.337
48025W        W 7286  44.765   1.398  13.043
48026W        W 7287  24.180  23.165  11.061
48027W        W 7288  13.182   4.210   2.885
48028W        W 7289   1.447  36.444   2.724
48029W        W 7290  44.917  14.647   0.885
48030W        W 7291  16.727  22.145  13.022
48031W        W 7292  38.560   5.883   0.858
48032W        W 7293  37.000  44.996  12.085
48033W        W 7294  42.410  24.647   3.168
48034W        W 7295  25.561   5.841   1.716
48035W        W 7296  27.517  12.712  13.872
48036W        W 7297  29.095   3.837  11.520
48037W        W 7298  38.834  18.118  14.874
48038W        W 7299   1.752   9.768  14.279
48039W        W 7300   8.665  31.058   4.681
48040W        W 7301  22.615  41.452  12.509
48041W        W 7302  36.889  18.235  13.944
48042W        W 7303  18.637  38.466   4.636
48043W        W 7304  14.590  20.245   0.309
48044W        W 7305  25.642  18.105   3.760
48045W        W 7306  10.662  41.488  14.294
48046W        W 7307  13.613  26.650  13.361
48047W        W 7308   3.809   3.365  11.451
48048W        W 7309   0.344  21.586  13.970
48049W        W 7310  34.614  20.244  12.026
48050W        W 7311  34.525  35.043  13.990
48051W        W 7312  38.571  22.615   1.285
48052W        W 7313  11.714  35.537  13.915
48053W        W 7314  17.714   8.276  12.467
48054W        W 7315  22.661  16.123   1.440
48055W        W 7316  42.970  24.084  14.295
48056W        W 7317  32.417  11.856  12.830
48057W        W 7318  23.573  24.691   2.838
48058W        W 7319  11.748  13.327   0.416
48059W        W 7320  11.316  33.064   4.750
48060W        W 7321  43.937  28.153   1.445
48061W        W 7322   3.320  39.519  11.993
48062W        W 7323  38.397  14.107   2.190
48063W        W 7324  39.932   2.763   3.255
48064W        W 7325  35.599  25.000   1.316
48065W        W 7326  40.321  10.245  10.494
48066W        W 7327   0.342  36.465  10.539
48067W        W 7328   6.688   0.282   1.860
48068W        W 7329   3.903  31.598  13.850
48069W        W 7330  22.725  10.146   2.678
48070W        W 7331  23.677  44.338   0.796
48071W        W 7332   5.800  41.400   2.692
48072W        W 7333  26.491   9.656  10.620
48073W        W 7334  21.641   3.859   2.868
48074W        W 7335  39.989  41.934  10.432
48075W        W 7336  35.096  23.137   4.720
48076W        W 7337  44.379   5.704   0.805
48077W        W 7338  27.649  21.641   3.824
48078W        W 7339  10.370  41.858   0.867
48079W        W 7340  43.473   4.228  14.356
48080W        W 7341  43.832   4.294   2.893
48081W        W 7342  17.098  40.017   3.697
48082W        W 7343  23.161  25.478  11.455
48083W        W 7344  38.890   0.800  14.831
48084W        W 7345  28.148  13.780  14.285
48085W        W 7346   0.782  18.091   1.300
48086W        W 7347  40.514  34.494   2.784
48087W        W 7348  39.885  40.041   0.783
48088W        W 7349   7.189  17.116  14.394
48089W        W 7350  13.322  33.496   0.305
48090W        W 7351  31.123   0.878   0.733
48091W        W 7352  21.517  17.062   0.434
48092W        W 7353   3.436   7.336  11.980
48093W        W 7354   8.352  40.427   3.173
48094W        W 7355  24.696  36.510  13.936
48095W        W 7356  23.104  27.056   1.907
48096W        W 7357  21.112   2.841  11.598
48097W        W 7358  29.655  43.471   1.909
48098W        W 7359   4.295  39.517  12.056
48099W        W 7360   2.790  41.401   2.413
48100W        W 7361  17.797   8.276  13.526
48101W        W 7362   7.269   2.464  10.439
48102W        W 7363  40.508  11.305   0.839
48103W        W 7364  13.651  38.923  13.844
48104W        W 7365   5.392  28.645   4.235
48105W        W 7366  21.097   2.470  14.762
48106W        W 7367  34.969   5.800  14.885
48107W        W 7368  38.520   3.249  13.342
48108W        W 7369   2.900  20.275  13.047
48109W        W 7370   5.846  22.219  14.418
48110W        W 7371  40.546  38.326  11.883
48111W        W 7372  10.723  24.211   4.322
48112W        W 7373  20.184  18.294  13.946
48113W        W 7374   7.289   7.182  10.144
48114W        W 7375  26.515  12.675   3.146
48115W        W 7376  34.581  28.041   2.748
48116W        W 7377   1.299  27.485  13.962
48117W        W 7378  14.730  26.006  13.005
48118W        W 7379  23.106   0.904  14.285
48119W        W 7380  11.779  25.199  14.813
48120W        W 7381  36.474  27.564   0.334
48121W        W 7382  25.486  18.120  10.149
48122W        W 7383  40.980  19.685  11.008
48123W        W 7384  10.339  26.105  14.785
48124W        W 7385  33.895  44.888  14.005
48125W        W 7386   7.334   9.749   4.830
48126W        W 7387  14.286  44.952   3.264
48127W        W 7388   3.334   8.215   4.160
48128W        W 7389  43.889  38.977   3.708
48129W        W 7390   7.833  25.579  13.035
48130W        W 7391  35.512  22.535   4.755
48131W        W 7392  39.464  20.067   3.824
48132W        W 7393   4.777  12.287   4.350
48133W        W 7394  39.556  17.645   0.813
48134W        W 7395  43.437  27.092  11.486
48135W        W 7396  10.179  13.151   1.239
48136W        W 7397  29.157  42.807  13.529
48137W        W 7398  30.605  43.764   2.831
48138W        W 7399  13.271  29.043  11.895
48139W        W 7400  25.593  21.050  14.947
48140W        W 7401  10.333   5.733   0.818
48141W        W 7402  12.343  32.971   1.212
48142W        W 7403   3.773   6.819  13.912
48143W        W 7404  33.917  41.410  12.951
48144W        W 7405   1.809  15.190   2.851
48145W        W 7406   9.658  12.220  11.406
48146W        W 7407   6.367  38.074   1.810
48147W        W 7408  23.233  32.620   4.118
48148W        W 7409  43.840   8.873  13.055
48149W        W 7410   5.730  24.016  11.421
48150W        W 7411  33.103  29.612   2.748
48151W        W 7412  40.894  30.565  11.498
48152W        W 7413  20.167  17.099   9.473
48153W        W 7414  16.617  27.060  12.572
48154W        W 7415  34.069  11.146   4.193
48155W        W 7416   0.357   0.791   0.277
48156W        W 7417  10.841  40.367   2.846
48157W        W 7418  26.600  15.225  10.898
48158W        W 7419  14.195   0.753   1.888
48159W        W 7420   6.320   1.373  12.433
48160W        W 7421  27.539  11.219   3.720
48161W        W 7422  28.679   9.848  10.428
48162W        W 7423  40.885  17.606  12.437
48163W        W 7424  16.106   0.415   0.886
48164W        W 7425  23.217  21.674  13.821
48165W        W 7426   9.232  14.163   1.321
48166W        W 7427  29.042  35.400  14.443
48167W        W 7428   9.844  42.877  13.477
48168W        W 7429   5.195  31.136  14.862
48169W        W 7430  14.789  11.627  11.060
48170W        W 7431  13.109   9.865   0.327
48171W        W 7432  40.800  39.327   1.319
48172W        W 7433  27.612  21.123  13.325
48173W        W 7434  26.046  24.022   1.225
48174W        W 7435   7.261  22.237   1.743
48175W        W 7436   3.378  39.420  12.494
48176W        W 7437   8.286   9.749  13.877
48177W        W 7438  42.872  25.497   2.409
48178W        W 7439  25.159  16.114   1.886
48179W        W 7440  24.171   0.330   1.311
48180W        W 7441   6.907  34.029   2.180
48181W        W 7442  26.593  33.575  11.913
48182W        W 7443  37.427   3.323   4.162
48183W        W 7444   6.679   3.247  11.001
48184W        W 7445  24.545  33.419   2.788
48185W        W 7446  24.660  41.035   1.699
48186W        W 7447  33.385  28.573   0.885
48187W        W 7448   3.820   9.350  12.930
48188W        W 7449  27.942  28.572  13.411
48189W        W 7450   9.803  22.183   1.829
48190W        W 7451  37.065   7.371   2.386
48191W        W 7452  24.114  35.538  14.828
48192W        W 7453  27.989  26.160   3.682
48193W        W 7454  15.188  42.942  13.379
48194W        W 7455  12.665  23.014   0.272
48195W        W 7456  34.451  28.453  11.017
48196W        W 7457  42.475  15.097   3.810
48197W        W 7458  44.300  40.927  13.997
48198W        W 7459   3.459  20.200   2.248
48199W        W 7460  31.127  36.872  13.911
48200W        W 7461   2.457  42.941   0.925
48201W        W 7462  38.361   2.846  10.488
48202W        W 7463  14.710  39.401  11.499
48203W        W 7464  43.856  36.397   1.754
48204W        W 7465  42.815   9.883  14.934
48205W        W 7466  43.799  20.172   0.483
48206W        W 7467  19.245  37.924  10.464
48207W        W 7468  41.987  24.491   3.219
48208W        W 7469  31.023   2.246  14.444
48209W        W 7470  16.299  39.964  14.303
48210W        W 7471  14.654   6.317  14.020
48211W        W 7472  34.107  24.220  13.399
48212W        W 7473  31.569  22.679   2.318
48213W        W 7474  39.512  14.180   4.353
48214W        W 7475  34.985  38.340   4.809
48215W        W 7476  13.668  25.987  13.376
48216W        W 7477  18.124   1.882   0.881
48217W        W 7478  43.933  19.205   2.676
48218W        W 7479  13.118  30.040  10.918
48219W        W 7480  19.550  22.081   5.131
48220W        W 7481  41.417  23.520   4.668
48221W        W 7482  19.172  23.043   1.418
48222W        W 7483  23.716  10.268  11.553
48223W        W 7484  39.061  36.473  14.351
48224W        W 7485  19.724  35.418  13.012
48225W        W 7486   4.923  37.055  12.076
48226W        W 7487  29.665  43.336  12.855
48227W        W 7488  28.588  42.409   4.671
48228W        W 7489  35.874  23.153  11.068
48229W        W 7490  42.961  36.534   2.191
48230W        W 7491  23.675   7.281   0.244
48231W        W 7492   3.402  40.009   1.829
48232W        W 7493  27.134  31.947  13.352
48233W        W 7494  21.710  22.054  12.862
48234W        W 7495  40.509  42.993   3.273
48235W        W 7496  24.705  11.784   1.352
48236W        W 7497   4.294  37.551   5.214
48237W        W 7498  31.594  23.235  12.830
48238W        W 7499  26.535  14.234   4.208
48239W        W 7500  26.172  32.567   2.750
48240W        W 7501   3.334  14.618  10.450
48241W        W 7502   8.710  21.164  11.952
48242W        W 7503  37.343  28.020  14.022
48243W        W 7504  23.130  18.209   0.790
48244W        W 7505  43.486   3.729   2.896
48245W        W 7506  28.525  36.563  11.936
48246W        W 7507  37.578  42.004  12.041
48247W        W 7508   0.376  22.747   1.292
48248W        W 7509  43.510  14.258  14.781
48249W        W 7510  37.433   1.414   4.703
48250W        W 7511  36.352  44.308   2.664
48251W        W 7512  22.745  34.399   0.396
48252W        W 7513  43.965  21.135  12.447
48253W        W 7514   5.697   5.198   3.336
48254W        W 7515  38.962  32.067   4.695
48255W        W 7516  23.130  30.492  11.979
48256W        W 7517   3.735   8.852  13.947
48257W        W 7518  21.223  34.598  11.089
48258W        W 7519  27.129  13.826  12.930
48259W        W 7520  42.995  11.810  12.509
48260W        W 7521   8.723  35.538  11.017
48261W        W 7522  41.455   0.799   2.754
48262W        W 7523  15.177  18.550  12.854
48263W        W 7524  22.147  12.755  11.535
48264W        W 7525   9.156  30.966   0.269
48265W        W 7526  15.171   8.276  13.519
48266W        W 7527  22.710  28.436   3.850
48267W        W 7528   3.803  40.398   0.322
48268W        W 7529  35.012   6.775   3.311
48269W        W 7530  36.388  39.478   1.254
48270W        W 7531  38.429  27.940  13.818
48271W        W 7532  17.220  38.329  10.501
48272W        W 7533   0.773  34.891   4.254
48273W        W 7534  11.635  14.239  13.548
48274W        W 7535  14.617  11.277   0.878
48275W        W 7536   0.930  43.275  13.823
48276W        W 7537  15.204  40.343   2.265
48277W        W 7538  26.080  32.885  14.365
48278W        W 7539  34.397  20.738  12.547
48279W        W 7540   8.405  15.791   2.883
48280W        W 7541  34.923  27.477  11.525
48281W        W 7542  23.083  23.691  12.987
48282W        W 7543   6.858  33.119  13.322
48283W        W 7544  23.602  12.333  13.470
48284W        W 7545  22.523  20.557   3.240
48285W        W 7546  25.068  24.054   2.728
48286W        W 7547  24.580  12.790  14.919
48287W        W 7548  37.894  10.722  10.143
48288W        W 7549  39.479  13.616   3.752
48289W        W 7550   9.798   0.813   4.330
48290W        W 7551  22.651  40.358  11.441
48291W        W 7552   5.266  22.086   0.817
48292W        W 7553  36.564  16.107   3.851
48293W        W 7554  18.703  23.647   1.925
48294W        W 7555  42.833   8.727  13.025
48295W        W 7556  44.337  27.972  14.853
48296W        W 7557  28.505   4.241   0.757
48297W        W 7558  43.928   9.683  11.569
48298W        W 7559   2.414  10.370  12.470
48299W        W 7560  27.690   3.853   0.352
48300W        W 7561   3.787  27.945   1.353
48301W        W 7562  16.163  17.747   3.282
48302W        W 7563  27.090  44.858  13.049
48303W        W 7564  38.357  22.042   3.762
48304W        W 7565  30.594   7.337  14.881
48305W        W 7566  18.063  12.723   0.946
48306W        W 7567  10.192  38.061  14.900
48307W        W 7568  10.282  27.956   3.205
48308W        W 7569  44.901  16.673   3.166
48309W        W 7570   6.391  32.043   5.157
48310W        W 7571  35.457  28.435   4.726
48311W        W 7572   7.702   2.327   2.766
48312W        W 7573  11.243  28.141   0.859
48313W        W 7574  37.407   2.924  12.965
48314W        W 7575  26.063  40.837  12.009
48315W        W 7576   0.896   8.271  10.441
48316W        W 7577  19.744  42.305  10.988
48317W        W 7578  24.212  33.466  13.508
48318W        W 7579  27.538   9.701  12.996
48319W        W 7580  11.824  25.640  11.087
48320W        W 7581  16.306  24.981  12.480
48321W        W 7582   1.778  39.936   1.826
48322W        W 7583  39.462  30.505  14.795
48323W        W 7584  44.825   1.929  11.104
48324W        W 7585  18.236  17.587  11.475
48325W        W 7586   3.749  16.695   3.269
48326W        W 7587  37.577  22.526   0.441
48327W        W 7588  43.854   2.880  14.346
48328W        W 7589  28.544   2.287  13.354
48329W        W 7590  17.599  28.518  13.312
48330W        W 7591  35.415   2.824   2.772
48331W        W 7592  13.628  29.064   0.431
48332W        W 7593  38.359  27.568  14.384
48333W        W 7594  41.440   7.245   0.307
48334W        W 7595  44.868  12.711   3.679
48335W        W 7596   3.935  13.649  11.578
48336W        W 7597  34.930  27.010   0.858
48337W        W 7598  13.134  29.164  10.407
48338W        W 7599  27.080  16.169  12.035
48339W        W 7600  30.951  19.158   2.872
48340W        W 7601  13.341  22.019   0.478
48341W        W 7602   0.817  12.653  14.464
48342W        W 7603  16.639  25.970   0.904
48343W        W 7604  17.178   2.438  10.408
48344W        W 7605  23.508  25.707   2.886
48345W        W 7606  12.787  10.279  12.364
48346W        W 7607  37.362  43.006   5.252
48347W        W 7608   9.763   2.829   0.904
48348W        W 7609  17.099  12.140  10.999
48349W        W 7610  30.017  43.960  14.472
48350W        W 7611  24.006  33.068  13.529
48351W        W 7612  33.503  16.157  11.544
48352W        W 7613  26.583  37.926   0.877
48353W        W 7614  22.686  35.592   3.803
48354W        W 7615  23.630  26.510   3.161
48355W        W 7616   8.384   8.197  12.519
48356W        W 7617  20.122  10.691  13.965
48357W        W 7618  23.236  36.080   3.314
48358W        W 7619  33.531   3.934  13.808
48359W        W 7620  34.411  39.848   0.955
48360W        W 7621  24.725  26.158   4.239
48361W        W 7622  19.623   9.748   0.793
48362W        W 7623  25.490  27.538  14.320
48363W        W 7624  17.573  30.078  11.128
48364W        W 7625   0.795  26.468   0.741
48365W        W 7626  33.924  25.212   2.228
48366W        W 7627  32.454  29.941  13.352
48367W        W 7628  11.719  34.491   5.271
48368W        W 7629  35.108   4.338  12.492
48369W        W 7630  22.658  33.046   0.276
48370W        W 7631  26.109  33.493  11.064
48371W        W 7632   6.288  41.019   2.886
48372W        W 7633  23.572   8.210  14.791
48373W        W 7634  14.304  13.828  14.972
48374W        W 7635   5.439  20.745  12.009
48375W        W 7636  22.110   2.449  12.998
48376W        W 7637  30.416  11.210  10.905
48377W        W 7638  37.974  31.453  12.446
48378W        W 7639   2.363  22.025   0.798
48379W        W 7640  44.291  15.632  12.386
48380W        W 7641  13.239  27.599   4.173
48381W        W 7642  34.466  44.308  12.346
48382W        W 7643  41.883   8.195   1.296
48383W        W 7644  13.807  21.164  11.984
48384W        W 7645   9.721  22.175   4.308
48385W        W 7646   4.927  11.245  10.123
48386W        W 7647  15.787  22.150  14.814
48387W        W 7648  43.423  39.418   1.814
48388W        W 7649  13.820  40.334   4.778
48389W        W 7650  20.114  15.643  14.960
48390W        W 7651  32.635  16.270  11.873
48391W        W 7652  34.589  22.575  14.352
48392W        W 7653   7.821  34.969  14.842
48393W        W 7654  40.875   9.676  12.009
48394W        W 7655  23.200  40.357  12.823
48395W        W 7656  28.506   8.667   1.881
48396W        W 7657  44.864  17.242   4.300
48397W        W 7658   9.232  15.607  12.350
48398W        W 7659   2.363  10.317  13.469
48399W        W 7660  30.475  24.600   3.346
48400W        W 7661  39.884  34.529  12.352
48401W        W 7662  37.477   1.943  13.023
48402W        W 7663  14.653  14.292  12.410
48403W        W 7664   8.261  14.297   5.149
48404W        W 7665  35.430   5.274  12.441
48405W        W 7666  36.469  12.176   1.789
48406W        W 7667  17.147  39.049   0.361
48407W        W 7668  24.558  38.871   3.359
48408W        W 7669  43.870   4.451   3.225
48409W        W 7670  22.128  21.596  12.083
48410W        W 7671   6.756  30.526  12.059
48411W        W 7672  11.718   1.874  12.925
48412W        W 7673  29.957  16.232  12.977
48413W        W 7674  17.193  40.813   0.759
48414W        W 7675   2.754  34.393   1.390
48415W        W 7676  25.044  42.403  13.893
48416W        W 7677   4.375  25.178  13.956
48417W        W 7678  19.262  41.863   4.202
48418W        W 7679  21.538  44.889  14.494
48419W        W 7680  34.426  11.646   2.349
48420W        W 7681   6.299  37.837  12.411
48421W        W 7682   7.879  24.982  13.918
48422W        W 7683  41.303  23.148   2.379
48423W        W 7684  22.586  16.629  10.629
48424W        W 7685  24.504  34.508  10.447
48425W        W 7686  26.984   0.959  14.837
48426W        W 7687  12.249  34.118   2.838
48427W        W 7688   9.202  34.540   3.840
48428W        W 7689   4.859  14.717   2.294
48429W        W 7690   3.456  36.483   2.201
48430W        W 7691  24.151  20.643  12.462
48431W        W 7692  38.451  34.547   1.761
48432W        W 7693   8.727  27.113  12.467
48433W        W 7694  18.653  15.683   3.713
48434W        W 7695   6.867  26.512  14.450
48435W        W 7696   5.409  38.449  13.307
48436W        W 7697   4.804  24.205   0.798
48437W        W 7698  39.454  29.111   0.287
48438W        W 7699   6.684  20.227  11.421
48439W        W 7700  14.332  31.065   0.727
48440W        W 7701   9.264   6.214  10.523
48441W        W 7702  13.163   2.886   0.314
48442W        W 7703  33.888  25.583  11.930
48443W        W 7704  30.448   8.664  12.033
48444W        W 7705  38.527   5.219   0.415
48445W        W 7706  21.254  21.696   1.431
48446W        W 7707  25.215  23.194   2.739
48447W        W 7708  30.962  22.591   3.185
48448W        W 7709  26.083  12.203   4.647
48449W        W 7710  35.919  18.731   5.091
48450W        W 7711  14.322  33.389   2.258
48451W        W 7712  35.502  37.507  12.079
48452W        W 7713  44.368  19.548  10.135
48453W        W 7714  14.726  34.598   2.698
48454W        W 7715  29.550   9.658  11.587
48455W        W 7716  35.518  41.963   2.896
48456W        W 7717  20.656   6.404   0.857
48457W        W 7718  26.015  33.023  13.033
48458W        W 7719  23.689   2.425  12.496
48459W        W 7720  32.631  42.335   4.761
48460W        W 7721  19.641  25.574   5.218
48461W        W 7722  28.614  30.072  13.355
48462W        W 7723  10.354  16.719  12.365
48463W        W 7724  14.193  25.581  13.502
48464W        W 7725   4.763  37.037   1.871
48465W        W 7726  43.935   4.219  13.328
48466W        W 7727  42.005  16.745   0.958
48467W        W 7728  11.697  37.950  10.025
48468W        W 7729   7.870   6.825   3.863
48469W        W 7730  22.698  10.257   1.781
48470W        W 7731  22.021  35.415  11.984
48471W        W 7732  23.731  34.959   1.292
48472W        W 7733  25.528   7.393  12.882
48473W        W 7734  16.281   3.327  10.504
48474W        W 7735   4.890  10.337  11.080
48475W        W 7736  37.502  35.049   0.845
48476W        W 7737  10.789  16.691   2.770
48477W        W 7738  25.572   0.920   3.193
48478W        W 7739  16.579  36.086  14.934
48479W        W 7740  23.521   5.279  14.402
48480W        W 7741   6.324  15.292   3.185
48481W        W 7742  37.061  42.028   2.679
48482W        W 7743  11.866  22.157   1.924
48483W        W 7744  41.439  31.071  11.095
48484W        W 7745  41.882  35.064   2.368
48485W        W 7746  39.342  14.784  13.876
48486W        W 7747  16.215  18.283  14.455
48487W        W 7748  29.664   9.824  11.941
48488W        W 7749   2.233  35.543   3.244
48489W        W 7750  27.194  41.341   4.169
48490W        W 7751  35.403  37.879  13.368
48491W        W 7752  34.103  11.130  12.379
48492W        W 7753  33.113  43.373   2.816
48493W        W 7754  19.063   4.894   0.400
48494W        W 7755  22.099   4.399  13.545
48495W        W 7756  30.927  11.187  14.461
48496W        W 7757   7.682  20.247   4.222
48497W        W 7758  26.133  41.492   1.440
48498W        W 7759  11.243  11.229   4.699
48499W        W 7760  38.536  22.525  11.422
48500W        W 7761  40.426  12.204  10.542
48501W        W 7762   6.220  40.799   4.646
48502W        W 7763   3.318  18.704  12.357
48503W        W 7764   7.312  44.317  14.453
48504W        W 7765   4.369  41.345  11.429
48505W        W 7766   5.252  32.909   4.157
48506W        W 7767  11.642  15.768  11.024
48507W        W 7768  18.628  14.778   2.692
48508W        W 7769   7.325   3.279   2.286
48509W        W 7770  33.516  28.580  11.001
48510W        W 7771  13.608  13.143   4.653
48511W        W 7772  15.296  23.552  13.338
48512W        W 7773  29.480   5.322  10.544
48513W        W 7774  44.952  32.427  13.376
48514W        W 7775  16.298  37.979   1.439
48515W        W 7776   9.182  15.167  13.809
48516W        W 7777  11.183  17.163   1.840
48517W        W 7778   5.209  39.919   1.286
48518W        W 7779  43.373  40.914  13.318
48519W        W 7780   9.674   9.153  13.892
48520W        W 7781  13.812  35.568   0.418
48521W        W 7782  14.169   4.936  14.397
48522W        W 7783   1.923  35.488  11.505
48523W        W 7784  23.144  32.521   3.251
48524W        W 7785  14.304  35.854  11.468
48525W        W 7786  23.176  34.580  11.961
48526W        W 7787  23.182  37.482  12.559
48527W        W 7788  42.030  39.387  14.861
48528W        W 7789  37.580   6.765   3.322
48529W        W 7790  25.008   1.286   3.650
48530W        W 7791  39.476  14.330   3.735
48531W        W 7792  25.673  31.012   1.849
48532W        W 7793  26.483  39.434  10.971
48533W        W 7794  43.963  26.636   2.825
48534W        W 7795  32.406  25.113   3.325
48535W        W 7796  31.040   1.758   1.352
48536W        W 7797   5.856  43.798   0.750
48537W        W 7798  23.722  12.618  11.430
48538W        W 7799  12.653  39.918   3.175
48539W        W 7800  39.370  16.196   3.245
48540W        W 7801   0.802  10.173   5.298
48541W        W 7802  31.430  38.948  14.971
48542W        W 7803  25.703  39.021  10.917
48543W        W 7804  42.033   6.283  14.318
48544W        W 7805  10.198  38.943  10.949
48545W        W 7806  32.602  38.034  12.859
48546W        W 7807   7.360   9.807   3.372
48547W        W 7808  18.255  37.454   3.172
48548W        W 7809  14.733  11.701  12.555
48549W        W 7810  40.904  40.980   0.733
48550W        W 7811  29.171  14.137  11.875
48551W        W 7812  28.565   1.753   3.853
48552W        W 7813  31.926   7.876   0.864
48553W        W 7814  34.429   5.726   9.983
48554W        W 7815  43.959  44.406   0.858
48555W        W 7816   7.874  10.344   1.918
48556W        W 7817  22.181   8.710  14.884
48557W        W 7818  18.112   6.835  14.494
48558W        W 7819  20.149  25.139  11.864
48559W        W 7820  40.987  13.707   3.256
48560W        W 7821   2.919   3.382  12.017
48561W        W 7822  37.049  38.865   4.299
48562W        W 7823   0.396  33.455   4.229
48563W        W 7824  39.042  22.206  12.058
48564W        W 7825  17.208  34.450  12.410
48565W        W 7826  21.100  33.578   3.866
48566W        W 7827   8.353  31.086   0.889
48567W        W 7828   6.268   1.924  11.097
48568W        W 7829   5.367  40.861   2.764
48569W        W 7830  28.059  22.543   1.913
48570W        W 7831  12.251  41.979   0.876
48571W        W 7832  35.530  14.596   1.736
48572W        W 7833  32.930  28.021  14.319
48573W        W 7834   2.472   5.194   1.800
48574W        W 7835   8.339   2.397  12.874
48575W        W 7836   6.190  24.625   0.390
48576W        W 7837  43.385  44.411   2.669
48577W        W 7838  43.014  26.957   1.728
48578W        W 7839  43.458  18.611   4.756
48579W        W 7840  21.680   6.830  13.972
48580W        W 7841  41.832  24.144  12.356
48581W        W 7842  23.040   5.226  14.842
48582W        W 7843  21.157  24.016  12.881
48583W        W 7844  31.439  34.583   2.390
48584W        W 7845  25.994  18.258   3.341
48585W        W 7846  27.096  40.966  11.576
48586W        W 7847   2.803   1.793  11.504
48587W        W 7848  12.834  14.302  12.826
48588W        W 7849   3.221  25.144   4.604
48589W        W 7850  28.955  44.456  11.968
48590W        W 7851  34.945  29.630  11.546
48591W        W 7852   8.788  35.536   4.831
48592W        W 7853  24.083  13.260  13.926
48593W        W 7854   8.763  44.990   3.152
48594W        W 7855  37.507  12.158   1.391
48595W        W 7856  32.469   2.227  10.458
48596W        W 7857  30.473  39.473  13.794
48597W        W 7858  22.669  25.102  10.496
48598W        W 7859  29.484  23.554  13.412
48599W        W 7860   9.861  31.002   4.710
48600W        W 7861  35.047  18.220   1.328
48601W        W 7862   0.491  39.922  11.482
48602W        W 7863   0.277  21.696  12.044
48603W        W 7864   3.293  11.863  10.613
48604W        W 7865  22.518  21.539   0.776
48605W        W 7866  12.200  22.246  10.971
48606W        W 7867  33.496  41.841  13.969
48607W        W 7868  24.225  13.225   2.861
48608W        W 7869  19.556   4.389   0.309
48609W        W 7870  15.155  14.240   1.264
48610W        W 7871  20.652   0.763  14.435
48611W        W 7872  24.172  27.611   0.779
48612W        W 7873  30.592  32.999  13.311
48613W        W 7874  27.517  25.634  10.481
48614W        W 7875  19.604  11.143  14.294
48615W        W 7876   5.798  15.823  14.903
48616W        W 7877  30.534  39.991  12.063
48617W        W 7878  30.549  12.181  10.445
48618W        W 7879  32.890  18.192  11.460
48619W        W 7880  26.672  38.371  13.991
48620W        W 7881  19.574  25.571   0.388
48621W        W 7882  37.369   6.908  13.434
48622W        W 7883  31.929  44.365  11.437
48623W        W 7884  36.368  28.089  11.607
48624W        W 7885  14.743  38.481  11.601
48625W        W 7886  38.390  31.119  13.376
48626W        W 7887  35.436  41.364  14.869
48627W        W 7888  42.428  13.644  11.901
48628W        W 7889   0.851   0.944  13.942
48629W        W 7890  33.410   7.179  13.322
48630W        W 7891  22.180   3.925  12.438
48631W        W 7892  20.711  28.039  11.467
48632W        W 7893  41.923  34.118   1.774
48633W        W 7894  27.063  30.511  13.502
48634W        W 7895   6.303  44.761  14.293
48635W        W 7896  27.163   2.804  14.833
48636W        W 7897  35.580  24.506  11.077
48637W        W 7898  29.555  27.191   4.204
48638W        W 7899  36.019   0.291   2.370
48639W        W 7900   8.173  24.580  13.969
48640W        W 7901  30.008  15.196   4.116
48641W        W 7902  13.336  19.077  13.863
48642W        W 7903  16.207   4.945   2.203
48643W        W 7904  40.398  22.534  14.020
48644W        W 7905   8.661  25.151  14.854
48645W        W 7906  21.587  31.965  14.281
48646W        W 7907   3.844   6.383   0.305
48647W        W 7908  32.403  23.219   4.769
48648W        W 7909  17.738   4.259   1.876
48649W        W 7910  19.753  25.988   1.791
48650W        W 7911  28.646  15.768   2.217
48651W        W 7912  17.192  28.127   1.357
48652W        W 7913  13.183  22.088  13.031
48653W        W 7914  37.064  16.178   4.147
48654W        W 7915  31.492  33.553  14.369
48655W        W 7916  25.997  42.411   0.804
48656W        W 7917  25.516  42.371   2.685
48657W        W 7918  42.806  10.224  10.997
48658W        W 7919  38.535   7.387  11.390
48659W        W 7920  24.001  23.240  13.026
48660W        W 7921  36.396  30.420  14.911
48661W        W 7922  29.064  39.477  14.759
48662W        W 7923  30.467  30.945   4.766
48663W        W 7924   5.696  10.714   1.774
48664W        W 7925  12.288  25.087   2.245
48665W        W 7926   5.877  42.901  11.569
48666W        W 7927  17.176   0.871   3.178
48667W        W 7928  37.086   5.434  11.857
48668W        W 7929   7.303   7.756  12.966
48669W        W 7930  40.502   5.729   2.704
48670W        W 7931  21.515   7.765   4.120
48671W        W 7932  21.054  16.676   3.682
48672W        W 7933  31.617  30.531   1.221
48673W        W 7934  19.657   9.649   2.731
48674W        W 7935  11.154  13.132   1.224
48675W        W 7936   9.673   3.315  13.497
48676W        W 7937  35.936   6.401   1.798
48677W        W 7938  42.829  33.382   1.794
48678W        W 7939  31.433   0.341  11.914
48679W        W 7940  22.655  13.687   4.697
48680W        W 7941   9.877  40.961   1.816
48681W        W 7942  25.696  42.952   0.879
48682W        W 7943  33.395  36.965  12.967
48683W        W 7944  25.577  18.132  13.016
48684W        W 7945  29.571  42.815   1.856
48685W        W 7946  24.023  16.787  11.879
48686W        W 7947   1.871   0.362  11.972
48687W        W 7948  44.360  37.410   4.810
48688W        W 7949  23.607  42.304  13.530
48689W        W 7950  26.979  29.641   2.257
48690W        W 7951  22.686  32.416   0.407
48691W        W 7952   8.794  17.762  14.952
48692W        W 7953  29.141  10.268   2.812
48693W        W 7954  21.696  44.985   3.344
48694W        W 7955  20.100  43.428   0.784
48695W        W 7956  19.635  14.685   3.776
48696W        W 7957  43.958   0.800  13.476
48697W        W 7958  13.340  15.315  14.789
48698W        W 7959   6.720  37.478  12.941
48699W        W 7960  18.240  41.866  12.351
48700W        W 7961  42.463  18.739   0.431
48701W        W 7962  26.537   4.211  13.795
48702W        W 7963  15.237   1.743   0.395
48703W        W 7964  35.859  13.161   4.167
48704W        W 7965  41.851  16.095  13.474
48705W        W 7966  31.637  44.953   3.205
48706W        W 7967  42.871  21.122  12.379
48707W        W 7968  33.990  16.757  10.598
48708W        W 7969   3.790  24.689   3.808
48709W        W 7970  12.819  26.462  13.380
48710W        W 7971  10.265  28.561   0.461
48711W        W 7972  31.934  30.966   2.375
48712W        W 7973   7.215   7.691  10.524
48713W        W 7974  39.014   6.295   0.881
48714W        W 7975  10.728  42.924   1.848
48715W        W 7976   4.299  25.640  14.806
48716W        W 7977  15.723  35.426   1.411
48717W        W 7978  29.492  38.926  10.490
48718W        W 7979  34.914  17.597  10.929
48719W        W 7980  20.740   6.701   2.883
48720W        W 7981  44.457  27.552  14.823
48721W        W 7982  12.618   5.851   4.319
48722W        W 7983  12.750  35.380   4.327
48723W        W 7984  23.095  14.661  12.964
48724W        W 7985  29.596  34.901   2.840
48725W        W 7986   4.342  13.298  14.420
48726W        W 7987   1.937  20.035   1.341
48727W        W 7988   5.867   4.873  14.453
48728W        W 7989   9.305  30.925   0.953
48729W        W 7990  44.396   1.774   2.723
48730W        W 7991  35.917  12.681   1.423
48731W        W 7992  20.528  21.077  14.514
48732W        W 7993   2.316  42.296   4.185
48733W        W 7994  34.388  23.690   3.809
48734W        W 7995  42.966   8.852  11.976
48735W        W 7996   9.288  23.587   1.725
48736W        W 7997  13.174  43.501  13.034
48737W        W 7998  36.910  10.855   0.846
48738W        W 7999   3.325  44.290   4.686
48739W        W 8000   6.375  23.153   1.885
48740W        W 8001   1.783   3.225   2.236
48741W        W 8002  25.047   3.733  14.993
48742W        W 8003   1.293  33.896   3.867
48743W        W 8004  30.419   5.343  12.064
48744W        W 8005  20.131   1.320  13.828
48745W        W 8006  10.867   8.812   3.672
48746W        W 8007  29.423   0.356  12.904
48747W        W 8008  13.606  42.844  12.489
48748W        W 8009  26.631   4.721  11.528
48749W        W 8010   0.489  38.984  10.915
48750W        W 8011  17.187  38.484  12.093
48751W        W 8012  10.196  30.942  12.390
48752W        W 8013  39.927   1.433  12.029
48753W        W 8014   3.435  10.280  12.465
48754W        W 8015  26.053  16.239  11.859
48755W        W 8016  33.499  16.659  14.772
48756W        W 8017  15.301  27.607   0.351
48757W        W 8018  10.337   3.759  13.508
48758W        W 8019  23.607  11.371   2.826
48759W        W 8020  25.570  25.691  11.435
48760W        W 8021  27.054  27.562   3.732
48761W        W 8022  29.507  15.151   2.876
48762W        W 8023  14.720  31.061   1.326
48763W        W 8024  19.780  37.905  14.826
48764W        W 8025  15.260  44.921   1.243
48765W        W 8026  31.516  14.198   1.354
48766W        W 8027  27.136  23.058   4.275
48767W        W 8028  29.978  20.151   4.702
48768W        W 8029   6.908   6.852   1.792
48769W        W 8030   1.886   0.463   0.242
48770W        W 8031  41.428  21.085   9.617
48771W        W 8032  31.637  14.811  12.928
48772W        W 8033   2.297  37.508  10.445
48773W        W 8034  13.602   6.419   2.675
48774W        W 8035  32.927  43.486   2.324
48775W        W 8036   1.940  18.649  14.413
48776W        W 8037  11.358  13.722  10.993
48777W        W 8038   1.425   5.361  11.965
48778W        W 8039  30.582  11.340  13.972
48779W        W 8040  29.524  38.505  14.324
48780W        W 8041  21.161   5.270   2.298
48781W        W 8042  29.456  23.003  12.970
48782W        W 8043   3.890  35.088  14.829
48783W        W 8044  18.157  13.763   0.369
48784W        W 8045  41.386  42.453  13.393
48785W        W 8046   8.872  26.698   5.194
48786W        W 8047   6.205   2.853   0.912
48787W        W 8048  17.251  13.755  13.383
48788W        W 8049  25.109  28.125   2.903
48789W        W 8050  38.068  42.833  11.503
48790W        W 8051  19.710  17.802  14.452
48791W        W 8052  10.384  11.696   4.759
48792W        W 8053  33.430  32.588   3.229
48793W        W 8054  11.803   8.317  13.994
48794W        W 8055  16.265  17.796  12.085
48795W        W 8056  24.698  42.911   5.095
48796W        W 8057  29.571  16.630  14.456
48797W        W 8058  35.955  39.992  14.486
48798W        W 8059   1.887  19.723   1.320
48799W        W 8060  40.009  44.909  10.925
48800W        W 8061  44.360  27.072   2.873
48801W        W 8062  42.397  10.824   2.721
48802W        W 8063  21.662  39.019  12.384
48803W        W 8064  36.532  13.115   3.690
48804W        W 8065  32.458  21.539  14.940
48805W        W 8066  43.817  14.835  10.986
48806W        W 8067  37.507   9.849   0.941
48807W        W 8068  23.223   3.741  13.833
48808W        W 8069  33.454  35.544  11.953
48809W        W 8070  31.943  10.681  14.460
48810W        W 8071  13.119  19.094   4.609
48811W        W 8072  30.633  21.160   5.157
48812W        W 8073  19.584  17.708   2.844
48813W        W 8074  17.623  37.049   0.810
48814W        W 8075  25.145  16.576   1.294
48815W        W 8076  44.307  19.635  11.485
48816W        W 8077  17.719  22.643  14.439
48817W        W 8078  29.499  41.791   2.361
48818W        W 8079   9.858   6.870   2.822
48819W        W 8080  34.977  11.647  10.026
48820W        W 8081  40.540  29.667  13.888
48821W        W 8082  34.499  42.008   1.877
48822W        W 8083   1.822  27.012   0.849
48823W        W 8084   5.872  14.764   1.360
48824W        W 8085  33.073  18.104   2.194
48825W        W 8086   4.385  41.410   0.748
48826W        W 8087   8.679  33.043  12.485
48827W        W 8088  26.068  23.595  13.987
48828W        W 8089  30.994  27.649   3.150
48829W        W 8090   5.717  12.716  14.480
48830W        W 8091  34.103  19.206  13.925
48831W        W 8092  14.114  11.209  12.865
48832W        W 8093  12.690  19.256   4.246
48833W        W 8094   7.695   7.697   1.273
48834W        W 8095  42.862  16.598  12.830
48835W        W 8096  25.993  17.224  10.978
48836W        W 8097  15.821   4.264   3.864
48837W        W 8098  26.518  18.695  10.427
48838W        W 8099  41.412  12.841  13.041
48839W        W 8100   1.250  24.081   2.202
48840W        W 8101  41.416  25.531   2.346
48841W        W 8102  10.301  10.341  13.006
48842W        W 8103   7.301   0.304   4.662
48843W        W 8104  32.582  23.544  10.492
48844W        W 8105  14.333   5.814  12.577
48845W        W 8106  40.855  17.704   1.818
48846W        W 8107   4.928  18.082   2.377
48847W        W 8108   9.674  21.723   1.817
48848W        W 8109  38.056  34.107   1.814
48849W        W 8110  37.569   1.450  13.021
48850W        W 8111  36.469  34.061   2.197
48851W        W 8112  10.860  42.986  14.823
48852W        W 8113  36.497   0.926   1.843
48853W        W 8114  39.859  19.181  12.056
48854W        W 8115  43.795  24.990   3.368
48855W        W 8116   7.206  18.674   3.721
48856W        W 8117  18.120   1.323  13.444
48857W        W 8118  23.019  35.439  10.420
48858W        W 8119  25.197  27.037   1.768
48859W        W 8120   3.881  21.579   2.891
48860W        W 8121  39.341  14.328  11.601
48861W        W 8122   7.708  22.674   5.291
48862W        W 8123  41.465  19.623   0.242
48863W        W 8124  29.172  38.899  12.027
48864W        W 8125   9.182  38.924   1.420
48865W        W 8126  39.834  36.856   3.755
48866W        W 8127  43.872  43.465  13.363
48867W        W 8128  28.995  35.879  12.885
48868W        W 8129  35.884  21.086  14.369
48869W        W 8130  36.910  39.885  12.379
48870W        W 8131  34.381  17.146  10.955
48871W        W 8132  19.640  24.678  14.350
48872W        W 8133  25.497  15.712   4.779
48873W        W 8134  13.607  41.423   4.279
48874W        W 8135  31.531  20.637   2.835
48875W        W 8136  32.582  40.897   0.338
48876W        W 8137  11.714  43.956   0.292
48877W        W 8138  34.542   6.775  12.500
48878W        W 8139  13.742   6.274   4.160
48879W        W 8140  43.874  36.970   2.828
48880W        W 8141  25.560  36.578  11.533
48881W        W 8142  18.053  32.023   4.746
48882W        W 8143  43.781  23.055  11.590
48883W        W 8144  20.672  30.483  11.906
48884W        W 8145  12.777  32.523   4.743
48885W        W 8146  12.144  30.042   1.293
48886W        W 8147   9.225  26.145   0.932
48887W        W 8148  42.423  23.085   2.311
48888W        W 8149  44.883   4.395   2.677
48889W        W 8150  33.452  11.783  14.328
48890W        W 8151  23.560  44.991  13.510
48891W        W 8152  40.975  39.462   5.738
48892W        W 8153  31.908  14.331   4.331
48893W        W 8154   2.764   6.693  12.916
48894W        W 8155  40.898  37.476  13.995
48895W        W 8156   4.719   3.341  13.039
48896W        W 8157  27.164  36.471  11.567
48897W        W 8158   6.291  41.304   3.155
48898W        W 8159  13.341   4.801  10.071
48899W        W 8160  12.723  20.248   4.769
48900W        W 8161  15.099  36.510   1.814
48901W        W 8162  19.074   9.692  14.008
48902W        W 8163  36.018  34.451   2.800
48903W        W 8164  40.387  30.036   4.326
48904W        W 8165  38.355   8.174  12.043
48905W        W 8166  40.047  14.634   3.813
48906W        W 8167  13.794  42.907   4.830
48907W        W 8168  28.676  38.552  11.033
48908W        W 8169  14.752   1.412   4.613
48909W        W 8170  23.637  19.205   1.909
48910W        W 8171  17.733   3.421   5.087
48911W        W 8172  13.666  16.163  14.910
48912W        W 8173   2.788  41.990   4.713
48913W        W 8174  41.907   8.844  14.945
48914W        W 8175   2.818  26.076   2.387
48915W        W 8176   5.224  39.939   2.195
48916W        W 8177  43.301  40.414  11.115
48917W        W 8178  43.479  20.575   2.685
48918W        W 8179   3.898  10.360  12.061
48919W        W 8180  14.669  21.145  11.867
48920W        W 8181  22.659   8.697  12.951
48921W        W 8182  27.136  28.029   9.939
48922W        W 8183  36.495  24.035   4.765
48923W        W 8184  38.968  32.094   1.356
48924W        W 8185  37.435   8.315   3.295
48925W        W 8186  18.228   0.954   2.830
48926W        W 8187  38.898  11.258   2.249
48927W        W 8188  18.216  13.266  14.489
48928W        W 8189  43.443   0.832   4.251
48929W        W 8190   6.853  41.397  14.995
48930W        W 8191  25.104  27.051   4.198
48931W        W 8192  40.493  15.108   3.656
48932W        W 8193  26.520  29.582  11.379
48933W        W 8194  18.612  34.054   4.819
48934W        W 8195  19.094  14.787   1.764
48935W        W 8196  23.151  30.445   1.309
48936W        W 8197  14.833  10.687  14.031
48937W        W 8198  14.135  39.333   1.706
48938W        W 8199   2.462  34.910  14.501
48939W        W 8200  19.744  14.320   1.438
48940W        W 8201  42.334  37.914   3.764
48941W        W 8202   9.697  25.144   3.866
48942W        W 8203  28.034  28.934   4.355
48943W        W 8204  34.027  42.895   4.690
48944W        W 8205  28.143  28.610   2.760
48945W        W 8206   3.420   0.866  13.495
48946W        W 8207  13.753  34.418  14.311
48947W        W 8208  12.629   4.768  13.941
48948W        W 8209  22.533  35.570   2.690
48949W        W 8210   4.336  24.495  10.637
48950W        W 8211   0.287   1.423   3.663
48951W        W 8212  21.164  23.554  12.575
48952W        W 8213  44.485  23.721   1.845
48953W        W 8214  30.620  18.621   2.212
48954W        W 8215  21.187  33.533  12.991
48955W        W 8216  40.504   2.414   2.360
48956W        W 8217   3.820  19.164  13.906
48957W        W 8218  39.478  25.517   0.369
48958W        W 8219  42.928  31.585   3.783
48959W        W 8220  24.509  42.796  12.040
48960W        W 8221   6.753  25.089  11.110
48961W        W 8222  28.951  12.141   1.391
48962W        W 8223   9.806  40.955  11.499
48963W        W 8224  10.736  31.059  11.870
48964W        W 8225  20.733  27.587  13.468
48965W        W 8226  19.669   0.808  12.964
48966W        W 8227  11.729  20.138   0.406
48967W        W 8228   2.395  24.683   4.225
48968W        W 8229  10.832  33.920  14.427
48969W        W 8230   2.448   8.229   1.357
48970W        W 8231  20.069  43.479  14.348
48971W        W 8232  28.018  11.856   0.298
48972W        W 8233   4.368  21.092   2.807
48973W        W 8234  36.578  15.162   3.253
48974W        W 8235   8.870  27.617  13.470
48975W        W 8236  31.427  15.316  11.402
48976W        W 8237   2.760  44.842  14.794
48977W        W 8238   1.748  42.289  10.429
48978W        W 8239  28.950  29.447  14.495
48979W        W 8240  42.993  17.203   0.449
48980W        W 8241  13.679  39.315  13.824
48981W        W 8242  29.018  26.974   2.348
48982W        W 8243  15.277  17.196  10.553
48983W        W 8244   7.688  12.774   3.693
48984W        W 8245  39.452  16.304   1.915
48985W        W 8246  33.617  28.614  14.886
48986W        W 8247  41.964  39.408  10.529
48987W        W 8248  22.648  13.182  10.915
48988W        W 8249  11.249   4.776   2.305
48989W        W 8250  31.415   9.256  12.531
48990W        W 8251  21.714  35.003   3.303
48991W        W 8252  19.246   7.316  11.458
48992W        W 8253  24.587  18.193   0.801
48993W        W 8254  24.083  25.035  13.492
48994W        W 8255  41.793  44.991   0.467
48995W        W 8256   2.726  38.547  10.985
48996W        W 8257  11.287  41.934   2.242
48997W        W 8258  37.431   1.887   0.443
48998W        W 8259  31.497  11.738  13.916
48999W        W 8260  38.444  22.024   2.321
49000W        W 8261   7.187  27.614  11.996
49001W        W 8262   6.784  42.502   2.836
49002W        W 8263  30.480  28.626   0.457
49003W        W 8264  34.924  41.036   3.652
49004W        W 8265  31.456  37.545   3.798
49005W        W 8266  15.809  10.210  14.791
49006W        W 8267  37.519  28.507  10.526
49007W        W 8268  22.110  37.953   0.957
49008W        W 8269  41.822   4.742   1.922
49009W        W 8270  21.179  35.596   1.700
49010W        W 8271  42.857  15.785  11.127
49011W        W 8272   5.727  41.381  10.625
49012W        W 8273  10.297  33.043   4.786
49013W        W 8274  31.141   0.843  13.348
49014W        W 8275   8.888  20.616   2.401
49015W        W 8276  22.112   6.391   0.294
49016W        W 8277   6.299  29.169   1.719
49017W        W 8278  22.619  18.703   1.905
49018W        W 8279  37.052  29.606   4.340
49019W        W 8280  15.661  34.520   1.262
49020W        W 8281   8.328  22.215  12.559
49021W        W 8282  36.091  29.151   1.265
49022W        W 8283   3.307  32.459  14.470
49023W        W 8284  13.276   0.798   3.183
49024W        W 8285  19.569  31.467   1.798
49025W        W 8286  42.892  19.689  12.929
49026W        W 8287  11.133  14.757  11.550
49027W        W 8288  38.070  40.030   4.835
49028W        W 8289   4.428  21.515   2.891
49029W        W 8290   5.689  17.702  12.455
49030W        W 8291  44.755  20.664   3.669
49031W        W 8292  20.038   0.381   3.340
49032W        W 8293  20.702  28.502  10.403
49033W        W 8294  39.921  33.521  14.850
49034W        W 8295  18.120  35.427   2.802
49035W        W 8296   3.863  20.231  11.551
49036W        W 8297  11.703  29.923   1.258
49037W        W 8298  15.604   3.888   1.275
49038W        W 8299   1.978  19.597   4.815
49039W        W 8300  30.036  20.145   0.274
49040W        W 8301  35.455   1.269   1.302
49041W        W 8302  32.580   8.679  12.089
49042W        W 8303  44.464  18.737  13.516
49043W        W 8304  39.835  17.242   2.880
49044W        W 8305  41.891  18.618   2.867
49045W        W 8306  35.506   8.852   3.796
49046W        W 8307   6.420  42.997   1.247
49047W        W 8308  10.273  14.265  10.597
49048W        W 8309  33.543  33.571   4.647
49049W        W 8310  29.984   2.757   2.336
49050W        W 8311  18.248  38.437  10.575
49051W        W 8312  38.394  36.030   1.351
49052W        W 8313  23.075   2.880   1.426
49053W        W 8314  11.851  36.030   2.692
49054W        W 8315  34.569  21.221   1.323
49055W        W 8316   8.250   8.189  10.960
49056W        W 8317  42.475  21.223   3.372
49057W        W 8318  43.925  35.888  12.989
49058W        W 8319  34.596  12.809  11.403
49059W        W 8320  14.592   0.481   2.248
49060W        W 8321  20.743  10.382   0.422
49061W        W 8322  32.997   6.202   3.366
49062W        W 8323   3.848  19.186  11.447
49063W        W 8324  24.192  38.050   0.809
49064W        W 8325  10.337  38.461  11.471
49065W        W 8326  22.040  40.405  10.545
49066W        W 8327  31.060  12.289  14.307
49067W        W 8328   2.461  29.431  10.460
49068W        W 8329  44.831  27.956  12.451
49069W        W 8330  42.291   0.748   0.261
49070W        W 8331   6.342  12.705   1.425
49071W        W 8332  42.523   9.820  10.600
49072W        W 8333  43.961   8.289   3.188
49073W        W 8334   4.882   4.352  13.528
49074W        W 8335  21.160  14.194  11.384
49075W        W 8336  28.081  29.927  11.071
49076W        W 8337  11.266  19.633  10.559
49077W        W 8338  33.537  38.454  14.810
49078W        W 8339  35.383  28.628  12.045
49079W        W 8340  24.552  21.658  11.476
49080W        W 8341  37.957  12.211  13.957
49081W        W 8342  19.237  16.079   5.161
49082W        W 8343  40.462   7.717  11.954
49083W        W 8344  32.535   4.260  13.435
49084W        W 8345   1.952  15.124   3.772
49085W        W 8346  30.967  24.156   1.900
49086W        W 8347  16.652  12.771   4.641
49087W        W 8348  14.827  32.000   0.943
49088W        W 8349   5.436  41.360  10.619
49089W        W 8350   7.182  11.210   2.673
49090W        W 8351  13.649  18.137   3.238
49091W        W 8352  23.657  19.080  14.801
49092W        W 8353  23.734  27.992   4.713
49093W        W 8354  41.401  41.869   1.790
49094W        W 8355  19.563  19.145  13.310
49095W        W 8356  25.589  13.209   4.310
49096W        W 8357  23.008  24.080  12.948
49097W        W 8358  12.731   2.886  12.453
49098W        W 8359  30.074  29.133   2.263
49099W        W 8360  16.207   0.988   3.370
49100W        W 8361  27.078   1.889   1.696
49101W        W 8362  24.501   9.747  12.017
49102W        W 8363  11.352  23.508   1.327
49103W        W 8364   6.809  21.224   2.734
49104W        W 8365   4.804  10.284   0.253
49105W        W 8366  16.804  44.759   0.876
49106W        W 8367  17.261   7.779  13.436
49107W        W 8368  15.195  25.548   4.811
49108W        W 8369  30.527  12.200   3.774
49109W        W 8370  18.127  19.637  14.832
49110W        W 8371   2.323   2.823   4.818
49111W        W 8372  13.274  16.260   1.797
49112W        W 8373  39.356  31.593   1.299
49113W        W 8374  36.430  24.076  10.970
49114W        W 8375  19.057  34.507  14.790
49115W        W 8376  17.621  11.864   2.272
49116W        W 8377  14.287   5.280  10.149
49117W        W 8378  39.449  19.208  12.540
49118W        W 8379  20.540   2.438  13.387
49119W        W 8380  35.918   2.721  11.534
49120W        W 8381  24.719   6.818  13.967
49121W        W 8382  15.125  10.331  12.439
49122W        W 8383  43.987   9.300  12.907
49123W        W 8384  38.879  42.853   3.249
49124W        W 8385  14.139  10.295   1.695
49125W        W 8386  36.563   8.194   1.863
49126W        W 8387  13.114  21.701  14.835
49127W        W 8388  44.312  14.267   1.309
49128W        W 8389   2.462   2.388   2.831
49129W        W 8390   0.844  18.661  12.896
49130W        W 8391  23.721  42.880   4.146
49131W        W 8392   1.927  19.061  13.459
49132W        W 8393  17.702  31.641  14.419
49133W        W 8394  10.187  34.601  12.082
49134W        W 8395  20.636  23.717  11.458
49135W        W 8396   1.258   2.864   3.368
49136W        W 8397  20.243   8.352   2.801
49137W        W 8398  29.986  11.854  14.504
49138W        W 8399   1.771  13.319   2.329
49139W        W 8400  37.364  35.898  12.474
49140W        W 8401   7.827  44.914  14.991
49141W        W 8402   5.707   2.859  13.822
49142W        W 8403  33.045  16.164   3.791
49143W        W 8404  24.131  42.011   1.717
49144W        W 8405  37.004  26.551   1.407
49145W        W 8406   6.822  18.270   0.745
49146W        W 8407  30.617  24.187  14.388
49147W        W 8408   7.394   5.708   3.664
49148W        W 8409   2.312  25.709  13.424
49149W        W 8410  12.732  27.993   0.318
49150W        W 8411  42.003  19.155   4.248
49151W        W 8412   0.929  21.573   0.358
49152W        W 8413  24.175  19.691   3.685
49153W        W 8414   3.933  29.554  14.881
49154W        W 8415   0.359  35.036  12.436
49155W        W 8416  18.741  44.459  11.044
49156W        W 8417  18.270  33.582   0.904
49157W        W 8418  39.390  22.611  13.350
49158W        W 8419  20.085  41.409   1.770
49159W        W 8420  16.661  16.656  11.446
49160W        W 8421  29.077  17.680  13.414
49161W        W 8422  36.380  35.021   1.811
49162W        W 8423  31.921   9.686   1.930
49163W        W 8424   7.875  28.979  13.008
49164W        W 8425  10.817   3.762  13.798
49165W        W 8426  34.403  41.929  12.499
49166W        W 8427  23.725  21.177  12.078
49167W        W 8428  27.620  13.211  12.011
49168W        W 8429  13.757  44.925   1.881
49169W        W 8430  41.504  12.171   3.677
49170W        W 8431  28.119  41.881  10.411
49171W        W 8432  31.437   6.695  11.942
49172W        W 8433   3.388  36.040   2.411
49173W        W 8434  12.183  29.024   1.211
49174W        W 8435  23.689  41.839   2.894
49175W        W 8436  34.059  27.191   4.198
49176W        W 8437  24.178  43.417   4.223
49177W        W 8438  27.983   6.285  14.016
49178W        W 8439   5.885  18.696  13.050
49179W        W 8440   2.838  12.120   1.252
49180W        W 8441  33.947  38.326  13.531
49181W        W 8442   4.385  36.862  13.005
49182W        W 8443  25.608  43.797   2.366
49183W        W 8444   6.712   9.165   3.276
49184W        W 8445  24.545  41.475  13.348
49185W        W 8446  12.720  25.069   0.398
49186W        W 8447  41.030  40.939   0.266
49187W        W 8448  25.094  26.556   0.252
49188W        W 8449  23.711  18.222   3.222
49189W        W 8450  15.766  28.445  14.015
49190W        W 8451  13.660  11.279   4.746
49191W        W 8452  31.446  37.335  13.429
49192W        W 8453  21.540  35.045  13.844
49193W        W 8454  17.307  14.263  10.106
49194W        W 8455  22.239   5.896   2.200
49195W        W 8456  28.532  24.224  12.872
49196W        W 8457  24.617  25.520  11.106
49197W        W 8458   1.965  38.392  14.799
49198W        W 8459  41.332  39.419   3.867
49199W        W 8460  33.048  22.050  10.588
49200W        W 8461  26.702   2.957   4.612
49201W        W 8462  34.968  15.740   1.420
49202W        W 8463  32.899  13.796   4.602
49203W        W 8464  39.511  33.035   0.360
49204W        W 8465  14.605  22.583  11.956
49205W        W 8466  32.599   5.775  13.384
49206W        W 8467  31.531  30.466  10.931
49207W        W 8468   2.864  12.749  13.902
49208W        W 8469  28.152  23.118   4.648
49209W        W 8470  14.151   8.698   4.201
49210W        W 8471   6.265  43.476  13.944
49211W        W 8472  19.193  25.510   4.710
49212W        W 8473  34.871  33.066   2.387
49213W        W 8474   9.845  42.882  11.458
49214W        W 8475  11.848  12.690   3.668
49215W        W 8476  38.459  28.124   3.706
49216W        W 8477  34.374  35.987  13.867
49217W        W 8478  40.029  30.981   2.229
49218W        W 8479  43.503   1.410   1.438
49219W        W 8480  14.328  28.082   0.371
49220W        W 8481  16.633  13.260   1.372
49221W        W 8482  35.411  13.237  12.831
49222W        W 8483   5.204  27.132  14.415
49223W        W 8484   8.244  15.665   3.756
49224W        W 8485  24.211   8.377  12.508
49225W        W 8486  29.956  33.450   2.301
49226W        W 8487  40.972   5.244  11.511
49227W        W 8488  18.684  35.957  13.043
49228W        W 8489  32.549  14.338   1.287
49229W        W 8490   4.446   9.764  14.366
49230W        W 8491  27.032   5.923  14.504
49231W        W 8492  10.188   5.208  12.523
49232W        W 8493  12.647  11.634  11.411
49233W        W 8494  19.229  18.069   3.263
49234W        W 8495   5.336  24.645  12.565
49235W        W 8496  23.630  30.648   0.293
49236W        W 8497  33.924  28.559  11.952
49237W        W 8498  19.762   4.725   3.808
49238W        W 8499   2.952   3.252   4.159
49239W        W 8500  21.544  27.019  14.477
49240W        W 8501  39.018   9.294  13.982
49241W        W 8502  36.027   4.742   5.123
49242W        W 8503  22.233  10.756   2.337
49243W        W 8504  24.502  43.400  11.500
49244W        W 8505   9.866   8.703   0.449
49245W        W 8506  18.256  39.321  14.469
49246W        W 8507  43.451  28.534   3.675
49247W        W 8508   8.669  31.009   1.698
49248W        W 8509  18.285   7.377   2.682
49249W        W 8510  35.012  24.172  13.342
49250W        W 8511  22.188  30.919  12.086
49251W        W 8512   8.288   6.238   0.418
49252W        W 8513  39.333   2.237   1.421
49253W        W 8514  29.096   5.876  12.576
49254W        W 8515  10.839   5.893  10.436
49255W        W 8516  39.036  36.452   1.930
49256W        W 8517  34.983  41.787  10.479
49257W        W 8518  41.929  44.774  11.042
49258W        W 8519   0.915  29.645   1.286
49259W        W 8520  33.498  29.136  13.338
49260W        W 8521   5.380   1.946   1.366
49261W        W 8522  12.637  28.983  10.975
49262W        W 8523  43.431  11.817  11.101
49263W        W 8524  27.944  20.605   0.966
49264W        W 8525  39.378  12.326  11.520
49265W        W 8526  33.419  32.110   1.239
49266W        W 8527  27.612  23.096  14.484
49267W        W 8528  19.162  38.008  12.502
49268W        W 8529  20.066   5.406  14.999
49269W        W 8530  11.741  30.114  11.449
49270W        W 8531   3.332  20.690   3.732
49271W        W 8532  32.905  41.465   0.377
49272W        W 8533   8.655  33.879   0.885
49273W        W 8534  16.783  43.419  11.965
49274W        W 8535  33.418  31.439   3.633
49275W        W 8536  30.998  13.802   4.196
49276W        W 8537  30.597  35.497  11.864
49277W        W 8538   6.261   1.815   4.139
49278W        W 8539  24.998  42.447   3.242
49279W        W 8540  37.840  37.891   2.728
49280W        W 8541  32.126  38.954  10.428
49281W        W 8542  40.534  22.501  14.914
49282W        W 8543  18.288  34.377  11.421
49283W        W 8544  44.911  44.493  12.845
49284W        W 8545  34.550  26.560  13.924
49285W        W 8546  27.115  31.520  14.311
49286W        W 8547  33.978  29.432  13.854
49287W        W 8548  14.704  20.051  14.780
49288W        W 8549   1.407   0.969  11.937
49289W        W 8550  20.660  15.643  13.382
49290W        W 8551  25.505  14.784  10.928
49291W        W 8552  15.320   1.278   0.478
49292W        W 8553  18.756  23.548   4.121
49293W        W 8554  37.935  12.847  11.092
49294W        W 8555  18.091  13.137   4.212
49295W        W 8556  11.848  42.435   1.863
49296W        W 8557   6.903  22.150  11.107
49297W        W 8558   0.406  34.561   0.322
49298W        W 8559  44.500  24.708  11.565
49299W        W 8560   6.229  44.403   2.665
49300W        W 8561  20.616  41.304   2.307
49301W        W 8562  22.580  36.451   1.355
49302W        W 8563  14.619  37.440   1.422
49303W        W 8564  43.443  38.885  11.453
49304W        W 8565  10.776  30.527   0.885
49305W        W 8566  22.114   9.700  11.480
49306W        W 8567  41.958  17.711   2.346
49307W        W 8568  41.338  44.330   3.158
49308W        W 8569   1.798   0.830   2.419
49309W        W 8570  11.663  35.883   4.232
49310W        W 8571  30.501  12.835  10.439
49311W        W 8572  44.419   3.929  12.397
49312W        W 8573  33.461  33.574   1.784
49313W        W 8574  38.835  11.779  10.994
49314W        W 8575  34.936  28.119   4.244
49315W        W 8576   8.794  23.608   2.232
49316W        W 8577   0.850  32.130   4.147
49317W        W 8578   8.662  20.031  11.978
49318W        W 8579  31.573  41.412   1.908
49319W        W 8580  39.928   1.833   0.848
49320W        W 8581  18.583  39.332  14.373
49321W        W 8582  23.571   6.799  10.989
49322W        W 8583  26.061  40.947  13.938
49323W        W 8584  44.363   4.304   4.252
49324W        W 8585  22.148  12.272  10.501
49325W        W 8586   9.682   3.747  12.503
49326W        W 8587  31.118   4.386  13.383
49327W        W 8588  34.608  20.067  13.399
49328W        W 8589  36.917  35.857  12.543
49329W        W 8590  44.490  16.243  13.007
49330W        W 8591  29.609   5.272   3.364
49331W        W 8592   6.243  29.557   5.260
49332W        W 8593  43.358  31.048  14.026
49333W        W 8594   2.297  24.030  10.441
49334W        W 8595  15.313  24.568   4.190
49335W        W 8596   6.382  20.207  13.848
49336W        W 8597  33.920  24.520   2.291
49337W        W 8598  17.589  24.582   1.748
49338W        W 8599  27.152   1.837  11.888
49339W        W 8600  13.670  35.473   3.640
49340W        W 8601   4.392  16.275  12.907
49341W        W 8602  20.233  37.363  10.949
49342W        W 8603  32.610  38.850  10.964
49343W        W 8604   7.369  15.160   2.771
49344W        W 8605  31.572  11.792  13.059
49345W        W 8606  33.061  34.024   1.788
49346W        W 8607   5.428  36.008  12.044
49347W        W 8608  30.543  43.479  13.923
49348W        W 8609  32.142  35.366   3.200
49349W        W 8610  11.633   8.217  12.429
49350W        W 8611  34.941  34.991  13.986
49351W        W 8612   7.385  28.451  11.889
49352W        W 8613   0.844  36.961   3.868
49353W        W 8614  12.172  34.868  13.355
49354W        W 8615   9.166  44.279   3.650
49355W        W 8616  23.217  24.498  14.920
49356W        W 8617   3.408  10.187  13.941
49357W        W 8618  38.829  20.632  10.605
49358W        W 8619  23.184  18.731  13.862
49359W        W 8620  41.010  44.775   2.180
49360W        W 8621   6.418  19.623   1.786
49361W        W 8622  36.984   3.722  14.835
49362W        W 8623  40.324  34.032   5.124
49363W        W 8624  21.113   2.957   3.796
49364W        W 8625  33.130   5.883   4.681
49365W        W 8626  30.113  31.425  14.396
49366W        W 8627  24.502  43.940   3.705
49367W        W 8628   2.929  42.334   0.390
49368W        W 8629  42.516  42.825   1.277
49369W        W 8630  22.117   2.872   2.855
49370W        W 8631  14.696  14.262   4.603
49371W        W 8632   5.409  40.329   0.822
49372W        W 8633  40.471  36.544   3.212
49373W        W 8634  42.803   8.237   2.400
49374W        W 8635  39.873  35.885   3.330
49375W        W 8636  39.459  12.800   0.830
49376W        W 8637  29.089  27.079  13.904
49377W        W 8638  18.668  15.821  13.018
49378W        W 8639  24.489   1.350  10.094
49379W        W 8640  16.301  19.194  10.454
49380W        W 8641  33.615  32.508   1.447
49381W        W 8642  31.473  44.869  14.393
49382W        W 8643  19.672  14.796   4.646
49383W        W 8644  43.834  40.901   4.707
49384W        W 8645  33.492  39.817  14.456
49385W        W 8646  11.312  27.567  14.320
49386W        W 8647   3.883   5.929   0.729
49387W        W 8648  36.035  44.361   4.249
49388W        W 8649   7.307  32.453  11.609
49389W        W 8650  28.638  17.583  13.847
49390W        W 8651  32.952  28.650  12.511
49391W        W 8652  11.167  15.593  11.872
49392W        W 8653   9.305  36.947   1.395
49393W        W 8654  35.556   3.867  11.461
49394W        W 8655  14.764   3.411  13.904
49395W        W 8656  13.633  42.498  13.364
49396W        W 8657  17.623  33.002  12.073
49397W        W 8658  19.110   2.378  13.500
49398W        W 8659  12.650   2.277   4.803
49399W        W 8660  37.343  33.992  10.004
49400W        W 8661  42.955   0.319  11.099
49401W        W 8662  13.794  24.192   3.157
49402W        W 8663   7.278  32.110   2.279
49403W        W 8664  14.738  38.477   1.895
49404W        W 8665  29.613  11.814  12.999
49405W        W 8666  23.544   2.240   1.735
49406W        W 8667   7.673  25.612  11.916
49407W        W 8668   0.908  32.006  11.477
49408W        W 8669   8.813  10.738  12.922
49409W        W 8670  13.281  36.851  14.328
49410W        W 8671  44.320  11.200  12.370
49411W        W 8672   8.875  34.401  10.551
49412W        W 8673  11.297  16.730  14.905
49413W        W 8674  35.873   6.263  14.496
49414W        W 8675  16.738  44.351   0.890
49415W        W 8676  17.675   7.873   0.936
49416W        W 8677  10.738   8.714   4.831
49417W        W 8678  44.753  38.907  11.538
49418W        W 8679  31.046   9.391   4.779
49419W        W 8680  33.585  29.112   0.364
49420W        W 8681  30.164  29.108   4.769
49421W        W 8682  26.144  12.207  14.427
49422W        W 8683  20.650  27.082  12.478
49423W        W 8684  23.589  39.953   2.383
49424W        W 8685  11.829  32.489   2.307
49425W        W 8686  33.455   2.959   1.704
49426W        W 8687  42.819  41.828   5.144
49427W        W 8688  33.625  29.059   1.755
49428W        W 8689  26.090   9.743  14.437
49429W        W 8690   3.797  10.308  12.486
49430W        W 8691  31.529  43.436   4.640
49431W        W 8692  15.169  26.024   2.787
49432W        W 8693  30.036  39.398   1.288
49433W        W 8694  23.571  44.338   0.455
49434W        W 8695  26.022  36.460   0.287
49435W        W 8696  12.349  21.163  12.076
49436W        W 8697  42.976  28.562  12.543
49437W        W 8698  10.302  19.580  11.574
49438W        W 8699  30.055  44.856  13.359
49439W        W 8700  37.049  35.445  13.399
49440W        W 8701   6.333  42.788  11.016
49441W        W 8702  29.609  28.574   2.846
49442W        W 8703  42.007  38.380   2.255
49443W        W 8704  37.941  42.981   5.271
49444W        W 8705  24.148  11.357   1.416
49445W        W 8706  21.171  24.590   4.338
49446W        W 8707  15.153   1.439   1.706
49447W        W 8708  38.980  26.954  14.499
49448W        W 8709  24.629  21.559  11.880
49449W        W 8710  29.940  37.055   3.846
49450W        W 8711   0.929  40.868  14.465
49451W        W 8712   5.687   9.803  12.492
49452W        W 8713  25.008  33.076  11.875
49453W        W 8714  23.072  21.622  10.077
49454W        W 8715  25.505  35.955   4.687
49455W        W 8716  37.027  39.009  10.946
49456W        W 8717  11.266   2.863   3.350
49457W        W 8718   1.400  12.715   3.189
49458W        W 8719   1.359  22.068   4.210
49459W        W 8720  43.394  34.034   4.634
49460W        W 8721   1.410  11.197   1.772
49461W        W 8722  30.045   7.893  12.037
49462W        W 8723  43.022  37.376   0.757
49463W        W 8724  26.701  18.616  10.900
49464W        W 8725  31.451  10.355   3.209
49465W        W 8726  32.575  17.758  13.380
49466W        W 8727  19.194  37.036   0.416
49467W        W 8728  19.182  40.542  12.373
49468W        W 8729  28.102  29.116   2.341
49469W        W 8730  12.784  29.089   3.653
49470W        W 8731  16.315  23.215   0.853
49471W        W 8732  36.871  29.161   3.785
49472W        W 8733  26.095  33.464  14.921
49473W        W 8734   0.461  18.056  13.917
49474W        W 8735  13.164  15.637   0.373
49475W        W 8736  14.237  19.542  14.854
49476W        W 8737  43.358  12.803  12.425
49477W        W 8738  10.358  22.042  11.491
49478W        W 8739  14.801   9.290   9.951
49479W        W 8740   4.862  39.027  14.845
49480W        W 8741  43.435  40.840  13.932
49481W        W 8742   1.826  25.986  14.334
49482W        W 8743  22.566   9.272   1.301
49483W        W 8744  44.940  29.159   1.384
49484W        W 8745  13.768   8.301   3.146
49485W        W 8746  13.689  25.699  14.370
49486W        W 8747  14.781  24.582  10.417
49487W        W 8748  21.562   5.237  13.063
49488W        W 8749  17.707  21.542   3.206
49489W        W 8750   3.715  26.032   1.791
49490W        W 8751  11.347  29.525   1.357
49491W        W 8752  17.162  43.783  13.528
49492W        W 8753  15.315  30.912  14.952
49493W        W 8754  44.292   6.375  13.853
49494W        W 8755   5.222  41.916   1.327
49495W        W 8756  37.576  11.143   0.941
49496W        W 8757  26.697  34.614  13.865
49497W        W 8758  31.495   3.812  12.438
49498W        W 8759  32.452  14.325  14.349
49499W        W 8760   7.838   8.796   4.620
49500W        W 8761   3.941  12.229   2.336
49501W        W 8762  41.986  31.549  11.918
49502W        W 8763  26.135  39.852  10.996
49503W        W 8764  26.615  22.092  11.931
49504W        W 8765  33.078   1.280  11.563
49505W        W 8766  13.238  16.579   3.749
49506W        W 8767  42.778  11.636  11.084
49507W        W 8768   9.273  10.670  11.475
49508W        W 8769  24.061   3.757  13.490
49509W        W 8770   8.229  32.001  14.458
49510W        W 8771  15.228  22.632   3.675
49511W        W 8772  38.551   6.191  11.393
49512W        W 8773  34.427  11.628   3.765
49513W        W 8774  43.768  41.836  12.351
49514W        W 8775   3.754  23.508   0.868
49515W        W 8776   1.468  35.869  14.997
49516W        W 8777  41.382   0.791  11.066
49517W        W 8778  44.810  33.890  12.446
49518W        W 8779  34.952  14.162   2.744
49519W        W 8780   3.779  41.508  13.526
49520W        W 8781  31.988   6.396  11.064
49521W        W 8782   9.281   5.374  13.496
49522W        W 8783  25.153  38.835  14.462
49523W        W 8784  11.198  34.900  10.951
49524W        W 8785  21.147   8.239   2.235
49525W        W 8786  39.936   5.727   0.378
49526W        W 8787  32.400  31.139   4.616
49527W        W 8788  12.265   9.323   0.295
49528W        W 8789   8.728  25.103  10.495
49529W        W 8790  44.322  36.554  11.018
49530W        W 8791  38.373   9.726   1.887
49531W        W 8792  34.007  22.131   0.334
49532W        W 8793   6.231  22.223  10.523
49533W        W 8794  33.935   1.758  11.494
49534W        W 8795  30.641  10.373  12.855
49535W        W 8796  28.134  39.845   0.858
49536W        W 8797  33.894  35.979  14.854
49537W        W 8798  35.377  40.382  13.511
49538W        W 8799  31.110  25.062   2.254
49539W        W 8800  24.708  43.837   1.862
49540W        W 8801   6.381  23.203   2.688
49541W        W 8802  17.660  27.665   0.868
49542W        W 8803  17.671  10.679   4.651
49543W        W 8804  18.546  21.518  10.964
49544W        W 8805  14.204   3.805  10.982
49545W        W 8806  42.822  35.006   1.293
49546W        W 8807  27.176  16.664  11.113
49547W        W 8808  14.643  19.565   1.431
49548W        W 8809  38.875  35.921   5.251
49549W        W 8810  28.560  24.053  14.446
49550W        W 8811  20.587  30.131   1.282
49551W        W 8812  19.284  39.841  12.997
49552W        W 8813  30.964  20.530  14.954
49553W        W 8814  44.267  23.531  14.822
49554W        W 8815  21.205   1.925  12.535
49555W        W 8816  25.612  22.143   3.632
49556W        W 8817  17.102   1.359  14.426
49557W        W 8818  29.594   4.873  10.591
49558W        W 8819  44.287  29.083  11.542
49559W        W 8820   8.253  15.801   1.283
49560W        W 8821  22.059  14.164  11.382
49561W        W 8822  43.926  11.320   3.252
49562W        W 8823   2.965  39.405  14.972
49563W        W 8824  19.734   2.923   2.206
49564W        W 8825  22.710   6.901   1.721
49565W        W 8826  22.683  33.500   4.269
49566W        W 8827  33.383   4.808   3.705
49567W        W 8828  30.420   2.764   0.782
49568W        W 8829  42.293  22.682   0.768
49569W        W 8830  11.761  18.622  11.439
49570W        W 8831  36.469  28.546   3.712
49571W        W 8832  43.481  10.227   3.274
49572W        W 8833  30.576  30.420   0.823
49573W        W 8834  16.664  15.176   4.695
49574W        W 8835  23.153  18.272   3.664
49575W        W 8836  41.022   5.924   3.321
49576W        W 8837   3.235  37.900   4.829
49577W        W 8838  21.019  12.137   1.343
49578W        W 8839  34.903  44.334   1.353
49579W        W 8840  15.114  30.609   1.800
49580W        W 8841  44.968  36.935   2.330
49581W        W 8842  11.812  36.045   0.383
49582W        W 8843  27.038  33.886   0.734
49583W        W 8844  22.080  28.014  13.900
49584W        W 8845  30.627  18.284   3.325
49585W        W 8846  11.863  33.531  10.112
49586W        W 8847  18.570   6.751   2.208
49587W        W 8848  27.106  36.874  10.513
49588W        W 8849  44.350   4.935   0.462
49589W        W 8850  20.598  39.365  11.436
49590W        W 8851  44.766   8.810  11.888
49591W        W 8852  17.799  20.186   0.957
49592W        W 8853  40.438  22.549  14.492
49593W        W 8854  31.523  41.336  12.519
49594W        W 8855   7.681  19.181   0.852
49595W        W 8856  39.423   8.784   1.269
49596W        W 8857  23.198  34.598   1.881
49597W        W 8858  15.740  34.374  11.510
49598W        W 8859   7.334  32.554  13.498
49599W        W 8860  17.758  38.937   0.467
49600W        W 8861  42.388  18.290   3.676
49601W        W 8862  22.101  26.070  10.957
49602W        W 8863  11.713  27.011   4.207
49603W        W 8864  37.861  37.579  13.979
49604W        W 8865   5.278  15.803  12.843
49605W        W 8866  38.499  36.490   3.674
49606W        W 8867  18.135  41.877   1.230
49607W        W 8868  32.547  16.609   3.719
49608W        W 8869  40.385  11.171   0.421
49609W        W 8870  25.638   5.271  13.941
49610W        W 8871  20.048  25.117  13.796
49611W        W 8872   4.898  16.748   4.329
49612W        W 8873  21.085  26.061   3.155
49613W        W 8874  37.086  35.376   4.341
49614W        W 8875  33.035  40.476  10.580
49615W        W 8876   7.339  25.197  13.889
49616W        W 8877  39.344  15.768  12.014
49617W        W 8878  10.226  25.626   0.405
49618W        W 8879  33.951  26.981  10.488
49619W        W 8880  32.098   9.227   5.593
49620W        W 8881   7.216  44.846  14.972
49621W        W 8882  24.505   8.890   2.714
49622W        W 8883  14.149  26.975  13.497
49623W        W 8884  35.047  20.057  11.985
49624W        W 8885   0.267  24.187  14.452
49625W        W 8886  17.709  40.976   1.436
49626W        W 8887  14.718  33.596  12.833
49627W        W 8888  44.823  44.760  10.550
49628W        W 8889  34.520   2.945   4.710
49629W        W 8890  10.813  26.144  13.452
49630W        W 8891  36.897  16.572   1.215
49631W        W 8892  43.916  43.516  11.865
49632W        W 8893  35.388  21.757   4.691
49633W        W 8894  19.202  29.039  13.411
49634W        W 8895  36.985   4.426  14.909
49635W        W 8896  13.729  21.039   1.434
49636W        W 8897  37.421  42.399  13.040
49637W        W 8898  40.312  28.961  11.606
49638W        W 8899  12.758  31.965  13.971
49639W        W 8900  27.543  17.212  14.840
49640W        W 8901  29.613  43.454   4.205
49641W        W 8902  35.465  34.605   2.310
49642W        W 8903  29.139  38.924   3.292
49643W        W 8904  15.601  38.360  14.913
49644W        W 8905  41.421  15.808   3.325
49645W        W 8906   0.343  40.015  13.358
49646W        W 8907  19.664  11.192  11.466
49647W        W 8908   3.810  30.557  11.516
49648W        W 8909  41.909  29.110   0.394
49649W        W 8910  33.895  33.946   4.691
49650W        W 8911  43.813  37.998  10.094
49651W        W 8912  27.674   0.252   0.408
49652W        W 8913  39.053  22.092   4.319
49653W        W 8914  41.887  36.069   2.683
49654W        W 8915  31.039  13.162   0.432
49655W        W 8916  11.326  10.806   3.679
49656W        W 8917   3.936  38.557  14.806
49657W        W 8918  41.948   5.236   0.825
49658W        W 8919  31.439  18.295  13.350
49659W        W 8920  43.287  11.692   1.858
49660W        W 8921  27.570   1.402  14.852
49661W        W 8922  11.191  33.471  14.931
49662W        W 8923   1.873  41.843  11.884
49663W        W 8924  28.112   4.911   0.381
49664W        W 8925  19.644  23.549  12.941
49665W        W 8926  10.843  34.387   1.839
49666W        W 8927  18.139  22.519  14.283
49667W        W 8928  30.100  34.560   0.342
49668W        W 8929  20.668  15.806   1.405
49669W        W 8930  30.507  16.774  11.051
49670W        W 8931  16.078  27.097   2.228
49671W        W 8932  23.052  24.127   0.357
49672W        W 8933   6.355  40.388  14.307
49673W        W 8934  35.584  19.260  12.993
49674W        W 8935  41.887   3.790   4.300
49675W        W 8936  40.966  23.136   3.237
49676W        W 8937   4.270  20.180  10.418
49677W        W 8938  23.117   8.336   3.660
49678W        W 8939  13.159  32.605  10.942
49679W        W 8940   8.655  38.829   4.225
49680W        W 8941   7.247  18.665   2.318
49681W        W 8942  24.627  37.999   3.718
49682W        W 8943  20.121   1.869  12.464
49683W        W 8944   2.390  38.367  13.382
49684W        W 8945  43.980  38.390  12.837
49685W        W 8946  32.130   5.314   3.761
49686W        W 8947  21.727  12.226   1.437
49687W        W 8948  30.155  27.653   2.859
49688W        W 8949  10.349   8.293  11.501
49689W        W 8950  15.656   0.487   2.678
49690W        W 8951   1.420  27.598  12.001
49691W        W 8952  20.562  27.023   2.775
49692W        W 8953  19.671  21.248  11.374
49693W        W 8954   5.293  11.288  12.010
49694W        W 8955   0.254  30.419   4.740
49695W        W 8956   0.958  16.692   0.836
49696W        W 8957  21.602  16.201  10.485
49697W        W 8958  31.915  34.500  12.827
49698W        W 8959   0.289  21.108  14.395
49699W        W 8960  24.006  35.015   3.672
49700W        W 8961   4.896  14.184  10.044
49701W        W 8962  18.258  35.090   0.890
49702W        W 8963   5.246  15.318   4.230
49703W        W 8964   8.680  29.129  11.537
49704W        W 8965   9.861  24.136   2.184
49705W        W 8966   7.845  14.223  14.462
49706W        W 8967  15.623  12.837   3.163
49707W        W 8968  30.428  29.620   0.325
49708W        W 8969  36.905  33.549   4.182
49709W        W 8970  43.903  18.211   0.814
49710W        W 8971   7.183  24.499  11.896
49711W        W 8972  42.840   4.230  12.068
49712W        W 8973  36.930  19.130  13.967
49713W        W 8974   0.371  24.182  13.946
49714W        W 8975  40.526  14.151   0.403
49715W        W 8976  35.535  31.983   2.307
49716W        W 8977  16.142  38.982  10.586
49717W        W 8978  32.457  21.189   4.301
49718W        W 8979  35.876  21.561  11.883
49719W        W 8980   0.982   0.855  14.889
49720W        W 8981   8.304  34.064   2.179
49721W        W 8982  22.231  27.491   2.886
49722W        W 8983  26.049  21.757  14.456
49723W        W 8984  30.078   7.784   0.881
49724W        W 8985  31.137  42.806   4.633
49725W        W 8986   0.974   2.949  10.944
49726W        W 8987  20.269  32.140  13.496
49727W        W 8988  40.918  14.309   2.887
49728W        W 8989  23.003   0.974  11.974
49729W        W 8990   6.419  10.199   0.922
49730W        W 8991  15.812  37.016  14.851
49731W        W 8992  11.699   3.452  11.864
49732W        W 8993  28.553   7.716   0.289
49733W        W 8994   7.824  22.238  11.097
49734W        W 8995  43.868  43.464   4.729
49735W        W 8996  31.044  24.063   0.894
49736W        W 8997   6.225  20.707  13.941
49737W        W 8998  24.530  23.031  12.827
49738W        W 8999  33.067  41.800   3.179
49739W        W 9000  38.852  43.776  14.012
49740W        W 9001  27.584  22.081  13.848
49741W        W 9002  35.574  23.705   3.170
49742W        W 9003  28.538   6.718   4.219
49743W        W 9004  26.112  20.085  13.859
49744W        W 9005   5.373   8.266   3.829
49745W        W 9006  13.802  39.374   0.462
49746W        W 9007  27.663   3.805  12.441
49747W        W 9008  14.118   5.258   1.879
49748W        W 9009  18.704  15.112   3.355
49749W        W 9010  26.095  16.759  10.998
49750W        W 9011   0.361  40.318   1.754
49751W        W 9012  19.602  23.079  12.581
49752W        W 9013   4.935   3.826   4.630
49753W        W 9014  34.061  13.200  12.574
49754W        W 9015  37.894   7.875  14.791
49755W        W 9016   4.435  11.212   3.641
49756W        W 9017  13.161   7.870   4.614
49757W        W 9018  13.678  32.500  11.592
49758W        W 9019   8.286  40.046  10.444
49759W        W 9020  19.700  29.625   1.258
49760W        W 9021  23.048  37.371  11.976
49761W        W 9022  29.017  37.453   2.782
49762W        W 9023   2.390  18.791  10.536
49763W        W 9024  26.656  13.791   2.380
49764W        W 9025   7.358  42.827   1.240
49765W        W 9026  10.675   3.228   1.710
49766W        W 9027  35.956  12.192  12.518
49767W        W 9028  42.406  44.858   4.718
49768W        W 9029  30.470   4.874   9.935
49769W        W 9030  38.971  21.680  14.396
49770W        W 9031  40.349  16.171  12.079
49771W        W 9032  39.432  25.703   4.276
49772W        W 9033   8.669  41.905   3.777
49773W        W 9034  29.531   4.876   2.694
49774W        W 9035   6.695  32.972  14.456
49775W        W 9036  20.682  17.659  13.371
49776W        W 9037  42.819   1.363   2.271
49777W        W 9038   4.877   9.291  10.502
49778W        W 9039  10.703  38.351  11.500
49779W        W 9040  39.518  22.222  14.769
49780W        W 9041  38.926  20.075  14.476
49781W        W 9042  24.530   9.239   4.627
49782W        W 9043  27.606   7.254  14.890
49783W        W 9044  18.234  27.086   3.361
49784W        W 9045  17.771  43.444  11.525
49785W        W 9046  25.599  12.712   3.175
49786W        W 9047   9.691  33.609  14.762
49787W        W 9048  36.093   7.676   2.207
49788W        W 9049  28.637  27.994  13.843
49789W        W 9050  23.725  16.703  14.405
49790W        W 9051  35.584  20.646  10.590
49791W        W 9052  14.603  19.111  11.600
49792W        W 9053  30.994  36.060   4.753
49793W        W 9054  18.764  18.683  12.411
49794W        W 9055   8.389   3.413  11.525
49795W        W 9056  40.325  34.582   1.818
49796W        W 9057  20.707  38.946   0.727
49797W        W 9058  31.532  29.119  14.403
49798W        W 9059  11.800  44.411  13.457
49799W        W 9060  23.241  40.303   1.726
49800W        W 9061  16.234  11.235  12.044
49801W        W 9062  36.928   7.785  14.484
49802W        W 9063  20.235  34.457  11.926
49803W        W 9064  37.965  33.487   3.244
49804W        W 9065   4.719  36.379   3.201
49805W        W 9066  24.601  43.795  10.409
49806W        W 9067  19.185  12.337  11.565
49807W        W 9068   9.189  25.177  14.345
49808W        W 9069  32.421   7.199   3.257
49809W        W 9070  42.954  16.749  13.947
49810W        W 9071  32.428  29.934   0.271
49811W        W 9072  39.393  38.076  13.809
49812W        W 9073  38.008  28.619   2.408
49813W        W 9074   5.333  43.923   0.779
49814W        W 9075  12.207  15.606  10.019
49815W        W 9076  20.100   3.785   0.966
49816W        W 9077  42.000   7.236  10.519
49817W        W 9078  19.763  20.159   5.223
49818W        W 9079  16.087   0.877  11.002
49819W        W 9080   6.370  30.911   3.843
49820W        W 9081  16.587  36.976   2.274
49821W        W 9082  39.832   4.384  12.535
49822W        W 9083  32.439   0.977   0.820
49823W        W 9084  16.704  13.131   4.341
49824W        W 9085  28.097  15.095  11.491
49825W        W 9086   8.782  31.644  12.980
49826W        W 9087   1.420  42.520   4.642
49827W        W 9088  26.662   7.746  12.386
49828W        W 9089  39.844  12.196  14.959
49829W        W 9090  28.009  25.525   3.867
49830W        W 9091   0.849  14.738  10.580
49831W        W 9092  42.896  24.584   4.790
49832W        W 9093  13.106  33.612   0.879
49833W        W 9094  18.283  39.056  14.945
49834W        W 9095  24.023  12.771   0.931
49835W        W 9096  36.977  32.560   3.248
49836W        W 9097  25.014  11.206   1.782
49837W        W 9098  26.135  31.144   2.252
49838W        W 9099  11.849   8.701  10.452
49839W        W 9100  39.328   1.845  14.406
49840W        W 9101  13.679  35.098   1.712
49841W        W 9102  12.155  17.709  11.023
49842W        W 9103  38.532  35.078   0.427
49843W        W 9104  21.578   7.721  11.007
49844W        W 9105  41.787  23.038   0.344
49845W        W 9106   3.812  16.254  13.878
49846W        W 9107   1.290  27.575  12.438
49847W        W 9108  21.078  12.643   1.703
49848W        W 9109  27.461  41.348   4.720
49849W        W 9110  27.115   9.328   1.774
49850W        W 9111  10.149  33.021  14.866
49851W        W 9112  42.912   6.874  11.495
49852W        W 9113  42.408   9.747   3.761
49853W        W 9114  23.164  13.106  10.606
49854W        W 9115  10.772  41.370  10.580
49855W        W 9116   9.834  13.265   2.355
49856W        W 9117  33.410  32.032   4.814
49857W        W 9118   2.267  15.319  14.871
49858W        W 9119  37.995  21.118   2.678
49859W        W 9120  22.523  40.842   0.357
49860W        W 9121  26.133   4.868  12.920
49861W        W 9122  23.706  12.697   3.810
49862W        W 9123  19.067  22.604   4.821
49863W        W 9124  12.324  23.517  13.963
49864W        W 9125  33.612   0.299   0.404
49865W        W 9126  43.900  13.264   1.699
49866W        W 9127  29.013   9.762   4.746
49867W        W 9128  16.279  21.645   2.347
49868W        W 9129   3.260  31.431  13.813
49869W        W 9130  44.287  21.526  13.855
49870W        W 9131   3.820  22.691   4.717
49871W        W 9132  41.319  42.918   2.262
49872W        W 9133  13.738  23.590   4.201
49873W        W 9134  26.458  43.420   0.831
49874W        W 9135  18.131  33.891  12.085
49875W        W 9136  14.223  19.065  13.354
49876W        W 9137  10.334  38.888   4.629
49877W        W 9138  12.638  24.631   4.245
49878W        W 9139  12.330  44.889   4.832
49879W        W 9140  15.171  24.125   4.188
49880W        W 9141  24.028  30.503   3.807
49881W        W 9142  32.090  14.716  13.320
49882W        W 9143  44.309   6.205   4.349
49883W        W 9144   0.275  14.647  13.356
49884W        W 9145  26.091  13.155  10.483
49885W        W 9146  14.821  20.117  11.501
49886W        W 9147  33.032  15.799  10.613
49887W        W 9148   7.792   3.384   0.834
49888W        W 9149  42.449  35.955  10.563
49889W        W 9150  13.223  14.266  12.493
49890W        W 9151  26.678  25.981  10.905
49891W        W 9152  10.305  40.836  12.897
49892W        W 9153  11.655   8.344   4.727
49893W        W 9154  11.780   8.701   0.877
49894W        W 9155  31.132  30.657  11.896
49895W        W 9156  39.471  22.105   0.961
49896W        W 9157  34.414  40.429  12.467
49897W        W 9158  10.276  42.304  13.495
49898W        W 9159   0.877  42.031   2.762
49899W        W 9160  41.527  42.285   0.868
49900W        W 9161   2.311  43.422  11.909
49901W        W 9162  18.183  39.998  14.905
49902W        W 9163   2.311   4.718  14.894
49903W        W 9164  33.554  36.960  12.478
49904W        W 9165  23.029  10.796   0.424
49905W        W 9166  11.358  14.228   0.845
49906W        W 9167  38.569  17.766   0.346
49907W        W 9168  11.772  21.160   3.195
49908W        W 9169   7.222  36.003  14.388
49909W        W 9170  18.591  10.646   4.261
49910W        W 9171  31.540  25.110   1.932
49911W        W 9172   3.284  33.099  11.117
49912W        W 9173  20.768   2.424   4.122
49913W        W 9174  39.049  18.737   0.743
49914W        W 9175  18.725  34.094  13.309
49915W        W 9176  19.574  12.330   2.732
49916W        W 9177  39.831  34.022   4.264
49917W        W 9178  14.226  19.621   1.847
49918W        W 9179  21.582  10.260   0.292
49919W        W 9180  11.621   1.953   2.878
49920W        W 9181  19.275   9.714   4.171
49921W        W 9182  44.841  24.618   0.857
49922W        W 9183  27.564   5.904   5.785
49923W        W 9184  10.823  12.201  10.575
49924W        W 9185   1.289  25.694   3.210
49925W        W 9186  29.505  12.340  12.087
49926W        W 9187  33.542  25.659   1.799
49927W        W 9188  31.482  28.508   2.770
49928W        W 9189   6.303  34.000  14.784
49929W        W 9190  20.055   8.741  10.922
49930W        W 9191   9.810  21.221   0.832
49931W        W 9192   9.698  30.616  12.462
49932W        W 9193  42.366  20.253  13.020
49933W        W 9194  22.190  40.495   4.721
49934W        W 9195  40.894  15.176   5.125
49935W        W 9196  16.189  13.335   3.357
49936W        W 9197  35.403  30.156   0.893
49937W        W 9198  32.960  42.808   0.895
49938W        W 9199  11.309   2.431  11.981
49939W        W 9200  30.997  38.965  14.881
49940W        W 9201  15.817  23.554   4.820
49941W        W 9202  12.799   5.921  10.617
49942W        W 9203   3.782   5.435  12.902
49943W        W 9204  15.678   5.819  11.993
49944W        W 9205   9.320   3.400   4.131
49945W        W 9206  16.805  34.515   0.842
49946W        W 9207   0.438  38.472  12.093
49947W        W 9208  17.640   1.353   2.185
49948W        W 9209  42.368  36.454  12.358
49949W        W 9210  31.125  35.856   2.886
49950W        W 9211   6.735  18.094   1.299
49951W        W 9212  42.423  31.951   0.377
49952W        W 9213  27.152  13.741  12.427
49953W        W 9214  44.441   6.703   1.300
49954W        W 9215   3.446  17.630  14.308
49955W        W 9216  24.102  28.960  14.027
49956W        W 9217  41.449   7.907  12.498
49957W        W 9218  27.163  24.566  14.320
49958W        W 9219  39.532  12.804  12.518
49959W        W 9220  17.635   3.823  14.465
49960W        W 9221  18.101  41.301   2.674
49961W        W 9222  40.363  25.007  14.291
49962W        W 9223  26.163  39.520   1.307
49963W        W 9224  43.312  13.599   3.238
49964W        W 9225  11.762   5.382  12.930
49965W        W 9226  26.678  19.161  10.957
49966W        W 9227  39.351  40.005   0.942
49967W        W 9228   8.893  21.526  10.420
49968W        W 9229   7.354  18.785   2.668
49969W        W 9230  33.991  29.648   1.367
49970W        W 9231  22.066  15.278  11.600
49971W        W 9232   9.240   8.838   0.275
49972W        W 9233  12.152  44.966   2.258
49973W        W 9234  11.808  40.993   3.855
49974W        W 9235  16.262  31.957   4.614
49975W        W 9236  14.142   7.886  10.989
49976W        W 9237  42.316   0.809   4.620
49977W        W 9238  12.803  40.459   3.827
49978W        W 9239  11.277  16.794   4.180
49979W        W 9240  12.611  41.824  11.523
49980W        W 9241  22.536  25.523  10.510
49981W        W 9242  27.126  42.963   3.759
49982W        W 9243  15.818   9.776   3.679
49983W        W 9244  38.857  41.936   1.277
49984W        W 9245  24.670  16.228  14.997
49985W        W 9246  43.274  10.867   4.282
49986W        W 9247  13.106  44.333   1.326
49987W        W 9248  37.874  30.416  10.525
49988W        W 9249  38.355  40.810  11.552
49989W        W 9250   7.701  16.707  14.966
49990W        W 9251  19.202  14.715   3.723
49991W        W 9252  38.012  40.835   0.920
49992W        W 9253  35.476   4.356   0.795
49993W        W 9254  42.031   7.339  12.408
49994W        W 9255  36.368  26.012   2.362
49995W        W 9256  31.635  28.656   4.279
49996W        W 9257  31.079  40.010  13.979
49997W        W 9258   5.419   3.382  11.084
49998W        W 9259  10.646   5.294  14.947
49999W        W 9260  36.034  36.450  11.864
50000W        W 9261  37.529  16.583  10.528
50001W        W 9262  10.701   2.804   0.387
50002W        W 9263  22.621  34.027   3.731
50003W        W 9264  42.416  27.037  10.426
50004W        W 9265  14.823  31.956   0.291
50005W        W 9266  13.736  11.236  10.500
50006W        W 9267   1.766  42.839   1.745
50007W        W 9268   4.907  20.213   4.773
50008W        W 9269  38.893  13.685  13.886
50009W        W 9270  17.647   9.257   1.715
50010W        W 9271  11.731   9.367  11.531
50011W        W 9272  33.952  37.891  13.009
50012W        W 9273  11.273  10.159   4.622
50013W        W 9274  14.657  35.533  12.429
50014W        W 9275   6.875  28.960  10.891
50015W        W 9276  42.018  16.312  10.138
50016W        W 9277  22.145  11.673   3.683
50017W        W 9278   4.769  16.610  11.116
50018W        W 9279   9.275  38.383   3.664
50019W        W 9280  14.613   7.399  10.891
50020W        W 9281  36.380  29.666   5.158
50021W        W 9282  42.290  26.109   5.762
50022W        W 9283  14.658  36.988  11.963
50023W        W 9284  19.536  41.308  13.951
50024W        W 9285   5.358  13.683  11.895
50025W        W 9286  44.397  19.548   2.297
50026W        W 9287  34.595  12.662   4.839
50027W        W 9288  31.539  25.655   1.433
50028W        W 9289  16.748  35.061   3.376
50029W        W 9290  41.422  31.462   2.379
50030W        W 9291   6.187   0.871   4.241
50031W        W 9292   4.385   4.786  12.092
50032W        W 9293   4.215  21.683  13.930
50033W        W 9294  36.426  42.844   2.825
50034W        W 9295   4.904  30.609  12.520
50035W        W 9296  22.154  10.797  14.294
50036W        W 9297  36.903  38.039  13.808
50037W        W 9298  13.298  18.145  11.985
50038W        W 9299  14.742  27.097  12.944
50039W        W 9300  41.885  35.519  11.875
50040W        W 9301  23.528   4.745  10.575
50041W        W 9302  36.440  42.408   4.332
50042W        W 9303  16.082  38.033  11.941
50043W        W 9304  10.736  11.792   0.436
50044W        W 9305  21.560  42.448  12.944
50045W        W 9306  12.837  12.246   4.291
50046W        W 9307   8.783  42.387  11.123
50047W        W 9308  31.021  32.932  14.302
50048W        W 9309  16.268  21.093   4.623
50049W        W 9310  17.073   7.238  13.470
50050W        W 9311  28.450  29.554  12.874
50051W        W 9312  17.225  23.064   4.793
50052W        W 9313   9.280   0.358   1.324
50053W        W 9314  13.654   5.220   3.732
50054W        W 9315  19.167  17.275   5.296
50055W        W 9316  41.981  35.476   4.265
50056W        W 9317  33.050  16.248  14.961
50057W        W 9318   4.874   5.331   0.731
50058W        W 9319  25.072  24.191  13.516
50059W        W 9320  27.673   0.319   1.243
50060W        W 9321   9.777  17.630  13.806
50061W        W 9322  15.238  43.414   0.455
50062W        W 9323  24.190  25.636  10.437
50063W        W 9324  17.787  27.570   3.211
50064W        W 9325  22.674  38.995   0.344
50065W        W 9326  37.542  37.408   1.856
50066W        W 9327  13.649  16.590  14.907
50067W        W 9328  24.987  17.623   4.693
50068W        W 9329  38.401  20.699  14.924
50069W        W 9330  18.609  31.040  12.017
50070W        W 9331  32.624  35.565   2.251
50071W        W 9332  30.572  28.139   4.646
50072W        W 9333  17.196  10.346  12.515
50073W        W 9334  32.079  20.240  12.856
50074W        W 9335  25.690  37.993   0.381
50075W        W 9336  15.167  18.138   1.224
50076W        W 9337  16.794   2.426  14.006
50077W        W 9338   6.916  37.342   1.723
50078W        W 9339  16.295   8.682   1.729
50079W        W 9340  43.807  42.925   4.644
50080W        W 9341  16.309  35.047   1.770
50081W        W 9342  24.645  44.370  10.979
50082W        W 9343   9.324  25.207  13.392
50083W        W 9344  30.522  10.159   2.371
50084W        W 9345  16.153  39.401  14.778
50085W        W 9346  32.622  11.698   2.886
50086W        W 9347  36.053  16.727  13.943
50087W        W 9348  36.956  24.696  13.317
50088W        W 9349  15.221   9.680   4.695
50089W        W 9350  28.513  26.653   1.246
50090W        W 9351  36.045  36.376   3.214
50091W        W 9352  19.232   1.359   0.843
50092W        W 9353   0.303   2.381   4.739
50093W        W 9354   2.289  34.015  13.008
50094W        W 9355  18.591   5.402  14.392
50095W        W 9356  30.026  32.520  10.515
50096W        W 9357   7.709  24.586   1.895
50097W        W 9358  44.929  44.339   2.317
50098W        W 9359  35.480  41.853  11.859
50099W        W 9360  12.854  32.977   0.804
50100W        W 9361  40.303  35.528   1.247
50101W        W 9362   8.383  35.587   1.797
50102W        W 9363  22.533  16.672  13.313
50103W        W 9364   8.850   9.157   3.168
50104W        W 9365  31.434  12.178   4.643
50105W        W 9366  18.067  41.327   4.351
50106W        W 9367   0.482   4.782  10.554
50107W        W 9368   7.227  14.750  11.585
50108W        W 9369  30.091  29.516  12.953
50109W        W 9370  21.577  22.681  12.087
50110W        W 9371  14.751   7.252  14.475
50111W        W 9372  30.953  33.551  14.864
50112W        W 9373  14.250  29.161   3.787
50113W        W 9374  35.986  28.082  11.120
50114W        W 9375  17.065  44.889  13.907
50115W        W 9376  25.159  19.773   3.832
50116W        W 9377  18.784  12.322  12.362
50117W        W 9378  16.774  25.974   5.098
50118W        W 9379  30.960  19.741  13.863
50119W        W 9380  36.437  39.464   3.727
50120W        W 9381   8.656  15.735  11.445
50121W        W 9382  34.407  37.531   3.238
50122W        W 9383  31.451  36.459   0.956
50123W        W 9384   8.400   5.764   3.758
50124W        W 9385   2.261  39.989   1.774
50125W        W 9386  36.856  29.950  10.532
50126W        W 9387  16.317  14.753   3.830
50127W        W 9388  42.974  37.464   3.700
50128W        W 9389   2.252  29.102  11.455
50129W        W 9390  33.436  31.444  13.412
50130W        W 9391  43.824  15.305  12.957
50131W        W 9392  18.584   6.735   3.330
50132W        W 9393  23.079  11.715   1.835
50133W        W 9394  17.233  13.630   4.199
50134W        W 9395  40.394  24.129  10.636
50135W        W 9396   3.233  22.195  10.556
50136W        W 9397  25.504  28.950  13.904
50137W        W 9398  20.149  31.897   2.260
50138W        W 9399  33.990  21.701  13.454
50139W        W 9400   0.747   9.176   2.719
50140W        W 9401  31.903   3.456  13.860
50141W        W 9402  42.873  40.939   1.242
50142W        W 9403  25.487   2.913  14.876
50143W        W 9404  26.659  28.099   2.827
50144W        W 9405  33.101   8.823   1.892
50145W        W 9406  25.191  14.289  14.000
50146W        W 9407  12.654  21.255  13.024
50147W        W 9408  42.854  26.545  14.460
50148W        W 9409  37.047  35.501   2.250
50149W        W 9410  21.205  10.669   2.193
50150W        W 9411  41.804  13.653   3.183
50151W        W 9412   1.807  29.453   2.686
50152W        W 9413  32.142  15.159   2.285
50153W        W 9414  32.495  20.071   0.778
50154W        W 9415   3.795   3.344  11.090
50155W        W 9416  14.753  19.243   3.853
50156W        W 9417   4.278  27.685  11.097
50157W        W 9418  14.221  39.337  13.852
50158W        W 9419  24.194  44.810  10.595
50159W        W 9420  20.050  20.225  13.013
50160W        W 9421  33.397   5.886  12.014
50161W        W 9422   1.421  42.506   1.311
50162W        W 9423  33.041  32.066  13.343
50163W        W 9424  15.179  35.963  11.571
50164W        W 9425  42.523  22.091   2.240
50165W        W 9426  32.138  35.951   2.721
50166W        W 9427  38.015  32.984  14.367
50167W        W 9428  31.620  34.484  12.430
50168W        W 9429  26.166  39.391  12.007
50169W        W 9430  44.883  33.985  10.073
50170W        W 9431   8.292  38.962  14.475
50171W        W 9432  23.612  31.071   9.579
50172W        W 9433  18.246  36.515   4.814
50173W        W 9434  17.244  13.681  14.759
50174W        W 9435  26.626   5.247  14.774
50175W        W 9436   7.267  39.935   1.308
50176W        W 9437  44.310  41.888  12.481
50177W        W 9438   2.910  24.656  13.387
50178W        W 9439   6.722  15.083   0.317
50179W        W 9440  41.869  16.770  10.413
50180W        W 9441  25.684  40.370   1.305
50181W        W 9442  44.395  16.089  12.387
50182W        W 9443  32.525  26.208  10.462
50183W        W 9444   0.317  35.039   3.841
50184W        W 9445  24.629  36.899   3.665
50185W        W 9446  14.667  28.661   2.672
50186W        W 9447  34.395  17.133  11.392
50187W        W 9448  42.455  10.803  12.458
50188W        W 9449   3.355  20.645   2.292
50189W        W 9450  24.634  17.110   1.292
50190W        W 9451  35.925  17.589  14.464
50191W        W 9452   2.948  29.136   1.791
50192W        W 9453  37.017  15.270   3.223
50193W        W 9454   4.753   3.793  10.555
50194W        W 9455  31.419  40.928   0.765
50195W        W 9456  31.037  11.808  14.906
50196W        W 9457  19.255  43.973  13.455
50197W        W 9458  29.966  16.795  10.447
50198W        W 9459  43.283  26.011  11.942
50199W        W 9460  16.279   8.747   2.323
50200W        W 9461   5.787   8.857   0.760
50201W        W 9462  36.482  15.812  14.309
50202W        W 9463  27.587  34.481  13.522
50203W        W 9464  31.585   3.384  14.875
50204W        W 9465  39.391  25.636  12.878
50205W        W 9466  32.047   9.834   4.819
50206W        W 9467  25.490  16.606  10.601
50207W        W 9468  11.645  32.546  10.496
50208W        W 9469  19.713  38.994   3.287
50209W        W 9470  29.444  37.845  10.953
50210W        W 9471  22.659  21.559  10.962
50211W        W 9472  36.071  14.111   1.743
50212W        W 9473  38.413  27.170  12.457
50213W        W 9474  15.299  13.649  11.992
50214W        W 9475   8.677  27.965   0.811
50215W        W 9476   2.776   2.226   3.265
50216W        W 9477  42.988  13.173   3.756
50217W        W 9478  38.485  32.461  12.403
50218W        W 9479  16.607  43.416   0.806
50219W        W 9480  14.217  23.125   0.879
50220W        W 9481  31.468  21.076   4.734
50221W        W 9482  12.309   7.671   0.330
50222W        W 9483  20.691  30.014   1.841
50223W        W 9484  24.076  28.555   2.260
50224W        W 9485  20.552   9.259  13.866
50225W        W 9486   8.659  38.950   0.375
50226W        W 9487  20.537  12.712  11.910
50227W        W 9488  42.454  26.082  14.325
50228W        W 9489   1.882  31.136   4.148
50229W        W 9490  12.346  32.009  13.856
50230W        W 9491  36.403  10.747  11.543
50231W        W 9492  30.093  41.512  14.867
50232W        W 9493  24.589  17.669  11.067
50233W        W 9494   1.945  37.565   2.739
50234W        W 9495   0.793  14.279  14.376
50235W        W 9496  41.039  44.349   1.264
50236W        W 9497  41.921  28.178  10.986
50237W        W 9498   6.395  44.800   1.434
50238W        W 9499  43.888  38.891  14.764
50239W        W 9500   1.847   6.287  10.493
50240W        W 9501   3.934  38.885  13.920
50241W        W 9502  27.555  13.284  11.410
50242W        W 9503  39.911  40.804  11.875
50243W        W 9504   4.337  39.492  12.361
50244W        W 9505  34.599  15.640  14.388
50245W        W 9506  29.601  32.586   0.877
50246W        W 9507  43.961  16.181  10.414
50247W        W 9508   6.328  38.466  11.469
50248W        W 9509  44.934  32.886  12.454
50249W        W 9510   3.930  12.253  11.003
50250W        W 9511  36.857  23.033  10.966
50251W        W 9512  33.052   5.764  13.064
50252W        W 9513   8.785  37.862  14.931
50253W        W 9514   5.810  28.598   0.915
50254W        W 9515  21.253  42.992  13.341
50255W        W 9516  14.764   1.877   5.083
50256W        W 9517  12.701   2.721   1.342
50257W        W 9518  13.206  34.957  11.552
50258W        W 9519  16.130   0.266   4.743
50259W        W 9520  18.627   0.472   2.418
50260W        W 9521  39.544  35.596  14.325
50261W        W 9522  19.244  33.435   2.232
50262W        W 9523  24.508  23.187   3.655
50263W        W 9524  12.197   4.307  13.539
50264W        W 9525  14.120  20.194  11.889
50265W        W 9526   2.928   2.911  11.866
50266W        W 9527  34.069  44.847   1.409
50267W        W 9528  31.032   2.803  13.825
50268W        W 9529   1.833  27.670  12.447
50269W        W 9530  17.674   7.901   1.326
50270W        W 9531  34.041  37.013  10.582
50271W        W 9532   9.237  27.083   0.271
50272W        W 9533  19.618  21.202   2.228
50273W        W 9534  15.625   8.288  14.298
50274W        W 9535   8.900  18.092  11.013
50275W        W 9536  14.669  36.442   3.247
50276W        W 9537  14.137  42.455   1.878
50277W        W 9538   1.828  44.452   3.261
50278W        W 9539  17.707  20.608  10.454
50279W        W 9540   9.342  21.670   4.226
50280W        W 9541  31.497  15.790  13.989
50281W        W 9542   3.740   0.894   1.777
50282W        W 9543   2.443  19.774  13.049
50283W        W 9544  17.726  41.360   3.221
50284W        W 9545  28.060  23.236  14.988
50285W        W 9546  23.210  34.075   3.353
50286W        W 9547   1.275  37.983  11.863
50287W        W 9548   5.348  33.421  14.489
50288W        W 9549  34.025  32.009   1.213
50289W        W 9550   0.321  42.836  11.450
50290W        W 9551  13.151  36.014  13.490
50291W        W 9552   3.739   5.702   4.688
50292W        W 9553  30.956  40.917  11.892
50293W        W 9554  36.091  34.867   0.305
50294W        W 9555  31.907  24.497  13.425
50295W        W 9556  29.590  19.285  10.986
50296W        W 9557  36.510  43.920   0.462
50297W        W 9558  43.498  25.135   0.359
50298W        W 9559  22.131   9.303   2.670
50299W        W 9560   4.239  14.176   1.718
50300W        W 9561  35.472  12.833   0.418
50301W        W 9562  15.123  44.401   2.888
50302W        W 9563  29.622  34.982  11.567
50303W        W 9564  28.138  25.625  12.535
50304W        W 9565  44.803  13.636  12.989
50305W        W 9566  30.149  19.726  13.479
50306W        W 9567  36.942  44.888   1.790
50307W        W 9568  23.725  30.557   0.845
50308W        W 9569  16.227  18.178   4.655
50309W        W 9570  17.725  18.559   0.427
50310W        W 9571  39.355  34.489   1.838
50311W        W 9572   1.450  20.684  10.488
50312W        W 9573  42.333  24.223  11.063
50313W        W 9574   7.242  37.020  14.447
50314W        W 9575  30.123  17.137  12.898
50315W        W 9576   8.732  29.543   4.187
50316W        W 9577  28.129   7.886   4.209
50317W        W 9578  21.650  18.745   2.309
50318W        W 9579  32.960  24.213  11.974
50319W        W 9580  12.184  39.414   1.287
50320W        W 9581  11.851  32.437  13.504
50321W        W 9582   1.295   9.861   2.662
50322W        W 9583  26.176  43.928   4.609
50323W        W 9584  38.047  31.512  12.846
50324W        W 9585  30.638   1.759  13.334
50325W        W 9586  30.943   1.433   0.865
50326W        W 9587  35.526   7.381   1.866
50327W        W 9588  11.367   0.399   0.910
50328W        W 9589  29.598  22.220   4.265
50329W        W 9590   6.801   2.744   4.614
50330W        W 9591  18.592  12.803  10.110
50331W        W 9592  38.027  27.656  11.481
50332W        W 9593  18.576   8.704  11.037
50333W        W 9594  40.434  17.792  12.403
50334W        W 9595   1.769  27.968   0.751
50335W        W 9596  44.285  20.071  13.530
50336W        W 9597  42.979  33.124  14.865
50337W        W 9598  23.565  15.631  14.490
50338W        W 9599  20.712   7.903   2.180
50339W        W 9600  42.921  42.292   1.345
50340W        W 9601   0.352  16.087   5.142
50341W        W 9602  37.882  39.493  10.437
50342W        W 9603  16.158  34.070  11.553
50343W        W 9604   4.860  33.406  11.449
50344W        W 9605  21.731  13.161  10.592
50345W        W 9606  33.947  25.152  11.526
50346W        W 9607   9.677  24.651   3.863
50347W        W 9608  43.499  30.028  13.863
50348W        W 9609  13.836  20.630   4.160
50349W        W 9610  20.691  39.945   1.846
50350W        W 9611  17.753   2.326   2.352
50351W        W 9612  28.473  40.459  14.868
50352W        W 9613   2.337  24.021   1.440
50353W        W 9614  13.246  30.009  14.768
50354W        W 9615  20.692  37.857  13.497
50355W        W 9616  36.061  26.157   1.395
50356W        W 9617   7.742  14.833  11.385
50357W        W 9618   8.286  13.648  14.471
50358W        W 9619  22.592  41.314  11.482
50359W        W 9620  31.548  17.199   1.759
50360W        W 9621   0.856  20.572   4.203
50361W        W 9622  20.258  13.739  13.960
50362W        W 9623  34.954  43.980   4.230
50363W        W 9624   8.747  40.404   2.789
50364W        W 9625  34.869   9.303   9.665
50365W        W 9626   6.696  41.996  11.076
50366W        W 9627  29.480  37.556  13.495
50367W        W 9628  20.253  31.485   2.384
50368W        W 9629  22.181  33.498  14.874
50369W        W 9630  36.884  43.015   1.852
50370W        W 9631   4.338  14.604   2.751
50371W        W 9632  41.357  39.374   4.627
50372W        W 9633  22.141  21.565  13.819
50373W        W 9634   3.397   7.873   4.293
50374W        W 9635  20.114  30.602  12.550
50375W        W 9636   7.771   3.367   2.266
50376W        W 9637   7.410  36.556  10.571
50377W        W 9638  16.802  12.844   2.337
50378W        W 9639  24.513  18.142   3.677
50379W        W 9640  38.067  24.680  14.410
50380W        W 9641  15.095   2.754  12.972
50381W        W 9642  39.474  21.575  13.845
50382W        W 9643  39.356  11.728   0.427
50383W        W 9644  15.646  26.014   9.609
50384W        W 9645  31.145  20.141   2.282
50385W        W 9646   9.687  19.255   4.641
50386W        W 9647  21.217  25.996   3.855
50387W        W 9648  32.593   2.726  12.978
50388W        W 9649  14.590  31.945   1.360
50389W        W 9650  12.211   3.423  14.498
50390W        W 9651   5.358   1.432  13.424
50391W        W 9652  13.632  15.791  13.958
50392W        W 9653  34.378  39.840   2.335
50393W        W 9654   3.410   8.687  13.983
50394W        W 9655  20.044  40.520   1.835
50395W        W 9656  10.784   4.301  14.490
50396W        W 9657  24.638  44.438   1.788
50397W        W 9658  36.089  42.432   1.332
50398W        W 9659  40.453   5.251  11.431
50399W        W 9660  26.674  13.319  14.279
50400W        W 9661  43.020  20.057   4.268
50401W        W 9662  12.139  33.603  12.063
50402W        W 9663  36.408  17.603  10.532
50403W        W 9664  31.123   3.290   4.170
50404W        W 9665  10.157  32.397   2.765
50405W        W 9666  25.073   9.241   3.194
50406W        W 9667  41.999  34.014  13.544
50407W        W 9668   3.398  29.138  13.042
50408W        W 9669   1.793  24.566  12.892
50409W        W 9670  17.157   9.159   0.930
50410W        W 9671  33.128  28.080  12.532
50411W        W 9672   1.323  33.072  10.931
50412W        W 9673  31.994  22.724  13.311
50413W        W 9674  12.734  37.052   1.447
50414W        W 9675  24.010  25.101  14.822
50415W        W 9676  38.996  24.202   1.265
50416W        W 9677   4.844  16.154  11.050
50417W        W 9678  34.498  41.022  10.925
50418W        W 9679  43.290  25.016  10.012
50419W        W 9680  20.158  42.804  12.455
50420W        W 9681  35.973  15.179   2.412
50421W        W 9682   1.816  30.065  11.982
50422W        W 9683  24.087  12.245  13.938
50423W        W 9684   7.190   7.412  10.970
50424W        W 9685  18.195  39.446   4.639
50425W        W 9686  24.638   4.334   0.811
50426W        W 9687  24.228  11.225   1.832
50427W        W 9688  17.565  17.226   2.367
50428W        W 9689  10.731  18.775   4.208
50429W        W 9690   2.945   3.801   2.886
50430W        W 9691  29.166   4.783   0.886
50431W        W 9692  34.556  20.127  10.572
50432W        W 9693  38.558  29.036   1.421
50433W        W 9694  19.573  14.284   0.767
50434W        W 9695  39.509  42.414  11.968
50435W        W 9696   9.777  27.528   1.264
50436W        W 9697  11.840   4.781   4.130
50437W        W 9698  39.453  10.281   2.680
50438W        W 9699  35.974  29.930   0.906
50439W        W 9700  31.936   4.331   2.887
50440W        W 9701  15.289  32.392   4.175
50441W        W 9702   9.845  29.111  13.477
50442W        W 9703  35.881  23.640   2.181
50443W        W 9704  28.439  14.129  14.022
50444W        W 9705  36.394   2.414   2.276
50445W        W 9706  15.186   4.794  14.021
50446W        W 9707   0.951  30.980  12.522
50447W        W 9708  38.393  23.113  10.599
50448W        W 9709   5.827  44.759  11.450
50449W        W 9710  14.779  28.007   3.366
50450W        W 9711  39.014  31.615  12.033
50451W        W 9712  37.897  43.444  10.891
50452W        W 9713  40.377  37.342  14.856
50453W        W 9714  21.556   4.882  10.045
50454W        W 9715  42.978  13.309  13.022
50455W        W 9716   4.248   7.909   1.707
50456W        W 9717   8.785  15.144  13.357
50457W        W 9718  11.813  22.719   0.294
50458W        W 9719  27.598  40.405   1.881
50459W        W 9720  20.576  13.279  11.544
50460W        W 9721  34.014  26.999  13.497
50461W        W 9722  16.579  11.298   4.734
50462W        W 9723  26.960   2.432   1.811
50463W        W 9724  37.833  17.141   0.956
50464W        W 9725  11.296  17.266  13.933
50465W        W 9726  15.180  30.063  10.923
50466W        W 9727  21.066   2.369   2.225
50467W        W 9728   3.848   7.719   4.695
50468W        W 9729  33.459   1.959   1.312
50469W        W 9730  19.167  30.918   1.740
50470W        W 9731  23.092  14.685   0.860
50471W        W 9732  38.010   7.782   4.175
50472W        W 9733  32.569  12.325   5.791
50473W        W 9734  41.312   9.647   3.784
50474W        W 9735  31.128   9.705  12.923
50475W        W 9736  22.147  38.061  13.855
50476W        W 9737  16.712  21.542   2.843
50477W        W 9738  23.577  26.983  14.509
50478W        W 9739  25.097   3.723  11.482
50479W        W 9740  17.253  18.262   0.791
50480W        W 9741  10.668  30.008  12.954
50481W        W 9742  20.529   2.408  10.984
50482W        W 9743   5.933   5.695   1.429
50483W        W 9744   4.757  31.955  10.623
50484W        W 9745  34.036  42.828  10.411
50485W        W 9746  37.347  33.119   3.706
50486W        W 9747  42.851  29.607  10.605
50487W        W 9748  27.053  35.965  11.578
50488W        W 9749  10.822  21.724   1.319
50489W        W 9750  20.127   6.305  13.859
50490W        W 9751   2.966  42.965   4.640
50491W        W 9752  10.729  44.258   4.153
50492W        W 9753  43.991  17.631   1.818
50493W        W 9754  25.189  11.680  10.891
50494W        W 9755   6.762   1.377  13.046
50495W        W 9756   8.365  32.935  12.422
50496W        W 9757  25.208   5.803  13.547
50497W        W 9758  12.302   2.839   0.739
50498W        W 9759  19.205  12.150   0.939
50499W        W 9760  12.633  40.037  11.032
50500W        W 9761  42.442  10.691   4.688
50501W        W 9762   4.361   1.767   3.203
50502W        W 9763  35.957  21.651   0.309
50503W        W 9764   2.821  16.270  13.459
50504W        W 9765   1.324  26.028   1.805
50505W        W 9766   5.363  33.511  11.910
50506W        W 9767   5.394   9.249  14.951
50507W        W 9768  42.798  21.657  10.903
50508W        W 9769  42.804  41.944  13.521
50509W        W 9770  17.585   5.728  14.851
50510W        W 9771   4.725   9.765  13.545
50511W        W 9772   4.737  18.229  13.537
50512W        W 9773  41.457   2.739  10.418
50513W        W 9774  36.878  36.903   1.841
50514W        W 9775  44.440   7.737  12.520
50515W        W 9776   3.331  28.633  12.040
50516W        W 9777  27.059  28.623  14.960
50517W        W 9778   6.353  34.102  13.336
50518W        W 9779   6.826   9.644  11.458
50519W        W 9780  15.741  24.019  11.079
50520W        W 9781  25.049   9.799   2.178
50521W        W 9782  28.440  40.457  12.886
50522W        W 9783  38.015  13.696  10.967
50523W        W 9784  30.434  33.910   2.373
50524W        W 9785  14.609  10.651   4.611
50525W        W 9786   9.870  27.514  12.515
50526W        W 9787  17.782  39.882   2.190
50527W        W 9788  16.203  34.485  10.537
50528W        W 9789  33.465  24.702   4.332
50529W        W 9790   6.878  43.981  14.768
50530W        W 9791  17.675   2.900   4.613
50531W        W 9792  25.620  27.492  13.044
50532W        W 9793  38.391  27.972   2.369
50533W        W 9794  32.412  39.986   4.284
50534W        W 9795  16.636  42.823  12.445
50535W        W 9796   9.260  31.647   1.375
50536W        W 9797  34.037   2.794   3.864
50537W        W 9798   6.396  14.208   1.886
50538W        W 9799  30.990   9.172  12.493
50539W        W 9800  23.131   1.411   5.186
50540W        W 9801   0.807  44.377  13.963
50541W        W 9802  32.023  28.954  13.057
50542W        W 9803   3.887  14.118   0.322
50543W        W 9804  16.644  16.596   0.398
50544W        W 9805  26.485  25.677   0.924
50545W        W 9806  11.646  33.055   2.779
50546W        W 9807  11.675  22.503   5.125
50547W        W 9808  39.427   1.963  13.486
50548W        W 9809   3.936  12.661  11.452
50549W        W 9810   8.807   1.355   4.681
50550W        W 9811  20.677  23.710   4.607
50551W        W 9812  22.245  29.440   0.818
50552W        W 9813  16.146  11.247  14.799
50553W        W 9814  16.581   1.411   2.842
50554W        W 9815   9.756  37.372   0.303
50555W        W 9816  35.499  18.645   2.419
50556W        W 9817  24.136   3.923   3.828
50557W        W 9818  24.510   7.879   3.277
50558W        W 9819   1.930  40.404  12.365
50559W        W 9820  11.689  24.210   4.144
50560W        W 9821  18.653   8.664   1.791
50561W        W 9822  31.465  11.769  11.963
50562W        W 9823  29.977  11.245  11.447
50563W        W 9824  19.162  39.372   3.768
50564W        W 9825  23.191  24.580   1.301
50565W        W 9826  27.944  19.054   4.607
50566W        W 9827  37.413  41.382   1.809
50567W        W 9828  11.262  40.482   3.192
50568W        W 9829  24.483  17.108  14.900
50569W        W 9830  23.102  22.641  12.448
50570W        W 9831  14.101  21.637  12.490
50571W        W 9832  36.476   0.294  12.837
50572W        W 9833  41.823  37.946  13.990
50573W        W 9834  16.239  32.466   3.829
50574W        W 9835  15.175  43.764  13.416
50575W        W 9836   8.881  22.595  10.964
50576W        W 9837  40.849  15.163  14.406
50577W        W 9838   9.790  16.757  12.957
50578W        W 9839   3.432  17.298  11.393
50579W        W 9840  27.610  15.613   1.831
50580W        W 9841  10.246   3.296   5.300
50581W        W 9842   8.757   6.787  12.846
50582W        W 9843  11.851   6.779  14.893
50583W        W 9844   2.848   8.803   9.925
50584W        W 9845  16.187  18.068   0.946
50585W        W 9846  29.640  37.558   0.959
50586W        W 9847  12.343  10.755   4.332
50587W        W 9848  27.462  39.860   3.314
50588W        W 9849  14.277   9.336  11.525
50589W        W 9850  16.087  26.140   2.190
50590W        W 9851  24.063   7.748   1.363
50591W        W 9852  37.919   7.393   3.858
50592W        W 9853  13.780  11.865   1.808
50593W        W 9854  11.808   8.697  12.838
50594W        W 9855  28.655  14.340   2.757
50595W        W 9856  30.598  39.049   3.170
50596W        W 9857   6.340  18.592  12.438
50597W        W 9858  27.155   0.279  11.042
50598W        W 9859   0.376  11.131   1.275
50599W        W 9860   7.316  34.372  13.415
50600W        W 9861  13.685  15.671  14.807
50601W        W 9862  15.263  38.026   4.714
50602W        W 9863  34.374  35.962  12.577
50603W        W 9864  44.376  26.195  11.577
50604W        W 9865  10.764   4.902   2.282
50605W        W 9866  41.790  23.089  14.405
50606W        W 9867  43.907  17.722   9.957
50607W        W 9868  29.933  27.064  14.984
50608W        W 9869  26.553  32.930  13.941
50609W        W 9870  35.941  32.081   1.345
50610W        W 9871  42.831  12.626   3.720
50611W        W 9872  23.706   5.306   4.251
50612W        W 9873  22.214  24.498   1.378
50613W        W 9874  30.559  42.396  12.456
50614W        W 9875  43.300  33.056  14.356
50615W        W 9876  43.914  17.179   3.718
50616W        W 9877  43.946  21.133  13.546
50617W        W 9878  22.013  28.636   3.870
50618W        W 9879   0.493  42.285  11.538
50619W        W 9880  17.126   0.402  11.429
50620W        W 9881   7.877  18.087  14.960
50621W        W 9882  29.125   9.302  13.843
50622W        W 9883   6.881  33.098   0.888
50623W        W 9884  29.164   8.882   1.387
50624W        W 9885  18.640   5.315   2.661
50625W        W 9886  37.508  33.617   2.386
50626W        W 9887   8.779  12.175  11.457
50627W        W 9888   2.886  32.977  12.434
50628W        W 9889  14.601  16.284  14.767
50629W        W 9890  12.730  43.286  13.891
50630W        W 9891  43.445  42.817   0.473
50631W        W 9892  25.683  22.161  12.453
50632W        W 9893  19.572   8.730   1.322
50633W        W 9894  41.801  19.544   1.260
50634W        W 9895  35.962   2.835  11.992
50635W        W 9896  30.974   3.950   3.265
50636W        W 9897  15.213  25.132   4.716
50637W        W 9898   3.459  29.000  13.530
50638W        W 9899  34.926  41.852  13.497
50639W        W 9900  26.204  43.982  13.458
50640W        W 9901  14.655  42.902   2.790
50641W        W 9902  20.565  35.970  13.842
50642W        W 9903  28.110  37.997   3.829
50643W        W 9904  30.474  28.974  14.848
50644W        W 9905  41.438  38.365  14.952
50645W        W 9906   2.742  36.844  14.785
50646W        W 9907  15.580  22.211  10.003
50647W        W 9908  37.520  38.897   1.896
50648W        W 9909  25.020  26.137   3.695
50649W        W 9910  28.992  24.669  13.796
50650W        W 9911  38.447   4.371   3.644
50651W        W 9912  41.981   7.344   4.241
50652W        W 9913  19.129   1.245  13.851
50653W        W 9914  16.775  21.514  14.985
50654W        W 9915  23.017  16.703   1.408
50655W        W 9916  16.094  10.772  13.307
50656W        W 9917  32.095  17.223   2.868
50657W        W 9918  27.195  23.068  11.401
50658W        W 9919   8.698  42.301   3.751
50659W        W 9920  24.066   2.344  12.430
50660W        W 9921  33.906  26.502   3.744
50661W        W 9922  24.100  23.127   1.743
50662W        W 9923  38.529   0.395  13.364
50663W        W 9924  13.737  14.793  12.039
50664W        W 9925   3.881  44.504   3.249
50665W        W 9926   6.222   4.715  12.037
50666W        W 9927  11.291  33.604   3.643
50667W        W 9928  16.221   5.784  13.915
50668W        W 9929   3.783  37.996   0.731
50669W        W 9930  33.525   6.896   9.523
50670W        W 9931  17.245  33.490   4.216
50671W        W 9932  22.237   7.760  13.548
50672W        W 9933  39.536   7.292  13.924
50673W        W 9934  30.995  13.802   0.275
50674W        W 9935  29.000  27.660  12.393
50675W        W 9936  14.337   8.717   3.797
50676W        W 9937  14.111   8.812  10.568
50677W        W 9938  41.308  21.577  13.441
50678W        W 9939  32.133   3.953   2.781
50679W        W 9940  35.477   5.900   4.133
50680W        W 9941  40.483   2.829  13.401
50681W        W 9942  44.851  24.499  14.871
50682W        W 9943   0.375  31.403   2.689
50683W        W 9944  35.570  36.384   2.684
50684W        W 9945  29.535  38.473  12.016
50685W        W 9946   2.890  39.380   0.798
50686W        W 9947   2.744  42.296  11.022
50687W        W 9948  42.827  29.652  12.940
50688W        W 9949  17.214  24.581  14.982
50689W        W 9950  35.000  11.629   1.216
50690W        W 9951  10.274   6.919  14.877
50691W        W 9952  10.377  40.822   1.227
50692W        W 9953   0.323   2.230   4.322
50693W        W 9954  37.360  28.003   3.208
50694W        W 9955  13.763  33.117   2.209
50695W        W 9956  27.468   9.358  12.543
50696W        W 9957   7.351  24.070   4.720
50697W        W 9958  10.383   4.259   1.241
50698W        W 9959   0.464  30.608  10.890
50699W        W 9960  39.364   1.884   1.897
50700W        W 9961  27.609  24.694  14.292
50701W        W 9962  31.507  16.220  10.527
50702W        W 9963  41.808   9.665  14.936
50703W        W 9964  19.579  11.733   0.257
50704W        W 9965   6.371  41.942  12.878
50705W        W 9966   9.302  43.821   1.748
50706W        W 9967   9.222  28.106  10.504
50707W        W 9968  43.864  39.492  11.603
50708W        W 9969  36.083  43.311  14.394
50709W        W 9970  29.069  31.944   0.421
50710W        W 9971   6.817  21.755  10.624
50711W        W 9972  39.042  34.118   0.244
50712W        W 9973  42.303  35.590   0.819
50713W        W 9974  36.487  43.963  14.392
50714W        W 9975  25.604  38.411   4.249
50715W        W 9976   2.287   2.722   0.455
50716W        W 9977  30.117   8.773   4.701
50717W        W 9978  31.133   2.415  14.938
50718W        W 9979  43.507   0.973   0.317
50719W        W 9980  18.708  25.658  13.054
50720W        W 9981  12.252  44.804   0.966
50721W        W 9982  25.142  35.589  10.892
50722W        W 9983  18.643  23.195   4.279
50723W        W 9984  24.033  30.036  12.833
50724W        W 9985   3.424  20.543  14.346
50725W        W 9986  37.542  36.538  14.502
50726W        W 9987  26.958  34.955  14.014
50727W        W 9988  13.121   0.845  11.543
50728W        W 9989  32.589  26.960   1.437
50729W        W 9990   1.445   1.889  12.983
50730W        W 9991   6.415  12.226   2.676
50731W        W 9992   5.728   3.236  12.893
50732W        W 9993  23.997  34.470   1.387
50733W        W 9994  29.431  41.874  10.887
50734W        W 9995  20.038   7.765   3.850
50735W        W 9996  10.847  42.005  13.985
50736W        W 9997   4.836  33.964  12.827
50737W        W 9998  42.978  41.385  12.971
50738W        W 9999   4.754   7.231   1.789
50739W        W10000  25.551  24.579  12.400
50740W        W10001  30.939   9.668  10.052
50741W        W10002  12.121  40.389  12.559
50742W        W10003   8.861  27.451   2.842
50743W        W10004  25.047   3.929  12.011
50744W        W10005  11.649  28.533  13.826
50745W        W10006  10.814  11.710   3.788
50746W        W10007  42.399   8.804   1.243
50747W        W10008   8.672  34.409   0.777
50748W        W10009  36.441   7.835   4.672
50749W        W10010  16.073   6.306  11.892
50750W        W10011  36.480  33.050   1.289
50751W        W10012  44.939  30.921   2.180
50752W        W10013  19.778  15.120   3.210
50753W        W10014   5.318  41.902   2.371
50754W        W10015  44.412  18.174   4.249
50755W        W10016  14.235  40.032   0.745
50756W        W10017  39.988   7.211   0.379
50757W        W10018   9.198  25.610  12.886
50758W        W10019   0.935   7.838   0.483
50759W        W10020  22.202  38.411  12.966
50760W        W10021   3.385  11.636   4.281
50761W        W10022  38.978   7.309   1.312
50762W        W10023   7.671  21.159  13.917
50763W        W10024  25.648  26.095  11.569
50764W        W10025  38.474  25.183   4.147
50765W        W10026  15.765   9.819   1.329
50766W        W10027  38.410   0.850  12.946
50767W        W10028  19.769  44.425  12.990
50768W        W10029   3.298  17.213   2.321
50769W        W10030  36.506  20.041   0.324
50770W        W10031  29.080  17.716   4.161
50771W        W10032  11.824  38.964  14.960
50772W        W10033  39.539  38.066   3.187
50773W        W10034  14.627   7.239  11.960
50774W        W10035  38.552   0.915  11.390
50775W        W10036   5.704  26.553   5.247
50776W        W10037   0.785  14.214   1.838
50777W        W10038   3.878   4.700   2.821
50778W        W10039  28.523  41.949   0.788
50779W        W10040  26.577  34.465  14.958
50780W        W10041  11.155  41.460  11.864
50781W        W10042  14.196  40.435   2.900
50782W        W10043  32.091  22.597  12.490
50783W        W10044  34.892  26.548   1.280
50784W        W10045   1.908  16.581   3.340
50785W        W10046  26.143  19.726   2.869
50786W        W10047  19.178  16.229  13.058
50787W        W10048  31.517  23.698  10.962
50788W        W10049  12.760  43.994   0.326
50789W        W10050   6.383  39.039  14.334
50790W        W10051  21.050   5.365  13.036
50791W        W10052   7.209  34.600   0.856
50792W        W10053  35.591  42.893  10.615
50793W        W10054   8.345  35.499   4.242
50794W        W10055  16.201  31.539   1.311
50795W        W10056  37.463   6.795   4.203
50796W        W10057  28.058  35.500   1.840
50797W        W10058  34.890  41.478  13.500
50798W        W10059  11.253  11.764   2.194
50799W        W10060  38.451   9.880   2.706
50800W        W10061   1.459  34.119  14.343
50801W        W10062  22.231  17.232  13.345
50802W        W10063  18.095  25.618   0.442
50803W        W10064  21.563  31.043  13.531
50804W        W10065  40.402  40.377  14.765
50805W        W10066  16.775  13.732   0.377
50806W        W10067  22.109   0.366   3.301
50807W        W10068   4.356  41.349  14.799
50808W        W10069  40.006  35.858  11.909
50809W        W10070  41.870  10.230  11.514
50810W        W10071  36.886  37.997   4.276
50811W        W10072  30.131   8.887   0.354
50812W        W10073  12.255   5.383   0.883
50813W        W10074   4.252   2.755   4.186
50814W        W10075  44.289  26.540   0.330
50815W        W10076  35.855  17.727   2.768
50816W        W10077  38.000  41.401   3.830
50817W        W10078  41.971  38.882  14.513
50818W        W10079  16.693  12.312  11.942
50819W        W10080  38.470   7.298   0.910
50820W        W10081  23.630  43.981  13.341
50821W        W10082   6.700   0.356  13.844
50822W        W10083  39.388   6.213   0.317
50823W        W10084  39.389  15.296  11.473
50824W        W10085  39.812   5.926  11.887
50825W        W10086   3.746  17.085   0.790
50826W        W10087  31.642  36.897   3.827
50827W        W10088  18.584  37.036   0.384
50828W        W10089  23.544   1.783   3.733
50829W        W10090  23.683  20.654   2.754
50830W        W10091  19.269  21.679   2.732
50831W        W10092  38.878  39.993   0.738
50832W        W10093  18.701   3.781   4.251
50833W        W10094  41.028   3.940  13.879
50834W        W10095  38.073  28.497   0.247
50835W        W10096  12.658  13.823  12.872
50836W        W10097   8.706  16.578   1.700
50837W        W10098   2.439  16.744  10.049
50838W        W10099  27.167  32.418   4.808
50839W        W10100  36.372  16.809  10.570
50840W        W10101  30.657   9.197  14.277
50841W        W10102   7.783  36.465   2.348
50842W        W10103   8.201  20.057  12.386
50843W        W10104  31.556  18.752   1.927
50844W        W10105  43.505  17.146   3.825
50845W        W10106   2.281  22.704   3.254
50846W        W10107  13.297  20.237  12.027
50847W        W10108   4.281  28.666  11.568
50848W        W10109  17.650  38.923   3.843
50849W        W10110  36.023  28.557   0.747
50850W        W10111  44.439  29.540  10.988
50851W        W10112  29.002  11.163   3.206
50852W        W10113  40.815  20.759   2.816
50853W        W10114  22.222   3.419  11.942
50854W        W10115  11.777  33.398  10.511
50855W        W10116  42.998  10.700  11.537
50856W        W10117  22.173  15.589  14.828
50857W        W10118  15.687  15.265  12.486
50858W        W10119  29.023  40.803  11.967
50859W        W10120  34.447  38.999  14.482
50860W        W10121  24.974  18.715   4.742
50861W        W10122   0.486   0.443   0.364
50862W        W10123  38.518  18.087   0.378
50863W        W10124  13.648  15.593   3.256
50864W        W10125   6.284  40.314  10.552
50865W        W10126  11.254  31.598   3.797
50866W        W10127  12.235  43.464   3.209
50867W        W10128  26.187  31.446   3.805
50868W        W10129  35.024  30.025  11.929
50869W        W10130  40.402  17.081   2.296
50870W        W10131   3.934   4.913  10.562
50871W        W10132  17.180  28.184  10.990
50872W        W10133  21.513  13.129   2.767
50873W        W10134   0.950  28.521   3.199
50874W        W10135  37.534   1.847   3.382
50875W        W10136  35.083   4.913   4.313
50876W        W10137   3.445  42.321   4.205
50877W        W10138  20.265  15.259  14.027
50878W        W10139   9.701   0.301   2.250
50879W        W10140  34.011  22.121  13.858
50880W        W10141  24.555  33.588   1.415
50881W        W10142  36.552   6.703   0.275
50882W        W10143   3.333  14.277  14.999
50883W        W10144  25.555  29.510   1.760
50884W        W10145   8.801  42.829  11.012
50885W        W10146  10.754  40.856  13.820
50886W        W10147   2.838  41.955   0.406
50887W        W10148  36.543   0.952  12.926
50888W        W10149   5.771  16.317   2.233
50889W        W10150   4.832  44.941  14.465
50890W        W10151  15.786  32.606   3.738
50891W        W10152   1.778  44.336  12.035
50892W        W10153  40.520  12.636   3.308
50893W        W10154   6.328  12.254  13.981
50894W        W10155  14.725  44.346   2.343
50895W        W10156  40.945  10.830  11.860
50896W        W10157   3.309  32.425   4.172
50897W        W10158   2.251  29.617   2.688
50898W        W10159  25.680  36.434  14.786
50899W        W10160  23.715  28.458  13.948
50900W        W10161  15.732  21.160   3.632
50901W        W10162  43.400  21.110   9.568
50902W        W10163  14.152  14.723   1.915
50903W        W10164  15.728   7.415   0.276
50904W        W10165  28.553  35.085  12.920
50905W        W10166  22.101  43.421   3.275
50906W        W10167  29.504  33.487   3.367
50907W        W10168   7.685   2.230   5.272
50908W        W10169   9.825  41.314  13.456
50909W        W10170  19.163  32.581  11.395
50910W        W10171  30.588   7.842  10.070
50911W        W10172  44.451  25.684   1.292
50912W        W10173  31.497  41.901   4.222
50913W        W10174  18.177  40.925   3.781
50914W        W10175  16.147  30.069  12.021
50915W        W10176  30.992  14.618  14.935
50916W        W10177  24.652  44.291  12.504
50917W        W10178   7.344  25.968  14.889
50918W        W10179  38.995  40.816  10.443
50919W        W10180  44.821  11.805  14.758
50920W        W10181  41.464  40.341   0.898
50921W        W10182  26.954  37.086   3.661
50922W        W10183  33.066  31.110  12.066
50923W        W10184   2.409  31.634  13.411
50924W        W10185  11.130  21.220  12.976
50925W        W10186  33.543   6.910  10.415
50926W        W10187  15.594  22.231  13.064
50927W        W10188  18.695  25.621  12.080
50928W        W10189  10.284  12.713   1.696
50929W        W10190  22.135  33.395  14.469
50930W        W10191  10.297  28.057   1.334
50931W        W10192  28.455  42.480   0.950
50932W        W10193  21.623   7.214  14.334
50933W        W10194  35.888  32.078   4.751
50934W        W10195  10.754   2.426  14.760
50935W        W10196  10.209  33.900  12.901
50936W        W10197  22.188  39.965  12.340
50937W        W10198  19.066  11.715  10.991
50938W        W10199  13.682  35.021  10.502
50939W        W10200   4.281  15.123   0.460
50940W        W10201   7.722  30.643   0.851
50941W        W10202   9.168   0.927  12.829
50942W        W10203  15.579   9.675  14.907
50943W        W10204   1.976  42.366  12.933
50944W        W10205  40.331  19.707   3.279
50945W        W10206  17.072  17.752   4.317
50946W        W10207  22.607  43.386   0.375
50947W        W10208  38.012  12.332   2.875
50948W        W10209   4.296  12.300   2.336
50949W        W10210  21.131   8.671   0.920
50950W        W10211  13.320  17.731   0.741
50951W        W10212  28.522  25.013  10.477
50952W        W10213   9.366  17.715  11.975
50953W        W10214  32.031  22.235   2.372
50954W        W10215  26.081  12.754   2.739
50955W        W10216  44.469  19.762   4.734
50956W        W10217  18.154  40.422  13.524
50957W        W10218  37.501  27.195   2.362
50958W        W10219  31.963  31.522   4.228
50959W        W10220  33.453  23.000   0.371
50960W        W10221  44.975  32.942  11.958
50961W        W10222  23.218  39.502   1.319
50962W        W10223  22.702  21.040  13.855
50963W        W10224   2.435  17.635  14.931
50964W        W10225  29.925  12.117   0.948
50965W        W10226  15.730  32.038  10.054
50966W        W10227  21.619  31.610   4.615
50967W        W10228   5.800  27.691   1.241
50968W        W10229  40.009   7.214  10.469
50969W        W10230   7.345   4.405  13.011
50970W        W10231   6.751  28.475  14.013
50971W        W10232  10.171   4.783   1.777
50972W        W10233  24.064  10.155   0.727
50973W        W10234  44.291   5.696   4.799
50974W        W10235  26.205  23.241  11.018
50975W        W10236  41.996   5.424  14.430
50976W        W10237   3.834  16.712   2.349
50977W        W10238  25.555  24.637  14.357
50978W        W10239  34.573   4.321  13.922
50979W        W10240  37.956  31.918  11.874
50980W        W10241  30.521   4.761   3.350
50981W        W10242  28.014  23.163   0.422
50982W        W10243  38.963   6.779  12.845
50983W        W10244  36.561  10.159  13.438
50984W        W10245  26.093  24.071   0.880
50985W        W10246  40.478   6.379   9.987
50986W        W10247  37.929  14.122  14.994
50987W        W10248   6.912  31.001  10.585
50988W        W10249  36.378  40.312   3.262
50989W        W10250  38.512  34.055  11.581
50990W        W10251  25.711  28.110   4.703
50991W        W10252  17.164  12.217  14.493
50992W        W10253   4.329  37.021   1.781
50993W        W10254   4.798  29.129  14.429
50994W        W10255  43.435  22.102  12.535
50995W        W10256  38.353  27.071  10.439
50996W        W10257  26.100  22.122  12.860
50997W        W10258  16.627   6.706  10.043
50998W        W10259  29.162   2.418   9.464
50999W        W10260  18.083  41.463  14.300
51000W        W10261  25.639   5.417   1.799
51001W        W10262  36.537  29.998   0.911
51002W        W10263  30.563   5.900  11.020
51003W        W10264  12.319  35.562   0.425
51004W        W10265  43.369  39.963   0.911
51005W        W10266  34.404  21.110  13.444
51006W        W10267  44.837   0.861  10.482
51007W        W10268  40.987  12.826  14.486
51008W        W10269  43.462  12.126   4.777
51009W        W10270  30.633  44.815  13.323
51010W        W10271  19.136  39.481   0.294
51011W        W10272   1.386  38.410   2.876
51012W        W10273   8.192   0.373  12.892
51013W        W10274  11.654  29.496  14.299
51014W        W10275  20.572  12.625  13.047
51015W        W10276  21.732  29.608  12.833
51016W        W10277  18.164  10.801   4.266
51017W        W10278  32.504   7.409  12.510
51018W        W10279  14.312  43.319  14.779
51019W        W10280  21.069  39.396   2.417
51020W        W10281  38.820  30.452   3.833
51021W        W10282   2.839  16.222  11.025
51022W        W10283  12.244  10.777   1.422
51023W        W10284  37.912  19.139   1.284
51024W        W10285  35.917  26.128  11.099
51025W        W10286  23.544  22.035   1.699
51026W        W10287  42.319  21.652  14.850
51027W        W10288  24.148  22.690   0.409
51028W        W10289  34.091  44.775  14.895
51029W        W10290  17.707  27.505  11.887
51030W        W10291  36.351  16.184   2.260
51031W        W10292  17.221  37.441   4.199
51032W        W10293  40.436  40.324   3.644
51033W        W10294   4.380  11.242   3.242
51034W        W10295   8.748   7.267   4.779
51035W        W10296   5.770  36.555   3.156
51036W        W10297  41.390  13.643  13.407
51037W        W10298  10.155  42.488   1.291
51038W        W10299   7.790  11.165   2.769
51039W        W10300  31.631  32.031   4.228
51040W        W10301  21.128  41.493  10.548
51041W        W10302  42.445  27.111  12.539
51042W        W10303  44.813   5.702   4.645
51043W        W10304  43.389  20.073  12.049
51044W        W10305  24.608  34.040  11.060
51045W        W10306  14.244  25.128  10.888
51046W        W10307  30.605  21.525   1.743
51047W        W10308  16.241  16.569  13.982
51048W        W10309   1.457  16.163  10.481
51049W        W10310   5.232   4.253   0.790
51050W        W10311  34.370  35.943   3.727
51051W        W10312  28.491  16.705  11.894
51052W        W10313  44.850   4.916   4.759
51053W        W10314  42.954  25.574   2.866
51054W        W10315  29.519  25.548   0.928
51055W        W10316  30.424  26.994  14.492
51056W        W10317  23.626   5.235  10.475
51057W        W10318  25.575  34.118  12.912
51058W        W10319  32.593   8.183  14.909
51059W        W10320   9.669  44.260  10.607
51060W        W10321  17.116  36.434  12.945
51061W        W10322  38.570  12.262   4.838
51062W        W10323  18.239  22.687   4.835
51063W        W10324   9.266  17.285  14.952
51064W        W10325  28.128  37.517   4.707
51065W        W10326  37.906   0.783   3.347
51066W        W10327  16.677  37.858  12.487
51067W        W10328  16.252  31.100   1.716
51068W        W10329  32.970  44.895  10.547
51069W        W10330  37.907  39.849   4.149
51070W        W10331  13.349  21.638   3.211
51071W        W10332  35.892  26.121  13.889
51072W        W10333   2.381  16.709   2.185
51073W        W10334  15.180  29.530   4.696
51074W        W10335   9.746  34.565  11.587
51075W        W10336  38.035  25.021  12.836
51076W        W10337  31.012  33.520   0.785
51077W        W10338  22.049   0.843  11.933
51078W        W10339  41.022  22.560   4.804
51079W        W10340  18.634   1.359   4.826
51080W        W10341  43.785  37.438  11.493
51081W        W10342  19.137  37.888   2.820
51082W        W10343   4.735  28.633  14.407
51083W        W10344  15.309   9.658  14.877
51084W        W10345   0.391   1.359   2.899
51085W        W10346  15.129  20.231  12.834
51086W        W10347  19.583  29.103   3.362
51087W        W10348  38.834  13.647   4.208
51088W        W10349   8.261  10.174  12.378
51089W        W10350  23.633  35.596  10.517
51090W        W10351  20.580  44.927   1.384
51091W        W10352  39.482   9.736  14.016
51092W        W10353  14.285  20.664  10.601
51093W        W10354  35.862  41.357   1.782
51094W        W10355  39.818   6.740   1.800
51095W        W10356  28.597   5.280  10.494
51096W        W10357  37.837  16.736  11.511
51097W        W10358  34.929  12.246   3.696
51098W        W10359  23.702  33.020  14.398
51099W        W10360   7.852  14.196   5.227
51100W        W10361   7.880  18.272  10.453
51101W        W10362  35.967  22.740  10.502
51102W        W10363  15.247  20.561   1.317
51103W        W10364  34.981  40.412   1.340
51104W        W10365  36.969  34.546  14.328
51105W        W10366  40.815  19.054   1.935
51106W        W10367  23.538  18.663  10.940
51107W        W10368  37.884  22.088   4.777
51108W        W10369  22.056   5.842   4.685
51109W        W10370  36.385   2.721   3.744
51110W        W10371  39.060  28.439  14.481
51111W        W10372  29.624  24.701  13.345
51112W        W10373   6.871  35.905  13.061
51113W        W10374  43.393  13.327   3.764
51114W        W10375   8.375  43.835  14.297
51115W        W10376   9.828  42.985   2.841
51116W        W10377  17.701  11.725  14.778
51117W        W10378  28.980   6.410  14.989
51118W        W10379  31.404  43.801  10.551
51119W        W10380  29.088  27.067   0.386
51120W        W10381  40.451  25.700   1.362
51121W        W10382  36.548  17.210  14.279
51122W        W10383  19.092  17.197   3.160
51123W        W10384  24.030  39.410   0.483
51124W        W10385  20.161  39.054  11.933
51125W        W10386  11.170  41.332   0.744
51126W        W10387  37.482  42.027  14.465
51127W        W10388  30.488  26.604  14.411
51128W        W10389  15.123  26.192   3.153
51129W        W10390   9.793  16.730  11.092
51130W        W10391   4.787  18.126  12.907
51131W        W10392  18.744  20.124   2.232
51132W        W10393   9.657  43.865   2.833
51133W        W10394  32.041  34.909  12.017
51134W        W10395  25.185   5.865   2.259
51135W        W10396  31.497  22.033   2.343
51136W        W10397  21.224  29.438   4.333
51137W        W10398  16.703  10.226   0.797
51138W        W10399  29.131  15.717  14.942
51139W        W10400   6.275  26.498   4.692
51140W        W10401  31.553  37.580  11.458
51141W        W10402   8.794   6.324   0.769
51142W        W10403  12.761   9.648   4.787
51143W        W10404  21.717  26.482  13.499
51144W        W10405  10.709  36.425   4.241
51145W        W10406  15.143  13.808  13.421
51146W        W10407  33.999  13.297   5.178
51147W        W10408   0.440   6.881  12.406
51148W        W10409  17.606  10.330  12.875
51149W        W10410  12.751  11.858  12.574
51150W        W10411  19.589  24.532   2.251
51151W        W10412  36.473  22.638  12.448
51152W        W10413  21.159  15.611  13.398
51153W        W10414  22.105   2.399  13.332
51154W        W10415  10.654  10.219  10.588
51155W        W10416  16.215  35.400  13.014
51156W        W10417   4.712  42.393  11.117
51157W        W10418   2.748  16.315   2.409
51158W        W10419  34.085  14.816   1.709
51159W        W10420  20.668  16.223  11.555
51160W        W10421  31.506  43.832   2.760
51161W        W10422  24.581  32.475  10.570
51162W        W10423  37.017  11.286  13.021
51163W        W10424  17.275   3.362  13.793
51164W        W10425  44.900  15.186  12.509
51165W        W10426  37.557  40.421   1.274
51166W        W10427  10.693  10.750   0.791
51167W        W10428  12.839   4.889  14.808
51168W        W10429   5.886  11.263  12.985
51169W        W10430  24.648  42.368  12.453
51170W        W10431  21.248  12.168  12.832
51171W        W10432  16.124   5.281  14.029
51172W        W10433   2.379  42.286   2.313
51173W        W10434  35.093   6.797  14.783
51174W        W10435  15.690   1.907   0.827
51175W        W10436  25.990   3.814   1.916
51176W        W10437  39.516  42.812   4.213
51177W        W10438  21.579   3.880  11.091
51178W        W10439  23.677  11.277   2.271
51179W        W10440  14.803  28.097   2.268
51180W        W10441  41.876  28.125   4.190
51181W        W10442  24.148  28.098   1.845
51182W        W10443  32.457   7.880   0.919
51183W        W10444   6.347  17.757   1.286
51184W        W10445  34.979   8.329  14.773
51185W        W10446   2.739  22.743   1.897
51186W        W10447   0.314   0.292  14.290
51187W        W10448  22.113  20.734  12.827
51188W        W10449  44.979   3.749   3.803
51189W        W10450  40.469  23.182  14.480
51190W        W10451  14.219  27.540   2.782
51191W        W10452  26.590  42.815   2.365
51192W        W10453  36.934  31.008   2.268
51193W        W10454  35.967  21.192  12.411
51194W        W10455  13.735  17.585   2.705
51195W        W10456  17.559  34.419  10.503
51196W        W10457  31.989  16.645  11.921
51197W        W10458  18.277  21.073  11.101
51198W        W10459   9.777  28.499  11.081
51199W        W10460   3.243  27.982  10.403
51200W        W10461  27.017  13.835   0.946
51201W        W10462  43.321  20.044  10.954
51202W        W10463   8.763  36.498  12.016
51203W        W10464   8.265  34.955   2.228
51204W        W10465   2.410  23.579   2.239
51205W        W10466   2.736  43.269  14.412
51206W        W10467   3.442   5.232  14.005
51207W        W10468  24.600  25.046  10.616
51208W        W10469  19.705  39.355   3.733
51209W        W10470  42.511  37.358   0.954
51210W        W10471  25.110  43.501  13.529
51211W        W10472   2.467   0.806   2.870
51212W        W10473  34.598  10.852  13.338
51213W        W10474  30.461  21.142   3.725
51214W        W10475  32.022  37.551   3.201
51215W        W10476   2.742  13.146  11.902
51216W        W10477  12.851  30.546  12.026
51217W        W10478  42.304  13.682  12.497
51218W        W10479  20.557  43.870  13.813
51219W        W10480  18.770  24.586  13.971
51220W        W10481  23.656  27.028  13.355
51221W        W10482  24.613  24.046   0.261
51222W        W10483  25.160  13.753  12.557
51223W        W10484   0.826  13.648   0.945
51224W        W10485  30.417  10.802  13.008
51225W        W10486  37.455   2.295  12.468
51226W        W10487  42.503  12.149  13.983
51227W        W10488  27.178   6.183   9.957
51228W        W10489  24.092  20.192   0.817
51229W        W10490  11.832  27.545  12.038
51230W        W10491  23.576  14.126   2.376
51231W        W10492   5.755  13.188  13.939
51232W        W10493  42.339   7.280  11.488
51233W        W10494  18.667  19.276  14.373
51234W        W10495  10.849   3.792  14.309
51235W        W10496  36.527  37.855   2.701
51236W        W10497  18.182  10.871  11.097
51237W        W10498  41.940   4.848   2.754
51238W        W10499  39.444  29.000   1.767
51239W        W10500   0.835  40.395  14.021
51240W        W10501   3.431  25.509  10.467
51241W        W10502  26.678  13.767  11.003
51242W        W10503  31.128   1.342  12.482
51243W        W10504  36.918  43.293  13.386
51244W        W10505  35.414  27.461  14.917
51245W        W10506  44.822   6.366   0.273
51246W        W10507   6.360  14.241  10.981
51247W        W10508  18.262  38.370   0.952
51248W        W10509  21.161  34.560   0.921
51249W        W10510  38.826  29.464  14.955
51250W        W10511  20.727  23.008  12.956
51251W        W10512  36.471  10.837   1.716
51252W        W10513  17.631   3.456   3.819
51253W        W10514  33.020  17.753   0.464
51254W        W10515  25.637  19.634   3.383
51255W        W10516  44.874  18.766   4.722
51256W        W10517  39.810  36.004   1.292
51257W        W10518  44.893  44.422  14.788
51258W        W10519  25.668  30.563  13.502
51259W        W10520  21.742   8.688   3.816
51260W        W10521   3.383   8.351   3.650
51261W        W10522   5.905  43.915  14.376
51262W        W10523  38.499  30.572  12.403
51263W        W10524  25.669  28.988  12.476
51264W        W10525  39.453   8.382   4.194
51265W        W10526   1.777  39.823   2.286
51266W        W10527  17.085  18.785   2.748
51267W        W10528  30.518   5.426  12.890
51268W        W10529  42.469  23.230   2.668
51269W        W10530   3.259  21.105  12.966
51270W        W10531  30.060  19.046   2.337
51271W        W10532  13.323  10.653   1.701
51272W        W10533  20.678   6.426   1.348
51273W        W10534  40.867  27.575  10.983
51274W        W10535  15.789  33.465  10.137
51275W        W10536  39.813  10.183   0.384
51276W        W10537  19.172  36.454  10.899
51277W        W10538  15.179  15.725   2.784
51278W        W10539  33.042   1.933   0.444
51279W        W10540   0.799  37.945   2.196
51280W        W10541  17.747   4.235  11.487
51281W        W10542   2.466  37.009  13.802
51282W        W10543   0.322  13.605   0.946
51283W        W10544  41.796  41.494  14.321
51284W        W10545  10.819  10.835   3.304
51285W        W10546   7.847  21.152   3.219
51286W        W10547  14.265  44.781   2.340
51287W        W10548  30.570   2.412  12.966
51288W        W10549  30.545  21.690  11.988
51289W        W10550  28.553  31.913   2.326
51290W        W10551  27.597  37.942  11.489
51291W        W10552  44.349  18.677   0.423
51292W        W10553  32.950  28.485   4.669
51293W        W10554  16.772  10.697   0.897
51294W        W10555  21.609  27.941  14.486
51295W        W10556   3.401  23.005   0.843
51296W        W10557   8.753  29.653  12.942
51297W        W10558   3.947  36.440  11.606
51298W        W10559  15.170  41.430   2.731
51299W        W10560  24.003   8.661  13.993
51300W        W10561  38.961  30.507  14.371
51301W        W10562  17.091  14.290   1.379
51302W        W10563   7.191  42.404  14.915
51303W        W10564   9.778  24.626   1.837
51304W        W10565  39.042  24.646  11.995
51305W        W10566  26.523  34.866  13.358
51306W        W10567   9.390  31.599  13.531
51307W        W10568   9.258  32.924  14.878
51308W        W10569  30.555  31.404  14.933
51309W        W10570  10.382  28.081   3.661
51310W        W10571  20.589  16.159  11.087
51311W        W10572  35.057  15.296   2.413
51312W        W10573  44.438  18.546  13.821
51313W        W10574  14.608  40.994  12.916
51314W        W10575  43.892   4.730  12.562
51315W        W10576  43.440   1.358  10.447
51316W        W10577   2.394  39.487  11.869
51317W        W10578  10.808  35.056   1.837
51318W        W10579  36.431   4.940   4.781
51319W        W10580   7.791   6.809  14.865
51320W        W10581   7.308  40.897   0.429
51321W        W10582  12.322  14.101  12.560
51322W        W10583   6.693  37.360  12.066
51323W        W10584  36.035  30.483   4.298
51324W        W10585  33.029  14.110  10.976
51325W        W10586   6.767  10.834   2.218
51326W        W10587  25.036  26.165   1.753
51327W        W10588  29.669   2.806   4.807
51328W        W10589  23.992  44.469  11.888
51329W        W10590   4.868  12.769  10.953
51330W        W10591  21.666  15.145  12.476
51331W        W10592   6.855  26.569   1.307
51332W        W10593  35.953  15.689  10.605
51333W        W10594  29.594  40.933   4.281
51334W        W10595  12.273  25.714   1.312
51335W        W10596   4.793  32.467   1.304
51336W        W10597  10.365  17.722   2.395
51337W        W10598  13.127   4.717  12.071
51338W        W10599  27.551  41.307  10.639
51339W        W10600   9.684  44.001  13.397
51340W        W10601  31.475  42.839   0.440
51341W        W10602   5.925  13.845   1.804
51342W        W10603   3.350   7.737   4.749
51343W        W10604  26.522  41.841  11.469
51344W        W10605  21.160  44.263  11.604
51345W        W10606  28.968  19.575  11.425
51346W        W10607  30.013  20.045   2.221
51347W        W10608  16.614  28.181   2.839
51348W        W10609  21.726  28.129  12.487
51349W        W10610  18.254  24.084   4.708
51350W        W10611  25.121  24.649   0.806
51351W        W10612   2.807  38.846  14.387
51352W        W10613  23.183  41.310  14.990
51353W        W10614  25.518  10.295  13.869
51354W        W10615  39.847   2.414   3.344
51355W        W10616  15.651   5.347   1.734
51356W        W10617  31.916  29.068   1.806
51357W        W10618  28.175  44.435   2.368
51358W        W10619   4.436   1.829   4.789
51359W        W10620  16.584  11.705   2.707
51360W        W10621  41.844  15.282  10.095
51361W        W10622  20.158  37.375  13.060
51362W        W10623  43.810  19.552   1.417
51363W        W10624  30.600   8.342   2.721
51364W        W10625   3.775  38.855  14.834
51365W        W10626   5.205  41.912   0.457
51366W        W10627  43.841  10.761  11.392
51367W        W10628  44.989  37.079   4.671
51368W        W10629  25.190  34.436   1.715
51369W        W10630  27.942  33.108   0.867
51370W        W10631  17.130  28.649  14.977
51371W        W10632  25.012   3.731  10.995
51372W        W10633  19.163  11.303  13.844
51373W        W10634   1.970  27.196   1.823
51374W        W10635  36.539  18.760  13.842
51375W        W10636  20.736   4.397   2.857
51376W        W10637  13.609  17.652  12.530
51377W        W10638  22.716   5.393   1.816
51378W        W10639   1.944  29.594  13.401
51379W        W10640  44.406   4.716   5.264
51380W        W10641  36.866  30.620  13.063
51381W        W10642  28.563  17.092   0.330
51382W        W10643  34.109   7.347  12.446
51383W        W10644  41.906  18.767  10.155
51384W        W10645  13.165   9.762  11.548
51385W        W10646   2.956   3.726  13.817
51386W        W10647  36.943  18.255  14.812
51387W        W10648  24.150   9.354  11.606
51388W        W10649  44.453   1.946   0.818
51389W        W10650  17.213  23.162   3.856
51390W        W10651  15.250  32.598  14.769
51391W        W10652  40.447  19.149  14.469
51392W        W10653  36.060   3.928  12.044
51393W        W10654  42.327  28.171   5.622
51394W        W10655  16.727   5.807  13.062
51395W        W10656  18.632   4.838   4.345
51396W        W10657  19.257   3.276   3.310
51397W        W10658  43.809  34.952   3.339
51398W        W10659  11.798  30.134   3.786
51399W        W10660   1.817  19.095  11.905
51400W        W10661  40.471  42.415  13.875
51401W        W10662   4.395   4.896  14.856
51402W        W10663  28.564  39.928  14.924
51403W        W10664  14.151  17.593   1.271
51404W        W10665  21.599   9.391  13.017
51405W        W10666  30.634   8.890   3.336
51406W        W10667  24.515   3.741   4.250
51407W        W10668  21.557  17.077  12.936
51408W        W10669  27.962   0.911  14.350
51409W        W10670  26.539  20.739  11.597
51410W        W10671  16.150   9.745   2.226
51411W        W10672  44.800   1.396  10.979
51412W        W10673  21.253   3.924  13.380
51413W        W10674  30.981  33.118   2.753
51414W        W10675  11.735  38.056   2.900
51415W        W10676  41.912  11.321   1.800
51416W        W10677  16.143   4.311   0.329
51417W        W10678  34.534  29.144   1.799
51418W        W10679   7.762  14.797  11.004
51419W        W10680   1.259   2.833  14.334
51420W        W10681   1.794  25.654   4.672
51421W        W10682   7.281   7.349   2.882
51422W        W10683  18.560  44.268  10.527
51423W        W10684  12.158  14.739   2.895
51424W        W10685  44.929  24.094  10.619
51425W        W10686  25.979  35.477  11.025
51426W        W10687  30.476   6.183   3.364
51427W        W10688   7.248  14.165   1.875
51428W        W10689  13.179   7.814  12.532
51429W        W10690  38.534   6.775   0.830
51430W        W10691  41.520  44.860   4.724
51431W        W10692   0.323   5.931  13.939
51432W        W10693  40.363  29.976  13.018
51433W        W10694   4.769  29.470  14.876
51434W        W10695   4.351   3.893  10.934
51435W        W10696  41.950  43.777   2.825
51436W        W10697   6.808  35.952  11.029
51437W        W10698   4.263  11.635   0.336
51438W        W10699  19.199   1.778  13.891
51439W        W10700  30.448  32.527   4.669
51440W        W10701  35.862  15.654  13.313
51441W        W10702  16.709  27.610  13.851
51442W        W10703   6.422  12.800   5.202
51443W        W10704  22.565  26.032   0.830
51444W        W10705  19.669  24.519   0.773
51445W        W10706  25.505  29.428   2.801
51446W        W10707  18.260  16.617   4.222
51447W        W10708  28.988   2.264  12.867
51448W        W10709  11.263   3.874  11.051
51449W        W10710  37.514  42.450   1.302
51450W        W10711  13.778  36.961   4.333
51451W        W10712  30.150  25.046   4.208
51452W        W10713  25.487  15.281  10.526
51453W        W10714   4.286  13.346  12.928
51454W        W10715   7.734  28.560   4.340
51455W        W10716  42.943  36.477  10.514
51456W        W10717  20.661   6.343   1.913
51457W        W10718   7.173   9.384  14.285
51458W        W10719  40.465  13.621   1.787
51459W        W10720  44.861  21.737   1.223
51460W        W10721  16.106  15.212   2.231
51461W        W10722  44.304  26.058  11.983
51462W        W10723  35.481  25.642   1.301
51463W        W10724  40.865  33.889  12.047
51464W        W10725  26.661  14.253   1.258
51465W        W10726   5.910   1.881  12.951
51466W        W10727   1.402  12.194   3.220
51467W        W10728  29.924  40.862   3.821
51468W        W10729  13.772  37.989  11.957
51469W        W10730   4.343  15.730   0.281
51470W        W10731  23.046  18.685  10.901
51471W        W10732  28.978  13.204  11.039
51472W        W10733  31.108   9.279  10.539
51473W        W10734  21.715  10.202  13.327
51474W        W10735  30.524   3.876   2.894
51475W        W10736   4.787  34.970   1.346
51476W        W10737   4.413  12.731  11.567
51477W        W10738  26.616   1.775  14.002
51478W        W10739  18.653  42.315   0.875
51479W        W10740  19.631  26.548   3.384
51480W        W10741  35.490  21.162   3.211
51481W        W10742   1.401  43.968  14.777
51482W        W10743  33.435  30.488   3.182
51483W        W10744  26.540  44.877  12.843
51484W        W10745  22.505  42.826  13.808
51485W        W10746   2.875   0.441  10.419
51486W        W10747  26.688  13.219  12.355
51487W        W10748  32.436  23.000   1.829
51488W        W10749   5.851  26.956  12.886
51489W        W10750  18.085   9.867   0.336
51490W        W10751   6.858   3.935   5.174
51491W        W10752  42.305  14.783   4.597
51492W        W10753  20.201   0.904   4.711
51493W        W10754  12.239  23.625  11.035
51494W        W10755  12.667  44.781  14.826
51495W        W10756  10.292  44.938  12.401
51496W        W10757  18.555  38.940  14.445
51497W        W10758   6.876  34.371  10.586
51498W        W10759  31.578  40.957  13.943
51499W        W10760   1.311  14.767  10.537
51500W        W10761   6.393  16.142   4.710
51501W        W10762  25.104  32.996   2.340
51502W        W10763  40.908  35.391  13.045
51503W        W10764  28.976   9.742   1.906
51504W        W10765  14.605   4.937  11.056
51505W        W10766  14.268  24.982  10.573
51506W        W10767  35.457  18.586   0.737
51507W        W10768   7.299  14.197  12.863
51508W        W10769  28.142   8.345   1.249
51509W        W10770  22.095  39.483   0.371
51510W        W10771  38.864  41.820  11.494
51511W        W10772  38.894   9.213   1.344
51512W        W10773  26.588  42.976   3.708
51513W        W10774  33.977  17.103   1.787
51514W        W10775  34.893  36.908   0.304
51515W        W10776   7.790  16.158   1.709
51516W        W10777  38.906  10.805   3.229
51517W        W10778  31.558  25.098   3.299
51518W        W10779  42.402   1.896   1.384
51519W        W10780  32.592  35.935   2.693
51520W        W10781   8.850  40.004   3.348
51521W        W10782  38.474  18.757   4.626
51522W        W10783  34.455   6.787  11.523
51523W        W10784   1.304  33.558  13.934
51524W        W10785  12.816   0.379   2.346
51525W        W10786  35.922  15.198   0.771
51526W        W10787   4.232  18.741  11.117
51527W        W10788   7.412  32.432   4.735
51528W        W10789  42.805  26.545   1.862
51529W        W10790  38.365  28.041  11.378
51530W        W10791  35.021   6.818  11.878
51531W        W10792  27.680  43.290  11.944
51532W        W10793  19.046  24.145  12.401
51533W        W10794  21.565  32.954   2.771
51534W        W10795  21.691   1.335   2.736
51535W        W10796  35.952  17.677   4.312
51536W        W10797   7.722  13.792   4.190
51537W        W10798  12.184   7.177  12.428
51538W        W10799  32.012  15.295   2.773
51539W        W10800  24.017  17.276  12.474
51540W        W10801  29.054  20.693   0.927
51541W        W10802   4.774  13.225  14.975
51542W        W10803  18.734  18.623   2.362
51543W        W10804  14.607  30.153   4.224
51544W        W10805   0.942  11.634   1.411
51545W        W10806  22.028  20.185  12.542
51546W        W10807  10.736  37.901   1.282
51547W        W10808  28.648  34.972   3.227
51548W        W10809  37.956  29.519   2.277
51549W        W10810  30.035   6.744   0.264
51550W        W10811  12.642  38.570  10.424
51551W        W10812  21.572  27.469  14.853
51552W        W10813  42.425  25.134  11.064
51553W        W10814  15.110   8.750  12.080
51554W        W10815   3.379  30.494   0.792
51555W        W10816  29.073  13.205  14.985
51556W        W10817  23.011   4.824   4.194
51557W        W10818  31.510  30.908   0.370
51558W        W10819   1.741  29.555   1.445
51559W        W10820  14.763  16.757   3.161
51560W        W10821  11.188  26.571  14.357
51561W        W10822   5.932   8.282   1.291
51562W        W10823  42.513  44.322   0.860
51563W        W10824  41.328  28.954   3.171
51564W        W10825   3.323  27.192  11.458
51565W        W10826   1.781  29.076  10.928
51566W        W10827   3.368  34.524  11.382
51567W        W10828  38.952  44.316   1.766
51568W        W10829  15.648  34.937  14.306
51569W        W10830  28.565  12.626   0.251
51570W        W10831  19.236  32.919   0.300
51571W        W10832  18.647  40.014  10.547
51572W        W10833  21.666   2.752   4.747
51573W        W10834  11.852  38.039   0.925
51574W        W10835  26.535  17.301   0.923
51575W        W10836  15.314  43.400   4.713
51576W        W10837  32.452  18.064  12.567
51577W        W10838  25.562   8.311   4.153
51578W        W10839  23.659  42.840   3.852
51579W        W10840  39.395  34.947  13.498
51580W        W10841  39.501  33.508   3.256
51581W        W10842  25.681  20.039   4.696
51582W        W10843  41.955  39.957  11.462
51583W        W10844  16.711  19.067  10.997
51584W        W10845  12.270   8.291  12.524
51585W        W10846  32.502  39.432  11.440
51586W        W10847  20.738  38.390   4.159
51587W        W10848  43.414  18.636  14.319
51588W        W10849  10.259  41.913  11.860
51589W        W10850  18.159   0.755   0.430
51590W        W10851  22.742  34.906  12.483
51591W        W10852  21.694   0.255   2.248
51592W        W10853   5.713  16.087   1.856
51593W        W10854   3.266   8.164   4.836
51594W        W10855  28.046  25.120  13.499
51595W        W10856  17.222  42.478   4.268
51596W        W10857   6.870   3.866  14.467
51597W        W10858  24.482   9.818   2.697
51598W        W10859   8.286  17.202   2.882
51599W        W10860  21.109   7.830   3.724
51600W        W10861   9.362  39.853  11.977
51601W        W10862  33.132  24.172  12.560
51602W        W10863  14.255   3.762  13.889
51603W        W10864  43.319   1.762   4.152
51604W        W10865   3.312  28.645  11.600
51605W        W10866  43.875  28.632  11.915
51606W        W10867  35.048  35.936  14.347
51607W        W10868   3.293  29.575  11.928
51608W        W10869  11.671  17.250   2.402
51609W        W10870  32.562  29.648   3.300
51610W        W10871  22.132  12.667   2.285
51611W        W10872  31.907  25.563   2.820
51612W        W10873  17.672  31.920   0.475
51613W        W10874  35.861  28.031  14.887
51614W        W10875  42.294  39.018   0.365
51615W        W10876  31.945  24.503  10.535
51616W        W10877  37.920   3.340   0.880
51617W        W10878  44.848  21.224   0.291
51618W        W10879  26.067   0.752  11.877
51619W        W10880  24.061  31.080  12.515
51620W        W10881  26.119  17.129  11.479
51621W        W10882  33.116  32.070   2.360
51622W        W10883  25.583  24.589   4.142
51623W        W10884  17.204   2.947  13.947
51624W        W10885   8.856  23.114  11.501
51625W        W10886  33.550  37.580  12.077
51626W        W10887  18.172  11.273  11.901
51627W        W10888  25.009  43.770  13.807
51628W        W10889  28.565  26.199  14.865
51629W        W10890  24.644  10.192  14.921
51630W        W10891  19.104  17.601   9.489
51631W        W10892   0.804   5.930   4.313
51632W        W10893  26.091  22.600  14.950
51633W        W10894  10.786  34.552   0.967
51634W        W10895   3.852  32.433   4.663
51635W        W10896  42.511  21.570  14.383
51636W        W10897   7.268   0.330   1.841
51637W        W10898  16.784  43.948  11.611
51638W        W10899  42.509  11.186  12.557
51639W        W10900   8.289  22.723   3.151
51640W        W10901   0.274  39.513   1.707
51641W        W10902  34.521  14.713   0.363
51642W        W10903   4.925  34.942   0.301
51643W        W10904  21.244  17.249   2.770
51644W        W10905   3.805  31.084   0.372
51645W        W10906   4.348  37.452  14.905
51646W        W10907   4.254  36.437  10.634
51647W        W10908  41.320  35.088  13.015
51648W        W10909  42.953  11.151   3.640
51649W        W10910  13.219  42.438  13.513
51650W        W10911  12.321  16.132  12.494
51651W        W10912  27.988  29.539  14.778
51652W        W10913  26.483  14.268  14.949
51653W        W10914   9.240   2.810   0.404
51654W        W10915  18.590  38.020   0.780
51655W        W10916  22.062   2.721  12.494
51656W        W10917  17.240  31.566  10.981
51657W        W10918  21.617  41.986   0.922
51658W        W10919   9.188  32.994   0.254
51659W        W10920  42.913  41.022   0.750
51660W        W10921  21.663   7.325  10.943
51661W        W10922  18.579  21.128   0.262
51662W        W10923  29.484  15.310   0.782
51663W        W10924  18.119  37.969  12.347
51664W        W10925   0.775   5.858   3.290
51665W        W10926  30.018  36.563   0.811
51666W        W10927  40.316  21.141   1.720
51667W        W10928   8.898  24.208  11.042
51668W        W10929  13.841   3.752  12.579
51669W        W10930  25.057  33.381   3.855
51670W        W10931  21.724  36.362  12.933
51671W        W10932  25.201  17.667   3.849
51672W        W10933  24.075   6.235  12.940
51673W        W10934   4.370  40.346   0.328
51674W        W10935   0.281  37.450  12.369
51675W        W10936  16.713  17.144   3.859
51676W        W10937  12.356  10.256   2.695
51677W        W10938   1.866   3.939  13.527
51678W        W10939  24.611  16.574   0.341
51679W        W10940  18.590   2.430   3.728
51680W        W10941   3.953  23.152  13.846
51681W        W10942  11.192   7.740   4.836
51682W        W10943  28.081  14.296   1.708
51683W        W10944  25.704  43.395  13.052
51684W        W10945  33.920  13.313  13.009
51685W        W10946  19.601  41.865  11.583
51686W        W10947   2.443   6.814   0.913
51687W        W10948  42.367  44.800  12.978
51688W        W10949  11.629   5.353   0.912
51689W        W10950  44.351  28.498  14.832
51690W        W10951  19.699   5.420   5.241
51691W        W10952   0.939  38.525   2.772
51692W        W10953  36.488   8.268   9.462
51693W        W10954  37.404   9.646  11.473
51694W        W10955  13.240  16.126   3.718
51695W        W10956  12.729  16.647  10.991
51696W        W10957  25.131  44.775  12.546
51697W        W10958   5.711  26.141   3.303
51698W        W10959  33.951  31.952  11.553
51699W        W10960  16.723   2.769  12.971
51700W        W10961  37.028   6.307   1.801
51701W        W10962  42.459   2.238  12.891
51702W        W10963  35.926  24.211   3.354
51703W        W10964  38.961  24.539   1.879
51704W        W10965  28.525  25.068   3.706
51705W        W10966   9.682  36.972  14.432
51706W        W10967  17.150  25.652   4.336
51707W        W10968  16.595  38.825  14.428
51708W        W10969   5.697  28.490  11.517
51709W        W10970  26.145  44.340  14.996
51710W        W10971  11.371  19.089  10.461
51711W        W10972  32.567  18.677   0.467
51712W        W10973  19.716  23.083   4.670
51713W        W10974  37.940  26.152   1.427
51714W        W10975   0.905  27.512  13.978
51715W        W10976  29.628  30.499   1.341
51716W        W10977   3.828  31.051   2.779
51717W        W10978  24.209  19.259  14.927
51718W        W10979  34.555  21.197  11.510
51719W        W10980   3.349  33.891   1.809
51720W        W10981   5.844  14.280  10.571
51721W        W10982  11.200  31.420   0.844
51722W        W10983  19.185  11.816   3.337
51723W        W10984   8.704  18.186   4.791
51724W        W10985  39.408  41.397   2.181
51725W        W10986  37.551  27.501  12.033
51726W        W10987  36.854  12.662   3.348
51727W        W10988  37.876  15.110  12.033
51728W        W10989  21.099  38.456   1.334
51729W        W10990  20.764   5.342  11.393
51730W        W10991  23.202  29.553  11.953
51731W        W10992  12.127  44.846  12.972
51732W        W10993  25.568   8.838  11.425
51733W        W10994  38.459  34.908  13.040
51734W        W10995   0.331  43.281  13.988
51735W        W10996  27.007  14.297  13.386
51736W        W10997  35.003  16.169   0.786
51737W        W10998  39.996  41.888  11.604
51738W        W10999  18.696  26.526  10.553
51739W        W11000   0.864  28.552   2.861
51740W        W11001  26.189   7.668  10.452
51741W        W11002   3.383  19.117  11.382
51742W        W11003   2.356  18.616   1.777
51743W        W11004  28.014   4.250   4.245
51744W        W11005  36.925  32.090  13.402
51745W        W11006  25.547  35.379  10.577
51746W        W11007  41.334  44.010   1.790
51747W        W11008  37.421  19.764  11.580
51748W        W11009  18.579  41.411  12.032
51749W        W11010  41.391  43.282  14.279
51750W        W11011  11.176  11.682   1.265
51751W        W11012  35.484  30.539   4.699
51752W        W11013  10.212  32.900  12.969
51753W        W11014  24.677  25.001  10.961
51754W        W11015  29.604   1.879  13.486
51755W        W11016  32.020  33.589   0.897
51756W        W11017  39.326  34.568  13.404
51757W        W11018  24.719  25.021   0.732
51758W        W11019  22.030  12.843  13.980
51759W        W11020  19.244  21.099  13.944
51760W        W11021  27.178  33.964  13.416
51761W        W11022  13.283  11.689   2.799
51762W        W11023  20.563  12.210  12.988
51763W        W11024   6.193  33.968  14.401
51764W        W11025  40.530  27.101   2.324
51765W        W11026  41.490  37.840   5.303
51766W        W11027  36.079  39.444   1.882
51767W        W11028  17.072  42.371  12.081
51768W        W11029  43.958  39.403  10.585
51769W        W11030  18.110   7.267   1.282
51770W        W11031  38.458  37.844   9.464
51771W        W11032  12.788  28.558   4.305
51772W        W11033  39.343   1.883   3.803
51773W        W11034  17.777  32.482  12.997
51774W        W11035  42.360  24.088  13.535
51775W        W11036  39.328   8.897   2.218
51776W        W11037  19.715  25.638   3.349
51777W        W11038  28.166  44.327   2.872
51778W        W11039  25.112  31.636  13.390
51779W        W11040  22.149  42.027  13.963
51780W        W11041  21.722  25.149   4.260
51781W        W11042  22.243  16.610   4.829
51782W        W11043  21.135  34.062   2.769
51783W        W11044  12.342   5.868   1.754
51784W        W11045   0.876  30.617  10.528
51785W        W11046  38.353  29.106   2.378
51786W        W11047   2.723  32.986   0.917
51787W        W11048  28.035  43.286  10.482
51788W        W11049   0.456  41.483  14.477
51789W        W11050  17.717  27.688  13.400
51790W        W11051   0.982  14.725  11.047
51791W        W11052   9.888  44.450  13.461
51792W        W11053  11.845  28.051  12.926
51793W        W11054  28.929   7.800  10.934
51794W        W11055  25.053  25.177  13.885
51795W        W11056  20.189  33.495   3.182
51796W        W11057  22.634   4.780  14.441
51797W        W11058  40.881   0.971  11.544
51798W        W11059  27.516  30.551  13.862
51799W        W11060   8.217  18.151  10.406
51800W        W11061  14.191  19.729  14.480
51801W        W11062  29.080  15.714  13.390
51802W        W11063   1.924  43.981   4.258
51803W        W11064   0.966  27.163   3.246
51804W        W11065   3.378  27.157   0.343
51805W        W11066  34.066  35.060   9.962
51806W        W11067   9.775  32.111   2.198
51807W        W11068  27.082   5.303  12.420
51808W        W11069  18.752   2.753   1.379
51809W        W11070   1.800  34.580   2.767
51810W        W11071  33.565  36.847   0.929
51811W        W11072  15.137  38.493  13.447
51812W        W11073   0.788  41.945   0.449
51813W        W11074  26.010  40.844  11.061
51814W        W11075  24.091  18.784  11.076
51815W        W11076  15.821   1.287  11.559
51816W        W11077  44.842  11.344  13.486
51817W        W11078   3.216  16.314   1.365
51818W        W11079  20.124  32.117  10.495
51819W        W11080  24.702  33.074   1.412
51820W        W11081  15.578  28.654  11.502
51821W        W11082   6.906  39.002  11.489
51822W        W11083  36.509  24.716   2.306
51823W        W11084  11.236  24.074  10.941
51824W        W11085   1.360  37.987  14.870
51825W        W11086   9.865  11.205  10.584
51826W        W11087   7.198  29.574  11.120
51827W        W11088  23.138  18.610   9.949
51828W        W11089  41.517  29.458   4.772
51829W        W11090  43.370  12.271  13.879
51830W        W11091  21.026  44.795  12.496
51831W        W11092   6.337  28.982   4.283
51832W        W11093  27.563  43.943   4.251
51833W        W11094  22.061  13.326   3.289
51834W        W11095   4.883  13.821   2.418
51835W        W11096  24.676   4.413  14.880
51836W        W11097  29.061  19.656  14.854
51837W        W11098  23.636  30.585  10.440
51838W        W11099  31.525  19.746  14.800
51839W        W11100   4.783  18.582   0.341
51840W        W11101  30.523   7.693   3.852
51841W        W11102   1.337  10.207   0.956
51842W        W11103  21.671   4.838   0.846
51843W        W11104  15.657  20.237  13.898
51844W        W11105  41.956  11.354   4.128
51845W        W11106  30.114  26.613  11.529
51846W        W11107  18.150  41.308  11.877
51847W        W11108  22.713  27.537   4.688
51848W        W11109  24.117  36.099   5.186
51849W        W11110  33.079  42.393   3.263
51850W        W11111  29.056  13.217  12.519
51851W        W11112  37.359   0.839   1.818
51852W        W11113  43.471  28.651   0.312
51853W        W11114  40.325  41.944   4.783
51854W        W11115  24.585  28.436   1.238
51855W        W11116  12.133  35.395   1.875
51856W        W11117  42.903   4.399   4.212
51857W        W11118  33.504  44.000  10.443
51858W        W11119  34.578   1.781  14.010
51859W        W11120  29.592  23.048   4.771
51860W        W11121  14.595  28.171  14.865
51861W        W11122   7.294  21.133   0.347
51862W        W11123   1.800  19.098  14.398
51863W        W11124  30.543  31.981   2.749
51864W        W11125  35.895   7.267   5.108
51865W        W11126  34.054  35.509  10.894
51866W        W11127   3.334  39.955  13.538
51867W        W11128   6.384  11.817  11.896
51868W        W11129  25.082  33.457   1.320
51869W        W11130  27.529  36.009   1.712
51870W        W11131   3.758   0.797  11.418
51871W        W11132  30.644  13.705  12.025
51872W        W11133  19.149  43.786   0.459
51873W        W11134  27.098   2.403   3.840
51874W        W11135  33.051  12.675   3.763
51875W        W11136   2.253  43.890   1.827
51876W        W11137  19.215  40.322   1.734
51877W        W11138  19.066  12.344   1.269
51878W        W11139   4.330   1.246  14.856
51879W        W11140  24.599   4.765   2.701
51880W        W11141   9.234  40.436   2.787
51881W        W11142  21.240  39.335  11.500
51882W        W11143  42.799  14.811   4.820
51883W        W11144  41.484  25.216   1.810
51884W        W11145  40.045  39.837  11.438
51885W        W11146  42.016  12.825  11.490
51886W        W11147  22.105   1.917  10.971
51887W        W11148   9.731  27.182   2.787
51888W        W11149  18.193  31.119  11.532
51889W        W11150   1.364   3.220  13.403
51890W        W11151   8.858  10.768  12.502
51891W        W11152  31.920  24.484  10.960
51892W        W11153  34.023   7.883   1.706
51893W        W11154  18.160  37.544   2.376
51894W        W11155  32.011   6.915   2.337
51895W        W11156  42.824  24.641  11.104
51896W        W11157   3.373  13.305   3.336
51897W        W11158  11.316  30.539   0.831
51898W        W11159  42.911   5.876   0.941
51899W        W11160  19.142  11.215   0.282
51900W        W11161  43.893  13.700   0.374
51901W        W11162  27.044  40.367   0.407
51902W        W11163  20.256  39.517   3.852
51903W        W11164  19.766  31.411  14.836
51904W        W11165  41.329  38.412  12.090
51905W        W11166  38.337   6.409  12.025
51906W        W11167  20.695  28.626  14.506
51907W        W11168  37.455  14.724   1.366
51908W        W11169  22.522  26.159   3.656
51909W        W11170  36.895  35.967  13.048
51910W        W11171  29.921  42.519   3.160
51911W        W11172  32.530   9.655  12.830
51912W        W11173  15.601  24.511  11.506
51913W        W11174  25.190  27.991  11.572
51914W        W11175   3.257   8.759   3.184
51915W        W11176  28.081  21.200   2.812
51916W        W11177  12.664  12.815   4.706
51917W        W11178  35.047  24.994   2.737
51918W        W11179  23.632  41.837  14.445
51919W        W11180  21.090  18.143  13.856
51920W        W11181  14.748  14.794   0.373
51921W        W11182   9.652  23.607  14.297
51922W        W11183   5.233   4.250   1.811
51923W        W11184  14.106  10.805  11.541
51924W        W11185  18.217  24.164  14.362
51925W        W11186  11.866  29.630  11.446
51926W        W11187  40.987  25.657  13.478
51927W        W11188  17.128  40.813   4.829
51928W        W11189  12.708  14.641   2.337
51929W        W11190  10.261  17.589   1.833
51930W        W11191  40.881  17.157  14.862
51931W        W11192  41.870  31.910  10.900
51932W        W11193  41.421  17.157   0.462
51933W        W11194  30.453  28.945  10.146
51934W        W11195   5.209  14.258  14.937
51935W        W11196   9.309  35.378   0.280
51936W        W11197  33.103   7.293   0.942
51937W        W11198  12.677   5.242   1.282
51938W        W11199  39.046  32.123   1.849
51939W        W11200  44.307  34.536   1.277
51940W        W11201  16.755  12.764   3.824
51941W        W11202  42.308   0.265  12.841
51942W        W11203  16.567   4.392   1.913
51943W        W11204  14.795  26.696   0.944
51944W        W11205  31.042  31.995  12.358
51945W        W11206  12.715  16.317   1.373
51946W        W11207  14.216  20.129  11.531
51947W        W11208  17.747  43.900   1.927
51948W        W11209  15.794  34.450  10.090
51949W        W11210  44.002   2.963   1.927
51950W        W11211  22.635  19.105  11.392
51951W        W11212  13.835  10.340  12.412
51952W        W11213  17.769  44.888  12.447
51953W        W11214  20.757  22.667  13.042
51954W        W11215  22.624  24.132   3.840
51955W        W11216  19.152   8.897   3.748
51956W        W11217   1.463  43.374   3.258
51957W        W11218  36.525  22.606   0.387
51958W        W11219  36.534   4.901   3.785
51959W        W11220  29.513   4.930  10.099
51960W        W11221   9.821  36.434  14.293
51961W        W11222  22.573   7.838   3.826
51962W        W11223  40.367  33.047  10.895
51963W        W11224   1.873  39.839  12.490
51964W        W11225   6.829  41.519   2.397
51965W        W11226   5.814   2.891  14.324
51966W        W11227  24.123  42.794  11.996
51967W        W11228   9.736  34.990  14.885
51968W        W11229   2.449   3.429   4.161
51969W        W11230  34.581   7.362   0.925
51970W        W11231  21.079  44.441  11.884
51971W        W11232  34.118  43.848   1.862
51972W        W11233  32.087  41.357  10.611
51973W        W11234  30.435   6.686   4.320
51974W        W11235  39.368   7.717  12.361
51975W        W11236  42.407  37.997   5.104
51976W        W11237  35.421  23.692  12.907
51977W        W11238  20.730  35.488   1.877
51978W        W11239   0.938  23.059   0.812
51979W        W11240  41.436  39.061  10.938
51980W        W11241  39.046  16.290   0.835
51981W        W11242  43.841  36.548   2.212
51982W        W11243   4.398   3.880  13.402
51983W        W11244  13.329  14.670  11.397
51984W        W11245  30.086  40.491   4.618
51985W        W11246  25.027   4.940  11.988
51986W        W11247  29.090   5.387  13.031
51987W        W11248  10.734  30.487  13.374
51988W        W11249  10.730  25.039  12.347
51989W        W11250  31.436   8.696  13.525
51990W        W11251  35.001  12.727   1.424
51991W        W11252  27.980  33.097  13.390
51992W        W11253  43.305  23.054  10.434
51993W        W11254  33.457  22.603  11.944
51994W        W11255  32.128  32.938   1.305
51995W        W11256   9.776  43.835   3.360
51996W        W11257  23.107  17.300  11.915
51997W        W11258  43.951   4.813   0.449
51998W        W11259  30.083  30.446  13.038
51999W        W11260  44.495  15.179   3.353
52000W        W11261  15.744   1.944  10.050
52001W        W11262  32.445  23.589   2.335
52002W        W11263  18.095  19.199  11.481
52003W        W11264   7.673  25.091  12.403
52004W        W11265  15.099  22.696   0.429
52005W        W11266  24.651  26.590  13.426
52006W        W11267  26.126  34.865   4.669
52007W        W11268  28.021  11.213  12.901
52008W        W11269   2.390  33.395  11.567
52009W        W11270  35.590  18.695  13.349
52010W        W11271  15.319   2.465  11.857
52011W        W11272  22.142  29.474  12.844
52012W        W11273  23.130  30.144   4.291
52013W        W11274  18.248   8.828   3.784
52014W        W11275  33.983  30.487  13.468
52015W        W11276  43.495  30.924  11.092
52016W        W11277   1.750  30.640  14.867
52017W        W11278  38.890  16.634  14.816
52018W        W11279  14.751  41.824  13.931
52019W        W11280  23.988  21.047   4.638
52020W        W11281  11.726  36.512   1.760
52021W        W11282  15.238  22.206   1.318
52022W        W11283   9.300  20.556  11.421
52023W        W11284  19.106  28.964  12.356
52024W        W11285  43.357  11.729   4.720
52025W        W11286  19.636  17.678   4.320
52026W        W11287   9.660  11.786  13.883
52027W        W11288  41.009   3.890   4.656
52028W        W11289  29.551  42.887  13.426
52029W        W11290  40.808   7.753  14.408
52030W        W11291  16.156   3.861  10.922
52031W        W11292  43.991  22.702   0.786
52032W        W11293  23.018  11.268  11.458
52033W        W11294  11.805  20.080  11.086
52034W        W11295  18.079  34.463  14.451
52035W        W11296  17.737  35.073   2.698
52036W        W11297   1.422  33.593   3.853
52037W        W11298  31.504  28.478  11.103
52038W        W11299  43.996  36.554  12.518
52039W        W11300  20.626  43.422   1.698
52040W        W11301  40.306  39.977   4.600
52041W        W11302  33.902  27.124   0.760
52042W        W11303  36.510  42.974   4.802
52043W        W11304  14.623  39.434   0.767
52044W        W11305  14.255  26.090   2.308
52045W        W11306   8.780  29.950   3.790
52046W        W11307  43.475   7.713   4.132
52047W        W11308  18.290  18.238   4.639
52048W        W11309  38.022  39.479  13.390
52049W        W11310  30.908   1.769  13.018
52050W        W11311  14.099  26.486   2.896
52051W        W11312  30.038  41.486   3.298
52052W        W11313   8.788   2.904   1.716
52053W        W11314  41.027  11.370  10.459
52054W        W11315  30.441  24.638  14.390
52055W        W11316  28.167   0.319   3.148
52056W        W11317  31.045  25.480   4.288
52057W        W11318  13.183  38.895   4.182
52058W        W11319  30.556  10.743   3.312
52059W        W11320  37.016   4.797  13.389
52060W        W11321  44.809  17.096  14.956
52061W        W11322   9.160  19.622   4.785
52062W        W11323  35.867   0.424   0.853
52063W        W11324  42.032  20.695   2.378
52064W        W11325  40.889  37.406   1.311
52065W        W11326  20.663  19.704  11.514
52066W        W11327   0.783  43.282  12.971
52067W        W11328  44.379  32.072   2.241
52068W        W11329  14.227  17.142   2.671
52069W        W11330  39.422  38.860  11.044
52070W        W11331  38.417  16.664   9.555
52071W        W11332  16.794  38.448  13.395
52072W        W11333  26.621  23.130  14.965
52073W        W11334   2.808  21.098   4.661
52074W        W11335  35.378  24.095   1.848
52075W        W11336  11.182  28.471   3.370
52076W        W11337   5.362   3.886  13.915
52077W        W11338   8.741   7.288  12.462
52078W        W11339  43.764   9.237   3.185
52079W        W11340   8.885  25.142  12.545
52080W        W11341  29.432  40.329   0.790
52081W        W11342  18.545   9.169   4.643
52082W        W11343  22.187  35.443  10.529
52083W        W11344  30.056  25.065   2.232
52084W        W11345  43.325  25.474   0.275
52085W        W11346  44.830  35.392  10.552
52086W        W11347  43.770  13.769  11.404
52087W        W11348  16.573  40.444  12.382
52088W        W11349  20.680  18.293   3.165
52089W        W11350  43.965  15.753   3.868
52090W        W11351  42.386  25.482  14.899
52091W        W11352   0.268   2.812   1.214
52092W        W11353  31.936  15.776  12.530
52093W        W11354  15.255   7.772   1.851
52094W        W11355  22.187  10.852  12.007
52095W        W11356  20.271  26.074   1.341
52096W        W11357  36.390   6.794   3.325
52097W        W11358  32.905  40.331  13.372
52098W        W11359   9.227  33.090   4.168
52099W        W11360  11.173  26.096  11.089
52100W        W11361  14.626  10.255  11.076
52101W        W11362  21.124   8.259   1.890
52102W        W11363  11.153   0.348   2.829
52103W        W11364  20.689  43.873   2.278
52104W        W11365  25.183  28.493  12.021
52105W        W11366  19.684  43.899  13.987
52106W        W11367   7.884   8.244   0.377
52107W        W11368  27.114  36.376  13.833
52108W        W11369  12.181   7.873   2.186
52109W        W11370  23.504  29.088   0.935
52110W        W11371  19.231  21.130   1.418
52111W        W11372  12.715   0.966   3.773
52112W        W11373  35.543  23.613   0.297
52113W        W11374  16.247  19.269  10.104
52114W        W11375   8.669   5.207   0.739
52115W        W11376   4.712   9.799   5.157
52116W        W11377  43.841   0.423   4.183
52117W        W11378   1.967  20.227  12.958
52118W        W11379   4.862  31.529   0.453
52119W        W11380  32.098  17.752   3.193
52120W        W11381  13.827   4.728   1.747
52121W        W11382  38.071  42.015   4.812
52122W        W11383  27.645   6.782   3.346
52123W        W11384  24.717   7.400   4.308
52124W        W11385  24.183  40.925  12.357
52125W        W11386  19.137  27.078   5.572
52126W        W11387  41.803  28.559   5.782
52127W        W11388   7.848   9.760  10.521
52128W        W11389  17.714  23.242  10.621
52129W        W11390  12.643  11.181  12.556
52130W        W11391  26.107  34.097  14.909
52131W        W11392   8.843  44.480   1.446
52132W        W11393   2.249  24.593   4.769
52133W        W11394   1.441   2.943  11.465
52134W        W11395  27.049  17.759   4.628
52135W        W11396   3.743  21.060  11.469
52136W        W11397  11.325  34.586  12.070
52137W        W11398  42.876  26.152  14.404
52138W        W11399   1.248  28.180   2.707
52139W        W11400   4.438  26.692  10.429
52140W        W11401  23.587  29.145  10.085
52141W        W11402  43.946   9.184  12.079
52142W        W11403   2.759  37.039  11.121
52143W        W11404  10.289  38.348   0.421
52144W        W11405  36.910  17.232   2.341
52145W        W11406  26.669  44.492   2.267
52146W        W11407  31.444  22.016   1.712
52147W        W11408  41.800   1.483  12.086
52148W        W11409  22.046  22.540  12.908
52149W        W11410  16.573  44.447   2.878
52150W        W11411  30.059  43.490   0.467
52151W        W11412  13.108  40.032  10.535
52152W        W11413  24.067   6.332   4.695
52153W        W11414   8.834  15.712  14.493
52154W        W11415  18.548  20.536   5.183
52155W        W11416  37.012  35.929   0.958
52156W        W11417  15.734  35.041   0.323
52157W        W11418  40.020  30.553   0.935
52158W        W11419   6.358  27.467   4.752
52159W        W11420  33.999  20.589   2.859
52160W        W11421   6.260  38.074   1.275
52161W        W11422   8.883  44.970  12.019
52162W        W11423  10.738   3.402   3.631
52163W        W11424  26.594   0.454   0.430
52164W        W11425  36.495  42.848  14.763
52165W        W11426  13.783  23.695  12.052
52166W        W11427  40.960  22.670   4.235
52167W        W11428  41.992  14.696  12.398
52168W        W11429  33.602  12.624  12.570
52169W        W11430  28.583   6.715   2.288
52170W        W11431  28.174  18.730   5.173
52171W        W11432  37.904  30.072   1.849
52172W        W11433   1.906   5.831   2.771
52173W        W11434  27.514  43.401  12.920
52174W        W11435  23.152  13.310   4.345
52175W        W11436  31.952  22.061   4.178
52176W        W11437  25.611  14.210   0.393
52177W        W11438  12.670  29.432   5.262
52178W        W11439   4.388  36.511   1.788
52179W        W11440   8.221  18.778  11.895
52180W        W11441  17.739  31.415  10.573
52181W        W11442   3.335  33.010   0.402
52182W        W11443  20.654  32.140  14.503
52183W        W11444  21.088  26.586   1.428
52184W        W11445  25.118  31.463   1.705
52185W        W11446  11.358  36.902   4.702
52186W        W11447  43.405  13.759   2.717
52187W        W11448  39.553  32.915   2.233
52188W        W11449  38.396  28.157  12.967
52189W        W11450  36.990  31.021  12.514
52190W        W11451  38.825   1.337   1.369
52191W        W11452   2.403  43.353   3.335
52192W        W11453  31.017  41.512  11.862
52193W        W11454  38.387  11.167  13.823
52194W        W11455  43.943  14.145  14.806
52195W        W11456  22.133   2.813  10.456
52196W        W11457  29.122  43.916   1.751
52197W        W11458  43.906   1.460  12.389
52198W        W11459  40.419   2.896  13.814
52199W        W11460   2.238  30.113   3.670
52200W        W11461  38.835  36.438   4.294
52201W        W11462  18.241   0.282  14.847
52202W        W11463  13.629  27.116  14.973
52203W        W11464  40.902  14.273   9.466
52204W        W11465  22.713   8.721   3.797
52205W        W11466   9.733  13.743  12.359
52206W        W11467  10.288   4.716  13.841
52207W        W11468   0.482  40.487   0.473
52208W        W11469  36.409  38.499   1.262
52209W        W11470  43.410  14.164  12.471
52210W        W11471  33.508  41.819   2.345
52211W        W11472  18.592   9.164  11.438
52212W        W11473  42.297  22.172   4.670
52213W        W11474   2.344  23.622  10.907
52214W        W11475  24.489  22.746  10.476
52215W        W11476  30.154   0.319   0.302
52216W        W11477  37.346   1.463  10.439
52217W        W11478  21.154  26.038  11.417
52218W        W11479  31.116  17.141  10.030
52219W        W11480  12.814  28.037  14.982
52220W        W11481   5.431   7.766  11.113
52221W        W11482  43.468  39.017   2.369
52222W        W11483  21.017  15.670  10.037
52223W        W11484  39.475  44.814  14.940
52224W        W11485  11.211  25.662  11.118
52225W        W11486   5.279  14.150   0.841
52226W        W11487  10.836  44.806  14.346
52227W        W11488   2.314  26.539   0.387
52228W        W11489  32.927  36.503  10.519
52229W        W11490  41.357  36.349   3.361
52230W        W11491   4.716   5.431  10.567
52231W        W11492  28.499  25.199   2.849
52232W        W11493  30.953  36.886   1.291
52233W        W11494  17.598  21.622   4.344
52234W        W11495  31.409  29.037   2.388
52235W        W11496  15.205  28.536   3.338
52236W        W11497  32.629  15.321   3.796
52237W        W11498  33.895  30.502   2.361
52238W        W11499   2.359  26.198   0.908
52239W        W11500  37.938  30.072   2.402
52240W        W11501  37.845  27.570   4.299
52241W        W11502  21.756  41.328  12.895
52242W        W11503  36.365  28.168  13.966
52243W        W11504  33.923  19.167  10.597
52244W        W11505   8.832  33.886   3.197
52245W        W11506  37.534  38.931   2.181
52246W        W11507  42.867  25.160  11.612
52247W        W11508  10.838  14.248   0.341
52248W        W11509  39.471  19.279  14.872
52249W        W11510   2.862  34.034  11.100
52250W        W11511  41.916   6.274  12.982
52251W        W11512  40.881  30.559  10.947
52252W        W11513   7.377   9.152   3.871
52253W        W11514  30.450  25.689  13.801
52254W        W11515  31.899  42.380   1.806
52255W        W11516  34.995  23.730  12.048
52256W        W11517   0.419  32.461   4.802
52257W        W11518   3.454  27.151   5.132
52258W        W11519  19.250  13.643  11.511
52259W        W11520  27.133  43.998  10.992
52260W        W11521  23.506  10.300  12.054
52261W        W11522  15.782  21.585   1.230
52262W        W11523  28.138  32.102  13.466
52263W        W11524  27.976  24.506   2.285
52264W        W11525  24.189  20.159  12.474
52265W        W11526  15.819  31.096   3.779
52266W        W11527  40.826  28.512  11.057
52267W        W11528  31.454  33.512  13.914
52268W        W11529  38.062  42.992   4.715
52269W        W11530  41.965   7.345   1.335
52270W        W11531  42.983  23.031  12.527
52271W        W11532  17.260  27.042   0.282
52272W        W11533   1.784  28.629  14.378
52273W        W11534  43.967  34.434  11.022
52274W        W11535  12.847  38.537   0.929
52275W        W11536   3.296   1.795   4.186
52276W        W11537  42.465   7.896  12.921
52277W        W11538  17.186  10.799  10.967
52278W        W11539  13.213  41.966  12.896
52279W        W11540   8.891  14.757  12.888
52280W        W11541  30.616  18.717   4.727
52281W        W11542   8.897  23.192   3.663
52282W        W11543  39.819  26.569  14.772
52283W        W11544  17.209  27.045   2.204
52284W        W11545  12.808   0.931  13.063
52285W        W11546  24.573  28.037   0.374
52286W        W11547  18.788  37.432  11.464
52287W        W11548  41.855  18.082  10.574
52288W        W11549  21.106   0.861   4.799
52289W        W11550  18.791  25.081  10.012
52290W        W11551  18.103  14.192  14.928
52291W        W11552  16.170  17.668  14.917
52292W        W11553  25.165  34.933   4.654
52293W        W11554  27.607  11.645   1.900
52294W        W11555  32.097  37.469   1.898
52295W        W11556  41.869  44.497   3.226
52296W        W11557  43.902  35.889  10.451
52297W        W11558  41.915  37.061   1.805
52298W        W11559   7.300  15.704  13.438
52299W        W11560  19.254  31.509  11.553
52300W        W11561   9.833   8.711   1.698
52301W        W11562  27.110  40.948   0.289
52302W        W11563  39.924  20.202  14.324
52303W        W11564  18.185  36.901  12.537
52304W        W11565  37.906  15.085  11.579
52305W        W11566  20.736  36.865  12.573
52306W        W11567  10.358  29.576  11.493
52307W        W11568   2.730  22.208  12.841
52308W        W11569   9.181   2.290  12.892
52309W        W11570  19.717   1.333  11.507
52310W        W11571  37.831   6.821   2.769
52311W        W11572  16.706  27.006  13.371
52312W        W11573  40.534  29.046  14.382
52313W        W11574  44.410  37.035  14.963
52314W        W11575   9.888  39.449  11.120
52315W        W11576  43.876  16.660  13.868
52316W        W11577  35.051  12.770   3.686
52317W        W11578  20.098  30.070  14.474
52318W        W11579  39.895  36.390   5.124
52319W        W11580  16.599  25.114   1.428
52320W        W11581  42.907  22.011   2.335
52321W        W11582  41.972   9.209  12.358
52322W        W11583   5.215  21.061   0.261
52323W        W11584  10.313  39.843   2.844
52324W        W11585  34.951  30.499  11.856
52325W        W11586   4.354  10.767   0.480
52326W        W11587  10.316  30.964   2.793
52327W        W11588  41.919   0.431   3.359
52328W        W11589  22.627  13.149   0.788
52329W        W11590  21.602   7.692  14.380
52330W        W11591  17.089  17.186   4.774
52331W        W11592  13.224  44.932  12.377
52332W        W11593  38.820  40.980  14.341
52333W        W11594  28.590   2.382  12.857
52334W        W11595   1.308   1.733   3.652
52335W        W11596  38.486  20.204   2.327
52336W        W11597  14.229  12.665   2.777
52337W        W11598  40.832   6.424  10.511
52338W        W11599  24.171  13.632   3.164
52339W        W11600  40.053  43.953   4.351
52340W        W11601   7.701  40.398   2.848
52341W        W11602  41.824  18.092  14.507
52342W        W11603  33.960  27.685   1.826
52343W        W11604  40.960  39.317  11.041
52344W        W11605  15.646   3.233  10.040
52345W        W11606  14.106  37.411  10.587
52346W        W11607   0.951  23.055   3.807
52347W        W11608  27.534  27.516  11.021
52348W        W11609  32.932  33.383  14.278
52349W        W11610   7.875  24.057  10.490
52350W        W11611  12.124  28.634   3.756
52351W        W11612  32.892  37.077  14.328
52352W        W11613  32.515  43.446   3.315
52353W        W11614  36.589  18.719  12.472
52354W        W11615  29.077  40.454  11.914
52355W        W11616  39.549   4.717   0.296
52356W        W11617   8.709   4.381   5.176
52357W        W11618  25.157  26.143   0.809
52358W        W11619  35.907   4.299  14.300
52359W        W11620  35.902   1.483  11.058
52360W        W11621  39.821  23.643  13.954
52361W        W11622  11.255  39.886  14.759
52362W        W11623   6.228  44.503  12.867
52363W        W11624  22.505  37.454  10.914
52364W        W11625  20.197  27.970   2.242
52365W        W11626  39.951  35.954   0.480
52366W        W11627  36.951  11.857  12.373
52367W        W11628  26.680  11.698  11.120
52368W        W11629  32.902   4.798   4.137
52369W        W11630  20.236   0.779   0.390
52370W        W11631  17.217  24.152   1.383
52371W        W11632  14.140  19.209   1.290
52372W        W11633  18.198  11.693   0.912
52373W        W11634  28.159  37.487   1.275
52374W        W11635   8.161  33.975   3.315
52375W        W11636  38.370  23.034   0.453
52376W        W11637  17.094   5.845  14.372
52377W        W11638  25.646  12.709  14.325
52378W        W11639  43.931  26.561  10.031
52379W        W11640  38.429  36.541   1.402
52380W        W11641  33.003  19.153  11.060
52381W        W11642  26.145  32.891   1.820
52382W        W11643  34.874  24.159  10.493
52383W        W11644   7.827  27.191  11.121
52384W        W11645   1.856  42.876   3.643
52385W        W11646  31.132  13.276  12.991
52386W        W11647  26.523  27.594  10.533
52387W        W11648  14.245  40.400   2.414
52388W        W11649  29.484  26.038   4.814
52389W        W11650  30.090  26.669   4.608
52390W        W11651  35.007  34.514  10.447
52391W        W11652  20.613  11.257  11.528
52392W        W11653   6.855  13.250  10.891
52393W        W11654  22.125   6.411  13.472
52394W        W11655  25.607  28.500   2.383
52395W        W11656  34.990   9.661  12.902
52396W        W11657  27.547  31.471   2.691
52397W        W11658  28.588   3.370   0.838
52398W        W11659  25.488  42.984   2.213
52399W        W11660  23.015  30.511  14.992
52400W        W11661   2.734  26.072   1.387
52401W        W11662  15.747   6.796  13.042
52402W        W11663  37.530  38.456   4.249
52403W        W11664  40.426   1.785  14.356
52404W        W11665  17.204  13.807   2.822
52405W        W11666   8.883  12.822  14.356
52406W        W11667  22.213  14.241   0.362
52407W        W11668  19.742  35.068  14.309
52408W        W11669  44.302  17.650   3.253
52409W        W11670  12.614  42.363   0.399
52410W        W11671  20.274  38.379   0.249
52411W        W11672  13.139  13.154  11.518
52412W        W11673  18.136  22.130   0.383
52413W        W11674  14.245  12.229   0.726
52414W        W11675  14.743  24.185   0.356
52415W        W11676  43.865  13.243   0.809
52416W        W11677  32.571  32.953   3.814
52417W        W11678  41.004  36.973  13.043
52418W        W11679  24.195  35.968  10.928
52419W        W11680  39.376  37.991   0.887
52420W        W11681  33.541  20.224  14.923
52421W        W11682   9.737  22.651  10.617
52422W        W11683  30.917  11.349   4.609
52423W        W11684  21.055  26.147   4.237
52424W        W11685  33.419  41.922  14.850
52425W        W11686  16.105  18.256   2.210
52426W        W11687  16.205  32.142   4.349
52427W        W11688  11.280  12.182   0.889
52428W        W11689  33.889  36.092   3.309
52429W        W11690  30.635  22.063  12.011
52430W        W11691  14.657  38.942  10.139
52431W        W11692  37.411  44.272   5.265
52432W        W11693   6.895  36.421  11.371
52433W        W11694  16.593   2.323  11.043
52434W        W11695   5.213  22.248  14.812
52435W        W11696  41.486  22.064  13.352
52436W        W11697   0.303   3.829  14.473
52437W        W11698  43.385  21.678   4.641
52438W        W11699  18.718  42.315   4.748
52439W        W11700  24.614  21.207   4.696
52440W        W11701  28.117  27.447   4.662
52441W        W11702   9.263  36.015  13.020
52442W        W11703   7.700  39.439   4.684
52443W        W11704  11.226  29.629   3.377
52444W        W11705   4.370   4.310  11.106
52445W        W11706  16.721  37.577  14.398
52446W        W11707  43.860   4.843  13.871
52447W        W11708  37.991  13.310   0.262
52448W        W11709  15.240   1.851  14.931
52449W        W11710   6.247  23.512   3.855
52450W        W11711  38.493  32.106   0.293
52451W        W11712  24.084   1.909   4.793
52452W        W11713  23.680  35.410  14.882
52453W        W11714  11.645  21.733  14.482
52454W        W11715  13.603   6.817  10.599
52455W        W11716  26.543  30.094  14.764
52456W        W11717  21.167  18.178  14.432
52457W        W11718   1.418  38.906   2.409
52458W        W11719   5.275  37.454  14.442
52459W        W11720  10.188  27.976   2.856
52460W        W11721  23.598  44.897  12.051
52461W        W11722  19.675  25.669  14.945
52462W        W11723  13.619  32.509   4.230
52463W        W11724  24.535  43.505  14.487
52464W        W11725  33.103  13.315   1.769
52465W        W11726   1.891  27.045   0.360
52466W        W11727  41.357   9.768  10.990
52467W        W11728  36.971  19.585  11.006
52468W        W11729  36.578  43.496  10.523
52469W        W11730   6.220  18.727  14.295
52470W        W11731  27.102  36.470   1.780
52471W        W11732  37.409  38.045   2.894
52472W        W11733   0.836   5.716   4.647
52473W        W11734   6.191  24.500  13.049
52474W        W11735   3.791  12.246  12.358
52475W        W11736   0.352  35.029  11.969
52476W        W11737  24.572   6.261  12.455
52477W        W11738   6.248  32.965   0.954
52478W        W11739  39.003   9.712   3.379
52479W        W11740  19.742  35.583  14.864
52480W        W11741  25.108   7.794  10.528
52481W        W11742  20.731   8.243   2.698
52482W        W11743  10.864  26.179   3.806
52483W        W11744  44.846  20.150   4.766
52484W        W11745   5.724   0.284  14.325
52485W        W11746  14.708   7.383  10.453
52486W        W11747  13.305  10.652   4.603
52487W        W11748  30.908  32.517  12.533
52488W        W11749  32.589  22.199   0.807
52489W        W11750  21.612  40.409   1.320
52490W        W11751  19.102  38.924  14.769
52491W        W11752  10.264   9.772  14.983
52492W        W11753  15.151  37.851  14.441
52493W        W11754  33.911  27.487  14.936
52494W        W11755  25.973  20.588   0.303
52495W        W11756  44.951  24.529  14.350
52496W        W11757  29.430  33.987   1.819
52497W        W11758  15.815  12.219  11.389
52498W        W11759  27.638  44.267  10.618
52499W        W11760   8.171   0.488  12.555
52500W        W11761  25.176  29.120   3.753
52501W        W11762  29.148  41.459   1.400
52502W        W11763   6.823  24.093   3.149
52503W        W11764   2.722  40.858   2.345
52504W        W11765   5.710  41.471  14.853
52505W        W11766  10.315  13.772  12.529
52506W        W11767  32.901  32.506  12.499
52507W        W11768  40.016  20.228   1.387
52508W        W11769  10.856   6.335  10.100
52509W        W11770  27.194  15.694  13.337
52510W        W11771   4.426  14.833   1.728
52511W        W11772  13.757  37.058  14.807
52512W        W11773  13.785  25.678   0.849
52513W        W11774  38.894  35.883   3.257
52514W        W11775   7.209   1.842   1.327
52515W        W11776  38.944  21.754  11.121
52516W        W11777   1.297   4.286   1.736
52517W        W11778  36.062   2.340   4.628
52518W        W11779  13.770  30.096  13.872
52519W        W11780  33.893  12.347   3.335
52520W        W11781  28.133  37.369   3.251
52521W        W11782   6.182   7.258  12.432
52522W        W11783  42.860  10.170  14.356
52523W        W11784  31.001  33.949  10.598
52524W        W11785  30.494  38.050  10.893
52525W        W11786  15.637  19.656  13.417
52526W        W11787  36.998  29.949   1.873
52527W        W11788   9.306   4.363   1.731
52528W        W11789  40.947  11.781  13.436
52529W        W11790  14.306   7.811   0.441
52530W        W11791   7.383  40.917   4.321
52531W        W11792  36.059   6.763  12.401
52532W        W11793  42.884   9.330  11.384
52533W        W11794  17.629  36.586  11.945
52534W        W11795  33.930   2.959  10.939
52535W        W11796  37.546  22.533  12.547
52536W        W11797  15.584  29.126  14.374
52537W        W11798  12.264   4.325   3.373
52538W        W11799   2.929  11.826   2.891
52539W        W11800  36.552  10.335  14.397
52540W        W11801  43.811  24.029  14.759
52541W        W11802  14.659  19.096   0.852
52542W        W11803  33.393  29.049   3.252
52543W        W11804  35.933  37.350   0.380
52544W        W11805  40.381  12.287   3.174
52545W        W11806  34.916  36.538  14.869
52546W        W11807  29.523  31.016  12.408
52547W        W11808  14.743   7.397   1.384
52548W        W11809  33.107  12.203  13.497
52549W        W11810  15.601  13.628   4.651
52550W        W11811  23.693  18.622   0.731
52551W        W11812  17.593  17.290  12.576
52552W        W11813  18.580  35.494  10.640
52553W        W11814  23.733  25.506   4.168
52554W        W11815  16.186  19.238   3.786
52555W        W11816  21.102  13.671  11.469
52556W        W11817  27.578  34.564   4.152
52557W        W11818   0.274   8.786   4.314
52558W        W11819  26.587  28.165  12.914
52559W        W11820  35.587  37.962   2.662
52560W        W11821   0.773   8.781   4.721
52561W        W11822  33.410  38.537   4.118
52562W        W11823  21.717  37.887  11.976
52563W        W11824  24.073   4.418  11.961
52564W        W11825  28.657  27.001  13.315
52565W        W11826  10.343  21.594   4.203
52566W        W11827  36.484  29.513   0.317
52567W        W11828  19.666   1.758  12.346
52568W        W11829  24.072  18.558   2.715
52569W        W11830   0.795  26.993  14.978
52570W        W11831  26.069   5.801   5.182
52571W        W11832  12.792  26.623   2.687
52572W        W11833  17.178  38.980   2.680
52573W        W11834  30.165  25.483  10.988
52574W        W11835   4.915   1.437  10.960
52575W        W11836  32.008  29.539   3.855
52576W        W11837  19.073  15.778  12.360
52577W        W11838  25.019  27.668  11.476
52578W        W11839  25.593  29.115   3.302
52579W        W11840  31.403  22.047   1.251
52580W        W11841  24.725   7.791  14.806
52581W        W11842  22.223   7.393  13.934
52582W        W11843  36.995  22.645   4.264
52583W        W11844  28.621  12.642  12.569
52584W        W11845   1.318  27.162   4.615
52585W        W11846   7.388  29.641   4.154
52586W        W11847  35.033  12.362  12.544
52587W        W11848  19.208   2.763   3.651
52588W        W11849  24.167   2.730   0.249
52589W        W11850  43.451  33.388  11.401
52590W        W11851   5.891   6.241  13.993
52591W        W11852  25.053  29.609  12.394
52592W        W11853  19.541  39.548   2.807
52593W        W11854  44.394  16.156   4.670
52594W        W11855  33.038  12.123   0.401
52595W        W11856  24.046   7.775  11.938
52596W        W11857  27.965  43.274   1.750
52597W        W11858  20.116  23.133   3.789
52598W        W11859  44.355  21.730  10.557
52599W        W11860  33.468  23.175   2.667
52600W        W11861   5.204  28.004  14.778
52601W        W11862  38.330  25.057   4.729
52602W        W11863   2.460   7.203  13.034
52603W        W11864   0.360   9.173  11.881
52604W        W11865   2.793   8.342   3.652
52605W        W11866  33.961  27.509  11.609
52606W        W11867  17.077  34.582  11.016
52607W        W11868  27.129  37.372  12.364
52608W        W11869  18.616  19.053   0.860
52609W        W11870  36.413  28.159   2.306
52610W        W11871  38.074   9.855  10.637
52611W        W11872   1.331  33.517  12.572
52612W        W11873  12.855  23.678  12.545
52613W        W11874  18.221   1.462   3.204
52614W        W11875  21.256  19.221   1.755
52615W        W11876  39.518  19.608   2.893
52616W        W11877  29.610  29.945   0.794
52617W        W11878  22.577  26.662   4.183
52618W        W11879   0.874  17.150   4.207
52619W        W11880  26.148   2.458   3.285
52620W        W11881  20.218  13.213   1.306
52621W        W11882  32.107  44.408  13.452
52622W        W11883  25.020  18.698  14.389
52623W        W11884  24.542  30.599  14.335
52624W        W11885   7.876  16.241  11.571
52625W        W11886  24.681  32.535   1.434
52626W        W11887  42.938  39.860   4.214
52627W        W11888  36.506   7.265  10.599
52628W        W11889  31.061  38.430  12.961
52629W        W11890  30.023  22.610  12.069
52630W        W11891  28.442  22.173   1.790
52631W        W11892  42.355  12.660   4.612
52632W        W11893  14.807   4.388   3.705
52633W        W11894  39.492   7.743   4.787
52634W        W11895   0.774  31.934   5.093
52635W        W11896   1.898  16.728  14.885
52636W        W11897  34.456  23.181   0.923
52637W        W11898  39.943  19.755  12.937
52638W        W11899  39.062  17.092   1.220
52639W        W11900   4.410  40.952  13.377
52640W        W11901  36.565  25.509   2.192
52641W        W11902  37.381  23.193   4.780
52642W        W11903  25.558  26.660  12.551
52643W        W11904   7.210   5.689  13.433
52644W        W11905   4.236   3.861  10.537
52645W        W11906  11.144  19.214   2.843
52646W        W11907  27.558   2.906   0.881
52647W        W11908   0.963  41.421   2.805
52648W        W11909  41.835   1.454  11.008
52649W        W11910  34.072  10.312  13.952
52650W        W11911  12.734  20.068  12.030
52651W        W11912  17.150  31.545   4.726
52652W        W11913  37.454  14.256  14.028
52653W        W11914  32.591  12.818   4.249
52654W        W11915  27.603  23.578  13.531
52655W        W11916  27.979  40.052   9.970
52656W        W11917  33.041   4.398   1.393
52657W        W11918   7.716   6.425  12.836
52658W        W11919  10.276   6.328   4.717
52659W        W11920  11.793   4.346   1.282
52660W        W11921  13.197  42.454  13.803
52661W        W11922  41.443  11.774   0.822
52662W        W11923  30.934  20.582  10.926
52663W        W11924   3.872   8.779   1.430
52664W        W11925  24.980  40.432  13.801
52665W        W11926  16.264   9.714  10.508
52666W        W11927   4.923  29.973  13.809
52667W        W11928  37.010  33.892  13.815
52668W        W11929  41.942  38.375  11.069
52669W        W11930   0.759  36.400  10.451
52670W        W11931  34.403  14.293  13.827
52671W        W11932   4.789   5.691   4.748
52672W        W11933  42.968  25.178  12.978
52673W        W11934  12.177  34.550  12.447
52674W        W11935  39.444   6.841  12.444
52675W        W11936   7.181  40.991  12.345
52676W        W11937  20.578  31.457   4.676
52677W        W11938  27.048  28.507   0.731
52678W        W11939   4.875  33.043  12.920
52679W        W11940   3.370  35.594   0.812
52680W        W11941  38.012  32.896   2.408
52681W        W11942   4.814  29.982   4.749
52682W        W11943  43.790  15.804  13.886
52683W        W11944  25.999   9.157  11.919
52684W        W11945  29.499   3.774  10.952
52685W        W11946  23.594  38.040   0.905
52686W        W11947  41.432  40.001   0.920
52687W        W11948   8.810  17.108   0.726
52688W        W11949  33.620  32.065  13.954
52689W        W11950  42.981  24.126  13.018
52690W        W11951  18.202  37.965  11.063
52691W        W11952   2.786  26.696   2.354
52692W        W11953  11.627  30.580   2.799
52693W        W11954  42.006  27.668  12.480
52694W        W11955  22.654  25.709  11.549
52695W        W11956   2.230  40.466   4.121
52696W        W11957  40.874  13.708  10.063
52697W        W11958  36.590  17.767  13.367
52698W        W11959  44.431  38.865  12.342
52699W        W11960  10.865   4.798  10.463
52700W        W11961  14.097   5.295   0.406
52701W        W11962   0.445  41.844  12.989
52702W        W11963  38.549   2.963  11.464
52703W        W11964  36.881  27.174   2.274
52704W        W11965  42.315  25.042  14.379
52705W        W11966   6.384  19.062   3.148
52706W        W11967  30.609  33.417   5.266
52707W        W11968  23.012   1.774  13.061
52708W        W11969  21.089  32.551   3.669
52709W        W11970  35.019  41.505   1.212
52710W        W11971   4.900   3.749  13.436
52711W        W11972  30.077   1.354   3.727
52712W        W11973  31.543  42.982  12.987
52713W        W11974  37.917  24.158  12.046
52714W        W11975  16.588   6.276   3.828
52715W        W11976  44.367  10.252  14.459
52716W        W11977  43.340   0.270   3.849
52717W        W11978  38.054  32.416   2.267
52718W        W11979  20.129  15.171  10.491
52719W        W11980   2.789   3.732   1.891
52720W        W11981  35.460  38.333  10.934
52721W        W11982  37.574  30.561   1.227
52722W        W11983  19.243  39.999   3.181
52723W        W11984  39.869  18.585   1.822
52724W        W11985   0.381   1.813   1.223
52725W        W11986  14.146  18.757   4.271
52726W        W11987   7.770   4.247   1.339
52727W        W11988  22.244  28.099   4.130
52728W        W11989  23.543  38.335  12.924
52729W        W11990  37.009  16.295  12.550
52730W        W11991  38.845  24.527  10.997
52731W        W11992  13.664  13.223   4.121
52732W        W11993   7.710  44.409   0.740
52733W        W11994  32.893  25.553  13.023
52734W        W11995  19.614  42.290   4.812
52735W        W11996  31.097   1.411  14.859
52736W        W11997  34.544  13.646  12.939
52737W        W11998   6.205   2.931  11.128
52738W        W11999  44.849  37.864   0.814
52739W        W12000  24.078  33.024   1.338
52740W        W12001   4.817  15.328   3.836
52741W        W12002  32.062  29.651   0.325
52742W        W12003  19.123  30.965  13.943
52743W        W12004  35.867  27.147  10.478
52744W        W12005  40.446  33.038   2.814
52745W        W12006  34.428   6.774  14.454
52746W        W12007  38.335  42.886   3.230
52747W        W12008  21.117  31.958   4.650
52748W        W12009   9.189   7.334  14.320
52749W        W12010  14.333  38.944  14.768
52750W        W12011  18.742  15.271  12.850
52751W        W12012  15.197  44.418   3.816
52752W        W12013  41.536   5.349  13.432
52753W        W12014  37.946  18.195  12.823
52754W        W12015  10.720  16.087   4.702
52755W        W12016  28.441  44.807   2.745
52756W        W12017  30.528  15.723   4.721
52757W        W12018   6.795  20.178   2.721
52758W        W12019  20.115  20.062  10.469
52759W        W12020  30.942  39.980   1.776
52760W        W12021  22.217   1.471  11.871
52761W        W12022  12.803   7.884   1.270
52762W        W12023  25.089  43.394   1.261
52763W        W12024  38.953  21.206  12.366
52764W        W12025  43.402  40.539   4.820
52765W        W12026  22.042  32.595   0.483
52766W        W12027  25.474  35.028  14.417
52767W        W12028  14.739  23.132  13.525
52768W        W12029  32.033   7.172   1.919
52769W        W12030  29.049  27.660   1.330
52770W        W12031   6.314   5.206  13.326
52771W        W12032  33.441  26.500   1.844
52772W        W12033  37.983  10.275   3.751
52773W        W12034   9.692  17.136   2.236
52774W        W12035   4.414  24.151   0.415
52775W        W12036  16.588  26.973  14.020
52776W        W12037  38.901  34.463  10.909
52777W        W12038  23.071   8.169  14.764
52778W        W12039  32.974   6.425   0.461
52779W        W12040  11.165  34.107   0.811
52780W        W12041  16.290  25.666   3.745
52781W        W12042  43.369  12.677  13.931
52782W        W12043  37.864  18.099   3.257
52783W        W12044  34.981  17.297   2.787
52784W        W12045  10.759   3.248  10.559
52785W        W12046  23.593  38.929  13.805
52786W        W12047  29.484  22.142   0.958
52787W        W12048  15.208  26.551   2.275
52788W        W12049   1.755  36.960  12.926
52789W        W12050   9.686   5.223  13.384
52790W        W12051  31.572  33.573  11.606
52791W        W12052  18.641  29.006  11.076
52792W        W12053  17.080  42.321   3.790
52793W        W12054  28.587  27.093   0.481
52794W        W12055  25.512   4.838  13.042
52795W        W12056  19.560   1.364  13.414
52796W        W12057   6.867  39.389  11.858
52797W        W12058   1.359   5.226  12.384
52798W        W12059   5.866  18.163  13.436
52799W        W12060  12.635   1.778   2.206
52800W        W12061  16.622  32.564   1.766
52801W        W12062  42.888  14.157  10.472
52802W        W12063  21.067  39.520  12.860
52803W        W12064  31.918  39.945   4.331
52804W        W12065  26.158   7.389   0.341
52805W        W12066  36.921  14.677  12.908
52806W        W12067  18.628  27.597  12.946
52807W        W12068  30.616  34.963   4.701
52808W        W12069  34.876  19.050   4.720
52809W        W12070   1.336  17.729  13.547
52810W        W12071   4.362  29.477   1.295
52811W        W12072  31.077  17.097   1.406
52812W        W12073  20.150  17.659   3.648
52813W        W12074   1.473  28.162  12.023
52814W        W12075  32.913   6.377   4.613
52815W        W12076   0.766  16.171  14.799
52816W        W12077  15.771  38.391   0.822
52817W        W12078   0.354  44.978  11.447
52818W        W12079  13.654   9.730   0.386
52819W        W12080  40.423  23.640  11.913
52820W        W12081  37.878  32.627  10.611
52821W        W12082  27.646  14.688   0.480
52822W        W12083  11.359  27.946   4.770
52823W        W12084   2.362  14.702  14.962
52824W        W12085  30.146   3.265   0.324
52825W        W12086   3.836  21.038  11.988
52826W        W12087  41.292  42.335   1.757
52827W        W12088  16.108  25.580  11.581
52828W        W12089  16.204   8.277   2.296
52829W        W12090   0.945  18.726  12.498
52830W        W12091  33.973  11.633  12.494
52831W        W12092  36.593  24.717  13.498
52832W        W12093  12.815  41.407  10.958
52833W        W12094  22.224  27.069  11.922
52834W        W12095   0.299  37.399  13.331
52835W        W12096  12.822  39.329  11.448
52836W        W12097  34.078  14.793   3.832
52837W        W12098   1.751  11.220  11.912
52838W        W12099  15.136   3.802  12.879
52839W        W12100   3.858   5.342   4.620
52840W        W12101  43.319   0.964  10.993
52841W        W12102  19.277   1.926  13.490
52842W        W12103  29.057  19.097   0.736
52843W        W12104   3.411   1.296  10.542
52844W        W12105  32.530  42.807  12.011
52845W        W12106  20.168   5.298   4.208
52846W        W12107  32.486  24.188  10.539
52847W        W12108   6.843   7.910   0.426
52848W        W12109  18.638  31.928  14.777
52849W        W12110  24.530  41.360  14.451
52850W        W12111   8.792  43.840   2.270
52851W        W12112   7.728  17.207   4.753
52852W        W12113   7.405  31.132   0.849
52853W        W12114  43.911   1.771   4.165
52854W        W12115   9.174  20.052  12.926
52855W        W12116  40.485  14.308   1.391
52856W        W12117  24.491  25.567  13.906
52857W        W12118   5.225   1.237  13.995
52858W        W12119  20.250  33.531   0.841
52859W        W12120  26.512  27.625   5.125
52860W        W12121  21.234   8.866   1.793
52861W        W12122   3.933  35.032  10.928
52862W        W12123  44.294  11.175   3.303
52863W        W12124   7.201  39.003   2.759
52864W        W12125  19.691   3.862  13.805
52865W        W12126  40.524   4.927   0.904
52866W        W12127  16.102  27.006  10.937
52867W        W12128  35.040  39.812   1.277
52868W        W12129  41.953  34.895   1.749
52869W        W12130   4.820  28.153   2.405
52870W        W12131   1.870  37.991  12.360
52871W        W12132  37.517  26.593  13.871
52872W        W12133  32.626   7.894  12.388
52873W        W12134  24.010   5.885  14.957
52874W        W12135   7.352  24.022   1.300
52875W        W12136  43.321  24.650   2.254
52876W        W12137   8.687   0.307   3.742
52877W        W12138  13.634  16.251   1.300
52878W        W12139   9.361  44.305  10.100
52879W        W12140  17.585  12.209  13.423
52880W        W12141  35.987  21.753  14.280
52881W        W12142  21.151  20.182   0.329
52882W        W12143  36.897  38.066  14.496
52883W        W12144  26.049   6.288  12.065
52884W        W12145  18.279   7.365  13.379
52885W        W12146  32.422   1.908  12.950
52886W        W12147  33.982  17.590  14.438
52887W        W12148  29.172  11.245  14.503
52888W        W12149  36.066  23.180  14.408
52889W        W12150  22.615  21.711   0.304
52890W        W12151  39.950  38.458   1.862
52891W        W12152  27.971   9.735   1.217
52892W        W12153  25.202   5.356  14.361
52893W        W12154  32.958  35.946   1.725
52894W        W12155  12.734  23.719   3.330
52895W        W12156  34.371   2.297  10.889
52896W        W12157   1.855  21.517  11.419
52897W        W12158  18.281  13.821  14.825
52898W        W12159  29.108  14.795  13.946
52899W        W12160  39.319  26.194   4.656
52900W        W12161   1.913   2.820   3.849
52901W        W12162  28.638  11.709  14.357
52902W        W12163   5.410   2.835  11.122
52903W        W12164  36.582  35.045   4.338
52904W        W12165  27.982  30.979   0.410
52905W        W12166  25.509   3.294  14.769
52906W        W12167  43.826  15.236  12.430
52907W        W12168  25.064  18.642  14.017
52908W        W12169  25.198  28.680  10.917
52909W        W12170  33.398   5.896  13.800
52910W        W12171  31.047   2.472   4.624
52911W        W12172  17.763  29.484  12.055
52912W        W12173  18.618   7.809   4.338
52913W        W12174  27.457  18.782   0.745
52914W        W12175  42.945  24.040  11.607
52915W        W12176   5.240  37.029   3.285
52916W        W12177  32.969  41.842  11.438
52917W        W12178  34.440  28.011  14.914
52918W        W12179  10.202  36.889   2.180
52919W        W12180  15.627  36.372   3.738
52920W        W12181  34.104   3.710  13.361
52921W        W12182  35.542  44.970  13.885
52922W        W12183  27.095   4.433   4.318
52923W        W12184  28.098  11.284   1.910
52924W        W12185  25.514  14.670   4.699
52925W        W12186   6.193  28.484   1.352
52926W        W12187  20.657   9.788  11.911
52927W        W12188  39.820   5.870   4.255
52928W        W12189   4.707  26.130  11.597
52929W        W12190  13.116  36.848   2.180
52930W        W12191  39.014  29.033  14.499
52931W        W12192   1.824  18.249  11.435
52932W        W12193   7.404   9.237   1.739
52933W        W12194  44.949  42.445  14.785
52934W        W12195  16.167   3.397  12.046
52935W        W12196   8.360   0.355   1.732
52936W        W12197  42.366  22.717  13.903
52937W        W12198   2.358  21.076  14.446
52938W        W12199   9.755  21.745  12.550
52939W        W12200   4.929  34.568   4.115
52940W        W12201  34.992  23.989   3.207
52941W        W12202   3.239  16.733   0.817
52942W        W12203  35.086  39.338  12.089
52943W        W12204  37.514   3.386  12.422
52944W        W12205  15.287  11.750  13.402
52945W        W12206  16.193  41.430  14.821
52946W        W12207  15.655  13.774   2.878
52947W        W12208  30.443   9.195   1.914
52948W        W12209  15.169  43.495   1.742
52949W        W12210  34.119  15.240  11.486
52950W        W12211  21.524   0.888  11.912
52951W        W12212   7.373  30.533  13.794
52952W        W12213  36.094  28.991   0.929
52953W        W12214   2.821   1.760   0.342
52954W        W12215  26.121   8.273  13.799
52955W        W12216  13.337  36.491   0.851
52956W        W12217  29.502  40.452  12.569
52957W        W12218  24.646  33.001  13.057
52958W        W12219   4.434   2.449   2.376
52959W        W12220  38.844   1.891   0.279
52960W        W12221  18.217   6.788   4.299
52961W        W12222   0.409  20.662  12.343
52962W        W12223   1.896  38.868  13.470
52963W        W12224  25.136  18.218  11.038
52964W        W12225  11.338   0.761   0.250
52965W        W12226  36.458  21.641  10.426
52966W        W12227  34.991  23.519   3.150
52967W        W12228  42.958  32.123   3.153
52968W        W12229   3.441  30.489   3.806
52969W        W12230  29.656  42.438   1.906
52970W        W12231   9.188   7.257  12.508
52971W        W12232  29.533  26.982   1.800
52972W        W12233  15.318  19.273  13.332
52973W        W12234   2.812  42.794  14.955
52974W        W12235  12.166  24.149   4.189
52975W        W12236   9.163  35.926   2.741
52976W        W12237   8.253  33.556  13.028
52977W        W12238  31.052  34.093  14.300
52978W        W12239  10.369  30.539  11.602
52979W        W12240  38.842  44.973  12.442
52980W        W12241  19.175  26.138   1.869
52981W        W12242  24.720  25.109  13.435
52982W        W12243   5.301   6.427   0.251
52983W        W12244  36.085  29.164   3.182
52984W        W12245  26.181  19.713  11.900
52985W        W12246  20.161  21.151  14.954
52986W        W12247  44.466  43.318   3.160
52987W        W12248   9.784  23.059   3.764
52988W        W12249  27.452  28.028   1.239
52989W        W12250   2.940   5.860  11.926
52990W        W12251  40.503  42.287   2.794
52991W        W12252  14.607   4.403   0.774
52992W        W12253  34.420  36.503   3.226
52993W        W12254   9.264  25.997   2.831
52994W        W12255  11.206  28.075   1.258
52995W        W12256  42.996  28.623   2.391
52996W        W12257  23.041  27.617   1.224
52997W        W12258   3.249  26.538   1.841
52998W        W12259  18.063   7.831  13.967
52999W        W12260  40.044  18.273  11.023
53000W        W12261  29.921  20.731   3.641
53001W        W12262  44.372  24.087  10.053
53002W        W12263  14.107  21.630   1.798
53003W        W12264  30.106  36.357   4.312
53004W        W12265  18.094  35.951  12.581
53005W        W12266  44.437  39.321   3.817
53006W        W12267  35.385  10.831  12.077
53007W        W12268  13.167  12.291  10.524
53008W        W12269  36.460   6.404  14.501
53009W        W12270  28.126   4.887  12.579
53010W        W12271  12.137  24.598   0.245
53011W        W12272  12.724  21.536  12.845
53012W        W12273   3.766  39.844  12.378
53013W        W12274  38.977  13.200  10.070
53014W        W12275  37.965  26.689   5.099
53015W        W12276   3.252  24.173   0.831
53016W        W12277  43.321  13.699  10.582
53017W        W12278  40.039  15.787  12.954
53018W        W12279  15.579  32.557   2.850
53019W        W12280  15.154  15.653   3.816
53020W        W12281  28.483  39.358  11.531
53021W        W12282  15.635  37.560   4.330
53022W        W12283  32.499   2.311  11.591
53023W        W12284  15.765   8.899   3.286
53024W        W12285  40.050  11.823   0.891
53025W        W12286  16.569   4.423  14.022
53026W        W12287   9.693  12.701  13.807
53027W        W12288  35.548  33.484   1.736
53028W        W12289  25.165  16.105  13.056
53029W        W12290   4.815  31.909   2.775
53030W        W12291   0.474   4.797   2.753
53031W        W12292  14.149  11.670  10.973
53032W        W12293  41.461  33.934   5.178
53033W        W12294   6.781  22.071  14.927
53034W        W12295   9.216  30.509   1.764
53035W        W12296  37.932  39.457  12.096
53036W        W12297   8.339   8.377   3.216
53037W        W12298   1.321  21.033   3.735
53038W        W12299  39.514  34.577  10.053
53039W        W12300  33.471  31.058  12.548
53040W        W12301   9.328  19.612  10.056
53041W        W12302  25.530  25.711  13.318
53042W        W12303  10.247   3.740  10.411
53043W        W12304  23.529  30.558   3.307
53044W        W12305  18.591   7.228  12.048
53045W        W12306  36.844  16.806  10.989
53046W        W12307  12.639   1.410   2.186
53047W        W12308  42.446  18.068  14.493
53048W        W12309  33.598  29.023  10.901
53049W        W12310   6.183  38.491   2.809
53050W        W12311  21.232  11.303   1.835
53051W        W12312  17.103  32.421  10.510
53052W        W12313  44.260  18.607   3.653
53053W        W12314  26.629  29.971   2.779
53054W        W12315  35.420  14.701   3.638
53055W        W12316  29.506  36.492  10.464
53056W        W12317  21.073   2.377   0.802
53057W        W12318  25.584   0.274   1.769
53058W        W12319   4.373  21.028   2.397
53059W        W12320   6.722  20.037   3.205
53060W        W12321  31.571   2.938  13.334
53061W        W12322  37.963  12.330  14.766
53062W        W12323  43.908  36.915   4.125
53063W        W12324  13.249  42.998   1.445
53064W        W12325  10.143  14.114  14.999
53065W        W12326  16.174  39.410  11.960
53066W        W12327   3.255  30.926   1.342
53067W        W12328  14.759  42.426  13.314
53068W        W12329   4.310   3.786  12.035
53069W        W12330  11.815  31.579  13.980
53070W        W12331   3.348  30.624   4.295
53071W        W12332  20.707  16.784  14.443
53072W        W12333  27.612  11.766  10.459
53073W        W12334  27.088  38.916  12.506
53074W        W12335  25.155  34.425  10.892
53075W        W12336   7.793   0.453  14.472
53076W        W12337  26.579  13.631  14.779
53077W        W12338  24.493  17.714   1.327
53078W        W12339  22.598  43.933   9.956
53079W        W12340  18.106   5.348  13.932
53080W        W12341  25.052  20.172   3.338
53081W        W12342   3.322  44.398   1.856
53082W        W12343  43.387  27.069   3.379
53083W        W12344  35.880  35.932  13.512
53084W        W12345  32.417  16.298   1.701
53085W        W12346   8.676  24.524   2.338
53086W        W12347   3.814  32.414  11.898
53087W        W12348  17.778  44.286   4.693
53088W        W12349  11.268  33.436   4.780
53089W        W12350  20.209  23.004  11.461
53090W        W12351   7.304  37.451  11.586
53091W        W12352  15.209  40.453   2.728
53092W        W12353  42.312  38.959  11.001
53093W        W12354  44.289   6.202  11.070
53094W        W12355   2.264   8.763  13.323
53095W        W12356  36.484  35.036   0.898
53096W        W12357  19.644  11.337   3.669
53097W        W12358  23.206  16.732  11.530
53098W        W12359  38.870  23.631  13.337
53099W        W12360  29.080  36.054   1.886
53100W        W12361   1.324  21.653  13.540
53101W        W12362  11.796  27.120  14.996
53102W        W12363  11.222  21.212  13.469
53103W        W12364  25.493  19.553   4.268
53104W        W12365  29.041   8.855  11.407
53105W        W12366  18.601  26.644  14.951
53106W        W12367  44.878   0.385  14.343
53107W        W12368  37.507  18.212   4.775
53108W        W12369  30.922  18.647  11.562
53109W        W12370  29.972  38.061  14.486
53110W        W12371  21.239  22.645   2.214
53111W        W12372  20.757  28.178  10.643
53112W        W12373  34.467  33.127   2.847
53113W        W12374  17.184  31.568  10.436
53114W        W12375  12.298  27.561   3.268
53115W        W12376  36.924  32.554   0.330
53116W        W12377  41.518  19.579  10.468
53117W        W12378  31.402  13.688   4.771
53118W        W12379  23.609  18.104  14.413
53119W        W12380  28.025  31.983   5.238
53120W        W12381  24.661   6.207   2.253
53121W        W12382  35.376   0.946   0.838
53122W        W12383  41.363  38.011  11.581
53123W        W12384  30.412  20.591   2.206
53124W        W12385  28.607   0.789  11.552
53125W        W12386  36.462  44.436   3.182
53126W        W12387  24.686   2.774   4.120
53127W        W12388  24.217  32.501   1.371
53128W        W12389  22.637  19.631  10.135
53129W        W12390  14.123  25.608  14.927
53130W        W12391  30.048  37.502   4.773
53131W        W12392  41.430  19.119  13.853
53132W        W12393  18.586  15.579  11.591
53133W        W12394  22.555   2.292  13.009
53134W        W12395  30.109  37.486  14.831
53135W        W12396  19.643  42.793  12.459
53136W        W12397   3.900  11.712  12.096
53137W        W12398  35.374  21.100   1.705
53138W        W12399   3.924  38.943  12.578
53139W        W12400  41.022   5.910   3.682
53140W        W12401  32.929  39.815  14.437
53141W        W12402   8.329  27.568  13.477
53142W        W12403   7.186  38.458   2.289
53143W        W12404  37.884   5.743   3.645
53144W        W12405  30.657   4.241   2.323
53145W        W12406   6.385  44.993   1.775
53146W        W12407  14.618  33.467  13.528
53147W        W12408  42.784  21.059   0.820
53148W        W12409  41.501  18.145  12.545
53149W        W12410  17.777  43.304  12.379
53150W        W12411  37.958  42.021   2.807
53151W        W12412   0.822  13.202   4.777
53152W        W12413  12.692  13.697   3.167
53153W        W12414  13.211  39.528  12.435
53154W        W12415  21.531  23.570   0.245
53155W        W12416  32.943  36.495   1.278
53156W        W12417   0.812  12.303   1.244
53157W        W12418   6.234  23.610  14.397
53158W        W12419   9.781  33.590   2.765
53159W        W12420   6.763  15.784   0.904
53160W        W12421   3.875  12.834   0.382
53161W        W12422   3.924  44.940  12.069
53162W        W12423  20.578  24.699  13.499
53163W        W12424  21.548   9.152  13.485
53164W        W12425  40.037   0.967  12.495
53165W        W12426  35.406  21.623  12.973
53166W        W12427  36.590  39.916  12.482
53167W        W12428  13.686  17.665  14.828
53168W        W12429  23.103   1.860   2.665
53169W        W12430   2.444   5.867   2.327
53170W        W12431   5.875  27.057   1.862
53171W        W12432  34.105  14.192  12.557
53172W        W12433  35.980  38.343   3.153
53173W        W12434  10.693   4.715   2.789
53174W        W12435  15.280  40.805  14.828
53175W        W12436  24.973   7.192  14.991
53176W        W12437  36.049   8.723   0.811
53177W        W12438  13.257  33.486  11.421
53178W        W12439  19.274   9.250   3.687
53179W        W12440  26.698  16.741   1.336
53180W        W12441  33.452   6.370   4.200
53181W        W12442  18.222  18.734  12.085
53182W        W12443  16.184  17.561   1.831
53183W        W12444  12.645  13.281  13.495
53184W        W12445  38.419  39.943   1.880
53185W        W12446  11.768  15.631   3.266
53186W        W12447  15.644  24.179  14.953
53187W        W12448   2.728   0.900   2.290
53188W        W12449  31.510  16.641  13.937
53189W        W12450   7.690  44.262  14.930
53190W        W12451  26.085   0.446   0.815
53191W        W12452  23.559  20.614   3.724
53192W        W12453  12.636  26.006   0.953
53193W        W12454   2.343  40.360  12.895
53194W        W12455  39.899   7.376  12.559
53195W        W12456  44.968  28.993  14.511
53196W        W12457   4.234  10.235   2.236
53197W        W12458  19.242   5.380  14.000
53198W        W12459   4.747  17.652   5.208
53199W        W12460   9.347  42.404  11.080
53200W        W12461  13.661  40.459  13.532
53201W        W12462  18.107  30.544  13.844
53202W        W12463  31.499  27.015  12.557
53203W        W12464  21.168  23.089  14.007
53204W        W12465  21.713   1.250   2.348
53205W        W12466   6.808  42.911   2.358
53206W        W12467   9.740  15.804  12.847
53207W        W12468  13.182  18.247   1.219
53208W        W12469  19.766  11.768  14.369
53209W        W12470   0.251  42.288   0.917
53210W        W12471  39.821  31.433   3.658
53211W        W12472  21.037   3.823   3.167
53212W        W12473  21.557  23.238   4.623
53213W        W12474   0.778  35.591  11.065
53214W        W12475  42.312   8.715  11.950
53215W        W12476  31.926   5.731   0.291
53216W        W12477  24.119  16.665  11.504
53217W        W12478  29.441  25.672   4.345
53218W        W12479  17.267  13.735   2.345
53219W        W12480  33.070  40.898  14.493
53220W        W12481   7.318  34.115  13.926
53221W        W12482  11.258  26.202   0.360
53222W        W12483  16.268  20.662  13.448
53223W        W12484  24.105   2.808   2.245
53224W        W12485  17.067  16.705   0.356
53225W        W12486  23.120   0.814  14.993
53226W        W12487  34.108   8.361   1.869
53227W        W12488  27.668  40.849  12.004
53228W        W12489  33.106  38.348   1.252
53229W        W12490  18.620  26.169  12.462
53230W        W12491   0.330  21.213   2.873
53231W        W12492  40.327  43.473  10.614
53232W        W12493  43.467  28.053   4.334
53233W        W12494  12.714   7.721  11.975
53234W        W12495  41.469   6.372  11.397
53235W        W12496  17.601  42.300   4.266
53236W        W12497  33.078  14.795   3.674
53237W        W12498  29.549  28.004   3.864
53238W        W12499  30.996  28.579  14.882
53239W        W12500   6.900   5.236  12.547
53240W        W12501   9.647  23.197  12.344
53241W        W12502  25.036  20.699   4.179
53242W        W12503  16.229  43.858   0.420
53243W        W12504   4.412   2.879  10.493
53244W        W12505  28.617   8.362   0.857
53245W        W12506  19.175  38.430   2.833
53246W        W12507   1.476  29.572  13.832
53247W        W12508  10.860  37.855  12.982
53248W        W12509  15.261  23.060   1.286
53249W        W12510  16.659  20.609  10.038
53250W        W12511  36.938  27.625   2.847
53251W        W12512  13.674  13.238  11.421
53252W        W12513  16.241   2.956   1.907
53253W        W12514  24.999  43.010  10.990
53254W        W12515  30.507  17.706  11.088
53255W        W12516   5.343  27.516   3.748
53256W        W12517   6.875   7.310   4.800
53257W        W12518   9.165  28.972   1.744
53258W        W12519  13.722  31.012  11.496
53259W        W12520  24.001  17.062   2.186
53260W        W12521  20.632   6.735  13.976
53261W        W12522   2.813   9.210   4.652
53262W        W12523  17.560  18.745  12.901
53263W        W12524  13.280  24.590   2.723
53264W        W12525  13.205  31.601  12.026
53265W        W12526  16.769   1.957   2.372
53266W        W12527  40.870  13.844   4.154
53267W        W12528  23.612   6.920   3.825
53268W        W12529  20.204   7.883  12.922
53269W        W12530  26.083  16.769   3.212
53270W        W12531   6.424   1.450   3.177
53271W        W12532  27.532  29.997   4.784
53272W        W12533  19.611  15.713   0.270
53273W        W12534  27.484   6.697   4.210
53274W        W12535   0.453  36.841   3.840
53275W        W12536  20.688  10.144   4.213
53276W        W12537  44.496  29.568  10.575
53277W        W12538  30.910  29.557  11.944
53278W        W12539  35.414   5.851  13.533
53279W        W12540  20.218  43.430  14.837
53280W        W12541  44.385  22.030  10.985
53281W        W12542  27.457  23.050  10.631
53282W        W12543  15.143  22.513   4.703
53283W        W12544  10.183   4.358   0.807
53284W        W12545   0.281   3.344  12.413
53285W        W12546   3.342  15.677   1.274
53286W        W12547   1.470  39.426  12.919
53287W        W12548  36.902  41.897  13.915
53288W        W12549  23.518  17.765  10.893
53289W        W12550  27.003  29.433  12.829
53290W        W12551  31.445  21.659   2.785
53291W        W12552  33.084  38.935   0.382
53292W        W12553  41.387  36.438   1.790
53293W        W12554  28.640  41.327   1.787
53294W        W12555   4.794  32.435  10.908
53295W        W12556  13.243   0.781   4.332
53296W        W12557  17.568  17.252  14.363
53297W        W12558  26.152  31.428  14.977
53298W        W12559  17.801  44.939  12.941
53299W        W12560   8.242  40.540  13.466
53300W        W12561   8.830   3.267  14.988
53301W        W12562  35.498  11.806  14.312
53302W        W12563  42.901  41.019  14.911
53303W        W12564  38.877  43.917  10.963
53304W        W12565  10.185  16.685   0.466
53305W        W12566  43.772  31.992   4.606
53306W        W12567  28.491  39.978  10.465
53307W        W12568   6.182  29.648   0.361
53308W        W12569  17.727   1.274   3.215
53309W        W12570   1.263  40.434   3.788
53310W        W12571   2.854   8.271  13.934
53311W        W12572  41.919  19.194   1.781
53312W        W12573  20.120   3.864   2.297
53313W        W12574  32.462   9.237  13.906
53314W        W12575  21.690  20.535  10.984
53315W        W12576  12.677  20.161  11.032
53316W        W12577  12.242  27.079  11.441
53317W        W12578  42.499  34.099   0.242
53318W        W12579  39.476  21.185   2.828
53319W        W12580  42.413  12.248   2.698
53320W        W12581   9.223  19.094  13.364
53321W        W12582  30.017  33.095  14.281
53322W        W12583  15.145  41.873   0.809
53323W        W12584  24.486   0.383  10.447
53324W        W12585   1.777  10.674   1.258
53325W        W12586   0.855  25.118   0.852
53326W        W12587  23.665  43.386   4.354
53327W        W12588  24.976   3.313   1.699
53328W        W12589  36.366  39.471  10.989
53329W        W12590   3.418   9.349   3.293
53330W        W12591  21.644  36.480  12.026
53331W        W12592  10.655   9.337  14.853
53332W        W12593   8.660   1.453   0.395
53333W        W12594  28.141  44.363  14.341
53334W        W12595   1.733  24.062  13.501
53335W        W12596  12.767  30.615   2.863
53336W        W12597  44.948  37.830  13.453
53337W        W12598  28.592   2.895   5.232
53338W        W12599  29.521  19.760   2.720
53339W        W12600  12.128  44.920   1.727
53340W        W12601  15.733  26.091   4.324
53341W        W12602   2.280  25.030   1.727
53342W        W12603  11.762  34.540  11.087
53343W        W12604  36.545   2.799   0.747
53344W        W12605  16.225  35.412  13.825
53345W        W12606  14.314  14.314  10.448
53346W        W12607  28.024   7.285   1.309
53347W        W12608  10.230   0.773   4.245
53348W        W12609  44.322  23.060   1.376
53349W        W12610   1.757  24.683  14.372
53350W        W12611  18.709  39.469  10.629
53351W        W12612   7.202  33.580  13.062
53352W        W12613  29.541  16.078   4.628
53353W        W12614  16.113  11.319  14.316
53354W        W12615   4.929  33.401   0.393
53355W        W12616  44.262   1.467   1.441
53356W        W12617  29.039  42.841  13.957
53357W        W12618  41.483  15.665  14.303
53358W        W12619  37.462  26.668  10.461
53359W        W12620  40.490  30.103  14.848
53360W        W12621  21.591  14.699  12.353
53361W        W12622  24.599  19.258   1.380
53362W        W12623  15.627  32.969  13.056
53363W        W12624   4.814   1.789   1.387
53364W        W12625  22.530  18.767  11.070
53365W        W12626  33.550   3.873  14.931
53366W        W12627   6.323  38.904  14.928
53367W        W12628  40.391  12.269   0.850
53368W        W12629  30.945  41.904  13.846
53369W        W12630  10.670  27.127  14.284
53370W        W12631  23.240  16.623   2.787
53371W        W12632   2.848  17.148  10.595
53372W        W12633   3.874  15.177   2.343
53373W        W12634  37.005  17.182  10.539
53374W        W12635  38.329   3.307  14.978
53375W        W12636   1.356  18.101   0.842
53376W        W12637  40.514  13.215  12.480
53377W        W12638  20.217  25.097  12.908
53378W        W12639   0.956   8.294   2.838
53379W        W12640  28.644  42.311   0.311
53380W        W12641  17.305  27.987  11.960
53381W        W12642   8.714   9.171  10.520
53382W        W12643  18.748  44.441  10.055
53383W        W12644  10.374  24.075  14.298
53384W        W12645  33.428  16.665   1.230
53385W        W12646   6.267  21.218  14.322
53386W        W12647  42.515  17.737   3.263
53387W        W12648   0.980   9.378  12.914
53388W        W12649  20.686  36.361   2.376
53389W        W12650  22.695   1.334   2.831
53390W        W12651  37.917  23.659  14.029
53391W        W12652  33.920  25.470   3.228
53392W        W12653  36.857  35.986  11.479
53393W        W12654  10.263   4.782  10.628
53394W        W12655   1.346  29.005  12.042
53395W        W12656  36.387  20.734   1.403
53396W        W12657  11.366  21.165  12.501
53397W        W12658  19.239  10.374  12.901
53398W        W12659  11.193  36.589  12.430
53399W        W12660  17.305  36.993  14.895
53400W        W12661  16.741  21.230   2.765
53401W        W12662  11.146  13.269  12.950
53402W        W12663  17.226  15.324   3.257
53403W        W12664   8.704  26.681  12.563
53404W        W12665   3.321  22.551   1.382
53405W        W12666  25.691  25.492   2.807
53406W        W12667  29.490  10.148   5.316
53407W        W12668  29.037   7.293   4.281
53408W        W12669  23.605   3.311   0.798
53409W        W12670   9.715   5.273   5.275
53410W        W12671  40.522  26.019   2.870
53411W        W12672   1.348  30.125   1.261
53412W        W12673  17.143  27.449  14.302
53413W        W12674  20.128  11.794   1.756
53414W        W12675  12.324  12.636  11.435
53415W        W12676  39.464  20.665  10.891
53416W        W12677  14.800  15.173   0.381
53417W        W12678  26.137  41.292  13.859
53418W        W12679  21.513  32.047   3.776
53419W        W12680  28.585  37.832   0.478
53420W        W12681  25.101  27.559   4.275
53421W        W12682  30.421  42.011   0.952
53422W        W12683   8.783  39.429  12.085
53423W        W12684  43.770  26.502  14.313
53424W        W12685  29.960  17.794   0.737
53425W        W12686  24.185  42.895   2.348
53426W        W12687   5.849   6.706  11.935
53427W        W12688   7.257  37.365  10.520
53428W        W12689  33.054  18.619   4.615
53429W        W12690   6.790  28.642  12.094
53430W        W12691  16.083  33.596  14.424
53431W        W12692  19.598  36.986   1.447
53432W        W12693  31.412   6.873   2.286
53433W        W12694  13.718  20.241   3.303
53434W        W12695  23.071  18.183  12.552
53435W        W12696  11.261  33.538   2.251
53436W        W12697   0.419  16.628  11.926
53437W        W12698  44.456  43.885   0.247
53438W        W12699  37.363  41.797   2.734
53439W        W12700  10.707  25.022   5.176
53440W        W12701  17.800  25.074   0.907
53441W        W12702  18.198  42.977   2.316
53442W        W12703  32.894  17.721  14.504
53443W        W12704  11.853  37.369  10.535
53444W        W12705  34.380   7.227  11.937
53445W        W12706  29.935  13.130  10.956
53446W        W12707  43.006   9.371   0.926
53447W        W12708   6.720   9.234  13.840
53448W        W12709  23.198   8.776  12.886
53449W        W12710  25.128  11.247   4.604
53450W        W12711  43.905   2.438  14.800
53451W        W12712  21.214  26.079   2.193
53452W        W12713  14.187  19.558  13.525
53453W        W12714   2.940  15.656   4.302
53454W        W12715  11.275  36.981   1.289
53455W        W12716   3.426   9.814   3.302
53456W        W12717  17.660  38.422  10.911
53457W        W12718  30.007   5.215   4.121
53458W        W12719  26.485   4.253   3.713
53459W        W12720   4.261  32.101   2.801
53460W        W12721  39.828   6.761   0.818
53461W        W12722   6.406  40.950  12.893
53462W        W12723  27.496  29.498  11.522
53463W        W12724  34.989   5.242  11.984
53464W        W12725  18.603  43.001  13.804
53465W        W12726  28.132   2.400  10.579
53466W        W12727  11.245  14.180  13.838
53467W        W12728  39.515  33.600   4.245
53468W        W12729  24.220  34.479   0.324
53469W        W12730   2.731  27.085  13.369
53470W        W12731   4.790  36.350   1.450
53471W        W12732  16.589  15.743  10.942
53472W        W12733  33.527  34.082  13.795
53473W        W12734   6.213  41.531  11.564
53474W        W12735  31.078  44.342   2.357
53475W        W12736   7.398   1.886   2.859
53476W        W12737   2.778   8.188   2.897
53477W        W12738  43.777   8.845   3.732
53478W        W12739   8.812  15.633   4.185
53479W        W12740  11.238  15.639   3.661
53480W        W12741  17.781  36.452  14.422
53481W        W12742  38.377  30.083  14.976
53482W        W12743  20.080  36.975  11.415
53483W        W12744   3.857  44.834   0.471
53484W        W12745   6.312  19.717   3.635
53485W        W12746  32.984   0.984   1.235
53486W        W12747  38.828  40.501  14.775
53487W        W12748  42.946   3.458  12.066
53488W        W12749   8.232  23.685   4.263
53489W        W12750  27.998  18.140  12.063
53490W        W12751   8.372  17.100   2.318
53491W        W12752  25.022  12.328   3.386
53492W        W12753  21.637   0.987  11.513
53493W        W12754  43.851  36.876  10.643
53494W        W12755  15.214  31.900   2.279
53495W        W12756  10.366  38.467  10.945
53496W        W12757  39.391  10.845  12.085
53497W        W12758  25.591  38.522   2.250
53498W        W12759  11.296   6.778  12.061
53499W        W12760  42.829  15.302  11.105
53500W        W12761  22.157  42.975  11.398
53501W        W12762  34.104  29.058   3.857
53502W        W12763   5.293  28.458   0.939
53503W        W12764  19.625  13.674   4.731
53504W        W12765  24.609  19.571  14.990
53505W        W12766  38.897   9.837  14.344
53506W        W12767  29.427  39.834   2.256
53507W        W12768   0.409  43.808  11.104
53508W        W12769  17.748  29.542  13.924
53509W        W12770  40.469  14.295  10.589
53510W        W12771  15.321  30.976   2.865
53511W        W12772  42.825  40.890  12.487
53512W        W12773   1.360  32.481  10.521
53513W        W12774  25.692  21.677   4.697
53514W        W12775   7.696  29.121   1.788
53515W        W12776   6.346  35.946  12.436
53516W        W12777  26.646  34.924   3.717
53517W        W12778  14.101  37.894  14.291
53518W        W12779  39.479   7.787  11.017
53519W        W12780   1.971   9.260  12.060
53520W        W12781  38.412  11.222  12.901
53521W        W12782  16.762  37.957  11.897
53522W        W12783   8.294  10.179   4.625
53523W        W12784  36.997  39.843  11.977
53524W        W12785  22.057   3.860  13.373
53525W        W12786  42.306   5.742  11.881
53526W        W12787   7.903  22.202  12.897
53527W        W12788  32.947   0.487   0.287
53528W        W12789  24.581  19.685  11.887
53529W        W12790  33.949  19.637   3.813
53530W        W12791   7.910  27.133   0.727
53531W        W12792  43.784   5.705  13.946
53532W        W12793  35.547   6.861   1.874
53533W        W12794  17.145  12.847   2.287
53534W        W12795  41.470  16.580  13.352
53535W        W12796  25.484  11.225  14.973
53536W        W12797  33.567   4.808  10.539
53537W        W12798  21.623   8.390  11.910
53538W        W12799  34.042  25.151   5.291
53539W        W12800  42.982  38.911   4.692
53540W        W12801  33.002   9.265   3.260
53541W        W12802  15.686  26.474   9.665
53542W        W12803  16.568  20.155   0.415
53543W        W12804  33.421  27.036  13.394
53544W        W12805  17.600  29.137   1.933
53545W        W12806  31.010  10.664   0.804
53546W        W12807  30.470   4.409  11.962
53547W        W12808  22.209  13.794   2.194
53548W        W12809  17.216   0.958   3.700
53549W        W12810   0.305  36.548   0.872
53550W        W12811  42.942  17.788  11.495
53551W        W12812  30.608   6.357   4.351
53552W        W12813  37.542  17.667  10.999
53553W        W12814  36.881  36.479   0.338
53554W        W12815  42.341  24.542  11.006
53555W        W12816   4.914   6.917   2.187
53556W        W12817  22.191  21.098  14.440
53557W        W12818  13.616  17.157  11.856
53558W        W12819   4.210  43.928  13.805
53559W        W12820  16.775   1.465  13.533
53560W        W12821  26.567  22.582  14.442
53561W        W12822  13.255  39.406  11.607
53562W        W12823  21.553   6.729   3.223
53563W        W12824  21.552  40.900   4.717
53564W        W12825  16.307  12.341  12.975
53565W        W12826  29.431  10.153   1.818
53566W        W12827  13.809  39.033   1.752
53567W        W12828  30.620  32.006   4.623
53568W        W12829   7.829  17.592  14.770
53569W        W12830   2.420  26.485   2.332
53570W        W12831  16.719   6.366  10.968
53571W        W12832  29.942  31.092   3.341
53572W        W12833   3.348  26.020  12.934
53573W        W12834  13.697  15.709   2.343
53574W        W12835  20.158  10.228  14.313
53575W        W12836  29.004  22.738   3.298
53576W        W12837  10.797  42.845  13.336
53577W        W12838  44.283  22.148  10.608
53578W        W12839  19.204   1.356  14.457
53579W        W12840  27.542  14.751  10.893
53580W        W12841   6.288  43.811  12.080
53581W        W12842  28.018  38.007   0.917
53582W        W12843  34.042   2.738   4.764
53583W        W12844   3.728  11.706   0.953
53584W        W12845  35.586  27.566   1.340
53585W        W12846  10.873  13.251   3.219
53586W        W12847  12.343   1.819  12.843
53587W        W12848   2.914  31.925   0.468
53588W        W12849  26.111  38.979  10.511
53589W        W12850  39.064  20.251  10.023
53590W        W12851  11.148  13.335   2.363
53591W        W12852  17.600  12.800   1.704
53592W        W12853   0.885  39.831  13.544
53593W        W12854  29.651  39.032   1.277
53594W        W12855  17.753  11.780   0.750
53595W        W12856  16.305  21.756  14.967
53596W        W12857  16.115   5.859  14.313
53597W        W12858  22.613  27.652   1.932
53598W        W12859  13.756  42.873  11.868
53599W        W12860  10.226  15.099  12.340
53600W        W12861  18.231  11.852   4.217
53601W        W12862  14.592  41.808  12.518
53602W        W12863  27.058   2.886   5.691
53603W        W12864  37.935  16.753   1.733
53604W        W12865  27.024  19.586   2.724
53605W        W12866   9.768   3.390   0.268
53606W        W12867  33.069  39.031   4.621
53607W        W12868  18.157  16.711  14.452
53608W        W12869   7.304   6.756   3.679
53609W        W12870  40.950  23.560  11.106
53610W        W12871  23.056  33.585  14.332
53611W        W12872  21.032  33.560   1.245
53612W        W12873  23.680  34.026   0.276
53613W        W12874   0.296  21.741  10.633
53614W        W12875  32.500  35.453  11.887
53615W        W12876  21.210  13.673   0.859
53616W        W12877  21.750  11.768  13.815
53617W        W12878  14.308  20.224   2.694
53618W        W12879  37.957  44.886  13.347
53619W        W12880  22.210  35.109   3.321
53620W        W12881  30.436  40.798   4.122
53621W        W12882  24.653  25.614  13.405
53622W        W12883  39.464   1.793   4.672
53623W        W12884  20.054  36.029  14.332
53624W        W12885  33.398   3.895  12.424
53625W        W12886   9.792  30.055   0.250
53626W        W12887  44.286   5.382   4.308
53627W        W12888  40.544  11.627   4.263
53628W        W12889  33.948   5.744  10.521
53629W        W12890  22.104  36.520  10.980
53630W        W12891  29.493  24.165   2.710
53631W        W12892  40.390  38.350   1.333
53632W        W12893  30.974  16.245   0.770
53633W        W12894  44.462  19.579  12.066
53634W        W12895   5.710  21.231  14.480
53635W        W12896  32.481  18.226  12.027
53636W        W12897   7.233  31.611   0.456
53637W        W12898  40.413  26.981  11.004
53638W        W12899  12.341  12.320   2.345
53639W        W12900  17.727  18.079   5.294
53640W        W12901  44.898  22.576   4.219
53641W        W12902  31.143  21.209  10.131
53642W        W12903   7.331  41.334  13.865
53643W        W12904   9.208  39.382   3.381
53644W        W12905   7.232  30.124   1.295
53645W        W12906  10.319  43.915   2.360
53646W        W12907  19.104  42.350   2.733
53647W        W12908  19.114  31.971  14.955
53648W        W12909  17.086   5.891   2.355
53649W        W12910  22.609  34.040  13.418
53650W        W12911  21.663  24.225  12.876
53651W        W12912  35.570   7.706  14.513
53652W        W12913   0.917  29.612   2.892
53653W        W12914  17.158   1.317  13.544
53654W        W12915   4.720  18.738   3.640
53655W        W12916  36.906   8.318  12.547
53656W        W12917   1.922  10.766  14.918
53657W        W12918   0.920  28.663   0.843
53658W        W12919  30.149  30.652   1.813
53659W        W12920  28.575  26.022  11.473
53660W        W12921  11.769  42.925  13.936
53661W        W12922  25.577   6.248  13.515
53662W        W12923  43.393  24.597   0.320
53663W        W12924   3.781  41.014   0.365
53664W        W12925  23.045  39.540   0.280
53665W        W12926   2.334  12.326   3.159
53666W        W12927  25.566  17.625   0.405
53667W        W12928  17.714  18.679  12.478
53668W        W12929  15.160  42.801   0.893
53669W        W12930  28.972  19.040   4.685
53670W        W12931  15.671  27.676  12.449
53671W        W12932  21.621  31.084  11.102
53672W        W12933  18.699  39.335  13.448
53673W        W12934   4.353  25.528  11.023
53674W        W12935  43.276  32.002  10.509
53675W        W12936  12.183  24.978   3.302
53676W        W12937  14.172  20.099  14.806
53677W        W12938   0.961  38.450   3.734
53678W        W12939  32.599  20.260  13.465
53679W        W12940  20.645  44.914  12.059
53680W        W12941  10.795  32.084  14.422
53681W        W12942  14.627  14.156  10.522
53682W        W12943  10.336  28.468   1.846
53683W        W12944   8.233  13.615  13.825
53684W        W12945  27.965  24.491  12.408
53685W        W12946  44.367  32.469   4.614
53686W        W12947  17.680  19.678   3.201
53687W        W12948  13.708   5.390   3.340
53688W        W12949   9.248  20.608  12.366
53689W        W12950  34.087  33.606   1.365
53690W        W12951  43.278  31.995  11.958
53691W        W12952   2.407   2.260   1.338
53692W        W12953  30.917  23.611  12.537
53693W        W12954   5.913  13.739   2.670
53694W        W12955  25.612  17.178  11.426
53695W        W12956  41.365  14.134  12.072
53696W        W12957  30.970  27.126  11.373
53697W        W12958  24.495  43.365   0.325
53698W        W12959  33.984  20.729   1.901
53699W        W12960   8.720  27.180  14.290
53700W        W12961   5.719  30.148   1.274
53701W        W12962  29.533  18.271  10.132
53702W        W12963  34.409  20.750   3.636
53703W        W12964   4.739  31.128   2.365
53704W        W12965   8.684  21.735  12.968
53705W        W12966  33.556  18.287  13.536
53706W        W12967  29.136  35.058   0.921
53707W        W12968   6.893   7.748   4.789
53708W        W12969  39.409  31.503  12.355
53709W        W12970  25.611  39.044  11.612
53710W        W12971   3.782  35.509  14.357
53711W        W12972  43.767   8.217  11.942
53712W        W12973  29.979   7.679  13.467
53713W        W12974  39.817  14.110  12.565
53714W        W12975  21.740  38.885  11.584
53715W        W12976   5.701  44.895   1.816
53716W        W12977  14.228  40.015  10.002
53717W        W12978  29.576  41.394  11.515
53718W        W12979  43.830  23.526   1.813
53719W        W12980  12.772  17.651  14.005
53720W        W12981  38.392   2.226  14.961
53721W        W12982   4.883   1.781   0.473
53722W        W12983  39.390  43.986   4.161
53723W        W12984  34.067  18.284  14.933
53724W        W12985  38.958  41.790  13.982
53725W        W12986  44.810  15.205   3.224
53726W        W12987  36.554   0.985  11.425
53727W        W12988  38.388  31.120   1.762
53728W        W12989  18.134   9.235  13.395
53729W        W12990  22.084  19.094  14.805
53730W        W12991   0.297  31.525  11.083
53731W        W12992  28.030  16.203  13.057
53732W        W12993  36.086  24.528   3.747
53733W        W12994   6.197  42.424   2.273
53734W        W12995   0.428  25.068  13.528
53735W        W12996   4.420  35.377  12.982
53736W        W12997  43.974  31.031  13.845
53737W        W12998  22.584  21.155  11.027
53738W        W12999  22.733  29.063  12.061
53739W        W13000  24.606  27.589   4.275
53740W        W13001   0.954   3.259  13.376
53741W        W13002   6.419   5.899  13.870
53742W        W13003  43.877  34.393   0.386
53743W        W13004  39.397  24.492  14.980
53744W        W13005  35.947   8.808   3.294
53745W        W13006  25.074  40.915   1.212
53746W        W13007  39.329  28.438   0.333
53747W        W13008   8.269   6.792  12.966
53748W        W13009  13.791   8.676   2.791
53749W        W13010  27.552   0.804   0.759
53750W        W13011  43.920   2.244  12.984
53751W        W13012  26.952  28.171  14.834
53752W        W13013  19.256   9.730  12.062
53753W        W13014  31.052  40.952   2.271
53754W        W13015   9.854  27.576   2.291
53755W        W13016  18.173  39.384  11.110
53756W        W13017  19.166  31.570  13.811
53757W        W13018  31.980  16.298   1.785
53758W        W13019  13.756  35.478   4.330
53759W        W13020  43.788  38.844   9.989
53760W        W13021  38.382  41.403   3.837
53761W        W13022   0.779   1.460  11.009
53762W        W13023  10.230   4.886   0.864
53763W        W13024  12.167  29.565  14.435
53764W        W13025  37.055  13.324   1.785
53765W        W13026   6.305  11.625  13.969
53766W        W13027  33.934  29.061  14.923
53767W        W13028   9.725  13.763   3.820
53768W        W13029  27.074   3.287   4.346
53769W        W13030  36.490  43.412   2.756
53770W        W13031  23.653  10.357   1.322
53771W        W13032  35.992  11.166   9.537
53772W        W13033  13.608  30.629  14.502
53773W        W13034  13.303   6.286   0.836
53774W        W13035  12.729  38.997  12.874
53775W        W13036  30.012  32.586   5.213
53776W        W13037  38.871  22.240   0.955
53777W        W13038  34.613  11.757   1.261
53778W        W13039  10.830   2.747  10.491
53779W        W13040  35.008  16.716  10.533
53780W        W13041  30.497  29.070   3.322
53781W        W13042   2.376  19.047  11.899
53782W        W13043  19.757  22.516   4.755
53783W        W13044  17.169  40.848  13.844
53784W        W13045   8.772  34.579   3.815
53785W        W13046  23.634  17.253  10.630
53786W        W13047   6.223  22.070  13.524
53787W        W13048  21.241   8.235   4.136
53788W        W13049  20.063  34.979   9.926
53789W        W13050  22.180  42.511  13.976
53790W        W13051   6.224  30.136  14.323
53791W        W13052  36.045  38.428   3.862
53792W        W13053  11.248  29.057  12.406
53793W        W13054  29.651  44.271   1.394
53794W        W13055  24.216  13.607  14.779
53795W        W13056   5.789  25.128  12.351
53796W        W13057  20.606   1.370  12.851
53797W        W13058  23.113  42.429   1.889
53798W        W13059  29.500  18.144  11.088
53799W        W13060  17.185  28.574   3.238
53800W        W13061  41.912   8.753   2.809
53801W        W13062  37.971  13.271  14.406
53802W        W13063  16.671   7.684  10.921
53803W        W13064   6.889   1.977   4.256
53804W        W13065  28.947  42.916   2.195
53805W        W13066  44.275  15.177  10.974
53806W        W13067   8.400   8.352   2.810
53807W        W13068  31.896   2.803   4.743
53808W        W13069   4.768   2.253  12.963
53809W        W13070  24.004  29.488  14.951
53810W        W13071  43.977   3.916   3.151
53811W        W13072   6.252  28.608   3.861
53812W        W13073  23.546  20.162   4.711
53813W        W13074  29.086  44.939  11.922
53814W        W13075   0.927   4.418   0.900
53815W        W13076   8.196  31.038   3.185
53816W        W13077  25.104   3.894  13.900
53817W        W13078   0.424  35.039   0.854
53818W        W13079  33.586  28.967  14.954
53819W        W13080   4.237   8.851   0.286
53820W        W13081  33.442  26.096  12.437
53821W        W13082  17.062  20.234   2.883
53822W        W13083   7.353  39.862  14.475
53823W        W13084  29.922  20.574   2.336
53824W        W13085   6.892  12.360  11.113
53825W        W13086  13.176  15.242   4.708
53826W        W13087  28.634  32.575  14.420
53827W        W13088   2.460   9.672  14.813
53828W        W13089   2.951   2.245  14.976
53829W        W13090  30.920  23.113  12.880
53830W        W13091  19.100   2.833   2.258
53831W        W13092  37.014  19.655  13.507
53832W        W13093   4.832  28.556   0.925
53833W        W13094  44.402  38.005  10.506
53834W        W13095  19.043  38.542  11.087
53835W        W13096   4.780  18.561   1.222
53836W        W13097   4.246  17.770   2.283
53837W        W13098  30.087  43.971   4.819
53838W        W13099   8.332  16.613  12.035
53839W        W13100  15.745  40.337  13.478
53840W        W13101   3.266  21.699  12.554
53841W        W13102  33.879  14.285   2.733
53842W        W13103   8.729  41.308  11.418
53843W        W13104  32.545  28.938   1.365
53844W        W13105  39.946  32.627  11.014
53845W        W13106  17.737  23.996   2.848
53846W        W13107  13.767   2.800   1.859
53847W        W13108   9.353  40.544   1.831
53848W        W13109  27.067  32.604  13.334
53849W        W13110   8.198   3.417   1.322
53850W        W13111  34.003  40.342   3.714
53851W        W13112   0.268  36.504  14.419
53852W        W13113   1.419  17.087  12.489
53853W        W13114  21.725  26.670  12.488
53854W        W13115  36.865  22.057  14.810
53855W        W13116   5.336  38.534   0.353
53856W        W13117  13.790  15.285  12.919
53857W        W13118   5.789  44.940  11.891
53858W        W13119  10.650  18.264   1.915
53859W        W13120  15.709  30.538  11.112
53860W        W13121  35.014  16.100  10.548
53861W        W13122  31.938   1.848  12.894
53862W        W13123   5.298  24.158  12.020
53863W        W13124  40.461  30.157  13.534
53864W        W13125  12.834  13.609   1.877
53865W        W13126  35.374  24.550   4.317
53866W        W13127  17.788   9.659  13.010
53867W        W13128  20.060  17.570   2.313
53868W        W13129  18.695  34.388   3.753
53869W        W13130  43.936  36.420   0.277
53870W        W13131   7.857  20.680   4.706
53871W        W13132   1.860   3.266  13.823
53872W        W13133  18.584  29.052   4.178
53873W        W13134   5.701  20.733  11.913
53874W        W13135  18.553  26.537  12.340
53875W        W13136   6.376  11.718   4.163
53876W        W13137  12.231  29.952  11.492
53877W        W13138   4.909   6.761   3.243
53878W        W13139  31.149  11.848  13.825
53879W        W13140  27.957  19.563  11.984
53880W        W13141  36.926  25.981  11.422
53881W        W13142  20.695   5.815   3.810
53882W        W13143  28.186   9.177  13.062
53883W        W13144  15.096   6.873  14.807
53884W        W13145  20.060  10.233   1.294
53885W        W13146   0.405  17.710   1.304
53886W        W13147  10.761  41.894   4.168
53887W        W13148  33.540   3.881   0.383
53888W        W13149  39.051  21.154  11.406
53889W        W13150  23.598  15.808   0.391
53890W        W13151   5.406  30.442  10.457
53891W        W13152   1.806   0.373   4.633
53892W        W13153  19.056  18.283   2.319
53893W        W13154  14.212  34.036  12.932
53894W        W13155  31.462  40.048   3.847
53895W        W13156  11.285  38.064  11.102
53896W        W13157   6.849  31.983  12.834
53897W        W13158  29.659  12.777  11.014
53898W        W13159  31.038  10.374   5.182
53899W        W13160  39.065  36.999   3.300
53900W        W13161  19.164  19.577   1.871
53901W        W13162  24.602  31.500  13.881
53902W        W13163  23.555   8.301   0.883
53903W        W13164   8.737  29.494  14.807
53904W        W13165  19.563  26.013  13.894
53905W        W13166  33.528  22.240   1.245
53906W        W13167  24.145   8.668   3.778
53907W        W13168  20.214   3.337   2.392
53908W        W13169  27.450   5.244   2.714
53909W        W13170  14.750  37.017  11.485
53910W        W13171  27.667  34.543   3.383
53911W        W13172  30.963  43.998  14.963
53912W        W13173   0.933  38.344  14.998
53913W        W13174  10.870  11.816  10.965
53914W        W13175  16.594  18.644  14.867
53915W        W13176   4.289  43.778  14.774
53916W        W13177  28.142  30.077   4.704
53917W        W13178   0.762  13.604  13.329
53918W        W13179  42.798  44.267  14.987
53919W        W13180   1.913   3.449   1.762
53920W        W13181  20.138  24.515  14.899
53921W        W13182   7.238   2.893   4.837
53922W        W13183  35.444   6.375  11.042
53923W        W13184  44.496  28.096   2.285
53924W        W13185  39.425   2.773   1.365
53925W        W13186  27.013  16.285  11.411
53926W        W13187   2.872  31.557  14.893
53927W        W13188  40.343  32.079  13.448
53928W        W13189  23.511  24.987  10.490
53929W        W13190  18.266  13.205   4.734
53930W        W13191  22.674   1.263   1.734
53931W        W13192  29.597  17.737   3.312
53932W        W13193   6.814  13.613   0.426
53933W        W13194   6.195  25.683   1.732
53934W        W13195  44.910  16.638   2.391
53935W        W13196   8.387  15.653  12.015
53936W        W13197  16.080   4.880   3.227
53937W        W13198  36.454   1.290  14.399
53938W        W13199   0.886  36.542   4.172
53939W        W13200   1.847  15.321   3.310
53940W        W13201  23.222   7.727  10.415
53941W        W13202  35.101  28.029  12.061
53942W        W13203  33.903  22.738  13.842
53943W        W13204   8.283  13.155  12.971
53944W        W13205   2.417  39.550   4.701
53945W        W13206  39.538  18.656  13.523
53946W        W13207  31.044  33.989  12.895
53947W        W13208   6.897   1.409   3.183
53948W        W13209   2.258  17.685  11.095
53949W        W13210  30.094  40.810  14.883
53950W        W13211  10.859  33.617   1.917
53951W        W13212   0.953   1.928  10.481
53952W        W13213   6.813  35.907   4.249
53953W        W13214  27.483  34.061  12.442
53954W        W13215  28.022  22.058  11.558
53955W        W13216  43.921  40.367   1.751
53956W        W13217  34.972  19.161  12.342
53957W        W13218  18.213  13.115  13.500
53958W        W13219  44.824  16.301  12.991
53959W        W13220  24.079  32.976   1.807
53960W        W13221   8.281  39.317   0.367
53961W        W13222  24.060  36.997   4.634
53962W        W13223  18.628  30.981  12.363
53963W        W13224   8.281  12.258   0.244
53964W        W13225  12.817  27.152   3.704
53965W        W13226  25.161  15.172   3.833
53966W        W13227  12.280  21.580   2.770
53967W        W13228  23.618  16.726   1.800
53968W        W13229  36.087  44.812   4.161
53969W        W13230  39.530  15.659  14.011
53970W        W13231  13.178  20.264   4.669
53971W        W13232   7.193  22.665   4.681
53972W        W13233  39.034   2.449   1.265
53973W        W13234  13.756   6.275  11.523
53974W        W13235  43.857  18.581   3.224
53975W        W13236  21.575  34.086  10.903
53976W        W13237  16.674   6.240   1.368
53977W        W13238   0.274  31.476  12.021
53978W        W13239  27.090  13.286  11.126
53979W        W13240  28.099  21.143  14.496
53980W        W13241   0.961  25.102  13.851
53981W        W13242  19.580   4.227  12.915
53982W        W13243   0.909  21.594  10.929
53983W        W13244  24.015  15.182   0.478
53984W        W13245  17.608  36.920   4.668
53985W        W13246   6.817  33.919   0.300
53986W        W13247  22.023  10.156   1.392
53987W        W13248  42.782  20.065   5.107
53988W        W13249  33.577  10.876   4.132
53989W        W13250  26.150  43.955   9.949
53990W        W13251  35.370  38.389   4.246
53991W        W13252  12.190  40.935  12.050
53992W        W13253  37.851  39.339   3.673
53993W        W13254  20.225  41.300  14.460
53994W        W13255  29.525   1.806   1.911
53995W        W13256  15.276  38.563  14.897
53996W        W13257  31.632  19.579   4.787
53997W        W13258  30.023  11.733   0.787
53998W        W13259  30.613  22.677  14.825
53999W        W13260  40.347  33.883  11.115
54000W        W13261  37.082  23.128   1.255
54001W        W13262   9.198  29.095   4.794
54002W        W13263  32.507  30.500   3.148
54003W        W13264  20.704   0.324   2.408
54004W        W13265  44.005  27.948   3.859
54005W        W13266  43.396  31.625   3.376
54006W        W13267  32.530  17.208  11.976
54007W        W13268  36.982  23.200   2.829
54008W        W13269  22.619  30.151   0.849
54009W        W13270  14.250  35.419  13.454
54010W        W13271  23.163  34.548   4.787
54011W        W13272  16.156  24.015   4.799
54012W        W13273  33.517  38.383  12.976
54013W        W13274   4.211  31.006   0.949
54014W        W13275   2.846   7.667   1.375
54015W        W13276  10.650  39.460  10.455
54016W        W13277  29.153  36.082   3.763
54017W        W13278  18.725   0.308   1.699
54018W        W13279  42.391  23.162   1.910
54019W        W13280  35.985   5.834  12.968
54020W        W13281  42.916  15.687   2.691
54021W        W13282  15.672  38.881  13.886
54022W        W13283  44.943  30.928  13.023
54023W        W13284   4.364  39.438  12.935
54024W        W13285   2.742  36.496   3.687
54025W        W13286   3.460  43.279  12.428
54026W        W13287  28.097  33.034  11.926
54027W        W13288   4.320  28.979  12.419
54028W        W13289  26.623  36.058  12.047
54029W        W13290   3.761  25.091   4.794
54030W        W13291   7.774   9.849   4.196
54031W        W13292   2.437   6.285  10.066
54032W        W13293  44.418  31.504  14.890
54033W        W13294  19.703   7.779   3.682
54034W        W13295  37.371  43.890  12.882
54035W        W13296  37.407  16.787  14.771
54036W        W13297  25.702   6.772   2.235
54037W        W13298   9.832  15.639   4.285
54038W        W13299   6.417  21.753   4.607
54039W        W13300  23.029  19.674   3.833
54040W        W13301  32.069  32.562  10.895
54041W        W13302  36.051  36.966  11.110
54042W        W13303  37.482  29.569   2.829
54043W        W13304  36.412  29.921  14.877
54044W        W13305   2.342  35.480   2.269
54045W        W13306   5.293  43.416  13.010
54046W        W13307  41.799   2.250   4.330
54047W        W13308  31.548  19.101  11.965
54048W        W13309  28.640   2.805   2.753
54049W        W13310  33.467  40.031   3.381
54050W        W13311  42.959   1.787  10.005
54051W        W13312  39.465   2.296  13.396
54052W        W13313  43.328  39.468   0.769
54053W        W13314   6.818   8.219   2.284
54054W        W13315  28.461   9.237  12.382
54055W        W13316  21.646  26.608  10.487
54056W        W13317  37.579  10.331   0.863
54057W        W13318  29.989   5.336   0.417
54058W        W13319   5.274  32.556   2.826
54059W        W13320  20.616  15.278  14.480
54060W        W13321   4.920   4.707   4.738
54061W        W13322  10.847  20.637  10.408
54062W        W13323  31.422  27.991  14.300
54063W        W13324  36.063  27.504   3.666
54064W        W13325  30.989  22.031  11.588
54065W        W13326  33.949  31.447  10.499
54066W        W13327  36.044  26.047   4.293
54067W        W13328  19.534  17.754   3.773
54068W        W13329   1.816  41.371  14.955
54069W        W13330  44.781  16.781  13.452
54070W        W13331  14.750   7.356   0.373
54071W        W13332  30.046  26.188   4.188
54072W        W13333  21.657  11.790  10.932
54073W        W13334  41.005  26.496   2.740
54074W        W13335  40.857  30.007  13.541
54075W        W13336  35.435  37.563  14.920
54076W        W13337  27.623  20.659   2.335
54077W        W13338   5.813  14.698  12.052
54078W        W13339  25.212  16.078   2.895
54079W        W13340  27.628  17.239  11.583
54080W        W13341  37.443  40.882  12.901
54081W        W13342  10.164  23.659   0.789
54082W        W13343  29.592   8.834  12.829
54083W        W13344  34.974  13.107  11.030
54084W        W13345   6.765   4.369  13.470
54085W        W13346  26.154  37.400   4.696
54086W        W13347  26.594  24.044   3.188
54087W        W13348  44.833   3.948  14.505
54088W        W13349  12.203  41.520   1.707
54089W        W13350   0.263  36.452   2.891
54090W        W13351  13.305  19.275   1.233
54091W        W13352  40.969  34.421   1.909
54092W        W13353  39.881  12.226   1.214
54093W        W13354  30.097  30.069  13.442
54094W        W13355   9.742  21.219   4.828
54095W        W13356  13.778  17.139   4.327
54096W        W13357  13.840  40.350   0.782
54097W        W13358   3.879  31.580  11.938
54098W        W13359  32.450   0.918   4.669
54099W        W13360  27.189  33.101   1.304
54100W        W13361   7.347  40.491   4.826
54101W        W13362  42.900  41.903  12.978
54102W        W13363  21.663  38.994   1.414
54103W        W13364   4.340  15.199   3.372
54104W        W13365  29.042   4.759  11.539
54105W        W13366   4.342   1.464  10.987
54106W        W13367  31.109  19.557  12.072
54107W        W13368  22.055  19.225  14.402
54108W        W13369  42.862   9.234   5.272
54109W        W13370  22.212  43.305  14.348
54110W        W13371  16.569  21.638  13.989
54111W        W13372  26.548   4.701   9.948
54112W        W13373  17.730  18.135   2.903
54113W        W13374  31.439   3.819  12.978
54114W        W13375  19.075   8.248  13.014
54115W        W13376  28.534  28.093   4.185
54116W        W13377  33.554  42.524  12.900
54117W        W13378  40.327  36.913  10.986
54118W        W13379  22.093   4.783   1.717
54119W        W13380  18.742  34.097  11.420
54120W        W13381  36.984  44.967   3.821
54121W        W13382  17.786  39.904   0.937
54122W        W13383  17.101   8.354  13.478
54123W        W13384  43.002  35.399  12.507
54124W        W13385  29.643  41.837   1.805
54125W        W13386  23.117  33.950   2.822
54126W        W13387  17.082  10.663   2.685
54127W        W13388  36.959  39.481   3.684
54128W        W13389  35.534  43.811   3.254
54129W        W13390  26.965  17.569   3.375
54130W        W13391  44.381  34.040  11.548
54131W        W13392  27.450  22.541   2.881
54132W        W13393  10.370  15.301  11.857
54133W        W13394  44.432  15.132   0.276
54134W        W13395  12.147  29.594   2.212
54135W        W13396  37.974   3.363   0.343
54136W        W13397   2.265   6.835   2.781
54137W        W13398   8.196  30.499   2.314
54138W        W13399  42.357   9.789  12.072
54139W        W13400  24.004  20.163  11.862
54140W        W13401  21.670  23.027  14.354
54141W        W13402  42.997  10.663  14.824
54142W        W13403  16.686  17.721  14.879
54143W        W13404  27.992  11.246  14.298
54144W        W13405  37.458  31.474  13.373
54145W        W13406  41.359  11.730   0.307
54146W        W13407  22.532   3.719  11.541
54147W        W13408  24.605  18.237   2.901
54148W        W13409  28.977  44.924   5.106
54149W        W13410  43.795   2.947   4.237
54150W        W13411   4.899  21.035   2.673
54151W        W13412  24.124   7.176   4.136
54152W        W13413  20.254  22.679  14.788
54153W        W13414   8.221  33.076   2.713
54154W        W13415  17.107  24.142  10.548
54155W        W13416  14.193  14.668   0.280
54156W        W13417  36.370   7.748  13.424
54157W        W13418  26.079  40.338   3.278
54158W        W13419   1.830   1.367  14.979
54159W        W13420  19.756  14.256   2.410
54160W        W13421  37.361  20.202  11.861
54161W        W13422  12.827  27.543  13.377
54162W        W13423  28.093  30.029   3.205
54163W        W13424  43.796  20.032  12.440
54164W        W13425  38.026  15.767   9.986
54165W        W13426  39.514  34.043   1.287
54166W        W13427  38.846  16.627  11.086
54167W        W13428  28.459   1.874   1.319
54168W        W13429  23.043  25.039  14.483
54169W        W13430   8.320  13.646  13.406
54170W        W13431  39.861   8.187  12.066
54171W        W13432   8.323   6.400  10.461
54172W        W13433  36.443  21.049   1.384
54173W        W13434  42.440  20.197  12.065
54174W        W13435  31.453  10.662   2.347
54175W        W13436  39.437   0.984  10.958
54176W        W13437   5.215   3.724   3.741
54177W        W13438  42.874   3.388   4.797
54178W        W13439  15.821  42.946   1.857
54179W        W13440  44.949  37.563   3.798
54180W        W13441  22.012  27.598   1.341
54181W        W13442  39.028  10.755   2.305
54182W        W13443  24.187  33.065  12.341
54183W        W13444   1.869  42.484  11.921
54184W        W13445   4.351   7.900   0.867
54185W        W13446  41.501  36.580   3.679
54186W        W13447  30.103  34.405  10.643
54187W        W13448  42.973  22.503   0.395
54188W        W13449  15.095  42.401  12.856
54189W        W13450   6.770  30.048   0.925
54190W        W13451  33.885   8.844  11.114
54191W        W13452  39.860  23.624  11.468
54192W        W13453  22.637  11.301   1.856
54193W        W13454  13.678  39.956  13.959
54194W        W13455  30.652  11.775  11.425
54195W        W13456  44.797  36.535  14.296
54196W        W13457  10.869  15.119  12.353
54197W        W13458   0.933  29.076  13.313
54198W        W13459  17.220  42.848   0.478
54199W        W13460  14.803   1.469   0.257
54200W        W13461  32.886  28.083   0.373
54201W        W13462   6.897  40.854  10.479
54202W        W13463  16.073  14.178  11.960
54203W        W13464  19.752  22.135   4.279
54204W        W13465  21.177  20.681   0.833
54205W        W13466  37.396   1.372   3.765
54206W        W13467  32.139  42.927   0.820
54207W        W13468  21.040  29.564   3.749
54208W        W13469  24.227  27.485  12.086
54209W        W13470  31.545  14.608  12.087
54210W        W13471  41.808   8.722   1.237
54211W        W13472   7.692  19.715  10.099
54212W        W13473  17.177  16.260   0.868
54213W        W13474  18.590  40.836  13.533
54214W        W13475  29.167  18.617   0.405
54215W        W13476  27.129  12.747  12.015
54216W        W13477  43.960  20.713  13.837
54217W        W13478  39.042  25.678  13.547
54218W        W13479   1.391  37.551  10.557
54219W        W13480  27.017  33.400   1.789
54220W        W13481  26.583  44.285   4.633
54221W        W13482  39.468   2.953  14.793
54222W        W13483   6.805  32.059   3.697
54223W        W13484  33.506  42.978   5.166
54224W        W13485   6.300  28.539  14.858
54225W        W13486   7.397  15.120  12.442
54226W        W13487  42.792   3.872  11.967
54227W        W13488   9.851  31.919   0.823
54228W        W13489  12.287  32.555   4.292
54229W        W13490  30.532  14.304  10.590
54230W        W13491  39.880  22.230   1.283
54231W        W13492  23.154  12.647  11.529
54232W        W13493  31.437  39.480   4.231
54233W        W13494  38.438  13.216  14.326
54234W        W13495   2.745  24.224   0.288
54235W        W13496  37.886  39.828  10.511
54236W        W13497  29.444  12.360  12.886
54237W        W13498   4.413  33.882  12.417
54238W        W13499  40.004   4.221  14.997
54239W        W13500  19.139  15.168  12.371
54240W        W13501  18.267  36.938   4.281
54241W        W13502  10.275  24.714  14.818
54242W        W13503  44.962  21.663  13.872
54243W        W13504  24.553  44.768   3.832
54244W        W13505  13.180  17.102   1.799
54245W        W13506  44.844   6.879  14.914
54246W        W13507  27.059  20.141  14.431
54247W        W13508  36.957   7.909  13.406
54248W        W13509   6.744   2.427  13.893
54249W        W13510   5.729  23.033   0.308
54250W        W13511  34.421  39.939  13.006
54251W        W13512   0.388   7.197  13.029
54252W        W13513  37.898  30.058  10.925
54253W        W13514  31.471  14.769  10.629
54254W        W13515  23.623   0.444   1.783
54255W        W13516  36.363   4.312  13.520
54256W        W13517   4.842  33.103   3.733
54257W        W13518  19.178  14.218   4.210
54258W        W13519  18.129  28.125   2.709
54259W        W13520  15.712   3.247   4.190
54260W        W13521   3.786  13.147  13.455
54261W        W13522  34.101  40.978   3.722
54262W        W13523  18.669  27.134   9.451
54263W        W13524   7.329  44.389   4.790
54264W        W13525  43.480  34.575  14.866
54265W        W13526  36.527  30.937   4.319
54266W        W13527  25.024  43.894   2.374
54267W        W13528  21.700   9.250   2.896
54268W        W13529  23.560   0.346   0.417
54269W        W13530  39.371  38.938   1.814
54270W        W13531  34.899  42.834  12.869
54271W        W13532  40.003  43.889   3.178
54272W        W13533   2.314   0.477   2.252
54273W        W13534  44.258  16.679   1.731
54274W        W13535  36.866  13.744  10.503
54275W        W13536  39.842   1.896   1.210
54276W        W13537   9.784  22.249   4.613
54277W        W13538   4.905  21.652  13.523
54278W        W13539   8.669  27.619  14.359
54279W        W13540  16.097  21.611  10.987
54280W        W13541  34.926  23.677  11.435
54281W        W13542  19.093  24.533   0.391
54282W        W13543  26.099  17.697   1.354
54283W        W13544  14.650  10.354  12.886
54284W        W13545  42.464  29.148  13.850
54285W        W13546   0.491  11.264   0.852
54286W        W13547   0.414  19.073   0.728
54287W        W13548  32.437  38.940   2.218
54288W        W13549   8.755  31.548  14.325
54289W        W13550  31.479  21.217   1.725
54290W        W13551  25.160  23.525   1.263
54291W        W13552  29.461   0.394   1.261
54292W        W13553  20.716  43.476  13.803
54293W        W13554  22.736  18.192  14.865
54294W        W13555   7.237  43.271   2.306
54295W        W13556  38.566  26.189  12.859
54296W        W13557  21.179  35.566   3.852
54297W        W13558   4.738  39.826   1.898
54298W        W13559  44.280  44.407   5.159
54299W        W13560  26.674  21.059   1.910
54300W        W13561  42.881  22.669   0.816
54301W        W13562  27.627   1.775   0.864
54302W        W13563  11.831  30.989  10.455
54303W        W13564   5.705  14.709  10.931
54304W        W13565  22.178  35.547   3.862
54305W        W13566  17.280   4.926  12.072
54306W        W13567  23.598   5.760   3.247
54307W        W13568   6.782   8.761   1.886
54308W        W13569  37.337  43.329  12.449
54309W        W13570  34.895  31.504   2.885
54310W        W13571  26.043  12.715  14.448
54311W        W13572  10.820   3.451  10.142
54312W        W13573  37.524  25.638   5.091
54313W        W13574   4.723   5.803  10.022
54314W        W13575  40.026  11.771  13.921
54315W        W13576  10.830  37.938  13.318
54316W        W13577  24.538   2.370   3.642
54317W        W13578  21.577   3.412   2.789
54318W        W13579  14.094  21.720  10.545
54319W        W13580  28.983  32.416  12.991
54320W        W13581  25.189   8.728  11.105
54321W        W13582  32.403  15.161   0.794
54322W        W13583  20.594  25.192  11.397
54323W        W13584  43.418  17.221   0.853
54324W        W13585  30.621  32.552  14.331
54325W        W13586   3.358  15.167  13.998
54326W        W13587  34.581  27.061  12.439
54327W        W13588  44.922   2.865   1.370
54328W        W13589  17.612  39.830   3.153
54329W        W13590  19.595  16.217   0.945
54330W        W13591   2.917  21.261   2.262
54331W        W13592   1.455  17.655   0.413
54332W        W13593  31.494  22.552  14.463
54333W        W13594   8.768   8.351   2.213
54334W        W13595  22.190  40.054  13.481
54335W        W13596  23.002   8.784  12.414
54336W        W13597   6.296  16.598  11.570
54337W        W13598  37.913  34.868   9.501
54338W        W13599  34.451  23.685   0.389
54339W        W13600  40.412  36.936   4.706
54340W        W13601  11.242  38.493   1.762
54341W        W13602  20.631  33.492  13.856
54342W        W13603   4.711  38.001   2.239
54343W        W13604  21.531  20.740   2.692
54344W        W13605  43.284   5.238   4.795
54345W        W13606  19.658  19.534   3.341
54346W        W13607  10.359   2.377  12.823
54347W        W13608  15.325  28.047  12.428
54348W        W13609  15.235  31.103  10.504
54349W        W13610  39.838  43.338   4.183
54350W        W13611  26.144  37.414   0.872
54351W        W13612  29.665  16.261   0.401
54352W        W13613  18.687  39.925  11.558
54353W        W13614   6.757  27.657  14.507
54354W        W13615  32.573  28.450   4.831
54355W        W13616  18.618  25.485  14.978
54356W        W13617  43.859  31.540   0.810
54357W        W13618  38.560  26.011  11.574
54358W        W13619   1.754  15.802   0.261
54359W        W13620   6.241  39.814  10.090
54360W        W13621  44.369  40.524  10.574
54361W        W13622   7.217  37.086   0.253
54362W        W13623  28.517  36.068   2.290
54363W        W13624  29.974  30.428  11.932
54364W        W13625  28.938  24.123  11.087
54365W        W13626  24.601  14.200   3.322
54366W        W13627   3.935  14.153   1.317
54367W        W13628  40.833   2.894   2.715
54368W        W13629  11.811  32.139   0.875
54369W        W13630  36.495  12.835   1.857
54370W        W13631  23.538  14.262   1.320
54371W        W13632   0.317  30.606   3.851
54372W        W13633  21.601  22.230  12.022
54373W        W13634  40.506  26.660   2.310
54374W        W13635   7.249  40.002   0.890
54375W        W13636  29.011  29.019   4.119
54376W        W13637  14.223  17.798  11.081
54377W        W13638  39.818  43.409  10.544
54378W        W13639  12.666  18.690  14.368
54379W        W13640  38.564  21.542  10.601
54380W        W13641  15.690  44.497  11.382
54381W        W13642   9.350  24.653  11.945
54382W        W13643  27.074  34.464   1.799
54383W        W13644  41.023   2.246   3.260
54384W        W13645  42.489  18.124   0.766
54385W        W13646  12.325  36.882  14.923
54386W        W13647  34.906  31.531   4.148
54387W        W13648  34.099   5.934   4.782
54388W        W13649   4.908  17.722  11.559
54389W        W13650  43.430  33.883   1.920
54390W        W13651  37.946   2.301   4.153
54391W        W13652  25.188  16.716   3.255
54392W        W13653  29.026  38.052  14.499
54393W        W13654   7.299  22.080  12.382
54394W        W13655  38.867  13.199  13.989
54395W        W13656  40.972   1.324  14.294
54396W        W13657   6.341  32.901  12.501
54397W        W13658  11.842  13.266   2.285
54398W        W13659   7.185  33.599  10.919
54399W        W13660  40.902  33.583  14.422
54400W        W13661   2.265  40.429  13.857
54401W        W13662  10.204  29.042   3.687
54402W        W13663   8.384  29.107  12.979
54403W        W13664  28.504  33.395  11.445
54404W        W13665  22.714  28.528   2.809
54405W        W13666  23.651  21.741  10.625
54406W        W13667   5.721  32.619   1.358
54407W        W13668  21.706   4.352  14.008
54408W        W13669  31.083  35.511   2.292
54409W        W13670   3.309  43.367   4.614
54410W        W13671  34.034  11.308  12.877
54411W        W13672  33.976  28.647   0.747
54412W        W13673   5.272  19.049  11.946
54413W        W13674  13.239  38.365  14.462
54414W        W13675   3.395   7.227  10.482
54415W        W13676  40.472  28.100   9.449
54416W        W13677  32.413  32.896   2.362
54417W        W13678   1.254  30.989  14.963
54418W        W13679  36.418  11.302   2.679
54419W        W13680   4.400   8.214   4.709
54420W        W13681  38.506  30.535  14.501
54421W        W13682  41.932   5.804  13.802
54422W        W13683  20.245  15.243  12.554
54423W        W13684   1.266   1.845   0.865
54424W        W13685   3.410  34.090  14.439
54425W        W13686  21.183   0.447  12.043
54426W        W13687   2.842  39.480  13.918
54427W        W13688  20.168  24.174   0.766
54428W        W13689  30.078  36.401   1.239
54429W        W13690  20.665  30.658  11.399
54430W        W13691  29.494   5.702   3.317
54431W        W13692  29.475  30.963   0.463
54432W        W13693  31.909  11.656   1.302
54433W        W13694  15.630  13.721  11.109
54434W        W13695  24.603  36.880  14.436
54435W        W13696  40.332  26.546   4.700
54436W        W13697   2.753  25.985  14.845
54437W        W13698  42.433   5.305   2.255
54438W        W13699  28.104  30.158   9.962
54439W        W13700  12.132  16.576   0.334
54440W        W13701  37.480  28.510  13.009
54441W        W13702  19.743  44.279  11.440
54442W        W13703  34.466  12.634  13.459
54443W        W13704  31.593  10.335  13.957
54444W        W13705  28.660  12.250  14.925
54445W        W13706  26.053  20.703   2.738
54446W        W13707   3.260  42.858   3.361
54447W        W13708  39.016  19.217   3.640
54448W        W13709  42.390  43.492   3.245
54449W        W13710  34.918   7.705   2.348
54450W        W13711   9.753   3.813   0.811
54451W        W13712  18.627   9.808   1.255
54452W        W13713  34.115  37.496   4.280
54453W        W13714   6.696  16.792   3.196
54454W        W13715  29.107   1.947   1.715
54455W        W13716  32.579  42.334   4.213
54456W        W13717   0.818   6.804  12.089
54457W        W13718  26.591  25.089  13.993
54458W        W13719  40.050  42.807  12.858
54459W        W13720  19.057   6.862   4.286
54460W        W13721  19.706  10.227  12.347
54461W        W13722  16.174  31.627   2.696
54462W        W13723   0.480  14.598   2.749
54463W        W13724  29.920   1.246  12.857
54464W        W13725  35.489   9.669  11.887
54465W        W13726  20.049   6.790  13.373
54466W        W13727  26.523  39.963   3.646
54467W        W13728  36.060  39.873  11.495
54468W        W13729   8.163  12.806   3.184
54469W        W13730   6.689  44.500   1.379
54470W        W13731  23.220  32.496  14.948
54471W        W13732   3.829  15.097   1.407
54472W        W13733  25.974  10.172   0.466
54473W        W13734  41.803  35.099  14.309
54474W        W13735   7.734  13.130  12.461
54475W        W13736  42.792   2.388   4.778
54476W        W13737  32.056  36.537   3.152
54477W        W13738  34.503  24.104   0.781
54478W        W13739  25.968  21.201  14.809
54479W        W13740   3.837  32.071  11.497
54480W        W13741  26.463  15.730  14.313
54481W        W13742  12.259   7.668  12.956
54482W        W13743  29.124  23.073  10.418
54483W        W13744   6.368  27.472   2.203
54484W        W13745   6.403  25.496  11.511
54485W        W13746  32.494   4.742  12.930
54486W        W13747  27.135  24.049   1.815
54487W        W13748   6.382  29.584   4.690
54488W        W13749   4.241  36.056  11.578
54489W        W13750  13.145   2.295  10.606
54490W        W13751  42.882  21.075  14.315
54491W        W13752  21.248  23.729   2.900
54492W        W13753  27.098  22.247  14.282
54493W        W13754  23.078  43.320   4.220
54494W        W13755  25.090  18.595   1.876
54495W        W13756  11.265   4.256   1.695
54496W        W13757   9.199  24.082  13.911
54497W        W13758  19.725  34.075  14.985
54498W        W13759  26.195  17.657   2.885
54499W        W13760   8.822  28.042  12.069
54500W        W13761   9.871  30.083  13.310
54501W        W13762  34.008  29.488  14.959
54502W        W13763  43.863  44.420  14.807
54503W        W13764  40.525  29.028   4.133
54504W        W13765  18.147  10.365   3.247
54505W        W13766  13.105  23.664   4.191
54506W        W13767  29.627  31.986  12.495
54507W        W13768  27.991  12.742  10.097
54508W        W13769  19.244   7.376   4.242
54509W        W13770  38.017  38.552  11.395
54510W        W13771  42.321   3.787   2.662
54511W        W13772  23.148  10.863  14.918
54512W        W13773  28.464  25.498  10.991
54513W        W13774   4.390  20.169   1.833
54514W        W13775  44.318  44.862  12.963
54515W        W13776   3.291  36.993   4.286
54516W        W13777  43.897  23.563   3.713
54517W        W13778  18.644  21.535   0.915
54518W        W13779  34.072   0.480   4.738
54519W        W13780   8.171  10.278   0.288
54520W        W13781  34.529   3.422  11.395
54521W        W13782   6.685  33.960  14.474
54522W        W13783   6.819  35.369  12.836
54523W        W13784  24.644  39.497   1.220
54524W        W13785  31.556  19.277  12.517
54525W        W13786  20.683  35.908  12.882
54526W        W13787  37.049  13.772  12.017
54527W        W13788  30.046   9.680  13.309
54528W        W13789  29.453  43.397   3.369
54529W        W13790  10.725  30.111   2.416
54530W        W13791  27.002  10.780  10.620
54531W        W13792  20.165   8.844  11.386
54532W        W13793  16.120   9.212  14.288
54533W        W13794  18.293  43.434  14.477
54534W        W13795  23.225  11.371  11.928
54535W        W13796   6.888  38.349  12.846
54536W        W13797  36.095   8.303  11.095
54537W        W13798   4.214  38.860  11.072
54538W        W13799  21.144  42.458  10.502
54539W        W13800  32.917  34.553  14.879
54540W        W13801   6.900   7.734   0.810
54541W        W13802   3.235  17.681  12.074
54542W        W13803  28.941  21.155  11.894
54543W        W13804  25.066   3.346   0.811
54544W        W13805  34.501  44.286  11.925
54545W        W13806  14.273  38.525  13.329
54546W        W13807  30.523  23.536  14.915
54547W        W13808  12.660  36.467  10.599
54548W        W13809  20.217   2.808  12.524
54549W        W13810  23.179  37.454  14.909
54550W        W13811  37.015  26.552   4.193
54551W        W13812  34.890  40.435  10.921
54552W        W13813   4.399  30.650   2.870
54553W        W13814   5.928  18.057   0.272
54554W        W13815   1.283  31.627  11.577
54555W        W13816  15.665  22.705  12.060
54556W        W13817   3.785  14.227   3.377
54557W        W13818  30.108  43.772  12.000
54558W        W13819  41.952  28.484   0.945
54559W        W13820  28.068   9.258   2.416
54560W        W13821  44.878  35.552   4.786
54561W        W13822  34.612  35.450  14.804
54562W        W13823   0.879  27.627   0.400
54563W        W13824  34.080  30.018  13.417
54564W        W13825  36.526  14.309  11.023
54565W        W13826  34.484   0.468  14.015
54566W        W13827  16.573  13.131   2.810
54567W        W13828  27.143   9.838  12.044
54568W        W13829  22.013  25.539  12.550
54569W        W13830   8.229   0.782  11.965
54570W        W13831  43.783  13.668   3.820
54571W        W13832  14.308  15.656  14.312
54572W        W13833   4.420  22.523   4.172
54573W        W13834  39.047   6.410   9.985
54574W        W13835  29.961   5.730   4.168
54575W        W13836  26.000  20.592   0.850
54576W        W13837  39.979  31.450   3.332
54577W        W13838  32.407  22.087   4.776
54578W        W13839   7.851  43.818  13.996
54579W        W13840  37.075   9.159   0.798
54580W        W13841   0.460  28.079   2.241
54581W        W13842  42.810  21.745   2.879
54582W        W13843  35.007  22.554  13.929
54583W        W13844   1.287  43.805  11.550
54584W        W13845  35.538   2.416   0.790
54585W        W13846  18.168   4.342  14.837
54586W        W13847   4.789  15.320  11.961
54587W        W13848   1.948  16.171   1.300
54588W        W13849  44.424  41.447   0.393
54589W        W13850  17.109   5.819   0.392
54590W        W13851   3.341   3.409  13.373
54591W        W13852  21.150  38.829  13.341
54592W        W13853  41.356  44.339  10.485
54593W        W13854  33.534   6.783   4.220
54594W        W13855   9.324  25.150  11.509
54595W        W13856  43.923   7.823   1.815
54596W        W13857  32.122  33.588   5.232
54597W        W13858   9.737   7.819   0.404
54598W        W13859  28.640   7.207  12.533
54599W        W13860   0.398  40.528   4.153
54600W        W13861   3.949  17.224  10.082
54601W        W13862  11.699   2.331   3.186
54602W        W13863   4.743  27.453   0.953
54603W        W13864  25.567  15.157  12.043
54604W        W13865  30.416   5.335  11.084
54605W        W13866  38.076  21.083  11.914
54606W        W13867  38.381   8.265   0.934
54607W        W13868  38.953  29.061   4.253
54608W        W13869  32.492   9.178  14.426
54609W        W13870  12.834  10.772  12.880
54610W        W13871  14.176  36.023  14.378
54611W        W13872  23.702   2.892  14.882
54612W        W13873   6.897  18.775  10.623
54613W        W13874  28.636  26.550  13.999
54614W        W13875  26.038  29.585   9.540
54615W        W13876   6.874  37.481  13.466
54616W        W13877  16.722  40.363  14.993
54617W        W13878  41.962  37.076   5.153
54618W        W13879   3.379   0.753   3.668
54619W        W13880  43.811  18.708   1.274
54620W        W13881  29.493  10.655  11.006
54621W        W13882  13.221  24.094  14.963
54622W        W13883  25.076   9.292   2.726
54623W        W13884  44.473  38.982  14.924
54624W        W13885  21.168   4.903  14.432
54625W        W13886  18.074  38.424  11.034
54626W        W13887  18.202   3.369  14.373
54627W        W13888  11.365   5.698   2.388
54628W        W13889   4.318   0.313  10.466
54629W        W13890  32.405  22.696  13.441
54630W        W13891  33.070  13.149  13.813
54631W        W13892  39.371  11.804   2.710
54632W        W13893  12.773  14.305  14.876
54633W        W13894  36.068  10.697  12.529
54634W        W13895   7.849  21.596   3.726
54635W        W13896  21.126  10.792  12.541
54636W        W13897  42.326  31.950   3.820
54637W        W13898   4.849   7.696  13.409
54638W        W13899  28.641  36.880  10.969
54639W        W13900  29.579  15.805  13.905
54640W        W13901   1.848  33.033   1.218
54641W        W13902  43.853   6.694   4.153
54642W        W13903  21.102  23.493  12.072
54643W        W13904   8.821   8.668  14.905
54644W        W13905  37.087  43.435  14.788
54645W        W13906  19.539  42.010   0.409
54646W        W13907  43.822  40.846   2.858
54647W        W13908  25.199  12.195  11.863
54648W        W13909  22.156  16.766   3.864
54649W        W13910  19.654  33.565   1.919
54650W        W13911   3.340  37.008   2.299
54651W        W13912  22.675  44.379  13.827
54652W        W13913  15.661  19.122  11.976
54653W        W13914  32.012  17.202   1.737
54654W        W13915   9.338  11.251  12.016
54655W        W13916  15.315  35.593   3.839
54656W        W13917  39.970  30.623   0.434
54657W        W13918  21.080   6.893   4.197
54658W        W13919   0.903  15.307  13.039
54659W        W13920  27.489  11.334  13.385
54660W        W13921   0.745  41.388   4.770
54661W        W13922  38.966   9.333  12.985
54662W        W13923  27.145  30.986  13.808
54663W        W13924  24.572  35.501   0.951
54664W        W13925  13.204  32.585   3.827
54665W        W13926   9.224  19.209   3.632
54666W        W13927  20.742  18.166   9.942
54667W        W13928  36.568  15.129  10.578
54668W        W13929  23.038  12.160  11.376
54669W        W13930  24.541  22.199   4.749
54670W        W13931  30.924  28.102  11.993
54671W        W13932  10.361  42.785  13.854
54672W        W13933  24.118  16.109   3.237
54673W        W13934   2.836  23.525   4.741
54674W        W13935  31.936   4.892   1.838
54675W        W13936   2.424   4.214   4.193
54676W        W13937  30.518  24.014   3.147
54677W        W13938   2.966  29.037  11.416
54678W        W13939   6.213  22.044  12.537
54679W        W13940  39.026   5.893   1.402
54680W        W13941   8.390  39.954   3.297
54681W        W13942  32.421  43.895  13.482
54682W        W13943  28.009  13.287  13.390
54683W        W13944  32.938  18.654  13.011
54684W        W13945  25.208  24.582   1.927
54685W        W13946  20.274  19.140   2.665
54686W        W13947  16.241  37.350   4.204
54687W        W13948  41.991  13.212  12.358
54688W        W13949  43.820  18.639  12.461
54689W        W13950  31.904  32.014  14.443
54690W        W13951  35.534  41.310   2.772
54691W        W13952   0.343  27.127   9.536
54692W        W13953  15.579   0.817   4.344
54693W        W13954   7.796  38.018  14.341
54694W        W13955   7.836  25.589  11.103
54695W        W13956   9.760  19.242   2.818
54696W        W13957  30.535  14.330  13.839
54697W        W13958   1.956  18.587  13.399
54698W        W13959  30.013  22.722   3.777
54699W        W13960  41.834  39.850   2.895
54700W        W13961   7.254  14.732   1.902
54701W        W13962  30.573  15.264   0.906
54702W        W13963  14.592  35.513   3.672
54703W        W13964  26.167   8.404  12.912
54704W        W13965  17.266  14.229  11.109
54705W        W13966  41.873  32.044   0.446
54706W        W13967  29.448   0.333   2.340
54707W        W13968  33.496   5.801   4.713
54708W        W13969  21.147   6.897  13.423
54709W        W13970  13.843   1.323   0.392
54710W        W13971   7.863   9.246   3.231
54711W        W13972  41.795  19.688   3.638
54712W        W13973  44.773  18.783  10.906
54713W        W13974  10.301  21.160  11.996
54714W        W13975   9.872  32.932   1.928
54715W        W13976  21.194   5.875  13.332
54716W        W13977  14.595  38.833   1.276
54717W        W13978  15.292   9.163  14.383
54718W        W13979  26.027  25.107   3.850
54719W        W13980  41.353  27.945  12.473
54720W        W13981  14.186  11.240   4.674
54721W        W13982  22.560  31.560   3.708
54722W        W13983  39.331   2.927   4.191
54723W        W13984  18.677   1.838  10.589
54724W        W13985  42.391  26.137   2.344
54725W        W13986  22.215  28.967   1.763
54726W        W13987  15.757  39.047  12.026
54727W        W13988   7.404  33.524  13.961
54728W        W13989  44.876   0.313   3.382
54729W        W13990   2.227  27.127   2.369
54730W        W13991  24.083  21.114  10.930
54731W        W13992  23.984  44.846   1.903
54732W        W13993   0.282  29.060  14.431
54733W        W13994  40.050  20.567  12.087
54734W        W13995  23.632  11.854   1.768
54735W        W13996  40.896  38.930   2.724
54736W        W13997   9.150  18.658  14.849
54737W        W13998   9.700  38.945  13.368
54738W        W13999   7.401  42.417  12.985
54739W        W14000  39.988   9.788  14.932
54740W        W14001  19.111  22.612   2.401
54741W        W14002  32.406  20.248  14.339
54742W        W14003  31.453  36.359  14.449
54743W        W14004  10.220  24.651   1.401
54744W        W14005  36.543  35.996   4.729
54745W        W14006  20.138  28.953   2.892
54746W        W14007  22.710  41.871   4.269
54747W        W14008   9.771  21.251   3.212
54748W        W14009  15.813  21.089   2.253
54749W        W14010  28.539   4.319  14.799
54750W        W14011  21.162  13.293   1.413
54751W        W14012  41.496  28.953  12.342
54752W        W14013  39.816  44.414  14.415
54753W        W14014   0.418  42.432  12.570
54754W        W14015  14.159   3.944   4.670
54755W        W14016   6.415   7.751   0.812
54756W        W14017  15.187   0.250  12.423
54757W        W14018   6.906  28.139  12.463
54758W        W14019  11.250   7.820   3.282
54759W        W14020  16.630   4.290   0.911
54760W        W14021  32.496  30.983   2.786
54761W        W14022  20.729  18.561  11.891
54762W        W14023   3.452  42.510   2.714
54763W        W14024  18.568  36.011   5.178
54764W        W14025  40.316   0.428   0.306
54765W        W14026  13.187  41.925   2.690
54766W        W14027   4.374  32.033   0.738
54767W        W14028  29.928  23.105  12.478
54768W        W14029  12.626  28.073   4.282
54769W        W14030  26.996   5.835   1.398
54770W        W14031  12.624  27.602   4.678
54771W        W14032  44.857  39.838  14.979
54772W        W14033  35.957  43.287   1.706
54773W        W14034  41.492  32.103   3.629
54774W        W14035  25.081  25.038  11.400
54775W        W14036  36.076  10.252   2.353
54776W        W14037  16.605   7.673   9.479
54777W        W14038  30.009  44.977  10.887
54778W        W14039  37.466  30.610  14.874
54779W        W14040  21.059  25.962  13.796
54780W        W14041   7.682  13.298   3.784
54781W        W14042   0.878   2.384   0.336
54782W        W14043  11.265  32.051   3.147
54783W        W14044   5.425  22.582  11.002
54784W        W14045  17.762  24.539   0.916
54785W        W14046  19.625   6.425   0.795
54786W        W14047  31.075  14.250  13.860
54787W        W14048  19.144   0.886   2.328
54788W        W14049  39.000  21.204  10.986
54789W        W14050  36.004  15.731   4.789
54790W        W14051  10.862   4.250  13.534
54791W        W14052  26.185  12.850   3.258
54792W        W14053  34.417  19.105  11.897
54793W        W14054  12.278   4.419  10.537
54794W        W14055  41.427  14.160   2.291
54795W        W14056  13.144  13.332  14.342
54796W        W14057  31.476  21.574  10.474
54797W        W14058  26.469  34.587   4.714
54798W        W14059   3.937  42.924  11.004
54799W        W14060  35.436  39.375  11.524
54800W        W14061  13.620   2.355   1.927
54801W        W14062   9.324  36.091   0.761
54802W        W14063   1.381  42.389   0.324
54803W        W14064  44.785  37.517  11.552
54804W        W14065  23.028  42.808   0.306
54805W        W14066  14.613  33.604  12.499
54806W        W14067   9.871  38.359  14.837
54807W        W14068  25.640   7.299  12.562
54808W        W14069  30.162   2.829   1.249
54809W        W14070  14.152   8.377  13.973
54810W        W14071  29.595  33.415  11.462
54811W        W14072  42.955  44.757   1.327
54812W        W14073  23.701  43.780   4.799
54813W        W14074  32.601  13.332  12.057
54814W        W14075  41.537   0.814  14.974
54815W        W14076  35.050  18.079   4.710
54816W        W14077  18.734  15.745   2.884
54817W        W14078  39.463  42.286   1.326
54818W        W14079  14.804   5.793  12.409
54819W        W14080  29.010  42.013  13.496
54820W        W14081  31.438   3.815   4.649
54821W        W14082  38.422  28.440  10.596
54822W        W14083  30.928  11.669   2.833
54823W        W14084  14.676  34.098  14.308
54824W        W14085  40.913  43.865  11.883
54825W        W14086  27.531  38.523   1.403
54826W        W14087  28.674  28.607   5.316
54827W        W14088  18.242  36.399  10.418
54828W        W14089  34.389  40.388  11.082
54829W        W14090  36.039  23.079   4.274
54830W        W14091  16.620  36.857   3.707
54831W        W14092  44.976  39.397   1.695
54832W        W14093  21.182  25.102  10.610
54833W        W14094  32.094  30.016   2.193
54834W        W14095  14.124  26.985   4.695
54835W        W14096  39.548  24.190   2.788
54836W        W14097  44.865   8.775  13.317
54837W        W14098  37.487  36.454  11.477
54838W        W14099   9.795   0.871   0.317
54839W        W14100  41.964  36.978  11.941
54840W        W14101  12.123  21.120  14.782
54841W        W14102  16.679  42.901   4.142
54842W        W14103  35.461  11.145  11.963
54843W        W14104  43.779  23.226   0.254
54844W        W14105  19.581  20.555  11.915
54845W        W14106   5.210   9.264  12.952
54846W        W14107   3.767  19.636  13.009
54847W        W14108  19.684   5.199  11.867
54848W        W14109   7.857  42.305  14.487
54849W        W14110  21.238  33.609  13.925
54850W        W14111  25.076   4.746   0.956
54851W        W14112  26.565  17.155  12.551
54852W        W14113  32.928  16.696   3.184
54853W        W14114  19.271  17.555   2.807
54854W        W14115  39.064  38.861  14.024
54855W        W14116  11.204  41.968  11.897
54856W        W14117  38.489   9.352   3.870
54857W        W14118  13.741  23.993  10.560
54858W        W14119  42.331  16.108   2.255
54859W        W14120  38.076   7.272  11.395
54860W        W14121  33.542  28.580  13.894
54861W        W14122   2.784  26.067  12.032
54862W        W14123   6.322  43.303  14.818
54863W        W14124  24.027  34.451   3.738
54864W        W14125   1.925  22.172   4.209
54865W        W14126  33.879  32.577  12.550
54866W        W14127  11.248  39.523  14.443
54867W        W14128  36.072  39.461   2.722
54868W        W14129  16.160  36.582  11.427
54869W        W14130  17.558  35.590  11.587
54870W        W14131  43.506  42.467  14.777
54871W        W14132   6.406  37.434   0.274
54872W        W14133  24.696  39.550   0.356
54873W        W14134  38.494  23.627  14.930
54874W        W14135  17.175  31.474  14.997
54875W        W14136  42.941   8.794   2.269
54876W        W14137  15.627  39.405  13.491
54877W        W14138  29.598  36.018   2.182
54878W        W14139  33.389  25.217  14.890
54879W        W14140  16.192  37.060  10.404
54880W        W14141  42.370   1.452   0.778
54881W        W14142  39.064  38.446  13.001
54882W        W14143  40.473   7.871   5.119
54883W        W14144  21.093   1.859   1.361
54884W        W14145   9.803  20.594  11.575
54885W        W14146   3.320  27.586  12.551
54886W        W14147  32.561   6.753  14.835
54887W        W14148  30.645  39.897  13.378
54888W        W14149  28.444  30.160   4.217
54889W        W14150   0.363  25.641  11.021
54890W        W14151  25.535  38.993  13.463
54891W        W14152  13.630  29.026   3.784
54892W        W14153  41.314   0.440  11.987
54893W        W14154  27.685  24.131  12.518
54894W        W14155  25.470   8.756  10.109
54895W        W14156   7.829  25.647  13.378
54896W        W14157  17.599  31.017   4.729
54897W        W14158  18.054  40.320  12.831
54898W        W14159  12.662  31.583  14.308
54899W        W14160   4.940  28.992   4.165
54900W        W14161  17.170   1.281  13.822
54901W        W14162  43.976  44.871   1.874
54902W        W14163  12.680  25.144   3.365
54903W        W14164  43.889  26.044   0.879
54904W        W14165  43.422  15.255  14.902
54905W        W14166   0.460   6.203   2.774
54906W        W14167  18.254  32.486   0.471
54907W        W14168  41.327   3.260  12.370
54908W        W14169  26.594  39.398  14.352
54909W        W14170  12.319  20.735   1.406
54910W        W14171  33.409   2.397   2.833
54911W        W14172  23.731  27.149  10.466
54912W        W14173  11.671  42.485  13.871
54913W        W14174  37.028  41.954  11.040
54914W        W14175  44.976   8.783  11.123
54915W        W14176  18.289   1.420  12.089
54916W        W14177  16.699  24.184  14.505
54917W        W14178   7.871  41.364  14.289
54918W        W14179  41.984  16.126   2.738
54919W        W14180  12.243  33.999   3.768
54920W        W14181  37.412  28.636   4.138
54921W        W14182  20.087  21.251   1.269
54922W        W14183  36.513  34.602  11.604
54923W        W14184  17.778  21.138   4.806
54924W        W14185   2.962  10.797   0.450
54925W        W14186  13.796  35.048   3.203
54926W        W14187  18.590  21.542   1.350
54927W        W14188  40.380   7.694   1.287
54928W        W14189  44.758   7.842  12.848
54929W        W14190  24.494  20.120   0.773
54930W        W14191  41.336  43.500   4.608
54931W        W14192  29.665  14.239  10.112
54932W        W14193   4.283  44.421  12.877
54933W        W14194  37.965  18.689   1.234
54934W        W14195  27.482  23.499   1.368
54935W        W14196  15.796   9.225   2.246
54936W        W14197  40.306   2.353   3.201
54937W        W14198  35.426  18.676  10.582
54938W        W14199  34.549  19.263  14.840
54939W        W14200  16.299   4.393   1.220
54940W        W14201  30.998  10.193  11.112
54941W        W14202  11.218   9.353  12.054
54942W        W14203  26.654   4.311   2.894
54943W        W14204   0.776  42.965   2.308
54944W        W14205  32.604  33.028   0.311
54945W        W14206  19.047  25.565   2.756
54946W        W14207  23.613  21.651   0.963
54947W        W14208  31.153   8.771  10.110
54948W        W14209  21.641   1.310  12.419
54949W        W14210   1.924   1.440   3.740
54950W        W14211   5.339  28.042   0.249
54951W        W14212   2.454   6.350  13.927
54952W        W14213   5.331  29.949   0.336
54953W        W14214  30.566   6.202  11.373
54954W        W14215  18.244  22.698   4.227
54955W        W14216  29.174   6.397   2.688
54956W        W14217  19.756  24.114  12.465
54957W        W14218  39.333  13.619  10.911
54958W        W14219  18.688   7.808  13.523
54959W        W14220  27.483  12.632  14.817
54960W        W14221  42.452  30.458   3.316
54961W        W14222  26.653  24.040  13.513
54962W        W14223  35.883   3.850  11.048
54963W        W14224  40.960  22.634   2.700
54964W        W14225  30.634  13.330  13.053
54965W        W14226   2.297   1.262  12.504
54966W        W14227  23.021   8.315   2.271
54967W        W14228  42.968  37.916  11.940
54968W        W14229  14.186  41.313   1.388
54969W        W14230  41.420  22.153   2.336
54970W        W14231  31.121   9.356   1.787
54971W        W14232  12.844  12.334   3.301
54972W        W14233  15.195   7.243  10.595
54973W        W14234  15.718  19.206   1.407
54974W        W14235   6.868  30.079  14.515
54975W        W14236  29.554  12.260  10.404
54976W        W14237  10.237  34.453   2.379
54977W        W14238  27.608  43.387  14.453
54978W        W14239  11.800  42.837  12.562
54979W        W14240   5.843  28.080   1.333
54980W        W14241   4.207   7.235   4.118
54981W        W14242   8.692  14.282  14.286
54982W        W14243  10.176   8.254   1.913
54983W        W14244  31.054   9.295   3.772
54984W        W14245   2.440   4.385   0.730
54985W        W14246  16.681  18.661   5.765
54986W        W14247  15.695  40.540   0.779
54987W        W14248  23.652  33.499   4.699
54988W        W14249   0.283  16.746   1.874
54989W        W14250  22.696   0.978   3.710
54990W        W14251  33.105  29.456   0.313
54991W        W14252  25.623  39.052  14.339
54992W        W14253   1.440  43.810   2.887
54993W        W14254  44.278  31.426   0.938
54994W        W14255  11.177   9.165   3.639
54995W        W14256  28.098  40.443  13.976
54996W        W14257  44.010  38.354  12.377
54997W        W14258  44.450  17.135   0.359
54998W        W14259  21.526  25.656   3.309
54999W        W14260  27.663  13.710  12.930
55000W        W14261  39.998  34.399   1.776
55001W        W14262  35.557   8.672   0.292
55002W        W14263   7.749   6.416  13.470
55003W        W14264  34.977  30.032   0.355
55004W        W14265  24.524  36.874   1.295
55005W        W14266   3.814   7.357   2.394
55006W        W14267  21.054  12.823   1.408
55007W        W14268  44.285   0.320   2.269
55008W        W14269  10.278   8.243   4.234
55009W        W14270  38.542  37.507   1.332
55010W        W14271  24.586  19.683   4.183
55011W        W14272  18.197   5.252   9.649
55012W        W14273  10.279  25.048   1.303
55013W        W14274  44.887  35.931   1.247
55014W        W14275  18.645   2.385  10.971
55015W        W14276  12.360   1.901   1.815
55016W        W14277  35.453  42.365   2.395
55017W        W14278   1.387  26.979   4.343
55018W        W14279  17.792   3.446   4.286
55019W        W14280   9.229  20.167  14.419
55020W        W14281  29.067  42.983   5.093
55021W        W14282  21.592   8.783  11.457
55022W        W14283  31.475  30.587  14.503
55023W        W14284  38.900   8.696   1.347
55024W        W14285   0.937  23.683  12.491
55025W        W14286  36.932  30.049   0.259
55026W        W14287   9.168  22.013   4.792
55027W        W14288  17.229  35.986  14.317
55028W        W14289   2.797  12.329   2.343
55029W        W14290   4.700  21.135  11.466
55030W        W14291  41.016  40.515  11.463
55031W        W14292   9.243  44.869   1.367
55032W        W14293  39.409  42.490  10.967
55033W        W14294  14.314  43.769  13.987
55034W        W14295  14.275  20.648  10.965
55035W        W14296  44.986  32.472   4.326
55036W        W14297  12.209  43.358   1.834
55037W        W14298  25.552  37.029   4.812
55038W        W14299  39.899  13.756   2.714
55039W        W14300  23.105  33.042   2.713
55040W        W14301  38.843  24.190  13.392
55041W        W14302  10.678   7.299  12.959
55042W        W14303  23.624  15.089  12.895
55043W        W14304  11.837   4.857   4.607
55044W        W14305  28.505  29.935   3.149
55045W        W14306   2.748  30.100   2.843
55046W        W14307  44.754  16.166  14.027
55047W        W14308   6.421   9.164  14.393
55048W        W14309  35.427  35.976   2.271
55049W        W14310  13.717   0.971   1.420
55050W        W14311   0.907  20.631  12.504
55051W        W14312  38.850  27.172  13.534
55052W        W14313  43.867  34.380  14.996
55053W        W14314   6.415  44.321   1.771
55054W        W14315  23.064  32.006  12.992
55055W        W14316  16.173  35.023   4.182
55056W        W14317   9.353  36.863   1.816
55057W        W14318  32.449  20.574  12.037
55058W        W14319  11.858  44.984  11.384
55059W        W14320   4.223  35.861   4.153
55060W        W14321  18.592  35.512   1.808
55061W        W14322  19.149  40.012   1.371
55062W        W14323   4.385  37.882   4.675
55063W        W14324   2.759   7.291  13.051
55064W        W14325  43.398   3.299  10.531
55065W        W14326   7.855  21.241   4.187
55066W        W14327  39.002   4.738   2.832
55067W        W14328  21.687  41.009   3.240
55068W        W14329  44.448  13.292   1.318
55069W        W14330   3.710   2.386  13.877
55070W        W14331  16.686  37.469   3.310
55071W        W14332  42.896  27.456   4.229
55072W        W14333  20.726  35.002   1.262
55073W        W14334  43.774  34.999   4.710
55074W        W14335   5.208  26.462  13.971
55075W        W14336   0.834   6.847  11.509
55076W        W14337  35.589  20.596   4.338
55077W        W14338  36.480  30.584  10.570
55078W        W14339  27.114  19.205   1.883
55079W        W14340  16.229  36.495   4.647
55080W        W14341  20.193  36.995  14.975
55081W        W14342  38.476  22.563  10.637
55082W        W14343  19.742   7.720   3.327
55083W        W14344  30.604  27.465  14.822
55084W        W14345   6.291  19.253   2.814
55085W        W14346  30.129   9.395   2.899
55086W        W14347  22.678   8.233   3.299
55087W        W14348  24.058  21.597  10.597
55088W        W14349   1.299  23.197  11.053
55089W        W14350  25.995  11.640  14.427
55090W        W14351  24.165  34.911   1.702
55091W        W14352  36.451  34.394  14.484
55092W        W14353  12.651   4.856   1.817
55093W        W14354  12.205  28.670  14.316
55094W        W14355  43.347   1.939   1.212
55095W        W14356  34.611   2.755  13.402
55096W        W14357  43.367  36.532  10.515
55097W        W14358   9.765   6.873  12.857
55098W        W14359  23.089  32.058   0.368
55099W        W14360  34.370   4.936   1.290
55100W        W14361  16.639  43.939   3.257
55101W        W14362  22.658  16.794   0.794
55102W        W14363  24.039  27.062  10.547
55103W        W14364  10.341  27.532  12.866
55104W        W14365  37.429  15.125   0.317
55105W        W14366   7.687  20.663  12.861
55106W        W14367   6.258  26.619   3.813
55107W        W14368   2.723  32.421   1.443
55108W        W14369  11.310   8.269   1.794
55109W        W14370   0.857  24.130  14.906
55110W        W14371  31.060  20.177   3.779
55111W        W14372  21.651  35.868  13.036
55112W        W14373  39.974  17.225   2.197
55113W        W14374  23.644  24.479  11.598
55114W        W14375  21.084  31.600  12.039
55115W        W14376  24.027  34.050   1.397
55116W        W14377  31.120  12.217   3.204
55117W        W14378  25.174  28.631  12.376
55118W        W14379  29.665  12.678  12.495
55119W        W14380   3.402  18.235  13.341
55120W        W14381  24.115   2.871   0.912
55121W        W14382  30.563  43.857  10.005
55122W        W14383   3.332  37.551   2.402
55123W        W14384  31.615   7.397   2.731
55124W        W14385  33.987  29.045   1.802
55125W        W14386  11.243  12.690   3.219
55126W        W14387   9.193  17.248   3.820
55127W        W14388  10.196  36.888   3.868
55128W        W14389  30.954  19.260  10.432
55129W        W14390  12.829  14.769   1.799
55130W        W14391  21.528  11.819  11.594
55131W        W14392  30.108  13.334   0.770
55132W        W14393  37.015  24.171   0.782
55133W        W14394   8.810  26.166   2.242
55134W        W14395  32.455  44.359  11.098
55135W        W14396  19.256  25.146   3.666
55136W        W14397  39.977  10.844   4.605
55137W        W14398  39.860  12.217  13.423
55138W        W14399  40.528  33.613   4.246
55139W        W14400  16.610  23.553  11.387
55140W        W14401  31.943  43.906  11.503
55141W        W14402  24.078  43.351  10.624
55142W        W14403  14.682  26.169  14.298
55143W        W14404   6.417  15.235  10.601
55144W        W14405   4.299  22.122  11.549
55145W        W14406   2.827  36.948   4.254
55146W        W14407  29.608  34.908  14.303
55147W        W14408   5.892  20.675   1.435
55148W        W14409  37.073   8.753   1.699
55149W        W14410  33.882  30.631   3.302
55150W        W14411  26.482  22.633   3.769
55151W        W14412  37.042  16.101   3.166
55152W        W14413   3.945   1.765  11.870
55153W        W14414  20.729  36.925  14.424
55154W        W14415  17.744   2.444  11.601
55155W        W14416  22.251  21.081  12.929
55156W        W14417  30.928  33.559  11.900
55157W        W14418  13.607  29.609   3.758
55158W        W14419   2.736  37.552  14.776
55159W        W14420   1.352  14.601   1.717
55160W        W14421  26.457  40.364  10.635
55161W        W14422  38.893   1.943  12.533
55162W        W14423  38.890  13.186   4.256
55163W        W14424  43.425  29.574  12.879
55164W        W14425  13.827  37.032  13.459
55165W        W14426  42.417  40.359  12.927
55166W        W14427  37.419  30.633   2.891
55167W        W14428  28.028  25.178  10.891
55168W        W14429   7.407  33.469   3.385
55169W        W14430  22.635  44.358   1.216
55170W        W14431  26.063  36.415  13.029
55171W        W14432   1.321  27.006  13.507
55172W        W14433  19.243   8.725   4.647
55173W        W14434  13.602  39.393  10.938
55174W        W14435  10.723  10.183   4.155
55175W        W14436  43.849  35.551   1.920
55176W        W14437  38.051  32.088   0.325
55177W        W14438   3.911  39.347   3.175
55178W        W14439  16.265  17.137   0.264
55179W        W14440   4.867  24.083   2.804
55180W        W14441  32.000  44.482   3.835
55181W        W14442   0.764   0.895  12.905
55182W        W14443  36.846   0.946  14.888
55183W        W14444  30.579  23.985  13.892
55184W        W14445  20.525  36.580  11.034
55185W        W14446  30.600   9.296   2.281
55186W        W14447  24.526   4.313  14.325
55187W        W14448  42.454   3.432  14.781
55188W        W14449  27.087  23.110   1.778
55189W        W14450  32.448  24.998  13.881
55190W        W14451  20.628  11.708  13.806
55191W        W14452  36.085  25.021  11.475
55192W        W14453  31.108   2.463   4.134
55193W        W14454   7.411  26.670  14.335
55194W        W14455   6.706  21.234   1.893
55195W        W14456  25.129  14.696   0.249
55196W        W14457  37.085  44.936   1.439
55197W        W14458  15.581   9.724  13.353
55198W        W14459  10.374  13.204  10.462
55199W        W14460  43.851  35.048   2.336
55200W        W14461  43.829  14.769   2.699
55201W        W14462  34.497  28.640   1.928
55202W        W14463  19.220  43.867  13.977
55203W        W14464  14.614  24.586   4.286
55204W        W14465  26.668  20.080   2.802
55205W        W14466  10.262  35.105  14.979
55206W        W14467  29.093  31.616   1.299
55207W        W14468  24.592  43.829   0.945
55208W        W14469   1.341  23.179  11.952
55209W        W14470  28.452  12.144   2.699
55210W        W14471  10.327  16.726  14.929
55211W        W14472   3.873  12.629   4.625
55212W        W14473  17.126  41.519   4.641
55213W        W14474  14.767  25.161   1.848
55214W        W14475  11.360   2.877  11.894
55215W        W14476  25.186  21.122   1.840
55216W        W14477  41.997  39.368   2.766
55217W        W14478  30.114  32.122  14.953
55218W        W14479  37.934  12.282   3.328
55219W        W14480   2.871  44.310   2.354
55220W        W14481   3.720  37.906  10.922
55221W        W14482  31.923  33.896  12.471
55222W        W14483  39.529   8.828  14.895
55223W        W14484  24.054  42.776   9.981
55224W        W14485  31.409  24.174  10.475
55225W        W14486  10.383  12.647  14.420
55226W        W14487   6.414  21.022  14.861
55227W        W14488  41.375  33.407  14.958
55228W        W14489  38.894  44.441  11.905
55229W        W14490  35.485  15.208   2.221
55230W        W14491   6.764   6.763   2.312
55231W        W14492   3.724  36.851   0.915
55232W        W14493  28.946   4.397   3.647
55233W        W14494  23.681  14.100  12.896
55234W        W14495  42.842  10.329  13.547
55235W        W14496  12.239  17.215  13.887
55236W        W14497  22.736  33.409   1.371
55237W        W14498  26.076   7.680  13.476
55238W        W14499   2.958  28.940  12.002
55239W        W14500  35.950  11.241  14.414
55240W        W14501  17.714  10.182   2.785
55241W        W14502  36.459  27.103  12.000
55242W        W14503  16.201  32.570   2.855
55243W        W14504  21.147  30.087   1.396
55244W        W14505  27.599  23.215  14.031
55245W        W14506   2.272  14.307   2.868
55246W        W14507   0.804   3.394  14.424
55247W        W14508   0.927  14.821  13.465
55248W        W14509  38.824  14.329   1.262
55249W        W14510  12.672  34.582  12.556
55250W        W14511   2.863  35.601   1.373
55251W        W14512  40.964  39.976  11.428
55252W        W14513  17.555   3.231   0.834
55253W        W14514  13.744   5.868   1.710
55254W        W14515  37.021  34.967   3.660
55255W        W14516  21.720  14.319  10.541
55256W        W14517   6.237  19.545   2.784
55257W        W14518   9.836  16.263   1.788
55258W        W14519  40.868  28.528   3.242
55259W        W14520  11.165  44.390   4.686
55260W        W14521  27.183  35.904   3.343
55261W        W14522   4.241  12.273  14.824
55262W        W14523  35.910  19.773   1.887
55263W        W14524  35.107  19.055  14.334
55264W        W14525   1.246  43.870   3.797
55265W        W14526   5.697  40.327  12.079
55266W        W14527   3.364  29.065   0.367
55267W        W14528   3.269  39.015   2.371
55268W        W14529  22.138  44.470  12.001
55269W        W14530  29.660  42.843   2.765
55270W        W14531  38.426  38.354   2.373
55271W        W14532  30.586  17.072   0.357
55272W        W14533  38.420  22.160   4.288
55273W        W14534  38.830   1.424   4.299
55274W        W14535   7.685  35.417   3.304
55275W        W14536  29.010   5.857  11.460
55276W        W14537  39.389  22.528   1.768
55277W        W14538  22.142  24.198  12.490
55278W        W14539  32.973  17.085   1.806
55279W        W14540  27.966  27.595   1.449
55280W        W14541   5.299  19.640   4.726
55281W        W14542  25.962  25.188   0.306
55282W        W14543   0.445   8.245   3.761
55283W        W14544  18.719  36.494  12.835
55284W        W14545   2.425  20.046  11.582
55285W        W14546   1.368   4.419  10.448
55286W        W14547   6.697  43.280   3.357
55287W        W14548  26.116  22.729   3.785
55288W        W14549  13.302  43.892   0.330
55289W        W14550  16.775   1.483  12.009
55290W        W14551  40.955   6.378   1.382
55291W        W14552   0.430  36.066  11.555
55292W        W14553   6.766  25.614   4.683
55293W        W14554  11.704  33.475  11.057
55294W        W14555  29.606  11.247   1.411
55295W        W14556  24.566  44.432  11.555
55296W        W14557   5.782  13.270   0.402
55297W        W14558  23.694  16.727   4.115
55298W        W14559  10.211   7.313   1.730
55299W        W14560  16.082   3.933  13.444
55300W        W14561  44.837  13.130   3.241
55301W        W14562  43.015  14.783  11.981
55302W        W14563   7.323  22.540   4.194
55303W        W14564   2.371  34.512  12.990
55304W        W14565  44.485   9.660  14.867
55305W        W14566   7.906  38.931  14.316
55306W        W14567  15.673  17.131   1.813
55307W        W14568  20.049   8.685  10.100
55308W        W14569  35.469  12.151   4.270
55309W        W14570   3.221  23.540  14.773
55310W        W14571  41.975  24.152   3.823
55311W        W14572  35.443  40.525  14.820
55312W        W14573  40.328  40.800   1.812
55313W        W14574  28.602  19.060   1.362
55314W        W14575  15.742  14.813  14.954
55315W        W14576  14.745  19.253  12.839
55316W        W14577  38.888   1.789  11.479
55317W        W14578  28.565   5.896  13.408
55318W        W14579  26.028  30.135   4.248
55319W        W14580  15.198  16.612  12.543
55320W        W14581  34.485  22.638   4.127
55321W        W14582  21.041  11.348   0.734
55322W        W14583  38.852  20.192   0.304
55323W        W14584  25.606  44.487  14.438
55324W        W14585  18.686   4.424   1.771
55325W        W14586  43.768   4.759   1.795
55326W        W14587   0.972  22.618   0.918
55327W        W14588  44.393  20.607  10.554
55328W        W14589   2.456   7.910  13.416
55329W        W14590  34.922  40.797  13.974
55330W        W14591   4.386  20.073   2.324
55331W        W14592  20.738   0.785   1.750
55332W        W14593   4.425   3.433  10.508
55333W        W14594   3.381  25.557  14.353
55334W        W14595  37.890  28.094   1.885
55335W        W14596   7.883  28.035  10.406
55336W        W14597  12.308  20.694   0.340
55337W        W14598  35.411   0.278   4.699
55338W        W14599  26.020  31.448  11.014
55339W        W14600  44.264  32.955   1.284
55340W        W14601   3.219   0.829   4.702
55341W        W14602  35.931  16.259  11.005
55342W        W14603  41.886  11.203  12.525
55343W        W14604  21.745  19.688  13.833
55344W        W14605   3.317  32.635   0.435
55345W        W14606  10.770   3.232  14.494
55346W        W14607  13.641   2.417  11.036
55347W        W14608  27.162  30.636  11.947
55348W        W14609  29.639  19.122   4.692
55349W        W14610   1.428  36.018   0.338
55350W        W14611  39.370  36.870   0.340
55351W        W14612  15.582  27.520  14.396
55352W        W14613  37.024   4.425   0.927
55353W        W14614   0.355  16.109   3.305
55354W        W14615  10.148  13.681   0.251
55355W        W14616  32.002  22.710   3.729
55356W        W14617   4.359  15.665  14.516
55357W        W14618  36.435  41.964   3.718
55358W        W14619  20.101   8.662   0.780
55359W        W14620   6.886   1.467  12.342
55360W        W14621  17.630  36.386   1.252
55361W        W14622   7.288  14.779   3.631
55362W        W14623  13.323  19.182  11.999
55363W        W14624  31.619  13.773  14.910
55364W        W14625  29.952  28.476  11.074
55365W        W14626  12.175  33.533   1.385
55366W        W14627  28.068   2.460  12.889
55367W        W14628  10.240   9.776   0.871
55368W        W14629  43.386  35.992   0.450
55369W        W14630  15.240  33.388  11.444
55370W        W14631  30.041   3.940  11.894
55371W        W14632  20.654  18.757  14.336
55372W        W14633   4.931  16.749   1.311
55373W        W14634   9.704  35.997   3.755
55374W        W14635  41.943  12.253   1.725
55375W        W14636  20.192  27.501   2.365
55376W        W14637  10.370  11.325  14.788
55377W        W14638  13.789  25.155  13.917
55378W        W14639  20.231  33.497  14.989
55379W        W14640  40.844  22.017  11.888
55380W        W14641   0.357  42.438  14.935
55381W        W14642   2.821  13.664  11.930
55382W        W14643  12.676  42.000  12.523
55383W        W14644  43.848  42.430  12.482
55384W        W14645  33.607  35.072  14.833
55385W        W14646  34.396  10.758   1.859
55386W        W14647  16.312  35.983  11.964
55387W        W14648   2.892  29.543  13.315
55388W        W14649  37.860  10.851  13.882
55389W        W14650  44.365  25.006  14.867
55390W        W14651   6.258  12.735   4.782
55391W        W14652  13.711  27.512  13.993
55392W        W14653  35.568  44.292  14.456
55393W        W14654  22.158  32.955  13.793
55394W        W14655  19.735  16.174  13.037
55395W        W14656  23.143  17.625  12.965
55396W        W14657  24.027   1.783  13.432
55397W        W14658  43.802   0.398   1.935
55398W        W14659  40.335  11.679   4.834
55399W        W14660  26.102  36.530  11.475
55400W        W14661   1.885  42.028  12.361
55401W        W14662  41.872   1.353  11.577
55402W        W14663  28.653  28.517  11.594
55403W        W14664  25.195  20.183   2.685
55404W        W14665  31.421  36.416  14.953
55405W        W14666  39.951  44.276   1.734
55406W        W14667  20.087  36.069  11.101
55407W        W14668   9.683  29.519  11.589
55408W        W14669   3.790   3.440   4.621
55409W        W14670  19.638   5.204   2.336
55410W        W14671  20.593  18.252   4.686
55411W        W14672  42.967  31.438  13.868
55412W        W14673  28.512  28.118   1.313
55413W        W14674  16.579  35.053  12.394
55414W        W14675  14.305  17.603   3.815
55415W        W14676  17.704  26.064   0.342
55416W        W14677  22.655  38.391   1.414
55417W        W14678  41.985  44.327   4.330
55418W        W14679  29.507  40.009   0.424
55419W        W14680  20.667  41.983  10.919
55420W        W14681  25.106  29.096  10.445
55421W        W14682  19.204   0.303  12.472
55422W        W14683  15.598  10.741  12.010
55423W        W14684  44.284  40.941   4.255
55424W        W14685   1.806  44.970   0.906
55425W        W14686   0.934  33.938   1.410
55426W        W14687   0.392  34.977  13.436
55427W        W14688  38.502  37.974  13.864
55428W        W14689  10.730  26.955   2.793
55429W        W14690   7.791  18.600   2.766
55430W        W14691  23.649  21.091  10.947
55431W        W14692  30.604  13.236  12.364
55432W        W14693   8.203  10.712   4.728
55433W        W14694  41.416   5.377   2.800
55434W        W14695   5.216  43.959  14.000
55435W        W14696   0.770  33.485   0.423
55436W        W14697   7.743  37.358   1.229
55437W        W14698  22.088  15.612   3.176
55438W        W14699   1.253   7.214   0.803
55439W        W14700  25.678   7.747   1.243
55440W        W14701  22.642  18.740   4.257
55441W        W14702  21.055  38.050  13.366
55442W        W14703  34.516  25.175   2.347
55443W        W14704  18.052  15.586   3.306
55444W        W14705  11.211   5.714  14.468
55445W        W14706  14.782  10.769  11.044
55446W        W14707  34.433  38.427   3.329
55447W        W14708  17.650  29.025  10.922
55448W        W14709  17.705   1.388   1.909
55449W        W14710  26.012  38.892   4.296
55450W        W14711  32.410  11.300  12.957
55451W        W14712  43.459  38.527   2.308
55452W        W14713  21.746   5.334   4.643
55453W        W14714   1.308  13.191  10.979
55454W        W14715  10.149  44.454   1.755
55455W        W14716  11.261  31.034  11.592
55456W        W14717  41.884  36.934  12.416
55457W        W14718  24.119  23.626  12.401
55458W        W14719   0.446  32.964  11.984
55459W        W14720  23.555  20.191   0.967
55460W        W14721  18.214  42.029   3.186
55461W        W14722   3.730  27.544   4.812
55462W        W14723   4.420  25.564  14.012
55463W        W14724  13.297  35.539   0.733
55464W        W14725  14.618   3.315  11.054
55465W        W14726  35.592  41.862   3.253
55466W        W14727  23.020  20.119   1.397
55467W        W14728  32.460   5.828  11.380
55468W        W14729   3.388  43.786  14.809
55469W        W14730  35.487  33.097   3.338
55470W        W14731  30.565   8.331  14.414
55471W        W14732  21.599  35.058   2.770
55472W        W14733  29.988  39.944  10.887
55473W        W14734  13.188  18.239   2.309
55474W        W14735  42.852  41.030   1.722
55475W        W14736   4.239  24.190  11.052
55476W        W14737  37.937  35.409  12.057
55477W        W14738  23.515  38.934  14.467
55478W        W14739  17.243  25.553   1.715
55479W        W14740  34.498  20.252   1.846
55480W        W14741  15.152  17.655   2.795
55481W        W14742  13.606  37.978  14.018
55482W        W14743  18.181   4.378   1.343
55483W        W14744  15.727  13.829  12.989
55484W        W14745   7.246  13.767  11.546
55485W        W14746  25.997  23.727  10.408
55486W        W14747  22.712   4.316  13.052
55487W        W14748  35.035  23.580  13.363
55488W        W14749   8.307  14.831  13.481
55489W        W14750  26.480  44.345   0.455
55490W        W14751  43.010  35.860   9.494
55491W        W14752  28.513  35.866  12.089
55492W        W14753  32.609   9.298   5.168
55493W        W14754  21.697  35.511  12.900
55494W        W14755   8.771   1.378  12.386
55495W        W14756  29.993  31.149   4.210
55496W        W14757  26.987  24.096   0.476
55497W        W14758   2.813  44.962  13.379
55498W        W14759  41.901  24.024  12.902
55499W        W14760   2.768  16.132  12.877
55500W        W14761  38.053   9.866  14.776
55501W        W14762  43.515  11.235   0.910
55502W        W14763   5.822  12.724   3.828
55503W        W14764  41.012  12.307  13.798
55504W        W14765  22.723  16.112   0.477
55505W        W14766   6.912   2.394   1.402
55506W        W14767  25.141  18.786  11.532
55507W        W14768   5.263  18.133   4.219
55508W        W14769  17.281  33.029   2.795
55509W        W14770  42.352   0.431   1.894
55510W        W14771  36.505  32.127  10.055
55511W        W14772   7.178  40.331   1.241
55512W        W14773   5.335   0.943  11.064
55513W        W14774  24.077  18.133   4.252
55514W        W14775  13.739   7.322  14.296
55515W        W14776   9.779  42.338  12.390
55516W        W14777  12.287  39.065   4.339
55517W        W14778  40.487   4.326  13.858
55518W        W14779   9.815   7.349  14.889
55519W        W14780   4.304  24.666  14.507
55520W        W14781   2.724   6.225  12.422
55521W        W14782   3.876  15.633  13.487
55522W        W14783   6.291  18.606   0.794
55523W        W14784  32.631  39.978   3.779
55524W        W14785   8.708  38.481   1.444
55525W        W14786  15.244  40.537   1.230
55526W        W14787   7.860   3.764   3.311
55527W        W14788   7.184   0.314  14.495
55528W        W14789  29.646  43.473  13.946
55529W        W14790  22.220  18.274  14.995
55530W        W14791  39.523  34.019  13.902
55531W        W14792   6.242   9.728   2.183
55532W        W14793  43.882  40.469  13.809
55533W        W14794  25.632  21.221   2.883
55534W        W14795  19.223  10.797   4.316
55535W        W14796  13.678   1.358   4.151
55536W        W14797  25.504  44.423   3.869
55537W        W14798  34.603  41.367   1.797
55538W        W14799  32.623  34.473   4.241
55539W        W14800   5.916   0.924   2.350
55540W        W14801   0.778  10.261  10.147
55541W        W14802  13.813  38.898   0.440
55542W        W14803  29.946  35.452  13.513
55543W        W14804  25.637  22.143  12.972
55544W        W14805  11.847  15.298   4.719
55545W        W14806  19.550  32.053   0.390
55546W        W14807   6.843  27.027   2.863
55547W        W14808  24.509  18.574  14.016
55548W        W14809  25.034  14.190   2.222
55549W        W14810  38.496  22.097  13.370
55550W        W14811  39.453  13.639  13.804
55551W        W14812  39.339  16.720   2.724
55552W        W14813  36.078  35.476  13.329
55553W        W14814  23.075  40.338   4.249
55554W        W14815  11.156  28.645  12.500
55555W        W14816  39.436  39.825   5.136
55556W        W14817  40.001  42.821  13.907
55557W        W14818   9.799   2.416  13.327
55558W        W14819   8.176  37.975  11.375
55559W        W14820  36.965  13.279  14.835
55560W        W14821   6.228  20.059  12.522
55561W        W14822  33.056   1.307   3.387
55562W        W14823  36.494  31.032  10.467
55563W        W14824  22.732  41.364  14.287
55564W        W14825  38.830  20.628  11.557
55565W        W14826   3.345  16.787  14.920
55566W        W14827  39.026   6.730  10.513
55567W        W14828  31.449   6.802  13.485
55568W        W14829  35.108  13.787  12.349
55569W        W14830  22.747  39.892   3.748
55570W        W14831  34.076  25.632   2.364
55571W        W14832   1.383  10.358  13.490
55572W        W14833  44.415  15.748  11.473
55573W        W14834  27.122   9.362   0.385
55574W        W14835   5.889  18.551   0.805
55575W        W14836  26.701  42.981   2.695
55576W        W14837  35.438   2.231  11.467
55577W        W14838  27.661  28.613   1.912
55578W        W14839  20.092  39.532   3.152
55579W        W14840   4.287  33.527  12.840
55580W        W14841  23.193  13.299  13.963
55581W        W14842  39.035  17.219   4.734
55582W        W14843  33.422  42.870  13.353
55583W        W14844  43.804   7.386   2.787
55584W        W14845  18.246  38.062   4.349
55585W        W14846  40.927  25.090  14.455
55586W        W14847  39.485  12.665   2.814
55587W        W14848  21.527  43.369   1.764
55588W        W14849   8.706  36.485  10.491
55589W        W14850  12.687  44.440   2.381
55590W        W14851  17.147   4.436  14.787
55591W        W14852  40.052   0.901  13.342
55592W        W14853   2.875   0.859  12.044
55593W        W14854  44.490  41.935   3.711
55594W        W14855  24.218  44.442  10.578
55595W        W14856   2.293  25.023  12.020
55596W        W14857  25.198  28.060   5.211
55597W        W14858  28.937  12.821  13.332
55598W        W14859  36.458   2.261   4.784
55599W        W14860   6.845  38.526   3.210
55600W        W14861  44.347   9.303   4.169
55601W        W14862  14.334  35.905   2.239
55602W        W14863   4.743  19.738   2.228
55603W        W14864  37.490   7.732   1.258
55604W        W14865  19.588  31.053   1.308
55605W        W14866   8.190   1.315  10.932
55606W        W14867  24.719  20.601  11.062
55607W        W14868  36.577  24.604  12.898
55608W        W14869  24.088  11.746  12.541
55609W        W14870   8.786  16.746  13.524
55610W        W14871  18.171  14.243  11.972
55611W        W14872   1.888   8.198  12.926
55612W        W14873  21.173  13.837  12.842
55613W        W14874   1.950  43.990  13.522
55614W        W14875  29.966  44.914   0.420
55615W        W14876  37.932  34.075  11.376
55616W        W14877  28.060  34.084  11.454
55617W        W14878  17.722   6.344  12.501
55618W        W14879  21.214  11.798   0.262
55619W        W14880  22.669  23.233   4.742
55620W        W14881  40.829  43.837   3.815
55621W        W14882  16.241  13.817   0.300
55622W        W14883  28.456   3.721   2.810
55623W        W14884  36.390  27.490   3.737
55624W        W14885  25.118  16.616   4.830
55625W        W14886  30.064   4.720  12.566
55626W        W14887  40.955  18.621  12.480
55627W        W14888   2.419   8.368  11.510
55628W        W14889   6.900  34.108  13.316
55629W        W14890  17.199  42.828  10.004
55630W        W14891   9.838  41.975  11.119
55631W        W14892  27.682  19.611  11.489
55632W        W14893  29.156  12.789   1.723
55633W        W14894  35.956  41.457   1.369
55634W        W14895   4.728  28.072   3.238
55635W        W14896  40.452  17.757   2.862
55636W        W14897  12.852  28.658  10.410
55637W        W14898  42.826  36.483   1.705
55638W        W14899  32.140   4.706   4.618
55639W        W14900  33.998  35.358   3.278
55640W        W14901  37.419   7.902  14.990
55641W        W14902  11.136  40.485  12.967
55642W        W14903  35.591  17.082   4.278
55643W        W14904  40.535  40.442   0.429
55644W        W14905  15.623  42.477   3.235
55645W        W14906  11.652  34.946  11.880
55646W        W14907  43.868  19.243  12.434
55647W        W14908  15.617  23.086   0.404
55648W        W14909  10.836  34.488   4.767
55649W        W14910   9.815  38.819   0.330
55650W        W14911  40.315   7.806   2.867
55651W        W14912   2.348  33.565   3.777
55652W        W14913  13.291  28.609   1.788
55653W        W14914  19.117   0.417  13.434
55654W        W14915  18.210  19.581   1.334
55655W        W14916  20.046   3.360   1.249
55656W        W14917  30.063  31.951   9.539
55657W        W14918  14.176  26.509   2.350
55658W        W14919  36.393   9.652  14.923
55659W        W14920  14.811  29.512  11.916
55660W        W14921  35.063   3.450   0.414
55661W        W14922  37.849  33.906  11.914
55662W        W14923   4.308  40.815  13.850
55663W        W14924  26.602  38.471  10.604
55664W        W14925   1.390  13.751   1.805
55665W        W14926  35.094  12.239   3.368
55666W        W14927  18.733  37.557  11.986
55667W        W14928  10.681  20.181  12.087
55668W        W14929  40.973   1.255   0.410
55669W        W14930  28.477  37.456  12.414
55670W        W14931  32.576  11.352   0.474
55671W        W14932  21.519  11.622  12.537
55672W        W14933  25.683  32.096  13.799
55673W        W14934   9.772   9.887   0.443
55674W        W14935  18.086  44.469   2.210
55675W        W14936  10.320  20.699  11.379
55676W        W14937  17.617  26.625   0.836
55677W        W14938   5.904  30.651   4.827
55678W        W14939   3.733  28.033  11.473
55679W        W14940   2.880  40.447   3.653
55680W        W14941  43.332  26.080   2.236
55681W        W14942  30.615  18.269  11.489
55682W        W14943  24.018  36.379  12.928
55683W        W14944  43.455  14.773   1.927
55684W        W14945  39.488  31.063  11.525
55685W        W14946   9.801   8.277  11.126
55686W        W14947  43.994   9.648   4.201
55687W        W14948  12.274  27.685   4.645
55688W        W14949   3.304   6.287  14.857
55689W        W14950   5.219  43.351  13.408
55690W        W14951  25.633  17.173  12.353
55691W        W14952  20.172   2.907   2.777
55692W        W14953  26.499  32.473   5.241
55693W        W14954  20.701  17.124   2.698
55694W        W14955  33.532  19.271   1.733
55695W        W14956  22.628  10.686  12.827
55696W        W14957  40.537  35.441  12.081
55697W        W14958  22.537  25.595  14.337
55698W        W14959  28.973  29.945   3.654
55699W        W14960  19.672  16.251   3.753
55700W        W14961  17.599  10.196  14.396
55701W        W14962  36.451  24.107   1.418
55702W        W14963  20.053  37.574  12.042
55703W        W14964  44.758   7.706  11.494
55704W        W14965   9.377  14.687  12.421
55705W        W14966  16.758  30.163  14.368
55706W        W14967  29.472  26.031   3.846
55707W        W14968   9.300   8.350   3.266
55708W        W14969  41.291  41.447  13.038
55709W        W14970  38.473  24.107   0.822
55710W        W14971  27.645  40.807   1.385
55711W        W14972  11.153  39.521  11.045
55712W        W14973  34.085  37.375  10.891
55713W        W14974  44.312   5.238   1.413
55714W        W14975  11.135  38.050  13.006
55715W        W14976   4.404  35.912  14.956
55716W        W14977  31.542  35.588  11.955
55717W        W14978  38.826  24.160   3.327
55718W        W14979   9.862   7.693  11.480
55719W        W14980   8.309   4.882   1.328
55720W        W14981  30.591  36.501  14.000
55721W        W14982  30.137  33.483   0.791
55722W        W14983  29.574   0.985   2.859
55723W        W14984  30.137  21.106  14.453
55724W        W14985  37.926   8.794   3.147
55725W        W14986   8.315  19.673  14.838
55726W        W14987  11.640   9.793   0.738
55727W        W14988  23.018  10.831  11.867
55728W        W14989  10.362  35.600  12.976
55729W        W14990  32.057   8.397   4.230
55730W        W14991   8.699  10.768  11.381
55731W        W14992  19.052   6.869  14.882
55732W        W14993  41.450  20.259   2.203
55733W        W14994  31.481  44.278  11.076
55734W        W14995  16.777  31.111  14.325
55735W        W14996   0.827  12.230   3.165
55736W        W14997  28.564  10.144  14.868
55737W        W14998  36.545  40.454   0.958
55738W        W14999  20.147  38.501   3.366
55739W        W15000  34.889  25.625  13.882
55740W        W15001  40.516   8.873   3.206
55741W        W15002  19.216   9.689  10.623
55742W        W15003  30.071   5.772   3.851
55743W        W15004  32.974  42.946   1.263
55744W        W15005  22.517  15.654   2.397
55745W        W15006  14.596  44.868  14.350
55746W        W15007   6.372  36.372   3.794
55747W        W15008  19.239  37.401  11.912
55748W        W15009  32.934  38.983  11.074
55749W        W15010  32.082   9.863  10.071
55750W        W15011  40.506  24.171   3.690
55751W        W15012  19.166   4.404  11.392
55752W        W15013  38.984  15.195   0.451
55753W        W15014  27.691  43.421   1.309
55754W        W15015   9.879  12.659  12.065
55755W        W15016  24.150  25.195   4.747
55756W        W15017  26.537  39.454  13.955
55757W        W15018   5.814   2.763   0.835
55758W        W15019  19.110  40.486   1.258
55759W        W15020  30.572  11.164  14.770
55760W        W15021  33.473   7.200   5.690
55761W        W15022  24.021  44.757  14.776
55762W        W15023  42.970   9.193   4.794
55763W        W15024   0.792  20.692  14.993
55764W        W15025   7.210   3.454   5.206
55765W        W15026  25.168  24.489  12.888
55766W        W15027  30.010  39.439  10.504
55767W        W15028  39.365  24.064   2.244
55768W        W15029   1.829  10.205   1.820
55769W        W15030  40.423   8.671  11.379
55770W        W15031  37.441  43.804  10.993
55771W        W15032  18.769  28.454  10.460
55772W        W15033  13.694  14.200   5.184
55773W        W15034  40.850  32.515  13.059
55774W        W15035  30.627  10.708   3.834
55775W        W15036   9.258  18.247  12.935
55776W        W15037  11.698   8.805  13.961
55777W        W15038   5.332  24.031   4.131
55778W        W15039  32.126  41.422  14.974
55779W        W15040  37.423   0.469  13.810
55780W        W15041  35.907  37.406   3.168
55781W        W15042  29.646  29.993  13.029
55782W        W15043   6.888  42.013  11.390
55783W        W15044  31.554  11.212  11.425
55784W        W15045   4.865  39.946   4.269
55785W        W15046  26.645  35.088  11.602
55786W        W15047  32.120  29.117  10.897
55787W        W15048   3.940  32.965   2.403
55788W        W15049  14.326  16.142   1.698
55789W        W15050  34.024  36.537  12.935
55790W        W15051  33.031   5.427  12.448
55791W        W15052   8.334   8.669  13.952
55792W        W15053   7.911  42.898   4.838
55793W        W15054  13.840  19.578  11.497
55794W        W15055  37.032  16.179  14.868
55795W        W15056  42.484   5.847   0.378
55796W        W15057  24.585   1.300   3.352
55797W        W15058  19.734  32.939  13.969
55798W        W15059  11.257  27.654   1.243
55799W        W15060   4.731  39.359  13.821
55800W        W15061  40.494  15.120   3.283
55801W        W15062   8.228   2.231   0.340
55802W        W15063   1.782  27.566  14.310
55803W        W15064   0.256   0.962  13.524
55804W        W15065  37.491  36.030  14.984
55805W        W15066   0.987  22.146  13.470
55806W        W15067  16.196  20.054   4.733
55807W        W15068  44.483  42.969  14.793
55808W        W15069  29.124  26.460   0.810
55809W        W15070   5.358   9.871   0.332
55810W        W15071  36.916  40.931  11.119
55811W        W15072  37.533  25.175  11.985
55812W        W15073  26.506  30.954  11.001
55813W        W15074   7.858   9.710  10.931
55814W        W15075  21.663  43.303  13.353
55815W        W15076   8.834  34.544  13.443
55816W        W15077   6.888   5.742  14.773
55817W        W15078  42.488  44.336   3.828
55818W        W15079  38.910  18.727  11.066
55819W        W15080  42.875  39.556   3.742
55820W        W15081  43.856  24.103   1.851
55821W        W15082   1.438  40.840   4.652
55822W        W15083  22.699  35.044   0.269
55823W        W15084  44.769  20.244  14.873
55824W        W15085  27.171   9.340   2.854
55825W        W15086   0.392   6.799  13.514
55826W        W15087   7.356  27.595   3.696
55827W        W15088  11.814  33.095   3.308
55828W        W15089  20.596   4.860   3.769
55829W        W15090  24.175  43.283   4.699
55830W        W15091  27.948   2.436  11.562
55831W        W15092  35.450  24.028  14.929
55832W        W15093  20.235  14.783   1.706
55833W        W15094   9.266  12.749  11.001
55834W        W15095  36.531  11.692  10.034
55835W        W15096  36.968   2.452  14.996
55836W        W15097  21.743  33.107  14.893
55837W        W15098  34.498   1.402  12.504
55838W        W15099  34.041  15.616   4.183
55839W        W15100  15.089  41.798   4.725
55840W        W15101  38.909  27.612   3.852
55841W        W15102   9.849  37.026   0.249
55842W        W15103  37.455  36.077   0.798
55843W        W15104   6.365  13.243  12.394
55844W        W15105   8.226  23.183  13.838
55845W        W15106  44.787  15.210   4.792
55846W        W15107   3.309  17.783  12.484
55847W        W15108  22.165   5.331  12.472
55848W        W15109  23.620  13.834  11.000
55849W        W15110  14.613   0.815  11.455
55850W        W15111   0.297  12.319  13.499
55851W        W15112  17.197  20.238  11.028
55852W        W15113  32.972   6.254  13.959
55853W        W15114  27.195  14.646  13.832
55854W        W15115  11.255  43.788  14.285
55855W        W15116  34.457  31.956   4.650
55856W        W15117  42.336  30.549  14.976
55857W        W15118  30.597  11.828  14.421
55858W        W15119  17.672  42.821  12.375
55859W        W15120  30.532  23.731  14.456
55860W        W15121  36.584  25.527   0.778
55861W        W15122  10.229  32.992   0.365
55862W        W15123  18.130  17.257  12.494
55863W        W15124  43.309  11.653  13.318
55864W        W15125  26.180  19.757  10.890
55865W        W15126  15.781  35.044   1.924
55866W        W15127  38.824  25.040   4.215
55867W        W15128  32.897  36.587  14.871
55868W        W15129   2.392  16.638   2.864
55869W        W15130  21.024  34.610  14.905
55870W        W15131  28.661   4.390   2.808
55871W        W15132  34.588  16.167  13.318
55872W        W15133  16.165  12.228  14.882
55873W        W15134  38.561  40.332  14.932
55874W        W15135  44.496  42.494   3.645
55875W        W15136  39.543  30.035   0.443
55876W        W15137   6.303  37.970   4.165
55877W        W15138   4.820  21.530   3.867
55878W        W15139  16.279  19.073   0.323
55879W        W15140  19.582  15.248  14.774
55880W        W15141  20.532  14.330  12.082
55881W        W15142  19.699  18.238   5.121
55882W        W15143   9.668  11.735  11.071
55883W        W15144  18.235  20.249   0.880
55884W        W15145  37.904  40.806   1.425
55885W        W15146  31.130  14.248   2.793
55886W        W15147  37.989  44.777   1.761
55887W        W15148  22.023  14.169  10.489
55888W        W15149  31.483   4.849  14.911
55889W        W15150  25.541   1.800  14.031
55890W        W15151  36.561  16.303  14.279
55891W        W15152  17.596  38.878   4.272
55892W        W15153  29.552  10.167   1.414
55893W        W15154  43.831  23.659   4.716
55894W        W15155  31.427  44.905   4.608
55895W        W15156  39.324  14.606  14.921
55896W        W15157  21.569  34.531   1.867
55897W        W15158  38.944  11.674   1.769
55898W        W15159  22.514  37.974   1.731
55899W        W15160  39.338  36.941   1.754
55900W        W15161  27.488  40.465   3.376
55901W        W15162  33.398   7.295  13.866
55902W        W15163  21.742  15.204  11.030
55903W        W15164  42.479  39.464   2.664
55904W        W15165  20.705  10.714  11.968
55905W        W15166  10.750   1.385  12.978
55906W        W15167  11.186  26.526  14.999
55907W        W15168  34.942  44.856   3.367
55908W        W15169   8.203   2.913  13.799
55909W        W15170  43.452   2.336   1.930
55910W        W15171  41.424   8.206  14.492
55911W        W15172  39.451   5.235   2.249
55912W        W15173   7.403  31.965   4.603
55913W        W15174   9.874  35.009  14.355
55914W        W15175  14.127  38.946   2.685
55915W        W15176  14.139  30.624  12.451
55916W        W15177  34.120  11.748   4.241
55917W        W15178  38.897  36.912   4.247
55918W        W15179   4.336  11.787   4.706
55919W        W15180  30.983  15.184  10.491
55920W        W15181  28.576  33.396   0.748
55921W        W15182  29.026  39.867   0.316
55922W        W15183  20.060  25.131  14.285
55923W        W15184  13.768  41.373   0.250
55924W        W15185  44.818   2.854   4.131
55925W        W15186  20.119  37.842  12.852
55926W        W15187  15.761  17.677   2.285
55927W        W15188   0.407   7.744  14.776
55928W        W15189  10.373  25.646   3.366
55929W        W15190  38.018  18.595   1.914
55930W        W15191   4.898  27.560   3.656
55931W        W15192  20.040  25.670   1.924
55932W        W15193   5.251  41.527   4.166
55933W        W15194  36.375  44.957   3.282
55934W        W15195  41.896  41.967  13.519
55935W        W15196  19.151  28.082   1.720
55936W        W15197   8.765  11.814  14.866
55937W        W15198  38.879  36.524  12.396
55938W        W15199  37.516  25.981  14.307
55939W        W15200  36.870  23.497   0.830
55940W        W15201   2.426  41.348  12.917
55941W        W15202  41.867  35.421   1.352
55942W        W15203   0.302   9.210   3.227
55943W        W15204  14.792  13.292   4.295
55944W        W15205  44.341   3.746   2.302
55945W        W15206  16.263  32.944  11.894
55946W        W15207  26.999  43.499   0.730
55947W        W15208   4.761  12.614   0.889
55948W        W15209  17.653  11.649   2.816
55949W        W15210  43.807  19.692  12.841
55950W        W15211  37.882  20.579  11.553
55951W        W15212  26.003   0.791   3.209
55952W        W15213  36.962  17.588   4.337
55953W        W15214  30.614  43.324  11.883
55954W        W15215  26.527   0.256  13.857
55955W        W15216  20.107  33.506   4.301
55956W        W15217  30.059  38.065   3.784
55957W        W15218  37.428  21.103  11.390
55958W        W15219  32.526  44.811  14.927
55959W        W15220   5.821  22.528  12.928
55960W        W15221  12.854  44.904  12.484
55961W        W15222  26.172   4.909  13.412
55962W        W15223  32.040  10.690  10.449
55963W        W15224  10.851   1.937   1.317
55964W        W15225  36.471  16.733   4.321
55965W        W15226   6.913   6.723  14.492
55966W        W15227  38.940  32.412  13.833
55967W        W15228  32.048  42.367   0.929
55968W        W15229  30.485  10.306  13.948
55969W        W15230  35.867  29.172  14.774
55970W        W15231  44.468  31.040   2.774
55971W        W15232   2.409   3.808   3.168
55972W        W15233  44.767  40.040   1.933
55973W        W15234  39.037  12.789  10.919
55974W        W15235  25.630   1.288  13.926
55975W        W15236  43.976  42.777   1.738
55976W        W15237   0.842   5.350  10.892
55977W        W15238  13.698   3.759  13.035
55978W        W15239  41.375  34.980   1.703
55979W        W15240  27.015  19.275   3.274
55980W        W15241  18.686   3.251   1.340
55981W        W15242  21.075   2.444  11.934
55982W        W15243  26.983   7.173  13.480
55983W        W15244  28.118  14.627   3.343
55984W        W15245  44.275  39.534  13.419
55985W        W15246  28.962   6.341   4.598
55986W        W15247  20.232   8.340   2.376
55987W        W15248  41.909   5.714   3.201
55988W        W15249  11.258  14.594   3.693
55989W        W15250  19.671  11.726   0.880
55990W        W15251  34.392  19.179  14.006
55991W        W15252  44.003   3.321   4.731
55992W        W15253   0.971  26.587  10.058
55993W        W15254   5.812  30.627   0.752
55994W        W15255   1.409  32.012   0.843
55995W        W15256   7.305  11.681  13.819
55996W        W15257   2.304  44.337   3.844
55997W        W15258  25.211  27.589   3.189
55998W        W15259  41.446  14.284  12.395
55999W        W15260  23.520  14.773   2.868
56000W        W15261  20.070  12.851  11.891
56001W        W15262   3.914  33.118  11.945
56002W        W15263  43.857   6.359   3.222
56003W        W15264  34.460  36.911   2.723
56004W        W15265  20.042  28.441   0.475
56005W        W15266  15.693  32.032   3.758
56006W        W15267  39.398  17.140  10.462
56007W        W15268   1.767  44.490  13.485
56008W        W15269  35.408   6.790  14.288
56009W        W15270  20.706  37.425   1.371
56010W        W15271  33.052  42.902  14.455
56011W        W15272  27.076  16.568   4.307
56012W        W15273  32.023  20.669   3.673
56013W        W15274  12.680   7.408  11.997
56014W        W15275  41.864  17.763   3.279
56015W        W15276  15.328   4.291  11.372
56016W        W15277  13.185   3.870   2.226
56017W        W15278   1.878  21.186  13.812
56018W        W15279  35.489  31.968  11.906
56019W        W15280  42.443  11.704   0.824
56020W        W15281  32.496  34.000   1.358
56021W        W15282  29.606  24.611  14.307
56022W        W15283  23.119  14.617   0.273
56023W        W15284  30.465   7.758  13.860
56024W        W15285  15.763  28.993  10.631
56025W        W15286  37.448  42.970   3.863
56026W        W15287  29.081  43.824   4.826
56027W        W15288   8.661   4.380  10.580
56028W        W15289  17.299  18.245  14.365
56029W        W15290  30.449   1.757  12.523
56030W        W15291  38.821  13.790  14.820
56031W        W15292  31.479   6.185   1.701
56032W        W15293  28.496  22.036   4.792
56033W        W15294   5.413  39.954   4.196
56034W        W15295  11.186  12.794   0.772
56035W        W15296  13.658  44.975   2.804
56036W        W15297  23.008  39.546  13.891
56037W        W15298   6.804   9.878   2.766
56038W        W15299   6.703  18.734  13.797
56039W        W15300  10.779   4.931  14.956
56040W        W15301  23.136  27.448   1.708
56041W        W15302  20.048   9.309   1.345
56042W        W15303  37.348  30.414  10.555
56043W        W15304  11.337  42.867  10.907
56044W        W15305  35.419   8.160  12.533
56045W        W15306  28.117  15.210  14.347
56046W        W15307   9.660  13.807  14.470
56047W        W15308  32.133   2.344   4.240
56048W        W15309  29.965  13.219   4.325
56049W        W15310  15.329  40.018   1.393
56050W        W15311  40.322  37.008  10.552
56051W        W15312  40.898   7.752  13.320
56052W        W15313  21.718  27.102   1.839
56053W        W15314  40.459   9.264   3.319
56054W        W15315  39.536  38.414   1.310
56055W        W15316   4.726  16.114  13.796
56056W        W15317  13.619  42.309   3.780
56057W        W15318   0.381  21.526   0.756
56058W        W15319  40.818  27.071  11.020
56059W        W15320  44.842  26.483   2.759
56060W        W15321   6.244  40.358   1.251
56061W        W15322   3.800  17.098   3.336
56062W        W15323  41.517  37.533   2.202
56063W        W15324   0.925  42.963   2.877
56064W        W15325  44.755  33.055   3.669
56065W        W15326  23.162  10.344   0.831
56066W        W15327  31.934   1.828   3.696
56067W        W15328  35.496  30.151   3.287
56068W        W15329  39.520  28.615   3.793
56069W        W15330  41.971   3.423   4.325
56070W        W15331  32.543  20.655   0.835
56071W        W15332   4.784   0.465   0.448
56072W        W15333  36.849  40.525   3.775
56073W        W15334  43.326  25.489   2.230
56074W        W15335  26.692  30.908  12.019
56075W        W15336   1.868  24.175   3.299
56076W        W15337   2.282  27.460  12.956
56077W        W15338  44.967  41.888  13.342
56078W        W15339  40.904   5.859   0.248
56079W        W15340  27.969  17.105   0.253
56080W        W15341  16.227  13.160  14.488
56081W        W15342  44.382  41.311  10.121
56082W        W15343  15.123  27.594   1.434
56083W        W15344  21.726   4.781   4.331
56084W        W15345   5.300  29.537   3.224
56085W        W15346   5.357  26.180   3.299
56086W        W15347  25.968  33.102  14.766
56087W        W15348  17.769  33.480  14.960
56088W        W15349  14.274  36.904   0.421
56089W        W15350  24.128  39.482  14.030
56090W        W15351   4.881  31.921   4.209
56091W        W15352  36.352  37.075   4.800
56092W        W15353   1.241   0.338   4.233
56093W        W15354  21.076  43.305   1.824
56094W        W15355  35.907  14.273   1.224
56095W        W15356  19.579  34.612  12.564
56096W        W15357  32.107   7.903   4.776
56097W        W15358  36.928   5.828   1.735
56098W        W15359  20.079  26.495  13.383
56099W        W15360   6.314  14.726   4.220
56100W        W15361  27.574  18.698  11.575
56101W        W15362  12.708  29.623  12.358
56102W        W15363  11.839  28.505  10.577
56103W        W15364   6.798  26.072  12.576
56104W        W15365   8.278  44.946  14.831
56105W        W15366  41.953  19.231   5.723
56106W        W15367  19.240  16.312   0.952
56107W        W15368   5.796  38.360   0.271
56108W        W15369   9.739  43.349  11.097
56109W        W15370  20.617  10.836  12.886
56110W        W15371  34.609   6.703   1.220
56111W        W15372   6.738  21.570  11.600
56112W        W15373  30.659   2.737   5.270
56113W        W15374  36.921  31.434  14.352
56114W        W15375  10.183   2.767  13.481
56115W        W15376   3.924  44.907  10.473
56116W        W15377  37.921  29.082   1.302
56117W        W15378  20.529  30.474  12.400
56118W        W15379  25.193  42.493   0.338
56119W        W15380  10.854  41.326   0.369
56120W        W15381  29.429  41.925   0.474
56121W        W15382   2.959   1.769  14.431
56122W        W15383  26.180   5.300  13.398
56123W        W15384  20.654  35.381   2.773
56124W        W15385  20.733  32.636   4.220
56125W        W15386  18.755  10.310   2.205
56126W        W15387  40.824  13.310   0.820
56127W        W15388   7.683  42.864   3.336
56128W        W15389  18.249  25.112   3.380
56129W        W15390  21.710  19.194  13.404
56130W        W15391  22.159  30.145   5.168
56131W        W15392  13.819  31.422   2.331
56132W        W15393  30.973   6.298   3.188
56133W        W15394  40.014   3.916   2.212
56134W        W15395  18.599   6.806   5.294
56135W        W15396   5.831  38.063  12.579
56136W        W15397  30.956   3.779  11.552
56137W        W15398  22.671   9.352   0.267
56138W        W15399  12.690  30.060   0.350
56139W        W15400  25.612  44.503   0.961
56140W        W15401  27.636  27.941  10.998
56141W        W15402  30.045  15.586  13.838
56142W        W15403  15.174  38.525  12.353
56143W        W15404  39.937  22.173   2.238
56144W        W15405  24.645  31.924  14.379
56145W        W15406  30.122  29.924   3.667
56146W        W15407  33.072   1.473  13.431
56147W        W15408   6.684  16.676  10.985
56148W        W15409  17.265  39.366  13.822
56149W        W15410  14.629  10.188   5.214
56150W        W15411   8.882  35.411   3.245
56151W        W15412  29.019  17.574   0.457
56152W        W15413  16.759  30.001   1.333
56153W        W15414  18.600  39.824   4.189
56154W        W15415  27.028  44.372   0.959
56155W        W15416  20.708  40.371  14.772
56156W        W15417  17.773   2.894   2.391
56157W        W15418  37.970  19.573   1.789
56158W        W15419  20.264   9.242  10.510
56159W        W15420  32.478  36.905  14.292
56160W        W15421  18.053  32.100  10.624
56161W        W15422  18.689   7.376   3.678
56162W        W15423  22.095  19.227   1.893
56163W        W15424   8.379  12.175  11.578
56164W        W15425  13.688  38.025   1.821
56165W        W15426   3.351  43.929  11.018
56166W        W15427  21.703  44.841   3.780
56167W        W15428  42.788  19.204   4.624
56168W        W15429  17.721  37.837  12.545
56169W        W15430  32.099  29.946  13.472
56170W        W15431  18.278   2.939   4.684
56171W        W15432  44.315  41.012  10.991
56172W        W15433  23.009  30.031   9.991
56173W        W15434  35.438  26.668  14.916
56174W        W15435  24.019  34.057  10.439
56175W        W15436  32.081  27.686   3.839
56176W        W15437  15.217  33.399  14.429
56177W        W15438  35.896  40.390   3.840
56178W        W15439  28.646  39.528  14.489
56179W        W15440  14.248  15.644   0.294
56180W        W15441   1.468  19.556   4.744
56181W        W15442  16.799  43.853  14.468
56182W        W15443  25.109  36.395   3.179
56183W        W15444   5.808  32.041   5.223
56184W        W15445  13.806   6.820   3.349
56185W        W15446  22.220  14.292   3.174
56186W        W15447  28.452   4.722  12.861
56187W        W15448  23.182  17.123   4.773
56188W        W15449  30.419  15.614   0.355
56189W        W15450  24.213  23.149  12.003
56190W        W15451  42.375   4.361  13.984
56191W        W15452  23.136  12.188   4.347
56192W        W15453  41.428  28.624   2.828
56193W        W15454  30.616  32.078   3.187
56194W        W15455  39.374   0.748   3.857
56195W        W15456   9.161  11.623  14.994
56196W        W15457  40.013  30.950   0.944
56197W        W15458   6.734   3.892  12.968
56198W        W15459  32.616  33.040  14.896
56199W        W15460  42.425  37.951   0.799
56200W        W15461  15.675  40.428  11.892
56201W        W15462   8.844   8.210   1.243
56202W        W15463   4.282  38.559   0.400
56203W        W15464   5.765   9.828  10.967
56204W        W15465   6.309   5.401   0.850
56205W        W15466  35.404  16.188  12.527
56206W        W15467  37.427  35.104  13.808
56207W        W15468  33.952  30.130   2.350
56208W        W15469  30.520  25.653   4.312
56209W        W15470   3.236   9.230  12.528
56210W        W15471  16.118  27.013   0.925
56211W        W15472  29.004  34.069   3.167
56212W        W15473  33.462  35.034  11.112
56213W        W15474  34.378   8.321   0.310
56214W        W15475  13.298  37.361   4.801
56215W        W15476  36.390  32.529   4.761
56216W        W15477  10.304  35.024   1.417
56217W        W15478  10.858  31.638  13.994
56218W        W15479  33.432  25.148  10.024
56219W        W15480  29.936  28.037   4.696
56220W        W15481  26.128   1.975   1.887
56221W        W15482  44.911  34.551   5.597
56222W        W15483  33.126  39.018  12.049
56223W        W15484  11.835  12.345  14.425
56224W        W15485  26.084  44.964   0.344
56225W        W15486   8.795  16.265  10.534
56226W        W15487  13.267  23.139   2.408
56227W        W15488  32.544  25.624  14.432
56228W        W15489  23.204   7.695  11.548
56229W        W15490  15.208  29.550   3.272
56230W        W15491  14.735   4.824   5.197
56231W        W15492  39.985   1.825  12.842
56232W        W15493  38.920  16.203   1.777
56233W        W15494  26.480   9.853   3.201
56234W        W15495  19.658  30.543   1.758
56235W        W15496  19.726  40.368   0.258
56236W        W15497   1.865  35.405  14.474
56237W        W15498  36.065   0.390  12.548
56238W        W15499   0.862   6.263  12.044
56239W        W15500  42.429  22.656  11.067
56240W        W15501   0.847  11.272  11.418
56241W        W15502  40.359  31.071  13.472
56242W        W15503  41.865   7.301   4.615
56243W        W15504  41.911   8.217   3.841
56244W        W15505  12.770  21.075   1.766
56245W        W15506  12.269   9.221  14.909
56246W        W15507   3.893  14.709   2.878
56247W        W15508  10.192  19.608   0.947
56248W        W15509  40.442  10.353   1.843
56249W        W15510  14.302  12.707   4.639
56250W        W15511  39.376  37.481   3.725
56251W        W15512  38.969   6.802   0.755
56252W        W15513  42.973   9.713  12.366
56253W        W15514  37.879   3.877  11.417
56254W        W15515  34.971  40.004   3.223
56255W        W15516  36.923  21.208   4.319
56256W        W15517  31.066  21.577   0.941
56257W        W15518   2.925   2.318  13.451
56258W        W15519  20.267   3.297  14.920
56259W        W15520   9.275  41.832   0.457
56260W        W15521  40.028  23.096   1.214
56261W        W15522  15.198  22.157  13.015
56262W        W15523  21.737  10.261  12.054
56263W        W15524  44.431  19.628   0.917
56264W        W15525  35.571  41.877  14.388
56265W        W15526  42.997  44.882  11.576
56266W        W15527  15.196  28.674  11.940
56267W        W15528  40.979  23.546  14.406
56268W        W15529  43.400  44.328   2.407
56269W        W15530  41.922  17.215   4.730
56270W        W15531  26.206  13.199  14.479
56271W        W15532  27.631   0.356  12.856
56272W        W15533  24.200  39.434   2.268
56273W        W15534  16.291   5.932  11.462
56274W        W15535   3.329  40.323  11.456
56275W        W15536  13.644   5.371  13.530
56276W        W15537  16.231   0.828   4.310
56277W        W15538  28.567  20.259  11.608
56278W        W15539   7.283  44.793  11.372
56279W        W15540  20.530  36.517   4.737
56280W        W15541  18.660   9.226  13.391
56281W        W15542  23.728   9.365  11.958
56282W        W15543   1.278  39.902  12.423
56283W        W15544  10.669  13.784  14.030
56284W        W15545  11.835  30.414  11.050
56285W        W15546  43.798  14.797  13.531
56286W        W15547  23.011  29.920   0.450
56287W        W15548  12.638  17.062   4.607
56288W        W15549  43.496  30.065  12.384
56289W        W15550   7.266   1.823  10.924
56290W        W15551  16.781  26.552  13.495
56291W        W15552  39.493  16.100  13.048
56292W        W15553  40.486  14.225  11.873
56293W        W15554   8.745  37.421   4.824
56294W        W15555  44.472  16.767  14.347
56295W        W15556   3.280   9.222  11.078
56296W        W15557  29.088  15.279   0.865
56297W        W15558  20.602   5.404  10.993
56298W        W15559  15.201  21.747   3.645
56299W        W15560  10.664   9.789   2.839
56300W        W15561   2.775   9.231  11.924
56301W        W15562  40.028   0.318  12.877
56302W        W15563  17.093   8.232  12.376
56303W        W15564  41.888  39.468   3.252
56304W        W15565  33.910   7.755   0.804
56305W        W15566  40.532  30.912   0.802
56306W        W15567  26.058  19.157  10.612
56307W        W15568  38.830  39.915  11.549
56308W        W15569  25.026  39.384   0.829
56309W        W15570  25.075   1.782  11.892
56310W        W15571  15.306  28.466   1.341
56311W        W15572  43.489  11.201   2.888
56312W        W15573  24.170   3.940   0.919
56313W        W15574  36.479  25.514   4.138
56314W        W15575  42.322  29.106   5.298
56315W        W15576  34.433  27.530   3.779
56316W        W15577  14.647  35.108  14.391
56317W        W15578   4.716  41.868   3.680
56318W        W15579  32.395  19.700  11.385
56319W        W15580  36.526  30.909   0.441
56320W        W15581  34.595   8.234   1.916
56321W        W15582  34.029   8.748   1.343
56322W        W15583   0.903  44.366  12.933
56323W        W15584  34.496  29.081  13.872
56324W        W15585  21.215  36.867  11.484
56325W        W15586  13.338  28.083   0.405
56326W        W15587   8.275  20.692   0.450
56327W        W15588  10.181  36.513   0.295
56328W        W15589   9.720  23.993  11.001
56329W        W15590  27.501   0.251   3.153
56330W        W15591  15.773  19.088  14.838
56331W        W15592  36.878  15.602   1.382
56332W        W15593   8.834  24.119  12.975
56333W        W15594  31.078   6.395  13.057
56334W        W15595  43.451   2.724  10.934
56335W        W15596  43.919  26.069   1.720
56336W        W15597  41.910   6.249   2.752
56337W        W15598  42.451  39.394   4.159
56338W        W15599  12.288  12.227   1.731
56339W        W15600  35.947  11.173   0.459
56340W        W15601   1.772  38.075   0.316
56341W        W15602  37.393   7.375   0.343
56342W        W15603  11.343  16.247   2.731
56343W        W15604  20.755  16.780   0.296
56344W        W15605  10.771  42.006  11.891
56345W        W15606  32.405  17.564   3.146
56346W        W15607  21.601  33.509   0.394
56347W        W15608   9.187  14.208   0.379
56348W        W15609  10.310  21.256   1.801
56349W        W15610  19.628  15.197  11.005
56350W        W15611  24.220  11.706   1.756
56351W        W15612  25.488   9.396   4.700
56352W        W15613  12.738  32.396   1.767
56353W        W15614   4.943  41.522   3.185
56354W        W15615  34.074  16.216  13.054
56355W        W15616  11.278  42.432  11.470
56356W        W15617  27.635  16.163   2.219
56357W        W15618   2.943   8.755  10.541
56358W        W15619  44.860  16.288  12.435
56359W        W15620  12.736  18.272   0.844
56360W        W15621  29.629  40.540  14.457
56361W        W15622  43.005   8.772   3.859
56362W        W15623   0.363   6.197  12.449
56363W        W15624  26.465   6.754  14.009
56364W        W15625   5.359  21.042  10.038
56365W        W15626  40.378  25.610   3.717
56366W        W15627  40.467  15.087   2.786
56367W        W15628  44.976  22.697   4.605
56368W        W15629  36.578  18.172   3.265
56369W        W15630  19.549  16.217   3.340
56370W        W15631   5.395  18.159  12.019
56371W        W15632  41.876  31.493   1.369
56372W        W15633  24.212  15.708  13.320
56373W        W15634   6.423  17.281   9.988
56374W        W15635  10.204  12.177  10.951
56375W        W15636   4.867   0.442  11.029
56376W        W15637  15.293  25.578   0.953
56377W        W15638  12.201  25.662   3.225
56378W        W15639  29.002  25.614   0.728
56379W        W15640  10.304  32.619  14.918
56380W        W15641  34.051  33.413  13.825
56381W        W15642  25.120  26.524   5.137
56382W        W15643  22.610  15.642  10.907
56383W        W15644   2.323  18.577  13.932
56384W        W15645  20.649  18.270  14.776
56385W        W15646  39.859  20.032   1.920
56386W        W15647  27.010  19.252   0.404
56387W        W15648  38.429  15.707   9.921
56388W        W15649  41.937  31.082  14.871
56389W        W15650   8.296   3.895  10.928
56390W        W15651  13.764  32.890   3.276
56391W        W15652  15.214  35.907   2.327
56392W        W15653  28.071  42.941  13.020
56393W        W15654   6.901  18.732  12.882
56394W        W15655  23.116  20.634  10.460
56395W        W15656  43.310   3.313  14.905
56396W        W15657  10.188  27.005   2.688
56397W        W15658  26.990  15.226   3.762
56398W        W15659  39.404  32.059   1.914
56399W        W15660  25.112   8.333  11.396
56400W        W15661  17.083  22.678  13.037
56401W        W15662  37.374  33.497  12.003
56402W        W15663  31.952  17.255   0.916
56403W        W15664  39.907  37.075  10.553
56404W        W15665  43.893   8.712   2.193
56405W        W15666  25.190  29.957  13.821
56406W        W15667  31.599   5.389   0.956
56407W        W15668  19.625   0.762   3.656
56408W        W15669  28.052  41.362  10.502
56409W        W15670  14.788   1.350  10.622
56410W        W15671  30.993  10.818   3.721
56411W        W15672   3.760  40.934  11.596
56412W        W15673  32.606   5.889  12.485
56413W        W15674  24.644  15.721   1.311
56414W        W15675  21.608  42.933  11.568
56415W        W15676   9.340  12.803   3.329
56416W        W15677  44.931  13.804  11.395
56417W        W15678  43.984  33.990  12.022
56418W        W15679  16.604  38.507  13.862
56419W        W15680   2.936   1.414  10.527
56420W        W15681   5.393   4.737   2.233
56421W        W15682  40.519  27.688  12.576
56422W        W15683  25.069  36.394   4.243
56423W        W15684   3.295   2.449  11.604
56424W        W15685  33.107  15.607   4.232
56425W        W15686  44.814  34.392   0.274
56426W        W15687  20.679  15.089  13.479
56427W        W15688  43.012   2.808   4.136
56428W        W15689  24.622  16.647  14.836
56429W        W15690  39.958   9.871   2.865
56430W        W15691   3.801  42.395   1.721
56431W        W15692  44.446  26.087   3.321
56432W        W15693  44.352   6.747   4.679
56433W        W15694  21.520  21.212   2.716
56434W        W15695  31.937  41.508   0.443
56435W        W15696   3.231  19.569   3.703
56436W        W15697  44.462  27.604   9.508
56437W        W15698   5.746  31.549   1.851
56438W        W15699  37.909  41.969  11.119
56439W        W15700  38.417  23.641   4.323
56440W        W15701  27.557  40.437   1.420
56441W        W15702  18.242  15.320  13.528
56442W        W15703  24.092  14.230   1.730
56443W        W15704  37.911  10.811  11.861
56444W        W15705  12.216  35.416  11.959
56445W        W15706  31.970   4.801   2.188
56446W        W15707   5.744  29.981  12.069
56447W        W15708  30.485  14.307   4.726
56448W        W15709   0.819   6.410  11.408
56449W        W15710  40.036  29.448   3.346
56450W        W15711   0.951   7.360   0.825
56451W        W15712  17.789  18.123  11.123
56452W        W15713  39.380  29.092   1.225
56453W        W15714  39.393  42.342   2.885
56454W        W15715  13.781  34.999  14.451
56455W        W15716  33.392  11.791  10.451
56456W        W15717  27.676  17.272  10.511
56457W        W15718  23.670   6.397   1.237
56458W        W15719  27.170   8.348  14.031
56459W        W15720  18.210  23.689  11.888
56460W        W15721  38.045  20.192  10.956
56461W        W15722  24.001  12.265  14.768
56462W        W15723  33.053  18.787  12.057
56463W        W15724  16.619  33.014   4.289
56464W        W15725   2.858  40.389   0.800
56465W        W15726  18.729   9.711  14.332
56466W        W15727  34.988  27.485   0.912
56467W        W15728  30.535  38.921   1.808
56468W        W15729  14.721  16.129  12.869
56469W        W15730  33.963  17.168  12.063
56470W        W15731  14.603  11.155   3.659
56471W        W15732   7.232  11.332   0.804
56472W        W15733  42.861  37.904  12.426
56473W        W15734  28.963   8.671  12.970
56474W        W15735  13.614  20.209  13.958
56475W        W15736   2.305  32.898  10.417
56476W        W15737  37.462  13.236  13.347
56477W        W15738  27.053  11.215   3.257
56478W        W15739  32.986  14.225  14.946
56479W        W15740  16.648  13.140   2.313
56480W        W15741  14.653   5.927   0.261
56481W        W15742  16.171  19.186  11.910
56482W        W15743   2.862  39.355   1.842
56483W        W15744  24.638  16.806   1.887
56484W        W15745  31.017   9.710  12.393
56485W        W15746  44.329  18.719   1.374
56486W        W15747  39.490  11.297  12.487
56487W        W15748  26.061  27.598   1.307
56488W        W15749  14.729  38.437   2.343
56489W        W15750  20.639   6.255  12.095
56490W        W15751  27.062  16.686   3.312
56491W        W15752  43.817  18.226  11.050
56492W        W15753  21.132   2.411   5.093
56493W        W15754   9.887  38.982  12.975
56494W        W15755  15.115   7.861  11.934
56495W        W15756  35.852  11.849  14.767
56496W        W15757  16.597   4.860   3.346
56497W        W15758  14.169  35.880  10.469
56498W        W15759   6.828  35.904   1.855
56499W        W15760  43.282  31.458   0.345
56500W        W15761  42.415  34.371   9.477
56501W        W15762   0.881  32.972   0.477
56502W        W15763  43.017  40.840  13.360
56503W        W15764  36.546  39.450   4.615
56504W        W15765   9.646  29.620  14.991
56505W        W15766  17.763  13.116  13.045
56506W        W15767  23.575   8.166  13.059
56507W        W15768  23.207   3.927   9.584
56508W        W15769  19.598   6.376  14.996
56509W        W15770   1.940   8.882  12.961
56510W        W15771   8.857  10.637   2.744
56511W        W15772  33.548  26.165  11.039
56512W        W15773  29.600   3.419  13.430
56513W        W15774   8.301  35.581  12.970
56514W        W15775  18.739  35.384  12.057
56515W        W15776  13.781  12.661   1.346
56516W        W15777   3.252  30.050   3.282
56517W        W15778  24.148  24.035   4.738
56518W        W15779  20.242  24.219  12.956
56519W        W15780  23.607   8.817  12.989
56520W        W15781  28.023  19.548   3.719
56521W        W15782  13.198  18.070  14.350
56522W        W15783  17.721  38.334  14.804
56523W        W15784  24.032  30.108   3.781
56524W        W15785  12.290  32.615  12.346
56525W        W15786  26.121   5.310  13.974
56526W        W15787  10.781  33.105  13.800
56527W        W15788  34.887  16.593   1.381
56528W        W15789  19.607  41.313   1.711
56529W        W15790   0.319   3.907   2.374
56530W        W15791  23.218   1.973   1.793
56531W        W15792  32.134  34.019  13.974
56532W        W15793   5.778   5.397   1.258
56533W        W15794  20.245  36.351   4.823
56534W        W15795  40.976  26.513  11.540
56535W        W15796   0.817  32.479  14.778
56536W        W15797  39.520  33.488   1.895
56537W        W15798   0.407  41.412  11.415
56538W        W15799  40.872   9.255   0.817
56539W        W15800  13.677  31.459   1.760
56540W        W15801  17.635   0.771   4.674
56541W        W15802  27.662  41.869  10.435
56542W        W15803  31.950  37.398   4.320
56543W        W15804   5.214  31.051  14.303
56544W        W15805  25.209   2.941  14.978
56545W        W15806  24.695  28.989  14.405
56546W        W15807  22.619   8.160  10.632
56547W        W15808  42.451  10.725  12.909
56548W        W15809   5.414   2.762   4.237
56549W        W15810  20.136  10.290  11.414
56550W        W15811  17.252  39.330   1.770
56551W        W15812  11.169  17.305  10.453
56552W        W15813   9.381  11.768   3.223
56553W        W15814  22.100  33.383  11.000
56554W        W15815  35.392  43.007   1.358
56555W        W15816  16.142  42.007   3.717
56556W        W15817  34.066  10.258   0.300
56557W        W15818  15.609  15.698   0.794
56558W        W15819   5.207  33.549   0.322
56559W        W15820  34.922  16.617   2.188
56560W        W15821   5.322  32.103   2.835
56561W        W15822  17.775  28.160  13.382
56562W        W15823  24.525  33.023   2.227
56563W        W15824  41.023   6.921  12.850
56564W        W15825  17.075  37.371  13.404
56565W        W15826   1.462  32.537   0.396
56566W        W15827  26.560  41.435  11.513
56567W        W15828  30.448  16.109  10.918
56568W        W15829  43.824  17.246   5.715
56569W        W15830  41.027   3.899  13.371
56570W        W15831  33.579  20.672  11.865
56571W        W15832  43.945  31.017   1.241
56572W        W15833   7.706  16.133  13.952
56573W        W15834  29.019  23.502  14.869
56574W        W15835  11.778   7.220  10.941
56575W        W15836  44.828  28.940   4.234
56576W        W15837  27.187  14.097   0.794
56577W        W15838  24.020   8.695  10.049
56578W        W15839  23.207  19.580   4.186
56579W        W15840  44.903  27.650  13.392
56580W        W15841   5.370  15.130   3.818
56581W        W15842  25.148  24.660  13.411
56582W        W15843   9.780  24.656  13.437
56583W        W15844  28.607  14.767  12.527
56584W        W15845   4.740  19.175   4.607
56585W        W15846   1.340  17.265  13.536
56586W        W15847  35.029   4.229  11.886
56587W        W15848  40.356   0.284  10.456
56588W        W15849  35.070  42.523  13.439
56589W        W15850  44.882   7.898  12.524
56590W        W15851  32.003  29.623  10.905
56591W        W15852  28.142  29.542  11.887
56592W        W15853   0.960  41.360  12.394
56593W        W15854  27.472  10.695  12.564
56594W        W15855   2.266  10.310  14.400
56595W        W15856  33.398   7.786   2.330
56596W        W15857  34.987  12.199   0.368
56597W        W15858  43.817   7.212  12.925
56598W        W15859   5.414  25.199  10.910
56599W        W15860   9.849  15.221  10.448
56600W        W15861  43.873  41.948  13.414
56601W        W15862  14.791   9.687   1.238
56602W        W15863  23.674  37.872   2.893
56603W        W15864  17.717  35.860  11.549
56604W        W15865  30.476  10.342  11.494
56605W        W15866  41.420  12.709  14.377
56606W        W15867  24.634  31.939  13.429
56607W        W15868   0.490  42.948  11.979
56608W        W15869  14.590  31.632   3.806
56609W        W15870  37.540  34.527  11.606
56610W        W15871  11.281  36.854  11.856
56611W        W15872  31.951  31.609   4.724
56612W        W15873  15.197  25.561  10.152
56613W        W15874  10.316   6.383  14.870
56614W        W15875  16.187  42.982  11.554
56615W        W15876  20.167  15.770  11.093
56616W        W15877  10.727  43.886  14.503
56617W        W15878  13.645  27.481  11.491
56618W        W15879   7.786   8.369  11.861
56619W        W15880  22.078  10.693  10.922
56620W        W15881  19.607  16.576  11.520
56621W        W15882   3.226  40.040   0.795
56622W        W15883   9.382  41.878   3.379
56623W        W15884  22.531  22.074  13.436
56624W        W15885  41.356  20.202   3.789
56625W        W15886  27.679  31.435  11.105
56626W        W15887   7.805   9.313  13.938
56627W        W15888  23.197  14.213   3.696
56628W        W15889  24.015  41.856  12.872
56629W        W15890  35.481  31.459  14.952
56630W        W15891  31.046  33.408   0.312
56631W        W15892   0.892  20.159  10.518
56632W        W15893  16.268  40.466   0.754
56633W        W15894  13.338  40.826   1.398
56634W        W15895  33.605  16.681  11.466
56635W        W15896   3.338   7.220   1.772
56636W        W15897   0.339  41.503  13.515
56637W        W15898  43.512  26.483  12.484
56638W        W15899  14.263  29.036  11.419
56639W        W15900   7.259   4.344   5.321
56640W        W15901  14.257  23.731  12.372
56641W        W15902   4.728  10.381   4.812
56642W        W15903  13.688  29.061   2.820
56643W        W15904  27.103  23.645  13.493
56644W        W15905  32.121  18.552   0.276
56645W        W15906  13.119  16.660   9.951
56646W        W15907  36.849  29.631   3.842
56647W        W15908  18.235  16.117  11.087
56648W        W15909   0.927  41.941   1.785
56649W        W15910   8.868  38.371   2.760
56650W        W15911  24.545  30.051   3.272
56651W        W15912  22.243   3.364  13.467
56652W        W15913   0.473  23.076   3.825
56653W        W15914  24.136  32.951  14.913
56654W        W15915  24.554  34.510   2.212
56655W        W15916  20.730  39.462   3.368
56656W        W15917  32.109   4.790  13.544
56657W        W15918  35.518  36.055  12.074
56658W        W15919  31.057  42.808  14.016
56659W        W15920   2.450   8.171  11.053
56660W        W15921  39.420  27.617  11.078
56661W        W15922  16.618   5.716  12.065
56662W        W15923   9.204  28.930  13.479
56663W        W15924  18.213  28.582  13.058
56664W        W15925  38.939   6.302   3.281
56665W        W15926   6.424  15.804   2.210
56666W        W15927  36.921  38.398   3.870
56667W        W15928   3.816  19.076   2.863
56668W        W15929  33.385   2.412   1.345
56669W        W15930  36.526  35.423  14.410
56670W        W15931   4.901  26.636   2.294
56671W        W15932  11.356  41.347   4.702
56672W        W15933  39.920   6.757   3.188
56673W        W15934   1.412  18.269   1.341
56674W        W15935   5.930  15.813  13.521
56675W        W15936   4.824  21.216   3.202
56676W        W15937  39.849  27.635  12.823
56677W        W15938  32.987  41.800  11.025
56678W        W15939  20.647  39.987  13.531
56679W        W15940  20.759   8.881  10.943
56680W        W15941  15.193  32.097  11.582
56681W        W15942  40.804  22.578  14.464
56682W        W15943   1.926  43.290  11.864
56683W        W15944   9.153  10.150   3.794
56684W        W15945  33.446  27.004   0.823
56685W        W15946  12.804  43.902  10.941
56686W        W15947   5.846  32.972  13.892
56687W        W15948  11.155  20.757   4.212
56688W        W15949   1.290  29.662   0.410
56689W        W15950  22.634  24.086  11.938
56690W        W15951  12.762  39.446   3.347
56691W        W15952  29.447  37.388   2.245
56692W        W15953   2.442  25.031  10.022
56693W        W15954  27.631  36.576  10.408
56694W        W15955  34.451  36.076   1.709
56695W        W15956  30.146   2.360   4.698
56696W        W15957   7.302  34.453   2.887
56697W        W15958   5.220  23.641  10.539
56698W        W15959  25.059  29.506  13.047
56699W        W15960  40.914   2.391   1.752
56700W        W15961  11.678  25.019  13.052
56701W        W15962  16.259  29.563  10.105
56702W        W15963   5.418  20.101   3.172
56703W        W15964  29.564  24.049   3.177
56704W        W15965  28.940  20.625  11.921
56705W        W15966   3.740  28.109   4.117
56706W        W15967   1.468  30.598   3.310
56707W        W15968  19.688  20.735   9.969
56708W        W15969  44.794  13.148  10.488
56709W        W15970  11.349  32.970  13.056
56710W        W15971  43.799  38.494  11.084
56711W        W15972  41.497  15.778   9.491
56712W        W15973  28.164   5.439   1.901
56713W        W15974  11.726  29.134  11.599
56714W        W15975  34.114   6.336  12.536
56715W        W15976  29.431  15.595  11.557
56716W        W15977  22.582  19.071  14.851
56717W        W15978  11.639  35.895  11.601
56718W        W15979  27.032  15.657  11.040
56719W        W15980  42.974   5.237  11.545
56720W        W15981  22.064  24.549  12.370
56721W        W15982   8.867   8.852  10.445
56722W        W15983  34.962   4.862  14.781
56723W        W15984  22.215   8.857   2.226
56724W        W15985  42.948   0.376   1.694
56725W        W15986   1.915   4.281   0.436
56726W        W15987  31.117  43.774   1.328
56727W        W15988  19.139  28.098  10.428
56728W        W15989  11.827  21.178  12.040
56729W        W15990  27.635   5.689  12.412
56730W        W15991  16.104   7.695  11.030
56731W        W15992  29.930  23.177   2.862
56732W        W15993  44.777  12.137   0.344
56733W        W15994  18.123   0.355  12.410
56734W        W15995  19.703   9.819   3.313
56735W        W15996  35.042  41.430   3.748
56736W        W15997  36.940  10.666  12.428
56737W        W15998  40.337  24.194   4.149
56738W        W15999   8.378  36.503   0.767
56739W        W16000  43.274  13.213   2.266
56740W        W16001  29.439  21.027   0.833
56741W        W16002   7.188  11.185   2.183
56742W        W16003  20.623  33.382   1.843
56743W        W16004  33.915   3.235   3.862
56744W        W16005  15.671  28.970  13.031
56745W        W16006  33.429  32.576  10.937
56746W        W16007  37.474  32.583   4.123
56747W        W16008   9.202   3.433   0.746
56748W        W16009  44.346  26.127   0.781
56749W        W16010  20.758  17.237   4.182
56750W        W16011  25.581  15.149   3.316
56751W        W16012  25.033  35.482   1.916
56752W        W16013  31.465  15.327   4.336
56753W        W16014  40.521  21.650  11.057
56754W        W16015   6.906  27.961   1.370
56755W        W16016   3.771  32.940   1.922
56756W        W16017  22.127   1.465   4.813
56757W        W16018  28.644  20.690  11.553
56758W        W16019   8.719  38.502  10.604
56759W        W16020   0.966  27.978  10.110
56760W        W16021  26.653  15.585  13.826
56761W        W16022  26.500   8.877  11.600
56762W        W16023  18.126  18.067   2.312
56763W        W16024  24.031  15.658  10.467
56764W        W16025  26.148  22.108  11.591
56765W        W16026  31.476  24.006   2.375
56766W        W16027  14.681  44.758   4.790
56767W        W16028  25.521  33.996  10.930
56768W        W16029   2.416  29.961   0.865
56769W        W16030  44.976  24.016   4.605
56770W        W16031  13.713  26.702  11.085
56771W        W16032  36.575  21.570   2.779
56772W        W16033  36.386  10.297   1.369
56773W        W16034  31.066   4.237   4.353
56774W        W16035  22.565  26.090   1.431
56775W        W16036  19.756  29.662   3.724
56776W        W16037  18.212  26.585   1.832
56777W        W16038  32.988  27.512  14.493
56778W        W16039   5.854  18.738  12.574
56779W        W16040  15.083  18.671  10.486
56780W        W16041  40.015  30.502   1.759
56781W        W16042  11.277  16.625  12.573
56782W        W16043   1.317  13.184  10.410
56783W        W16044  35.963  42.816  14.845
56784W        W16045  21.557  33.396   4.169
56785W        W16046  12.849  38.983  14.793
56786W        W16047   9.294  14.143   2.180
56787W        W16048  28.990  16.610  14.908
56788W        W16049  19.604  22.683   1.426
56789W        W16050  43.980  33.958   0.879
56790W        W16051  17.191  10.799  10.512
56791W        W16052  15.325  23.108  13.354
56792W        W16053  15.128  37.962   4.261
56793W        W16054  25.691  33.418  13.978
56794W        W16055  40.403  16.197  12.953
56795W        W16056   9.368  13.273  12.953
56796W        W16057  15.685  31.980  10.500
56797W        W16058  14.676  36.352  11.046
56798W        W16059  33.435  24.194  11.025
56799W        W16060  30.105   3.935   4.707
56800W        W16061  43.378  32.516   1.911
56801W        W16062  41.931  17.267   1.778
56802W        W16063  13.156  28.088   4.242
56803W        W16064  30.524   9.850  13.900
56804W        W16065  25.469   2.358   2.770
56805W        W16066  44.760  40.326   0.774
56806W        W16067  38.859   8.355  14.349
56807W        W16068  32.616  35.070   2.826
56808W        W16069  40.340  25.046   1.379
56809W        W16070  38.504  33.974   2.248
56810W        W16071  19.690  30.080  13.403
56811W        W16072   8.688   1.427   4.165
56812W        W16073  42.843  35.031   0.789
56813W        W16074  25.688  20.558   1.879
56814W        W16075  39.423  14.638   3.775
56815W        W16076  29.483  30.136   3.288
56816W        W16077  28.097   2.730   9.955
56817W        W16078  22.627  36.404  12.546
56818W        W16079  15.131   9.248  13.011
56819W        W16080  10.791  37.065   4.172
56820W        W16081  17.627  23.048  10.971
56821W        W16082  24.529  10.651   2.860
56822W        W16083  41.934  37.518   4.699
56823W        W16084   2.843   5.833  12.467
56824W        W16085  36.410   9.216   0.345
56825W        W16086  20.722  42.456   1.396
56826W        W16087  16.237  11.811   3.737
56827W        W16088  25.051   0.443  12.347
56828W        W16089  28.619  42.914   2.296
56829W        W16090  10.803  44.944  10.624
56830W        W16091  16.694  35.068   2.833
56831W        W16092   8.293  22.061   0.483
56832W        W16093  29.943  26.104  12.917
56833W        W16094  23.521   4.817   4.202
56834W        W16095  17.616  39.852  14.811
56835W        W16096  42.942  41.823  12.526
56836W        W16097  40.809  43.279   4.321
56837W        W16098  16.766   0.847  13.446
56838W        W16099  31.941  19.725  13.858
56839W        W16100  24.059  36.941  14.906
56840W        W16101  37.461  18.771  12.517
56841W        W16102   0.840  29.166   2.881
56842W        W16103   6.828  23.096  14.864
56843W        W16104  30.596  15.129  12.393
56844W        W16105  29.084  14.622  10.969
56845W        W16106  44.784   7.221  12.075
56846W        W16107  23.194  15.632  11.565
56847W        W16108  26.961  19.220  14.027
56848W        W16109  13.131   7.236   1.285
56849W        W16110  32.914  40.313   3.363
56850W        W16111   5.336  30.472  14.986
56851W        W16112  24.981  26.036   4.794
56852W        W16113  13.194  43.795  10.639
56853W        W16114  19.266   1.772   4.814
56854W        W16115   4.814  33.919  14.507
56855W        W16116  32.011  44.464   2.217
56856W        W16117  25.032  29.614  10.532
56857W        W16118  35.571  14.162   5.262
56858W        W16119  29.104  25.118  11.581
56859W        W16120  43.345  41.988   1.275
56860W        W16121  21.245  31.458  11.378
56861W        W16122  10.168  33.019  12.357
56862W        W16123  13.174   0.970   2.212
56863W        W16124   1.947  35.932  11.073
56864W        W16125  31.079  26.148   1.407
56865W        W16126  30.504   9.206   4.113
56866W        W16127  25.554   5.819  12.996
56867W        W16128  35.108  31.570   1.434
56868W        W16129  41.401  25.550   4.229
56869W        W16130   3.226   9.862   0.896
56870W        W16131   6.221  28.649   2.751
56871W        W16132  17.148  38.345  13.049
56872W        W16133  21.647   5.825  12.893
56873W        W16134  19.082   2.289   4.263
56874W        W16135  18.141  40.305   3.830
56875W        W16136  20.686   8.246  10.614
56876W        W16137  31.045   7.414   3.719
56877W        W16138  26.036  43.435  13.997
56878W        W16139   9.644  15.288   1.219
56879W        W16140  25.561   6.811  10.474
56880W        W16141  12.290   1.309  11.453
56881W        W16142  25.136  17.703   0.925
56882W        W16143  30.997   9.248   1.354
56883W        W16144  26.026  15.121  14.380
56884W        W16145   0.334   1.429  11.478
56885W        W16146  43.950   8.198  12.428
56886W        W16147  27.082  43.995   4.135
56887W        W16148  16.156  32.925   1.409
56888W        W16149   5.370   3.256  13.037
56889W        W16150  27.064  31.133   2.384
56890W        W16151  26.470  16.194  10.488
56891W        W16152   6.355  16.125   2.878
56892W        W16153  29.951  32.507   4.817
56893W        W16154  36.061   9.814   1.333
56894W        W16155  21.180  36.031  12.909
56895W        W16156  19.082   4.701  13.440
56896W        W16157  19.101  26.055  11.541
56897W        W16158  30.054  12.252   3.214
56898W        W16159  30.916  18.132  14.299
56899W        W16160   1.846  19.541   3.864
56900W        W16161  28.654  38.983   4.285
56901W        W16162  16.704  42.002  11.985
56902W        W16163  31.118  17.581  11.079
56903W        W16164  39.383  30.935   1.423
56904W        W16165  39.471  27.536  12.903
56905W        W16166  42.512  25.210   0.881
56906W        W16167  34.887  20.163   3.819
56907W        W16168  33.506  17.071   0.781
56908W        W16169  18.068   0.809   4.177
56909W        W16170  34.389  19.066   3.315
56910W        W16171   2.808  23.158  10.473
56911W        W16172  20.623  24.023   9.924
56912W        W16173  18.745  28.101   5.287
56913W        W16174  10.858  38.439   2.758
56914W        W16175  27.121  34.536  13.951
56915W        W16176  43.852  16.628   4.283
56916W        W16177  19.739   4.875   3.181
56917W        W16178  12.720  42.017   4.232
56918W        W16179   7.234  37.577  14.451
56919W        W16180  34.033  42.486   0.297
56920W        W16181  32.134   1.745  13.392
56921W        W16182  15.307  21.092  11.371
56922W        W16183  29.667  28.936  11.060
56923W        W16184  11.145  13.237   4.765
56924W        W16185   5.862  14.314  13.831
56925W        W16186  30.514  18.639  12.551
56926W        W16187  43.306   1.404   1.875
56927W        W16188  40.454  12.298  10.961
56928W        W16189  17.224  14.158   3.275
56929W        W16190  20.088  38.882   2.860
56930W        W16191  31.008  40.956   3.783
56931W        W16192  40.498  44.499   1.789
56932W        W16193  13.715  16.117  11.114
56933W        W16194  17.221  23.012   0.859
56934W        W16195  12.817  38.895   1.306
56935W        W16196  41.300   2.297  10.406
56936W        W16197  13.820  17.064  14.027
56937W        W16198  23.132   9.385  10.572
56938W        W16199   1.934   9.326  13.526
56939W        W16200  33.100  27.082   0.790
56940W        W16201   0.401  26.465  14.851
56941W        W16202  31.941  27.657  14.506
56942W        W16203  18.768   1.944   4.167
56943W        W16204  10.780  36.481  11.609
56944W        W16205   5.809  36.969   0.805
56945W        W16206   5.930  31.923   0.912
56946W        W16207  39.323   1.346   4.763
56947W        W16208  21.204  29.425  11.016
56948W        W16209   7.310   7.755   3.282
56949W        W16210  36.399  29.107  12.057
56950W        W16211  33.129   8.817  12.048
56951W        W16212  32.059  11.628   5.132
56952W        W16213   8.177  37.546   2.721
56953W        W16214   7.402   7.359  10.626
56954W        W16215   7.313   4.844  14.895
56955W        W16216   1.829   1.789  13.834
56956W        W16217  14.118  31.445  12.448
56957W        W16218  21.118  44.901  12.885
56958W        W16219  41.313  30.564   3.631
56959W        W16220  16.702  13.711   4.120
56960W        W16221   9.688  39.911  11.610
56961W        W16222  43.510  27.629  13.973
56962W        W16223  21.112   2.781  13.421
56963W        W16224   3.415  33.437  13.025
56964W        W16225  28.569  28.525  12.439
56965W        W16226  37.413  24.580  13.857
56966W        W16227  20.524  24.215   5.212
56967W        W16228  26.579   8.866  10.483
56968W        W16229  39.899  40.015  13.953
56969W        W16230  17.749  33.052  10.467
56970W        W16231  20.186   5.212  14.020
56971W        W16232   9.313  19.539  11.925
56972W        W16233   6.232  31.959   1.906
56973W        W16234  12.251  39.346   4.626
56974W        W16235  22.660  17.250  14.994
56975W        W16236  28.151   9.858   2.851
56976W        W16237   5.805  31.114  10.978
56977W        W16238  38.539   2.234   2.894
56978W        W16239  25.971  13.608  14.289
56979W        W16240  36.426   8.232  10.928
56980W        W16241  12.178  22.648   3.830
56981W        W16242  23.051  34.574   0.329
56982W        W16243   7.691   4.337  13.488
56983W        W16244  17.694  14.150   0.387
56984W        W16245  21.596   1.382  11.931
56985W        W16246  16.749  27.986   1.722
56986W        W16247  12.343  43.784   0.935
56987W        W16248  27.554   4.862   0.791
56988W        W16249  33.520   7.691   0.388
56989W        W16250  12.674  17.704   1.312
56990W        W16251  30.080   3.266  12.386
56991W        W16252  37.506  16.733   4.140
56992W        W16253  44.379   4.892   1.873
56993W        W16254  27.997   7.766  11.960
56994W        W16255  13.167  32.597   1.801
56995W        W16256  21.654   8.243  14.768
56996W        W16257  10.252  12.149   2.720
56997W        W16258  13.702  38.452   2.881
56998W        W16259   3.867  20.217   3.691
56999W        W16260  22.252  21.072   4.309
57000W        W16261  28.124  39.495   4.647
57001W        W16262  43.768  17.297   9.449
57002W        W16263  23.080  27.517   4.169
57003W        W16264  26.531  34.963  12.079
57004W        W16265  22.065  15.663   1.274
57005W        W16266  33.388  39.337  12.531
57006W        W16267   5.868  25.159   0.393
57007W        W16268  31.025  30.496   3.803
57008W        W16269   1.890  32.609   3.217
57009W        W16270  11.851  30.527   0.276
57010W        W16271   0.418   1.320   0.329
57011W        W16272  11.850  25.175   1.248
57012W        W16273   7.892  32.930   2.390
57013W        W16274   0.866   4.276  11.927
57014W        W16275  30.134  43.297  10.432
57015W        W16276  36.553  41.384  13.534
57016W        W16277  10.272  30.533   4.332
57017W        W16278  13.107   7.704   1.297
57018W        W16279   5.366  22.531   0.259
57019W        W16280  33.971  41.536   1.315
57020W        W16281  18.556  44.798   1.789
57021W        W16282  28.651  38.855   9.946
57022W        W16283  18.296  13.244  12.895
57023W        W16284  37.397  40.811   3.773
57024W        W16285  28.010  24.181   4.781
57025W        W16286  20.242   6.917   4.608
57026W        W16287  31.613  20.144   4.645
57027W        W16288  25.551  27.000   4.613
57028W        W16289  23.050  33.058   0.851
57029W        W16290  15.161  42.816   9.965
57030W        W16291  20.237  27.687  14.328
57031W        W16292  44.306  42.029  14.850
57032W        W16293  38.376  43.813   3.161
57033W        W16294  40.324   5.334  14.335
57034W        W16295  14.612  15.778   0.896
57035W        W16296  41.868  30.524  12.911
57036W        W16297   4.868  26.546  13.460
57037W        W16298  16.578  25.642   4.653
57038W        W16299  37.425  15.611  10.107
57039W        W16300  40.902  40.391   3.740
57040W        W16301  34.065  31.473   3.235
57041W        W16302   0.846  38.371  11.386
57042W        W16303  37.390  11.849   4.177
57043W        W16304  36.960  21.613  13.973
57044W        W16305   3.330  14.768  13.863
57045W        W16306   4.340  43.860   1.796
57046W        W16307  43.347  31.525  14.294
57047W        W16308  38.360  33.021   2.770
57048W        W16309   2.454  24.111  11.460
57049W        W16310  38.385  17.232   1.259
57050W        W16311  28.172  25.006  14.845
57051W        W16312   5.268  33.088   4.598
57052W        W16313   0.487  19.193   2.258
57053W        W16314  33.462  38.042   2.334
57054W        W16315   0.873   6.418  11.119
57055W        W16316  28.681  18.232   3.748
57056W        W16317   6.917   3.862  13.526
57057W        W16318  23.632  14.668  12.845
57058W        W16319  39.427  18.589  12.841
57059W        W16320   9.848   5.898  12.423
57060W        W16321  13.254  32.042  13.474
57061W        W16322  34.070  12.797   4.656
57062W        W16323  19.086  24.481   2.253
57063W        W16324  22.721  31.645   1.233
57064W        W16325  41.921  43.921   4.797
57065W        W16326  27.076  25.154  14.425
57066W        W16327  35.094  16.130   2.199
57067W        W16328   4.243  10.689   2.334
57068W        W16329   6.815  41.322  10.509
57069W        W16330   0.854   7.269   2.218
57070W        W16331   9.253  40.303  12.939
57071W        W16332  28.511  30.582   2.894
57072W        W16333  32.143  26.574  12.473
57073W        W16334  14.684  34.392  10.953
57074W        W16335   4.725  25.578  14.958
57075W        W16336  30.592  28.017   1.305
57076W        W16337  21.106  35.082  14.933
57077W        W16338  33.015   3.439   0.478
57078W        W16339  20.134   9.685   1.748
57079W        W16340  41.434  43.341   2.385
57080W        W16341  13.268  18.111   3.799
57081W        W16342  42.289  34.098   3.226
57082W        W16343   9.702  30.139  10.937
57083W        W16344  30.540  35.361  13.475
57084W        W16345   1.293  36.425  14.835
57085W        W16346  26.141  10.801   2.739
57086W        W16347  17.785  16.785  14.812
57087W        W16348  11.161   5.740  10.998
57088W        W16349  22.145  43.957   2.333
57089W        W16350  13.661  36.067  10.893
57090W        W16351  13.723  37.578   3.797
57091W        W16352   2.908  30.517  13.994
57092W        W16353  18.056  25.498   1.422
57093W        W16354  19.223   8.160  11.865
57094W        W16355  31.553  17.559  13.812
57095W        W16356  20.045  12.176   2.336
57096W        W16357  30.539  17.660   3.808
57097W        W16358  10.852   9.391  12.570
57098W        W16359   4.219  33.565  14.350
57099W        W16360   3.776  28.177  12.859
57100W        W16361  35.588  29.064  13.445
57101W        W16362  35.457  33.463  13.338
57102W        W16363  16.296  38.563  11.956
57103W        W16364   3.216  20.687   4.266
57104W        W16365  19.720  29.479  12.011
57105W        W16366   6.893  17.714   1.896
57106W        W16367   7.815   0.399  11.576
57107W        W16368  38.993  44.471   2.767
57108W        W16369  21.555  43.838  13.315
57109W        W16370  13.113  42.408   1.319
57110W        W16371  21.743  33.612  10.108
57111W        W16372  17.176   8.700   5.281
57112W        W16373  16.216  37.050  12.963
57113W        W16374  41.013  41.380   4.825
57114W        W16375  18.722  39.473  13.944
57115W        W16376   2.779  10.282   1.864
57116W        W16377  14.141  23.065  14.949
57117W        W16378  29.587  29.451   2.196
57118W        W16379  23.233  40.468  11.377
57119W        W16380  14.311  34.931   2.885
57120W        W16381  40.868   7.264  11.594
57121W        W16382  20.649  32.606   1.882
57122W        W16383   5.202  21.111  14.908
57123W        W16384   5.285  11.651   3.352
57124W        W16385   4.208   8.738  13.489
57125W        W16386  16.665   8.717  13.370
57126W        W16387  31.506  34.058   4.280
57127W        W16388   5.807  20.670   3.751
57128W        W16389   0.952  15.811  13.861
57129W        W16390   7.678  28.630  12.345
57130W        W16391  33.083  27.450   4.155
57131W        W16392  39.404  35.885  13.519
57132W        W16393  19.114  12.142  10.994
57133W        W16394  13.604  19.651  12.461
57134W        W16395  35.894   6.222  14.876
57135W        W16396   5.816  43.827  11.892
57136W        W16397   8.160  14.327  13.838
57137W        W16398   3.930  41.428   0.890
57138W        W16399  19.174  24.193   3.353
57139W        W16400  19.649  23.089  10.627
57140W        W16401   7.226   2.903  12.370
57141W        W16402  20.125  32.569  14.323
57142W        W16403  12.773  44.349  13.455
57143W        W16404  21.711  19.727  12.843
57144W        W16405   1.897  32.611   3.733
57145W        W16406  32.937  20.598   3.829
57146W        W16407  18.071  23.052  10.990
57147W        W16408  43.477  16.265  11.540
57148W        W16409  17.296   5.428   0.363
57149W        W16410  25.672  25.196  11.889
57150W        W16411  33.606   6.328  14.952
57151W        W16412  43.922  43.414   2.663
57152W        W16413   8.336  26.059  12.455
57153W        W16414  29.540  44.864   2.337
57154W        W16415  42.975  20.193   4.682
57155W        W16416  37.437  30.526   0.842
57156W        W16417  11.721  23.544   4.322
57157W        W16418  31.431  23.051   2.360
57158W        W16419  41.410  29.987  12.387
57159W        W16420   8.395  22.253  11.079
57160W        W16421  40.042  30.423   3.785
57161W        W16422  21.550   9.169  14.412
57162W        W16423  13.163  39.875   1.881
57163W        W16424  12.761  20.216   3.760
57164W        W16425  18.752   5.810   1.798
57165W        W16426  10.753  14.250   3.736
57166W        W16427  38.842  34.879  14.960
57167W        W16428  27.113   0.367  14.404
57168W        W16429  18.197   6.725   4.736
57169W        W16430  15.659  43.374  13.466
57170W        W16431   5.403  33.912  12.490
57171W        W16432   5.359  11.665   3.659
57172W        W16433   8.761   5.217  13.899
57173W        W16434  29.099  36.511   3.696
57174W        W16435  40.482  11.837  13.004
57175W        W16436  35.600  29.486   1.233
57176W        W16437   7.825   6.731  12.998
57177W        W16438   0.830  23.533  11.962
57178W        W16439  31.616   3.955   3.686
57179W        W16440  13.254  38.350   1.857
57180W        W16441  12.185  16.601   1.714
57181W        W16442  43.430  12.839  14.390
57182W        W16443  16.246  13.311   0.471
57183W        W16444  42.875   6.239  12.895
57184W        W16445  23.715  13.163  13.356
57185W        W16446   1.960  34.082  12.981
57186W        W16447  30.537   0.304   3.660
57187W        W16448  40.860  21.611  14.310
57188W        W16449  24.187   9.170   4.117
57189W        W16450   9.859  17.101   2.695
57190W        W16451   9.299  31.548   3.770
57191W        W16452  34.546  33.985   1.847
57192W        W16453   9.158  37.343   4.601
57193W        W16454   2.844  15.175  11.886
57194W        W16455   5.858   8.672   1.280
57195W        W16456  25.672   9.840   2.835
57196W        W16457   8.405  41.017   3.267
57197W        W16458  16.111  34.516  13.855
57198W        W16459   8.757  27.127  14.025
57199W        W16460  37.983  31.065   2.181
57200W        W16461  33.025   5.337   3.837
57201W        W16462  10.324  30.061  12.930
57202W        W16463  35.510  18.208   1.265
57203W        W16464  14.272  12.807   3.193
57204W        W16465   0.983  36.592  11.425
57205W        W16466  30.612  17.602  10.543
57206W        W16467   8.888  33.492   0.940
57207W        W16468  30.052  15.656   2.184
57208W        W16469  30.441  20.599  11.118
57209W        W16470  29.163   4.841  12.070
57210W        W16471  26.989  16.231  13.517
57211W        W16472  39.945  18.562  10.955
57212W        W16473  25.589  31.099   1.251
57213W        W16474  23.665  38.936   1.901
57214W        W16475  24.688   0.287  11.030
57215W        W16476  10.666  22.118  12.387
57216W        W16477  25.545  21.226  13.506
57217W        W16478  22.999  31.081  12.356
57218W        W16479  31.090   9.746   0.310
57219W        W16480   4.879   6.885  13.799
57220W        W16481   0.982  24.541   9.951
57221W        W16482  31.558  16.592   4.249
57222W        W16483  11.654   5.787  11.947
57223W        W16484  29.445  28.443   0.940
57224W        W16485  14.620  42.430  11.460
57225W        W16486  44.354  37.082   0.923
57226W        W16487  44.383  34.395  11.574
57227W        W16488  41.521  32.433  13.447
57228W        W16489  21.731   8.772  14.293
57229W        W16490  32.135   9.890  10.915
57230W        W16491  28.038   5.933  13.334
57231W        W16492  41.446  39.406  14.362
57232W        W16493  12.134  11.845   2.664
57233W        W16494  20.650  26.982  13.958
57234W        W16495  25.581  18.254  11.054
57235W        W16496  18.585  23.573  14.373
57236W        W16497  38.354  15.602   3.806
57237W        W16498  25.126  36.007   0.810
57238W        W16499  28.085  22.562   4.348
57239W        W16500  38.027   7.721   3.236
57240W        W16501  15.162  34.479   4.642
57241W        W16502  16.149  35.488  14.343
57242W        W16503  27.167  34.891   3.238
57243W        W16504   9.712   8.745   0.763
57244W        W16505  41.813  21.045   2.839
57245W        W16506  40.514  31.938   4.326
57246W        W16507  26.476  24.702  11.124
57247W        W16508  29.101  10.221   3.151
57248W        W16509  30.573  17.689   1.872
57249W        W16510   3.263   9.775  12.916
57250W        W16511   9.854  15.723  14.453
57251W        W16512  21.732  41.412   5.284
57252W        W16513  37.488  11.797   3.636
57253W        W16514   1.825  27.988  13.978
57254W        W16515  32.115  17.212  11.447
57255W        W16516  28.535  42.799  14.827
57256W        W16517  27.484  26.199   0.861
57257W        W16518  22.118  17.585  11.121
57258W        W16519  37.445   4.369  13.431
57259W        W16520  10.782   8.900   0.826
57260W        W16521  10.833  18.106   4.786
57261W        W16522  32.453  16.094   0.849
57262W        W16523  19.566   6.733   4.143
57263W        W16524   1.471  38.028   2.830
57264W        W16525  10.316  40.436   3.642
57265W        W16526  10.271  12.622   4.741
57266W        W16527   3.307  39.845   2.713
57267W        W16528  18.215  23.040  11.384
57268W        W16529  38.959  27.619   1.849
57269W        W16530   2.914  36.993   0.426
57270W        W16531  31.035  10.360  11.902
57271W        W16532  18.117  13.222  14.895
57272W        W16533  31.424  44.838   4.216
57273W        W16534  40.461   4.421   1.408
57274W        W16535  28.434  13.317   0.282
57275W        W16536  17.073  24.714  11.002
57276W        W16537   8.866  37.011   3.822
57277W        W16538  15.821  26.479  10.565
57278W        W16539  15.106  22.050  12.497
57279W        W16540  18.137  36.444   0.782
57280W        W16541  37.905  20.191  10.456
57281W        W16542  37.482  34.863  12.065
57282W        W16543  31.069   9.830   5.315
57283W        W16544  16.277  20.610   2.714
57284W        W16545  22.200  32.480  11.856
57285W        W16546  19.113  44.393  10.455
57286W        W16547   8.395  29.926  12.051
57287W        W16548  29.445  27.468   0.266
57288W        W16549  37.436  30.914   0.860
57289W        W16550  41.961  40.312   4.625
57290W        W16551   5.774  22.662  11.893
57291W        W16552  10.285  22.101   2.308
57292W        W16553   4.827   7.737  14.821
57293W        W16554   5.229  44.319   2.263
57294W        W16555   2.862  39.420   4.788
57295W        W16556  10.754  14.308  14.440
57296W        W16557  43.428  36.426  12.943
57297W        W16558  28.467  18.735   3.719
57298W        W16559  22.620  24.030   1.401
57299W        W16560  10.840  20.164   0.756
57300W        W16561  37.494  30.594   0.419
57301W        W16562  20.622  29.120  11.493
57302W        W16563  40.851  32.897  12.911
57303W        W16564  31.002  15.801  13.953
57304W        W16565  41.400  33.554  11.407
57305W        W16566  37.437   9.384   1.253
57306W        W16567  27.692  27.950  14.935
57307W        W16568  11.742  35.491  12.921
57308W        W16569  33.553  14.589   4.733
57309W        W16570  33.922  43.876  13.047
57310W        W16571  30.646  21.703   1.287
57311W        W16572   7.207  25.990   4.217
57312W        W16573  21.238  11.639  13.468
57313W        W16574  17.266  10.243   1.223
57314W        W16575  25.087  21.099  12.876
57315W        W16576   9.246  22.509  12.880
57316W        W16577  32.536  34.084  10.602
57317W        W16578  33.924  23.639   0.936
57318W        W16579  28.132  12.208  11.964
57319W        W16580  30.010  27.181   4.306
57320W        W16581  13.226  34.106   1.346
57321W        W16582  37.456  30.978   5.194
57322W        W16583   1.885  23.656   3.759
57323W        W16584  35.021   1.870  13.004
57324W        W16585  37.438  31.934  12.381
57325W        W16586  30.573   2.249  13.860
57326W        W16587  14.273  22.655   3.238
57327W        W16588  21.126  44.830  11.092
57328W        W16589   4.263  20.116   3.862
57329W        W16590  25.537  19.223  12.024
57330W        W16591  12.152   3.247  12.545
57331W        W16592  12.257  13.840  12.867
57332W        W16593  16.764  26.074   3.656
57333W        W16594  17.300   3.755   4.816
57334W        W16595  25.580  37.996  12.033
57335W        W16596  35.876  34.448   2.320
57336W        W16597  28.069  42.990   3.645
57337W        W16598   0.790  29.624   4.746
57338W        W16599  13.107   7.238   0.438
57339W        W16600  17.581  12.284   0.838
57340W        W16601   2.955   3.454   3.316
57341W        W16602  28.078   4.427   3.666
57342W        W16603   4.325  43.407  12.344
57343W        W16604   5.850  12.231   2.362
57344W        W16605   7.785  16.736  14.452
57345W        W16606   2.300  31.644   1.765
57346W        W16607   4.760  36.447  14.282
57347W        W16608  37.968  36.438   3.259
57348W        W16609  16.638  13.649  10.432
57349W        W16610  35.879  22.048   1.236
57350W        W16611  42.846  42.945  13.320
57351W        W16612  22.230   0.952  12.349
57352W        W16613   1.971   9.377  11.466
57353W        W16614   7.227  41.476  12.982
57354W        W16615  39.373   4.392  11.928
57355W        W16616   7.886  39.506  11.940
57356W        W16617  14.793   8.710  14.495
57357W        W16618  42.811  44.272  10.571
57358W        W16619  23.085  18.147  13.875
57359W        W16620  10.281  14.303   3.184
57360W        W16621   6.258   8.305   1.857
57361W        W16622   9.784  24.489  12.829
57362W        W16623  36.906   3.818   0.401
57363W        W16624  28.620  17.282   4.283
57364W        W16625  31.455  13.199   0.848
57365W        W16626  29.934  25.017   0.943
57366W        W16627  39.929   3.918   4.609
57367W        W16628  33.045  12.204  14.032
57368W        W16629   2.283  44.757  11.391
57369W        W16630  38.971  11.271   3.852
57370W        W16631  41.379   7.356   1.315
57371W        W16632  12.792  34.867  13.957
57372W        W16633   3.293  35.514   0.411
57373W        W16634  30.633  14.824  13.981
57374W        W16635   7.685  29.928   3.194
57375W        W16636  27.129  18.765  12.096
57376W        W16637   7.881  27.156   1.816
57377W        W16638  41.309  41.003   0.400
57378W        W16639   9.793  43.964  14.902
57379W        W16640  36.858  29.438   0.896
57380W        W16641   9.356  31.580   2.880
57381W        W16642  43.779  16.215  14.450
57382W        W16643   2.329  33.956   0.840
57383W        W16644  26.957  27.628   2.353
57384W        W16645  18.149  33.420  13.015
57385W        W16646   9.229  34.889  10.437
57386W        W16647  29.153  26.519  11.501
57387W        W16648  27.500  20.678  13.369
57388W        W16649  27.666  31.898  10.084
57389W        W16650  11.192  41.822  11.107
57390W        W16651  25.042  18.572   2.307
57391W        W16652  34.114  24.150   1.699
57392W        W16653  40.489  33.424  14.445
57393W        W16654  36.430  14.755  14.916
57394W        W16655   5.308  34.572  10.482
57395W        W16656  13.612  15.170  10.912
57396W        W16657   0.273   6.230   3.819
57397W        W16658  43.297  21.607   1.312
57398W        W16659  26.039  32.927   4.159
57399W        W16660  11.781   0.821   1.883
57400W        W16661  17.199  16.151  14.985
57401W        W16662  14.664  40.399  12.390
57402W        W16663  19.653  27.140  11.420
57403W        W16664  19.769  38.363   2.231
57404W        W16665  43.357  23.579   4.231
57405W        W16666   3.781  13.221  10.607
57406W        W16667   7.238  37.547   3.164
57407W        W16668  36.031  32.910  13.370
57408W        W16669   5.373  29.137   3.728
57409W        W16670  10.693  38.354  13.836
57410W        W16671   9.681  22.722  12.970
57411W        W16672  24.998  31.646  14.356
57412W        W16673  23.079  16.291   2.371
57413W        W16674  34.385  43.823  11.392
57414W        W16675  30.541  16.176   4.327
57415W        W16676  41.537  37.499   1.306
57416W        W16677  44.275  39.550  11.890
57417W        W16678   9.326   4.292  11.590
57418W        W16679  10.755   9.290   2.766
57419W        W16680  23.087  34.014  11.963
57420W        W16681  28.940  24.715  11.896
57421W        W16682  32.100   3.904   3.270
57422W        W16683  38.555  20.155   4.785
57423W        W16684  10.366   9.369  11.038
57424W        W16685   3.737  10.671   0.478
57425W        W16686  26.605  36.544   5.216
57426W        W16687  37.429  25.696   3.265
57427W        W16688   0.917  30.450   1.247
57428W        W16689  29.158  20.116   2.854
57429W        W16690  31.560  14.143  10.642
57430W        W16691  17.163  34.481  13.946
57431W        W16692   7.294  20.084   1.810
57432W        W16693  38.430  18.162   4.598
57433W        W16694  41.929  43.319   0.768
57434W        W16695   6.691  42.299  13.886
57435W        W16696  20.739  34.990   1.731
57436W        W16697  16.149  42.958   1.852
57437W        W16698   0.748   3.267   1.261
57438W        W16699  34.369  21.229  10.467
57439W        W16700  36.910  20.028  14.419
57440W        W16701   0.322  21.087   4.613
57441W        W16702  24.705  26.509   3.247
57442W        W16703   9.858  35.044   2.814
57443W        W16704  33.007   5.698  11.470
57444W        W16705   5.722   0.872   1.837
57445W        W16706   5.318  30.995   0.265
57446W        W16707   7.912   4.775  14.467
57447W        W16708  42.314  28.679   0.874
57448W        W16709  37.474  41.845   3.814
57449W        W16710  32.435   5.743   2.722
57450W        W16711  14.813  13.694  13.417
57451W        W16712  43.812  20.135  13.400
57452W        W16713  43.298  21.177   0.289
57453W        W16714  31.943  29.537   2.336
57454W        W16715  41.452  26.069  14.767
57455W        W16716  26.001   3.876  14.904
57456W        W16717  37.931  19.081  13.850
57457W        W16718  11.367   9.244  12.993
57458W        W16719  39.433  11.191  10.492
57459W        W16720  37.335  14.287   1.919
57460W        W16721  26.134  22.619   4.219
57461W        W16722  19.714  16.781  14.324
57462W        W16723  13.603  19.569  13.049
57463W        W16724  36.887  43.498  13.043
57464W        W16725  26.568   4.909  10.544
57465W        W16726  22.705  39.521  11.409
57466W        W16727  37.449  15.794  14.862
57467W        W16728   8.326   1.303   3.315
57468W        W16729  30.530   2.794   9.664
57469W        W16730  25.693  16.193   0.800
57470W        W16731  36.936  11.782  13.854
57471W        W16732  28.525   5.745   2.770
57472W        W16733  37.468  27.455   2.668
57473W        W16734  12.706  44.343   4.343
57474W        W16735  22.615  12.841  14.475
57475W        W16736  19.610   5.380  11.119
57476W        W16737   5.799  39.322  10.468
57477W        W16738  27.114  34.507  11.857
57478W        W16739  11.324  32.500  10.456
57479W        W16740  39.531  38.327   9.938
57480W        W16741  20.262  26.669  10.524
57481W        W16742  13.736   0.964   2.178
57482W        W16743   7.697  26.458   4.742
57483W        W16744  20.055  16.635  11.481
57484W        W16745  16.803  22.185   0.390
57485W        W16746  21.623   7.904  12.985
57486W        W16747   3.441  27.481  10.427
57487W        W16748  25.696  39.010   2.853
57488W        W16749  16.571  19.715   1.345
57489W        W16750  31.969   9.679  11.540
57490W        W16751  15.823  23.014  14.472
57491W        W16752  16.593  27.553   3.153
57492W        W16753  37.493   7.834   2.685
57493W        W16754  27.986  33.008   2.836
57494W        W16755  21.108  30.128   4.113
57495W        W16756   5.290  41.878  11.891
57496W        W16757  32.115  42.284  13.369
57497W        W16758  35.049   9.326  11.524
57498W        W16759  40.330  39.061  11.951
57499W        W16760  31.454   0.975   1.714
57500W        W16761   7.848  13.343  11.612
57501W        W16762  14.697  34.937   2.827
57502W        W16763  43.300   6.357  13.497
57503W        W16764  38.485  33.542   2.340
57504W        W16765  14.802  31.917  11.002
57505W        W16766  30.533   2.402   0.955
57506W        W16767  43.462  23.023  14.281
57507W        W16768  44.372  14.280  12.096
57508W        W16769  33.597  10.293   3.727
57509W        W16770   5.272  27.502  14.971
57510W        W16771  41.361   2.949  12.831
57511W        W16772  24.180  29.652  13.987
57512W        W16773  19.563  17.784  10.593
57513W        W16774  16.579  31.462  14.985
57514W        W16775  19.246  41.334  12.413
57515W        W16776  24.219  17.794   2.669
57516W        W16777  37.571   5.435   0.846
57517W        W16778  20.586  37.479  10.416
57518W        W16779   3.311   0.250  14.015
57519W        W16780   7.315   3.917   4.748
57520W        W16781  26.054  17.771  11.947
57521W        W16782  34.946  34.420   9.936
57522W        W16783  42.882  15.755   1.382
57523W        W16784  36.473   0.903   4.635
57524W        W16785  23.031  44.321  12.907
57525W        W16786  35.589   3.280  14.322
57526W        W16787  30.026  29.623  10.419
57527W        W16788   8.757  34.905  13.462
57528W        W16789  11.241  30.429  13.377
57529W        W16790   5.848  28.673   4.649
57530W        W16791  40.308  19.565   3.671
57531W        W16792  26.080  17.237   0.730
57532W        W16793  28.116  35.974  11.971
57533W        W16794  10.852   4.737  12.833
57534W        W16795   8.703  23.171   1.825
57535W        W16796  38.935  10.856  11.432
57536W        W16797  11.289  18.720  14.847
57537W        W16798  42.861  27.658  11.029
57538W        W16799  27.085  36.556   1.364
57539W        W16800  21.104   5.690  11.924
57540W        W16801   4.945  22.648  11.859
57541W        W16802  12.816   6.843  11.480
57542W        W16803  27.489  19.051   4.653
57543W        W16804  36.862  18.147  10.484
57544W        W16805  19.146  29.538  10.540
57545W        W16806  29.540  29.090   1.405
57546W        W16807  14.173  41.013   3.690
57547W        W16808  29.600   5.237   1.764
57548W        W16809  29.514  29.083   4.624
57549W        W16810   2.930  23.139   4.608
57550W        W16811   5.760  24.184   4.170
57551W        W16812  33.982  35.993  11.470
57552W        W16813  13.342  36.502  10.634
57553W        W16814  43.995  22.076   2.797
57554W        W16815   3.846  18.624   3.279
57555W        W16816  42.335  13.199  11.052
57556W        W16817  12.755  41.927   0.928
57557W        W16818  33.031  27.041  12.376
57558W        W16819  30.073  15.191  13.947
57559W        W16820  19.063   8.665  12.410
57560W        W16821  31.524  12.724   1.853
57561W        W16822   1.452  30.552  10.967
57562W        W16823  23.201  10.710   1.309
57563W        W16824  34.490  31.436  12.859
57564W        W16825  31.472  28.100   2.870
57565W        W16826  36.549  25.027   4.811
57566W        W16827  41.368  27.580  10.582
57567W        W16828  15.160  14.138  11.600
57568W        W16829  23.011   4.329   4.814
57569W        W16830  39.391   0.403   3.317
57570W        W16831   7.715   8.735   2.398
57571W        W16832  41.361  38.446  10.942
57572W        W16833   0.416  41.037  12.354
57573W        W16834  20.163  39.050   4.335
57574W        W16835  26.083  23.709   3.272
57575W        W16836  20.749  37.446   2.813
57576W        W16837  36.928  30.507  11.948
57577W        W16838  34.028  35.548  13.462
57578W        W16839  25.067  30.508  13.535
57579W        W16840  44.275  33.966   3.678
57580W        W16841  36.922  14.665  11.066
57581W        W16842  13.268  25.713  12.869
57582W        W16843   4.877   7.900   1.403
57583W        W16844   0.816   0.461  10.593
57584W        W16845  28.665  13.126  11.439
57585W        W16846  26.481  14.299   2.885
57586W        W16847  10.227  31.996  14.925
57587W        W16848  10.730  31.517   3.337
57588W        W16849   4.330  28.992  13.325
57589W        W16850  42.424  33.542  13.482
57590W        W16851  14.214  10.641   1.911
57591W        W16852  33.990  15.141  10.940
57592W        W16853   0.288  38.985   0.965
57593W        W16854   8.211   1.862   4.645
57594W        W16855   3.366  28.526   1.276
57595W        W16856  25.024  11.318  14.401
57596W        W16857  43.946  24.497  12.870
57597W        W16858   7.380  40.943   2.744
57598W        W16859  35.462  33.494  12.536
57599W        W16860  11.811  27.676  14.513
57600W        W16861  23.553  21.189  14.012
57601W        W16862  15.758  30.422  12.417
57602W        W16863   1.955  27.163  11.471
57603W        W16864  11.224  34.427   4.233
57604W        W16865   4.442  36.399   2.766
57605W        W16866  29.942   6.373   4.624
57606W        W16867  31.115  35.034  13.004
57607W        W16868  21.067   5.251   3.647
57608W        W16869  27.101  30.480   1.406
57609W        W16870  35.359  44.353   2.201
57610W        W16871   5.745  34.564   4.793
57611W        W16872  19.622  23.535   1.902
57612W        W16873   1.885  35.995   2.681
57613W        W16874  24.534   2.352  14.020
57614W        W16875  19.650  24.543   4.657
57615W        W16876   7.708   2.350  13.041
57616W        W16877  14.740  14.793  11.566
57617W        W16878  33.567  44.844   0.737
57618W        W16879  24.716   1.297  11.934
57619W        W16880  34.542  29.156   0.348
57620W        W16881   9.209   4.408  13.917
57621W        W16882  27.523   4.410  10.470
57622W        W16883   7.211  15.618  10.536
57623W        W16884  10.765  40.827  11.886
57624W        W16885  25.659  20.044   1.702
57625W        W16886  42.924  19.197   5.758
57626W        W16887  10.721  22.167  13.431
57627W        W16888  15.807  36.521   0.778
57628W        W16889  18.095   1.314   0.320
57629W        W16890  37.571   3.296   4.763
57630W        W16891  41.937  33.580   4.750
57631W        W16892  22.515  41.995   1.450
57632W        W16893  33.002   8.687   1.229
57633W        W16894  32.929  34.076   0.737
57634W        W16895  43.420  13.691   0.341
57635W        W16896  17.126  18.073   0.261
57636W        W16897   1.247   8.301   2.380
57637W        W16898  10.287  25.653   3.650
57638W        W16899   7.305  43.343   2.722
57639W        W16900  32.542   0.756   4.135
57640W        W16901  19.639   1.334   3.862
57641W        W16902  28.028  14.592   4.791
57642W        W16903  10.648   0.266   2.677
57643W        W16904   5.757   7.397   1.931
57644W        W16905  28.644  24.101  11.477
57645W        W16906  32.430   1.872  14.363
57646W        W16907   2.940  39.326  12.971
57647W        W16908  39.058  44.386   4.312
57648W        W16909  41.375  26.499   2.888
57649W        W16910  36.072  24.075  12.981
57650W        W16911   8.336  33.068  13.031
57651W        W16912   4.206  29.015   2.894
57652W        W16913  11.634  36.441   0.785
57653W        W16914   4.334  17.601  10.520
57654W        W16915  21.047   8.325   0.949
57655W        W16916  38.842   7.379   4.645
57656W        W16917   5.739  36.569  12.367
57657W        W16918   0.964  40.048  14.820
57658W        W16919  18.132  24.154  13.888
57659W        W16920  22.041  41.427   0.914
57660W        W16921  31.451  44.459   4.629
57661W        W16922  44.368  34.449   5.255
57662W        W16923  36.516   6.797  10.955
57663W        W16924  42.872  18.692   1.923
57664W        W16925  44.366  27.186  13.960
57665W        W16926  23.211  24.663   4.297
57666W        W16927   7.239  16.773  13.460
57667W        W16928  31.005  26.682   0.895
57668W        W16929  15.694   4.397  11.001
57669W        W16930   8.813   7.340   2.348
57670W        W16931  26.016  44.393   1.873
57671W        W16932  42.484  40.403  13.982
57672W        W16933   3.769  40.825  13.925
57673W        W16934  23.156  28.446   2.264
57674W        W16935  12.848  29.148   4.249
57675W        W16936   2.297  13.259  11.439
57676W        W16937   1.264  34.950  12.549
57677W        W16938  22.137  39.485   1.328
57678W        W16939  31.012  25.117   0.265
57679W        W16940  36.847  22.730  12.056
57680W        W16941  15.654  24.019   1.762
57681W        W16942  40.531  15.687   4.298
57682W        W16943  26.122  14.824  14.372
57683W        W16944   7.819  20.707   1.271
57684W        W16945   2.935   7.870   2.417
57685W        W16946  14.316   5.752   5.616
57686W        W16947   6.795  28.085  14.021
57687W        W16948  19.096  12.700   0.907
57688W        W16949  18.226   2.457   0.275
57689W        W16950   2.954  31.918  13.365
57690W        W16951  35.574  31.437   0.366
57691W        W16952   7.372  15.195   2.227
57692W        W16953  41.014  35.108   1.731
57693W        W16954  36.846   1.733   1.226
57694W        W16955  44.363  27.141  10.620
57695W        W16956  31.946   2.778   0.790
57696W        W16957  14.687   6.324  11.950
57697W        W16958  38.563  27.553   0.244
57698W        W16959   7.264  17.246  11.019
57699W        W16960  20.670   0.394  13.052
57700W        W16961  43.863  14.289  11.121
57701W        W16962   6.198  31.925   3.704
57702W        W16963  17.141   4.840  13.431
57703W        W16964   0.775   7.689   0.795
57704W        W16965  12.236   0.905   0.353
57705W        W16966  38.908  29.976   0.313
57706W        W16967  21.636  14.832   2.721
57707W        W16968  29.969  41.916  10.455
57708W        W16969  14.122  42.907   0.864
57709W        W16970  34.004   1.313   3.334
57710W        W16971  38.550   1.462   1.255
57711W        W16972   1.344   2.228   3.202
57712W        W16973  29.595  14.145  12.536
57713W        W16974  31.432   0.921   2.276
57714W        W16975  26.647  26.548   0.322
57715W        W16976  30.616  30.641   1.255
57716W        W16977  24.223  32.538  14.014
57717W        W16978  22.171  36.989   3.655
57718W        W16979  22.605  21.224  10.508
57719W        W16980  38.513  18.200  13.001
57720W        W16981  20.232  12.655   2.401
57721W        W16982  32.600  20.575  10.443
57722W        W16983  43.876  32.014  14.452
57723W        W16984   2.750  27.689  13.410
57724W        W16985  41.481  13.207  10.541
57725W        W16986  11.760   7.379  13.333
57726W        W16987  31.401  42.462  13.005
57727W        W16988   5.687  11.810  13.805
57728W        W16989  18.069  11.213   1.303
57729W        W16990  31.104  41.342  12.495
57730W        W16991  44.369  19.630   3.350
57731W        W16992  43.333  44.905  12.899
57732W        W16993   7.261  36.001   0.251
57733W        W16994  22.537  34.866   1.878
57734W        W16995  25.641   0.253   4.123
57735W        W16996  14.720  12.147  11.430
57736W        W16997   4.711   0.299   2.417
57737W        W16998  30.649  22.627   1.908
57738W        W16999  34.044  41.436   4.778
57739W        W17000  11.718   6.899  12.422
57740W        W17001  42.987   7.888   3.656
57741W        W17002  23.237  39.950  10.994
57742W        W17003   7.666  32.138  11.418
57743W        W17004   4.242  21.066   3.359
57744W        W17005  27.677  43.940  10.415
57745W        W17006  25.010   5.792   2.854
57746W        W17007  44.896  17.223   2.797
57747W        W17008  23.580   6.245  10.602
57748W        W17009  12.300  18.558   0.965
57749W        W17010   3.309   1.966  13.532
57750W        W17011  20.551   4.306  13.855
57751W        W17012  12.169   6.689  13.491
57752W        W17013  29.529  42.009   3.359
57753W        W17014  19.216   5.775   3.380
57754W        W17015  17.119  12.843   3.839
57755W        W17016  42.965  34.115  12.052
57756W        W17017   0.951  17.161  14.970
57757W        W17018  23.112  14.698   4.813
57758W        W17019  40.377  35.013  13.979
57759W        W17020  30.433  12.303  12.052
57760W        W17021  10.745  24.593  14.942
57761W        W17022  16.119  23.106   3.340
57762W        W17023  41.822  19.749  14.361
57763W        W17024   3.936  30.938  10.599
57764W        W17025  31.141  36.998  12.011
57765W        W17026  35.463   8.233   2.681
57766W        W17027  14.661  28.034  13.888
57767W        W17028  21.232   5.766   9.976
57768W        W17029  12.253  32.964   4.125
57769W        W17030   4.429  44.792  14.935
57770W        W17031  33.490   7.352   3.734
57771W        W17032  31.534  33.405  12.013
57772W        W17033   6.763  39.984  13.508
57773W        W17034  15.112  36.483   4.226
57774W        W17035  44.443  35.091   3.216
57775W        W17036   1.288   3.275   3.785
57776W        W17037   4.221  41.817  13.050
57777W        W17038  33.926  27.644  14.373
57778W        W17039   4.760   9.724  10.015
57779W        W17040  32.112  16.141   4.660
57780W        W17041  11.754  17.706  11.919
57781W        W17042  40.845  25.650  11.880
57782W        W17043   3.297  12.838  14.338
57783W        W17044   0.967  26.616  14.334
57784W        W17045  12.272   9.386  10.959
57785W        W17046  19.686  21.066  13.839
57786W        W17047  40.472   6.314   0.379
57787W        W17048  14.641  21.026  10.519
57788W        W17049  40.814  40.342  11.119
57789W        W17050  35.491  37.002   4.240
57790W        W17051  35.369   8.230  14.022
57791W        W17052  10.703  15.228  11.950
57792W        W17053  37.336  14.315  11.878
57793W        W17054  18.116  26.954   5.762
57794W        W17055   2.334   4.215  10.526
57795W        W17056  28.002  23.077   1.862
57796W        W17057  28.173  43.766   4.699
57797W        W17058  38.015  44.937   2.342
57798W        W17059  40.884   5.201  14.474
57799W        W17060  25.105   8.228  14.504
57800W        W17061  19.239  36.876   3.163
57801W        W17062   0.415  15.213  10.041
57802W        W17063   7.866  35.428   4.195
57803W        W17064   6.885  16.238  13.445
57804W        W17065  12.206   1.250  10.604
57805W        W17066  36.855   1.244   0.798
57806W        W17067   7.219  19.279  11.103
57807W        W17068  20.198   0.969   3.832
57808W        W17069  32.022   8.741  13.391
57809W        W17070  10.753  19.067  10.506
57810W        W17071  12.235   2.937   4.261
57811W        W17072  25.178  34.058   4.194
57812W        W17073  30.492  21.531  14.292
57813W        W17074  11.311   3.768  13.810
57814W        W17075  11.210  19.618  11.095
57815W        W17076  43.471  38.048   4.307
57816W        W17077  31.459  40.440  14.503
57817W        W17078   8.683  44.408   2.350
57818W        W17079  12.823  40.357   1.829
57819W        W17080  34.081  20.102   1.907
57820W        W17081  42.969   3.863   3.253
57821W        W17082   4.872  35.413   1.242
57822W        W17083  21.555  11.221  10.531
57823W        W17084   3.815  23.599  14.841
57824W        W17085  12.335  21.691   0.791
57825W        W17086   3.395  40.438  12.993
57826W        W17087  29.619  28.981  14.900
57827W        W17088  31.939  40.504   0.308
57828W        W17089  16.740  18.545   4.170
57829W        W17090  23.021  16.243   3.242
57830W        W17091  20.071   6.254   3.146
57831W        W17092   0.838  12.795   4.268
57832W        W17093  21.739  25.670   1.423
57833W        W17094   3.718   0.276  13.403
57834W        W17095  16.626  15.668   5.221
57835W        W17096  10.657  33.893  10.433
57836W        W17097  10.247   1.305   0.245
57837W        W17098  23.995   7.780  10.989
57838W        W17099   1.430  29.670  12.828
57839W        W17100   3.756  12.841  11.927
57840W        W17101  41.464  37.579  11.551
57841W        W17102   7.740  12.756   1.275
57842W        W17103  20.179  33.086  14.962
57843W        W17104  44.972  20.681  14.782
57844W        W17105  42.845  34.021  11.463
57845W        W17106  29.660  38.881   2.784
57846W        W17107  29.966  29.598   2.862
57847W        W17108  33.985  12.298  10.424
57848W        W17109  33.085  44.432  14.291
57849W        W17110   5.781  22.658  14.982
57850W        W17111   7.695   9.308  14.877
57851W        W17112  40.044   8.340  10.603
57852W        W17113  13.154  21.519   0.328
57853W        W17114  28.064  10.248  12.878
57854W        W17115  28.474  42.941  12.033
57855W        W17116  16.261  40.304  11.937
57856W        W17117  42.994  28.652   4.185
57857W        W17118  23.551  11.859  12.070
57858W        W17119  41.381   7.322  14.346
57859W        W17120  13.310   0.960   3.772
57860W        W17121  34.609  19.723   1.293
57861W        W17122  10.854   6.778  13.532
57862W        W17123  32.133  18.089  13.504
57863W        W17124   6.203  20.618  12.532
57864W        W17125   4.715  11.350   2.764
57865W        W17126   3.409   9.344  11.472
57866W        W17127  41.877  17.571   4.125
57867W        W17128  21.696  17.181   3.856
57868W        W17129  26.050  39.321  12.971
57869W        W17130   7.736  30.000  13.936
57870W        W17131  28.621  31.624   4.714
57871W        W17132  30.965  40.966  10.986
57872W        W17133  37.878  18.084  14.821
57873W        W17134  19.258  12.309   4.793
57874W        W17135  14.338  17.606  13.457
57875W        W17136  12.182  31.525  14.902
57876W        W17137  24.665  29.114   1.844
57877W        W17138  21.045   3.851   4.660
57878W        W17139  17.674  40.441   1.702
57879W        W17140  31.069  24.571   4.136
57880W        W17141  18.118  39.920  10.455
57881W        W17142  12.138  40.425   2.901
57882W        W17143  40.032  16.613   3.359
57883W        W17144  27.666  10.866   2.838
57884W        W17145  43.351  23.523   2.338
57885W        W17146  36.061  24.604   0.741
57886W        W17147  43.466  29.519  14.788
57887W        W17148  37.012  23.531  12.066
57888W        W17149  26.464  15.676  12.379
57889W        W17150   7.288  31.022  14.998
57890W        W17151  33.916   4.267   0.736
57891W        W17152  44.477   5.782  10.948
57892W        W17153  21.721   6.870  11.585
57893W        W17154  14.662  19.605  12.348
57894W        W17155  24.504   2.302  14.893
57895W        W17156   8.747  23.059   4.725
57896W        W17157  40.447  17.786  14.830
57897W        W17158  23.645  10.840  14.833
57898W        W17159  39.324  39.923   4.716
57899W        W17160  26.661  20.617  13.969
57900W        W17161  11.755  18.679   3.175
57901W        W17162   1.367  44.971  13.036
57902W        W17163   3.814  31.504  11.611
57903W        W17164  20.216  31.037  14.398
57904W        W17165  40.480  35.881  13.446
57905W        W17166   6.785  22.014  12.510
57906W        W17167   4.752  20.544  10.591
57907W        W17168  41.322  30.923  13.510
57908W        W17169  16.311   8.678   3.757
57909W        W17170   8.668  43.435   0.255
57910W        W17171  33.919  20.761  14.466
57911W        W17172  39.853  27.448  11.960
57912W        W17173  22.627  36.927  14.286
57913W        W17174   1.888  36.055   0.325
57914W        W17175  10.288  36.998   0.864
57915W        W17176  18.231  29.943   4.215
57916W        W17177   1.765  26.633  14.984
57917W        W17178   7.786   6.862   0.282
57918W        W17179   2.433  23.988  14.927
57919W        W17180   8.660   6.409  10.005
57920W        W17181  17.786  21.045   0.273
57921W        W17182  32.059  14.327  14.298
57922W        W17183  18.721  40.986   3.705
57923W        W17184  38.015  18.726   2.279
57924W        W17185   3.224   3.709   0.283
57925W        W17186   6.697   9.679  12.964
57926W        W17187  21.584  29.047   1.410
57927W        W17188   9.364   7.295  13.980
57928W        W17189  35.011  36.990  14.949
57929W        W17190   3.770   4.824   0.329
57930W        W17191  12.689  42.874  14.779
57931W        W17192  10.855   2.242  13.412
57932W        W17193  28.014   4.788  13.855
57933W        W17194  35.989   0.794   3.243
57934W        W17195  14.787  20.624  12.390
57935W        W17196  33.955   3.314   4.825
57936W        W17197   7.781   1.898  10.506
57937W        W17198  44.337   0.775  12.016
57938W        W17199  43.387  41.455   2.240
57939W        W17200  26.508  32.125   3.305
57940W        W17201   6.922  11.343   2.259
57941W        W17202  17.259  28.101  14.796
57942W        W17203  42.939  11.684   1.800
57943W        W17204  20.202   7.774   9.655
57944W        W17205   4.289  41.393   1.779
57945W        W17206  16.567  19.049  11.601
57946W        W17207  10.221   8.891   2.329
57947W        W17208   8.379  43.461  13.528
57948W        W17209  34.415  36.420  11.443
57949W        W17210  21.751  42.885  13.514
57950W        W17211  28.149  42.286  14.848
57951W        W17212  33.971   3.441   0.410
57952W        W17213  35.492  41.810  10.956
57953W        W17214  26.035  13.312   0.813
57954W        W17215   2.821  44.862  11.977
57955W        W17216  33.478  24.522  13.956
57956W        W17217  42.327  31.614   2.758
57957W        W17218  20.045  38.391   4.679
57958W        W17219  27.193  11.754  13.508
57959W        W17220  31.411  17.721  12.079
57960W        W17221   5.239  25.180  13.879
57961W        W17222  20.581  12.293   3.279
57962W        W17223  22.716  41.866   0.413
57963W        W17224  41.469  39.000  13.049
57964W        W17225  19.726  11.762   4.160
57965W        W17226   8.173   1.947   1.325
57966W        W17227  23.132  23.079  10.516
57967W        W17228  22.025   7.848   3.287
57968W        W17229  44.986  15.698  10.495
57969W        W17230  31.072  32.477  14.331
57970W        W17231   3.223  16.075  14.009
57971W        W17232  23.573  15.140   4.285
57972W        W17233  25.165  24.012   3.151
57973W        W17234   7.734  38.032  10.622
57974W        W17235  36.070  12.723  12.988
57975W        W17236  14.279  30.425   0.410
57976W        W17237  13.764  37.512  14.465
57977W        W17238   0.292   5.929  11.582
57978W        W17239  10.326  22.209  14.795
57979W        W17240  14.135  23.148   1.338
57980W        W17241  10.340   5.418   2.186
57981W        W17242   4.732  30.541  12.985
57982W        W17243  14.227  29.536  11.428
57983W        W17244   3.313  30.977   3.202
57984W        W17245  40.028  41.516  14.772
57985W        W17246  44.908  27.570   5.761
57986W        W17247  30.443   0.898   2.200
57987W        W17248  15.648   9.222   2.843
57988W        W17249  25.110  14.213   1.755
57989W        W17250  44.820  26.487  13.510
57990W        W17251  44.273  32.028   1.927
57991W        W17252  35.888  30.024  11.404
57992W        W17253   1.340  43.504  14.456
57993W        W17254   0.775   6.781  12.534
57994W        W17255  11.313  35.012   2.764
57995W        W17256  18.551   6.721  12.500
57996W        W17257  10.343  18.057   4.623
57997W        W17258  37.505  36.981  11.424
57998W        W17259  32.123  30.113  10.478
57999W        W17260  20.155   3.404   0.843
58000W        W17261  25.074  31.638  12.370
58001W        W17262   3.460  17.600   0.760
58002W        W17263  31.083  15.306   0.278
58003W        W17264  38.448   9.867  13.965
58004W        W17265  36.929  31.489   2.290
58005W        W17266  35.474   6.413  14.406
58006W        W17267   0.397  26.693  11.376
58007W        W17268  13.785   1.816   1.307
58008W        W17269  36.415  19.569   2.728
58009W        W17270  10.765  30.417  10.925
58010W        W17271  43.327  34.468  12.433
58011W        W17272  27.640  33.132  13.039
58012W        W17273  41.014   3.815  11.921
58013W        W17274  10.149  13.817   3.781
58014W        W17275   6.280  22.640   3.277
58015W        W17276   9.655  24.051   4.601
58016W        W17277  38.073  33.894   4.782
58017W        W17278   8.900  27.447  11.586
58018W        W17279   0.807  18.673   2.710
58019W        W17280  37.927  10.736   9.553
58020W        W17281  18.198   3.715  13.794
58021W        W17282   4.259  38.999  14.924
58022W        W17283  32.107  31.492  13.400
58023W        W17284  35.925  30.964   4.328
58024W        W17285  24.585   7.694   4.749
58025W        W17286  16.805  28.960   1.726
58026W        W17287   7.761  42.488  10.900
58027W        W17288  31.625  31.921  10.927
58028W        W17289  20.734  26.534   4.712
58029W        W17290  38.509  28.624  11.566
58030W        W17291   2.785  40.909   3.169
58031W        W17292   2.250  21.739   3.817
58032W        W17293  28.505   8.843  14.462
58033W        W17294  36.054  28.177   1.811
58034W        W17295  12.185  42.320  12.892
58035W        W17296  34.384  11.856  12.516
58036W        W17297  12.853  30.560  10.085
58037W        W17298  39.035  20.645   1.743
58038W        W17299  43.803  22.244   3.195
58039W        W17300   7.265  28.672  14.407
58040W        W17301  42.441  40.528   3.236
58041W        W17302  35.892  22.572  10.933
58042W        W17303  29.485  28.961  10.078
58043W        W17304  36.971  28.472   1.297
58044W        W17305  18.622  30.024   4.198
58045W        W17306   3.911  30.659  14.356
58046W        W17307   6.275   2.916  14.797
58047W        W17308  33.976  13.319   4.702
58048W        W17309  17.260  30.427   3.775
58049W        W17310  26.119  37.990   0.925
58050W        W17311  31.903  40.440  10.561
58051W        W17312   9.812  13.330   1.864
58052W        W17313  30.528  36.006  14.453
58053W        W17314  11.624   4.738  12.890
58054W        W17315  23.199  16.731   0.351
58055W        W17316  12.704   6.729   2.387
58056W        W17317  31.091  34.996  14.833
58057W        W17318   4.386  21.521   3.206
58058W        W17319  31.613  42.838   1.368
58059W        W17320  19.196  17.780  11.113
58060W        W17321  39.516  28.943   2.682
58061W        W17322   7.703  22.747  13.509
58062W        W17323  19.558   5.288   3.646
58063W        W17324  36.430  24.701   4.677
58064W        W17325  38.022  19.237  11.526
58065W        W17326  17.797  24.558  13.856
58066W        W17327  35.936  30.631  11.878
58067W        W17328  21.199  26.020  14.420
58068W        W17329  44.993  12.221   3.710
58069W        W17330  32.063   3.245   2.717
58070W        W17331  16.177  10.242   1.248
58071W        W17332  43.980  18.084   5.197
58072W        W17333  25.704   5.427  13.027
58073W        W17334   9.742  23.502  14.884
58074W        W17335  39.466  17.114  14.025
58075W        W17336  19.598  41.486   0.853
58076W        W17337  40.891  18.715  14.835
58077W        W17338   2.886   9.868   0.263
58078W        W17339  24.585   7.410  12.431
58079W        W17340  42.506  32.101  12.949
58080W        W17341  25.060  23.080  14.495
58081W        W17342  27.535  36.433   3.236
58082W        W17343   2.912   8.178  13.485
58083W        W17344   6.880  16.125  10.426
58084W        W17345  42.937  31.479  12.378
58085W        W17346  12.219   8.226  14.493
58086W        W17347  32.086  12.357   3.632
58087W        W17348  16.166   5.882   2.841
58088W        W17349  34.600  44.002   3.730
58089W        W17350  43.474  30.605   5.093
58090W        W17351   9.364  33.532  10.575
58091W        W17352   6.282  28.046  10.561
58092W        W17353   9.858  39.023  11.943
58093W        W17354  44.483  38.420  13.798
58094W        W17355  41.016  28.055   0.378
58095W        W17356   5.369   9.309   1.759
58096W        W17357  17.597  40.855   0.262
58097W        W17358  41.804  31.589   3.835
58098W        W17359  36.539  17.588  11.985
58099W        W17360  31.066  18.080  14.817
58100W        W17361   1.734  17.670   1.823
58101W        W17362   3.936  44.353  14.447
58102W        W17363  14.265  10.370  10.013
58103W        W17364   0.303  18.628   4.615
58104W        W17365  19.262  13.294  13.049
58105W        W17366  13.307   8.689   1.924
58106W        W17367   1.827  13.703  11.987
58107W        W17368  42.341  14.265  11.519
58108W        W17369  17.216  10.731   4.247
58109W        W17370  27.556  38.470  14.986
58110W        W17371  13.261  40.466   3.758
58111W        W17372  25.177  21.236  14.876
58112W        W17373  28.180  26.614  12.554
58113W        W17374  19.580   1.894   4.636
58114W        W17375  18.270  33.064  14.497
58115W        W17376  24.627  19.695   2.663
58116W        W17377  38.995  31.901  12.075
58117W        W17378   7.681  21.517   4.806
58118W        W17379  37.476  22.629  13.052
58119W        W17380  17.081  20.268  10.437
58120W        W17381  34.481  25.608   2.835
58121W        W17382  38.970  10.178   3.768
58122W        W17383   1.438   1.338  12.028
58123W        W17384   7.320  35.063  11.531
58124W        W17385   7.697   7.253   5.307
58125W        W17386  24.493  44.900   1.753
58126W        W17387  41.878  25.709   1.273
58127W        W17388  32.004   2.228  12.036
58128W        W17389  33.093  30.473  10.413
58129W        W17390   7.332  20.203  11.476
58130W        W17391  27.609  19.127  12.515
58131W        W17392  24.649  17.762   3.733
58132W        W17393  29.593  16.655   3.375
58133W        W17394  29.996  34.465   3.644
58134W        W17395  35.463  29.464  13.820
58135W        W17396  25.569  11.302  11.596
58136W        W17397  21.651  40.952  14.804
58137W        W17398  18.246  32.621   2.280
58138W        W17399  37.522  24.086  14.768
58139W        W17400  27.528  43.438   0.411
58140W        W17401  18.633  34.920  12.838
58141W        W17402  32.415   8.396   0.377
58142W        W17403  10.174   1.438  12.921
58143W        W17404   9.854  19.717   3.691
58144W        W17405  14.700  39.518  10.477
58145W        W17406  23.165  44.969  11.009
58146W        W17407  20.210  21.603  14.507
58147W        W17408  33.566  31.074  11.107
58148W        W17409   0.469  41.482  12.358
58149W        W17410  12.182  21.075  13.922
58150W        W17411  24.688   5.722   4.145
58151W        W17412  31.541  22.109  11.907
58152W        W17413  29.971   4.892   2.693
58153W        W17414   7.802  19.177  11.516
58154W        W17415  37.067  32.972  11.965
58155W        W17416   7.784   1.797  13.313
58156W        W17417  10.735  28.589   3.765
58157W        W17418  16.640  36.401   1.276
58158W        W17419  23.180  13.312   2.189
58159W        W17420  19.283   6.781  12.897
58160W        W17421   8.350  17.078  12.520
58161W        W17422  33.411  43.898  12.077
58162W        W17423  38.973   6.891  11.575
58163W        W17424  41.533  43.362   0.849
58164W        W17425   0.896   5.793   3.696
58165W        W17426  30.102  31.550   9.943
58166W        W17427  20.189  44.766   4.116
58167W        W17428  23.080  22.046  13.014
58168W        W17429  19.621   6.259   2.775
58169W        W17430  26.955  21.154   4.290
58170W        W17431  17.263  14.206   1.770
58171W        W17432  22.621   2.416   0.797
58172W        W17433  23.077   7.711   2.398
58173W        W17434  15.798   5.328  12.987
58174W        W17435   3.751  26.166  13.956
58175W        W17436  36.585  41.965   1.357
58176W        W17437   1.801  44.858  10.909
58177W        W17438   1.310  30.955   1.445
58178W        W17439  15.177  23.236  12.828
58179W        W17440  41.382  28.025   1.345
58180W        W17441  13.784  40.912  12.544
58181W        W17442   1.360   3.261   1.413
58182W        W17443  32.437  23.019   1.434
58183W        W17444  10.705  41.504   0.746
58184W        W17445  38.402  35.034   9.953
58185W        W17446  35.568   0.767  14.823
58186W        W17447  12.153   0.493  14.865
58187W        W17448  25.149   5.405  10.451
58188W        W17449  28.472  13.777  13.462
58189W        W17450  14.594  15.766   5.142
58190W        W17451  13.295  31.480   4.725
58191W        W17452  10.748  16.604   3.202
58192W        W17453   0.858  27.568   4.662
58193W        W17454  10.665  20.691   2.716
58194W        W17455  27.038   0.891   5.204
58195W        W17456   5.309  34.904  12.545
58196W        W17457  36.041  29.069  13.548
58197W        W17458   9.840  37.852   3.837
58198W        W17459   0.302   5.379  10.911
58199W        W17460   7.843  26.126  14.482
58200W        W17461  26.209  17.125   1.848
58201W        W17462   1.308  10.776  10.552
58202W        W17463   9.655  37.947   2.719
58203W        W17464  24.217  28.513   0.284
58204W        W17465   7.783  19.063  11.859
58205W        W17466   3.287  21.262   5.316
58206W        W17467  15.600  43.901   0.841
58207W        W17468  28.174   8.219  13.052
58208W        W17469  31.028  16.308  13.802
58209W        W17470   0.371  11.167   2.324
58210W        W17471  33.474  11.270   1.814
58211W        W17472  32.582  38.467  12.072
58212W        W17473   3.314  26.678  14.859
58213W        W17474  22.580  15.785   0.467
58214W        W17475  28.531  28.462   1.298
58215W        W17476  29.157  23.231   4.169
58216W        W17477   7.187  16.607  13.987
58217W        W17478  36.087  18.559  14.325
58218W        W17479  22.640   2.808   2.896
58219W        W17480  20.725   5.193   0.945
58220W        W17481  36.938  41.398  13.894
58221W        W17482   8.227  43.820   0.904
58222W        W17483  16.621  40.035   3.699
58223W        W17484   0.255  21.636  10.948
58224W        W17485  35.877   4.308   1.735
58225W        W17486  19.621  10.765  13.325
58226W        W17487  18.277  16.766  13.370
58227W        W17488  29.108  34.404  11.429
58228W        W17489   5.806  42.314   4.165
58229W        W17490  35.494   9.299  12.928
58230W        W17491   7.205  20.758   4.205
58231W        W17492  10.177   5.909  14.477
58232W        W17493  32.123  18.284   1.306
58233W        W17494  13.599   0.264  12.058
58234W        W17495  30.422  26.019   1.757
58235W        W17496   6.827  28.478   3.240
58236W        W17497  17.711  10.345   1.878
58237W        W17498  28.504  39.537   3.157
58238W        W17499  43.840   6.696   3.302
58239W        W17500  44.316   0.462  12.451
58240W        W17501  25.018  25.013   0.278
58241W        W17502   6.225  41.448  14.803
58242W        W17503  28.601   5.845   2.269
58243W        W17504   8.767  40.402  12.897
58244W        W17505  36.537  17.605   4.802
58245W        W17506   6.807  18.627  14.367
58246W        W17507  25.601  32.887  13.961
58247W        W17508  16.787   9.247  11.024
58248W        W17509  37.079  34.418  11.997
58249W        W17510  36.087  30.523   2.738
58250W        W17511  15.694  30.121  13.442
58251W        W17512  44.442  23.711   9.568
58252W        W17513  15.722  43.879   1.386
58253W        W17514  30.081  29.131   0.926
58254W        W17515  36.055  41.044  14.487
58255W        W17516  35.955   1.251   4.642
58256W        W17517  13.218  21.542  12.926
58257W        W17518  37.361  22.687   5.178
58258W        W17519  30.630  43.511   2.397
58259W        W17520  19.645  21.074  10.046
58260W        W17521  18.714  18.212   3.242
58261W        W17522  43.513  29.666  13.879
58262W        W17523  36.478  22.519  10.950
58263W        W17524  42.809  30.596   1.273
58264W        W17525  36.940  11.158  11.429
58265W        W17526   8.839  22.158   3.238
58266W        W17527   1.756  36.514   1.299
58267W        W17528  11.235   9.348  13.882
58268W        W17529  15.284  17.271   4.745
58269W        W17530  41.860  19.630   1.862
58270W        W17531   7.409  30.501   3.831
58271W        W17532  34.864  41.466   3.348
58272W        W17533  34.461  34.540   3.159
58273W        W17534  33.501  12.689  11.405
58274W        W17535  15.187  33.072   3.846
58275W        W17536  39.831  20.684   3.717
58276W        W17537  34.603  34.375  11.982
58277W        W17538  20.760  35.555   1.267
58278W        W17539   5.845  18.673  11.920
58279W        W17540  30.000  33.996   3.778
58280W        W17541  41.429  13.822   1.346
58281W        W17542  43.791  43.897   4.171
58282W        W17543  29.968   0.492  13.965
58283W        W17544   8.699  36.867   4.306
58284W        W17545  19.728  10.366  10.943
58285W        W17546  30.999  25.647   3.820
58286W        W17547  15.817   8.863  10.447
58287W        W17548  25.638  36.005  13.313
58288W        W17549  33.423  11.637  13.993
58289W        W17550  35.459  27.198  14.821
58290W        W17551  40.389   8.843   4.185
58291W        W17552  39.516  39.061   5.292
58292W        W17553  37.990  24.068   4.234
58293W        W17554  21.076  32.516   4.234
58294W        W17555  21.042  33.007   1.295
58295W        W17556  35.865  21.026   2.305
58296W        W17557  13.795  44.915  13.438
58297W        W17558  17.567   1.842   0.942
58298W        W17559  44.822  39.955  11.953
58299W        W17560   8.882  13.112  14.491
58300W        W17561  13.636  26.999   1.442
58301W        W17562  39.826   5.771  12.924
58302W        W17563  34.469  13.793  12.412
58303W        W17564  28.508  38.823  12.874
58304W        W17565  19.212  36.522   4.331
58305W        W17566  20.633  26.040   3.299
58306W        W17567  39.036  37.015  10.611
58307W        W17568   2.363  16.655  12.891
58308W        W17569  19.661   4.352   4.330
58309W        W17570   7.909   8.328   1.313
58310W        W17571  32.593  27.667  13.060
58311W        W17572  33.499  18.240  12.963
58312W        W17573  40.326  38.431  11.519
58313W        W17574   4.859  31.479   4.255
58314W        W17575  34.576  42.813   4.620
58315W        W17576  30.497  18.740  14.932
58316W        W17577  31.559  43.864  12.062
58317W        W17578  17.755  15.763  12.991
58318W        W17579  27.990  38.562  13.446
58319W        W17580   7.737  36.852  11.389
58320W        W17581  38.450  13.299   0.747
58321W        W17582  24.638  20.657  13.931
58322W        W17583  26.163  25.040  12.906
58323W        W17584   7.911  34.500   1.730
58324W        W17585  25.476  22.658  13.315
58325W        W17586   8.697  40.421   1.340
58326W        W17587   7.781   2.748  12.359
58327W        W17588  35.110  40.020  13.996
58328W        W17589  13.826  18.142   2.184
58329W        W17590  15.796   3.311   0.770
58330W        W17591  15.266   0.912  13.394
58331W        W17592  13.124  31.999  14.806
58332W        W17593  28.606  39.414   1.219
58333W        W17594  40.852  21.218   2.416
58334W        W17595  12.356  13.664  11.423
58335W        W17596   5.368   8.820  14.847
58336W        W17597   1.435  13.834  12.504
58337W        W17598  11.129  17.163  12.089
58338W        W17599  16.105  34.391   3.263
58339W        W17600  26.018   2.355   1.343
58340W        W17601  19.237   0.291   0.765
58341W        W17602  30.519   8.899  14.834
58342W        W17603  38.006   1.788  11.540
58343W        W17604  38.399  13.673  11.388
58344W        W17605   1.733  23.006   0.456
58345W        W17606  19.186  33.942   3.356
58346W        W17607   6.185  25.646  13.831
58347W        W17608  42.453   1.778  12.491
58348W        W17609  42.463  32.981  10.466
58349W        W17610  10.858  19.199   0.737
58350W        W17611  10.303  11.343  10.643
58351W        W17612  37.882  36.844   4.119
58352W        W17613  22.252  11.752   2.188
58353W        W17614  41.884  24.679   2.379
58354W        W17615   8.182  24.585   3.274
58355W        W17616  36.003  18.754  10.954
58356W        W17617  33.916  13.624   2.289
58357W        W17618  18.768  26.585  10.980
58358W        W17619  21.647  15.158  11.508
58359W        W17620  18.095  10.314   3.869
58360W        W17621  16.761  11.350  11.425
58361W        W17622  26.549   1.799   2.774
58362W        W17623  15.121  11.214  12.052
58363W        W17624  16.103  35.982  14.462
58364W        W17625  23.077  17.066   1.346
58365W        W17626  26.638  23.648  11.505
58366W        W17627  39.914  23.113  14.495
58367W        W17628  37.394   1.360  13.398
58368W        W17629  35.045   2.914   2.678
58369W        W17630   9.709  20.565   0.414
58370W        W17631  33.975  40.970  11.954
58371W        W17632   9.289  14.616  11.044
58372W        W17633  31.613  15.129  13.363
58373W        W17634  21.529  28.456   0.952
58374W        W17635  34.996  37.846   2.300
58375W        W17636  21.624   7.326   4.681
58376W        W17637  26.621  28.138  14.866
58377W        W17638   2.919   7.252  11.964
58378W        W17639  14.237  33.526   2.665
58379W        W17640  13.823  42.456   0.935
58380W        W17641   8.669   8.725  13.874
58381W        W17642  27.567  34.074  14.361
58382W        W17643  19.279  40.054  14.378
58383W        W17644   4.339  26.577  14.382
58384W        W17645   5.294  30.460   1.301
58385W        W17646  20.068   0.409   1.852
58386W        W17647  36.996  41.429  10.917
58387W        W17648  10.855  13.257  12.380
58388W        W17649  39.422  36.398   2.372
58389W        W17650  36.093  28.443   4.726
58390W        W17651   6.702  18.545   0.435
58391W        W17652   1.898  22.721   2.210
58392W        W17653  24.066  20.762   5.185
58393W        W17654   6.757  29.581   1.913
58394W        W17655  25.590   4.771   2.684
58395W        W17656   4.379   5.705   2.369
58396W        W17657  24.093  13.205   1.448
58397W        W17658   0.983  12.127  12.841
58398W        W17659   4.308  22.687  12.989
58399W        W17660  41.383  12.288  12.458
58400W        W17661  36.398   3.824   4.309
58401W        W17662  23.031  26.626  12.376
58402W        W17663   6.352  31.925   3.269
58403W        W17664  26.021  36.059  14.015
58404W        W17665  23.992   9.269  12.960
58405W        W17666  41.386  39.006   4.787
58406W        W17667  38.054   1.373   0.868
58407W        W17668  20.154  20.048   4.788
58408W        W17669  35.367  31.931   2.676
58409W        W17670   3.457  28.137   5.139
58410W        W17671  12.248   2.936   0.288
58411W        W17672  11.372  41.332   0.437
58412W        W17673  25.582   7.828  12.350
58413W        W17674  13.343  23.155  11.878
58414W        W17675  32.497  13.644   3.267
58415W        W17676  37.870  11.859  11.866
58416W        W17677  19.205  35.896  12.045
58417W        W17678  36.593   4.722   3.182
58418W        W17679  17.232  19.615  11.097
58419W        W17680  31.027   6.419  11.881
58420W        W17681  18.648   2.732  14.302
58421W        W17682  36.073   1.885  13.810
58422W        W17683  19.570  43.778   4.184
58423W        W17684   5.218  35.924  10.923
58424W        W17685  10.838  10.148  11.074
58425W        W17686  34.497  25.596   3.796
58426W        W17687  26.574   6.374   0.352
58427W        W17688  11.229  20.271   1.739
58428W        W17689  37.053  12.351  13.340
58429W        W17690  24.597  11.773  10.519
58430W        W17691  37.569  15.299  14.773
58431W        W17692  36.427  39.486   0.737
58432W        W17693  20.527  34.467   2.901
58433W        W17694  36.386  13.223  12.030
58434W        W17695   9.382  30.947  13.314
58435W        W17696  35.034  19.215  11.018
58436W        W17697  29.588  36.087   3.193
58437W        W17698  15.177  35.511   0.482
58438W        W17699   3.854  13.131  14.007
58439W        W17700  34.043  30.909   1.346
58440W        W17701  22.642  32.583   1.228
58441W        W17702  11.199  15.138   3.802
58442W        W17703  18.226  31.040  13.015
58443W        W17704  20.110   0.314   2.732
58444W        W17705  18.727  15.284   4.751
58445W        W17706  14.159  14.244   2.369
58446W        W17707   5.921  37.424  12.955
58447W        W17708  23.985  35.856   4.673
58448W        W17709  38.926  35.870  14.485
58449W        W17710   9.779  21.738  11.483
58450W        W17711   6.280  22.621   0.778
58451W        W17712   9.353  13.192  14.999
58452W        W17713  34.477  11.367   1.371
58453W        W17714   3.747  39.414  11.963
58454W        W17715  23.037   4.254   0.751
58455W        W17716  11.720   6.298   2.841
58456W        W17717   9.194  11.297   1.376
58457W        W17718  16.652  17.137   0.817
58458W        W17719  41.303  14.173  10.897
58459W        W17720  18.631  14.733   4.766
58460W        W17721   3.812   6.328  10.113
58461W        W17722  15.312  33.603   3.205
58462W        W17723  15.320   2.924   4.137
58463W        W17724  37.073   4.409   4.299
58464W        W17725  14.620  18.241  13.417
58465W        W17726   6.340  17.211  11.073
58466W        W17727  38.956  19.228   2.365
58467W        W17728  24.993   4.806  12.561
58468W        W17729  18.656  23.567   0.417
58469W        W17730  18.740  35.410  13.392
58470W        W17731  18.634   8.897   2.693
58471W        W17732  15.777   2.724   9.592
58472W        W17733  17.150  30.558   2.220
58473W        W17734   8.242  37.929  13.322
58474W        W17735  30.024   7.186  12.353
58475W        W17736  21.234  15.798  11.039
58476W        W17737  18.616  41.820   2.199
58477W        W17738  19.745  16.688  13.400
58478W        W17739  43.436  20.766   0.380
58479W        W17740   9.703   8.725   2.361
58480W        W17741  14.236   6.284   5.152
58481W        W17742  44.903  17.583   0.309
58482W        W17743  36.974  32.469   2.346
58483W        W17744  20.174  44.950  14.921
58484W        W17745  44.490  20.633   3.277
58485W        W17746  32.089  11.826  10.588
58486W        W17747  12.655   4.932  14.398
58487W        W17748  27.536  39.024  11.378
58488W        W17749  13.792   7.771   1.256
58489W        W17750   8.888  35.440   2.807
58490W        W17751   4.813  34.917   3.825
58491W        W17752  30.975   1.396  11.102
58492W        W17753  31.949  28.134   4.245
58493W        W17754  12.158  33.477   3.665
58494W        W17755  33.117  11.175   0.352
58495W        W17756  22.649  19.082   1.719
58496W        W17757  25.691  30.147  12.446
58497W        W17758  25.657  10.825  13.010
58498W        W17759  24.516  22.232  13.004
58499W        W17760   4.868  40.972  13.472
58500W        W17761  36.938  28.677   2.259
58501W        W17762  10.673   2.929  13.523
58502W        W17763  18.050  33.482  13.396
58503W        W17764   1.894   3.778  11.406
58504W        W17765  26.988  41.832  11.004
58505W        W17766  17.119   6.400   3.349
58506W        W17767   1.963   6.350   3.685
58507W        W17768  24.524   0.453   0.263
58508W        W17769  16.215  26.565   4.330
58509W        W17770  15.202  36.350   2.199
58510W        W17771   3.770  31.911   2.686
58511W        W17772  11.139  38.865   1.330
58512W        W17773  41.999   8.835   2.396
58513W        W17774  13.828  38.368   0.873
58514W        W17775  12.793   9.243  12.506
58515W        W17776   7.413  44.976   1.266
58516W        W17777  36.953  43.938  14.881
58517W        W17778  20.740  38.554  12.082
58518W        W17779  31.003  20.120  11.882
58519W        W17780  17.741  14.591   4.735
58520W        W17781   9.673  11.296   1.750
58521W        W17782  16.637  36.548  12.988
58522W        W17783  40.523  28.455   5.192
58523W        W17784  13.210  40.533   1.867
58524W        W17785   9.251   2.751  14.420
58525W        W17786  44.861  40.412  11.027
58526W        W17787  29.972  27.529  13.895
58527W        W17788  42.779  32.585   2.193
58528W        W17789   0.874   7.387  14.465
58529W        W17790  16.781  39.453  10.552
58530W        W17791  33.462   0.401  13.047
58531W        W17792  13.625  36.505   2.377
58532W        W17793  37.568  13.667  13.501
58533W        W17794  44.804   7.832   0.903
58534W        W17795  24.550  26.028   0.809
58535W        W17796  31.499   8.807   2.831
58536W        W17797  33.444  20.535   3.778
58537W        W17798  24.113  37.882  10.523
58538W        W17799  40.374  24.135  14.414
58539W        W17800  17.119   4.912   0.890
58540W        W17801  44.263  26.020  12.422
58541W        W17802  33.477   3.307   5.128
58542W        W17803  39.048   2.226   2.892
58543W        W17804   2.945  16.723   2.271
58544W        W17805  28.077   8.271  11.856
58545W        W17806  17.177  42.397   1.381
58546W        W17807  24.531  29.621  13.867
58547W        W17808   4.298  27.487   2.741
58548W        W17809  35.062  41.852   2.202
58549W        W17810  12.326   6.240   0.833
58550W        W17811  36.509  30.538  13.362
58551W        W17812   1.791  31.089   0.462
58552W        W17813   9.339  27.183   4.218
58553W        W17814  38.071  34.410  13.414
58554W        W17815   3.419  11.246   3.285
58555W        W17816  24.079  31.461   0.395
58556W        W17817  38.825  42.365  14.804
58557W        W17818   4.273  13.204  10.966
58558W        W17819  16.226  19.671   4.617
58559W        W17820   0.877  28.958  10.912
58560W        W17821  41.527  19.635   1.725
58561W        W17822  30.049   8.883  11.941
58562W        W17823  31.917  24.071   0.483
58563W        W17824  44.932  30.141   2.344
58564W        W17825  35.979  23.572  12.955
58565W        W17826  34.876  12.843   4.179
58566W        W17827  13.758  25.695  11.926
58567W        W17828  34.032  22.221  10.525
58568W        W17829   4.329  10.732  13.892
58569W        W17830  30.954  28.966  14.821
58570W        W17831  17.102  23.490   2.748
58571W        W17832   2.893   5.846   1.784
58572W        W17833   2.310   0.824  12.859
58573W        W17834  44.261  14.762  14.820
58574W        W17835   6.894  16.791   4.709
58575W        W17836  42.984  35.064  12.049
58576W        W17837  21.703  42.852   0.256
58577W        W17838  40.926  18.559   0.416
58578W        W17839  44.828  17.061  10.058
58579W        W17840   5.786  42.308  11.941
58580W        W17841  37.390   9.166  14.798
58581W        W17842   1.847  32.933  10.455
58582W        W17843  10.351   6.292   0.946
58583W        W17844  40.882   5.845   1.258
58584W        W17845   8.882   7.775   2.262
58585W        W17846  35.051   2.953  13.794
58586W        W17847  37.466  28.127   1.759
58587W        W17848   9.358  17.614  14.978
58588W        W17849  39.540  10.251  12.000
58589W        W17850  18.280  41.466   3.177
58590W        W17851  23.192   9.201   4.205
58591W        W17852  27.497  24.580   2.824
58592W        W17853  18.667  39.419   0.805
58593W        W17854  16.280  28.551   5.279
58594W        W17855   5.875  35.562  14.018
58595W        W17856   0.248  26.080   2.189
58596W        W17857  38.001  36.897  10.105
58597W        W17858   4.447  28.558  12.481
58598W        W17859  44.296  13.721   4.791
58599W        W17860   6.823  11.628  11.998
58600W        W17861  40.826  28.968   2.673
58601W        W17862  33.543  15.129   1.783
58602W        W17863  39.878  24.101   3.801
58603W        W17864   2.934  13.743   0.757
58604W        W17865  38.370  30.052   3.800
58605W        W17866  36.556  11.818   0.885
58606W        W17867  17.066  25.550   0.727
58607W        W17868  34.053  28.627   2.413
58608W        W17869  35.883  11.848  13.364
58609W        W17870  41.925  10.701   4.230
58610W        W17871  12.821  39.898   1.451
58611W        W17872   5.236   2.912  14.387
58612W        W17873  41.342   6.266  12.000
58613W        W17874  14.113  20.583  13.438
58614W        W17875  42.975  18.709   3.365
58615W        W17876   1.912  19.677  10.512
58616W        W17877  41.443  38.928   3.844
58617W        W17878  15.578  20.534  10.967
58618W        W17879  11.697  25.128   2.386
58619W        W17880  26.643  44.410  11.426
58620W        W17881  30.141   6.383   4.131
58621W        W17882  41.790   1.905   9.940
58622W        W17883  10.153  29.498   4.710
58623W        W17884  11.762  20.258   4.239
58624W        W17885  40.009   2.261  10.466
58625W        W17886  38.357   1.930   1.770
58626W        W17887   3.871  21.548   4.603
58627W        W17888  18.174  18.081   3.291
58628W        W17889  32.629  12.176   3.208
58629W        W17890  41.822  37.364   3.855
58630W        W17891  33.949  20.630   3.279
58631W        W17892   4.757  17.556  14.302
58632W        W17893  13.119  18.661  13.515
58633W        W17894  10.342  18.725   1.274
58634W        W17895   3.310  27.548  11.957
58635W        W17896  35.950   5.811   1.437
58636W        W17897  18.658  15.160  13.312
58637W        W17898  26.038   8.219   3.829
58638W        W17899   7.236  39.060   4.802
58639W        W17900  11.131  16.668   0.828
58640W        W17901  30.643  34.046   0.842
58641W        W17902  16.213  24.712  13.801
58642W        W17903   3.429  23.544   2.880
58643W        W17904  25.479  35.905   0.254
58644W        W17905   5.316  25.217   4.700
58645W        W17906  21.641  17.762   3.738
58646W        W17907  23.043  19.050   4.291
58647W        W17908  15.594  44.883  12.968
58648W        W17909  17.307   1.832   4.314
58649W        W17910   7.255  33.058   2.189
58650W        W17911  25.562  34.009  14.020
58651W        W17912  20.094  35.856   4.808
58652W        W17913  39.416  15.247   2.212
58653W        W17914  14.770   5.308   4.333
58654W        W17915  44.755  12.793  13.542
58655W        W17916  26.148  35.917  11.097
58656W        W17917  37.501  10.704  14.355
58657W        W17918  21.593  33.881   3.378
58658W        W17919  25.479  34.072   2.677
58659W        W17920  27.550  12.750   2.408
58660W        W17921  42.880  23.575  12.015
58661W        W17922   4.824  30.114   2.715
58662W        W17923  30.002  15.296   3.194
58663W        W17924  40.336   2.727  11.971
58664W        W17925   5.262  35.392  12.078
58665W        W17926  30.047   2.416  13.979
58666W        W17927  34.938   4.257   1.836
58667W        W17928  38.534  40.305   4.165
58668W        W17929  21.551   5.883   3.829
58669W        W17930  20.704  37.994  11.470
58670W        W17931  39.838   7.254  12.832
58671W        W17932  22.560   9.221  10.603
58672W        W17933  28.955   5.848   0.913
58673W        W17934  34.545   2.789  11.125
58674W        W17935  34.612   9.216  14.482
58675W        W17936  24.608  10.793  13.497
58676W        W17937  25.003  33.912  12.362
58677W        W17938  43.509  14.619  13.940
58678W        W17939  33.089  22.574  12.524
58679W        W17940  23.110   1.842   1.284
58680W        W17941  23.515  34.497   1.405
58681W        W17942  12.763   9.388  13.327
58682W        W17943  33.495  34.433  13.322
58683W        W17944  28.533  33.429   0.280
58684W        W17945  35.528  11.352   0.906
58685W        W17946  16.578   0.873   1.432
58686W        W17947   0.442  31.594  14.863
58687W        W17948  19.642  41.982   2.831
58688W        W17949   4.288   6.694  13.961
58689W        W17950  27.676  25.057   2.233
58690W        W17951  16.670  19.118   1.333
58691W        W17952  33.054  19.612  14.343
58692W        W17953  26.607  14.655   4.623
58693W        W17954  16.788  28.071   1.250
58694W        W17955   1.397  33.393  11.409
58695W        W17956  42.315  25.478  13.855
58696W        W17957  14.150   7.212   0.434
58697W        W17958  37.574  29.667  11.926
58698W        W17959  12.812   9.207  13.967
58699W        W17960  15.711  39.351   1.344
58700W        W17961  41.886  29.050  11.599
58701W        W17962  38.477  21.031  13.913
58702W        W17963  35.871  28.447   4.256
58703W        W17964  27.170   4.402  10.899
58704W        W17965  28.132  30.958   1.439
58705W        W17966  39.380  15.216   1.795
58706W        W17967   0.259  28.024  12.977
58707W        W17968  13.204  44.389  13.052
58708W        W17969  42.002  23.094  12.825
58709W        W17970  13.637  37.567   1.450
58710W        W17971   2.894  27.145  12.926
58711W        W17972  39.885  33.499  14.018
58712W        W17973  20.203  37.398   1.860
58713W        W17974  39.815   4.267  14.448
58714W        W17975   4.228  29.005   3.647
58715W        W17976   0.900  44.942   4.155
58716W        W17977   6.795   2.721   3.806
58717W        W17978  25.583  11.700  12.484
58718W        W17979  12.348  33.495  13.902
58719W        W17980  30.431  15.238   4.211
58720W        W17981  17.205  29.445   1.221
58721W        W17982  11.643  38.863  13.396
58722W        W17983  38.902  18.685  11.885
58723W        W17984  21.175   8.286  11.918
58724W        W17985  13.705  21.622   4.696
58725W        W17986  30.058  18.578  11.054
58726W        W17987   2.953  23.692  11.578
58727W        W17988  20.560  39.985   3.796
58728W        W17989   3.720   7.770   0.818
58729W        W17990  25.547  10.157   0.951
58730W        W17991   5.333  31.631  14.850
58731W        W17992  38.546  26.578  14.365
58732W        W17993  33.083   5.770   5.589
58733W        W17994   2.345  23.160   3.745
58734W        W17995   6.303  37.498  10.495
58735W        W17996  44.444  11.314   4.694
58736W        W17997  22.731   2.273   3.687
58737W        W17998  19.080  28.579   4.710
58738W        W17999  29.976   4.879  13.843
58739W        W18000  33.913  23.155  11.386
58740W        W18001  18.664   2.959  11.386
58741W        W18002  43.013   8.808  14.881
58742W        W18003  41.955  12.769   1.295
58743W        W18004  42.785  34.947  14.849
58744W        W18005  37.060  13.622   1.753
58745W        W18006  23.677  31.011   3.753
58746W        W18007  10.656  39.354  12.878
58747W        W18008  30.918  36.411  12.914
58748W        W18009  34.370   0.867   4.823
58749W        W18010  10.785  18.683  10.960
58750W        W18011  11.851  14.174  12.941
58751W        W18012  40.320  10.182   3.764
58752W        W18013   2.455   4.251  12.073
58753W        W18014  32.404  41.863  14.925
58754W        W18015  36.949  42.421   1.388
58755W        W18016  42.885  38.024  13.542
58756W        W18017   0.256  41.894  11.408
58757W        W18018  44.919  12.833   2.236
58758W        W18019   7.386  16.702  14.286
58759W        W18020  27.527   3.745   2.222
58760W        W18021  11.167   0.905   1.256
58761W        W18022  43.310  39.841  14.937
58762W        W18023  23.621  15.674  12.558
58763W        W18024  41.960  17.225   0.917
58764W        W18025  33.032  37.452  10.061
58765W        W18026   1.933  43.464   1.881
58766W        W18027  40.463  26.001   1.362
58767W        W18028  23.548  37.975   1.836
58768W        W18029  35.439  21.680   0.828
58769W        W18030  14.641   8.325   2.214
58770W        W18031  35.004  14.178   3.681
58771W        W18032  11.628  37.344  12.356
58772W        W18033  11.806  33.091   2.304
58773W        W18034  16.596   4.337   4.146
58774W        W18035  11.366  17.767   4.784
58775W        W18036  30.041   8.309   2.859
58776W        W18037  36.392  29.616   4.710
58777W        W18038  25.677  14.156   0.824
58778W        W18039   7.401  14.797   3.172
58779W        W18040  38.437  17.775   4.242
58780W        W18041  35.853  31.512   4.279
58781W        W18042  29.609  42.320  11.422
58782W        W18043  32.133   7.697  12.897
58783W        W18044  29.555  17.728  13.961
58784W        W18045   1.429  32.399  10.925
58785W        W18046  35.481  33.106  13.013
58786W        W18047  44.945  22.715  12.410
58787W        W18048  36.374  16.577  11.900
58788W        W18049  32.922  14.618  13.311
58789W        W18050  38.569  17.261   1.909
58790W        W18051  11.841  27.535  13.794
58791W        W18052  27.058  15.710  14.895
58792W        W18053  26.643  25.197   2.201
58793W        W18054  28.109  18.141   3.823
58794W        W18055  42.492   7.808   3.745
58795W        W18056   4.325  35.415  11.391
58796W        W18057  42.475  35.049  14.901
58797W        W18058   6.282  32.961  13.975
58798W        W18059   2.340  35.383   1.723
58799W        W18060  37.465   8.898   4.801
58800W        W18061  37.076  28.021   2.225
58801W        W18062  13.351  12.643   1.412
58802W        W18063   6.735  17.644   1.248
58803W        W18064  44.498   3.891   1.905
58804W        W18065  25.480  11.845   2.865
58805W        W18066  10.366  20.126  11.961
58806W        W18067  36.035  18.294   0.465
58807W        W18068   0.344  18.274  11.537
58808W        W18069  19.644  34.522  13.514
58809W        W18070  10.327  44.271   2.693
58810W        W18071  12.712  37.021  12.519
58811W        W18072  27.970  18.122   1.339
58812W        W18073  22.698  12.845  11.109
58813W        W18074  36.589  14.105   2.239
58814W        W18075  19.182  35.463  12.915
58815W        W18076  36.865   8.306   0.809
58816W        W18077  34.594  42.926  10.415
58817W        W18078   0.833  28.528   4.200
58818W        W18079  41.964   9.354  13.896
58819W        W18080  22.193   1.951   3.745
58820W        W18081  15.295  11.788  12.982
58821W        W18082  15.797   5.265  12.019
58822W        W18083  29.547  29.936  11.110
58823W        W18084  37.929  29.931  11.900
58824W        W18085  42.437  39.554   2.227
58825W        W18086  15.624  26.461   0.402
58826W        W18087  33.563  26.631   4.695
58827W        W18088  32.513  41.804  11.523
58828W        W18089  17.083  41.826  14.898
58829W        W18090  17.209   2.346  13.395
58830W        W18091  41.976   1.862  13.960
58831W        W18092  23.540   7.295   4.318
58832W        W18093   4.833  34.089   0.381
58833W        W18094  14.604  12.778  14.856
58834W        W18095  34.058  20.594   3.656
58835W        W18096  15.807  25.169   0.910
58836W        W18097   7.301   6.855  11.597
58837W        W18098  13.830   9.346   4.788
58838W        W18099  42.463  25.486   3.220
58839W        W18100   6.687   0.366  11.512
58840W        W18101   2.846  34.985  13.347
58841W        W18102   7.203  36.868   3.869
58842W        W18103   9.242  37.833  13.059
58843W        W18104  26.661  32.594  11.549
58844W        W18105  18.069  12.202   0.871
58845W        W18106  19.183  30.520   0.824
58846W        W18107   1.344  11.861   0.929
58847W        W18108  21.133  20.176   0.742
58848W        W18109   7.700  41.898   4.143
58849W        W18110  36.487  44.281  12.990
58850W        W18111  42.389  27.597  12.034
58851W        W18112  28.477  29.151   2.398
58852W        W18113  26.198  15.634  12.441
58853W        W18114  15.150  33.502   4.697
58854W        W18115  13.831  20.640   2.819
58855W        W18116  10.655   1.284   4.797
58856W        W18117  17.182  19.193  10.484
58857W        W18118   2.772  21.643  12.959
58858W        W18119  39.045  32.115  10.531
58859W        W18120  31.071  43.982  12.979
58860W        W18121  13.742  18.605  12.415
58861W        W18122  30.105  35.867   3.842
58862W        W18123   6.698  17.649   2.800
58863W        W18124  10.780  38.407  14.463
58864W        W18125   6.391   2.412   4.833
58865W        W18126   7.217  39.916   4.275
58866W        W18127   3.823  15.126  12.398
58867W        W18128  11.232  19.742   3.839
58868W        W18129  39.862  19.255   2.832
58869W        W18130  19.637  15.227   4.115
58870W        W18131  27.945  33.928   0.426
58871W        W18132  29.933   1.445   2.405
58872W        W18133   4.379  13.611  14.511
58873W        W18134  20.580  10.337  11.457
58874W        W18135  43.908  43.282   2.295
58875W        W18136  22.705  18.636  13.350
58876W        W18137  15.249  32.001  13.849
58877W        W18138  42.513  19.203   0.393
58878W        W18139  42.458  44.356   2.882
58879W        W18140   4.776   7.318   0.289
58880W        W18141  30.979  27.648  12.988
58881W        W18142  27.104  37.901   3.248
58882W        W18143   2.372  11.858   2.681
58883W        W18144   0.882  13.645   1.340
58884W        W18145   1.466  33.010   3.218
58885W        W18146  30.006   5.203  10.975
58886W        W18147   1.827   3.304  10.937
58887W        W18148  28.963  29.462  10.543
58888W        W18149  39.353  16.311  11.483
58889W        W18150  31.109  25.551  13.953
58890W        W18151   5.281  44.346   3.228
58891W        W18152  29.633  31.581   9.475
58892W        W18153  44.329  14.232   2.773
58893W        W18154   8.812  34.874  12.567
58894W        W18155   4.411  22.191  10.440
58895W        W18156   9.186  40.488  11.124
58896W        W18157   6.395  13.215   4.298
58897W        W18158  27.071  37.855   3.736
58898W        W18159   8.826  13.114  12.062
58899W        W18160  37.367   9.380  11.412
58900W        W18161  19.208  10.706  11.048
58901W        W18162   2.930  11.800   3.176
58902W        W18163  29.107  40.810   1.806
58903W        W18164  27.664  39.878  10.895
58904W        W18165   7.826  43.467   4.127
58905W        W18166   6.784  17.124   3.233
58906W        W18167  16.676  34.522  12.562
58907W        W18168  16.670  18.283  10.464
58908W        W18169  22.622  33.410   2.785
58909W        W18170   7.743  21.670   0.852
58910W        W18171   8.864  42.874   2.768
58911W        W18172  17.621  16.072   0.957
58912W        W18173  17.763  38.907  14.356
58913W        W18174  34.013   3.317   5.114
58914W        W18175  24.106  20.035   4.748
58915W        W18176  40.915  28.007   1.904
58916W        W18177   7.832   2.914   0.339
58917W        W18178  34.612  19.590  11.075
58918W        W18179  29.135   8.742   4.622
58919W        W18180  44.831  24.083  14.858
58920W        W18181   1.782  11.278  12.421
58921W        W18182  16.205  32.634   1.442
58922W        W18183  22.111   5.874  13.838
58923W        W18184  16.280  27.540  11.510
58924W        W18185  29.087  41.000   4.124
58925W        W18186  21.562   4.384   4.602
58926W        W18187  42.335  39.510   1.369
58927W        W18188  23.163  37.374  13.309
58928W        W18189   6.693  30.569   0.461
58929W        W18190  24.585  40.505  10.537
58930W        W18191  42.897  24.688   1.234
58931W        W18192  37.921  10.306   3.267
58932W        W18193  20.598  42.926  11.610
58933W        W18194  24.227  30.494   5.743
58934W        W18195  24.199   4.782   4.639
58935W        W18196   0.822  28.604   1.249
58936W        W18197  40.034  42.889  12.473
58937W        W18198  24.043   4.326  12.823
58938W        W18199  20.722  39.496   0.889
58939W        W18200   0.336  20.652  13.989
58940W        W18201  11.195  36.515   1.870
58941W        W18202  14.230  11.734   4.144
58942W        W18203  38.040  33.463   0.295
58943W        W18204  36.963  21.179  12.566
58944W        W18205   2.935   5.909   1.350
58945W        W18206   5.925  24.479   4.709
58946W        W18207  44.947  44.753   3.811
58947W        W18208  36.355  19.670   0.738
58948W        W18209  35.421  27.067  11.547
58949W        W18210  16.728   8.661  10.519
58950W        W18211  17.213  44.971  10.900
58951W        W18212  33.003  23.107  13.916
58952W        W18213   3.726  40.311  11.120
58953W        W18214  19.686   5.830   4.222
58954W        W18215   7.320  36.967   4.291
58955W        W18216   4.205  42.879   5.270
58956W        W18217  30.428   4.296  12.416
58957W        W18218  35.548  44.428  14.978
58958W        W18219  14.096  34.567   4.761
58959W        W18220  25.974  10.380   2.399
58960W        W18221  22.018  25.625  14.959
58961W        W18222  19.095  30.612  13.808
58962W        W18223  14.095  12.659   0.455
58963W        W18224  37.352   9.304   4.750
58964W        W18225   2.412  32.934   0.377
58965W        W18226   3.462  23.142  13.876
58966W        W18227  41.431  27.556   0.956
58967W        W18228  35.085  38.029  13.402
58968W        W18229  27.500  26.139   0.464
58969W        W18230  31.447  11.254   9.542
58970W        W18231   4.729  12.231   0.271
58971W        W18232  42.415  35.517   0.394
58972W        W18233  39.812   6.295   1.407
58973W        W18234  41.329  39.976  11.106
58974W        W18235   9.786  11.799   2.399
58975W        W18236   3.351  36.587  12.493
58976W        W18237  17.783  40.354  10.595
58977W        W18238  27.152  24.980   4.333
58978W        W18239  39.828  38.053  13.856
58979W        W18240  16.143   4.889  12.523
58980W        W18241  42.875  33.452  11.417
58981W        W18242  10.832  40.514  11.422
58982W        W18243   6.828  40.302  11.503
58983W        W18244   5.290   1.735   0.761
58984W        W18245  18.140  42.002   4.160
58985W        W18246  21.554  41.398   0.812
58986W        W18247   7.194   2.725  11.922
58987W        W18248  37.374   3.330  13.437
58988W        W18249  19.226  32.910  11.939
58989W        W18250  28.045  35.499  12.541
58990W        W18251  11.360  34.409  13.022
58991W        W18252  15.243  26.065   9.454
58992W        W18253   2.323   3.711  10.975
58993W        W18254  20.719  34.602  14.357
58994W        W18255   1.915  18.566   0.332
58995W        W18256  27.122   4.311  10.055
58996W        W18257  11.349  38.912   2.385
58997W        W18258  15.746  18.177  14.815
58998W        W18259   8.223  36.013  13.328
58999W        W18260  11.798  39.974  14.881
59000W        W18261  37.895  17.244  13.848
59001W        W18262  20.047  22.713  13.936
59002W        W18263  16.722  37.015  11.466
59003W        W18264  26.112  10.805   0.855
59004W        W18265  10.755  32.509   2.268
59005W        W18266  31.440  32.983   0.938
59006W        W18267  39.372  20.148  11.025
59007W        W18268  11.653  13.245  14.949
59008W        W18269   9.691   5.751   5.157
59009W        W18270  38.920  22.239   3.358
59010W        W18271  26.142  35.957   2.319
59011W        W18272  11.719  40.391   0.277
59012W        W18273   3.246  17.757   1.761
59013W        W18274   3.868  25.114  14.802
59014W        W18275   3.819  15.626  13.053
59015W        W18276  34.009  43.515  11.507
59016W        W18277  35.520  25.633  13.831
59017W        W18278   7.300  26.551   0.879
59018W        W18279   7.781  29.669   2.354
59019W        W18280  35.989   7.180  12.060
59020W        W18281  13.804   7.675   0.376
59021W        W18282  37.461  41.857   4.309
59022W        W18283   1.302   5.855  12.502
59023W        W18284  40.889  43.981  12.405
59024W        W18285  43.362  25.093   9.538
59025W        W18286  29.531  24.120  13.061
59026W        W18287  35.097  31.110   1.743
59027W        W18288  32.441   1.937   2.218
59028W        W18289  20.107  43.417   3.813
59029W        W18290  13.799  39.360  11.405
59030W        W18291  24.169   7.246  10.546
59031W        W18292  15.750  36.010  14.463
59032W        W18293  40.499  14.222  14.960
59033W        W18294   6.754  44.365  13.511
59034W        W18295  14.142  41.435   1.799
59035W        W18296  20.668  21.519  11.947
59036W        W18297  10.725   7.679  14.396
59037W        W18298  17.667  21.122  13.049
59038W        W18299  43.456  44.405  12.424
59039W        W18300   4.811  13.810  12.981
59040W        W18301  27.464  36.934  11.919
59041W        W18302  17.598  22.712   0.858
59042W        W18303  32.005   9.183  14.878
59043W        W18304  40.459  26.700   0.915
59044W        W18305  19.668  12.684   0.769
59045W        W18306  44.287  36.909  14.020
59046W        W18307  33.906  30.538   3.742
59047W        W18308   9.393  41.517   0.245
59048W        W18309  23.614  39.062  12.837
59049W        W18310  18.622  23.695  12.066
59050W        W18311   2.285  39.865  13.331
59051W        W18312  42.442  43.428   2.715
59052W        W18313  32.629  32.436   3.654
59053W        W18314  44.900  43.896   4.229
59054W        W18315  19.282  28.184   3.759
59055W        W18316   5.230   1.807  14.879
59056W        W18317   2.244  10.336  12.860
59057W        W18318  39.976  32.905   1.734
59058W        W18319   8.349  12.181   1.327
59059W        W18320  37.497  27.187  12.838
59060W        W18321  23.208  30.524  13.859
59061W        W18322  41.036  40.386   3.362
59062W        W18323  27.471  14.180   4.695
59063W        W18324   7.204   4.401  10.540
59064W        W18325  33.899  12.349   4.179
59065W        W18326   0.299  33.061   0.291
59066W        W18327   0.747  19.685   1.800
59067W        W18328  42.790  44.854   1.771
59068W        W18329  29.173  20.126   3.384
59069W        W18330   3.233  25.554   3.822
59070W        W18331  35.992  25.619  10.895
59071W        W18332  13.145  31.927  11.489
59072W        W18333   8.298  15.175  10.471
59073W        W18334  35.882  13.793  10.529
59074W        W18335   9.218   6.908   4.607
59075W        W18336  30.657  25.090  11.379
59076W        W18337  33.097  37.873   0.403
59077W        W18338   1.734  18.624   2.259
59078W        W18339   4.828  41.425   4.724
59079W        W18340   4.294  26.508  13.870
59080W        W18341  14.094  20.602   1.778
59081W        W18342  40.876  22.687  10.461
59082W        W18343  34.422   9.194   2.330
59083W        W18344  41.490  19.571   0.848
59084W        W18345  41.313   3.300   2.769
59085W        W18346   8.203  15.186  12.874
59086W        W18347   1.455  21.636   4.181
59087W        W18348  18.703  34.090   2.300
59088W        W18349  12.647  25.550  14.398
59089W        W18350   7.716  14.102   3.827
59090W        W18351   1.840  31.096  13.921
59091W        W18352  31.590   0.275   0.279
59092W        W18353  26.538  25.607   2.180
59093W        W18354  35.971  37.467  14.908
59094W        W18355  38.363  30.527  11.389
59095W        W18356  25.588  30.005  14.790
59096W        W18357   1.446   5.427  10.490
59097W        W18358   1.405   7.747   0.312
59098W        W18359   0.854  18.099  12.088
59099W        W18360  31.419  36.550   4.263
59100W        W18361  30.601  41.870  14.856
59101W        W18362  37.347  16.647   2.761
59102W        W18363  23.556  25.558  11.072
59103W        W18364  10.318  27.630   1.896
59104W        W18365   2.748   4.748   0.728
59105W        W18366  14.602   2.349   0.842
59106W        W18367  23.558  26.617   1.362
59107W        W18368   2.951  23.133  14.800
59108W        W18369  40.807  43.479  12.903
59109W        W18370  32.455  22.035   1.260
59110W        W18371  16.617  30.443  13.400
59111W        W18372   0.292  14.675  12.576
59112W        W18373  35.896  11.694  11.034
59113W        W18374   0.410  36.363  10.915
59114W        W18375  34.941  21.031   0.948
59115W        W18376   2.926   4.755  13.364
59116W        W18377  30.962  15.257  12.353
59117W        W18378   9.877   7.677  12.535
59118W        W18379  28.646  26.493  10.433
59119W        W18380  18.718  11.206   4.118
59120W        W18381  36.962   1.242  14.395
59121W        W18382  43.458  15.638  11.999
59122W        W18383  15.598   2.778   0.337
59123W        W18384   1.351   5.855  10.906
59124W        W18385  19.749  12.209   2.266
59125W        W18386   7.192  10.145  11.917
59126W        W18387  31.089  34.421  14.304
59127W        W18388   3.947  35.388   4.300
59128W        W18389  36.510  14.817   2.748
59129W        W18390  33.415  12.792  10.940
59130W        W18391  44.424   4.303   1.403
59131W        W18392  39.471  18.155   3.146
59132W        W18393   1.965  10.847   2.751
59133W        W18394  27.689   4.430  14.485
59134W        W18395  25.081  30.948   0.916
59135W        W18396   3.943  18.196  12.973
59136W        W18397   5.704  20.264   3.253
59137W        W18398  13.646  13.806   3.829
59138W        W18399   4.369  24.536  12.441
59139W        W18400  19.617  24.583   3.787
59140W        W18401  18.058  14.228   4.794
59141W        W18402  41.947   3.231  12.047
59142W        W18403  27.943  18.639   2.352
59143W        W18404  38.852   9.323   5.100
59144W        W18405  18.748  40.946   1.728
59145W        W18406  10.861  15.577   4.770
59146W        W18407  37.887  34.451   0.388
59147W        W18408  32.495  28.537  10.957
59148W        W18409   4.434   8.748   3.307
59149W        W18410  43.865  16.272   2.251
59150W        W18411  11.818  31.125   2.411
59151W        W18412  33.477   1.883   2.241
59152W        W18413  24.592  42.435  14.429
59153W        W18414  20.224  33.416  11.044
59154W        W18415  30.594   4.842  11.871
59155W        W18416  13.264  44.290  11.918
59156W        W18417   0.467  11.197   4.288
59157W        W18418  17.640   4.834   2.368
59158W        W18419  32.602  16.631   2.836
59159W        W18420   4.799  21.213   4.830
59160W        W18421   9.244  42.827   3.334
59161W        W18422  13.745  31.505   3.237
59162W        W18423  19.747  12.127  11.407
59163W        W18424  14.157   2.920   2.850
59164W        W18425  13.141  41.795   3.149
59165W        W18426  17.662  29.132   4.197
59166W        W18427  17.598  13.708   0.936
59167W        W18428   6.341  12.272  11.010
59168W        W18429  13.709   4.206   4.227
59169W        W18430  12.690  10.837   2.257
59170W        W18431  24.581   0.867  11.902
59171W        W18432   8.215  11.838   4.172
59172W        W18433  44.355  39.848  14.882
59173W        W18434  13.343  19.669   2.898
59174W        W18435   2.294  29.102   4.622
59175W        W18436  23.693  28.024   2.677
59176W        W18437  42.018  20.741   2.679
59177W        W18438   1.829  29.021   1.235
59178W        W18439  29.549  30.005   0.435
59179W        W18440  13.295  25.971   1.894
59180W        W18441  17.082  12.619   0.441
59181W        W18442   5.772  31.982  11.408
59182W        W18443   5.240  20.198   2.262
59183W        W18444  41.385  41.923   2.672
59184W        W18445   1.738  21.744  12.930
59185W        W18446  42.927  14.147   9.926
59186W        W18447  31.901  41.039   0.382
59187W        W18448   2.320  37.347   1.225
59188W        W18449  35.894  21.531  11.592
59189W        W18450  33.433  21.035   5.201
59190W        W18451  24.990  13.303  11.976
59191W        W18452  35.072  19.693   3.241
59192W        W18453  10.681  24.140  10.945
59193W        W18454  31.432  33.597   2.200
59194W        W18455  20.163  13.151  10.432
59195W        W18456  21.620  31.608  12.411
59196W        W18457  30.609   8.793  12.549
59197W        W18458  35.080   5.694   2.400
59198W        W18459   5.775  33.428   4.687
59199W        W18460  35.055   8.282   2.715
59200W        W18461  10.184   4.303  11.087
59201W        W18462  11.154   7.782   1.290
59202W        W18463   0.310  22.164   3.867
59203W        W18464  12.305  27.592   1.383
59204W        W18465   7.318  38.876   3.705
59205W        W18466   3.411  13.702   4.128
59206W        W18467  31.149  40.882  10.531
59207W        W18468  10.685  42.447  13.316
59208W        W18469  21.755  16.612   4.138
59209W        W18470   9.758  37.885   4.114
59210W        W18471  39.900  20.130  11.416
59211W        W18472  20.052  16.586   4.129
59212W        W18473  15.603  27.689   2.774
59213W        W18474  33.130  44.362   1.401
59214W        W18475  30.098  34.974   2.855
59215W        W18476  12.216  40.393  11.086
59216W        W18477   4.874   0.449   0.730
59217W        W18478   1.293  43.994   3.300
59218W        W18479   1.366  35.855   1.267
59219W        W18480  24.168  10.163   1.374
59220W        W18481  21.228  44.919   3.665
59221W        W18482  40.386  40.420  13.355
59222W        W18483   6.819   2.370   4.153
59223W        W18484   1.902  25.137  14.865
59224W        W18485   5.193  43.484  12.043
59225W        W18486  35.381  13.169  12.079
59226W        W18487  29.565  33.381   0.462
59227W        W18488  19.240  43.902  12.958
59228W        W18489  13.267   7.780  12.898
59229W        W18490  20.589  24.613  14.512
59230W        W18491  22.558  20.725   0.461
59231W        W18492  25.551  20.198  12.041
59232W        W18493  40.506  20.242   0.844
59233W        W18494  12.137  21.018   4.257
59234W        W18495  25.965  30.581   2.247
59235W        W18496   4.715  35.096   9.933
59236W        W18497  29.038  28.598  13.932
59237W        W18498  13.814   0.341   4.789
59238W        W18499  30.525  41.294  14.871
59239W        W18500  25.029   0.359  13.901
59240W        W18501  34.413   7.810   0.353
59241W        W18502  40.990  34.457   4.711
59242W        W18503  24.704  10.148  14.434
59243W        W18504  14.318  22.704  12.943
59244W        W18505  10.791  44.273   0.345
59245W        W18506  11.162  18.729   3.233
59246W        W18507  36.974  27.011  12.969
59247W        W18508  19.611   6.395   5.256
59248W        W18509  29.089   6.271  13.985
59249W        W18510  41.813   0.942   3.782
59250W        W18511   9.757  30.954   4.241
59251W        W18512  38.371  10.214  12.465
59252W        W18513  32.466  31.594  14.964
59253W        W18514  30.085   3.418  14.922
59254W        W18515  15.597   3.270   0.423
59255W        W18516   0.487  12.668  11.928
59256W        W18517  30.002  40.821  13.033
59257W        W18518  10.185   4.238   3.166
59258W        W18519  37.853  29.074   0.416
59259W        W18520  36.863  23.229   4.295
59260W        W18521   9.205  28.050  12.969
59261W        W18522  37.866  37.967  10.465
59262W        W18523  34.975   6.801  14.414
59263W        W18524  21.261  35.556  12.538
59264W        W18525  28.022   2.430  10.027
59265W        W18526  31.610  19.103  10.967
59266W        W18527  38.467   6.691  10.414
59267W        W18528  12.192  31.005  11.491
59268W        W18529  26.116  33.506  13.489
59269W        W18530  10.247  36.564  12.054
59270W        W18531   3.813  14.282  12.495
59271W        W18532  10.190  29.038  10.488
59272W        W18533  27.016   0.494   2.789
59273W        W18534  20.725   7.386  11.516
59274W        W18535   7.674   3.345   1.318
59275W        W18536  14.284  24.683  11.071
59276W        W18537   3.295  32.407  12.961
59277W        W18538  35.935  24.715   2.404
59278W        W18539  42.521   4.289  12.928
59279W        W18540  26.501  38.563   4.810
59280W        W18541  41.456  35.447  12.929
59281W        W18542  40.856  32.127  13.509
59282W        W18543   4.265  43.985  13.492
59283W        W18544  42.471   6.893   3.360
59284W        W18545  37.880   5.420  12.993
59285W        W18546  42.989  44.279  12.923
59286W        W18547  14.646   2.254  14.986
59287W        W18548  33.940  29.117   4.223
59288W        W18549  30.507  30.163  14.946
59289W        W18550  12.268  44.999   4.243
59290W        W18551  32.628   2.730   1.321
59291W        W18552  11.745  41.404   0.807
59292W        W18553  42.815   1.861   2.317
59293W        W18554   8.764  36.858  13.526
59294W        W18555   7.744  25.026   5.091
59295W        W18556  40.359  44.794  10.446
59296W        W18557  11.750  22.666  13.316
59297W        W18558   2.454  39.918  12.371
59298W        W18559  43.817  14.649   3.279
59299W        W18560  11.156  25.688   0.341
59300W        W18561  33.122  20.644  12.403
59301W        W18562  34.448  30.494   3.364
59302W        W18563   6.791  38.039   1.373
59303W        W18564  32.579  14.138  10.585
59304W        W18565   0.449  37.030   2.830
59305W        W18566   3.323  40.014  11.035
59306W        W18567   7.827  32.608  10.613
59307W        W18568  26.483  40.547  12.528
59308W        W18569  10.206  30.043   3.383
59309W        W18570  39.393  40.842   0.856
59310W        W18571   6.277  27.553   2.770
59311W        W18572  32.896   9.683  10.428
59312W        W18573   0.270  12.636  11.388
59313W        W18574   4.779  32.094  12.036
59314W        W18575  17.086   2.815   4.818
59315W        W18576  12.193  25.621  14.502
59316W        W18577  26.597  29.064   5.173
59317W        W18578  39.810   2.896  12.530
59318W        W18579  44.325  35.534   0.907
59319W        W18580  15.791  21.717  11.417
59320W        W18581  19.174  26.047   1.253
59321W        W18582  39.977   0.400   2.329
59322W        W18583  35.081  30.563  10.506
59323W        W18584   9.376  34.012  13.547
59324W        W18585  30.510  24.498  13.891
59325W        W18586   4.323  44.419   4.234
59326W        W18587  38.977  24.588   4.331
59327W        W18588   4.926   3.807   2.224
59328W        W18589  10.278  31.960   3.166
59329W        W18590  43.926   1.885  12.535
59330W        W18591   8.770   0.942   4.737
59331W        W18592  42.942   6.804  14.887
59332W        W18593  19.218  41.997  11.946
59333W        W18594  31.131  11.370   0.842
59334W        W18595  38.993  27.464   1.265
59335W        W18596  10.851   9.756   0.428
59336W        W18597  27.470   9.820  10.997
59337W        W18598  16.768   5.708   3.200
59338W        W18599  44.334   3.283   5.185
59339W        W18600  42.526   5.205  12.901
59340W        W18601  31.119  24.657  10.439
59341W        W18602   4.441  34.584   3.356
59342W        W18603   2.721  24.699   4.613
59343W        W18604   3.320  36.016   4.329
59344W        W18605  15.686   1.883  13.031
59345W        W18606  36.004   8.687  14.898
59346W        W18607  44.337  35.880  13.516
59347W        W18608  15.194  43.837  10.560
59348W        W18609  41.009  18.280  12.468
59349W        W18610  32.027  17.715   3.848
59350W        W18611   6.874   1.917  14.918
59351W        W18612  11.819  23.208  11.124
59352W        W18613  16.312  38.556   1.791
59353W        W18614   1.345  27.679  10.490
59354W        W18615  15.688  16.633  12.847
59355W        W18616  12.285   3.272   3.329
59356W        W18617  31.095   7.192  14.467
59357W        W18618  38.348   6.844  12.082
59358W        W18619  24.707   9.243   1.774
59359W        W18620  13.351  24.613  14.856
59360W        W18621  36.953   0.276  13.046
59361W        W18622  38.913  35.400   3.759
59362W        W18623  40.976  18.720  12.059
59363W        W18624  17.289  30.053  14.775
59364W        W18625   4.753   3.879   4.118
59365W        W18626  24.613  38.345  13.867
59366W        W18627  23.107   8.662  13.462
59367W        W18628  31.067  26.010  12.936
59368W        W18629  11.185   3.722  11.984
59369W        W18630  27.449  13.349  11.088
59370W        W18631  38.492  39.413   2.322
59371W        W18632  42.801  32.025  10.937
59372W        W18633  24.627  23.083   4.148
59373W        W18634  33.002  20.665   3.180
59374W        W18635   3.306  26.050  12.045
59375W        W18636   1.781  19.051  11.376
59376W        W18637  10.769  39.012   2.209
59377W        W18638  34.441  14.223   4.793
59378W        W18639  36.875   6.747   0.448
59379W        W18640  15.706  11.352   3.305
59380W        W18641  44.859   1.793   4.342
59381W        W18642  25.565  22.674   3.184
59382W        W18643  35.421  29.635  13.469
59383W        W18644  26.194  43.274  14.957
59384W        W18645  11.256  19.711   3.299
59385W        W18646  18.091   8.372   2.685
59386W        W18647   1.474  15.717   3.260
59387W        W18648  10.809  39.546   4.125
59388W        W18649  42.929  42.464   0.376
59389W        W18650  18.238  25.590  13.038
59390W        W18651  37.548  25.634  14.393
59391W        W18652  43.867  19.685  12.570
59392W        W18653  42.514  39.938   1.363
59393W        W18654  29.613  18.094   0.873
59394W        W18655  23.017  42.443   3.768
59395W        W18656  19.171  28.669  11.604
59396W        W18657   7.800  26.636   2.368
59397W        W18658  33.968  16.102   3.709
59398W        W18659  35.953   6.408   2.865
59399W        W18660  21.530  41.524   2.725
59400W        W18661   6.409  42.873  11.486
59401W        W18662  10.850  14.270  13.497
59402W        W18663  10.776  22.659   0.853
59403W        W18664  14.214  40.518   1.841
59404W        W18665  30.647  27.952   0.853
59405W        W18666  14.654  38.945   4.127
59406W        W18667   9.242  13.187  13.978
59407W        W18668  28.946  15.147  13.401
59408W        W18669  39.996  12.616  14.944
59409W        W18670   2.242   9.867   0.796
59410W        W18671  22.640  21.125   2.352
59411W        W18672  32.909   5.777   2.309
59412W        W18673  33.472  39.902  10.020
59413W        W18674   4.385  20.543  14.465
59414W        W18675  43.298  27.542  10.614
59415W        W18676   5.860  27.105   0.733
59416W        W18677  18.288  42.810   0.947
59417W        W18678  27.047  26.149  11.446
59418W        W18679   6.404  23.121  12.419
59419W        W18680  33.558   7.908  11.912
59420W        W18681  30.454  34.478  12.901
59421W        W18682  44.468   8.666   5.087
59422W        W18683  28.135   9.261  14.338
59423W        W18684  30.952  22.134  10.900
59424W        W18685   7.249  25.035  14.429
59425W        W18686  30.924   1.351   1.849
59426W        W18687  14.147   8.785   4.645
59427W        W18688   4.754  16.220  14.779
59428W        W18689  19.163  20.735  14.901
59429W        W18690  17.284  38.356  14.379
59430W        W18691  16.141  31.899   1.243
59431W        W18692  23.491   1.335   5.201
59432W        W18693  13.681  27.671   9.488
59433W        W18694  21.609  29.015  11.892
59434W        W18695  23.225  27.015  10.987
59435W        W18696   7.378   4.282  10.071
59436W        W18697  10.332   9.241  13.940
59437W        W18698  22.724   8.259   1.859
59438W        W18699  30.005   1.393   3.339
59439W        W18700  24.619  19.188   4.633
59440W        W18701  16.700   8.323  13.042
59441W        W18702  42.455  19.115   1.699
59442W        W18703   9.247   7.256  11.542
59443W        W18704  31.638  14.682   0.859
59444W        W18705  29.457  40.865   0.270
59445W        W18706   1.972  34.384   3.682
59446W        W18707  40.970  41.456  11.998
59447W        W18708   9.315  22.651   9.957
59448W        W18709  42.515   5.792  11.479
59449W        W18710  32.574  19.707  12.003
59450W        W18711  39.329   9.678  10.491
59451W        W18712  14.298  12.154  10.571
59452W        W18713  14.623   9.872   4.287
59453W        W18714  32.499  39.963  11.005
59454W        W18715  44.862  41.040   2.688
59455W        W18716  19.225   9.175   0.866
59456W        W18717  28.530   0.461  14.300
59457W        W18718  15.274  32.017  14.360
59458W        W18719  23.047   2.934   1.789
59459W        W18720   4.804  12.657  12.868
59460W        W18721   6.722  29.659  14.798
59461W        W18722  31.518  27.075  14.004
59462W        W18723  41.389  36.373   5.726
59463W        W18724  12.243   1.820  11.096
59464W        W18725  22.139  12.663  13.485
59465W        W18726  37.044  41.894  14.317
59466W        W18727  12.269  10.651  13.006
59467W        W18728  34.047  34.368   2.353
59468W        W18729  11.640   6.830  11.578
59469W        W18730  13.305  21.074   4.263
59470W        W18731  26.974   5.768   0.358
59471W        W18732  43.495  43.323  11.029
59472W        W18733  18.271   7.899   0.732
59473W        W18734  22.999  24.027  14.292
59474W        W18735  10.328  11.673  12.980
59475W        W18736  10.229  26.666   2.799
59476W        W18737  10.236   4.816   3.299
59477W        W18738  16.253  11.639   4.192
59478W        W18739  12.125  17.581  11.594
59479W        W18740   0.338   7.748  14.505
59480W        W18741  32.408   9.846  12.074
59481W        W18742  32.011   6.379  11.982
59482W        W18743   2.353  23.576   4.827
59483W        W18744   5.707  13.141  11.495
59484W        W18745  25.555   3.811   0.440
59485W        W18746  17.139  41.415  13.060
59486W        W18747  14.772  17.153   3.765
59487W        W18748  41.359  37.920   4.354
59488W        W18749   8.898  41.787  12.938
59489W        W18750  19.102  35.526  14.913
59490W        W18751  14.185  18.278   4.157
59491W        W18752   2.791  39.972  10.997
59492W        W18753  21.739  39.529   0.484
59493W        W18754  17.163  11.631  12.445
59494W        W18755   4.412  15.158   0.860
59495W        W18756   5.922   4.779   2.337
59496W        W18757  29.597  43.903  12.005
59497W        W18758  15.669   1.948  14.514
59498W        W18759  28.574  21.597  14.319
59499W        W18760  22.523  16.635   1.866
59500W        W18761  25.570  10.268  11.446
59501W        W18762  12.638  13.704  10.919
59502W        W18763  22.569  31.996  12.034
59503W        W18764  37.977   2.889  11.496
59504W        W18765  28.670  28.675  11.937
59505W        W18766   2.373  41.377  10.066
59506W        W18767  25.095  32.595  11.861
59507W        W18768  15.191  22.112  11.084
59508W        W18769  15.819  32.132   4.698
59509W        W18770  36.924  20.106   4.635
59510W        W18771  16.686  11.139  14.840
59511W        W18772   2.790  35.969   1.876
59512W        W18773  39.415  43.937  10.558
59513W        W18774  17.094  30.416  14.435
59514W        W18775  42.998  16.220   9.581
59515W        W18776  38.931  25.204   3.643
59516W        W18777  19.076  15.706   0.772
59517W        W18778  37.467   5.861  13.440
59518W        W18779  38.361  19.072  14.032
59519W        W18780   1.957  36.370   2.850
59520W        W18781  22.027  44.857   4.749
59521W        W18782  25.702  41.929   0.962
59522W        W18783  40.046  31.580  14.432
59523W        W18784  15.806  32.133  11.860
59524W        W18785  30.522  40.853   4.787
59525W        W18786   1.890  21.080   5.158
59526W        W18787   2.782   2.834   2.374
59527W        W18788  38.345  19.564   4.207
59528W        W18789  28.634  41.346  10.416
59529W        W18790  33.955  43.489  12.363
59530W        W18791  36.552  27.082   0.941
59531W        W18792  32.587  26.002   0.852
59532W        W18793  26.131  18.676  14.784
59533W        W18794  18.202  34.970  11.595
59534W        W18795  14.255  38.389  12.483
59535W        W18796  31.897   0.935  11.403
59536W        W18797   6.869  23.566   0.767
59537W        W18798  23.535  21.713  13.830
59538W        W18799  13.281  22.225   4.339
59539W        W18800   3.924  22.167  14.340
59540W        W18801  36.935  35.604  12.954
59541W        W18802   7.726   8.188  10.509
59542W        W18803  42.983   4.444   3.825
59543W        W18804  14.624   2.810   3.193
59544W        W18805  24.010  34.978   2.902
59545W        W18806   3.327   1.739   4.758
59546W        W18807   1.435  19.056   3.790
59547W        W18808  14.212  26.165  13.981
59548W        W18809  34.583  15.601   3.171
59549W        W18810   9.325  33.044  11.553
59550W        W18811  17.784  11.351   3.799
59551W        W18812  11.838  18.667   4.648
59552W        W18813  44.299  20.755  11.925
59553W        W18814   0.779  28.036   4.819
59554W        W18815   3.314  42.496  11.474
59555W        W18816  27.984  26.098   2.209
59556W        W18817   1.344  22.207  11.116
59557W        W18818  43.870  42.319   2.731
59558W        W18819  39.539  19.551  11.021
59559W        W18820   6.841  10.779  13.962
59560W        W18821  36.912  42.419   3.311
59561W        W18822  19.217  42.869  12.419
59562W        W18823   2.890  26.621   3.178
59563W        W18824  15.184  12.134  12.943
59564W        W18825   5.739  20.157   0.966
59565W        W18826  43.485  35.467  12.012
59566W        W18827  34.523  11.178  11.037
59567W        W18828  26.689   5.845  14.007
59568W        W18829  19.669  17.709  13.334
59569W        W18830  38.380  39.912  12.858
59570W        W18831  32.895  23.660  11.948
59571W        W18832  33.403  20.153   3.148
59572W        W18833  28.592   2.379   0.480
59573W        W18834  34.377  26.202   1.329
59574W        W18835  39.378  22.006   1.928
59575W        W18836   6.415   7.271  13.311
59576W        W18837  15.267  29.964   3.168
59577W        W18838  13.123  14.826   1.798
59578W        W18839  26.177  41.001  12.876
59579W        W18840  24.571  29.030  11.564
59580W        W18841  14.178   4.401  10.993
59581W        W18842   1.950   1.249  10.979
59582W        W18843   4.308   6.196  14.794
59583W        W18844  18.070  37.924  11.571
59584W        W18845   3.921  39.559   0.812
59585W        W18846  43.849  16.273  11.424
59586W        W18847  21.531  42.971  14.962
59587W        W18848  28.630  39.943   1.870
59588W        W18849  15.253   9.273  13.906
59589W        W18850  38.437  29.512  14.408
59590W        W18851  31.118  30.024   0.453
59591W        W18852  40.362  42.438   0.385
59592W        W18853  38.389  24.110  14.814
59593W        W18854   2.340  35.935   4.816
59594W        W18855  17.292   2.392   3.287
59595W        W18856  43.442   4.939   2.275
59596W        W18857  10.857  20.691   2.325
59597W        W18858  32.983  17.075   1.266
59598W        W18859  33.427  36.975  10.429
59599W        W18860  11.778  33.948   0.864
59600W        W18861  29.535   2.268  14.989
59601W        W18862   4.778  32.617  11.573
59602W        W18863   4.768  32.570   3.746
59603W        W18864  32.517  12.178  14.290
59604W        W18865  19.182  39.423   1.440
59605W        W18866   2.435  15.607  14.986
59606W        W18867  27.044  37.492  11.959
59607W        W18868  37.366  40.852  13.952
59608W        W18869  14.605  42.952   2.352
59609W        W18870  18.224  19.642   0.253
59610W        W18871   3.336  15.241   0.872
59611W        W18872   6.428   1.294  11.590
59612W        W18873  36.510  41.945   4.750
59613W        W18874  18.779   1.312  11.441
59614W        W18875  16.073  14.238  11.605
59615W        W18876  38.449   9.340   2.374
59616W        W18877  17.088  19.752  11.601
59617W        W18878  19.703  11.661  12.570
59618W        W18879  29.062   8.883   2.712
59619W        W18880  44.817  27.183   2.765
59620W        W18881   6.713  40.333  11.934
59621W        W18882   9.760   0.757   1.749
59622W        W18883  40.971  28.168   4.639
59623W        W18884  25.008  18.719  12.340
59624W        W18885  41.969  26.599   0.314
59625W        W18886  18.188   9.656  11.875
59626W        W18887   4.737  40.035  11.465
59627W        W18888  28.140  39.847   2.852
59628W        W18889  43.315  29.169   0.889
59629W        W18890  30.114  15.323  12.572
59630W        W18891  19.633  44.897   0.869
59631W        W18892  13.647   0.493  10.967
59632W        W18893   7.751  12.193  13.532
59633W        W18894  44.472  29.627   1.824
59634W        W18895  37.394  21.722  14.381
59635W        W18896  21.111  25.018  10.066
59636W        W18897   8.220  18.147  12.861
59637W        W18898   3.769  40.488   0.753
59638W        W18899  17.607  26.033  13.861
59639W        W18900   0.894  10.816  13.526
59640W        W18901  40.343  43.481  13.008
59641W        W18902  28.980  35.543  11.534
59642W        W18903  37.339   8.897  13.829
59643W        W18904  36.565  21.539   1.829
59644W        W18905   0.844   8.671  10.621
59645W        W18906   6.787  29.939   3.339
59646W        W18907  15.608  44.261  10.502
59647W        W18908   3.798  16.304   3.686
59648W        W18909  43.349   5.196   4.337
59649W        W18910  35.909   6.208   4.306
59650W        W18911   3.413  15.611   0.465
59651W        W18912  10.808  42.941  10.580
59652W        W18913   7.710  37.904  13.899
59653W        W18914  27.013  21.688  14.773
59654W        W18915  24.531  20.574   3.278
59655W        W18916  11.766  12.163  14.782
59656W        W18917   9.231  30.478   2.709
59657W        W18918  15.707  20.165   0.270
59658W        W18919  43.309  36.484  13.349
59659W        W18920   5.433  15.260  13.054
59660W        W18921  14.790  31.513   2.353
59661W        W18922  33.020  28.961   4.338
59662W        W18923  12.186  23.707   3.736
59663W        W18924  36.485  44.876  12.358
59664W        W18925  32.572   2.726   2.188
59665W        W18926  15.245  23.130  11.464
59666W        W18927  22.502  31.141   4.155
59667W        W18928  36.513  34.438   1.440
59668W        W18929  35.554   1.786  10.422
59669W        W18930  34.978   3.768   0.749
59670W        W18931   2.882  15.595  10.428
59671W        W18932  21.686  39.393  14.834
59672W        W18933  14.602   4.833  14.348
59673W        W18934   5.933  41.470  12.567
59674W        W18935  27.554  10.272   4.220
59675W        W18936  18.187  17.743   3.294
59676W        W18937  37.485   4.309  12.522
59677W        W18938  39.009  27.137   3.278
59678W        W18939   9.710  18.636   0.898
59679W        W18940  15.292  40.412  10.416
59680W        W18941   7.670  40.895  12.023
59681W        W18942  41.016  21.620   0.750
59682W        W18943  24.547  40.952  13.356
59683W        W18944   7.715  41.794  13.850
59684W        W18945  43.917  28.662  11.512
59685W        W18946  14.679  43.012  11.105
59686W        W18947  37.033   7.317  11.436
59687W        W18948  26.122  44.909  14.950
59688W        W18949  31.121  35.447  11.995
59689W        W18950  31.945   3.819  10.444
59690W        W18951   4.351  42.786  13.957
59691W        W18952  42.457  43.814  12.072
59692W        W18953  26.619   3.458   4.646
59693W        W18954  24.724   2.245  11.400
59694W        W18955  38.987   4.230  11.988
59695W        W18956  17.599  19.109  13.829
59696W        W18957  12.291  33.047  11.580
59697W        W18958  36.010  24.173  14.768
59698W        W18959  21.669  16.203   1.917
59699W        W18960   2.439  28.451   2.712
59700W        W18961  39.020  20.148   3.268
59701W        W18962   6.341  30.529  10.028
59702W        W18963   1.252   5.239   2.342
59703W        W18964  26.646  17.632  14.491
59704W        W18965   1.309   4.775  12.385
59705W        W18966  22.673  27.469  10.022
59706W        W18967  30.952   9.348  11.100
59707W        W18968  26.044  29.665   9.993
59708W        W18969   7.304  27.958  12.508
59709W        W18970  31.027  28.679   1.766
59710W        W18971  29.614  18.175   2.663
59711W        W18972  33.005  15.324  10.888
59712W        W18973   8.692   1.472   3.717
59713W        W18974  36.465  29.067  13.542
59714W        W18975  10.815  24.647   0.891
59715W        W18976  31.006  22.511  14.873
59716W        W18977   5.250  15.213   2.234
59717W        W18978  29.138  12.196  12.005
59718W        W18979  17.598  21.570  10.464
59719W        W18980   5.339  19.653   4.203
59720W        W18981  22.134  10.169   4.144
59721W        W18982  38.438  28.604   1.818
59722W        W18983  35.856  38.491  11.385
59723W        W18984  29.023   9.229  13.530
59724W        W18985  20.671   4.890   0.444
59725W        W18986   6.909  32.499   4.125
59726W        W18987   0.954   4.708   0.383
59727W        W18988   6.317  34.972   3.796
59728W        W18989  30.085  10.849  11.373
59729W        W18990  19.056  17.280  12.910
59730W        W18991  20.165  10.702   0.883
59731W        W18992  41.894  23.621   0.883
59732W        W18993  29.501  28.470  10.601
59733W        W18994  14.801  44.823  11.482
59734W        W18995  41.909  28.987   3.204
59735W        W18996  28.018  33.889   3.219
59736W        W18997   3.276  37.573   0.299
59737W        W18998  38.826  41.032   4.616
59738W        W18999  20.618  37.523   3.382
59739W        W19000   2.272  29.573   1.925
59740W        W19001   9.651  39.401  11.962
59741W        W19002  27.465  34.494   4.651
59742W        W19003   0.821  27.692  13.317
59743W        W19004   7.401  43.289  12.891
59744W        W19005  17.276   6.920  13.437
59745W        W19006   8.304  10.266  13.038
59746W        W19007   2.802  42.840  10.641
59747W        W19008  23.081  20.272  10.423
59748W        W19009  14.141  38.457   3.738
59749W        W19010  12.712  41.839  12.903
59750W        W19011  10.767  29.656  14.285
59751W        W19012  44.859  37.568   2.830
59752W        W19013  41.403   8.720   2.322
59753W        W19014  21.748  35.414  13.367
59754W        W19015  10.734  32.116  12.572
59755W        W19016  43.812  26.632  13.023
59756W        W19017  26.681   1.863  12.064
59757W        W19018  34.414  21.195  14.893
59758W        W19019  31.009   6.741   1.812
59759W        W19020   8.695  10.338  13.429
59760W        W19021  11.831   7.798  11.938
59761W        W19022  32.029  17.104  14.807
59762W        W19023  37.410   5.230  13.331
59763W        W19024  29.575  23.232   1.843
59764W        W19025  32.609  34.513   1.213
59765W        W19026  14.655  23.517  13.348
59766W        W19027   2.326  21.218  13.496
59767W        W19028   5.400  21.719   3.822
59768W        W19029  10.828   7.205   0.811
59769W        W19030  23.550  21.243   0.858
59770W        W19031  32.985  11.861   3.760
59771W        W19032  27.945  19.622   2.801
59772W        W19033  21.642  38.522  13.394
59773W        W19034   4.831  31.113  14.384
59774W        W19035  41.418   5.709   3.675
59775W        W19036  28.991  36.970  14.012
59776W        W19037   7.259  36.565  11.392
59777W        W19038   1.869  33.886   4.717
59778W        W19039  29.606  38.562   1.862
59779W        W19040  22.137  41.019   0.739
59780W        W19041  30.043  30.940  10.460
59781W        W19042  15.140  26.689   3.328
59782W        W19043   5.837  12.792  13.947
59783W        W19044  32.130  35.590   2.729
59784W        W19045  36.888  22.553   1.353
59785W        W19046  31.548  30.575   4.250
59786W        W19047  15.138   3.313  14.830
59787W        W19048   5.243   0.449  14.998
59788W        W19049  12.746  24.975  14.507
59789W        W19050  41.321   1.885   3.751
59790W        W19051  32.512   4.300  11.465
59791W        W19052  34.500  32.956  10.570
59792W        W19053   5.849   7.863  14.275
59793W        W19054  27.573  12.214  12.829
59794W        W19055  32.968  16.316   1.748
59795W        W19056  19.134   8.773   1.743
59796W        W19057  14.098  34.911   4.660
59797W        W19058  41.824  11.268  14.008
59798W        W19059  12.756  15.116  14.438
59799W        W19060  11.705  29.969   3.314
59800W        W19061  10.853   7.298  10.058
59801W        W19062  19.573  24.975  13.314
59802W        W19063  16.606  14.252   2.735
59803W        W19064  30.451  15.746  11.998
59804W        W19065  15.711  34.048  10.456
59805W        W19066  20.734   2.951   2.829
59806W        W19067   2.354  15.168  11.936
59807W        W19068  29.609  20.675   0.386
59808W        W19069  19.055  44.761  14.514
59809W        W19070  38.336  24.174   0.407
59810W        W19071  26.087  28.525  12.029
59811W        W19072  23.232  24.527  12.024
59812W        W19073  41.353  23.612   9.958
59813W        W19074  24.607  43.772   4.803
59814W        W19075  22.067  31.565  14.903
59815W        W19076  43.771  32.947  12.053
59816W        W19077   6.816  15.656  14.884
59817W        W19078  18.680   1.384  13.005
59818W        W19079   9.395  31.921  10.909
59819W        W19080  32.081  37.536  12.351
59820W        W19081  42.343  38.517  10.121
59821W        W19082  15.582  10.676   1.418
59822W        W19083  36.047  10.188  10.959
59823W        W19084  16.781  40.488  10.540
59824W        W19085  43.941   0.955  14.981
59825W        W19086  41.887  33.613  13.007
59826W        W19087  23.054  31.935  14.894
59827W        W19088  24.659  19.271   0.788
59828W        W19089  44.438  40.025  13.021
59829W        W19090  35.002  38.450  14.921
59830W        W19091   3.884  23.050   4.598
59831W        W19092  25.572  12.802  13.804
59832W        W19093  10.830  11.184  13.957
59833W        W19094   4.449  25.972   2.227
59834W        W19095  37.917  42.481   0.951
59835W        W19096  32.060  31.063  13.819
59836W        W19097  13.807  22.075   2.403
59837W        W19098  42.391  30.970   2.797
59838W        W19099   0.864  16.257  11.891
59839W        W19100   8.241  27.105  13.995
59840W        W19101  39.065   4.343   1.808
59841W        W19102   0.960  29.099  13.851
59842W        W19103  39.946  24.719  12.007
59843W        W19104   1.447  34.599   2.256
59844W        W19105  43.419  20.198  13.055
59845W        W19106  44.006  35.361  11.498
59846W        W19107  21.201  19.612  14.293
59847W        W19108  14.639  35.050  11.055
59848W        W19109  44.823  41.812  11.895
59849W        W19110  26.958  36.898   0.881
59850W        W19111   2.424   1.278  12.956
59851W        W19112  28.078  23.687  10.110
59852W        W19113  10.768  27.663   0.439
59853W        W19114  30.426  43.274   3.681
59854W        W19115  38.377  23.015   1.905
59855W        W19116  15.589  14.248   1.296
59856W        W19117  25.691  11.223   0.337
59857W        W19118  11.365  44.785   2.190
59858W        W19119  27.447  23.521  12.862
59859W        W19120   1.859  15.731  13.492
59860W        W19121  32.062  35.854   4.225
59861W        W19122  32.005  35.496   4.833
59862W        W19123  28.124  25.541   4.748
59863W        W19124  11.826  43.303   2.402
59864W        W19125  34.604   2.318  12.934
59865W        W19126  23.033  19.742  10.627
59866W        W19127  30.942  23.984  11.492
59867W        W19128   4.910  31.619  10.021
59868W        W19129  30.415  27.053   4.772
59869W        W19130   9.238  16.256   3.335
59870W        W19131  16.116  43.296  11.985
59871W        W19132  34.941  22.668  11.922
59872W        W19133   4.275  39.820   0.734
59873W        W19134  42.329   7.724  10.566
59874W        W19135  42.819   3.389  13.058
59875W        W19136  28.145  19.168  12.974
59876W        W19137  43.411  18.590  12.515
59877W        W19138  32.514  16.126  11.090
59878W        W19139  41.808  19.763  13.414
59879W        W19140  26.460   7.902   0.757
59880W        W19141   2.290  17.662  10.549
59881W        W19142   8.680  39.017  11.119
59882W        W19143  21.110  34.578   1.774
59883W        W19144  13.767  30.003   2.280
59884W        W19145  13.255  10.804  13.484
59885W        W19146  25.577   4.830  11.476
59886W        W19147  43.416  30.477  14.821
59887W        W19148  10.706  20.195   2.836
59888W        W19149   8.344  33.016   4.229
59889W        W19150  35.033  32.440   2.282
59890W        W19151  12.856  33.894   3.209
59891W        W19152   7.732   0.398  12.434
59892W        W19153  42.450  15.672  14.309
59893W        W19154  21.067  17.264  14.395
59894W        W19155  34.394   6.232   1.431
59895W        W19156  16.608  41.538   0.437
59896W        W19157   2.779  18.205  12.059
59897W        W19158   2.349  18.786   0.752
59898W        W19159  23.156  18.557   1.927
59899W        W19160  32.931  39.349   2.748
59900W        W19161   4.862  39.502  12.373
59901W        W19162   6.231   6.388  14.333
59902W        W19163  44.904   8.716   1.414
59903W        W19164  20.627  34.986   3.215
59904W        W19165   5.205  39.939   0.328
59905W        W19166  10.809  28.085  10.976
59906W        W19167  11.205  43.776  12.541
59907W        W19168  22.520  14.637  10.636
59908W        W19169   4.706  11.835   4.690
59909W        W19170  44.979  26.663   3.786
59910W        W19171  27.146  28.634  12.889
59911W        W19172  14.171  22.156  10.925
59912W        W19173   0.424  35.416  10.595
59913W        W19174   9.348  15.669  11.104
59914W        W19175  21.134  23.124   2.699
59915W        W19176  22.745  29.099  14.032
59916W        W19177   6.908   1.918   2.788
59917W        W19178   6.889  36.582  14.482
59918W        W19179  28.163  44.978  14.845
59919W        W19180   4.236   8.321  13.813
59920W        W19181   7.353  16.645   0.423
59921W        W19182   2.762  42.320   1.786
59922W        W19183  21.711  40.411   0.303
59923W        W19184   0.811  26.463   0.386
59924W        W19185  16.185   8.707  11.498
59925W        W19186  23.007  22.076   4.152
59926W        W19187  44.350  27.685  14.021
59927W        W19188  28.444  43.907   2.218
59928W        W19189  17.176  25.136  14.800
59929W        W19190   1.874  10.382  12.917
59930W        W19191  21.565  32.409  13.324
59931W        W19192  43.987  36.998   0.953
59932W        W19193  14.776  42.782  14.979
59933W        W19194  15.722  24.192   3.308
59934W        W19195  26.643  15.241  12.043
59935W        W19196  16.621  37.859  11.424
59936W        W19197  39.865  27.100   1.735
59937W        W19198   6.197  11.202   4.675
59938W        W19199  22.623  13.702  13.911
59939W        W19200   0.960  42.974   5.141
59940W        W19201   0.257  43.270  14.877
59941W        W19202  32.540  35.005  13.807
59942W        W19203  20.068  38.482  10.965
59943W        W19204  11.762  36.943  14.853
59944W        W19205  19.636  27.665  13.924
59945W        W19206   9.166  27.108  14.402
59946W        W19207   0.812  21.175  12.989
59947W        W19208  31.516  35.972  12.390
59948W        W19209  28.583  22.559  12.910
59949W        W19210  13.195  10.830   2.671
59950W        W19211  35.502  33.958   2.403
59951W        W19212  32.391   9.151   4.733
59952W        W19213   4.759  33.465   2.218
59953W        W19214  12.801  23.198  14.882
59954W        W19215  32.071  36.403  11.938
59955W        W19216  35.055  27.605   4.330
59956W        W19217   6.241   7.243   3.669
59957W        W19218  13.157  24.580  11.960
59958W        W19219  11.676  15.306   4.338
59959W        W19220  39.949   3.301   1.313
59960W        W19221  13.817  14.718  13.042
59961W        W19222  28.161  26.488   2.849
59962W        W19223   8.214  29.075  14.021
59963W        W19224   2.376  13.846  11.105
59964W        W19225  33.592   8.789   1.819
59965W        W19226  38.457   3.944   2.897
59966W        W19227  28.180   9.658  11.373
59967W        W19228  41.512  27.560   4.809
59968W        W19229  31.487  17.726   3.242
59969W        W19230   4.726  25.559  10.508
59970W        W19231  40.397  40.804  13.004
59971W        W19232  26.608  44.425  14.028
59972W        W19233  26.516  30.016  12.086
59973W        W19234  11.261   7.905  14.450
59974W        W19235  18.241  39.965  13.312
59975W        W19236  20.748  33.096  10.952
59976W        W19237  10.728  23.499  11.442
59977W        W19238  21.638  27.010   2.201
59978W        W19239  25.556  10.735  13.801
59979W        W19240  44.754   1.318   3.234
59980W        W19241  25.127  37.851   1.777
59981W        W19242  17.188  30.097   3.148
59982W        W19243   2.903  40.342  13.981
59983W        W19244  33.577  12.207  14.763
59984W        W19245  36.091  41.828  11.872
59985W        W19246  22.198  36.441   0.446
59986W        W19247  27.006  22.621   4.123
59987W        W19248  37.071   9.158   2.397
59988W        W19249  30.053   5.851  11.888
59989W        W19250  15.098  25.104  10.450
59990W        W19251  24.143  43.398   1.421
59991W        W19252  37.456  16.677   2.277
59992W        W19253   0.880  40.891   4.673
59993W        W19254  20.193  18.618   1.895
59994W        W19255  15.586  35.946   9.975
59995W        W19256  12.333  20.686   2.321
59996W        W19257  24.551  39.906   1.851
59997W        W19258  15.169  34.946  11.059
59998W        W19259  24.513  29.170   0.353
59999W        W19260  34.422  29.514   4.221
60000W        W19261  13.623  26.649  14.401
60001W        W19262  14.275   6.361  10.110
60002W        W19263  33.459  16.283   4.803
60003W        W19264   1.284  35.958   2.180
60004W        W19265   5.391  21.075   2.332
60005W        W19266  43.900  27.565   4.828
60006W        W19267  37.411  10.303   3.782
60007W        W19268   4.709  38.989   2.323
60008W        W19269  13.711  25.111   3.194
60009W        W19270  15.761  27.079  14.285
60010W        W19271  27.472  10.367  11.026
60011W        W19272  15.751  38.824  14.437
60012W        W19273   4.833  33.007   4.269
60013W        W19274  33.499  39.892   3.633
60014W        W19275   4.824  18.675   2.695
60015W        W19276  42.889  14.290   3.714
60016W        W19277  34.392  18.172  10.412
60017W        W19278   4.241  30.973   0.407
60018W        W19279   6.325   6.220   0.470
60019W        W19280  43.910  34.094   0.374
60020W        W19281  44.337  40.804  11.884
60021W        W19282  43.969  38.524   0.929
60022W        W19283  11.863  22.575   3.718
60023W        W19284  35.413  13.820  11.961
60024W        W19285   7.313   6.768   1.259
60025W        W19286  21.657  31.943   3.246
60026W        W19287  26.485  31.488   4.782
60027W        W19288  27.197  44.280  11.442
60028W        W19289  25.674  42.842   3.762
60029W        W19290  17.302  38.907   2.336
60030W        W19291  12.840   3.222  13.036
60031W        W19292  23.160  43.403  14.858
60032W        W19293  44.492  11.699   4.733
60033W        W19294  17.212  25.542   3.637
60034W        W19295   6.387   8.664   0.296
60035W        W19296   9.153  31.639  13.831
60036W        W19297   2.429  26.472   4.628
60037W        W19298  15.773   9.230   0.384
60038W        W19299  44.829   6.339   2.684
60039W        W19300  39.418  13.238  12.861
60040W        W19301  13.234  21.126   4.628
60041W        W19302  11.149   6.691   5.682
60042W        W19303   8.204  33.559   1.922
60043W        W19304  21.212  13.156  14.001
60044W        W19305   4.302  31.514  14.354
60045W        W19306  36.942  41.036   1.427
60046W        W19307   1.870  16.686  14.401
60047W        W19308  27.152   2.952   3.193
60048W        W19309  21.072  16.204  11.387
60049W        W19310  37.050  10.276   3.692
60050W        W19311  34.373  26.953   4.694
60051W        W19312   5.305  35.403   3.700
60052W        W19313  39.409  43.908  14.984
60053W        W19314  12.224  43.283   3.860
60054W        W19315  30.578  30.103   4.304
60055W        W19316   5.896  14.251  14.396
60056W        W19317  22.605   0.296  10.519
60057W        W19318  22.679  25.200  14.295
60058W        W19319  36.045  15.145  11.045
60059W        W19320  10.381  30.006   2.743
60060W        W19321   0.858  37.555  10.598
60061W        W19322  26.555  22.653   3.165
60062W        W19323  36.992  28.448  14.862
60063W        W19324   9.337   0.965  10.453
60064W        W19325  27.969  28.135   0.451
60065W        W19326  11.165  42.353  13.017
60066W        W19327  28.970  37.552  11.385
60067W        W19328  30.477  39.466  13.392
60068W        W19329  19.269  10.350   9.974
60069W        W19330  19.646  43.297  10.495
60070W        W19331  40.933   0.382   4.203
60071W        W19332  40.428  11.673  12.528
60072W        W19333  16.146  11.762   1.724
60073W        W19334   6.723  28.164   4.142
60074W        W19335   8.863  30.413  12.504
60075W        W19336  14.301  17.716   3.257
60076W        W19337  27.129  24.599  14.781
60077W        W19338   7.896  39.341   1.410
60078W        W19339   4.727  21.648   4.810
60079W        W19340   2.287  35.925   1.343
60080W        W19341  13.209  15.720  10.952
60081W        W19342   3.448  22.235   1.933
60082W        W19343  13.265  23.023  14.313
60083W        W19344  22.529   9.674   0.740
60084W        W19345  38.992  37.428   0.777
60085W        W19346  27.521  23.025   2.683
60086W        W19347  22.627  15.178  11.042
60087W        W19348   4.895  10.168  14.025
60088W        W19349   6.183   6.352  10.071
60089W        W19350   2.931  10.731  12.837
60090W        W19351  20.184  38.922   3.259
60091W        W19352  35.540  41.823   0.345
60092W        W19353  43.768  31.153  14.912
60093W        W19354  23.621  13.220  11.065
60094W        W19355   3.412  30.635   2.691
60095W        W19356  22.651  22.121   0.850
60096W        W19357  25.197  24.227   0.820
60097W        W19358   7.202  36.961  11.886
60098W        W19359  23.726   8.323  14.380
60099W        W19360  13.709  31.134   4.347
60100W        W19361  26.051  30.494   1.761
60101W        W19362  43.334  27.985   4.607
60102W        W19363  39.514  27.953   1.283
60103W        W19364  16.139  36.997  12.368
60104W        W19365  14.742  22.546  10.978
60105W        W19366  42.922  17.061  11.921
60106W        W19367  34.924   3.889  13.958
60107W        W19368  23.035  37.048   1.694
60108W        W19369  15.264  34.430   0.462
60109W        W19370   6.324  31.920   0.314
60110W        W19371  11.269  14.775  12.443
60111W        W19372  14.341  38.065   0.843
60112W        W19373  22.123  12.323  13.396
60113W        W19374   8.319  36.358  11.612
60114W        W19375   7.880  27.980  11.980
60115W        W19376   9.665  29.442  12.341
60116W        W19377  30.563  35.054  13.390
60117W        W19378  26.100  35.021   4.300
60118W        W19379   9.868  27.982  13.380
60119W        W19380   9.647  29.081   0.811
60120W        W19381  38.856  41.913   2.701
60121W        W19382  33.911   9.785   2.354
60122W        W19383  42.311  16.181  12.387
60123W        W19384  28.146  24.218   1.313
60124W        W19385  21.075  22.531  14.944
60125W        W19386  20.639  28.663   1.276
60126W        W19387   7.262  10.178   4.343
60127W        W19388  40.367  15.664   0.396
60128W        W19389  10.875   3.752   1.387
60129W        W19390  31.483  22.013  14.303
60130W        W19391  42.471  26.584   1.321
60131W        W19392  12.242   6.289   2.326
60132W        W19393  28.125  21.098  13.805
60133W        W19394  28.551  17.571   3.790
60134W        W19395  23.170  14.164  10.904
60135W        W19396  44.378   4.320  13.512
60136W        W19397   8.754  26.171   2.887
60137W        W19398  20.650  11.743  14.805
60138W        W19399  26.130   6.289  12.378
60139W        W19400  28.635   5.909   1.315
60140W        W19401  38.982  16.258   4.343
60141W        W19402   0.350  12.229   4.244
60142W        W19403  10.691  43.427  10.963
60143W        W19404  27.968   2.877   2.902
60144W        W19405  37.921  40.532  14.882
60145W        W19406  13.644  32.604  11.012
60146W        W19407  37.909  32.473   1.323
60147W        W19408  30.426  35.087  14.488
60148W        W19409  27.686  37.053  11.070
60149W        W19410  25.972  10.303   4.354
60150W        W19411  18.100   0.855  13.507
60151W        W19412   2.866   2.748   4.740
60152W        W19413  19.598  37.489  10.983
60153W        W19414  24.108   5.262  14.357
60154W        W19415  37.945  20.628   0.762
60155W        W19416   1.809  12.165   4.711
60156W        W19417  11.621  20.558  10.105
60157W        W19418   2.276  38.983  11.589
60158W        W19419   5.780  36.091  12.870
60159W        W19420  23.628   7.184   2.241
60160W        W19421  44.756  39.554   3.329
60161W        W19422   1.745  14.141  12.034
60162W        W19423  36.052  33.612  12.517
60163W        W19424   1.892  12.285  11.924
60164W        W19425  25.971  22.593  10.574
60165W        W19426  14.334  43.303  11.516
60166W        W19427  10.795  26.659   3.262
60167W        W19428  17.573  22.682   1.747
60168W        W19429  24.113   2.462   5.194
60169W        W19430  35.596  41.854   4.264
60170W        W19431  13.733  14.264   4.661
60171W        W19432  30.571  42.470   0.303
60172W        W19433  32.552  41.473   2.692
60173W        W19434  33.531  33.393   5.137
60174W        W19435  39.478  19.656  14.805
60175W        W19436  41.437  28.662   3.819
60176W        W19437  37.990  42.438  12.434
60177W        W19438  26.208  17.134   1.341
60178W        W19439  44.892  44.421   4.346
60179W        W19440  21.624  33.516   2.350
60180W        W19441   4.337  40.829  14.938
60181W        W19442  32.132   3.403   1.297
60182W        W19443  44.985  31.445  12.447
60183W        W19444  14.229  13.817  12.058
60184W        W19445  43.814   1.266  14.914
60185W        W19446  17.182  15.189  10.983
60186W        W19447   0.802  13.795  10.444
60187W        W19448  19.769  21.207   4.744
60188W        W19449  18.744  35.432  12.491
60189W        W19450   3.948  21.040   0.930
60190W        W19451   4.223  41.911   4.174
60191W        W19452  40.830  27.472   3.277
60192W        W19453  10.142  32.622  10.981
60193W        W19454  15.624  35.521  13.311
60194W        W19455  30.940  37.001   3.303
60195W        W19456  11.344  20.536  13.834
60196W        W19457  40.810  18.781   0.966
60197W        W19458  23.712  24.173  10.900
60198W        W19459  27.651  20.682  11.923
60199W        W19460  41.492  36.382   2.676
60200W        W19461  12.635  28.963  12.970
60201W        W19462  26.701  34.384  10.984
60202W        W19463   8.260   1.302  12.945
60203W        W19464  28.062  40.438   0.785
60204W        W19465  44.789  39.848  13.374
60205W        W19466  39.328  41.383   3.167
60206W        W19467  29.503  12.802   4.307
60207W        W19468  20.593  28.448  12.829
60208W        W19469  44.320  37.059   2.732
60209W        W19470   7.743  30.649   2.765
60210W        W19471  24.701  10.727  12.037
60211W        W19472   2.939  37.949  10.922
60212W        W19473  23.657   9.677   4.644
60213W        W19474  24.548   0.350   3.656
60214W        W19475  28.172  12.290   0.877
60215W        W19476  24.722  12.222   2.374
60216W        W19477   3.766  43.515   4.293
60217W        W19478  21.042  14.174  13.324
60218W        W19479   1.947  23.667   3.255
60219W        W19480  42.847   9.389  10.423
60220W        W19481   2.864  10.200   1.382
60221W        W19482  13.651  40.493   1.266
60222W        W19483   0.404   5.204  13.882
60223W        W19484   5.436  16.249   0.382
60224W        W19485  17.746  41.981   3.741
60225W        W19486  14.609  39.808  13.975
60226W        W19487  13.764  19.145   3.262
60227W        W19488  32.948   9.877   2.668
60228W        W19489   2.391   6.682  12.839
60229W        W19490   7.381  42.290   4.174
60230W        W19491  38.496  43.012  12.883
60231W        W19492  19.157  41.421  12.823
60232W        W19493  23.612  11.272   4.292
60233W        W19494  34.953   1.868  13.346
60234W        W19495   8.772   8.710   3.257
60235W        W19496  11.653  19.541   4.786
60236W        W19497   9.705  23.523   4.206
60237W        W19498  39.918   4.803  12.344
60238W        W19499  19.704  27.173  11.972
60239W        W19500  37.840  32.138   5.204
60240W        W19501   6.750  27.450   3.224
60241W        W19502  16.597  37.469   2.255
60242W        W19503  21.749  35.028  13.033
60243W        W19504  20.207   1.417   3.198
60244W        W19505   0.356  17.275   4.220
60245W        W19506  10.364   6.328  11.914
60246W        W19507  26.146   1.920   0.848
60247W        W19508  14.239  30.554   1.431
60248W        W19509  29.572   3.431  14.986
60249W        W19510  43.364  18.267   1.417
60250W        W19511   6.898  33.519  11.416
60251W        W19512  32.055   8.311   0.354
60252W        W19513  22.570   2.866  10.426
60253W        W19514  11.139  18.156   3.182
60254W        W19515  44.850  30.948   0.399
60255W        W19516  11.335  19.174  11.855
60256W        W19517  15.129  31.469   3.862
60257W        W19518  36.038   2.941  13.541
60258W        W19519  40.982  34.611  14.485
60259W        W19520  39.558  41.367  11.057
60260W        W19521  14.276  38.425   2.882
60261W        W19522  44.375   3.449   0.352
60262W        W19523  42.396  32.496  11.450
60263W        W19524   1.254  20.712   1.298
60264W        W19525   6.204  37.059  11.078
60265W        W19526  22.220  11.168   3.674
60266W        W19527  18.244  26.657   3.348
60267W        W19528  30.076   3.752   3.364
60268W        W19529  36.533  29.131   0.948
60269W        W19530  35.364  31.946   3.772
60270W        W19531  21.529   1.327   1.412
60271W        W19532   3.786  35.076  12.035
60272W        W19533  20.719  31.426  13.975
60273W        W19534  12.238  22.242  10.497
60274W        W19535  24.157  10.169   3.346
60275W        W19536  29.488  14.173  10.595
60276W        W19537   4.944  38.350  12.976
60277W        W19538  30.942  27.102   1.830
60278W        W19539  27.535  29.670  14.819
60279W        W19540  15.672  28.127   3.150
60280W        W19541  36.054   0.798  12.489
60281W        W19542  26.966  15.617  12.084
60282W        W19543  12.260  41.380  14.011
60283W        W19544  26.533  38.055   2.881
60284W        W19545  38.478  41.958  13.955
60285W        W19546  40.047  36.887  13.817
60286W        W19547  40.953  10.711  13.048
60287W        W19548   2.859  37.531  11.990
60288W        W19549  27.622   6.211   1.344
60289W        W19550  24.228   4.383   3.355
60290W        W19551   6.911  11.642  14.438
60291W        W19552   3.429  27.029   3.186
60292W        W19553  11.731  37.008  12.069
60293W        W19554  20.181  30.567  11.509
60294W        W19555  14.126  20.250   1.935
60295W        W19556  31.101  14.765   1.733
60296W        W19557  22.144  17.788  12.479
60297W        W19558  12.215  16.764  11.918
60298W        W19559  36.570  27.122   4.295
60299W        W19560   8.307  27.196  11.857
60300W        W19561  29.458  24.219   1.699
60301W        W19562  35.387   6.729   4.324
60302W        W19563  39.917  19.260   0.326
60303W        W19564   9.307  10.745   1.731
60304W        W19565   3.843   4.833   1.238
60305W        W19566  18.788   5.254   5.792
60306W        W19567  32.447  29.074  12.519
60307W        W19568  12.224  20.683  14.873
60308W        W19569  39.871  24.042  13.336
60309W        W19570  42.790  15.596   3.331
60310W        W19571  24.681  32.087   2.835
60311W        W19572   9.798  43.811   4.207
60312W        W19573  24.480  38.373   3.842
60313W        W19574  22.563  44.796   2.817
60314W        W19575   9.697  22.999   0.329
60315W        W19576  27.182  19.548  14.839
60316W        W19577  21.627  35.981   1.730
60317W        W19578  31.557  12.251  14.855
60318W        W19579  33.098  39.359  11.598
60319W        W19580   0.360   1.287  13.876
60320W        W19581  27.568   5.779   2.408
60321W        W19582  32.022  28.136  11.072
60322W        W19583  21.039  31.013   2.794
60323W        W19584  33.115   0.880  11.593
60324W        W19585  16.577  16.637  13.882
60325W        W19586  23.558   1.883   5.202
60326W        W19587  12.311   0.328   3.214
60327W        W19588  35.092  33.472  12.520
60328W        W19589  24.187  26.031   0.863
60329W        W19590   4.437   9.392  11.451
60330W        W19591  32.579   2.876  14.847
60331W        W19592  23.102  24.591   0.424
60332W        W19593   7.372  17.204  10.569
60333W        W19594  32.582   4.440  11.884
60334W        W19595  25.504   2.250  10.637
60335W        W19596  28.049  42.901  13.375
60336W        W19597   6.211   4.317   2.354
60337W        W19598   4.273  35.581  10.626
60338W        W19599  31.008  27.604   4.733
60339W        W19600  10.667   5.802   2.761
60340W        W19601  43.912  31.025   0.873
60341W        W19602  23.512   2.249  11.084
60342W        W19603  17.304  26.487  10.958
60343W        W19604  34.047  10.226  10.010
60344W        W19605  33.117  30.586   0.855
60345W        W19606  13.109   9.386  10.407
60346W        W19607  41.302   3.720  12.827
60347W        W19608  13.284   4.293  10.571
60348W        W19609  27.163  29.614  14.992
60349W        W19610  27.526  20.078  13.808
60350W        W19611  31.070   5.877   4.599
60351W        W19612  26.994   6.834   3.229
60352W        W19613   8.361  21.157   1.745
60353W        W19614  35.469  22.611  13.914
60354W        W19615  44.375   5.288  10.973
60355W        W19616  39.874   9.804   0.461
60356W        W19617   3.939  13.228   2.324
60357W        W19618  39.996   5.200   2.285
60358W        W19619  41.502  34.383   2.417
60359W        W19620  16.659  31.100  11.094
60360W        W19621   3.888  42.032  10.640
60361W        W19622  19.761  16.804  10.482
60362W        W19623   4.813  43.382   0.271
60363W        W19624  23.020  16.180   4.625
60364W        W19625  25.972  21.707   3.169
60365W        W19626   5.691  11.768   0.423
60366W        W19627  25.149   8.170  12.036
60367W        W19628  40.375   6.217  14.950
60368W        W19629  23.153  34.590  13.911
60369W        W19630  32.960  26.543  10.480
60370W        W19631   0.876  38.858  11.493
60371W        W19632  19.620   8.671   3.847
60372W        W19633  43.421  26.562   5.253
60373W        W19634  21.640  12.721   0.726
60374W        W19635   8.169  41.507   0.291
60375W        W19636  13.832  29.438   4.238
60376W        W19637  12.221  26.480  12.374
60377W        W19638  43.811   8.180   2.362
60378W        W19639  20.169  12.157  10.606
60379W        W19640  18.054  24.184  14.771
60380W        W19641  22.123  33.427   2.378
60381W        W19642   3.876  19.655   5.299
60382W        W19643  24.646  19.119   3.167
60383W        W19644  32.548   4.841  12.029
60384W        W19645  28.535  43.834  11.870
60385W        W19646  15.139   0.920  10.589
60386W        W19647  30.936  37.058   0.398
60387W        W19648  11.626  43.839   0.819
60388W        W19649  18.225  10.826   2.672
60389W        W19650  36.842  18.593   0.842
60390W        W19651  23.028   8.218  13.419
60391W        W19652  21.741  13.641  11.468
60392W        W19653  23.232  21.541   1.407
60393W        W19654  40.004  13.133   3.248
60394W        W19655  34.526  39.874  14.367
60395W        W19656  43.275  15.245   0.805
60396W        W19657  28.577  34.394  14.882
60397W        W19658  25.205   1.365   0.286
60398W        W19659  26.117  26.156  10.420
60399W        W19660  32.961   7.354   4.120
60400W        W19661  36.419  33.552   1.853
60401W        W19662  31.106  19.666  14.417
60402W        W19663   6.822   7.786  12.028
60403W        W19664  13.700  37.872   1.284
60404W        W19665  37.544  33.535  12.934
60405W        W19666  33.941  21.730   2.847
60406W        W19667  22.521  38.447  13.402
60407W        W19668  31.056  23.992   0.383
60408W        W19669  16.743   9.729  14.479
60409W        W19670   9.190  11.636   1.695
60410W        W19671   7.753  19.721  12.540
60411W        W19672  23.583  44.932   2.715
60412W        W19673  33.116  20.553  10.491
60413W        W19674  14.782  11.855  12.881
60414W        W19675  40.411  24.513   0.848
60415W        W19676   6.294   7.757   2.414
60416W        W19677  42.420  13.186  11.509
60417W        W19678  41.996  35.599  12.469
60418W        W19679  17.730  14.816   3.848
60419W        W19680  38.363  44.405   4.157
60420W        W19681  22.557  40.347  14.309
60421W        W19682  12.298   8.787  12.492
60422W        W19683   5.821   8.737  14.834
60423W        W19684  24.529   0.293   0.873
60424W        W19685   6.211  14.309   2.894
60425W        W19686  18.065  40.927  12.024
60426W        W19687  33.000  18.249   2.819
60427W        W19688   3.382  40.521   5.201
60428W        W19689  34.477  19.631  11.397
60429W        W19690  32.514  37.839   1.219
60430W        W19691  18.549  35.973   0.907
60431W        W19692  17.245  22.087  11.910
60432W        W19693  16.741  37.464  13.018
60433W        W19694   2.733  19.226  11.542
60434W        W19695  13.607  34.952   0.816
60435W        W19696  42.301  19.553  11.028
60436W        W19697  13.188   0.772   2.796
60437W        W19698  43.841  21.731   2.251
60438W        W19699  37.851  23.693  11.546
60439W        W19700  30.022  19.726  13.971
60440W        W19701   0.350   0.253   3.772
60441W        W19702  29.984  20.691   1.229
60442W        W19703  24.658  15.706  10.634
60443W        W19704  14.290  32.403  10.991
60444W        W19705  19.600  22.035  12.455
60445W        W19706  15.287  42.459   0.381
60446W        W19707  27.544  35.590   3.809
60447W        W19708  40.909  42.506   0.482
60448W        W19709  20.558  37.863   3.860
60449W        W19710  40.467  14.325  10.940
60450W        W19711  35.904  38.346   0.371
60451W        W19712   8.844   4.923  12.096
60452W        W19713  40.315  37.871  14.417
60453W        W19714  21.524  19.596  12.543
60454W        W19715  28.575  25.182  12.853
60455W        W19716  17.575  27.103  13.037
60456W        W19717  26.191  13.789   0.872
60457W        W19718  24.053  19.284   0.967
60458W        W19719  37.046   3.230   0.460
60459W        W19720  13.350  43.311   2.864
60460W        W19721  38.366  27.547   2.413
60461W        W19722  42.398  41.008   0.903
60462W        W19723  41.993  19.117   9.502
60463W        W19724   3.790  12.240   0.301
60464W        W19725   3.903   5.240  13.359
60465W        W19726  14.624  11.732   1.429
60466W        W19727   8.252  26.477  12.432
60467W        W19728   3.848   4.288  11.475
60468W        W19729  22.227  33.400  10.605
60469W        W19730  21.123  13.205   0.430
60470W        W19731  10.636  34.990   1.339
60471W        W19732   4.912   6.694   0.753
60472W        W19733  13.605   6.256  14.281
60473W        W19734   9.883  15.102   0.790
60474W        W19735  15.105  32.452  13.415
60475W        W19736  39.845  21.142  14.291
60476W        W19737  18.584   9.191   3.288
60477W        W19738  41.461  30.482  10.488
60478W        W19739  19.217  42.938   1.236
60479W        W19740  10.661   8.865  10.912
60480W        W19741  29.583   5.414  11.948
60481W        W19742  25.031   7.277   4.124
60482W        W19743   8.749  10.266  10.958
60483W        W19744  18.294  12.345  12.079
60484W        W19745  44.917  34.370  10.594
60485W        W19746   2.386  35.964  14.842
60486W        W19747  43.460  15.246  13.483
60487W        W19748   9.783  28.169   2.902
60488W        W19749   5.248  12.803  14.967
60489W        W19750  37.367  44.312  13.894
60490W        W19751   7.868  22.548  12.468
60491W        W19752  14.146  40.450  11.870
60492W        W19753  40.994  15.112   3.852
60493W        W19754  12.260  26.693   3.308
60494W        W19755  23.526  13.830  13.890
60495W        W19756  30.158  25.175  10.580
60496W        W19757  37.056   9.164   1.921
60497W        W19758  12.710  26.505  13.814
60498W        W19759  35.364  21.136  12.852
60499W        W19760  37.887  19.253  14.513
60500W        W19761  26.461   8.345   0.937
60501W        W19762   8.697  12.295   1.360
60502W        W19763   3.809  40.400  11.499
60503W        W19764  15.758  36.933   1.836
60504W        W19765  41.350  23.682  10.464
60505W        W19766  33.108  22.618  14.953
60506W        W19767  14.806   2.337   0.415
60507W        W19768  34.486  30.119   2.275
60508W        W19769  19.601  34.483   4.720
60509W        W19770  17.089  44.840   4.202
60510W        W19771  28.177  37.860  12.939
60511W        W19772  27.448  10.330  12.484
60512W        W19773  17.161  30.093  13.894
60513W        W19774  23.665  20.717  11.465
60514W        W19775  25.040  35.549   0.930
60515W        W19776  31.542  37.064  10.997
60516W        W19777  26.684  25.586  14.382
60517W        W19778  38.908  40.393   2.673
60518W        W19779  31.584  24.723  11.008
60519W        W19780  26.125  34.006   4.609
60520W        W19781  16.285   6.778   3.337
60521W        W19782  13.201   2.857  12.075
60522W        W19783  29.167  37.033  11.434
60523W        W19784  10.672   9.318   4.280
60524W        W19785  33.581   1.472   0.939
60525W        W19786   9.771  16.141   1.372
60526W        W19787  24.139  19.714   0.308
60527W        W19788  40.426   4.446  14.937
60528W        W19789  37.489  26.466   4.317
60529W        W19790  10.747  22.514   4.765
60530W        W19791  26.479  34.403  13.054
60531W        W19792  23.735  32.932   2.764
60532W        W19793  21.185  25.071   3.647
60533W        W19794  29.553  42.377   4.184
60534W        W19795  32.065  36.885  14.907
60535W        W19796  44.278  10.772   1.371
60536W        W19797  36.007  23.224  11.915
60537W        W19798  24.535  11.260  13.020
60538W        W19799  35.105  26.118   0.391
60539W        W19800   0.274   7.704  11.955
60540W        W19801  18.204  15.086   1.824
60541W        W19802  38.831  10.703   3.769
60542W        W19803  42.951  41.881   1.772
60543W        W19804  27.989  15.582   2.790
60544W        W19805  13.663  28.940   4.832
60545W        W19806  16.245  22.008   1.309
60546W        W19807   5.290  43.851  14.385
60547W        W19808  31.037  29.989   3.684
60548W        W19809  39.343   1.417   0.843
60549W        W19810  21.044  39.957  12.580
60550W        W19811  18.050  18.757   2.319
60551W        W19812  17.666   8.661   9.633
60552W        W19813  10.647  31.617  14.976
60553W        W19814  28.440  26.190   2.211
60554W        W19815  12.666  42.392  14.428
60555W        W19816  13.341  11.693   3.820
60556W        W19817  29.127  30.998  14.978
60557W        W19818  12.752  11.212   4.761
60558W        W19819  24.517  31.517  11.908
60559W        W19820  44.275  31.144   4.637
60560W        W19821  26.481  43.924  11.564
60561W        W19822  11.867  33.395   1.269
60562W        W19823  16.619  33.495   0.812
60563W        W19824  21.622   4.715   1.746
60564W        W19825  27.018  21.206   1.328
60565W        W19826   2.789  32.931   3.774
60566W        W19827  22.602  34.417   4.243
60567W        W19828  21.203  12.789   3.838
60568W        W19829  31.009  36.578  13.541
60569W        W19830  40.484  28.990  13.887
60570W        W19831  34.088   0.753  10.914
60571W        W19832   7.681  21.614  10.436
60572W        W19833   1.466  26.672   1.759
60573W        W19834  36.986   5.894  12.078
60574W        W19835  20.237  30.084   0.818
60575W        W19836  43.323  31.093   4.715
60576W        W19837  15.781   6.253   0.416
60577W        W19838  40.338  30.584   0.373
60578W        W19839  39.864  44.920  13.423
60579W        W19840  39.414  17.643   4.732
60580W        W19841   6.718  38.873   0.923
60581W        W19842   2.801  42.968  10.926
60582W        W19843   0.758   9.651  13.038
60583W        W19844   9.238   9.163  12.549
60584W        W19845  14.762  33.937  13.062
60585W        W19846  32.042   3.266  11.537
60586W        W19847  33.582  37.545   0.926
60587W        W19848  27.572  33.508  12.545
60588W        W19849  39.016  11.767  13.361
60589W        W19850  33.898   8.173   3.764
60590W        W19851  24.724  13.196  11.908
60591W        W19852  15.216  13.804   4.339
60592W        W19853  34.005   9.650  11.086
60593W        W19854  24.048  30.016   4.322
60594W        W19855  20.055   5.341  10.951
60595W        W19856  27.523  35.934   3.702
60596W        W19857  33.393  25.969  14.911
60597W        W19858  40.349   9.708   2.682
60598W        W19859  27.480  21.026  12.912
60599W        W19860  36.983  28.672   0.328
60600W        W19861   0.880  41.866  12.887
60601W        W19862   2.419   7.808   4.184
60602W        W19863  27.972  27.598   1.750
60603W        W19864   4.233  19.225   3.192
60604W        W19865  12.128  35.109  12.576
60605W        W19866  44.987  15.120   3.760
60606W        W19867   8.378  26.538  14.976
60607W        W19868  29.084  41.889   1.354
60608W        W19869  34.021   4.412  12.994
60609W        W19870  36.506   7.694  11.519
60610W        W19871  24.208  17.203   2.895
60611W        W19872  21.572  18.734  14.344
60612W        W19873  41.473   2.445  10.918
60613W        W19874  19.110  19.580  11.568
60614W        W19875  13.167  24.708  14.487
60615W        W19876  17.289  10.234   5.100
60616W        W19877  31.057  32.529  11.371
60617W        W19878  14.802  40.350  14.853
60618W        W19879  12.674   7.182  13.902
60619W        W19880  24.041  27.686   2.204
60620W        W19881  32.451  40.922   3.167
60621W        W19882  15.285  33.995   3.723
60622W        W19883  18.554  15.647   1.320
60623W        W19884  15.646  37.405  13.402
60624W        W19885  22.226  18.196   3.863
60625W        W19886  14.617  30.003   3.735
60626W        W19887   1.362   8.875  10.567
60627W        W19888  36.950  25.168  11.963
60628W        W19889  39.555  40.982  11.396
60629W        W19890  27.061  19.732   0.729
60630W        W19891  23.656  10.163  13.501
60631W        W19892  35.878  12.815  13.369
60632W        W19893   4.776  37.036  14.773
60633W        W19894  44.272  14.259   2.253
60634W        W19895  36.404  29.447  12.347
60635W        W19896  40.331   6.326  11.532
60636W        W19897  37.066  12.228   2.193
60637W        W19898   4.397  33.939  13.938
60638W        W19899  13.641  19.742   2.733
60639W        W19900  22.709  14.802   4.819
60640W        W19901  27.115  25.645  10.628
60641W        W19902  28.466  12.812   2.265
60642W        W19903  12.284  33.878   3.202
60643W        W19904   5.764  14.599   3.180
60644W        W19905  14.606  18.132   2.900
60645W        W19906   2.881  30.495  11.414
60646W        W19907  21.121  35.500  11.044
60647W        W19908  37.567  15.805   0.885
60648W        W19909  33.534  16.613  12.496
60649W        W19910  44.977   0.832  12.975
60650W        W19911  33.913   4.277   3.310
60651W        W19912  24.020  11.354  13.521
60652W        W19913   4.817  23.625  14.901
60653W        W19914  28.501  17.113  12.499
60654W        W19915  44.811  29.476   2.263
60655W        W19916  33.463  22.233  10.024
60656W        W19917  16.187  35.990  13.835
60657W        W19918   8.230  11.181   1.395
60658W        W19919  19.125  36.981  12.827
60659W        W19920  23.620  30.915  12.004
60660W        W19921  43.360  34.397   4.726
60661W        W19922  32.980  16.186   0.287
60662W        W19923  29.663  32.105   2.182
60663W        W19924  15.686   0.848   2.855
60664W        W19925   4.838  42.320   1.836
60665W        W19926  36.572  42.864   1.785
60666W        W19927  34.558   7.298   3.745
60667W        W19928  39.385   8.233  14.759
60668W        W19929  41.043  17.213  14.455
60669W        W19930  17.184  35.456  13.374
60670W        W19931   2.837  32.567  12.475
60671W        W19932  33.578  36.914   3.383
60672W        W19933  34.001  30.535   4.205
60673W        W19934  18.627  13.290   5.249
60674W        W19935  36.037  20.165  14.802
60675W        W19936  15.656   4.820   0.363
60676W        W19937  10.257   9.748  13.909
60677W        W19938  41.952  42.382   1.396
60678W        W19939   6.310   3.415  11.886
60679W        W19940   9.877  10.180  14.411
60680W        W19941  11.816  30.626  14.408
60681W        W19942  19.219  43.491   4.160
60682W        W19943  39.315  31.043   4.682
60683W        W19944  33.541   0.786   1.804
60684W        W19945  21.028  27.547  12.406
60685W        W19946  36.945  21.644   3.747
60686W        W19947   9.843  28.436  11.943
60687W        W19948  36.913   2.450  12.027
60688W        W19949  34.575  40.466  12.852
60689W        W19950  22.514  14.156   1.346
60690W        W19951  36.461  19.154  13.937
60691W        W19952  33.904  32.034  10.105
60692W        W19953  14.655  19.581  10.987
60693W        W19954  23.128  31.564   3.636
60694W        W19955  24.140  31.493   0.745
60695W        W19956  36.506  11.359   0.887
60696W        W19957  35.862  25.162   1.836
60697W        W19958  32.546  10.269  13.491
60698W        W19959  35.514  20.070   2.311
60699W        W19960  20.747  41.791   1.270
60700W        W19961  23.055  21.094   0.387
60701W        W19962  11.289  42.003   2.826
60702W        W19963  22.213  32.900   2.302
60703W        W19964   3.406  35.098  14.800
60704W        W19965   6.821  44.471   3.863
60705W        W19966  41.869   9.709   3.871
60706W        W19967  34.050   4.861   2.669
60707W        W19968  44.909   6.338  14.985
60708W        W19969   6.242   8.366   4.220
60709W        W19970  31.076   4.707  12.404
60710W        W19971   5.368  32.979   1.366
60711W        W19972  25.713  31.116  11.867
60712W        W19973  26.663  22.206   2.303
60713W        W19974  15.759  13.216   1.769
60714W        W19975  14.118   8.369   1.922
60715W        W19976  33.598  20.583   2.891
60716W        W19977  11.162  29.561  13.955
60717W        W19978  36.940  37.467  11.594
60718W        W19979  14.742  22.094  13.402
60719W        W19980  29.667   0.271  11.590
60720W        W19981  10.255  21.199  12.370
60721W        W19982  33.078  38.536  12.017
60722W        W19983   1.432  24.636  15.000
60723W        W19984  18.155  18.164  11.046
60724W        W19985  36.901   7.788   1.845
60725W        W19986  32.033   8.670   1.892
60726W        W19987  29.525  24.139  10.418
60727W        W19988  15.322  44.845   2.876
60728W        W19989  37.366   2.449   3.639
60729W        W19990  36.453  17.560  11.605
60730W        W19991  44.386  40.455   3.657
60731W        W19992  10.764  26.646  12.470
60732W        W19993  41.872  12.352   3.866
60733W        W19994  44.485  41.015  14.903
60734W        W19995  19.723  13.147   4.336
60735W        W19996  30.437  19.610   4.323
60736W        W19997   1.844  17.258  14.983
60737W        W19998  11.328  33.396   4.259
60738W        W19999  39.964  43.765  11.058
60739W        W20000  37.340  22.684   2.689
60740W        W20001  42.833  24.104   0.933
60741W        W20002  10.190  13.766  14.815
60742W        W20003   5.821  21.245  12.996
60743W        W20004  16.315  31.536   0.856
60744W        W20005  44.295  27.631   1.918
60745W        W20006  35.992   5.697  13.447
60746W        W20007  43.469  38.071  13.361
60747W        W20008  26.534  15.807   5.108
60748W        W20009  23.656  27.496   3.665
60749W        W20010  24.700  25.693   1.759
60750W        W20011  35.923  42.857   2.733
60751W        W20012   5.923  28.007   4.191
60752W        W20013  33.548  26.633  10.473
60753W        W20014   7.891   6.222  10.997
60754W        W20015  24.106  25.550   3.237
60755W        W20016  31.903   3.924   0.819
60756W        W20017  35.073  42.452   4.835
60757W        W20018  27.106  39.509   1.760
60758W        W20019   3.321  29.472   1.359
60759W        W20020   3.803  41.032   3.299
60760W        W20021  34.064  27.956  10.421
60761W        W20022  24.666  14.729   4.610
60762W        W20023   4.924  33.025  13.949
60763W        W20024   6.210  21.602   3.247
60764W        W20025  27.058  31.552  11.377
60765W        W20026  31.899   5.401  11.126
60766W        W20027   6.811  15.788   0.245
60767W        W20028   2.804  37.967   0.335
60768W        W20029  26.477  11.322  10.511
60769W        W20030  30.114  37.976  13.938
60770W        W20031  25.514  41.810  12.417
60771W        W20032  29.441  20.727   4.833
60772W        W20033  16.113   8.273  13.827
60773W        W20034  17.172  36.511   1.910
60774W        W20035  12.319  41.898  12.404
60775W        W20036  11.176  22.207  13.501
60776W        W20037  10.845   1.750  14.432
60777W        W20038  31.597   3.245   2.806
60778W        W20039  35.876  18.694  13.343
60779W        W20040   4.440  14.145   4.312
60780W        W20041  32.490   6.778   2.780
60781W        W20042  26.188  38.382  10.429
60782W        W20043   9.745  44.838   4.202
60783W        W20044  35.972  23.016  11.540
60784W        W20045  30.423  28.649  11.865
60785W        W20046  34.900  41.941   4.201
60786W        W20047  34.369  44.975   3.311
60787W        W20048  22.228   6.729  11.098
60788W        W20049  44.872  25.962   5.115
60789W        W20050  37.031  39.472  14.924
60790W        W20051  33.606  40.454   3.275
60791W        W20052  10.850  20.051  13.952
60792W        W20053   9.300   0.384  14.435
60793W        W20054  25.163   9.697  12.447
60794W        W20055   9.345  42.355   0.316
60795W        W20056  27.520  26.167  12.901
60796W        W20057   9.739  16.790   3.303
60797W        W20058  32.594  17.083  13.463
60798W        W20059  30.149   6.900   4.292
60799W        W20060  32.431  15.663   4.144
60800W        W20061   8.682  18.563   0.247
60801W        W20062  23.646   1.364  13.489
60802W        W20063   2.432  19.230   3.342
60803W        W20064   7.376  31.409  10.897
60804W        W20065  39.008  16.136  12.016
60805W        W20066  11.186  14.638   3.147
60806W        W20067   1.398  41.042   1.870
60807W        W20068  36.938  27.562  14.506
60808W        W20069   6.207  27.180   2.405
60809W        W20070  29.043  35.377   0.776
60810W        W20071   2.291  27.480   4.347
60811W        W20072  12.632  39.541  10.974
60812W        W20073  29.560  34.111  11.013
60813W        W20074  29.000  36.007   0.293
60814W        W20075  26.536  14.757  11.590
60815W        W20076  23.123  43.403   4.738
60816W        W20077  28.959  14.273  12.990
60817W        W20078  28.491  18.563  11.557
60818W        W20079  43.506  42.923  14.980
60819W        W20080  25.972   1.881  14.783
60820W        W20081   1.395  14.169  14.922
60821W        W20082   6.826  20.608  11.021
60822W        W20083   8.772  43.938   4.664
60823W        W20084  24.697  14.699  11.466
60824W        W20085   8.786  34.502  13.888
60825W        W20086  20.097  32.433   3.386
60826W        W20087  22.617  11.171   4.206
60827W        W20088  13.757  22.203  11.448
60828W        W20089  40.403  33.932   5.589
60829W        W20090  44.434  36.095   0.281
60830W        W20091  40.511   6.389   3.666
60831W        W20092  18.589  42.374  14.007
60832W        W20093   6.422  40.815  10.545
60833W        W20094  22.538  38.931   3.188
60834W        W20095  41.840  36.946   1.423
60835W        W20096  19.777  21.242   0.944
60836W        W20097  40.407  20.105   2.347
60837W        W20098  27.454  38.909  12.016
60838W        W20099  43.276  16.740  14.016
60839W        W20100  12.249  44.342   3.353
60840W        W20101  24.081  32.441   3.277
60841W        W20102  24.127  10.200   4.232
60842W        W20103  27.561   2.850  13.503
60843W        W20104  25.032  22.244   2.860
60844W        W20105  25.054  14.719   0.868
60845W        W20106  20.753  32.945   0.917
60846W        W20107  37.931  34.560   1.334
60847W        W20108  31.536  39.458   2.294
60848W        W20109  43.450  22.652   1.288
60849W        W20110   5.208  34.446   1.905
60850W        W20111  36.976  24.021   2.886
60851W        W20112   2.878  36.023  13.438
60852W        W20113  38.429  11.211   1.929
60853W        W20114  13.642   0.419   1.810
60854W        W20115  31.967  44.788  10.970
60855W        W20116  18.659  14.590   0.467
60856W        W20117  44.427  28.991  13.976
60857W        W20118  40.425  42.009   0.816
60858W        W20119  23.600   4.336   3.275
60859W        W20120   0.273   4.864  12.469
60860W        W20121  30.516  37.005   2.759
60861W        W20122  14.809  36.379   3.863
60862W        W20123  11.342  21.092   2.744
60863W        W20124  38.447   7.786  11.897
60864W        W20125  43.941  20.638  11.416
60865W        W20126  13.702  39.423  14.948
60866W        W20127  43.998  44.396  11.404
60867W        W20128  23.188   1.466  14.425
60868W        W20129   2.758  23.205   0.460
60869W        W20130  38.978  27.657  11.868
60870W        W20131  27.543  13.760   0.822
60871W        W20132  36.498  28.640  12.424
60872W        W20133  41.863   5.262   2.198
60873W        W20134  24.187  18.122   4.705
60874W        W20135  33.402  10.681   2.720
60875W        W20136  41.376  21.529  10.995
60876W        W20137  41.913  42.482  13.824
60877W        W20138  21.048  15.126  13.864
60878W        W20139   0.816  18.203  11.498
60879W        W20140  31.445  29.612  11.440
60880W        W20141  37.485  20.591   3.284
60881W        W20142  27.961  18.586  11.594
60882W        W20143  23.045  35.594   4.738
60883W        W20144   0.423  18.607   9.964
60884W        W20145  44.900   8.265   3.385
60885W        W20146   6.734  15.610  10.014
60886W        W20147  20.554  38.489   2.323
60887W        W20148  35.482  35.490  11.449
60888W        W20149  28.004  40.530  10.960
60889W        W20150  15.107  40.869  11.448
60890W        W20151  16.137  28.942  14.468
60891W        W20152  41.307  23.554   2.863
60892W        W20153  40.967   6.764  12.054
60893W        W20154  13.322  41.036  14.450
60894W        W20155   9.829   8.781   2.743
60895W        W20156   2.442  28.079  10.073
60896W        W20157  19.677   1.755   1.928
60897W        W20158   4.801  18.718   3.162
60898W        W20159  30.143  33.570  12.418
60899W        W20160   3.388  24.662   0.837
60900W        W20161   3.911  31.468   1.234
60901W        W20162  30.101  16.647  14.409
60902W        W20163  15.676  43.828   0.325
60903W        W20164  40.911  26.135   0.792
60904W        W20165  29.599  17.108   3.343
60905W        W20166  19.641  14.188   4.248
60906W        W20167  23.075   3.904  13.017
60907W        W20168  25.148  44.306  12.907
60908W        W20169  29.043  19.236  10.553
60909W        W20170   9.886  16.296  12.509
60910W        W20171  35.884  33.611  14.939
60911W        W20172  11.799  33.954   4.703
60912W        W20173   8.796  20.067   3.837
60913W        W20174   0.880  34.440  14.878
60914W        W20175   3.321   6.219  12.546
60915W        W20176   0.488  16.777   2.815
60916W        W20177  22.632  37.882  10.911
60917W        W20178  17.244  20.694   1.325
60918W        W20179  37.059   1.446   0.264
60919W        W20180  42.978  33.478   1.286
60920W        W20181  16.239   9.824   0.471
60921W        W20182  21.083  33.113   2.740
60922W        W20183  23.229  24.215  13.371
60923W        W20184   5.912  39.861   3.269
60924W        W20185  24.121  44.335  10.995
60925W        W20186  12.155   1.881  14.778
60926W        W20187  25.587   0.757  14.844
60927W        W20188  34.992  32.596   1.333
60928W        W20189  10.301  35.972  12.996
60929W        W20190  43.870  32.018  12.013
60930W        W20191  36.368  18.267   3.798
60931W        W20192  19.717  40.922  13.041
60932W        W20193  29.550  22.537   3.767
60933W        W20194   6.395  23.597   0.788
60934W        W20195   5.724  17.757   1.303
60935W        W20196  22.690   4.795   3.300
60936W        W20197  34.415   2.936   2.359
60937W        W20198  43.955  20.740   3.669
60938W        W20199  29.605  24.210  11.960
60939W        W20200  13.708  22.224   1.349
60940W        W20201  29.557   4.748  13.429
60941W        W20202  43.863  32.022  13.423
60942W        W20203  19.647   9.797   4.176
60943W        W20204  34.572  16.246  11.374
60944W        W20205   8.838  23.047  13.976
60945W        W20206  33.119   2.314   1.763
60946W        W20207  41.470  29.111  10.959
60947W        W20208  22.158  10.329   9.976
60948W        W20209  44.285  21.199   1.915
60949W        W20210   3.402  29.553  14.480
60950W        W20211   5.746  23.087   3.763
60951W        W20212  18.296  16.788   4.828
60952W        W20213  13.812  30.962   0.299
60953W        W20214   0.840  29.499  14.494
60954W        W20215   0.855  31.534   0.387
60955W        W20216  31.510  33.952  13.847
60956W        W20217  39.416  24.197   3.834
60957W        W20218  25.486  12.763   0.244
60958W        W20219  38.556  12.173  13.931
60959W        W20220  42.977  30.132  14.807
60960W        W20221   5.705  23.516  11.053
60961W        W20222  44.921  25.058  14.932
60962W        W20223  12.161  18.211   1.803
60963W        W20224  23.728  39.373  12.453
60964W        W20225  21.750  24.634   2.689
60965W        W20226  41.802  16.269  11.079
60966W        W20227  17.282   4.887  14.329
60967W        W20228  24.041  35.961   1.846
60968W        W20229  19.264  35.856  12.358
60969W        W20230  12.745  17.187   4.340
60970W        W20231   0.258  31.459  10.507
60971W        W20232  15.695  12.330   2.741
60972W        W20233  34.902  17.735  12.870
60973W        W20234  16.288  42.460   2.853
60974W        W20235  32.460  25.176  13.493
60975W        W20236  19.739  35.430   0.858
60976W        W20237  24.094  16.642   1.932
60977W        W20238  43.359   8.840  12.860
60978W        W20239  23.033  39.974   1.825
60979W        W20240  44.351  27.987   5.107
60980W        W20241  30.106   9.363   1.801
60981W        W20242  31.611  36.537   0.247
60982W        W20243  27.681  17.132   4.208
60983W        W20244  16.646  40.507  10.965
60984W        W20245  13.812  35.053   4.756
60985W        W20246  22.211  29.504   4.168
60986W        W20247   7.325  43.782  14.317
60987W        W20248  16.811  12.752   4.324
60988W        W20249  41.798   9.317  11.015
60989W        W20250   2.754   1.365  14.295
60990W        W20251  26.061  44.263   2.781
60991W        W20252  43.336  14.778  10.890
60992W        W20253  17.708  30.644   2.415
60993W        W20254  44.796  20.552  11.093
60994W        W20255  22.132  35.582   1.751
60995W        W20256  44.293  38.480   1.723
60996W        W20257  41.041  40.883   1.719
60997W        W20258  43.009  40.316  13.857
60998W        W20259  11.248  22.507   0.422
60999W        W20260  17.189  11.282   3.166
61000W        W20261  14.158  21.621   4.680
61001W        W20262  29.160  33.384   5.200
61002W        W20263  23.636  42.364  12.960
61003W        W20264   6.915  13.661  14.357
61004W        W20265  11.633   8.404   3.704
61005W        W20266  13.286  16.088  13.827
61006W        W20267  26.187  25.707   1.885
61007W        W20268   0.444  25.079  12.016
61008W        W20269  28.071   4.702   1.812
61009W        W20270   9.278  42.292  11.612
61010W        W20271   5.212  41.005  14.874
61011W        W20272  34.947   2.347  11.090
61012W        W20273  17.575  37.035  14.500
61013W        W20274  10.633  41.907   4.772
61014W        W20275  33.456  22.066  14.288
61015W        W20276  23.557   9.703   0.323
61016W        W20277   3.801  26.062  11.443
61017W        W20278  11.660  25.137   3.758
61018W        W20279  20.077  21.534   0.294
61019W        W20280  22.246  41.420   2.662
61020W        W20281   1.928   2.744  12.364
61021W        W20282  10.851  29.598  13.349
61022W        W20283   2.757   5.776  14.394
61023W        W20284  34.930  21.621  14.834
61024W        W20285  23.620  33.475  10.093
61025W        W20286  26.509  28.093  10.594
61026W        W20287  38.890  24.716  13.826
61027W        W20288   4.204  12.680  11.960
61028W        W20289   1.972   7.792   4.791
61029W        W20290   7.397  11.253   0.404
61030W        W20291   9.370  24.590   2.776
61031W        W20292  34.611  37.499   4.152
61032W        W20293  17.760  40.423   4.210
61033W        W20294  22.671  32.045  14.948
61034W        W20295   0.746  12.678   3.232
61035W        W20296  18.182   9.786  13.517
61036W        W20297  11.182  28.658   3.675
61037W        W20298  21.199   9.345  11.609
61038W        W20299   0.376  44.832   0.746
61039W        W20300  29.531  35.594   2.818
61040W        W20301  40.906  25.509   4.652
61041W        W20302   8.310  16.249  11.859
61042W        W20303  21.678  20.595   1.283
61043W        W20304  19.198  30.057  14.928
61044W        W20305  31.975  43.884  14.955
61045W        W20306  22.628  26.060  10.633
61046W        W20307  20.136   9.365   1.813
61047W        W20308  24.050  42.284  12.560
61048W        W20309  35.891  27.031  11.535
61049W        W20310  20.170  21.741  10.077
61050W        W20311  40.462  23.564  14.280
61051W        W20312  25.969  31.998  14.892
61052W        W20313  20.582  34.104   2.785
61053W        W20314  18.199  19.269   1.860
61054W        W20315  35.890  23.122   1.845
61055W        W20316   4.361  30.985   4.184
61056W        W20317  39.841  31.603  11.997
61057W        W20318   7.716   0.265   0.812
61058W        W20319  26.691  26.514   5.319
61059W        W20320  44.263  36.088   2.857
61060W        W20321  43.021  19.760   2.387
61061W        W20322  25.525  43.506  13.511
61062W        W20323  29.651  20.564  13.365
61063W        W20324  35.070  11.335  12.913
61064W        W20325  39.459  20.095   0.446
61065W        W20326  34.900  34.490  11.970
61066W        W20327  18.573  43.945   2.853
61067W        W20328   0.938  28.059  11.537
61068W        W20329  40.966   3.257  11.391
61069W        W20330   3.390  12.342  11.528
61070W        W20331   4.771  44.950  12.826
61071W        W20332   8.221  44.892  13.439
61072W        W20333  21.156  11.866   1.749
61073W        W20334  38.038  43.461   0.410
61074W        W20335  26.567  13.282  12.835
61075W        W20336   1.354  12.276   2.816
61076W        W20337   0.439  23.684  12.345
61077W        W20338   5.925   7.321   3.662
61078W        W20339  12.142  33.081  13.538
61079W        W20340   7.694  39.336   3.227
61080W        W20341  21.522   5.359  11.113
61081W        W20342  35.542  23.164   3.361
61082W        W20343  29.958   6.734   3.149
61083W        W20344   9.872  13.240   4.146
61084W        W20345  29.661  13.128   4.188
61085W        W20346   3.757  12.190  13.870
61086W        W20347  28.632  26.046   3.830
61087W        W20348  14.812  25.118  14.461
61088W        W20349  11.257  32.039  13.521
61089W        W20350  30.607   3.438  12.469
61090W        W20351  16.189  26.650   5.118
61091W        W20352  12.295  22.668  13.348
61092W        W20353  16.771  23.623   1.316
61093W        W20354   5.847  31.427  14.285
61094W        W20355  28.659  15.150  13.536
61095W        W20356   6.395  38.401   0.351
61096W        W20357  40.505  13.304  13.941
61097W        W20358  44.922  35.377   4.121
61098W        W20359  37.536  38.433   1.377
61099W        W20360  41.302  35.104  11.533
61100W        W20361  35.411   9.866   1.254
61101W        W20362  12.798  39.055  14.450
61102W        W20363  17.267  34.959   5.264
61103W        W20364  39.481  20.747   4.260
61104W        W20365  21.232  37.862  10.436
61105W        W20366  28.955  17.258  11.414
61106W        W20367  21.557  18.127   1.219
61107W        W20368  22.171  20.715   0.727
61108W        W20369  37.559  44.918   4.787
61109W        W20370  29.651  23.692   3.249
61110W        W20371  12.204  24.521   2.857
61111W        W20372  30.925  10.766  10.996
61112W        W20373  13.279  25.141   0.286
61113W        W20374  18.637  35.916  10.444
61114W        W20375  37.372  44.761  10.567
61115W        W20376  31.456   7.685  13.008
61116W        W20377  38.570  29.077  11.121
61117W        W20378   6.784  26.509   4.813
61118W        W20379  39.536  13.635  10.403
61119W        W20380  21.104  12.768  14.942
61120W        W20381  22.736   3.800  10.619
61121W        W20382  22.241  25.537  10.942
61122W        W20383  11.163   0.865   0.837
61123W        W20384  36.415   5.302   3.310
61124W        W20385  10.253  28.551   3.176
61125W        W20386  44.810  37.534   1.379
61126W        W20387  24.526  29.958   5.098
61127W        W20388  31.568  35.410  11.570
61128W        W20389   1.453  13.210   3.275
61129W        W20390   1.442  21.187  13.372
61130W        W20391  32.431   1.973  11.598
61131W        W20392  27.101  10.713   1.442
61132W        W20393  44.461   2.960   0.305
61133W        W20394  21.578   1.920   2.788
61134W        W20395  33.020   5.311  10.517
61135W        W20396  38.328   9.330  11.494
61136W        W20397  32.140   6.421   0.258
61137W        W20398  11.370  40.483  10.623
61138W        W20399  30.016   4.253  10.565
61139W        W20400  43.497  10.671  13.531
61140W        W20401   0.870  22.590  11.039
61141W        W20402  23.103  15.319   4.648
61142W        W20403  42.520  29.120  11.994
61143W        W20404   2.900  31.922  14.303
61144W        W20405  35.573   9.232  12.507
61145W        W20406  22.072  11.207   4.662
61146W        W20407  41.994  13.704   0.748
61147W        W20408  28.060   6.720  13.835
61148W        W20409  36.918  26.560  14.916
61149W        W20410  32.530  16.793   0.380
61150W        W20411  13.219  24.675  13.947
61151W        W20412   3.929  15.210  10.918
61152W        W20413  28.438  26.956  14.368
61153W        W20414  28.089  39.933  10.461
61154W        W20415  16.712  43.287   4.808
61155W        W20416  32.563  41.375   2.250
61156W        W20417  39.389  18.207  11.437
61157W        W20418   0.354   7.308   2.217
61158W        W20419  27.588  21.566   2.761
61159W        W20420  39.888   6.717   2.786
61160W        W20421  43.814  28.089   4.709
61161W        W20422   4.710  22.708   3.728
61162W        W20423  13.822   0.490  14.472
61163W        W20424  39.065  22.162  14.772
61164W        W20425  36.568  14.236   0.841
61165W        W20426  31.115  22.066   2.780
61166W        W20427   3.943  29.047  11.573
61167W        W20428  13.659  36.583  14.019
61168W        W20429  13.177  22.211   4.798
61169W        W20430  34.411   5.730  12.082
61170W        W20431  18.210   6.337   3.723
61171W        W20432  24.661  33.878  11.504
61172W        W20433   4.394  40.518   4.217
61173W        W20434   5.272  43.967  12.521
61174W        W20435  27.999   3.822   3.326
61175W        W20436  24.193  37.436  11.533
61176W        W20437  10.301  41.321   0.253
61177W        W20438  30.629  42.350  14.850
61178W        W20439  29.056  36.469   2.866
61179W        W20440  38.871  43.968   2.770
61180W        W20441  42.386  30.654   2.231
61181W        W20442   3.455  43.334  10.966
61182W        W20443  27.112   0.375   0.738
61183W        W20444  39.840  25.552   1.897
61184W        W20445   3.880  23.036   2.863
61185W        W20446  14.794  40.416   3.221
61186W        W20447   0.827  23.155   4.795
61187W        W20448   5.312   5.299   0.314
61188W        W20449  24.572  39.435  10.623
61189W        W20450  37.481  17.221  11.430
61190W        W20451   7.253  44.981   1.767
61191W        W20452   1.857  17.785   0.333
61192W        W20453  10.741  16.801   4.735
61193W        W20454  13.771  25.997  12.490
61194W        W20455  11.860  15.728  12.086
61195W        W20456  25.542   4.888   1.404
61196W        W20457  43.329  38.045   0.938
61197W        W20458  33.896  19.111   2.835
61198W        W20459   5.872  30.497  14.392
61199W        W20460  42.331  19.707  10.113
61200W        W20461  31.139   6.317  14.802
61201W        W20462  24.672  44.821   2.378
61202W        W20463  43.391  15.155   1.225
61203W        W20464  29.533  44.924  12.018
61204W        W20465  36.558  20.761  12.432
61205W        W20466  32.915  17.586   2.821
61206W        W20467  32.068   1.319   4.700
61207W        W20468  31.898  36.849   3.701
61208W        W20469  15.734  11.324  11.054
61209W        W20470  17.300  37.367   1.362
61210W        W20471  40.361   6.843  14.301
61211W        W20472   0.466  17.092   3.864
61212W        W20473  21.567  33.611   0.904
61213W        W20474   2.811  10.285  11.999
61214W        W20475  41.917  27.088   3.348
61215W        W20476  35.390   1.456  11.385
61216W        W20477  29.433   2.286   1.759
61217W        W20478  44.972  29.589  14.476
61218W        W20479  10.181  23.069  12.433
61219W        W20480   0.377  19.111  11.927
61220W        W20481  21.248  43.510  13.037
61221W        W20482  10.178   7.273   2.215
61222W        W20483  33.391  35.983   0.798
61223W        W20484   6.350  26.096  13.432
61224W        W20485  10.298  11.242   4.621
61225W        W20486  23.105  27.081   3.856
61226W        W20487   1.776  12.842  10.522
61227W        W20488  16.217  35.941   4.666
61228W        W20489   7.353  14.307   4.256
61229W        W20490  17.621  14.296  10.594
61230W        W20491  28.126  22.710   4.633
61231W        W20492   9.776  24.520   2.372
61232W        W20493   5.317  11.243  10.914
61233W        W20494  22.036   6.266  14.000
61234W        W20495  19.709   0.781   0.891
61235W        W20496  17.154  40.004   1.302
61236W        W20497  35.452  23.122  13.313
61237W        W20498   4.286   4.701   4.764
61238W        W20499  20.701   2.906  11.954
61239W        W20500  41.004  29.047  14.990
61240W        W20501  10.335  15.239   0.943
61241W        W20502   2.321   3.370   4.833
61242W        W20503  31.932   5.870   3.346
61243W        W20504  29.432  31.611  12.456
61244W        W20505  31.577   5.781   2.816
61245W        W20506  18.226  10.316   9.926
61246W        W20507  15.710   8.873  14.769
61247W        W20508  27.166  18.652  10.575
61248W        W20509  18.680  42.291   3.778
61249W        W20510  39.904  32.523   1.424
61250W        W20511   8.756  34.507  14.283
61251W        W20512   6.316  36.952  14.020
61252W        W20513   5.905  40.963  13.453
61253W        W20514   2.751  19.648  14.871
61254W        W20515  33.512   8.175   1.439
61255W        W20516   4.838   8.878   3.653
61256W        W20517  12.359  34.551   1.836
61257W        W20518  27.020   2.327   0.363
61258W        W20519   0.324  11.711   2.250
61259W        W20520  24.518  15.125   3.361
61260W        W20521  33.119   7.244  11.866
61261W        W20522   8.260  31.935   4.135
61262W        W20523   3.367  34.064   3.380
61263W        W20524  28.073  43.497   2.403
61264W        W20525   7.212  19.045  14.954
61265W        W20526   1.826  17.166  11.001
61266W        W20527   5.709  26.986   2.864
61267W        W20528  17.107  34.376   4.276
61268W        W20529  24.225   5.913   1.767
61269W        W20530   9.700  40.304   4.200
61270W        W20531  13.140  23.021  12.532
61271W        W20532  41.446  33.959   0.445
61272W        W20533  11.371  38.048   4.677
61273W        W20534   3.881  14.155  12.942
61274W        W20535  24.547  38.540   2.891
61275W        W20536   0.308  41.319   4.686
61276W        W20537   7.405   6.679  13.518
61277W        W20538  22.071  20.155   4.684
61278W        W20539  12.853  29.543  10.034
61279W        W20540  34.023  32.461   0.950
61280W        W20541   2.466  37.943  13.541
61281W        W20542  34.871  21.083   5.209
61282W        W20543   5.217  44.384   4.122
61283W        W20544  11.628  33.450   3.158
61284W        W20545  20.765  43.394   4.755
61285W        W20546  35.062   0.368  12.561
61286W        W20547  38.832   4.210  11.091
61287W        W20548  17.176  22.196   2.187
61288W        W20549   3.857  16.596  14.320
61289W        W20550   9.879   8.673  14.279
61290W        W20551  17.711  35.002  13.012
61291W        W20552   3.915  29.457   4.180
61292W        W20553  36.868   8.876   2.897
61293W        W20554  26.189   4.300   3.178
61294W        W20555  26.493  40.840  13.308
61295W        W20556  40.937   5.868  14.955
61296W        W20557  20.079  28.963   3.366
61297W        W20558  43.883  39.928   4.671
61298W        W20559  28.626   2.808   0.329
61299W        W20560  38.881   0.969  11.438
61300W        W20561  29.981  19.094   4.138
61301W        W20562  21.641  33.496   1.839
61302W        W20563  33.997   9.827   0.901
61303W        W20564  31.540  29.976   2.208
61304W        W20565   5.264  26.606  14.794
61305W        W20566  20.525  22.659   0.254
61306W        W20567  30.433  30.956  10.566
61307W        W20568  31.044  26.699  14.971
61308W        W20569  43.505  19.215  12.003
61309W        W20570  36.350  12.246  11.405
61310W        W20571  33.575  16.724  13.876
61311W        W20572   8.387  34.933   3.738
61312W        W20573  42.404  43.920  10.586
61313W        W20574  20.658   8.199  11.985
61314W        W20575   7.235  33.591   4.252
61315W        W20576  31.462  44.867  10.468
61316W        W20577  18.163  12.328  10.483
61317W        W20578  26.040  32.405   4.204
61318W        W20579  29.423   6.689  11.944
61319W        W20580  17.257  33.493  10.022
61320W        W20581  29.434  10.190  11.516
61321W        W20582  14.184   1.860  13.812
61322W        W20583  30.607  31.476   4.618
61323W        W20584  20.639   0.258   3.285
61324W        W20585  26.167  42.363   3.331
61325W        W20586   1.407  15.203  14.789
61326W        W20587  24.495  13.676  10.508
61327W        W20588  35.978  27.572  14.898
61328W        W20589  20.055  33.429  13.372
61329W        W20590   6.361   8.770  10.429
61330W        W20591  20.744  10.746   1.281
61331W        W20592  31.559  26.503  12.879
61332W        W20593  13.733  10.852   4.712
61333W        W20594  33.458  37.906   0.887
61334W        W20595  22.631  28.448  13.885
61335W        W20596  17.253  20.527  13.911
61336W        W20597  12.783  37.387   3.233
61337W        W20598  20.536  32.074  11.602
61338W        W20599  15.778  14.268  12.864
61339W        W20600  16.615   7.869   4.349
61340W        W20601  20.677  20.754  13.540
61341W        W20602  41.314  37.077   3.756
61342W        W20603  27.472   4.826   2.774
61343W        W20604  12.140  40.864  11.123
61344W        W20605   3.955  24.611  12.088
61345W        W20606  35.470   2.299   2.724
61346W        W20607  22.174  16.204  13.800
61347W        W20608  35.879  19.612  13.314
61348W        W20609  29.008  17.121   2.419
61349W        W20610  34.415  32.129  12.388
61350W        W20611   3.805  19.232   0.420
61351W        W20612  10.367  14.720   0.322
61352W        W20613  36.477   6.409  14.778
61353W        W20614  38.544  11.299  11.952
61354W        W20615  23.661  39.345   0.836
61355W        W20616  27.122  10.757  11.078
61356W        W20617  20.193  26.640  12.074
61357W        W20618  26.620  15.782  13.416
61358W        W20619  13.158  33.566  12.351
61359W        W20620  27.485  42.955   1.878
61360W        W20621   2.439  44.772   3.766
61361W        W20622  12.695  34.448  13.308
61362W        W20623  17.600  25.974   2.667
61363W        W20624   4.852  27.077  10.544
61364W        W20625  39.470  19.062   1.214
61365W        W20626  17.671  38.505   2.295
61366W        W20627  21.063  23.649   1.322
61367W        W20628  28.942   6.391   1.805
61368W        W20629  37.915   1.325  11.911
61369W        W20630  15.192  42.287   2.846
61370W        W20631  25.976   5.756   4.736
61371W        W20632  43.293   2.360   0.403
61372W        W20633  23.494  22.593  12.958
61373W        W20634  32.124  27.028   3.348
61374W        W20635  15.151  39.329  14.850
61375W        W20636   7.725  18.257  10.032
61376W        W20637  36.078  15.105  11.553
61377W        W20638  31.917  17.132  14.277
61378W        W20639  34.069  37.433  13.413
61379W        W20640  31.988  40.875   3.861
61380W        W20641  19.751  41.919   4.240
61381W        W20642   5.243  34.056  12.868
61382W        W20643  11.791  13.678   0.819
61383W        W20644   2.810   3.722   4.295
61384W        W20645  17.209  10.163  11.888
61385W        W20646   9.727  21.199  10.622
61386W        W20647  27.164  15.733  14.309
61387W        W20648  10.724   7.826  12.923
61388W        W20649   6.197  40.451   4.768
61389W        W20650  11.747   6.362  13.402
61390W        W20651  44.873  44.004  14.430
61391W        W20652  21.713  15.582   1.933
61392W        W20653  21.242  40.481   3.248
61393W        W20654   0.447  12.135   1.925
61394W        W20655   9.164  43.771   4.219
61395W        W20656  16.144  22.061   2.898
61396W        W20657   4.800  11.317  13.492
61397W        W20658  21.667  24.673  11.037
61398W        W20659  18.085  24.977  14.383
61399W        W20660  33.881  26.557  12.938
61400W        W20661  32.527  28.944  10.547
61401W        W20662  14.610   8.676   2.740
61402W        W20663  26.464  10.303  11.995
61403W        W20664  41.892  31.002  13.981
61404W        W20665  14.131  10.729   3.299
61405W        W20666   7.723  15.624  11.022
61406W        W20667  20.106  20.134   0.253
61407W        W20668  18.136  12.322   4.355
61408W        W20669  34.428   4.753  13.988
61409W        W20670   0.286  36.936  11.446
61410W        W20671  33.488   3.236   0.361
61411W        W20672  20.133  25.581  13.868
61412W        W20673  42.466   0.444  14.355
61413W        W20674  40.917  15.293   1.313
61414W        W20675  39.537  24.638  12.352
61415W        W20676   6.295  32.540   2.307
61416W        W20677  18.240  23.554   2.811
61417W        W20678   9.176  38.993  14.791
61418W        W20679   1.756  19.171  12.916
61419W        W20680  34.032   6.846   5.671
61420W        W20681  14.595   7.296   3.297
61421W        W20682   9.205  26.644  13.884
61422W        W20683  10.201  18.617  10.582
61423W        W20684  12.697   0.964  11.888
61424W        W20685  41.489  38.870  12.566
61425W        W20686  11.156   0.342  10.490
61426W        W20687  26.981  24.631   4.664
61427W        W20688  42.404  16.084   1.876
61428W        W20689  13.316  12.812   3.176
61429W        W20690  41.809   3.900  14.778
61430W        W20691   3.376   8.829   4.213
61431W        W20692  21.722   5.729   1.819
61432W        W20693  36.471  36.931   1.928
61433W        W20694  11.165  43.507   0.408
61434W        W20695  18.089  34.431  12.031
61435W        W20696  36.859   5.835  11.024
61436W        W20697   2.398  26.491  12.468
61437W        W20698   3.856  44.846  12.395
61438W        W20699   1.370  41.789   1.387
61439W        W20700  14.144  28.166  13.525
61440W        W20701  29.143  37.862   2.709
61441W        W20702  36.418  33.916  11.411
61442W        W20703  28.168  36.420   3.200
61443W        W20704  19.276   2.465  14.862
61444W        W20705  18.725  35.089   4.749
61445W        W20706  37.005  11.763   0.922
61446W        W20707  34.928   9.776  14.492
61447W        W20708   0.313   1.242  14.296
61448W        W20709  35.444   3.456  11.952
61449W        W20710  23.182  38.530   0.872
61450W        W20711  21.630  44.964   0.766
61451W        W20712  42.414  29.960   3.339
61452W        W20713  43.911  41.312  13.991
61453W        W20714  12.252   2.912  12.848
61454W        W20715  24.645   9.830  13.846
61455W        W20716  24.558  13.824  13.938
61456W        W20717  39.434  22.046   4.256
61457W        W20718  38.366  18.181  10.107
61458W        W20719  20.086  40.907   1.898
61459W        W20720  18.711  32.116  10.985
61460W        W20721  43.974  35.053  14.836
61461W        W20722  41.797  29.005   9.595
61462W        W20723  16.640  25.625   0.389
61463W        W20724  26.661  44.403  13.502
61464W        W20725  19.060  17.286  10.408
61465W        W20726  12.737  22.131  12.962
61466W        W20727  38.028  32.605  12.942
61467W        W20728  31.623  19.171  13.970
61468W        W20729  27.081   3.419  13.930
61469W        W20730  17.213  37.945  12.474
61470W        W20731  26.672  21.579  12.959
61471W        W20732  11.732  14.829  12.035
61472W        W20733   4.352  23.118   1.441
61473W        W20734  16.694  41.022   2.241
61474W        W20735  13.694   7.312  13.459
61475W        W20736   3.738  43.498  10.442
61476W        W20737  21.226   7.222  14.275
61477W        W20738   4.903   2.790  14.284
61478W        W20739   7.722  37.519  14.310
61479W        W20740  22.075   8.661   0.966
61480W        W20741   5.722  41.953  12.056
61481W        W20742  18.716   1.874   3.185
61482W        W20743  18.275  24.072   3.668
61483W        W20744   8.249  39.361   0.795
61484W        W20745   8.321  30.965  10.635
61485W        W20746  23.542   8.330   3.268
61486W        W20747  38.845  35.428  12.569
61487W        W20748  18.570  36.587   1.755
61488W        W20749  44.495   1.813  10.133
61489W        W20750  14.196  19.204  11.993
61490W        W20751  32.544  37.524   4.792
61491W        W20752   1.339   5.827   0.332
61492W        W20753   1.844  25.207  14.018
61493W        W20754   2.730   9.257  10.453
61494W        W20755  18.755  26.063  13.060
61495W        W20756  11.254  21.585  13.391
61496W        W20757  18.569  13.130   1.848
61497W        W20758   4.433  18.195  10.472
61498W        W20759  39.426   0.385  11.508
61499W        W20760  44.987   4.735   2.745
61500W        W20761  14.187  42.809  11.606
61501W        W20762  12.843  31.971   0.905
61502W        W20763  41.858  41.347  13.359
61503W        W20764  31.544   9.759  14.447
61504W        W20765  19.564  22.111   9.940
61505W        W20766  19.278  17.087   5.710
61506W        W20767  15.297   0.317   4.265
61507W        W20768  13.725   7.178   5.162
61508W        W20769   8.741  27.582   4.753
61509W        W20770  38.342  20.643  10.969
61510W        W20771  10.373  31.471   4.219
61511W        W20772  15.799  13.126  11.937
61512W        W20773  37.086  18.658   3.727
61513W        W20774   6.809  21.091  12.907
61514W        W20775  31.563  21.087  14.840
61515W        W20776  31.641  24.051   0.927
61516W        W20777  22.703   8.818   4.673
61517W        W20778   0.348  20.708   0.377
61518W        W20779   2.458  17.126  10.971
61519W        W20780  23.628  29.572   1.933
61520W        W20781  23.591   1.881  11.994
61521W        W20782  37.022   3.350   3.769
61522W        W20783  22.060   7.861  11.051
61523W        W20784  32.900  31.522   0.420
61524W        W20785  30.435  24.214   0.936
61525W        W20786  19.557  42.525   1.818
61526W        W20787  42.421  14.783  12.002
61527W        W20788  34.978  34.967  14.344
61528W        W20789   3.344  22.068  12.917
61529W        W20790  11.866  17.235   3.328
61530W        W20791  35.365  23.241   0.339
61531W        W20792  23.530  37.395  14.472
61532W        W20793   9.769  33.451  13.844
61533W        W20794  19.701  34.976   2.247
61534W        W20795  34.436   4.906  11.023
61535W        W20796  14.298  21.208   0.914
61536W        W20797  16.664  15.803  13.892
61537W        W20798  44.835   5.909  14.971
61538W        W20799  33.534  36.926   1.371
61539W        W20800  42.850   0.888   2.725
61540W        W20801  40.869  40.925  12.919
61541W        W20802   0.275  38.945  10.595
61542W        W20803   9.767  19.665   2.682
61543W        W20804  15.152  22.149   0.751
61544W        W20805  28.114  29.471   2.181
61545W        W20806  32.539  17.774   2.662
61546W        W20807  25.003  20.755  11.125
61547W        W20808  37.538  23.718   2.313
61548W        W20809  21.516  43.309  12.046
61549W        W20810  26.053  16.709  10.598
61550W        W20811  10.378  18.220  13.923
61551W        W20812   4.831   3.216   2.901
61552W        W20813  27.571  12.611   3.749
61553W        W20814   8.720  25.620   1.902
61554W        W20815  40.001  32.078  14.938
61555W        W20816  13.670  29.613  11.880
61556W        W20817   5.878   5.763   2.389
61557W        W20818  39.051  19.600   1.895
61558W        W20819   9.768  18.295  12.362
61559W        W20820   7.722  21.700  13.401
61560W        W20821  33.433  13.148   1.331
61561W        W20822  39.930  30.477   4.322
61562W        W20823  24.667  39.532  13.029
61563W        W20824  14.243  25.512  11.431
61564W        W20825  33.464  16.180   0.430
61565W        W20826  13.295  24.081  12.867
61566W        W20827   6.380  13.754   3.220
61567W        W20828  11.326  22.161   2.817
61568W        W20829  14.673  11.860   2.705
61569W        W20830  29.598  39.515  13.825
61570W        W20831   3.837  37.512   1.396
61571W        W20832  20.604   9.877   2.340
61572W        W20833  11.251  41.420   3.229
61573W        W20834  39.854  38.057  14.951
61574W        W20835   5.203  27.491   0.455
61575W        W20836  42.291  27.472  11.562
61576W        W20837   1.381  34.032   2.293
61577W        W20838  27.053  42.896  14.796
61578W        W20839  42.023  32.113   2.345
61579W        W20840  31.637  13.130   0.428
61580W        W20841  25.052   2.413   5.691
61581W        W20842  44.941  34.419   3.300
61582W        W20843  12.835  21.748   0.762
61583W        W20844  25.047  23.591  14.007
61584W        W20845  36.571  17.585   1.211
61585W        W20846  42.397   1.394  11.395
61586W        W20847  21.071   9.656  13.353
61587W        W20848  19.280   7.231  13.941
61588W        W20849  41.991  18.648   4.257
61589W        W20850  31.427  20.706  10.568
61590W        W20851   6.220   5.208  14.958
61591W        W20852  39.904  42.923  14.935
61592W        W20853   9.740  42.935   3.796
61593W        W20854  13.817   0.854  12.473
61594W        W20855  28.573   7.193   4.323
61595W        W20856  16.228  21.705   3.317
61596W        W20857   3.446  40.003   4.730
61597W        W20858  25.022  15.813  14.426
61598W        W20859  26.968   8.750  11.921
61599W        W20860  35.883  28.080   3.265
61600W        W20861   1.778  26.649   5.197
61601W        W20862  25.662  14.666   0.391
61602W        W20863  36.542  12.851  13.997
61603W        W20864  25.708  28.174  11.573
61604W        W20865   4.817   1.275   3.639
61605W        W20866  13.732  22.186   4.644
61606W        W20867  28.156  15.699  14.968
61607W        W20868  42.013  17.138  11.431
61608W        W20869   2.407   1.261   3.758
61609W        W20870   7.871  36.880  11.083
61610W        W20871   8.401  44.383  10.975
61611W        W20872  42.860  29.032  13.351
61612W        W20873  39.431  22.532  10.645
61613W        W20874   7.242  19.754   0.757
61614W        W20875  41.888  11.794  10.907
61615W        W20876  31.545  22.728  11.514
61616W        W20877  43.798  27.179   2.189
61617W        W20878  30.106  41.808  12.990
61618W        W20879   1.819   3.313   9.928
61619W        W20880  20.537  34.579   4.838
61620W        W20881  28.071  26.588   3.734
61621W        W20882   8.281  30.644   0.953
61622W        W20883  38.481  11.738   3.630
61623W        W20884  21.534  10.819   4.772
61624W        W20885  16.729  30.159  12.863
61625W        W20886  39.967   9.370  14.429
61626W        W20887  26.085  20.651   4.747
61627W        W20888  13.264   6.386   0.438
61628W        W20889  12.357  23.115   3.253
61629W        W20890   3.722  34.113   3.694
61630W        W20891   0.454  10.665  12.915
61631W        W20892  19.249  34.940   3.335
61632W        W20893  37.014  13.228  11.086
61633W        W20894  15.732  24.052   1.255
61634W        W20895   6.820  34.401   1.849
61635W        W20896  23.495  20.644   0.422
61636W        W20897  43.845  22.709   3.262
61637W        W20898  16.173  10.259  11.478
61638W        W20899  15.281  40.886   4.728
61639W        W20900  40.822  25.092  12.072
61640W        W20901  37.928  27.187  11.860
61641W        W20902  44.772  31.946  11.909
61642W        W20903  32.580  41.530   3.363
61643W        W20904   1.954   5.819  14.789
61644W        W20905  12.688  43.438   0.453
61645W        W20906   4.320  36.966   3.733
61646W        W20907  14.751  30.495  11.887
61647W        W20908  17.083   3.785  14.338
61648W        W20909  44.401   6.810  12.906
61649W        W20910  44.475  20.128  10.985
61650W        W20911  15.747  10.802  12.969
61651W        W20912  42.923   9.333   4.113
61652W        W20913  28.154   4.774  10.625
61653W        W20914   8.671   3.760   2.777
61654W        W20915  32.137  16.792   1.868
61655W        W20916  11.728  29.995   4.813
61656W        W20917   5.302  37.464  10.927
61657W        W20918   4.447  30.950   1.896
61658W        W20919  17.267  37.851  10.543
61659W        W20920  12.631   4.766   4.667
61660W        W20921   2.850  18.276  10.586
61661W        W20922   4.328  17.224  12.984
61662W        W20923   3.316  39.808  14.375
61663W        W20924   3.349  17.129   0.325
61664W        W20925  44.314  43.844  10.980
61665W        W20926   2.749  20.260   2.839
61666W        W20927   0.967  15.668  12.497
61667W        W20928  24.020   8.748  13.548
61668W        W20929  39.818  20.626   2.863
61669W        W20930  43.839   6.867  11.886
61670W        W20931   9.261  19.666   0.816
61671W        W20932  24.693  42.883   3.710
61672W        W20933   2.727   5.276  11.911
61673W        W20934  12.769   6.291   0.844
61674W        W20935  19.048   3.215   1.805
61675W        W20936   0.881  27.064  10.562
61676W        W20937  10.879  40.333   0.914
61677W        W20938   3.879  17.607  13.415
61678W        W20939  43.466   7.904  10.943
61679W        W20940  13.206  44.498  14.828
61680W        W20941  41.042  20.260   0.300
61681W        W20942  12.830   1.738  13.399
61682W        W20943   5.340  28.109   3.720
61683W        W20944   2.782  31.594  13.473
61684W        W20945  19.224  22.696   1.311
61685W        W20946  14.263  14.647  12.399
61686W        W20947  36.570  12.802  14.871
61687W        W20948  11.647  31.908   3.208
61688W        W20949   4.910  17.106   0.740
61689W        W20950  19.563   5.298   2.797
61690W        W20951   0.952  37.076  12.079
61691W        W20952  18.072   7.688   1.220
61692W        W20953   9.777  22.145   3.231
61693W        W20954  20.228  13.787  14.900
61694W        W20955   6.890  20.584  14.896
61695W        W20956  34.034   2.266  14.782
61696W        W20957  22.154   7.313   1.296
61697W        W20958  28.436  13.236  13.861
61698W        W20959  31.484  23.004  11.989
61699W        W20960  32.971  36.866  11.971
61700W        W20961  37.031  14.782  13.910
61701W        W20962  14.770  25.104  11.883
61702W        W20963  40.506  43.944   3.781
61703W        W20964   0.321  14.706   3.723
61704W        W20965  34.443   5.215  10.524
61705W        W20966  34.115  11.866  11.078
61706W        W20967  24.556  42.469   3.350
61707W        W20968  12.207   6.386   4.728
61708W        W20969  13.294   7.795   0.949
61709W        W20970  26.194  35.580   1.293
61710W        W20971  12.844  34.022   2.311
61711W        W20972   5.803  10.194  13.339
61712W        W20973  24.153  19.645  14.772
61713W        W20974  19.619  22.149   0.909
61714W        W20975  27.616   8.213  10.938
61715W        W20976   5.778  23.600  10.427
61716W        W20977  43.390   7.175   2.685
61717W        W20978   0.986  43.374  11.964
61718W        W20979  35.893  13.691  13.474
61719W        W20980   6.392  25.971   4.648
61720W        W20981  34.448  27.178   3.386
61721W        W20982   1.469  17.728   4.646
61722W        W20983  32.901  22.092  14.894
61723W        W20984  23.664  15.319  14.984
61724W        W20985  11.680  25.468  11.520
61725W        W20986  24.125  44.977  14.487
61726W        W20987  29.035   6.245   1.333
61727W        W20988  39.031   5.830   3.670
61728W        W20989  10.777  22.997  12.535
61729W        W20990  21.234  23.513  11.017
61730W        W20991  27.143  37.491   5.308
61731W        W20992   2.863  32.441   1.901
61732W        W20993  14.798  32.885  11.388
61733W        W20994   9.343  21.707  14.871
61734W        W20995  13.317  40.989   0.834
61735W        W20996  41.944  21.125  13.894
61736W        W20997  11.630  11.196   3.666
61737W        W20998  14.186  32.941  12.533
61738W        W20999  38.490   3.421   0.387
61739W        W21000  44.371  34.920  11.971
61740W        W21001   3.717  39.021   4.127
61741W        W21002  39.518  34.958   2.853
61742W        W21003  40.951  37.077   4.326
61743W        W21004  37.084  22.143   0.964
61744W        W21005   5.333  43.280   0.736
61745W        W21006  26.025  26.983  12.904
61746W        W21007  41.462   1.244  10.912
61747W        W21008  29.504   4.833  11.084
61748W        W21009  14.281   4.366  10.469
61749W        W21010   4.798  32.632  12.358
61750W        W21011  21.677   7.781   0.440
61751W        W21012  34.582  38.026  13.872
61752W        W21013  11.245  17.082  13.355
61753W        W21014   1.292  44.829  11.039
61754W        W21015  23.574  21.564   1.236
61755W        W21016  43.996   3.288  11.871
61756W        W21017  17.662  32.457   2.337
61757W        W21018  17.283   6.841   1.906
61758W        W21019  28.961  35.577   3.235
61759W        W21020  11.752  27.139  11.495
61760W        W21021  30.513   7.200  13.920
61761W        W21022  43.886   5.306   3.357
61762W        W21023  26.662  17.206  13.997
61763W        W21024   9.276   0.942  12.006
61764W        W21025  42.391   1.313  13.373
61765W        W21026  24.628  25.064  14.920
61766W        W21027  22.080   4.929  14.812
61767W        W21028  28.452  14.589  11.967
61768W        W21029  18.742  20.727  10.514
61769W        W21030  27.104  28.951  13.842
61770W        W21031   8.792  40.355   4.209
61771W        W21032  28.552  26.602   4.304
61772W        W21033  25.153  27.627   1.285
61773W        W21034   7.891  36.893   3.263
61774W        W21035  18.050   8.332  10.936
61775W        W21036  23.195   6.817  11.044
61776W        W21037  29.025  34.901  12.383
61777W        W21038   5.338  33.966  14.999
61778W        W21039  17.642  38.500   4.718
61779W        W21040  23.172  20.604  13.808
61780W        W21041  31.133  14.822   4.165
61781W        W21042  15.141  18.223  12.371
61782W        W21043  42.844  35.995   0.728
61783W        W21044  39.031  33.422   3.815
61784W        W21045  43.790  12.731   0.781
61785W        W21046  34.101  14.117   4.235
61786W        W21047   8.264  27.043   4.219
61787W        W21048  17.298  17.780  11.089
61788W        W21049  39.412  25.988   0.269
61789W        W21050  38.557  12.805   0.761
61790W        W21051  42.475  15.586  11.113
61791W        W21052  14.183  43.270   3.758
61792W        W21053  16.291  31.594  11.113
61793W        W21054  29.002  13.229  13.315
61794W        W21055   4.305  14.798   3.292
61795W        W21056  35.096  26.484  13.890
61796W        W21057  28.151  16.579  12.855
61797W        W21058  36.512  35.895   5.267
61798W        W21059  33.575  16.727  11.864
61799W        W21060  27.072  30.627   1.718
61800W        W21061  28.094  27.628  12.074
61801W        W21062  18.578  34.410  11.541
61802W        W21063  10.660  33.615   3.319
61803W        W21064  18.707  27.154   5.162
61804W        W21065   5.401   7.262  11.460
61805W        W21066  15.252   9.816   1.401
61806W        W21067  24.066  38.948  11.909
61807W        W21068  18.264  15.579  14.847
61808W        W21069  35.552   6.385  12.561
61809W        W21070  18.061  20.542   1.393
61810W        W21071  19.771  16.238   4.668
61811W        W21072   8.867  26.986   1.427
61812W        W21073  40.011  28.604  11.379
61813W        W21074   8.713  13.735  13.408
61814W        W21075  23.156  18.654   0.789
61815W        W21076  39.936  14.649   2.875
61816W        W21077  12.741  18.107  11.399
61817W        W21078  44.393  12.138   2.830
61818W        W21079  13.336  39.904   4.224
61819W        W21080  24.015  14.232   0.390
61820W        W21081  12.322  39.927  13.356
61821W        W21082   3.290  38.967  14.508
61822W        W21083  15.639  42.020  13.998
61823W        W21084  44.292  22.100  13.036
61824W        W21085  20.608  30.002  14.863
61825W        W21086  29.101   0.463  11.533
61826W        W21087  30.123  17.109  12.564
61827W        W21088  14.280  20.243  12.443
61828W        W21089   4.418   8.825   1.695
61829W        W21090  29.469  25.109  13.912
61830W        W21091  20.230  23.200   2.387
61831W        W21092  23.048  32.982  11.016
61832W        W21093  41.954  20.666  13.966
61833W        W21094  11.662  43.811  13.473
61834W        W21095  24.214  32.959   0.389
61835W        W21096  11.838  19.136  14.515
61836W        W21097  27.601  31.044   0.782
61837W        W21098  17.180  30.590  10.998
61838W        W21099  13.737  44.397  14.941
61839W        W21100  42.470  29.461  11.424
61840W        W21101  26.653  19.565   4.285
61841W        W21102  31.427  11.665  14.876
61842W        W21103   2.348  17.736   4.120
61843W        W21104  11.372   5.872  13.944
61844W        W21105  37.555  21.107   0.259
61845W        W21106  44.400  18.227   2.748
61846W        W21107   3.308   7.720   1.875
61847W        W21108  24.977   5.313  14.974
61848W        W21109  39.929  38.374   2.331
61849W        W21110  22.649  38.406  10.618
61850W        W21111   1.740  13.656   3.322
61851W        W21112  25.577   2.812   3.381
61852W        W21113   8.770   2.302   0.855
61853W        W21114  33.904  25.522  12.996
61854W        W21115  40.389  25.136  11.422
61855W        W21116  40.867  34.585  12.038
61856W        W21117  18.263  25.217   2.207
61857W        W21118  41.304  21.619  11.986
61858W        W21119  11.802  42.524  13.315
61859W        W21120  34.919  16.233  12.827
61860W        W21121  29.078   0.853  12.984
61861W        W21122  28.179  21.182   1.760
61862W        W21123  28.951   0.325  13.928
61863W        W21124   3.941  33.436  13.324
61864W        W21125  28.012  33.478  12.088
61865W        W21126  23.066   8.840   4.660
61866W        W21127   1.427   2.450  11.881
61867W        W21128  17.228  15.801  13.452
61868W        W21129  14.607   7.190   2.270
61869W        W21130   6.739   1.472  10.986
61870W        W21131  16.200  22.681  10.979
61871W        W21132  28.659  42.295   1.767
61872W        W21133   7.388  24.671  14.020
61873W        W21134  11.358  33.410  11.572
61874W        W21135  35.476  28.029  10.997
61875W        W21136  40.005  41.424   4.687
61876W        W21137  42.480  27.191   2.717
61877W        W21138  12.155  18.659  12.371
61878W        W21139  38.008  27.670   0.942
61879W        W21140  37.996  10.762  10.510
61880W        W21141  17.162  12.763   5.102
61881W        W21142  43.906   5.235   2.765
61882W        W21143  37.533  23.167   2.357
61883W        W21144  13.208  11.298   3.346
61884W        W21145   8.865  24.184   5.164
61885W        W21146  44.778  28.063  10.593
61886W        W21147  12.670   0.891   1.225
61887W        W21148  40.907  15.123   2.841
61888W        W21149  21.124   7.325  12.852
61889W        W21150  24.507  17.684   0.354
61890W        W21151  26.615  39.927   0.361
61891W        W21152   4.935  16.705  14.376
61892W        W21153  33.607  30.082  11.550
61893W        W21154  31.646  11.660  10.041
61894W        W21155   6.806   3.880  11.113
61895W        W21156  18.276  42.804   4.726
61896W        W21157  32.547  21.609  10.433
61897W        W21158  15.316  41.479  14.993
61898W        W21159   6.708  39.009  11.072
61899W        W21160  37.037  41.970  12.013
61900W        W21161   3.417  31.495   2.251
61901W        W21162  29.580  29.470   0.381
61902W        W21163  36.995  24.698   2.812
61903W        W21164   2.426  34.982  12.890
61904W        W21165  10.291  24.167   2.194
61905W        W21166  10.328  21.175   0.250
61906W        W21167  21.603  39.441   0.747
61907W        W21168  31.481  44.844  14.777
61908W        W21169  30.948  25.667  13.420
61909W        W21170  29.172  37.008   0.457
61910W        W21171   9.317  41.878   2.667
61911W        W21172  28.452  20.763   2.268
61912W        W21173  11.364  34.488  10.922
61913W        W21174  27.137  44.942  10.928
61914W        W21175  12.855  32.925   2.296
61915W        W21176   0.820  42.812   3.792
61916W        W21177  15.174   0.328  10.519
61917W        W21178  32.066  19.139   2.380
61918W        W21179  35.493   3.883   2.412
61919W        W21180  16.092  35.548  11.474
61920W        W21181  20.213   4.328   1.740
61921W        W21182  31.406   9.831   5.637
61922W        W21183  33.990  38.014  12.088
61923W        W21184   8.265  27.510   0.404
61924W        W21185  16.211   3.410   4.756
61925W        W21186   1.922  25.478   3.794
61926W        W21187  29.599  30.419  12.513
61927W        W21188   8.698  11.176  12.924
61928W        W21189  23.570  17.736   3.165
61929W        W21190   0.467  23.692   2.403
61930W        W21191  17.771   4.864  11.899
61931W        W21192  22.601  34.563  11.442
61932W        W21193  44.777  15.097   0.761
61933W        W21194  27.021  19.123  13.363
61934W        W21195   3.392  10.644  10.467
61935W        W21196   6.723   1.392   1.806
61936W        W21197  27.608  24.717   0.479
61937W        W21198   3.758  22.622   0.482
61938W        W21199   7.315   4.779   1.371
61939W        W21200  40.307  26.180  11.510
61940W        W21201  23.551  41.803   3.289
61941W        W21202  21.091  37.066   1.762
61942W        W21203  13.625   9.246   0.828
61943W        W21204   6.720  23.653  12.887
61944W        W21205  40.501   8.786   3.784
61945W        W21206   1.380  38.913   4.680
61946W        W21207  31.456  28.136  10.624
61947W        W21208  26.604  21.646  14.012
61948W        W21209  24.489  24.668   1.912
61949W        W21210  29.575   7.293   5.195
61950W        W21211  39.999  29.519  14.476
61951W        W21212   3.352  27.989  14.404
61952W        W21213  32.414   5.865  13.808
61953W        W21214  17.288  27.684   1.315
61954W        W21215  13.310  36.578  13.459
61955W        W21216  24.637   3.270  14.367
61956W        W21217  11.233  11.807   0.897
61957W        W21218  41.042  10.344   2.790
61958W        W21219  27.191   9.296   4.252
61959W        W21220   7.317  31.922   4.306
61960W        W21221  17.565  36.013  13.808
61961W        W21222   2.864   2.860   1.886
61962W        W21223  32.407  34.962  12.557
61963W        W21224  42.316  29.597   1.222
61964W        W21225  39.851  22.186  13.044
61965W        W21226  39.042   7.860  14.762
61966W        W21227  14.632  32.011  14.340
61967W        W21228  29.147  40.811   3.238
61968W        W21229  14.677  38.879  12.883
61969W        W21230  18.065  20.666   2.315
61970W        W21231   5.392  38.039   4.794
61971W        W21232  10.173   6.200   5.747
61972W        W21233  35.069  18.639   3.682
61973W        W21234  26.056   8.289  14.937
61974W        W21235  35.373  32.987  12.491
61975W        W21236  20.747  15.276  11.098
61976W        W21237   7.307   4.698   2.788
61977W        W21238  33.956  30.450   2.837
61978W        W21239  10.659   1.433  12.033
61979W        W21240  38.371  21.078   9.932
61980W        W21241  33.029   3.325   3.805
61981W        W21242  44.380   9.344   0.326
61982W        W21243   2.313   1.394   2.719
61983W        W21244   7.683  12.248   1.369
61984W        W21245  23.518   1.459  10.901
61985W        W21246  25.140   9.701   3.294
61986W        W21247  33.997   9.653  11.483
61987W        W21248  34.586  18.641   0.939
61988W        W21249  30.622  19.746   2.240
61989W        W21250  30.987  29.556  14.986
61990W        W21251   0.353  23.687  12.975
61991W        W21252  40.896  31.565  11.009
61992W        W21253  29.024  10.653   4.669
61993W        W21254  10.382  10.166   3.845
61994W        W21255  33.110  13.690  11.558
61995W        W21256  26.062   6.751  13.850
61996W        W21257  40.849  23.229   4.127
61997W        W21258  34.077   2.327  11.031
61998W        W21259  29.506  38.903  10.956
61999W        W21260  38.076  36.509  13.868
62000W        W21261  42.890   7.286   1.804
62001W        W21262  18.117  26.189  10.897
62002W        W21263  21.127   1.792   2.847
62003W        W21264   3.771  26.007   0.361
62004W        W21265  42.393  14.335  14.942
62005W        W21266  24.600  10.158   0.326
62006W        W21267  34.443  26.181  10.982
62007W        W21268  42.905   3.878  14.301
62008W        W21269   1.457  34.412   1.832
62009W        W21270  30.498   8.785   4.292
62010W        W21271   7.225  17.620   0.811
62011W        W21272  37.433  24.690  10.598
62012W        W21273   3.259  42.281   0.853
62013W        W21274  42.466   5.831  12.394
62014W        W21275  24.568   6.891   4.319
62015W        W21276  31.063  37.018  14.854
62016W        W21277  10.810  13.299   4.719
62017W        W21278   0.443  42.965  13.482
62018W        W21279  43.840  30.152   4.816
62019W        W21280  32.914   9.664  14.767
62020W        W21281  37.008  30.923   4.598
62021W        W21282  15.134  32.613  14.455
62022W        W21283  31.118  41.315   1.779
62023W        W21284  44.424  28.548   2.400
62024W        W21285  10.879  42.290  12.429
62025W        W21286   0.317  33.986  14.902
62026W        W21287  25.085   3.303  11.984
62027W        W21288   6.217   4.319  12.057
62028W        W21289  37.904  29.635   1.332
62029W        W21290  22.562  30.020   0.480
62030W        W21291  22.610  31.970  10.961
62031W        W21292  28.573  14.600   1.215
62032W        W21293  31.424  31.586  10.895
62033W        W21294  11.250  30.638   2.744
62034W        W21295  24.698  41.359   3.150
62035W        W21296  26.696  13.141   3.733
62036W        W21297  34.527  24.987   2.852
62037W        W21298  30.077  27.962  14.333
62038W        W21299  29.135  29.480  10.958
62039W        W21300   5.704   3.948  13.987
62040W        W21301  10.763   3.340  13.403
62041W        W21302  24.643  26.598   4.609
62042W        W21303  36.060   9.746  11.444
62043W        W21304  10.151  19.120  13.956
62044W        W21305  10.204  20.739   0.759
62045W        W21306   6.754  38.407  12.070
62046W        W21307  40.371   6.217   4.156
62047W        W21308  12.153   4.442   0.739
62048W        W21309  41.803   1.900  14.921
62049W        W21310  38.373  36.502   0.428
62050W        W21311   9.375  40.840   4.725
62051W        W21312  29.523  27.012   2.835
62052W        W21313  14.654  10.206  10.576
62053W        W21314  24.213  40.516  11.560
62054W        W21315  11.231   3.276   4.709
62055W        W21316  21.163   8.314  13.344
62056W        W21317  34.379  12.820  14.277
62057W        W21318  17.299  24.197   5.177
62058W        W21319  44.978  22.047  13.458
62059W        W21320  18.599   7.700  13.865
62060W        W21321   7.787  23.708   2.326
62061W        W21322  44.827  14.308   2.718
62062W        W21323  24.644  37.576   3.346
62063W        W21324  23.619  18.100  12.561
62064W        W21325  20.593  31.566   2.705
62065W        W21326  40.816  43.885  14.003
62066W        W21327  31.478  35.093   1.265
62067W        W21328  31.584  38.017   1.404
62068W        W21329  35.390  15.256   1.443
62069W        W21330   7.220  11.362  14.293
62070W        W21331  15.245  32.023   2.678
62071W        W21332  14.195   5.428  14.290
62072W        W21333  21.596  29.164  12.869
62073W        W21334  17.137  26.152   0.798
62074W        W21335   9.687  20.556   3.833
62075W        W21336  39.019  27.006  12.080
62076W        W21337  38.904  32.482   0.789
62077W        W21338   2.330   0.492   0.794
62078W        W21339  44.917  33.087   1.347
62079W        W21340  30.934  17.618   0.937
62080W        W21341  19.088  14.242   2.336
62081W        W21342   3.429  38.453  12.523
62082W        W21343   0.947   6.780  13.493
62083W        W21344  43.825   1.837   2.356
62084W        W21345  33.492  26.488   1.236
62085W        W21346  12.231  16.745  12.461
62086W        W21347  25.143  40.996   0.249
62087W        W21348  40.915   3.953  11.507
62088W        W21349  16.102  41.859   4.233
62089W        W21350  22.143  24.140   2.371
62090W        W21351  36.369  28.969   3.197
62091W        W21352   6.714  37.577   3.687
62092W        W21353   0.456  20.556   2.253
62093W        W21354  13.185   2.905   1.392
62094W        W21355  30.136   4.287  11.024
62095W        W21356  18.699  30.643   1.210
62096W        W21357  31.970   3.431  12.872
62097W        W21358  23.210  42.388  11.549
62098W        W21359  21.173  27.536  11.988
62099W        W21360  36.912  39.321   4.333
62100W        W21361   4.336  19.670   2.276
62101W        W21362  23.997   0.381  12.355
62102W        W21363  23.508  17.075  12.007
62103W        W21364  27.689   8.192   1.804
62104W        W21365  40.529  32.954   4.673
62105W        W21366  36.004  36.387   4.834
62106W        W21367   7.267  27.086   2.757
62107W        W21368  32.092  19.168   0.884
62108W        W21369  11.341  36.544   0.324
62109W        W21370  35.530  17.647  10.487
62110W        W21371   8.698  13.625   4.637
62111W        W21372  17.151  31.439   4.181
62112W        W21373   9.740  38.335   3.229
62113W        W21374  13.679  16.646  12.999
62114W        W21375  23.180   5.216   4.137
62115W        W21376  44.776  15.170   1.879
62116W        W21377   5.363  44.846   1.731
62117W        W21378   4.797  31.433   3.673
62118W        W21379  26.619   2.337  14.287
62119W        W21380  19.615   1.417  13.005
62120W        W21381   9.234  43.280  12.969
62121W        W21382  23.585  32.892  12.917
62122W        W21383  15.806  21.169  11.107
62123W        W21384  38.824   6.716   4.233
62124W        W21385   3.420  26.666  14.307
62125W        W21386   8.308  10.220  10.952
62126W        W21387  41.384  10.373  11.602
62127W        W21388   5.239  31.583   0.363
62128W        W21389   6.419  43.772  14.309
62129W        W21390  37.988  27.045   5.231
62130W        W21391  29.443  25.122   2.716
62131W        W21392   3.756   3.739  10.610
62132W        W21393  38.874  31.476  13.055
62133W        W21394   4.833  25.207   2.891
62134W        W21395  41.793   1.918   0.924
62135W        W21396   3.889  14.178   2.331
62136W        W21397  22.585  18.608  10.475
62137W        W21398  39.495  33.543   1.446
62138W        W21399  14.268   5.381  10.514
62139W        W21400   7.760  35.444   1.240
62140W        W21401  33.912   7.364  10.051
62141W        W21402  34.002  23.192   2.357
62142W        W21403  32.446  37.464  12.372
62143W        W21404  13.624  16.764   4.183
62144W        W21405  38.571  38.433   4.769
62145W        W21406  40.450  28.006  12.840
62146W        W21407  39.513   2.781   3.757
62147W        W21408  16.073  11.253  13.920
62148W        W21409  43.855   9.261  14.021
62149W        W21410  11.777  29.635   0.474
62150W        W21411  22.207  30.082   1.344
62151W        W21412  19.067  37.876  14.861
62152W        W21413   9.881  24.718   2.685
62153W        W21414  39.821  42.304   3.777
62154W        W21415  23.672  24.685   1.248
62155W        W21416  15.688   1.927  11.008
62156W        W21417  12.284  24.080   0.316
62157W        W21418   8.329  13.732  14.783
62158W        W21419  10.141  37.031   4.724
62159W        W21420  17.612  35.037  14.332
62160W        W21421  40.328  12.125   4.763
62161W        W21422  12.295  10.848   3.182
62162W        W21423  30.444  25.008   5.090
62163W        W21424  32.589  41.803   2.858
62164W        W21425   3.312  32.109  11.386
62165W        W21426  12.742  19.598   2.379
62166W        W21427  18.720  16.759  14.905
62167W        W21428   7.301   4.888  10.488
62168W        W21429  34.397  29.094  12.033
62169W        W21430   0.363  18.637   1.416
62170W        W21431  44.466   9.813  10.437
62171W        W21432  41.420  44.409   4.776
62172W        W21433  32.413  31.040  11.372
62173W        W21434  26.123  30.459  13.060
62174W        W21435  31.941  34.551   1.865
62175W        W21436  30.601   2.281  14.766
62176W        W21437   3.231   2.813   2.284
62177W        W21438  36.968   5.212  13.867
62178W        W21439  39.863   5.749   1.889
62179W        W21440   2.443   1.822   4.713
62180W        W21441  40.834  29.455  12.392
62181W        W21442  24.001  18.238  14.805
62182W        W21443   3.257  20.033  12.404
62183W        W21444   8.782  40.340  12.045
62184W        W21445  12.619  40.014   0.768
62185W        W21446  35.598  18.732  12.469
62186W        W21447  25.209  14.666   5.282
62187W        W21448  19.103   4.747   0.758
62188W        W21449  15.594   9.331   4.170
62189W        W21450  20.264  31.437  10.612
62190W        W21451  35.100  36.058  13.337
62191W        W21452  17.633  41.897   4.160
62192W        W21453  25.200  35.877  13.545
62193W        W21454  28.553   6.354   0.311
62194W        W21455  43.938   7.871  11.414
62195W        W21456  17.076  26.615   2.731
62196W        W21457  11.743  18.597  13.875
62197W        W21458  23.586  16.792  13.051
62198W        W21459  34.386  43.466   1.222
62199W        W21460   9.175  29.040   3.239
62200W        W21461  41.927  40.420  10.511
62201W        W21462  43.423  41.404   4.123
62202W        W21463  14.689   7.324  13.436
62203W        W21464  34.961  22.216   1.756
62204W        W21465  41.889  42.778   4.276
62205W        W21466  38.013  18.126   4.826
62206W        W21467  16.082  38.039   1.750
62207W        W21468   5.788  36.495  14.388
62208W        W21469  37.453  35.084  13.521
62209W        W21470  21.022  24.064   5.320
62210W        W21471  17.614   6.824  10.412
62211W        W21472  44.939   0.807  13.800
62212W        W21473   3.448  16.766   2.353
62213W        W21474  22.205  41.881  11.427
62214W        W21475   9.790  29.970  11.582
62215W        W21476  12.677  26.660  11.021
62216W        W21477  21.234  40.530  11.406
62217W        W21478  10.250   5.852   5.627
62218W        W21479   5.690  43.990  11.570
62219W        W21480  42.890   2.810  11.406
62220W        W21481  44.775  33.464  14.902
62221W        W21482  33.420  26.011   4.331
62222W        W21483  16.199  42.907  11.898
62223W        W21484  33.384   4.426  13.417
62224W        W21485   7.822  31.495  13.536
62225W        W21486  37.573  11.238   1.746
62226W        W21487   6.319  11.215  11.570
62227W        W21488  41.912  13.821   4.643
62228W        W21489   6.368  31.513   0.811
62229W        W21490  36.924  33.931  10.573
62230W        W21491   5.794  28.645   1.759
62231W        W21492   5.703  42.346   2.662
62232W        W21493  16.192  36.432  14.031
62233W        W21494  34.435  30.562  12.357
62234W        W21495  43.355  42.368  12.982
62235W        W21496  36.929   1.246  12.379
62236W        W21497   5.854   1.961  13.802
62237W        W21498  16.770   7.774   4.753
62238W        W21499  31.925  18.270  10.939
62239W        W21500  38.464  31.070  13.012
62240W        W21501  20.209  43.000   3.314
62241W        W21502  16.141  29.472  13.524
62242W        W21503  27.499  38.348   3.321
62243W        W21504  14.637  26.475   2.671
62244W        W21505  38.465   2.407  10.595
62245W        W21506  28.050  27.146  14.441
62246W        W21507  19.681  13.192   0.342
62247W        W21508  10.707  35.056  13.372
62248W        W21509  42.423   4.799  10.623
62249W        W21510  39.912  18.165  14.461
62250W        W21511   3.304   7.232  13.963
62251W        W21512  17.215  11.699  11.867
62252W        W21513  28.112   5.768   4.715
62253W        W21514  24.129   0.395  12.902
62254W        W21515  27.983  17.177   3.363
62255W        W21516  41.356  29.060  13.015
62256W        W21517  42.944  43.487   0.886
62257W        W21518  43.367   3.250  12.440
62258W        W21519  41.927  36.990  13.044
62259W        W21520  13.685  44.324  10.138
62260W        W21521   6.702  29.108   0.735
62261W        W21522   8.840  28.948   4.205
62262W        W21523  37.404  41.811  12.566
62263W        W21524  12.772  36.049  11.891
62264W        W21525   5.377  21.124  14.440
62265W        W21526  11.299  15.227  12.019
62266W        W21527   8.222  32.137  12.574
62267W        W21528   4.923  20.211   2.301
62268W        W21529  22.709  42.435   2.767
62269W        W21530  18.244   5.842  14.845
62270W        W21531  28.097  24.653   1.396
62271W        W21532   9.302  18.245  14.315
62272W        W21533  10.654  30.908  12.942
62273W        W21534   4.813  25.148   3.176
62274W        W21535   9.237   0.405   4.637
62275W        W21536  33.906   7.208  14.486
62276W        W21537  30.545  41.524   0.939
62277W        W21538  24.512  20.201  13.503
62278W        W21539  18.211  13.709  11.072
62279W        W21540   1.288  17.120  10.421
62280W        W21541   7.411   4.752   9.486
62281W        W21542   1.239  38.031  14.472
62282W        W21543   9.718  11.305  14.854
62283W        W21544  39.511  40.987  13.980
62284W        W21545  17.210  24.487  13.498
62285W        W21546   0.452  33.967   3.295
62286W        W21547   5.385  25.660   3.179
62287W        W21548  12.670  24.090   1.864
62288W        W21549  29.937  13.821  12.525
62289W        W21550  40.471  25.053  10.949
62290W        W21551  15.101  43.798   1.449
62291W        W21552  31.508   2.871  13.994
62292W        W21553  31.034   6.734   1.325
62293W        W21554   1.966  18.672  12.386
62294W        W21555  36.483  33.523   9.945
62295W        W21556   3.844   1.406  14.923
62296W        W21557  27.690  26.541   4.709
62297W        W21558   9.161  15.256  13.488
62298W        W21559  34.904  30.912   2.229
62299W        W21560  22.534  10.664   1.854
62300W        W21561  15.242  43.779   1.779
62301W        W21562  12.770   3.319   3.685
62302W        W21563  44.394  26.685   3.805
62303W        W21564  39.438  34.076   3.353
62304W        W21565  18.615  24.718   2.387
62305W        W21566  12.666  44.850  11.063
62306W        W21567   1.890  39.063   0.776
62307W        W21568  42.471  25.985  12.344
62308W        W21569  29.457  26.980  10.891
62309W        W21570   5.194  37.400  13.845
62310W        W21571  16.208  37.447   4.640
62311W        W21572  25.524  21.728   3.300
62312W        W21573   8.283   7.785   3.269
62313W        W21574   1.889   7.870  12.947
62314W        W21575   1.252  12.149   3.869
62315W        W21576  12.308  35.913  11.398
62316W        W21577   9.813   4.917   3.269
62317W        W21578  40.506  22.110   0.284
62318W        W21579  13.349  10.174   2.214
62319W        W21580  19.258   4.909   4.642
62320W        W21581  14.191  15.247  14.423
62321W        W21582   5.804  12.754  11.598
62322W        W21583  36.900  36.920   3.731
62323W        W21584  28.505  21.671   3.266
62324W        W21585  33.031  40.841   3.724
62325W        W21586  21.655  10.371  10.014
62326W        W21587  22.719  24.689  10.582
62327W        W21588   7.756  20.122  12.089
62328W        W21589  13.699  31.537  10.492
62329W        W21590  29.625  33.416   9.953
62330W        W21591  32.563  31.121   0.314
62331W        W21592  41.370  11.259  11.106
62332W        W21593   3.798   6.192   2.849
62333W        W21594  36.360  16.169  10.955
62334W        W21595  33.120  35.463  11.951
62335W        W21596  41.977   5.406   0.430
62336W        W21597  33.477  17.069   3.866
62337W        W21598  20.128   7.305   5.197
62338W        W21599   0.360  42.883  10.937
62339W        W21600   5.797  25.683   0.910
62340W        W21601   4.743   8.399   2.721
62341W        W21602  12.118   1.349  13.013
62342W        W21603  41.426   1.416   1.223
62343W        W21604  37.073  41.373  14.971
62344W        W21605  11.662  32.916   0.245
62345W        W21606  20.256  15.745  14.001
62346W        W21607  35.939  40.509   1.863
62347W        W21608   2.744  14.284  12.380
62348W        W21609   9.690  32.549  14.871
62349W        W21610  37.022  15.759  14.799
62350W        W21611  19.692  39.810   0.760
62351W        W21612  18.176   8.221   1.910
62352W        W21613  34.427  45.000   0.909
62353W        W21614  18.153  29.648  13.391
62354W        W21615  42.283  27.663   2.193
62355W        W21616   8.718  41.832  11.552
62356W        W21617  14.655  40.953  13.934
62357W        W21618  18.175   0.327   4.302
62358W        W21619  21.191  13.616  12.368
62359W        W21620  37.375  26.014   2.252
62360W        W21621   3.920  13.231   3.218
62361W        W21622  13.675   1.743  14.387
62362W        W21623  43.393  37.369   1.418
62363W        W21624  26.122  36.080  11.428
62364W        W21625  36.353  14.785   4.181
62365W        W21626  23.556  39.820  12.093
62366W        W21627  20.759  16.128  13.511
62367W        W21628   7.800  14.612  11.871
62368W        W21629  10.173  12.849  11.998
62369W        W21630   5.704  15.746  12.864
62370W        W21631  30.553  42.475   3.674
62371W        W21632  21.701   4.347   0.826
62372W        W21633  44.323  22.731   1.445
62373W        W21634   4.425  39.454   4.216
62374W        W21635  21.702  40.863   0.910
62375W        W21636  19.197   5.367  13.400
62376W        W21637  14.149  14.276   3.223
62377W        W21638  14.290  16.172  13.038
62378W        W21639  22.087  37.456   0.857
62379W        W21640   0.491  37.967  13.389
62380W        W21641   1.895   2.965   3.292
62381W        W21642   0.418   6.918   0.439
62382W        W21643  39.058  13.193   1.266
62383W        W21644  17.088  11.364   3.697
62384W        W21645   9.852   7.248   4.243
62385W        W21646  15.135  39.897  14.943
62386W        W21647  21.254  31.051  13.999
62387W        W21648  24.504   7.320   2.822
62388W        W21649  41.038  37.424   2.330
62389W        W21650  28.941   9.720   1.422
62390W        W21651  41.513  38.925   3.300
62391W        W21652  43.423  18.293  10.535
62392W        W21653   3.830  26.959  10.903
62393W        W21654  10.864  25.501  12.006
62394W        W21655  17.772  13.342  11.902
62395W        W21656  11.860   5.343  12.367
62396W        W21657  14.818  36.500  12.927
62397W        W21658  37.837  27.059  10.586
62398W        W21659  41.425  21.148  11.041
62399W        W21660  36.361  18.638  10.617
62400W        W21661   6.226   2.239   2.260
62401W        W21662  41.815  37.917  10.569
62402W        W21663  37.942  17.302  10.013
62403W        W21664  19.072  18.073  10.124
62404W        W21665  21.713  39.409   2.306
62405W        W21666  29.097  15.314   2.280
62406W        W21667  10.862   1.437  11.091
62407W        W21668  25.028   8.306  14.971
62408W        W21669   7.385  26.553   4.164
62409W        W21670  41.405  15.645  13.364
62410W        W21671  27.003   1.353  10.917
62411W        W21672  16.260  34.091   0.958
62412W        W21673   0.284  25.004   2.784
62413W        W21674  39.449   6.281  12.852
62414W        W21675  37.412  16.167   1.315
62415W        W21676  24.542  25.997  12.378
62416W        W21677   3.917  36.079   1.814
62417W        W21678  19.725  14.274   4.790
62418W        W21679  37.361   0.946  14.496
62419W        W21680  16.301  32.023   0.938
62420W        W21681   3.949  26.986  10.468
62421W        W21682  28.108  34.502   2.332
62422W        W21683  26.042  41.955  11.978
62423W        W21684  32.507  44.894  14.484
62424W        W21685  13.249  16.680   2.784
62425W        W21686   3.865  31.985  12.437
62426W        W21687   2.736  25.600  14.394
62427W        W21688   4.793   5.425  10.157
62428W        W21689  39.506  15.750  10.961
62429W        W21690  29.922   6.682  12.863
62430W        W21691  28.607   0.369   1.319
62431W        W21692  12.806  40.339  11.419
62432W        W21693  26.580   4.913  11.067
62433W        W21694  16.682  39.317  11.070
62434W        W21695  36.459  23.173   0.300
62435W        W21696  44.356  37.580  11.926
62436W        W21697   0.971  37.565  14.355
62437W        W21698   3.454  16.085   4.232
62438W        W21699  16.796  16.302  12.558
62439W        W21700  11.305   8.811  14.311
62440W        W21701  27.127  40.811  14.510
62441W        W21702   7.398  35.549  13.524
62442W        W21703  14.598  13.172   1.245
62443W        W21704  22.103  42.857  12.401
62444W        W21705  17.624  42.498  14.383
62445W        W21706  15.722   0.284   4.176
62446W        W21707  24.016  24.530   4.830
62447W        W21708  22.508   5.808   2.288
62448W        W21709  43.913   5.818  14.951
62449W        W21710  17.113   3.426  10.480
62450W        W21711   3.283  21.676  10.575
62451W        W21712   5.896   4.266  12.935
62452W        W21713  44.839  18.222   0.782
62453W        W21714  40.929  40.894  10.442
62454W        W21715  40.353  21.603   0.827
62455W        W21716  34.890   9.838   5.321
62456W        W21717   5.262  33.471  10.510
62457W        W21718   8.385  29.465   1.813
62458W        W21719  13.724  18.772   3.295
62459W        W21720  28.073  32.417   4.305
62460W        W21721  40.809  28.105  14.790
62461W        W21722  38.461  33.453  13.414
62462W        W21723  34.502  28.614   3.226
62463W        W21724  44.487  16.769   0.401
62464W        W21725  30.470  21.724  13.843
62465W        W21726  21.176  33.586   0.300
62466W        W21727   6.200   8.166  12.897
62467W        W21728  42.504  22.092   4.266
62468W        W21729  16.582  12.307  10.891
62469W        W21730  42.957  32.077   5.224
62470W        W21731  43.873  24.655   3.212
62471W        W21732  13.762  33.883  13.976
62472W        W21733   4.293  21.144   4.221
62473W        W21734  37.902  12.285  12.912
62474W        W21735   3.333  41.039  10.998
62475W        W21736  32.972  25.981  13.414
62476W        W21737  23.102  27.012  10.632
62477W        W21738  43.421  12.637   1.264
62478W        W21739  39.438  17.640   5.705
62479W        W21740  12.610   1.243   2.685
62480W        W21741  27.674  14.800  10.588
62481W        W21742  30.139  23.986  10.413
62482W        W21743  33.064  31.555   3.316
62483W        W21744  28.660   4.735   1.694
62484W        W21745  12.128   2.344   1.293
62485W        W21746   8.343  10.827   3.265
62486W        W21747  31.991  17.275   5.261
62487W        W21748  15.098  20.661  12.831
62488W        W21749  33.935  36.568  14.489
62489W        W21750  24.150  14.764   0.797
62490W        W21751  22.077  42.843  10.060
62491W        W21752  42.352   5.862   2.669
62492W        W21753   4.230  36.944  14.777
62493W        W21754  41.935  27.982   3.777
62494W        W21755  37.424  14.333   4.723
62495W        W21756  16.744  24.580  11.877
62496W        W21757  14.648  32.455  11.375
62497W        W21758  19.126  29.441   2.810
62498W        W21759  22.032  30.977  11.557
62499W        W21760  41.979   3.273   5.322
62500W        W21761  13.257  41.336   3.778
62501W        W21762  25.547  32.399   0.866
62502W        W21763  27.021  28.015  13.312
62503W        W21764   6.276  39.974   2.353
62504W        W21765   5.862   4.230   1.305
62505W        W21766  18.564  19.043  12.823
62506W        W21767  27.495  44.897   3.279
62507W        W21768  42.869  23.526  11.372
62508W        W21769  38.544  32.483  13.009
62509W        W21770  33.947  30.935  11.533
62510W        W21771  16.079   5.717  12.866
62511W        W21772  14.769  39.344   3.775
62512W        W21773  22.044  10.753  14.942
62513W        W21774  20.082   3.720   4.340
62514W        W21775   2.443  39.902  11.123
62515W        W21776  17.622  29.070  12.023
62516W        W21777  42.487  24.097   3.323
62517W        W21778  35.920  41.797  14.864
62518W        W21779  18.155   6.279  11.857
62519W        W21780   2.427  44.914  14.015
62520W        W21781   0.986  14.107   0.866
62521W        W21782  19.556  32.090   4.780
62522W        W21783  28.124  12.786   0.860
62523W        W21784   4.773  12.340   3.650
62524W        W21785  16.749  19.681   0.340
62525W        W21786  26.004  10.861  13.336
62526W        W21787  36.979  38.017   4.704
62527W        W21788  40.851   1.271   4.335
62528W        W21789  28.678  13.204  13.413
62529W        W21790  19.741  15.226   1.874
62530W        W21791   9.160   0.871   3.827
62531W        W21792  27.518  39.377   1.899
62532W        W21793  27.495  16.567   4.151
62533W        W21794  28.633  41.956  11.904
62534W        W21795  35.392  39.433  12.427
62535W        W21796  30.918  21.678   1.443
62536W        W21797  14.753  42.475  12.833
62537W        W21798  16.765  20.184  11.878
62538W        W21799  27.535   5.894   2.691
62539W        W21800   3.880   8.165   1.866
62540W        W21801  33.878  19.547   3.380
62541W        W21802   5.688  21.076  13.997
62542W        W21803   0.775  12.184   4.142
62543W        W21804   1.287  38.955  13.463
62544W        W21805  34.497  20.190  11.057
62545W        W21806  23.036  12.158   4.705
62546W        W21807  17.592  30.423   1.359
62547W        W21808  19.262  44.466   2.788
62548W        W21809  10.142  38.839   1.883
62549W        W21810   2.276  42.333   3.727
62550W        W21811  11.210  38.387   0.351
62551W        W21812  10.346  43.843   3.360
62552W        W21813  42.519  14.201   5.585
62553W        W21814  17.761  28.161   3.671
62554W        W21815  16.248  41.995  12.362
62555W        W21816  33.967  17.240   0.318
62556W        W21817  21.711   8.228   3.207
62557W        W21818  41.444   5.433  14.884
62558W        W21819   9.884  18.292  11.386
62559W        W21820  34.975  44.810  13.422
62560W        W21821  13.286  42.798  10.529
62561W        W21822  10.147   4.896   9.937
62562W        W21823  27.611  41.907  13.513
62563W        W21824  26.022  19.055  11.115
62564W        W21825   5.421  27.589   2.664
62565W        W21826  41.467  42.421  14.846
62566W        W21827  35.878  26.668  11.030
62567W        W21828  24.131   2.767  13.863
62568W        W21829  38.368  36.540   4.338
62569W        W21830  38.978  21.202  13.379
62570W        W21831  15.811  35.089  11.418
62571W        W21832  38.934  23.520  11.862
62572W        W21833  14.667  30.576  12.855
62573W        W21834  10.718  35.411   4.257
62574W        W21835  39.838  23.162  13.410
62575W        W21836  13.802  31.154   0.843
62576W        W21837  32.485  30.467  13.325
62577W        W21838  36.573  39.964   2.807
62578W        W21839  37.408  29.049   2.701
62579W        W21840  11.757  23.651  11.391
62580W        W21841  32.109   9.769  11.891
62581W        W21842  19.141  25.982   4.742
62582W        W21843  10.230   9.651  12.398
62583W        W21844   0.788  37.380   0.834
62584W        W21845  23.531  23.230  13.833
62585W        W21846   0.754  36.521  13.050
62586W        W21847  41.347  35.998   4.597
62587W        W21848   4.843   7.208  13.042
62588W        W21849  41.993  32.497   1.286
62589W        W21850  41.794  29.936  13.969
62590W        W21851  12.345  20.578   3.804
62591W        W21852   2.771  41.868  11.967
62592W        W21853  35.940  11.239   2.735
62593W        W21854  16.738   4.756   3.635
62594W        W21855  22.666  22.127  11.030
62595W        W21856  31.987  35.968   1.355
62596W        W21857  25.639   3.362  13.851
62597W        W21858  19.569   5.377  11.385
62598W        W21859   4.866  28.462   2.211
62599W        W21860  34.607  23.044   2.818
62600W        W21861  13.739  35.974   3.751
62601W        W21862  24.150  20.044  11.515
62602W        W21863  24.028   2.843  10.574
62603W        W21864  38.892  24.615  12.386
62604W        W21865  28.667  24.974   1.364
62605W        W21866  32.405  39.430  12.962
62606W        W21867  38.345  29.067   0.389
62607W        W21868  35.951   3.737  10.618
62608W        W21869  22.576  24.070   0.265
62609W        W21870  35.513  40.361  12.931
62610W        W21871  12.274  31.545   0.960
62611W        W21872  40.873   8.740   3.841
62612W        W21873  37.443  21.262  14.310
62613W        W21874  27.571  27.562  12.094
62614W        W21875   4.720  32.945  10.615
62615W        W21876   2.398  29.655  13.893
62616W        W21877  11.167  31.552  13.061
62617W        W21878   6.875  36.874   3.244
62618W        W21879  43.326  29.010   0.277
62619W        W21880   6.227   9.162  13.336
62620W        W21881  21.590  14.801  14.779
62621W        W21882  31.593  35.968  13.803
62622W        W21883  40.831  23.162  14.317
62623W        W21884  23.498  26.534   0.345
62624W        W21885  21.746  29.586  13.903
62625W        W21886   8.363  11.774   2.368
62626W        W21887  25.532  33.447   4.127
62627W        W21888  13.297   3.253  12.941
62628W        W21889  43.372  34.050   2.832
62629W        W21890  43.868  32.623   1.297
62630W        W21891  17.725   4.750   4.680
62631W        W21892  39.416  23.048  14.967
62632W        W21893  37.004   6.290   3.382
62633W        W21894  42.362  30.524  10.547
62634W        W21895  15.636   9.349  13.382
62635W        W21896  19.585  34.076   4.131
62636W        W21897  42.338  16.073   1.385
62637W        W21898  41.486  27.183   3.249
62638W        W21899  37.958  11.324  10.059
62639W        W21900  21.643  27.963  14.830
62640W        W21901   8.221  38.487   3.355
62641W        W21902  34.036  40.824   2.697
62642W        W21903  37.576   2.436  11.428
62643W        W21904   9.339  17.132   3.229
62644W        W21905  12.197  11.260   3.209
62645W        W21906   6.833   2.347  12.558
62646W        W21907  40.851  17.594  14.809
62647W        W21908  24.569  27.083   0.836
62648W        W21909  25.066  43.492  13.021
62649W        W21910   0.794  42.902  11.910
62650W        W21911  34.120  29.517   4.263
62651W        W21912   4.274   9.681  14.772
62652W        W21913  16.085  26.645  13.919
62653W        W21914  26.581  28.039   4.266
62654W        W21915  35.570  34.007  11.453
62655W        W21916  26.199  26.174   0.247
62656W        W21917  24.153  32.571   0.317
62657W        W21918   4.770  23.066  11.878
62658W        W21919   3.459  39.001  13.816
62659W        W21920  41.859  43.977  13.330
62660W        W21921   9.284   0.304   2.663
62661W        W21922  22.054  25.025   1.791
62662W        W21923  38.897  14.201   5.253
62663W        W21924   4.445  21.530  13.486
62664W        W21925  10.652  28.986   2.759
62665W        W21926  17.560  44.822   1.323
62666W        W21927  35.078  28.436   3.815
62667W        W21928  37.434   4.357   0.256
62668W        W21929  10.717   4.388   0.766
62669W        W21930   1.371   1.279  10.620
62670W        W21931  34.068  31.990   3.175
62671W        W21932   0.819   4.934   3.788
62672W        W21933   8.868   8.318  12.059
62673W        W21934  34.037  23.098   2.703
62674W        W21935  43.351  33.395   3.822
62675W        W21936  16.813  20.631   3.365
62676W        W21937   2.805  24.979  13.418
62677W        W21938  27.579   3.801  11.032
62678W        W21939  40.830  42.798   1.396
62679W        W21940  42.933  37.856   0.799
62680W        W21941   6.339  40.387  12.993
62681W        W21942   2.359  32.425   0.352
62682W        W21943  31.415  44.397   0.272
62683W        W21944  26.952  38.836  12.989
62684W        W21945  11.367   7.294   3.840
62685W        W21946   9.190  28.113   2.339
62686W        W21947  10.368  26.101   3.683
62687W        W21948  26.192  12.245   2.845
62688W        W21949  16.154  32.468  10.446
62689W        W21950  41.444  39.327  10.986
62690W        W21951  38.017   0.937  14.315
62691W        W21952  20.121  20.117   5.310
62692W        W21953   7.282  43.345   4.330
62693W        W21954  33.957  20.661  12.460
62694W        W21955   5.386  31.924   3.827
62695W        W21956  28.939  37.476  12.523
62696W        W21957  30.965   7.724  14.281
62697W        W21958  25.622   9.816   4.818
62698W        W21959  32.520  29.026  13.929
62699W        W21960  30.134  22.104  10.928
62700W        W21961   2.472  28.626  12.558
62701W        W21962  11.805  39.932   1.904
62702W        W21963  44.449  17.786   1.335
62703W        W21964  23.208  28.622  12.962
62704W        W21965   1.376  31.434  10.891
62705W        W21966  26.504  24.544  13.987
62706W        W21967   2.456   9.238   0.874
62707W        W21968  36.507   2.293   2.813
62708W        W21969  16.651  32.065   1.441
62709W        W21970  11.239  36.959  13.979
62710W        W21971  22.601  24.003  14.769
62711W        W21972  22.544   2.320  10.920
62712W        W21973  26.016  29.079   5.288
62713W        W21974  40.875  41.376   3.291
62714W        W21975  39.477  17.593   1.250
62715W        W21976  24.557  18.757   1.735
62716W        W21977  29.567  26.663  13.363
62717W        W21978   3.740   4.861  12.860
62718W        W21979   4.294  24.691   4.680
62719W        W21980  25.558  41.000   3.329
62720W        W21981  18.221  25.649   1.749
62721W        W21982  34.072  15.814   1.448
62722W        W21983  39.808  39.827  10.950
62723W        W21984  15.752  22.612  10.995
62724W        W21985  18.205  29.576  11.994
62725W        W21986  41.308  17.673   0.733
62726W        W21987  37.381   3.867  10.419
62727W        W21988  16.604  27.657  12.481
62728W        W21989  12.848  16.302   0.787
62729W        W21990  41.896  41.948   3.168
62730W        W21991   1.874  27.688   2.802
62731W        W21992   5.239  35.539   0.756
62732W        W21993  11.177   6.720  13.037
62733W        W21994   2.948  38.497  14.772
62734W        W21995  22.056  43.874   1.366
62735W        W21996  24.158  11.672  13.954
62736W        W21997  28.528  23.731   0.734
62737W        W21998  37.356  29.953   3.825
62738W        W21999  26.646   3.293   1.852
62739W        W22000   0.809  26.104   0.475
62740W        W22001  41.293   8.374  13.875
62741W        W22002   2.927   9.802   4.754
62742W        W22003  19.694   4.829   5.238
62743W        W22004   5.898  16.739  11.564
62744W        W22005  22.059  26.513   4.354
62745W        W22006  18.178  11.301   2.223
62746W        W22007  37.047  31.541  10.572
62747W        W22008  11.836  23.050   4.209
62748W        W22009  10.289  33.480   5.272
62749W        W22010  15.166  36.576  11.455
62750W        W22011  40.437  34.863  13.419
62751W        W22012  34.521   1.817  10.451
62752W        W22013   8.751  12.320  13.863
62753W        W22014  38.940  39.980  14.361
62754W        W22015  16.108  25.645   5.714
62755W        W22016  43.496   6.286   2.226
62756W        W22017  18.771  12.764  13.964
62757W        W22018   6.263  43.427   1.325
62758W        W22019   0.251  20.683  14.329
62759W        W22020  34.416  10.195   5.694
62760W        W22021  44.990  14.111   4.178
62761W        W22022  30.020  15.766  12.473
62762W        W22023   8.693  22.742  13.912
62763W        W22024  22.064  35.571  12.560
62764W        W22025  40.972  18.166   5.185
62765W        W22026  32.490  30.616  11.123
62766W        W22027  21.117  30.961  12.478
62767W        W22028  29.101  21.030  11.575
62768W        W22029  34.503   7.260  11.559
62769W        W22030   9.149  16.578   3.218
62770W        W22031  25.687  41.883   4.730
62771W        W22032  23.537  17.664  14.946
62772W        W22033  27.154   8.184  14.909
62773W        W22034  29.619  31.140  12.917
62774W        W22035  27.981  28.081  11.435
62775W        W22036  26.521  42.809   0.376
62776W        W22037  15.789  11.746   4.703
62777W        W22038  28.496  32.096  13.862
62778W        W22039  10.262   7.342   3.229
62779W        W22040   9.354  21.066  12.451
62780W        W22041  17.623  24.997   3.285
62781W        W22042   8.749   1.812  10.638
62782W        W22043  42.505  40.937   2.294
62783W        W22044   7.877  43.280   3.153
62784W        W22045  39.050  18.578  13.972
62785W        W22046  27.584   9.230  14.028
62786W        W22047  26.516   1.939  14.777
62787W        W22048  41.859  28.992  11.051
62788W        W22049  41.477  25.610  12.485
62789W        W22050  20.600  18.576   0.958
62790W        W22051  17.621  19.540   2.704
62791W        W22052   9.334   0.439  10.993
62792W        W22053  42.821  13.609   1.383
62793W        W22054  20.580   4.295  11.926
62794W        W22055  18.646  33.584  10.565
62795W        W22056  22.509   0.765  14.974
62796W        W22057  38.402  20.111  12.507
62797W        W22058   5.352  16.736  11.113
62798W        W22059  16.648  20.582  10.617
62799W        W22060  20.207  15.592  14.380
62800W        W22061  32.139  32.513   2.755
62801W        W22062   1.270   8.385  14.448
62802W        W22063   6.684   0.391   0.862
62803W        W22064  38.847  15.116  10.129
62804W        W22065  29.551  41.855   3.820
62805W        W22066  33.540  31.530  14.987
62806W        W22067  33.480  44.889   4.304
62807W        W22068  42.880   6.797   3.368
62808W        W22069  17.220  40.541   2.227
62809W        W22070   8.264  33.109  14.872
62810W        W22071  15.224  17.287   2.875
62811W        W22072  42.797  38.899  11.456
62812W        W22073  37.927  18.732   2.707
62813W        W22074  32.526  28.067   2.874
62814W        W22075  22.551  39.352   0.949
62815W        W22076  19.699  28.150   4.736
62816W        W22077   1.946  19.660  10.932
62817W        W22078  12.643  31.942  10.964
62818W        W22079   5.356  41.800  10.962
62819W        W22080  37.939  33.899  14.826
62820W        W22081  43.306  41.309   1.729
62821W        W22082  37.916  23.063  12.848
62822W        W22083  28.662  35.535  14.991
62823W        W22084   3.422   0.272  13.043
62824W        W22085  32.497  15.244   4.816
62825W        W22086  12.702  29.999   1.417
62826W        W22087  27.551   5.351  14.835
62827W        W22088  40.393  28.141   2.348
62828W        W22089  35.469  20.241   0.334
62829W        W22090  37.867  25.051   0.402
62830W        W22091   5.431  39.367   3.376
62831W        W22092  32.089   6.780  12.563
62832W        W22093  39.461  39.930   1.369
62833W        W22094  26.517  37.873   4.634
62834W        W22095  13.643  30.520   0.270
62835W        W22096  33.590  14.166  11.924
62836W        W22097   0.844  17.177   0.954
62837W        W22098  20.636  23.592   3.853
62838W        W22099  42.517  17.603   0.270
62839W        W22100  41.410  23.212  13.348
62840W        W22101   3.413  18.702   0.337
62841W        W22102   8.395   4.723  12.550
62842W        W22103   3.802  20.143  13.316
62843W        W22104  12.316   3.287   4.115
62844W        W22105   0.836   3.261   1.863
62845W        W22106  24.715   5.756  14.924
62846W        W22107  27.066   5.347  14.441
62847W        W22108  37.542  12.192   4.727
62848W        W22109  15.192   8.665  12.448
62849W        W22110  40.041  31.453  14.792
62850W        W22111  33.933   7.224  13.364
62851W        W22112  34.403   5.385   0.472
62852W        W22113  38.486  15.135  10.472
62853W        W22114  17.214  32.578   3.687
62854W        W22115  21.206   1.357  14.013
62855W        W22116  37.082  31.052  10.977
62856W        W22117  43.894  15.813  12.955
62857W        W22118  41.932  30.098  10.948
62858W        W22119   1.860   2.785   0.861
62859W        W22120  13.312  31.016  14.831
62860W        W22121  37.918  12.694  12.005
62861W        W22122  21.677  18.284  10.475
62862W        W22123  23.207   0.888  12.985
62863W        W22124  39.003  26.133  13.392
62864W        W22125   5.304  12.657   2.855
62865W        W22126  44.952  15.618  13.543
62866W        W22127   7.681  22.568  10.896
62867W        W22128  14.633  31.474   0.443
62868W        W22129  42.518  39.051   5.593
62869W        W22130  27.090  12.206  13.410
62870W        W22131  20.169  17.699   3.201
62871W        W22132  17.233   3.309  14.772
62872W        W22133  40.388  44.400   2.224
62873W        W22134  32.476  30.931   0.948
62874W        W22135  14.670  38.053  12.563
62875W        W22136  39.836  23.683   4.270
62876W        W22137   4.234  27.115   3.856
62877W        W22138  12.659  13.720  14.482
62878W        W22139  40.948  34.905  13.424
62879W        W22140  29.083  40.486   3.833
62880W        W22141  15.272   7.875   0.952
62881W        W22142  37.418   6.835   0.406
62882W        W22143  11.301  39.482   0.852
62883W        W22144   1.271  24.009   4.154
62884W        W22145  20.535   7.198   4.714
62885W        W22146  44.966  10.664   2.414
62886W        W22147  10.713  23.728  14.811
62887W        W22148  23.581  17.657   4.115
62888W        W22149  15.203  25.967   2.367
62889W        W22150   3.929  11.787   3.856
62890W        W22151  21.633  10.355   1.856
62891W        W22152  17.203  17.615  12.511
62892W        W22153  31.145  41.967   2.381
62893W        W22154   2.752  40.404  13.535
62894W        W22155  28.441  22.113   0.916
62895W        W22156  43.861  24.679   1.820
62896W        W22157  10.365  39.494   0.835
62897W        W22158  33.064   8.318  12.455
62898W        W22159   3.435  32.943  14.811
62899W        W22160   1.256  12.725   0.805
62900W        W22161  34.457  23.658  14.343
62901W        W22162  38.410  13.610   4.703
62902W        W22163  14.276  28.938  13.839
62903W        W22164  35.509   9.386   3.282
62904W        W22165   8.340  43.364  14.935
62905W        W22166   5.438   1.824   4.202
62906W        W22167  36.018  16.153  14.991
62907W        W22168  38.382   9.834   0.775
62908W        W22169  26.013   3.320   3.264
62909W        W22170   4.398  13.639   2.289
62910W        W22171  12.613  11.267   1.420
62911W        W22172  15.819  15.671  13.023
62912W        W22173  19.740  42.937  14.394
62913W        W22174  42.320  11.715  11.018
62914W        W22175  38.936  44.487  13.513
62915W        W22176  10.808  20.547   4.150
62916W        W22177  21.712  26.135  12.056
62917W        W22178  12.618   8.380  11.519
62918W        W22179  43.817   1.784  13.985
62919W        W22180  41.971  23.145   0.966
62920W        W22181  37.555  19.620  13.000
62921W        W22182  24.677  39.033  11.910
62922W        W22183  10.819  25.699   2.362
62923W        W22184  37.024  20.656   1.738
62924W        W22185   7.302  11.322   1.705
62925W        W22186  33.456   4.376  12.529
62926W        W22187   6.868  41.845   3.299
62927W        W22188  16.708  15.234   4.163
62928W        W22189  30.072   2.860  10.126
62929W        W22190  39.416  27.169  10.975
62930W        W22191  43.319  35.539   0.870
62931W        W22192   4.854  13.723  11.069
62932W        W22193   3.296  19.729  14.903
62933W        W22194  28.156  29.669   0.761
62934W        W22195  37.974  34.496   2.400
62935W        W22196  28.460  12.658   4.253
62936W        W22197  14.588  18.604  14.869
62937W        W22198   9.761  29.109   2.700
62938W        W22199   0.416   8.288   4.218
62939W        W22200  17.712  36.425  10.950
62940W        W22201  23.719   6.240   4.634
62941W        W22202  23.102  29.116   4.247
62942W        W22203  38.416   8.812   3.735
62943W        W22204  14.325  33.101   0.429
62944W        W22205   1.319  44.379  11.987
62945W        W22206   0.849  13.142  10.490
62946W        W22207   9.845   2.907   9.963
62947W        W22208   6.403  17.725  10.554
62948W        W22209  36.549   2.371   3.366
62949W        W22210  20.073  14.636   0.457
62950W        W22211  12.178  12.177  11.022
62951W        W22212  16.160  17.206  13.846
62952W        W22213  43.974  21.120  11.937
62953W        W22214  23.545  27.508   2.270
62954W        W22215  22.222  26.542   1.366
62955W        W22216  26.541  18.709   0.350
62956W        W22217  23.222  40.438   2.361
62957W        W22218  40.415  39.938  13.974
62958W        W22219  14.812  29.164  12.059
62959W        W22220   1.317  43.276  14.982
62960W        W22221   1.921   0.867   1.694
62961W        W22222  23.573  24.519  10.544
62962W        W22223  38.844  33.566   2.359
62963W        W22224  12.673   9.161  10.418
62964W        W22225  18.155  10.849  12.016
62965W        W22226  20.665  39.975   0.771
62966W        W22227  25.702   5.901   4.208
62967W        W22228  19.571  39.813   0.414
62968W        W22229  44.876  18.092  12.843
62969W        W22230  30.009  42.784  14.468
62970W        W22231  34.869   0.955   1.427
62971W        W22232  21.757   9.773  11.078
62972W        W22233   9.663   9.698   1.337
62973W        W22234  17.767  27.511   1.733
62974W        W22235  18.283  29.059   3.793
62975W        W22236  20.680  14.672   1.719
62976W        W22237  10.182  10.201  13.820
62977W        W22238  18.615  12.671   4.352
62978W        W22239  42.356  30.034  14.373
62979W        W22240   2.875   6.301   3.829
62980W        W22241  18.114  30.554   1.719
62981W        W22242  27.662  29.453   1.879
62982W        W22243  17.277  26.175   2.351
62983W        W22244  11.802  13.629  12.529
62984W        W22245   3.330  37.063   1.933
62985W        W22246  32.960  36.843  14.770
62986W        W22247  40.001   0.884  11.124
62987W        W22248   1.289  16.585  13.945
62988W        W22249  24.677  18.101   2.408
62989W        W22250  27.107  15.307  11.102
62990W        W22251  19.072  42.909   3.691
62991W        W22252  40.323  41.955   5.222
62992W        W22253   1.273  42.496   3.708
62993W        W22254  28.600   5.768  14.986
62994W        W22255   1.326  27.456   1.743
62995W        W22256   3.280  30.586  11.980
62996W        W22257   2.923  17.196   0.888
62997W        W22258  25.556  11.347  14.021
62998W        W22259  10.352   4.387  14.979
62999W        W22260  43.894  28.584   1.752
63000W        W22261   4.336   2.401   0.353
63001W        W22262  10.161   7.788   0.903
63002W        W22263   6.739  19.601   4.694
63003W        W22264  23.143  41.974   2.280
63004W        W22265  39.044  29.953   2.264
63005W        W22266  11.750  38.060  14.337
63006W        W22267  14.691  30.942  14.783
63007W        W22268  42.331  22.219  12.034
63008W        W22269  13.260  42.908   5.256
63009W        W22270  40.334   0.858   2.746
63010W        W22271  20.606  25.495  10.952
63011W        W22272   1.814  41.481  11.575
63012W        W22273  17.573  32.017  13.917
63013W        W22274   2.944  33.965   2.767
63014W        W22275  36.881   3.834  13.863
63015W        W22276  21.037  36.952  10.610
63016W        W22277  15.676   4.702  12.982
63017W        W22278  41.838  10.353   5.082
63018W        W22279   6.213  41.502  14.472
63019W        W22280  16.149  37.966  14.405
63020W        W22281  36.357  25.654   1.759
63021W        W22282  41.456   9.827  11.957
63022W        W22283  16.785  13.216   1.790
63023W        W22284  13.244  16.573  14.510
63024W        W22285  10.714  14.772  13.817
63025W        W22286  44.300  19.537  14.413
63026W        W22287  39.933  30.535   2.845
63027W        W22288   3.770  42.906  12.843
63028W        W22289   8.737   4.866  10.546
63029W        W22290  35.104  35.957   0.933
63030W        W22291   2.841  12.318   1.892
63031W        W22292   0.906  43.363  14.971
63032W        W22293  40.530   9.284  11.379
63033W        W22294  11.310  20.769  12.886
63034W        W22295  20.112  21.738   2.859
63035W        W22296  37.519  44.788  13.919
63036W        W22297  10.223   8.724  13.402
63037W        W22298  42.884  27.683   2.195
63038W        W22299  35.981   4.814  12.065
63039W        W22300  31.937   6.791   3.832
63040W        W22301  12.227  17.739  13.459
63041W        W22302   0.808  15.124  12.057
63042W        W22303   7.201   7.183   1.280
63043W        W22304  27.041   5.316  10.497
63044W        W22305  32.130  14.826   0.327
63045W        W22306  33.408  40.534  14.322
63046W        W22307   8.848   9.225   4.783
63047W        W22308   3.824  38.504   4.286
63048W        W22309  36.407   8.721   9.576
63049W        W22310  33.418  14.229  14.357
63050W        W22311  20.618  26.132   2.875
63051W        W22312  34.057  20.036  10.422
63052W        W22313  40.975  11.692   2.776
63053W        W22314  10.717  37.972   2.300
63054W        W22315  20.559  36.523   3.243
63055W        W22316  33.575   9.709  13.039
63056W        W22317  26.067  27.056  11.944
63057W        W22318  37.971   6.376  14.841
63058W        W22319   8.824  32.963   3.210
63059W        W22320  22.513   2.324  13.337
63060W        W22321  37.470  35.579  11.100
63061W        W22322   8.399  19.148  10.467
63062W        W22323  30.434   0.764  12.451
63063W        W22324   3.875  13.301   2.714
63064W        W22325  42.819  10.654   3.209
63065W        W22326  17.750   0.979   2.886
63066W        W22327  24.628  16.630   2.707
63067W        W22328  25.096  44.433  14.321
63068W        W22329  30.909  30.976  13.343
63069W        W22330  34.052  25.094   4.239
63070W        W22331   2.898  13.693   1.324
63071W        W22332  24.513  13.840   0.743
63072W        W22333  13.144  10.267  13.541
63073W        W22334   2.325  15.296   1.315
63074W        W22335  40.906  25.980   4.802
63075W        W22336  37.534  24.076  13.472
63076W        W22337  43.821   9.808   0.412
63077W        W22338  16.110   4.240   5.217
63078W        W22339  24.723  13.108   4.830
63079W        W22340  43.414   1.294  11.456
63080W        W22341  27.574  32.506  12.050
63081W        W22342   5.422  34.869   1.755
63082W        W22343  29.440  32.034   1.922
63083W        W22344  28.453  37.513  12.089
63084W        W22345   5.418  29.927   1.364
63085W        W22346  17.188  31.415   1.816
63086W        W22347  17.616   1.477  13.056
63087W        W22348  25.501   3.900  13.842
63088W        W22349   4.722  10.203  11.570
63089W        W22350  28.942  32.563  13.501
63090W        W22351   2.739  33.595   1.365
63091W        W22352   0.817  13.219   3.312
63092W        W22353  16.209   7.789   3.196
63093W        W22354  18.701  36.378   2.722
63094W        W22355  22.137  30.427  12.016
63095W        W22356  29.020  29.542   2.210
63096W        W22357  34.893   2.921  11.572
63097W        W22358  36.004   6.831  10.959
63098W        W22359  43.276  38.892   4.790
63099W        W22360  33.972   6.391   2.210
63100W        W22361  22.219  10.337  11.127
63101W        W22362   1.398  16.198   0.383
63102W        W22363  24.222   4.862  13.037
63103W        W22364  43.953  39.396  14.885
63104W        W22365  43.797  30.638   1.814
63105W        W22366  34.886  27.964   2.858
63106W        W22367  34.578  21.588  13.899
63107W        W22368  43.798   9.677  12.355
63108W        W22369  35.372   5.388  13.838
63109W        W22370  40.366  41.970  10.970
63110W        W22371  43.365  18.763   1.269
63111W        W22372  27.177   4.840   3.653
63112W        W22373  40.033   7.236   3.632
63113W        W22374  15.207   1.438  12.402
63114W        W22375   9.777  28.980   4.263
63115W        W22376  20.133   8.893  14.327
63116W        W22377  21.634  36.918  13.437
63117W        W22378  25.614   8.372  10.448
63118W        W22379  26.982  44.943   4.126
63119W        W22380  42.468  40.845  13.966
63120W        W22381  16.813   2.926  14.818
63121W        W22382  14.292   2.960  12.372
63122W        W22383  33.476   2.306   1.748
63123W        W22384  21.149  29.506   1.439
63124W        W22385   4.307  16.260   1.398
63125W        W22386  28.121  15.625  10.890
63126W        W22387   3.751  29.668   1.433
63127W        W22388  26.992  40.905   1.312
63128W        W22389  15.778  25.197   4.243
63129W        W22390  32.485  20.649   4.760
63130W        W22391  28.186   3.866  14.491
63131W        W22392   0.439  37.044  10.036
63132W        W22393   4.719  26.087  12.498
63133W        W22394  44.842  39.377   2.665
63134W        W22395   9.812  18.147   2.785
63135W        W22396  24.228  32.536  10.497
63136W        W22397  41.788  29.149   2.771
63137W        W22398  17.117  24.605  14.502
63138W        W22399  42.853  32.578  14.510
63139W        W22400  13.811  42.830  13.314
63140W        W22401  20.230  17.112  11.574
63141W        W22402  39.521  34.885  12.400
63142W        W22403  30.034  39.541   2.289
63143W        W22404  30.965  31.959   0.966
63144W        W22405   0.403  21.692  14.439
63145W        W22406  10.652  39.922   4.826
63146W        W22407  38.033  23.988  13.371
63147W        W22408   6.869  39.426  10.487
63148W        W22409  25.486  44.964  14.000
63149W        W22410   1.747  22.687  12.919
63150W        W22411  17.093  44.913  12.485
63151W        W22412   1.394  32.609  11.908
63152W        W22413  44.264  28.015  10.492
63153W        W22414   1.782  44.962   2.214
63154W        W22415  40.797  19.265  14.401
63155W        W22416  17.212  29.142  14.489
63156W        W22417  32.933  32.487  12.979
63157W        W22418   0.978  34.590  12.568
63158W        W22419  23.066  28.974   2.225
63159W        W22420  27.128  15.127   4.755
63160W        W22421   8.374  43.333  11.381
63161W        W22422  21.088  20.233   5.586
63162W        W22423  17.765   9.343   4.645
63163W        W22424  37.029   6.922   1.347
63164W        W22425  18.563  29.078  10.463
63165W        W22426  42.971  29.553  13.542
63166W        W22427  11.727  16.732  10.589
63167W        W22428   7.314  38.325   1.271
63168W        W22429   4.911  29.557   3.837
63169W        W22430  27.578  11.266  14.371
63170W        W22431   2.920  33.069  11.917
63171W        W22432  12.129  19.766  12.442
63172W        W22433  40.497  18.612   0.807
63173W        W22434   6.240  44.442   3.633
63174W        W22435  13.723  25.205  11.946
63175W        W22436   1.874  13.261   3.843
63176W        W22437  25.023  26.149  14.894
63177W        W22438  22.547  12.349   1.852
63178W        W22439   1.310  13.167   4.789
63179W        W22440  31.426   5.871  12.886
63180W        W22441   0.947  33.969  10.948
63181W        W22442  35.980  19.638   4.267
63182W        W22443  38.989  33.012   3.254
63183W        W22444  33.943  21.024  14.431
63184W        W22445   4.844  38.548  12.393
63185W        W22446  10.295  38.995  11.441
63186W        W22447  37.550   5.904   0.361
63187W        W22448   7.733  29.480  12.073
63188W        W22449  23.523   6.422  11.937
63189W        W22450  17.690   5.415   3.304
63190W        W22451   8.886  20.625  11.038
63191W        W22452   8.739  23.008  10.905
63192W        W22453  14.793  43.017   3.154
63193W        W22454  10.187  34.939   4.791
63194W        W22455   8.693  16.275   2.744
63195W        W22456  28.971  36.541   0.452
63196W        W22457  39.848   1.309  14.858
63197W        W22458  36.959  17.177  13.034
63198W        W22459  35.358  41.977   2.378
63199W        W22460  35.095  17.689  10.539
63200W        W22461   8.778   4.258  11.115
63201W        W22462   1.316  23.083  14.805
63202W        W22463  41.834  38.977  13.892
63203W        W22464  35.530  19.679   3.308
63204W        W22465  20.734  41.299  14.504
63205W        W22466  20.588   5.876  14.322
63206W        W22467   6.274  24.167   2.711
63207W        W22468  22.621  19.078   2.729
63208W        W22469  37.908   3.798  13.913
63209W        W22470  35.973  36.063  11.578
63210W        W22471  37.397  28.953  13.828
63211W        W22472   0.970  44.961   3.656
63212W        W22473  25.198  11.305  12.026
63213W        W22474   4.926  17.796   1.911
63214W        W22475  24.579  32.473  13.961
63215W        W22476  24.706   7.261   0.930
63216W        W22477   6.376  29.528  11.585
63217W        W22478  19.163  12.262   3.362
63218W        W22479  15.160   0.935   4.324
63219W        W22480   6.282  13.332   0.284
63220W        W22481   4.273  37.568  13.910
63221W        W22482  19.576  18.237   0.910
63222W        W22483  27.582   9.730  13.398
63223W        W22484   1.293  24.655  13.926
63224W        W22485   2.876  23.018   3.160
63225W        W22486  42.510  11.693   4.701
63226W        W22487  24.716   5.384   1.907
63227W        W22488  41.909  33.572  10.141
63228W        W22489  35.950  26.964   1.372
63229W        W22490  29.502  44.351   4.736
63230W        W22491  11.847  16.195  11.958
63231W        W22492   5.310  21.671  10.559
63232W        W22493   5.917  41.444  10.951
63233W        W22494   3.849  39.829  14.912
63234W        W22495  15.752  39.867  11.376
63235W        W22496  18.088  17.752  14.360
63236W        W22497  42.995  39.507  13.868
63237W        W22498   0.927  34.996  12.936
63238W        W22499  42.961  24.641  13.489
63239W        W22500  39.459  15.666  14.411
63240W        W22501  18.136  14.687  13.001
63241W        W22502  38.042   1.349  10.519
63242W        W22503  13.272  35.455  14.782
63243W        W22504  35.868  43.288  12.456
63244W        W22505   8.817  26.161   1.910
63245W        W22506  12.281  12.357   1.240
63246W        W22507  25.648  24.580   2.802
63247W        W22508  27.045  41.968  13.309
63248W        W22509  37.949  37.904  11.041
63249W        W22510  18.206  28.982  14.865
63250W        W22511  11.732  42.433  13.019
63251W        W22512  14.692  15.102  10.589
63252W        W22513  21.062  22.615   1.299
63253W        W22514  22.713  22.066   1.753
63254W        W22515   4.943  27.629  11.048
63255W        W22516   1.423  13.664  11.974
63256W        W22517  44.500  36.357   5.245
63257W        W22518  10.643   7.172   1.401
63258W        W22519  30.075  14.651   3.854
63259W        W22520  21.538  32.053   2.672
63260W        W22521   3.790  24.226   0.944
63261W        W22522  19.175  18.719   2.784
63262W        W22523  15.151   5.251  12.880
63263W        W22524   5.898  15.326  10.932
63264W        W22525  11.622  25.522   1.353
63265W        W22526  24.167  14.246  12.493
63266W        W22527  17.127  30.576   5.239
63267W        W22528  37.578  21.569  10.456
63268W        W22529  23.728  33.063  11.608
63269W        W22530  38.935  12.843   4.751
63270W        W22531  41.314  34.993  13.446
63271W        W22532  12.616   6.255   2.401
63272W        W22533  27.020  43.862   0.299
63273W        W22534  17.137  17.727   1.774
63274W        W22535  38.915  39.353  14.872
63275W        W22536  22.063  19.152   0.908
63276W        W22537  39.536  42.481  14.880
63277W        W22538  14.331  24.160  13.325
63278W        W22539  34.581  11.721  13.473
63279W        W22540   7.726   7.821  10.578
63280W        W22541  29.087  30.932  13.466
63281W        W22542  17.186  44.300   4.642
63282W        W22543  27.678   2.899   4.628
63283W        W22544  39.520  13.284   4.634
63284W        W22545  18.603  10.145   1.361
63285W        W22546  41.847  41.905  12.468
63286W        W22547  17.306   2.288   0.366
63287W        W22548   0.772  11.675  12.092
63288W        W22549   3.322  19.612  10.930
63289W        W22550   5.761  36.371  13.959
63290W        W22551  37.556  10.857   2.762
63291W        W22552  25.006  25.676   0.851
63292W        W22553   9.884  22.729   2.213
63293W        W22554  25.019  38.563   2.343
63294W        W22555  29.059  42.809  11.065
63295W        W22556  15.145  20.030  13.951
63296W        W22557  13.712  24.196   4.202
63297W        W22558  16.263  15.824   0.477
63298W        W22559  16.570   8.329   5.233
63299W        W22560  19.733   7.865  11.966
63300W        W22561  26.118  32.893   2.294
63301W        W22562  38.934  29.582  11.062
63302W        W22563  11.298   4.841  10.053
63303W        W22564   5.895  16.728  13.409
63304W        W22565  34.890  13.322  14.394
63305W        W22566   8.801  25.550  10.554
63306W        W22567  29.636  13.349  13.366
63307W        W22568  18.732  22.549   5.270
63308W        W22569  21.138  36.985  13.483
63309W        W22570  10.782  39.050   4.743
63310W        W22571  22.578  18.288  11.510
63311W        W22572  28.565  37.404  10.603
63312W        W22573  41.999  20.251   2.267
63313W        W22574  19.063  23.519  13.402
63314W        W22575   6.915  23.208  12.884
63315W        W22576  35.472  19.210  14.463
63316W        W22577   8.247   5.804   2.777
63317W        W22578   3.431  11.806   1.305
63318W        W22579  19.043  12.849  11.938
63319W        W22580  29.647  26.089  13.884
63320W        W22581  29.145  22.550  14.001
63321W        W22582  40.930  37.355   0.827
63322W        W22583  16.105  42.501  11.554
63323W        W22584  25.689  24.479  10.950
63324W        W22585  32.422  30.415  10.544
63325W        W22586  10.680  16.694  13.947
63326W        W22587  28.634  12.249   0.287
63327W        W22588  33.418  14.821  12.550
63328W        W22589   6.892  31.992   0.281
63329W        W22590  30.543  30.987  11.878
63330W        W22591  12.278  26.654   4.285
63331W        W22592   3.847  20.579  13.513
63332W        W22593  34.378  19.712   2.746
63333W        W22594  37.883  12.727   2.239
63334W        W22595  21.659  40.886  11.525
63335W        W22596  10.370  16.736  12.885
63336W        W22597   4.829   0.296   3.375
63337W        W22598  34.964  11.826   2.338
63338W        W22599  27.473  33.903   2.758
63339W        W22600  33.595  41.786  11.073
63340W        W22601  23.609   0.491  10.902
63341W        W22602  42.482  44.802  14.351
63342W        W22603  25.505  33.994  12.427
63343W        W22604  21.659  22.075  14.319
63344W        W22605  17.642  12.841  14.370
63345W        W22606  42.920  18.149   4.739
63346W        W22607  11.288  26.987   2.679
63347W        W22608  11.216   6.687  12.462
63348W        W22609   7.308  23.191  10.488
63349W        W22610  37.949  30.606   5.124
63350W        W22611  22.199  42.476   1.386
63351W        W22612  28.618  10.268   1.709
63352W        W22613  28.070  30.424  12.460
63353W        W22614  39.426  31.502   2.859
63354W        W22615  28.007  31.557  11.889
63355W        W22616  15.579  36.530   4.612
63356W        W22617   2.848  11.278  13.526
63357W        W22618  42.004  33.045  12.359
63358W        W22619  22.594  42.918  11.000
63359W        W22620  31.013  14.702  13.936
63360W        W22621  44.299  23.019  14.767
63361W        W22622  18.696  16.307  12.424
63362W        W22623  11.339  32.524   3.840
63363W        W22624  43.346  40.463  11.897
63364W        W22625  29.543  44.406  12.017
63365W        W22626  33.098  24.677  13.426
63366W        W22627  10.260   0.844  10.561
63367W        W22628  34.915  13.314   1.910
63368W        W22629   2.809   1.735   1.439
63369W        W22630  26.059  39.350   4.752
63370W        W22631  17.268  16.123  13.045
63371W        W22632  16.760  26.114  10.604
63372W        W22633  41.027  33.931   1.744
63373W        W22634  26.025  13.137   1.808
63374W        W22635  28.054   6.777   3.359
63375W        W22636  33.409  16.740  10.505
63376W        W22637  20.727  28.045  13.837
63377W        W22638  27.102   8.849   5.168
63378W        W22639  28.045  21.033  10.932
63379W        W22640  20.598  10.714  11.413
63380W        W22641  25.148  32.444  11.608
63381W        W22642  25.551  26.981  11.865
63382W        W22643  35.035   3.910  12.045
63383W        W22644  15.230   2.773  13.309
63384W        W22645  22.613  36.945  11.414
63385W        W22646  34.995  17.261  13.518
63386W        W22647  11.852  11.326   4.304
63387W        W22648  13.150   1.352   0.739
63388W        W22649  35.427  22.537   2.735
63389W        W22650  37.884   2.829  14.422
63390W        W22651  37.903  36.936  11.073
63391W        W22652  17.195  13.683  10.416
63392W        W22653   5.419  27.173   3.197
63393W        W22654  35.400  32.076   3.193
63394W        W22655  36.501  25.064   5.220
63395W        W22656  12.321   0.459   3.815
63396W        W22657  24.488  21.745  10.621
63397W        W22658   4.430  10.257   0.265
63398W        W22659  11.793   5.813  11.556
63399W        W22660   3.925   9.684   0.272
63400W        W22661   5.312  18.714   0.940
63401W        W22662  43.390  18.184  14.953
63402W        W22663  19.232  21.518  14.024
63403W        W22664   6.354  27.032  13.821
63404W        W22665   9.852  13.760  11.602
63405W        W22666  21.222   4.827  13.866
63406W        W22667  32.142  35.394   4.198
63407W        W22668  15.631  41.334   3.247
63408W        W22669   8.809  21.521   1.804
63409W        W22670  40.484  41.367   4.291
63410W        W22671   9.176  29.929   1.380
63411W        W22672  35.394  20.648   1.747
63412W        W22673  28.987   0.473   3.762
63413W        W22674  35.918  18.166   2.279
63414W        W22675   3.726   2.246  10.987
63415W        W22676  28.460  29.033   1.780
63416W        W22677  41.900   6.917  11.952
63417W        W22678   0.894  24.086  12.463
63418W        W22679  25.687  36.370   3.657
63419W        W22680  26.958  22.610  11.381
63420W        W22681   4.856   4.894  12.970
63421W        W22682  33.984  34.865   4.249
63422W        W22683  19.535  24.149   2.385
63423W        W22684  44.778  37.540   1.791
63424W        W22685  22.600  23.498   1.808
63425W        W22686  20.665  28.044  12.562
63426W        W22687  27.944  39.436   0.786
63427W        W22688  35.110   1.293   0.295
63428W        W22689  22.074  32.949  14.894
63429W        W22690   9.195  19.609   1.874
63430W        W22691  28.040  21.040  14.852
63431W        W22692  34.972  17.241  14.349
63432W        W22693   3.915   8.813   4.646
63433W        W22694  30.434   2.309   1.429
63434W        W22695  42.817  28.647   1.280
63435W        W22696  28.180  12.193   3.272
63436W        W22697  13.816  14.676  11.124
63437W        W22698  42.408  18.222  14.005
63438W        W22699   7.698  28.019   1.289
63439W        W22700  23.661  18.231   1.392
63440W        W22701  33.475   9.186   3.214
63441W        W22702  21.721  16.261   1.343
63442W        W22703   1.477  28.023   1.352
63443W        W22704   6.835   1.240  10.555
63444W        W22705  33.395  35.375   0.741
63445W        W22706  38.011  13.179   4.746
63446W        W22707   3.241  26.529   1.277
63447W        W22708  37.379   4.308   4.703
63448W        W22709  23.063  24.139   0.916
63449W        W22710   4.252  40.006  11.503
63450W        W22711  20.114  39.519   0.927
63451W        W22712  38.899  21.101   2.860
63452W        W22713  21.243   5.723  13.938
63453W        W22714  27.599   2.299  14.338
63454W        W22715  25.074   0.842   5.263
63455W        W22716  11.836  14.622  11.595
63456W        W22717  35.041  36.039  12.952
63457W        W22718   3.325  20.550  10.496
63458W        W22719  20.165  12.617  10.905
63459W        W22720  12.208  19.712  12.849
63460W        W22721   7.334  28.028  10.636
63461W        W22722   8.853   2.330  14.409
63462W        W22723  12.752   7.372   4.296
63463W        W22724  12.675  37.839   3.818
63464W        W22725   0.861  35.069   5.291
63465W        W22726   6.891  34.882  14.774
63466W        W22727   5.769  28.990  14.946
63467W        W22728  11.285  10.769  10.451
63468W        W22729   2.311  24.598  13.367
63469W        W22730  25.026  25.016  13.489
63470W        W22731  10.691  40.315  13.044
63471W        W22732  25.629  42.366   2.188
63472W        W22733  38.435   1.422   4.278
63473W        W22734  21.663   5.855   4.603
63474W        W22735  23.990  21.666  13.861
63475W        W22736  17.779  41.899   4.818
63476W        W22737  23.712  24.710  13.334
63477W        W22738  29.470  11.283   2.317
63478W        W22739  13.810  33.486  10.978
63479W        W22740   1.923  29.104   3.734
63480W        W22741   9.208  17.246  12.901
63481W        W22742  27.026   8.864  11.095
63482W        W22743   4.786  34.412  11.890
63483W        W22744  15.755  31.515  14.333
63484W        W22745  15.659  34.462   2.359
63485W        W22746  13.845   0.847   2.801
63486W        W22747  38.492  16.293  12.395
63487W        W22748   0.373  26.024   3.251
63488W        W22749  39.942  12.150   3.803
63489W        W22750   8.790   1.285  13.962
63490W        W22751  25.606  21.050  12.833
63491W        W22752  43.769  40.001  11.911
63492W        W22753  28.036  16.108  10.064
63493W        W22754   1.353  38.030   2.396
63494W        W22755  10.384  15.084   2.834
63495W        W22756   4.762  10.775  12.008
63496W        W22757   0.428  25.976  12.826
63497W        W22758  39.928  32.477  12.411
63498W        W22759  25.179  27.118   2.280
63499W        W22760  17.077  31.041   5.212
63500W        W22761  41.501  41.901   2.364
63501W        W22762  21.081   4.936  10.408
63502W        W22763   4.332  31.610  13.391
63503W        W22764   6.764   9.758  13.859
63504W        W22765   1.928  32.055   3.760
63505W        W22766  25.158  35.462  10.546
63506W        W22767  27.609   5.364  10.508
63507W        W22768  13.839  18.214   0.340
63508W        W22769  24.159   7.756   3.177
63509W        W22770   3.223  33.530  12.044
63510W        W22771  37.336  16.287   4.146
63511W        W22772  35.866  41.833  11.484
63512W        W22773  37.052  28.463   3.178
63513W        W22774  35.560   2.923   1.446
63514W        W22775   7.727  42.379   4.810
63515W        W22776  27.620  35.486   4.665
63516W        W22777  40.992   0.416   2.889
63517W        W22778  26.137   0.471  14.304
63518W        W22779  18.644  19.284   3.324
63519W        W22780  14.310  20.169   3.644
63520W        W22781  40.963   5.239   4.605
63521W        W22782  29.997   6.814  13.931
63522W        W22783   3.418  42.453   1.712
63523W        W22784  29.158  28.044  14.008
63524W        W22785  16.309  39.900   0.924
63525W        W22786   3.796  16.658   2.871
63526W        W22787  16.660   1.969  10.892
63527W        W22788  40.978  24.025   2.707
63528W        W22789  30.037  36.379  14.860
63529W        W22790  17.679  39.317  14.509
63530W        W22791  30.528  36.510   5.113
63531W        W22792   8.732  26.564  10.906
63532W        W22793   3.836   8.828  12.988
63533W        W22794  16.600  33.093   0.926
63534W        W22795  44.881  35.093  10.063
63535W        W22796  27.686  15.293   0.435
63536W        W22797  14.201  16.272  14.441
63537W        W22798  43.368   5.817   2.887
63538W        W22799  33.910  27.557   0.964
63539W        W22800  26.489  20.620   1.266
63540W        W22801   7.390  30.079  11.057
63541W        W22802  37.465  26.138   4.651
63542W        W22803  33.006  28.172   3.317
63543W        W22804   7.887  12.652   1.801
63544W        W22805  42.917  40.052   2.336
63545W        W22806  19.741  13.328  13.513
63546W        W22807  31.535  22.110   3.652
63547W        W22808  44.311  27.535  14.486
63548W        W22809   6.909  16.691   4.315
63549W        W22810  30.014  27.152  14.506
63550W        W22811  27.152  36.508  13.544
63551W        W22812  22.031  41.957  11.022
63552W        W22813   3.219  44.308  11.020
63553W        W22814   1.401  22.510   1.833
63554W        W22815   7.360  24.096   2.748
63555W        W22816  18.773   8.747   2.350
63556W        W22817  16.622  43.471   3.364
63557W        W22818  30.545  25.551   1.367
63558W        W22819  21.136  36.396  12.935
63559W        W22820  16.088  42.805   5.151
63560W        W22821  31.593   6.331   3.637
63561W        W22822  13.671  15.269   3.812
63562W        W22823  15.613  33.429   2.665
63563W        W22824   6.760  23.193  10.433
63564W        W22825   2.348  39.870  10.453
63565W        W22826  33.580   6.418  11.066
63566W        W22827  26.603   0.779  13.819
63567W        W22828  39.358  16.295   1.399
63568W        W22829  37.059  20.626   4.237
63569W        W22830  43.461  27.066  13.484
63570W        W22831  34.571  37.007   0.959
63571W        W22832  16.123   4.307  10.553
63572W        W22833  16.208  33.063   0.766
63573W        W22834  17.160   2.856  14.874
63574W        W22835   0.857  21.049  14.411
63575W        W22836  28.022  17.275   1.770
63576W        W22837   7.290  13.259  11.384
63577W        W22838  22.129  16.682  12.002
63578W        W22839  36.363   7.381  12.491
63579W        W22840  35.870  24.631  10.612
63580W        W22841   6.402  24.694  10.891
63581W        W22842  44.441  33.107  11.592
63582W        W22843  29.458  42.898  11.950
63583W        W22844  21.648   7.362   0.864
63584W        W22845   5.420  11.205  13.996
63585W        W22846   4.237   2.321   1.787
63586W        W22847  16.789  10.248   3.865
63587W        W22848  12.793  18.566   0.260
63588W        W22849   5.811  22.659   3.302
63589W        W22850  30.644  36.047   2.210
63590W        W22851   3.747  12.122   3.713
63591W        W22852   0.414  16.116  14.825
63592W        W22853  39.977  30.968  10.446
63593W        W22854  28.437  43.343  11.462
63594W        W22855  18.230  23.049   3.758
63595W        W22856  10.794  32.550   0.323
63596W        W22857  18.577  24.725  14.886
63597W        W22858  15.315  36.415   1.420
63598W        W22859  24.020  21.681   2.364
63599W        W22860  39.016  28.450   0.327
63600W        W22861  15.104  41.479  11.059
63601W        W22862  12.686  20.047  13.888
63602W        W22863  35.031  26.475  10.639
63603W        W22864   9.887  30.482   1.268
63604W        W22865  21.707   7.751   2.281
63605W        W22866  42.843  10.820  14.374
63606W        W22867  10.719   0.843  11.390
63607W        W22868  37.476   6.255  10.419
63608W        W22869   7.785   8.289   2.237
63609W        W22870  13.333  23.729  10.143
63610W        W22871  19.201   4.719  14.421
63611W        W22872  15.139  12.718  12.005
63612W        W22873   1.744  24.568  13.926
63613W        W22874   5.745   4.368   3.294
63614W        W22875  14.282  43.479  14.378
63615W        W22876  26.163   8.201   0.469
63616W        W22877  20.197  44.379  14.514
63617W        W22878  37.475   0.380  11.513
63618W        W22879  38.008  12.272  13.377
63619W        W22880  34.959  35.104   3.309
63620W        W22881  13.311   0.346   1.817
63621W        W22882   2.424  17.593  13.463
63622W        W22883   6.323  22.069   2.228
63623W        W22884  39.906  35.377   2.313
63624W        W22885  15.184  28.643  12.431
63625W        W22886  12.618   9.232  14.760
63626W        W22887  21.544   5.834  14.470
63627W        W22888   3.389   5.892  11.445
63628W        W22889  22.616   5.338   1.400
63629W        W22890  29.585  29.605  11.491
63630W        W22891  22.507  44.270  10.420
63631W        W22892   2.337  20.049  13.462
63632W        W22893   1.810  43.874   3.684
63633W        W22894  40.808  34.929   0.268
63634W        W22895   3.915  29.055   2.799
63635W        W22896  38.422  10.233  11.109
63636W        W22897  29.451  34.497   1.877
63637W        W22898  28.630  31.962  12.498
63638W        W22899  28.984  14.681  12.929
63639W        W22900  37.950  31.647   3.784
63640W        W22901  28.974  26.157   4.669
63641W        W22902  23.714  23.098   4.298
63642W        W22903  28.161  35.983   1.831
63643W        W22904  44.502  42.877   2.404
63644W        W22905  26.677  37.440  10.912
63645W        W22906  27.186  39.866  11.386
63646W        W22907  14.226  36.911   0.933
63647W        W22908  22.140  42.307   4.698
63648W        W22909   5.418  11.842  13.981
63649W        W22910  40.313   4.936  14.811
63650W        W22911  27.955  44.753   4.136
63651W        W22912  31.544  13.143   4.611
63652W        W22913  43.366  28.589  12.943
63653W        W22914  22.727  35.955   2.342
63654W        W22915   9.711   6.215  14.359
63655W        W22916  10.269  20.121  11.014
63656W        W22917  42.032  27.460   0.418
63657W        W22918  24.122  12.182  12.918
63658W        W22919  32.433  35.067  13.372
63659W        W22920  38.939  26.978   2.694
63660W        W22921  44.349  29.433   3.378
63661W        W22922  22.683   0.480  11.867
63662W        W22923   6.736   3.400  11.961
63663W        W22924  13.808  40.039   2.344
63664W        W22925  40.988   2.826  10.582
63665W        W22926   1.806  27.576  14.011
63666W        W22927   5.217  26.638   3.686
63667W        W22928   3.296   5.718  13.391
63668W        W22929   1.867   2.379   1.366
63669W        W22930  27.613  16.664  13.851
63670W        W22931  28.073  35.907   0.914
63671W        W22932  15.700  39.952  13.950
63672W        W22933  29.138   1.932   3.308
63673W        W22934  42.777  44.264  11.873
63674W        W22935  42.393  20.094  14.935
63675W        W22936  24.714  22.686   2.379
63676W        W22937  41.963  18.122  14.863
63677W        W22938  26.675  35.073   4.299
63678W        W22939   8.363  25.195  13.461
63679W        W22940  35.483  14.300   4.763
63680W        W22941  26.038  28.633  11.560
63681W        W22942  22.250  29.160   0.926
63682W        W22943  34.544  37.055   0.382
63683W        W22944   2.758   1.354   1.429
63684W        W22945  31.572  10.259  11.868
63685W        W22946  33.103   2.807   1.734
63686W        W22947  38.847   6.185   2.722
63687W        W22948  35.600  43.800   4.162
63688W        W22949  33.405  10.350   4.839
63689W        W22950   0.857  24.180   1.388
63690W        W22951  30.586   8.368   2.396
63691W        W22952  25.517  17.167   2.297
63692W        W22953  38.024   6.740  13.390
63693W        W22954   2.782  14.244  10.585
63694W        W22955  34.558   0.967   2.850
63695W        W22956  38.044  32.114  13.043
63696W        W22957  15.252   6.839   0.431
63697W        W22958  44.870  26.683  14.898
63698W        W22959  15.805  39.382  10.978
63699W        W22960  42.912  33.555   3.858
63700W        W22961  34.559  31.429   2.750
63701W        W22962  23.569  12.350  13.064
63702W        W22963  35.943   3.284   2.756
63703W        W22964   7.868  14.263   0.311
63704W        W22965  35.085  30.602  12.850
63705W        W22966  19.263  20.683   0.472
63706W        W22967  41.854  17.136  12.034
63707W        W22968   7.313  24.132  10.972
63708W        W22969  11.337  29.600   2.412
63709W        W22970  31.428  17.660   3.775
63710W        W22971  40.960  23.501   4.309
63711W        W22972  12.695  43.353  12.883
63712W        W22973  26.662  17.790  11.524
63713W        W22974   4.791  18.074  11.059
63714W        W22975  11.289  20.696  11.036
63715W        W22976  36.058  18.188  14.434
63716W        W22977  10.306  32.140  11.084
63717W        W22978  38.337   3.294  14.491
63718W        W22979  20.601  24.601  13.900
63719W        W22980  12.307  28.055  10.968
63720W        W22981  31.555  18.099   4.216
63721W        W22982  40.846  10.664   3.758
63722W        W22983   0.313  19.761  10.944
63723W        W22984  24.494  30.043   5.567
63724W        W22985  40.409  26.093  14.442
63725W        W22986  25.108  14.680  10.571
63726W        W22987  19.042   3.815   1.785
63727W        W22988  29.571  32.133   3.753
63728W        W22989  10.767  17.235   2.783
63729W        W22990  11.833  22.708   2.243
63730W        W22991  10.728  14.711   0.821
63731W        W22992  36.902  33.391   3.754
63732W        W22993  15.152  26.465   9.933
63733W        W22994  28.582  38.505  11.555
63734W        W22995  28.578  28.017  10.497
63735W        W22996  13.726  31.130  12.089
63736W        W22997  17.721  27.942  13.985
63737W        W22998  34.902  35.004   2.688
63738W        W22999  17.574  17.209  11.456
63739W        W23000  28.561  25.685  11.552
63740W        W23001   7.291  42.790  11.441
63741W        W23002  23.107  30.052   3.198
63742W        W23003   9.850  12.315  13.373
63743W        W23004  10.710   6.395   5.624
63744W        W23005  24.044   1.461   0.315
63745W        W23006  26.469  44.388  13.058
63746W        W23007   0.940   7.782   4.263
63747W        W23008  36.553  14.191   1.875
63748W        W23009  21.264   4.900   1.380
63749W        W23010   5.930  13.746   1.347
63750W        W23011  44.802  36.391  10.120
63751W        W23012   0.407  15.190   2.179
63752W        W23013  42.401   9.742  13.007
63753W        W23014   5.810  36.428   2.181
63754W        W23015  31.471   8.304   5.108
63755W        W23016  35.906   6.909   1.442
63756W        W23017  44.479  15.758  12.022
63757W        W23018   8.879  16.751   3.734
63758W        W23019  34.420  39.025   0.442
63759W        W23020   0.883  12.738  11.113
63760W        W23021  35.459  19.259  12.030
63761W        W23022  30.640  15.323  11.990
63762W        W23023  44.373  41.894   4.750
63763W        W23024   7.830  33.428  14.472
63764W        W23025  14.339  24.532   2.188
63765W        W23026   7.209  32.494   4.315
63766W        W23027   2.410  36.000   0.914
63767W        W23028  23.557  41.458  13.049
63768W        W23029  42.521  43.866  13.368
63769W        W23030   1.283  44.293  12.428
63770W        W23031  18.060  39.900   3.174
63771W        W23032   5.339  35.469  13.545
63772W        W23033   3.358  12.805   4.116
63773W        W23034  32.452  33.052  10.456
63774W        W23035  30.509  11.786  10.048
63775W        W23036  44.875  26.571   5.629
63776W        W23037  25.554  17.063   4.750
63777W        W23038  25.135  25.592  14.856
63778W        W23039  13.336   2.271  11.873
63779W        W23040  15.603  12.294   3.787
63780W        W23041  25.151   7.668  14.322
63781W        W23042  36.558  27.063   1.431
63782W        W23043  38.442  25.596   5.728
63783W        W23044  38.927  24.056  11.919
63784W        W23045  19.071   8.334  14.941
63785W        W23046  17.603  20.555   1.785
63786W        W23047  15.675  37.394   0.946
63787W        W23048  17.685  42.911  14.422
63788W        W23049  37.030  23.521   3.836
63789W        W23050  23.535   7.695   0.773
63790W        W23051  29.539  19.684   0.330
63791W        W23052  29.435   3.886  14.029
63792W        W23053   0.949   4.885  13.384
63793W        W23054  17.580  21.673   2.900
63794W        W23055  10.290   8.685   1.928
63795W        W23056  23.616  31.076  10.444
63796W        W23057  37.446  36.074   1.330
63797W        W23058  41.852  14.194  10.603
63798W        W23059  22.607  37.345  13.897
63799W        W23060   9.875  24.607   0.954
63800W        W23061  28.649  10.254   2.369
63801W        W23062  33.584  32.091  12.887
63802W        W23063  39.428  30.064  12.449
63803W        W23064  20.166  27.653  11.511
63804W        W23065  28.086  29.592  11.027
63805W        W23066  14.136  26.661  13.057
63806W        W23067  37.566  27.957  12.492
63807W        W23068  33.614   4.699   1.857
63808W        W23069  36.084  28.953   1.798
63809W        W23070  30.431  37.004   4.824
63810W        W23071   2.274   2.454   3.156
63811W        W23072  34.995  28.621  12.459
63812W        W23073  44.823  33.428  12.001
63813W        W23074  39.051  43.284   3.360
63814W        W23075  39.400  29.555  14.368
63815W        W23076  35.090   1.356  14.312
63816W        W23077  22.145  26.042   0.301
63817W        W23078  33.878   8.859  13.438
63818W        W23079  30.595  11.807   1.859
63819W        W23080  44.850  37.073   0.906
63820W        W23081  29.034  36.946   1.282
63821W        W23082  28.003  26.632  14.509
63822W        W23083   1.824  24.492   3.338
63823W        W23084  28.130   2.735   3.261
63824W        W23085  31.973  12.854  14.366
63825W        W23086  44.784   4.825  13.428
63826W        W23087   1.757   4.332   0.795
63827W        W23088  13.714   9.802  14.339
63828W        W23089  35.093   6.244   3.640
63829W        W23090  33.028  28.508   1.250
63830W        W23091  22.625  29.462   4.185
63831W        W23092  21.146   1.837   0.867
63832W        W23093   6.413   0.437   0.909
63833W        W23094   4.216  17.273   4.344
63834W        W23095  43.446  28.506  11.894
63835W        W23096  31.986  28.473   0.372
63836W        W23097   8.163  25.030   2.344
63837W        W23098   8.347  38.822   1.861
63838W        W23099   4.921  43.891  14.016
63839W        W23100  44.355  44.753   0.309
63840W        W23101  24.570  43.814   2.699
63841W        W23102  14.306  37.411   3.341
63842W        W23103  31.419   2.343  11.393
63843W        W23104  25.186  16.686   0.786
63844W        W23105  41.367  24.576   2.732
63845W        W23106  19.264  27.050   5.132
63846W        W23107  32.492  18.069  14.957
63847W        W23108   1.887  34.434   1.218
63848W        W23109  19.746  42.863  11.948
63849W        W23110   6.740  36.918   4.641
63850W        W23111  17.638  34.081   2.401
63851W        W23112  26.538  27.095  13.014
63852W        W23113  12.207  42.383  14.308
63853W        W23114  10.877  25.685  13.853
63854W        W23115   1.399   1.910  12.090
63855W        W23116  16.752  22.190  12.358
63856W        W23117  42.336  34.419   0.277
63857W        W23118  15.778  25.696   0.875
63858W        W23119  20.615  32.021  12.077
63859W        W23120  11.723  18.655  11.968
63860W        W23121  19.086   6.404  12.883
63861W        W23122  36.417  37.554   1.793
63862W        W23123  34.615  13.654   0.307
63863W        W23124   6.717   6.808  10.533
63864W        W23125   1.256  17.071   1.286
63865W        W23126  26.037  24.113  11.406
63866W        W23127  28.593  25.026  11.447
63867W        W23128  32.906  21.257   4.160
63868W        W23129   7.293   4.837   0.383
63869W        W23130  43.874  10.701  12.545
63870W        W23131  10.293  24.172   3.734
63871W        W23132   4.411   1.353   3.671
63872W        W23133  16.161  28.118  11.413
63873W        W23134   6.886   9.253  11.030
63874W        W23135  18.656  43.882   1.737
63875W        W23136  12.752  29.136  14.418
63876W        W23137   9.832  20.720   4.661
63877W        W23138  18.716  26.953  14.764
63878W        W23139  19.651  30.953   0.469
63879W        W23140   6.361  18.156  14.325
63880W        W23141  33.086  34.895   4.735
63881W        W23142  27.560  23.193  13.449
63882W        W23143  10.245  26.612  11.991
63883W        W23144  11.238  30.081   3.207
63884W        W23145  36.501  44.814   2.857
63885W        W23146  43.900   6.696  13.914
63886W        W23147  15.132   4.789   1.825
63887W        W23148  43.852  12.130  11.403
63888W        W23149  31.564  19.547   3.151
63889W        W23150   2.435  23.730   5.263
63890W        W23151  20.226  19.105  13.791
63891W        W23152  20.069  16.206   0.465
63892W        W23153  22.590  14.606  14.894
63893W        W23154  41.343  13.723   3.823
63894W        W23155  18.739  28.141   1.307
63895W        W23156  22.147   3.398   3.847
63896W        W23157  34.981  11.798   2.706
63897W        W23158  12.615  30.495   2.346
63898W        W23159  25.537  21.545   0.888
63899W        W23160  15.657  43.980  11.585
63900W        W23161   0.479   0.451  12.363
63901W        W23162  30.938  10.197  11.488
63902W        W23163  32.474  32.102  10.908
63903W        W23164  29.449   4.377   3.228
63904W        W23165  14.274  38.046  11.895
63905W        W23166  18.548   7.363   0.455
63906W        W23167  16.302  28.549   1.392
63907W        W23168   9.707  24.671   4.145
63908W        W23169  12.704   7.756   4.179
63909W        W23170  21.729  22.735  10.477
63910W        W23171  35.010  23.084   1.238
63911W        W23172   0.956  33.015  10.466
63912W        W23173  17.631  42.316   4.794
63913W        W23174  26.074  22.689  13.004
63914W        W23175  10.794  12.817   0.906
63915W        W23176  21.255  43.437   1.424
63916W        W23177  19.075  32.003   0.248
63917W        W23178  34.975   8.779   1.344
63918W        W23179   1.747  22.178  10.529
63919W        W23180   3.261  43.274  11.998
63920W        W23181  35.058  17.213   1.931
63921W        W23182  42.457  32.087   2.316
63922W        W23183  26.010  34.462  10.925
63923W        W23184   0.428  15.230  14.351
63924W        W23185  15.783  35.550  12.927
63925W        W23186  40.506  41.855  13.481
63926W        W23187  13.243   5.215  10.136
63927W        W23188  38.918  44.883   0.877
63928W        W23189  41.347  14.127   4.603
63929W        W23190  34.023  37.401   2.413
63930W        W23191  41.443  42.997   1.871
63931W        W23192  32.635   8.684   0.298
63932W        W23193  23.519  40.509  10.457
63933W        W23194  18.170  14.147   2.211
63934W        W23195  35.486   0.863  12.390
63935W        W23196  44.311  43.793  11.513
63936W        W23197  29.650   6.911   1.332
63937W        W23198   0.831  29.532   0.770
63938W        W23199  38.845  32.995  12.954
63939W        W23200  33.090   5.409   1.711
63940W        W23201  29.656   6.428  11.870
63941W        W23202  16.635  33.027   3.869
63942W        W23203  23.610  39.382   4.319
63943W        W23204  37.549  35.506  14.012
63944W        W23205   4.837   1.278   1.891
63945W        W23206  31.151  14.146   5.198
63946W        W23207  20.160  20.153   3.868
63947W        W23208  33.057  20.038  14.514
63948W        W23209  12.243   2.320  10.967
63949W        W23210  11.333  19.121  12.489
63950W        W23211  37.045  29.539  11.117
63951W        W23212  18.623   4.771  14.907
63952W        W23213  15.667   5.933   1.823
63953W        W23214  17.156  29.953  11.436
63954W        W23215   0.918  19.540  12.869
63955W        W23216  25.662  32.610  11.465
63956W        W23217   2.423  44.432   1.409
63957W        W23218  30.645  11.259   2.743
63958W        W23219  24.116   8.890  12.063
63959W        W23220  19.635  17.196  10.126
63960W        W23221  40.022  10.318  10.619
63961W        W23222   3.759  39.826   4.296
63962W        W23223  27.665  33.024  14.799
63963W        W23224  40.016  39.993  10.611
63964W        W23225  41.910  21.095   2.304
63965W        W23226  21.230  22.211   1.795
63966W        W23227  38.836  22.134   4.623
63967W        W23228  12.191  42.435   2.240
63968W        W23229   9.386   7.730   1.243
63969W        W23230  32.582  28.996  11.508
63970W        W23231  18.706  28.584   3.383
63971W        W23232  40.913  11.786  14.394
63972W        W23233  16.690  42.472   1.292
63973W        W23234  18.610  40.969   2.210
63974W        W23235  26.628  11.334   4.649
63975W        W23236  20.768  20.606   3.166
63976W        W23237  14.641   2.241  13.875
63977W        W23238  23.613   6.748  11.496
63978W        W23239  25.967   8.380  14.287
63979W        W23240  19.540  20.175  14.481
63980W        W23241  40.318  15.296   0.480
63981W        W23242  32.982  17.745   4.704
63982W        W23243  31.969  13.269  13.037
63983W        W23244  13.719  38.405  12.071
63984W        W23245   0.793  18.739   0.826
63985W        W23246   3.393  43.836   2.847
63986W        W23247  27.115  15.154  12.034
63987W        W23248  16.116   4.858  11.018
63988W        W23249   5.756  13.330  14.828
63989W        W23250  22.580  20.062   3.334
63990W        W23251   6.240  15.811  11.913
63991W        W23252  39.345   3.928  10.501
63992W        W23253   6.756  36.893   1.859
63993W        W23254  42.468   3.759   2.197
63994W        W23255  26.593   8.835   0.345
63995W        W23256  22.578   4.703  12.989
63996W        W23257  38.946  38.518  14.995
63997W        W23258   8.406  12.735  13.990
63998W        W23259  25.134  36.855   2.691
63999W        W23260  22.713  13.840   0.926
64000W        W23261  10.718  24.674  13.376
64001W        W23262  25.086  14.818  13.987
64002W        W23263  12.329   9.155  10.582
64003W        W23264  34.867   9.174  10.100
64004W        W23265  43.340   4.415  10.457
64005W        W23266   7.684  28.176   4.122
64006W        W23267  24.068  28.951   4.328
64007W        W23268  20.611  29.016  14.766
64008W        W23269   4.918  15.286   4.330
64009W        W23270  22.634  21.583  14.376
64010W        W23271  26.675  39.347  13.450
64011W        W23272  30.507  41.412   1.427
64012W        W23273  33.417  10.878  12.064
64013W        W23274  18.166   9.252   4.790
64014W        W23275  14.166  39.335  14.961
64015W        W23276  43.978  31.443  11.901
64016W        W23277  13.816  12.116   2.808
64017W        W23278  34.431  29.601  13.352
64018W        W23279  39.062  40.510   4.724
64019W        W23280   3.765  27.452   0.436
64020W        W23281  24.501  17.248   1.799
64021W        W23282  26.972   4.785  11.004
64022W        W23283   7.894   4.375   0.349
64023W        W23284  36.007   6.198  13.364
64024W        W23285   0.446  43.385  13.313
64025W        W23286  22.712  38.436   4.659
64026W        W23287  29.538  37.426  10.066
64027W        W23288  16.202  41.380   2.402
64028W        W23289  24.197   1.967   0.847
64029W        W23290  12.219  27.657   1.731
64030W        W23291   2.430   9.351   2.181
64031W        W23292   3.879  21.126  12.873
64032W        W23293  31.056  28.615   1.445
64033W        W23294  39.045  44.347   4.604
64034W        W23295  34.069  36.044   4.119
64035W        W23296  12.221   4.881   3.740
64036W        W23297  38.053   4.328   3.342
64037W        W23298  29.972  14.710   1.361
64038W        W23299  27.654  22.701  11.447
64039W        W23300  44.780   9.876   2.845
64040W        W23301   5.359   9.254  10.619
64041W        W23302  26.208  37.058  13.842
64042W        W23303  17.186   8.333   3.849
64043W        W23304   0.752  39.403  11.896
64044W        W23305  24.582  12.847   2.824
64045W        W23306  33.594  43.966  12.880
64046W        W23307  41.949  14.206  13.792
64047W        W23308   5.195  25.616   4.216
64048W        W23309  35.015  37.446   4.333
64049W        W23310  27.521  22.543  12.393
64050W        W23311  22.225  21.227  10.451
64051W        W23312  14.177  11.258  14.481
64052W        W23313  31.606  10.192  14.924
64053W        W23314  30.421  43.857   2.375
64054W        W23315  40.352  36.093   1.397
64055W        W23316  43.418  35.559  12.965
64056W        W23317   0.324  20.121  14.353
64057W        W23318  38.017  11.284   4.296
64058W        W23319   7.269   7.372   5.760
64059W        W23320  43.454  24.000  13.879
64060W        W23321   1.790  28.024  14.981
64061W        W23322  28.157   5.386  10.905
64062W        W23323   8.878  16.812  13.792
64063W        W23324   7.368  10.150  12.551
64064W        W23325   7.826   5.267   0.803
64065W        W23326  11.264  18.149   3.845
64066W        W23327  35.000  22.226  12.046
64067W        W23328  26.183  21.183   9.999
64068W        W23329  16.762  26.483   3.732
64069W        W23330  22.717  14.736   3.379
64070W        W23331  11.628   3.783   0.761
64071W        W23332   3.943  43.883  13.852
64072W        W23333   5.398  34.475   2.706
64073W        W23334  25.555   0.891  12.382
64074W        W23335  29.457  28.176   3.176
64075W        W23336  28.071  17.655   0.348
64076W        W23337  14.331  40.507   4.803
64077W        W23338  31.060   6.700  13.514
64078W        W23339  33.413  25.178  12.894
64079W        W23340  43.847   8.869   0.390
64080W        W23341  44.442   7.386  13.407
64081W        W23342   0.378  20.231  12.521
64082W        W23343  15.235   2.766   4.795
64083W        W23344  22.739  19.099  10.528
64084W        W23345  18.093  28.125  11.866
64085W        W23346   3.794  25.114  14.011
64086W        W23347  40.022  18.731   2.395
64087W        W23348   1.895   2.235  11.005
64088W        W23349  13.325   3.923  10.433
64089W        W23350   4.775   1.772  10.421
64090W        W23351   2.811  24.036   2.901
64091W        W23352  22.999  42.352   2.765
64092W        W23353   7.777   1.838   2.708
64093W        W23354  32.549  12.195   0.245
64094W        W23355  31.583   6.794  13.872
64095W        W23356   5.309   2.849   1.394
64096W        W23357  24.615   1.291   2.836
64097W        W23358  19.640  25.674   2.808
64098W        W23359  32.520  26.458  13.061
64099W        W23360  17.734  35.450  14.006
64100W        W23361  34.448  10.782  11.536
64101W        W23362  29.991  29.609  11.526
64102W        W23363  25.984  42.462   1.337
64103W        W23364  36.024   3.863   1.715
64104W        W23365  19.620  14.671  14.924
64105W        W23366  32.612  40.444  13.063
64106W        W23367   2.274  27.547   4.755
64107W        W23368  15.708   3.773  10.616
64108W        W23369  13.683   6.849  11.573
64109W        W23370   9.202   9.369   3.328
64110W        W23371  33.110  21.163  14.489
64111W        W23372  30.157  13.322   2.796
64112W        W23373  28.960  44.479   0.833
64113W        W23374   4.873  27.978   2.761
64114W        W23375  34.966   2.278   2.734
64115W        W23376   3.458  17.735   4.189
64116W        W23377  22.504  32.573   0.893
64117W        W23378  11.351  29.131  10.460
64118W        W23379  15.760  24.089  13.526
64119W        W23380  19.256  39.388   3.284
64120W        W23381  14.325  21.067  12.848
64121W        W23382  26.575  21.073   2.320
64122W        W23383  23.671  20.564  12.893
64123W        W23384  27.031   3.232  10.971
64124W        W23385   1.882   9.703   3.333
64125W        W23386  32.429  40.016  11.410
64126W        W23387  34.049   9.217  13.535
64127W        W23388   9.840   8.316   4.714
64128W        W23389  17.138   0.899   2.864
64129W        W23390   3.427   6.755   3.324
64130W        W23391  33.089  40.486   0.906
64131W        W23392  41.312  31.468  14.453
64132W        W23393   3.364  10.743  12.564
64133W        W23394  13.798  24.723  14.779
64134W        W23395  14.110  29.166  14.961
64135W        W23396  12.610  13.814  11.888
64136W        W23397   6.879   8.190  11.995
64137W        W23398   7.376  21.096  12.982
64138W        W23399   6.917  13.666   2.322
64139W        W23400  39.873  27.564   1.756
64140W        W23401  32.574  13.829   2.196
64141W        W23402  32.588  37.081  13.853
64142W        W23403  37.488   1.743  11.012
64143W        W23404  36.067  32.088   0.731
64144W        W23405   9.816   8.898   5.158
64145W        W23406  35.926  10.377   1.277
64146W        W23407  44.974  36.567  11.540
64147W        W23408  16.268   9.845   4.266
64148W        W23409   8.197  39.931  14.511
64149W        W23410  16.650  43.425  12.861
64150W        W23411  15.097  21.049   1.874
64151W        W23412  33.524  39.541  14.390
64152W        W23413  11.671  10.762  11.023
64153W        W23414  16.755  22.611  11.401
64154W        W23415  44.276  38.325  12.884
64155W        W23416  40.317  21.655   4.142
64156W        W23417   0.432  33.553   0.862
64157W        W23418  23.215  39.385   1.853
64158W        W23419  12.704  36.492   3.212
64159W        W23420  30.932   1.448  11.936
64160W        W23421  37.548  24.049   0.359
64161W        W23422  39.412  38.021  13.503
64162W        W23423   7.773  30.514  13.514
64163W        W23424   4.920   8.255   3.384
64164W        W23425  38.820  33.458   0.824
64165W        W23426  34.456  33.131  13.869
64166W        W23427   2.232  40.975   3.365
64167W        W23428  42.787   9.383  11.070
64168W        W23429  15.225  10.251   1.929
64169W        W23430  31.980   6.920  11.868
64170W        W23431  12.701  43.412   3.197
64171W        W23432  28.985  22.032   4.735
64172W        W23433  29.429  11.179  11.557
64173W        W23434  44.995  34.921   0.365
64174W        W23435  42.931  19.580   4.722
64175W        W23436  23.681  29.024  10.579
64176W        W23437  21.208  32.426  12.479
64177W        W23438  11.714  34.878   3.180
64178W        W23439  24.102  17.201  14.344
64179W        W23440  33.987   3.724   2.763
64180W        W23441  10.823   5.348  14.016
64181W        W23442   7.231  21.583   2.773
64182W        W23443  38.387   5.309  13.309
64183W        W23444  28.606  13.601   0.375
64184W        W23445  34.882   0.766   1.923
64185W        W23446   7.218  39.335  11.126
64186W        W23447   8.850  11.629   3.197
64187W        W23448   2.450  15.088   2.327
64188W        W23449  33.547  40.816  14.322
64189W        W23450  28.138  17.801  11.504
64190W        W23451  25.672  14.766   3.381
64191W        W23452  33.528   9.800   3.343
64192W        W23453  13.814  23.601  14.391
64193W        W23454   3.244  13.155   0.760
64194W        W23455   4.437  34.495   4.173
64195W        W23456   3.223  41.971  12.546
64196W        W23457  30.093   3.303  11.493
64197W        W23458  21.661   9.277  11.490
64198W        W23459  35.504  40.474   4.716
64199W        W23460  24.974  22.608   2.382
64200W        W23461  36.070  39.331  11.551
64201W        W23462  37.362  34.940   0.366
64202W        W23463  26.028  32.583   4.611
64203W        W23464  25.977  19.702   1.827
64204W        W23465   1.963   5.333   0.439
64205W        W23466   1.873  15.272   4.745
64206W        W23467  14.120   7.803  14.960
64207W        W23468   5.319  42.843  11.411
64208W        W23469   9.281   2.269   3.225
64209W        W23470  37.853  16.609  14.000
64210W        W23471  19.741  32.606   5.235
64211W        W23472  36.544  17.221   2.354
64212W        W23473  27.133  25.654  14.759
64213W        W23474  34.923  33.488   3.332
64214W        W23475  20.040  35.083   0.321
64215W        W23476  35.095  24.186  14.363
64216W        W23477  17.642   3.327  14.498
64217W        W23478  42.287  28.537  11.996
64218W        W23479  13.197  31.603  14.295
64219W        W23480  16.177  29.549  10.517
64220W        W23481  39.560  36.578  13.510
64221W        W23482  12.220  27.987   4.788
64222W        W23483   4.323  40.828   1.794
64223W        W23484  31.970  10.738   4.721
64224W        W23485  10.726  28.504   2.237
64225W        W23486  26.665  23.628  14.478
64226W        W23487   0.953  11.760  10.929
64227W        W23488  34.451  25.687   2.188
64228W        W23489  12.311  10.248   2.257
64229W        W23490   3.790  41.366   1.355
64230W        W23491  31.463  31.420  14.884
64231W        W23492   3.764  25.174   2.873
64232W        W23493  36.002   7.219  11.550
64233W        W23494  29.938  39.888   4.305
64234W        W23495  31.037   9.887   3.866
64235W        W23496  37.536   4.368   2.275
64236W        W23497  38.475  17.116  10.451
64237W        W23498   8.225   1.287   1.722
64238W        W23499  37.859  34.031  13.887
64239W        W23500  41.365  18.653   3.673
64240W        W23501  43.771  30.478   2.302
64241W        W23502  39.044  40.376   2.244
64242W        W23503  17.094   9.154   3.736
64243W        W23504  26.029  20.090   0.381
64244W        W23505  39.945  13.656   0.929
64245W        W23506   8.310  34.922   2.882
64246W        W23507  23.602  24.005  14.306
64247W        W23508  37.004  22.519  12.410
64248W        W23509  25.684  14.212   1.407
64249W        W23510  40.513  35.596   2.897
64250W        W23511  24.161  32.973   9.661
64251W        W23512   8.841  23.588  13.982
64252W        W23513  24.515  15.698   3.230
64253W        W23514  28.063  14.138   4.719
64254W        W23515   2.861  38.558   0.301
64255W        W23516  30.982  35.539   1.709
64256W        W23517  15.167  24.711  14.466
64257W        W23518  21.074  21.644  13.534
64258W        W23519  16.248  18.752  10.108
64259W        W23520   8.228  43.378   2.285
64260W        W23521  22.238  11.237  14.499
64261W        W23522  36.936   2.733   0.772
64262W        W23523  26.513  32.983  14.488
64263W        W23524  10.286  28.939   4.163
64264W        W23525   4.858  22.733   1.387
64265W        W23526  18.165   9.691   4.333
64266W        W23527  15.578  16.266  12.018
64267W        W23528  21.192  21.162  11.077
64268W        W23529  36.551  44.872   1.812
64269W        W23530  32.059  23.618  14.447
64270W        W23531  23.150  20.581  14.488
64271W        W23532   1.259  23.569   3.227
64272W        W23533  37.544  21.078  10.520
64273W        W23534  20.104  15.141   4.183
64274W        W23535  32.427  22.076   3.354
64275W        W23536   3.286  11.341  11.002
64276W        W23537   1.830   8.687   1.740
64277W        W23538  28.643   7.891   1.905
64278W        W23539   9.845  42.017  11.466
64279W        W23540  32.504  22.731   9.992
64280W        W23541  31.548  36.512   3.379
64281W        W23542  41.479  25.116   0.298
64282W        W23543   8.160  36.448   3.855
64283W        W23544  21.018  21.194   4.836
64284W        W23545  40.962  15.582  11.574
64285W        W23546   1.464   4.860  10.899
64286W        W23547  31.095  43.320   3.702
64287W        W23548   0.324  28.063   4.834
64288W        W23549  42.458  41.889  13.394
64289W        W23550  41.303  31.077  12.356
64290W        W23551   7.866  13.290  12.071
64291W        W23552  18.264  16.692   2.234
64292W        W23553  32.471   5.774  12.907
64293W        W23554  25.514  28.478  11.479
64294W        W23555   5.353  29.117  10.924
64295W        W23556  30.540  30.145  13.343
64296W        W23557  28.066  20.678  10.598
64297W        W23558  33.430  43.907  10.887
64298W        W23559   1.260   9.658  11.946
64299W        W23560  30.107  27.520   2.220
64300W        W23561  34.371  12.340  11.904
64301W        W23562  40.016  41.925   1.748
64302W        W23563  31.040   8.295  14.430
64303W        W23564  35.424  42.462  13.911
64304W        W23565   7.908   8.294  14.017
64305W        W23566   9.677   3.883   4.604
64306W        W23567   3.804  41.806  12.379
64307W        W23568  20.666  32.452  14.970
64308W        W23569  11.622   0.486  10.141
64309W        W23570  25.052  34.962  13.061
64310W        W23571  37.877  16.215   1.226
64311W        W23572  11.316   5.426   4.662
64312W        W23573  11.309   0.454   4.315
64313W        W23574  11.357  31.974   3.774
64314W        W23575  28.619  39.060   4.652
64315W        W23576  11.694  20.080   1.870
64316W        W23577  22.075   5.431  14.458
64317W        W23578  17.752   2.333   0.360
64318W        W23579  30.959  39.445   4.719
64319W        W23580   7.202  12.624   3.304
64320W        W23581   0.976  40.850  12.996
64321W        W23582   6.351  11.335  13.460
64322W        W23583  16.688  16.588  12.550
64323W        W23584  17.748   7.695  13.356
64324W        W23585   7.666  28.461  14.844
64325W        W23586  15.258  44.845  11.423
64326W        W23587   7.905   9.212   0.451
64327W        W23588   9.756  20.100   4.747
64328W        W23589   0.488   4.840  12.967
64329W        W23590  33.981  38.043   0.837
64330W        W23591  23.074  26.703  14.305
64331W        W23592  23.210  21.532   3.366
64332W        W23593   4.857  22.582   5.310
64333W        W23594  29.656   9.780  13.060
64334W        W23595   1.774  40.522  10.998
64335W        W23596  28.135  17.271  12.931
64336W        W23597  32.065  22.671  11.952
64337W        W23598  44.430   9.164   2.333
64338W        W23599   9.740  21.109   0.405
64339W        W23600  25.095  36.896   1.904
64340W        W23601  33.081   0.466   4.251
64341W        W23602  39.922  12.123   2.818
64342W        W23603   1.316  43.466   1.231
64343W        W23604  41.032   8.840  13.806
64344W        W23605  26.516  44.924   5.621
64345W        W23606  26.615  21.722   1.909
64346W        W23607  39.449  16.257   4.323
64347W        W23608  32.413  17.267   0.899
64348W        W23609  28.141  38.029   2.690
64349W        W23610  29.658  44.490  12.867
64350W        W23611  42.012  20.685  10.590
64351W        W23612   9.191  19.579   3.828
64352W        W23613  13.246   7.252  12.943
64353W        W23614  21.528  24.544  12.440
64354W        W23615  16.686  29.002   4.354
64355W        W23616   0.481  28.673   3.749
64356W        W23617   8.794   8.665   1.846
64357W        W23618  29.146  40.917   4.714
64358W        W23619  23.048  34.017  12.907
64359W        W23620   1.899  38.835  11.903
64360W        W23621  14.690  31.958  13.427
64361W        W23622  26.207  12.658  10.619
64362W        W23623  40.422   5.277   0.316
64363W        W23624  21.204   8.184   3.323
64364W        W23625  17.571  26.549  13.868
64365W        W23626   2.334  34.609  14.352
64366W        W23627  20.256  31.479  10.904
64367W        W23628  27.060   2.764  13.344
64368W        W23629  16.194   7.365  13.965
64369W        W23630   3.384  13.250  11.119
64370W        W23631  11.843  38.368  13.018
64371W        W23632  17.786   6.308  13.976
64372W        W23633  37.963  36.907  10.478
64373W        W23634  22.739   6.779   3.823
64374W        W23635  33.606  19.738  11.946
64375W        W23636  43.905  25.607  10.988
64376W        W23637  22.652  14.775  11.601
64377W        W23638  22.711  41.469   3.777
64378W        W23639   6.747  44.391   0.944
64379W        W23640  40.508  32.441   5.719
64380W        W23641  34.108  34.114  14.956
64381W        W23642  28.936  11.694   4.304
64382W        W23643  27.112  30.609   2.740
64383W        W23644  33.905  18.676   2.747
64384W        W23645  38.873  41.407  10.908
64385W        W23646  34.976  10.744  11.085
64386W        W23647  40.495  37.569  11.895
64387W        W23648   4.738   3.917  11.895
64388W        W23649  19.643  16.723  12.543
64389W        W23650  32.554  31.419  11.541
64390W        W23651  19.133   3.738   1.233
64391W        W23652   5.280  35.489  12.554
64392W        W23653  22.683   7.282   4.814
64393W        W23654  12.816   8.207  10.130
64394W        W23655  40.424  29.628   4.803
64395W        W23656   4.418  26.156  11.002
64396W        W23657  39.350  15.296  14.943
64397W        W23658   2.302  22.085   1.289
64398W        W23659  26.147  26.099  12.403
64399W        W23660  33.086  16.776  12.059
64400W        W23661   8.395  32.484  10.973
64401W        W23662  34.023  30.122   0.730
64402W        W23663  33.003  22.070  11.996
64403W        W23664  23.501  19.565  12.377
64404W        W23665   1.965   4.206  12.452
64405W        W23666  36.442  16.166  13.506
64406W        W23667  21.206  38.497  14.498
64407W        W23668  40.961  23.596   3.669
64408W        W23669  15.206  40.838  10.957
64409W        W23670   5.821  23.516  11.400
64410W        W23671  30.589  11.166  12.478
64411W        W23672  35.541  43.865   0.757
64412W        W23673   2.776   8.360   3.170
64413W        W23674  32.936   0.313   3.759
64414W        W23675   3.256   6.379   2.380
64415W        W23676  31.127  34.544   3.748
64416W        W23677  11.336  24.194   1.806
64417W        W23678  34.055  38.975   3.256
64418W        W23679   8.829   3.250  11.096
64419W        W23680   6.335  20.545  12.842
64420W        W23681  19.561  32.934  11.999
64421W        W23682   6.744   3.338  12.558
64422W        W23683  40.906  33.537   2.785
64423W        W23684   9.191  40.311   3.801
64424W        W23685  23.701   7.327  11.985
64425W        W23686   2.435  23.724  14.940
64426W        W23687  29.641   1.263   4.721
64427W        W23688   0.450  28.460  10.923
64428W        W23689   3.732  10.368   3.828
64429W        W23690  10.253  27.947  14.355
64430W        W23691   4.779  39.386   0.865
64431W        W23692  22.006  44.406   1.814
64432W        W23693  20.060  13.131   4.678
64433W        W23694  19.247  14.338  12.048
64434W        W23695  29.949  28.481   1.367
64435W        W23696  41.893  13.181   1.727
64436W        W23697  35.054  41.901  13.801
64437W        W23698   7.182  11.641  12.004
64438W        W23699  29.950  18.229  11.487
64439W        W23700  37.933   0.939   4.321
64440W        W23701  11.213  31.011  13.500
64441W        W23702   0.443   3.329  11.606
64442W        W23703  20.243  37.856   2.181
64443W        W23704  34.968  29.138  10.999
64444W        W23705  12.267  30.460   2.845
64445W        W23706   3.264  19.079   4.344
64446W        W23707  42.787  30.131   4.601
64447W        W23708   3.902   8.355   2.670
64448W        W23709  28.092  12.240  14.880
64449W        W23710  28.075  22.034  11.976
64450W        W23711   2.429  11.295   1.401
64451W        W23712  38.476   8.781  12.980
64452W        W23713  22.733   8.262   4.219
64453W        W23714  26.036  33.607   0.791
64454W        W23715  15.648  30.005   1.866
64455W        W23716  33.490  20.560  12.953
64456W        W23717  16.639  39.455  11.954
64457W        W23718  10.780   0.878   9.992
64458W        W23719   0.328  43.861  14.004
64459W        W23720  44.292  23.732  14.388
64460W        W23721  33.518  36.975  14.911
64461W        W23722   4.700  18.157  14.334
64462W        W23723  35.525   7.365  11.478
64463W        W23724  25.137  44.352  13.460
64464W        W23725  17.696  11.366   1.866
64465W        W23726  35.473  39.355   2.790
64466W        W23727  10.636   7.343   3.198
64467W        W23728  25.095  20.116   3.828
64468W        W23729  44.407  14.709   1.911
64469W        W23730   0.456  16.256   0.799
64470W        W23731  11.141   5.196  12.473
64471W        W23732  29.530  23.628  12.981
64472W        W23733   4.881  26.598   3.176
64473W        W23734  40.308  18.609  10.457
64474W        W23735  18.662  28.603  14.896
64475W        W23736  10.797  11.675  10.011
64476W        W23737  16.199  31.644  12.529
64477W        W23738  21.171  21.048  11.869
64478W        W23739  11.671   6.325   3.863
64479W        W23740   6.818  28.581   3.742
64480W        W23741  28.487  40.506   1.742
64481W        W23742   0.429  36.078   3.174
64482W        W23743  42.780  26.970  14.461
64483W        W23744   8.289  36.959   3.146
64484W        W23745  24.114  10.873   2.230
64485W        W23746   2.359  12.756   4.341
64486W        W23747  21.230   4.737  12.364
64487W        W23748  18.295  20.228   2.350
64488W        W23749  44.861  16.659   1.221
64489W        W23750  40.483  30.953   2.845
64490W        W23751   6.764  37.994   0.923
64491W        W23752  13.221  12.842   0.296
64492W        W23753  22.532  28.045  11.585
64493W        W23754  44.420  41.909  10.488
64494W        W23755  13.697   4.877  14.877
64495W        W23756  28.064  14.212  13.427
64496W        W23757  18.106  31.021   0.965
64497W        W23758   2.230   7.892   4.726
64498W        W23759  21.559  24.043  11.089
64499W        W23760   2.937   7.694  11.118
64500W        W23761  38.854  37.904  13.957
64501W        W23762  44.865  19.263  11.941
64502W        W23763   7.801   7.792   3.193
64503W        W23764  37.458   6.839   9.963
64504W        W23765  22.722  22.130   1.309
64505W        W23766  15.791   3.722   5.579
64506W        W23767   7.843  19.067   4.632
64507W        W23768  38.880  38.391   2.322
64508W        W23769  30.124  18.576   2.673
64509W        W23770   0.399   7.874  11.557
64510W        W23771  39.444  19.095  14.024
64511W        W23772   7.185   2.814  13.838
64512W        W23773   8.893  29.085  13.844
64513W        W23774  29.157  30.907   4.266
64514W        W23775  40.469  20.714  13.458
64515W        W23776  23.523  24.686   4.604
64516W        W23777  26.491  29.599   2.672
64517W        W23778  22.164  38.846  12.454
64518W        W23779  23.166  20.634   4.267
64519W        W23780   0.261  44.492   0.888
64520W        W23781  41.906  21.633   1.318
64521W        W23782  14.744  24.629  12.972
64522W        W23783  23.992  33.436   4.799
64523W        W23784  10.722  30.160   2.673
64524W        W23785  12.836  36.885   0.925
64525W        W23786  33.475   2.761  13.475
64526W        W23787  27.488  24.986  13.313
64527W        W23788  43.347  17.641   1.738
64528W        W23789  18.275  15.717   2.703
64529W        W23790  42.310  39.502  13.510
64530W        W23791   0.813   9.351  10.468
64531W        W23792  40.347  38.866  10.608
64532W        W23793   8.174  25.707  14.885
64533W        W23794  33.941  21.671  11.903
64534W        W23795   1.394  36.407  11.864
64535W        W23796   2.880  24.160   4.832
64536W        W23797  28.952   6.833   4.685
64537W        W23798  35.479  23.086  13.904
64538W        W23799  21.752   3.788  13.056
64539W        W23800  19.156   6.319  14.461
64540W        W23801  42.388  27.100  11.424
64541W        W23802  27.603  14.684  14.304
64542W        W23803  26.101  44.502  13.038
64543W        W23804  21.518   6.319   1.742
64544W        W23805  18.151  15.229  12.465
64545W        W23806  41.845  44.755  11.375
64546W        W23807  35.390  37.542   0.389
64547W        W23808  26.657  35.873   0.445
64548W        W23809   0.870   6.374   2.257
64549W        W23810  24.214   5.211  12.882
64550W        W23811  15.599  18.548   2.716
64551W        W23812  29.576  35.530  13.847
64552W        W23813  12.164  38.939  13.520
64553W        W23814  25.077   0.891  10.454
64554W        W23815   5.837  20.642   1.917
64555W        W23816  42.297   5.409   3.365
64556W        W23817   3.775  43.494   0.475
64557W        W23818  36.038  19.562  14.932
64558W        W23819  14.668  36.894  11.042
64559W        W23820  34.530  37.554  13.472
64560W        W23821   9.713  25.501  13.394
64561W        W23822   1.960  35.059  14.017
64562W        W23823   1.927  16.765   0.754
64563W        W23824  37.925   6.874  11.538
64564W        W23825   3.303  13.260  13.515
64565W        W23826  12.150   7.288  14.433
64566W        W23827  19.595  40.936  12.545
64567W        W23828  23.710  33.505  10.942
64568W        W23829   0.400  29.519   0.421
64569W        W23830  27.515   4.331   4.321
64570W        W23831  13.721  31.560  13.454
64571W        W23832  14.172  27.589   0.366
64572W        W23833  18.178  16.694   0.867
64573W        W23834  32.923  38.025  12.375
64574W        W23835  24.217  20.134   0.285
64575W        W23836  40.878  39.407  10.005
64576W        W23837  25.610  17.215   5.267
64577W        W23838  44.927  26.479   9.532
64578W        W23839  33.064  43.423  11.023
64579W        W23840   5.902   6.728   3.306
64580W        W23841  22.006  44.998  11.031
64581W        W23842  12.655  27.121   2.751
64582W        W23843   0.292   9.792   3.763
64583W        W23844  25.012   9.212   1.420
64584W        W23845  43.786   8.312  13.871
64585W        W23846  37.048  40.367   0.761
64586W        W23847  28.039  32.454  11.544
64587W        W23848   9.793  28.665  11.407
64588W        W23849   8.201  25.547  12.869
64589W        W23850  25.983   3.443  11.864
64590W        W23851  31.052   2.330  10.939
64591W        W23852  42.420  29.137  14.285
64592W        W23853  40.368   7.401  14.932
64593W        W23854   8.402  12.852  11.510
64594W        W23855   3.261  14.200   3.706
64595W        W23856   1.452  32.610  12.455
64596W        W23857   1.277   4.939  13.544
64597W        W23858  18.785  43.852  14.868
64598W        W23859   7.837   1.415   4.145
64599W        W23860  27.123  19.777  12.033
64600W        W23861  16.704   2.447  12.087
64601W        W23862  25.983   8.828  11.066
64602W        W23863  15.627  33.622   0.797
64603W        W23864  43.513  26.673  13.486
64604W        W23865   9.345   8.757  10.611
64605W        W23866   8.873  43.440   0.819
64606W        W23867   1.822  33.517  14.459
64607W        W23868  29.002  28.081  13.320
64608W        W23869  12.209  30.148  12.034
64609W        W23870  18.585  16.261   1.745
64610W        W23871  25.075   5.749   0.948
64611W        W23872  11.296  18.178  10.982
64612W        W23873   0.925  22.577   4.683
64613W        W23874  13.161  11.186  10.415
64614W        W23875  18.686   1.852  12.006
64615W        W23876   9.783  28.676   1.415
64616W        W23877  28.959  35.407   0.299
64617W        W23878  11.338  39.491   2.209
64618W        W23879  22.665  14.732   0.949
64619W        W23880  17.569  43.294  10.517
64620W        W23881  15.684  43.355  10.888
64621W        W23882   2.723  20.268   2.234
64622W        W23883   9.170  28.650   1.824
64623W        W23884   7.694  12.765   4.200
64624W        W23885  14.735   0.746   1.743
64625W        W23886  26.074  33.498   4.669
64626W        W23887  10.839  34.867   2.758
64627W        W23888  26.092  33.003  10.441
64628W        W23889  42.363  30.437  13.039
64629W        W23890   6.379   4.324   2.884
64630W        W23891  12.228  42.365   1.383
64631W        W23892  41.035  15.813   1.786
64632W        W23893   6.677  43.489  13.448
64633W        W23894  15.137  35.965  11.929
64634W        W23895  37.471   4.846  13.530
64635W        W23896  42.943  43.794  11.054
64636W        W23897  25.637  29.532   1.365
64637W        W23898   4.705  39.474  13.526
64638W        W23899  33.995  13.325  14.302
64639W        W23900  25.100   2.330   9.998
64640W        W23901  11.643  44.877  14.889
64641W        W23902  25.709  30.030   0.260
64642W        W23903  39.366  35.892   1.818
64643W        W23904  11.137  19.147  10.954
64644W        W23905  36.552  12.758  11.420
64645W        W23906  16.198  22.203  13.019
64646W        W23907  26.552   7.194  13.447
64647W        W23908   4.895  11.660   2.202
64648W        W23909  30.630  12.708  11.554
64649W        W23910   6.725  24.604   2.205
64650W        W23911  22.554  31.913  14.010
64651W        W23912   4.806  19.169   2.888
64652W        W23913  21.086  40.509  12.350
64653W        W23914  17.132  35.856   1.811
64654W        W23915  22.199   6.266  12.483
64655W        W23916  10.860  15.217  14.477
64656W        W23917  29.642  26.091   1.741
64657W        W23918   1.916  20.223  12.445
64658W        W23919   1.928  39.536   2.682
64659W        W23920  32.020  36.844   4.793
64660W        W23921  33.579  16.700   0.297
64661W        W23922   6.204  36.398  12.960
64662W        W23923  35.505   6.305   3.834
64663W        W23924  31.634  23.111  14.954
64664W        W23925  36.354  24.480   1.317
64665W        W23926   1.246  24.102  10.930
64666W        W23927   1.894   3.861   3.270
64667W        W23928  26.197  28.168   4.135
64668W        W23929  25.645  27.020  11.479
64669W        W23930   2.386  16.233  13.966
64670W        W23931  26.472  35.925   4.651
64671W        W23932  12.684   1.272  11.443
64672W        W23933  21.583  41.436  12.463
64673W        W23934  15.706  37.993   3.216
64674W        W23935  16.154  10.337   3.256
64675W        W23936  18.665   7.270   2.345
64676W        W23937  31.042  31.647  13.540
64677W        W23938   5.817  23.145   1.416
64678W        W23939  21.048  43.830  10.501
64679W        W23940  43.417  43.312  11.438
64680W        W23941  44.476  13.187   3.769
64681W        W23942  29.153  23.544   2.201
64682W        W23943  27.691  37.070  12.925
64683W        W23944   0.289  22.039   0.324
64684W        W23945  40.381  12.714  11.413
64685W        W23946  25.491  19.144   3.258
64686W        W23947   0.901  26.587   1.853
64687W        W23948  34.064  40.960   4.714
64688W        W23949  36.466  24.012   2.233
64689W        W23950  43.274  37.977  11.080
64690W        W23951  25.159   8.257   1.225
64691W        W23952   1.970  23.508   4.708
64692W        W23953   3.252   0.934   1.359
64693W        W23954   0.870  38.073   4.802
64694W        W23955  26.528  44.470  10.523
64695W        W23956   0.883   9.777   0.795
64696W        W23957  13.713  24.681   2.707
64697W        W23958  19.586  13.132  11.499
64698W        W23959  26.480  22.059   2.783
64699W        W23960   6.790  27.610   0.879
64700W        W23961   1.436  34.005  13.062
64701W        W23962  20.690  26.065   2.332
64702W        W23963   3.353  14.765   2.799
64703W        W23964  21.709  43.875  14.454
64704W        W23965  40.848  22.534  14.914
64705W        W23966  15.756  30.433  13.985
64706W        W23967  15.800  21.230  11.594
64707W        W23968   2.854  20.706  12.947
64708W        W23969  31.419   4.864  14.359
64709W        W23970  32.117  29.990   0.416
64710W        W23971  19.167  21.187   0.750
64711W        W23972  36.872  21.601   1.878
64712W        W23973  33.917   6.340   5.110
64713W        W23974  18.279  25.582  11.976
64714W        W23975  25.566  40.919  10.423
64715W        W23976  37.349  22.157   4.141
64716W        W23977  16.771   3.779  12.432
64717W        W23978   6.397  18.598  12.046
64718W        W23979  11.813  25.975  11.515
64719W        W23980  11.320  16.148  12.448
64720W        W23981  27.558  44.871   4.686
64721W        W23982  24.652  22.648  11.128
64722W        W23983  34.910  12.771  14.284
64723W        W23984  28.557  23.510  12.048
64724W        W23985   2.927  18.269  11.040
64725W        W23986   8.290  23.583  13.986
64726W        W23987   5.832  44.932   4.688
64727W        W23988  33.899  25.645   0.399
64728W        W23989  44.277  21.585   4.187
64729W        W23990  36.037  11.152  13.940
64730W        W23991  27.137  26.603  13.027
64731W        W23992   6.205  42.011   1.239
64732W        W23993  38.987  44.264  14.437
64733W        W23994  16.278  29.997  10.037
64734W        W23995  11.357  10.862   2.238
64735W        W23996  31.499  35.378  10.633
64736W        W23997  26.539  17.643  11.975
64737W        W23998  33.985  29.025   3.333
64738W        W23999  26.519  43.824  10.422
64739W        W24000  35.050  30.146   3.857
64740W        W24001  21.189  25.156  12.572
64741W        W24002   8.899  33.971  14.296
64742W        W24003  38.899  39.881  10.132
64743W        W24004  31.052  24.570   2.223
64744W        W24005   1.280   7.338   4.351
64745W        W24006  44.330  20.207   3.370
64746W        W24007   5.875  44.898   0.802
64747W        W24008  13.128  27.465  12.375
64748W        W24009   3.860  39.905   1.226
64749W        W24010  25.033  36.067  12.358
64750W        W24011  27.484  29.930   2.288
64751W        W24012  30.083  28.127   2.701
64752W        W24013  34.040   0.449  13.386
64753W        W24014   6.255  43.823   3.765
64754W        W24015  16.302  43.014   4.689
64755W        W24016  37.935  15.754  12.828
64756W        W24017  37.372  11.854  11.977
64757W        W24018  24.532  41.327  12.939
64758W        W24019   1.746  32.418   2.337
64759W        W24020   1.308  43.899   0.727
64760W        W24021  40.398  24.143   3.365
64761W        W24022   0.443  25.186  14.809
64762W        W24023  15.316  38.985  14.860
64763W        W24024  11.644  17.637  14.980
64764W        W24025  33.463  20.272  12.079
64765W        W24026  23.168   9.384   3.326
64766W        W24027  31.927  26.045   0.481
64767W        W24028  33.462   7.867   1.794
64768W        W24029  35.956  14.101  13.051
64769W        W24030  29.521  32.414   1.803
64770W        W24031  40.332  25.709  14.496
64771W        W24032  22.163  21.105   2.854
64772W        W24033  27.114   8.828   0.436
64773W        W24034  31.902  22.580   5.098
64774W        W24035   6.200  35.452   4.789
64775W        W24036   9.800  22.709   1.861
64776W        W24037  19.126  43.331   4.728
64777W        W24038  17.113  27.086   9.466
64778W        W24039  28.611  35.413   4.331
64779W        W24040   3.774  23.006   0.811
64780W        W24041  15.085   9.329  12.528
64781W        W24042  39.018  18.050   3.173
64782W        W24043  41.311  28.612  12.844
64783W        W24044  30.440  41.801  11.408
64784W        W24045   5.389  21.066   5.230
64785W        W24046  34.914   7.728  14.444
64786W        W24047  10.178  36.030   0.401
64787W        W24048   6.270  41.857  13.432
64788W        W24049  42.324  14.249  11.900
64789W        W24050  40.018  12.345   1.925
64790W        W24051  42.802   8.666  14.412
64791W        W24052   9.884  18.600   1.439
64792W        W24053   8.658  10.798   1.344
64793W        W24054  25.585  41.296   4.633
64794W        W24055  40.420   0.929   3.678
64795W        W24056  25.585  19.158   2.783
64796W        W24057  11.371  40.403  11.885
64797W        W24058  43.472   6.753  13.959
64798W        W24059  40.547   2.394   0.939
64799W        W24060  34.402  10.221   0.394
64800W        W24061   7.368   4.867  10.137
64801W        W24062  24.121  14.806   3.684
64802W        W24063  41.504  20.581  10.959
64803W        W24064  33.954  20.270   4.634
64804W        W24065  12.814   4.896   2.396
64805W        W24066  42.898  40.895   3.737
64806W        W24067  18.652  42.414  11.918
64807W        W24068   3.905  12.139  11.883
64808W        W24069  16.163  13.119  11.522
64809W        W24070  28.155  15.769   2.196
64810W        W24071  35.460  21.711  13.539
64811W        W24072  34.458   3.251  14.276
64812W        W24073  26.203  44.818  11.557
64813W        W24074  34.424  36.488  10.564
64814W        W24075  17.650  23.735   1.343
64815W        W24076  43.490  24.629  11.865
64816W        W24077   7.892  29.139  10.501
64817W        W24078  12.254  25.490   0.793
64818W        W24079  14.830  40.920   3.738
64819W        W24080  27.452   2.740   1.308
64820W        W24081  38.482  28.067  14.500
64821W        W24082  26.072  37.028   0.256
64822W        W24083  36.460  17.265   0.854
64823W        W24084  11.237   1.923   2.894
64824W        W24085  31.598   5.216   1.444
64825W        W24086   2.872   1.242  11.393
64826W        W24087  31.580  19.058   0.953
64827W        W24088  34.384  14.777   2.215
64828W        W24089  31.037  25.658  14.467
64829W        W24090  44.320  40.543  10.906
64830W        W24091  36.481  22.068   1.348
64831W        W24092  18.233  11.690  14.900
64832W        W24093  26.537  10.822   4.175
64833W        W24094  39.411   4.922   3.197
64834W        W24095  34.523  14.647  13.039
64835W        W24096  27.058   3.305  12.015
64836W        W24097  19.088   6.808   1.390
64837W        W24098   2.456   3.730   1.835
64838W        W24099  29.513  17.725  11.094
64839W        W24100  31.497  33.607   4.351
64840W        W24101   5.338   2.302  10.508
64841W        W24102   7.185  24.222   2.237
64842W        W24103   5.717  24.591  13.436
64843W        W24104  39.032  26.508  14.410
64844W        W24105  24.594  29.061  14.978
64845W        W24106  14.152  35.549  12.952
64846W        W24107  16.812  14.165  14.014
64847W        W24108   0.988  25.049   1.808
64848W        W24109  26.981  16.777   2.365
64849W        W24110  21.697   9.866  14.366
64850W        W24111  42.927  35.572   1.824
64851W        W24112  41.338  18.684  10.609
64852W        W24113   0.882   9.336   0.836
64853W        W24114  33.994   8.227   4.622
64854W        W24115  40.484  22.515   1.816
64855W        W24116  35.497  18.607  14.288
64856W        W24117  41.439  43.508  11.532
64857W        W24118  35.053   4.209   0.297
64858W        W24119  32.599  38.067  13.500
64859W        W24120  16.104  14.734  12.371
64860W        W24121  43.428  40.941   4.352
64861W        W24122  36.966   8.708   5.306
64862W        W24123  27.457  28.029  11.605
64863W        W24124   9.306  24.701  13.384
64864W        W24125  35.560  23.706   0.815
64865W        W24126  31.035  30.032   4.637
64866W        W24127  19.069  27.666   3.658
64867W        W24128  17.586  22.168   4.291
64868W        W24129  39.828  43.386   4.663
64869W        W24130  32.548  34.971   1.696
64870W        W24131  39.906  33.960  13.399
64871W        W24132  13.721  32.481   1.249
64872W        W24133   5.918  14.159  12.899
64873W        W24134  29.426  28.063   4.313
64874W        W24135  18.074   5.283   2.210
64875W        W24136  30.089  10.175   3.668
64876W        W24137   5.256  18.243  12.542
64877W        W24138   6.760  25.009   0.779
64878W        W24139  11.625   8.816  14.845
64879W        W24140  39.344  43.380  14.899
64880W        W24141   6.690  25.179  10.584
64881W        W24142  28.585   1.240   1.403
64882W        W24143  33.454  38.479   3.239
64883W        W24144  22.636  37.355  12.998
64884W        W24145  26.175  25.572  14.967
64885W        W24146  38.019  20.138   1.920
64886W        W24147  38.382  36.527  11.071
64887W        W24148   8.730   9.375   2.274
64888W        W24149  11.180  33.989  11.995
64889W        W24150  23.614  21.192   4.200
64890W        W24151  24.088  18.695   2.209
64891W        W24152  33.546  39.991  11.408
64892W        W24153   3.941  37.005  10.538
64893W        W24154  10.258   4.852  12.555
64894W        W24155  17.203   8.764  13.402
64895W        W24156  17.087  33.131   3.232
64896W        W24157  24.636  27.982  14.016
64897W        W24158  10.869  24.543   3.828
64898W        W24159  41.837   0.436   2.188
64899W        W24160  35.074  23.997   4.355
64900W        W24161   1.965  10.236   0.893
64901W        W24162   9.844  36.367  14.805
64902W        W24163   7.260  27.668  13.792
64903W        W24164  12.126  38.025   2.376
64904W        W24165   8.797   1.470   2.684
64905W        W24166  34.953  18.658   3.294
64906W        W24167  44.846  30.143  14.340
64907W        W24168   2.363  24.071   0.387
64908W        W24169  39.964   2.305  11.900
64909W        W24170  17.616  18.578  11.021
64910W        W24171   6.843  25.702   0.809
64911W        W24172  43.396  39.466   0.270
64912W        W24173  28.507  31.517   0.939
64913W        W24174  14.278  33.586   1.820
64914W        W24175  13.713  29.980   1.789
64915W        W24176  13.821  16.696   1.223
64916W        W24177  18.668  32.446  12.067
64917W        W24178   8.348   5.219  13.021
64918W        W24179  34.909  40.979  12.499
64919W        W24180  34.008  40.903  13.334
64920W        W24181  40.324   1.245   4.119
64921W        W24182  18.098  33.085  12.933
64922W        W24183  24.978  22.189  13.493
64923W        W24184  22.570  35.036  14.311
64924W        W24185   9.742  30.516  12.940
64925W        W24186  16.662  16.589  13.510
64926W        W24187  12.650  17.282  11.976
64927W        W24188  32.433  39.443   0.751
64928W        W24189   3.288  29.593   0.807
64929W        W24190  23.616  42.017  13.474
64930W        W24191  13.821  22.590  10.933
64931W        W24192  38.049  42.788  13.007
64932W        W24193  27.139  30.009   2.379
64933W        W24194  16.116  39.907  12.343
64934W        W24195  41.451  11.220  10.485
64935W        W24196   5.206  24.151   2.387
64936W        W24197  22.016  36.894  13.888
64937W        W24198  29.599   8.177  13.908
64938W        W24199  25.071  26.591  13.831
64939W        W24200   7.892  38.872   0.291
64940W        W24201  35.378  23.644   1.722
64941W        W24202  11.272  29.008  11.422
64942W        W24203  42.353  21.615   1.228
64943W        W24204  32.609  35.596  13.476
64944W        W24205  11.154  38.977  13.846
64945W        W24206  21.725   6.381   9.920
64946W        W24207  18.135  15.636   0.781
64947W        W24208  16.168  41.031  10.511
64948W        W24209  27.181   8.697   2.214
64949W        W24210  24.051  44.889   4.652
64950W        W24211  40.490   4.809  12.837
64951W        W24212  30.432   4.293   4.753
64952W        W24213   6.320  41.939   4.181
64953W        W24214   9.175  18.675  12.365
64954W        W24215  20.694   7.234  12.067
64955W        W24216  19.131  12.136   3.716
64956W        W24217  34.514  31.093   0.360
64957W        W24218  29.528  42.283   2.824
64958W        W24219  15.166  43.457  10.513
64959W        W24220  10.225  22.196   3.318
64960W        W24221  28.090  28.060   0.950
64961W        W24222   1.330  29.626   0.880
64962W        W24223  19.722  35.529  13.829
64963W        W24224  17.094  23.039  11.404
64964W        W24225  42.957  23.094  10.577
64965W        W24226  43.880  43.474   3.261
64966W        W24227   6.785   0.435  14.790
64967W        W24228  27.196  12.818  11.530
64968W        W24229   1.245  16.246   3.854
64969W        W24230   1.745  20.236   5.176
64970W        W24231   2.949  43.832   1.349
64971W        W24232  31.079  35.066   4.346
64972W        W24233  19.766  18.167   3.296
64973W        W24234  36.029  26.496   0.918
64974W        W24235  18.560  34.967   3.806
64975W        W24236  38.463  10.669  12.025
64976W        W24237   4.272  10.850  12.018
64977W        W24238  27.638  24.129  11.408
64978W        W24239  35.964   3.340  11.576
64979W        W24240  14.688  23.490  10.558
64980W        W24241   1.887   6.748   4.165
64981W        W24242  10.678  12.616   2.758
64982W        W24243   4.326  18.241  12.928
64983W        W24244  40.371  26.055  12.516
64984W        W24245   6.190  41.293   2.281
64985W        W24246   0.761  32.421  13.892
64986W        W24247  44.985  39.905  11.051
64987W        W24248  36.059   8.178   2.757
64988W        W24249   8.684  27.069  10.610
64989W        W24250  14.113  15.717   2.810
64990W        W24251   6.359   1.325   1.721
64991W        W24252   3.778  31.495   0.330
64992W        W24253  17.744  41.355  12.425
64993W        W24254  23.143   8.843   1.441
64994W        W24255  11.838  25.964  10.507
64995W        W24256  38.923  28.027   3.369
64996W        W24257   6.235  13.179  13.025
64997W        W24258  12.218   6.278  11.462
64998W        W24259  12.743  17.134   1.933
64999W        W24260  11.847  15.580   5.288
65000W        W24261   6.862  32.959  12.413
65001W        W24262  25.160  44.292  11.505
65002W        W24263  28.185   9.308   4.222
65003W        W24264  26.164  34.564  14.298
65004W        W24265  20.616  34.542  10.561
65005W        W24266   6.190  13.802  12.074
65006W        W24267  37.413  41.008  13.364
65007W        W24268  31.064  34.467   4.203
65008W        W24269  41.830  29.436  12.430
65009W        W24270   7.784  29.522  14.763
65010W        W24271   9.226  30.421   5.276
65011W        W24272  41.369  26.049   0.925
65012W        W24273   0.872  38.012  12.367
65013W        W24274  44.274   2.362   1.790
65014W        W24275  20.533  14.289   4.819
65015W        W24276  33.537   7.788  14.370
65016W        W24277  40.338  25.060   4.234
65017W        W24278   9.289   9.809   0.384
65018W        W24279   3.851   5.233   0.731
65019W        W24280  36.549  27.577  14.419
65020W        W24281  12.674  28.487  11.946
65021W        W24282  26.170  41.531   4.343
65022W        W24283  32.067  38.834   0.864
65023W        W24284  34.984  32.086   3.368
65024W        W24285   4.906  42.811  13.898
65025W        W24286  27.186   4.943  12.541
65026W        W24287  37.495  10.791   0.915
65027W        W24288  35.424   4.783   3.258
65028W        W24289  22.516  13.231  14.892
65029W        W24290  15.230  43.885   4.697
65030W        W24291  30.995  36.075  10.044
65031W        W24292   7.795  16.610   2.790
65032W        W24293  18.620  16.779  11.119
65033W        W24294  13.811   5.867   4.835
65034W        W24295  28.056  32.457   1.378
65035W        W24296   5.830  10.330   1.756
65036W        W24297   2.887  43.383  13.991
65037W        W24298  27.586  20.234  12.955
65038W        W24299  26.108  39.944   3.731
65039W        W24300   3.225  27.652   1.763
65040W        W24301  42.318  24.208   4.264
65041W        W24302   9.807   6.262  11.537
65042W        W24303  13.274   5.913   0.251
65043W        W24304  19.634  24.590  10.509
65044W        W24305  40.317  32.965   3.644
65045W        W24306  24.589   6.344   3.188
65046W        W24307  36.849  35.099   1.232
65047W        W24308  40.334  43.913  12.509
65048W        W24309  23.669  30.559   1.921
65049W        W24310  13.193  24.661   3.184
65050W        W24311  10.176  17.274   0.296
65051W        W24312   1.307  25.076  14.450
65052W        W24313  19.218  30.971   0.298
65053W        W24314  39.959  20.589   9.936
65054W        W24315  33.511   7.402   4.152
65055W        W24316  18.249   3.791   1.918
65056W        W24317  20.249  33.881   3.703
65057W        W24318  30.994  23.637   1.845
65058W        W24319  24.011  37.850   3.193
65059W        W24320   0.973   9.687   1.225
65060W        W24321  16.255  24.612  11.886
65061W        W24322  37.474   1.963  12.528
65062W        W24323  32.996  37.414  12.054
65063W        W24324  24.575   1.795  13.396
65064W        W24325  30.917  19.576   1.250
65065W        W24326  37.919  32.110  13.920
65066W        W24327  43.938  16.316   3.287
65067W        W24328  42.511  23.154  12.524
65068W        W24329  26.143  42.312   4.341
65069W        W24330  40.885  22.676  11.064
65070W        W24331  36.592  39.490   1.822
65071W        W24332   3.408  16.608   4.331
65072W        W24333  35.854  15.324   2.713
65073W        W24334  16.710  44.395   2.203
65074W        W24335  27.180  10.786  13.858
65075W        W24336  25.066  17.588  14.766
65076W        W24337   2.949  34.476  11.605
65077W        W24338  42.416  17.206   1.448
65078W        W24339  36.034  32.121   3.230
65079W        W24340  32.903  41.505  14.928
65080W        W24341  44.778  43.882  13.463
65081W        W24342  34.993   0.450  14.973
65082W        W24343   5.326  42.870   4.214
65083W        W24344   7.337   4.763  10.931
65084W        W24345  37.875  43.892   2.250
65085W        W24346  30.633  28.549   2.892
65086W        W24347  39.873  41.827   2.188
65087W        W24348   0.767  25.713  12.873
65088W        W24349   1.883   5.289   2.882
65089W        W24350   3.281  29.039  11.877
65090W        W24351  44.388  44.992  12.554
65091W        W24352  40.817   6.325  13.014
65092W        W24353  17.773  20.703   3.225
65093W        W24354  37.043  41.867   3.153
65094W        W24355   6.801  42.295   0.354
65095W        W24356  34.116  33.087   4.156
65096W        W24357  16.686   4.362  13.500
65097W        W24358   8.721  15.739   2.357
65098W        W24359   6.282  13.174  13.442
65099W        W24360   2.378   6.824  13.516
65100W        W24361  16.749  19.636  10.550
65101W        W24362  38.446  27.635   0.865
65102W        W24363   7.769  34.507   3.247
65103W        W24364  15.185  26.699  13.412
65104W        W24365  30.053  14.124   1.293
65105W        W24366  18.676  21.595  14.018
65106W        W24367  32.078  16.749  10.516
65107W        W24368  19.554  14.622   3.302
65108W        W24369   6.884  35.512   3.789
65109W        W24370  12.164  26.619  13.470
65110W        W24371   5.779  31.067   0.890
65111W        W24372  38.825  12.195  10.532
65112W        W24373  36.549  31.985   0.250
65113W        W24374  11.848  40.411  14.797
65114W        W24375  11.173  20.141   0.806
65115W        W24376  18.665  24.522   4.752
65116W        W24377  20.589  16.684  11.872
65117W        W24378  23.103  44.265  14.399
65118W        W24379   2.292  36.852  12.865
65119W        W24380   4.285  12.215   2.822
65120W        W24381   4.410  42.389   1.895
65121W        W24382   2.362   1.851   3.183
65122W        W24383  18.052  34.879   1.266
65123W        W24384  44.498  13.666   1.926
65124W        W24385   5.354  36.398  11.011
65125W        W24386  34.873  27.947   4.705
65126W        W24387  37.884   0.846  11.495
65127W        W24388   6.407  33.467   1.825
65128W        W24389  30.156  18.086  14.898
65129W        W24390   4.444  17.253  14.428
65130W        W24391   3.273  21.039   1.886
65131W        W24392  25.570  13.137  13.315
65132W        W24393  14.789  23.989   4.227
65133W        W24394  31.513  36.390  13.346
65134W        W24395   9.745  20.221   2.738
65135W        W24396  33.479  33.479  11.423
65136W        W24397  42.832   9.219  14.311
65137W        W24398   7.223  33.056   3.809
65138W        W24399   7.291  44.326  14.808
65139W        W24400  12.807  38.428   2.367
65140W        W24401  24.994  24.715   2.830
65141W        W24402   5.829  42.022  14.914
65142W        W24403  13.286   6.862  12.082
65143W        W24404  32.412  21.070  12.462
65144W        W24405  39.962  20.654   4.312
65145W        W24406  25.475   1.324  12.490
65146W        W24407  21.069  42.998   3.750
65147W        W24408  16.684  16.743  14.808
65148W        W24409  40.448   4.206  12.933
65149W        W24410  24.633   4.912  10.046
65150W        W24411   7.669  40.827   1.875
65151W        W24412  42.014  36.023   9.994
65152W        W24413   3.794   6.412   4.341
65153W        W24414  22.111  11.821  14.945
65154W        W24415  26.675  24.124   1.706
65155W        W24416  32.404   9.725  13.308
65156W        W24417  39.519  42.014   4.146
65157W        W24418  39.014   4.298  10.497
65158W        W24419  24.014  25.650   2.419
65159W        W24420  32.585   4.834   3.379
65160W        W24421   1.242   6.869   1.289
65161W        W24422  35.582  15.225  11.429
65162W        W24423  21.080  14.649   3.308
65163W        W24424  40.860  44.429   0.483
65164W        W24425  26.201  41.938   3.167
65165W        W24426  33.887   9.869  14.001
65166W        W24427  16.772  31.988   0.755
65167W        W24428  43.402  10.308  12.023
65168W        W24429   7.799  26.699  13.811
65169W        W24430  15.681  14.739  11.528
65170W        W24431  21.086   1.450  12.997
65171W        W24432  44.418  34.893   4.643
65172W        W24433  24.191  39.316   1.250
65173W        W24434  12.731  30.493   4.355
65174W        W24435  18.738  33.919  11.077
65175W        W24436  15.125   1.266   2.869
65176W        W24437  18.171   9.738   2.375
65177W        W24438   1.256  29.496  11.063
65178W        W24439  29.973   0.755   4.645
65179W        W24440  22.163  27.039   4.615
65180W        W24441   9.828  16.616   4.792
65181W        W24442  13.792  31.151  13.529
65182W        W24443  39.528  11.763  10.489
65183W        W24444  14.232  26.168   3.221
65184W        W24445   4.343  25.649  11.598
65185W        W24446  15.211  32.424  11.587
65186W        W24447  14.732  27.094  11.941
65187W        W24448  39.514   1.931  13.918
65188W        W24449  39.038  33.988  13.318
65189W        W24450  15.652  43.930   2.894
65190W        W24451  37.925  29.456  13.050
65191W        W24452  40.438  12.726   3.731
65192W        W24453  32.897  15.200   4.621
65193W        W24454  42.004  24.057  11.472
65194W        W24455  17.572  17.080   2.827
65195W        W24456  12.122  13.263   4.238
65196W        W24457  39.527  15.144   0.737
65197W        W24458  16.165  20.633   5.136
65198W        W24459  30.022  43.391   2.718
65199W        W24460   4.223   9.243  12.059
65200W        W24461  20.052  37.844  10.585
65201W        W24462  18.184   6.725   0.453
65202W        W24463  17.147  32.425   3.151
65203W        W24464  36.857  41.843   0.372
65204W        W24465   3.259  17.642   4.695
65205W        W24466  13.133   3.773  13.878
65206W        W24467  17.100  44.459  11.984
65207W        W24468   7.742  36.917   1.347
65208W        W24469  42.353  18.156   2.245
65209W        W24470  37.401  17.113   3.297
65210W        W24471   3.840   8.697   3.770
65211W        W24472  23.495  27.178   2.330
65212W        W24473  36.449  12.775   0.923
65213W        W24474   0.854  16.144   0.925
65214W        W24475  24.038  22.679  13.425
65215W        W24476  36.405  24.015  13.513
65216W        W24477  37.404  11.206   1.332
65217W        W24478   6.688  29.617  11.010
65218W        W24479  35.491  27.502  10.637
65219W        W24480  18.710   4.266   4.225
65220W        W24481  12.288  33.965  12.547
65221W        W24482  22.039  17.153  12.841
65222W        W24483  12.216  19.676  10.909
65223W        W24484  25.992  19.055  13.054
65224W        W24485  31.926  40.968  11.558
65225W        W24486  27.962  25.975  12.533
65226W        W24487   7.273  34.993  13.471
65227W        W24488  15.691  16.759   2.370
65228W        W24489   6.247  26.655   4.153
65229W        W24490  23.074  27.619  11.033
65230W        W24491   1.789   7.207   4.708
65231W        W24492  21.731   4.866  10.963
65232W        W24493  24.976  19.571   4.741
65233W        W24494  29.545  15.250   4.184
65234W        W24495  34.406  37.957  12.358
65235W        W24496  33.020  15.323   2.900
65236W        W24497  25.649  38.563   1.359
65237W        W24498  12.198  29.160   1.732
65238W        W24499  20.122  23.064  12.997
65239W        W24500  14.336  17.731   2.769
65240W        W24501  12.708  41.942  13.914
65241W        W24502   7.730  12.636   4.754
65242W        W24503  34.567  41.436   2.393
65243W        W24504  24.653  36.084  11.463
65244W        W24505   2.399  33.622   9.928
65245W        W24506  28.071  16.086  10.630
65246W        W24507   1.914   4.270   4.249
65247W        W24508  19.107  29.058  11.585
65248W        W24509  31.133  37.460  13.947
65249W        W24510  12.301  12.204   0.842
65250W        W24511  20.707  30.969  10.411
65251W        W24512  16.211  24.654  13.461
65252W        W24513   7.799  18.241   2.242
65253W        W24514   0.468   9.158   1.309
65254W        W24515   9.718  11.739  14.289
65255W        W24516  25.113   5.381  12.912
65256W        W24517  30.009  31.067  12.989
65257W        W24518  24.650   5.264  11.916
65258W        W24519  22.114   1.273   3.677
65259W        W24520   2.472   2.411  11.608
65260W        W24521  26.591  24.603  14.789
65261W        W24522  39.496  38.346   1.781
65262W        W24523  28.063  44.844   0.300
65263W        W24524   5.932  25.701  13.381
65264W        W24525  17.663  23.145   3.225
65265W        W24526  41.385  36.933  10.895
65266W        W24527   6.838  21.580   3.831
65267W        W24528  21.097   4.736  12.917
65268W        W24529  28.470  13.622  10.558
65269W        W24530  29.936  24.985  14.887
65270W        W24531  28.607   0.409  11.445
65271W        W24532  25.660   7.250  14.759
65272W        W24533  25.559  20.098  14.962
65273W        W24534  14.150   1.975  12.370
65274W        W24535   9.821  38.072  11.922
65275W        W24536  30.981  23.052  10.995
65276W        W24537  19.662  44.322  12.448
65277W        W24538  30.030  29.044   3.378
65278W        W24539   2.468  26.642  10.133
65279W        W24540  41.443  23.138   0.894
65280W        W24541   5.217  25.109   3.859
65281W        W24542   1.408  12.151  13.974
65282W        W24543  23.183  10.705   2.711
65283W        W24544  42.795  25.608  13.523
65284W        W24545  19.593  12.216   3.291
65285W        W24546  23.703   5.720   4.138
65286W        W24547  34.953  10.670   4.610
65287W        W24548   3.869  42.861   0.805
65288W        W24549  34.373  11.686   4.666
65289W        W24550  12.240   7.801  13.888
65290W        W24551  40.463  12.197  14.842
65291W        W24552   1.747  29.516   0.426
65292W        W24553  14.149  40.843   0.276
65293W        W24554   5.754  18.279  11.892
65294W        W24555  24.665  20.220   0.430
65295W        W24556   4.791  22.020   4.273
65296W        W24557  38.946   0.462  10.559
65297W        W24558  44.469  16.750   1.377
65298W        W24559   0.889   1.236  13.818
65299W        W24560   2.282  37.474  14.420
65300W        W24561  41.374  13.105   2.819
65301W        W24562  38.921  20.644   0.325
65302W        W24563   3.715  18.242   1.269
65303W        W24564   3.238  37.840  12.979
65304W        W24565  40.433  32.899  13.965
65305W        W24566  32.464  26.023  10.903
65306W        W24567   1.737  15.642  10.990
65307W        W24568   0.856  41.802  11.384
65308W        W24569  12.201  33.048   1.847
65309W        W24570  21.613   4.945  10.604
65310W        W24571  25.132  38.057  12.032
65311W        W24572   1.749   2.773  14.373
65312W        W24573  41.973  14.806  10.597
65313W        W24574  23.578   2.735  14.412
65314W        W24575  22.630  30.476  11.982
65315W        W24576  11.224  17.122   0.473
65316W        W24577   6.740   1.825  12.493
65317W        W24578   0.941  12.326   4.720
65318W        W24579  11.793  36.896  14.383
65319W        W24580  37.370   4.258   1.915
65320W        W24581  42.402  20.243   2.754
65321W        W24582  17.799  10.843   0.454
65322W        W24583  25.032  26.468   2.670
65323W        W24584  33.053  40.467   3.797
65324W        W24585  24.551  35.419  13.892
65325W        W24586   9.392  19.042  11.416
65326W        W24587  19.185   5.425  10.051
65327W        W24588  29.029  43.951   1.304
65328W        W24589  18.625  35.099  12.513
65329W        W24590  39.819   3.763  13.879
65330W        W24591   5.419  21.191   4.643
65331W        W24592  40.932  36.963   1.374
65332W        W24593  31.909  27.031   4.353
65333W        W24594  29.097   5.316  13.375
65334W        W24595  31.993  33.130   4.173
65335W        W24596   6.232  13.645  13.022
65336W        W24597  21.560  41.404  14.369
65337W        W24598  28.186  10.783  10.576
65338W        W24599  42.333   7.838   2.195
65339W        W24600  44.358  32.973   3.193
65340W        W24601  15.223  27.575  13.010
65341W        W24602  42.310  35.056  14.512
65342W        W24603   4.448  12.680  10.607
65343W        W24604  12.152  44.461   1.435
65344W        W24605  10.820  22.192   3.280
65345W        W24606  14.285  36.446   3.805
65346W        W24607  42.286  33.027   0.442
65347W        W24608   7.837  11.694  11.896
65348W        W24609  31.068  35.560   1.430
65349W        W24610   2.948   1.238   4.240
65350W        W24611  37.451  25.506   4.776
65351W        W24612  20.646  10.747  12.509
65352W        W24613   2.894   9.362   3.258
65353W        W24614  36.892  10.876  13.381
65354W        W24615  23.226  36.479   3.224
65355W        W24616  41.940  22.200   2.404
65356W        W24617  24.015   5.763   0.823
65357W        W24618  18.208  33.920   0.821
65358W        W24619  44.307  44.320  11.425
65359W        W24620  12.808  20.207   0.385
65360W        W24621  38.409   6.388  14.405
65361W        W24622  37.965  19.109   3.836
65362W        W24623   7.374   4.736   4.793
65363W        W24624  41.808  13.181   0.444
65364W        W24625  18.729  22.696  12.952
65365W        W24626   7.777  33.389  12.365
65366W        W24627   1.854  21.093  12.898
65367W        W24628  42.483  38.436  13.481
65368W        W24629  21.752   3.292   4.691
65369W        W24630  36.557  15.651   1.891
65370W        W24631  42.375  19.190   2.812
65371W        W24632   2.738  44.977  13.849
65372W        W24633  22.040  13.242  10.899
65373W        W24634  15.312   3.939  11.007
65374W        W24635  13.804  33.505  12.433
65375W        W24636  16.209  44.301  12.825
65376W        W24637   4.819  26.698  13.975
65377W        W24638  16.163  38.402   1.404
65378W        W24639  24.040  20.564  14.313
65379W        W24640   5.745  23.713  14.988
65380W        W24641  13.148  34.036  14.276
65381W        W24642  31.620  21.039  13.044
65382W        W24643  12.658  22.511   2.664
65383W        W24644   6.922  26.127  11.023
65384W        W24645   3.896  21.022  14.446
65385W        W24646  32.415  40.480  14.868
65386W        W24647   5.259   2.827   2.723
65387W        W24648   0.885  12.625  12.432
65388W        W24649  44.967   0.248  10.492
65389W        W24650  38.331  12.356  11.107
65390W        W24651  15.664  39.927  13.348
65391W        W24652  11.130  44.259  13.384
65392W        W24653  25.069  29.054   4.245
65393W        W24654  33.913  43.971   0.882
65394W        W24655  16.657  28.113  12.082
65395W        W24656  17.595  34.899   9.990
65396W        W24657  35.979  33.004  13.055
65397W        W24658  29.134   8.200  10.414
65398W        W24659  23.507   2.868   1.934
65399W        W24660  44.922  24.556   9.439
65400W        W24661  37.576  44.489  13.431
65401W        W24662  31.100   7.709  13.877
65402W        W24663   0.869  19.281   4.670
65403W        W24664  44.342  14.202   9.981
65404W        W24665  11.648  33.617   0.443
65405W        W24666  43.318   6.681  10.432
65406W        W24667  15.647  35.853  12.939
65407W        W24668  20.565  18.250  12.831
65408W        W24669  26.185  12.216  14.837
65409W        W24670  32.551  24.656  13.965
65410W        W24671   2.746  31.047   0.836
65411W        W24672   7.813  19.561   2.888
65412W        W24673  27.945  44.008  12.870
65413W        W24674  34.061  27.487   2.268
65414W        W24675  28.963  22.235  10.423
65415W        W24676  42.829  31.090  10.940
65416W        W24677  43.513  41.936  13.817
65417W        W24678  23.721  42.024  11.406
65418W        W24679  30.920   8.873  11.969
65419W        W24680  10.761  27.980   4.313
65420W        W24681  14.280   6.693   0.894
65421W        W24682  37.484  29.991  14.932
65422W        W24683  10.746   1.806  11.914
65423W        W24684   5.382  27.535   4.353
65424W        W24685  16.625   6.373   4.319
65425W        W24686  44.379  36.968   2.297
65426W        W24687  19.631  15.084   4.604
65427W        W24688   2.830  25.090  14.000
65428W        W24689   2.936  23.145  13.386
65429W        W24690  34.465  28.952  12.563
65430W        W24691  36.008  33.935  11.972
65431W        W24692  31.107  32.023   2.831
65432W        W24693  44.770  27.187  10.600
65433W        W24694  26.508  31.483   3.211
65434W        W24695   2.292  38.435  12.406
65435W        W24696   9.174  16.586  11.025
65436W        W24697  27.095   2.335   4.819
65437W        W24698  19.601  43.808  11.975
65438W        W24699  29.007  24.077   2.755
65439W        W24700  31.897  17.131  12.555
65440W        W24701  29.424  21.035  14.375
65441W        W24702  31.067  30.649  10.128
65442W        W24703  28.455  31.983  14.938
65443W        W24704  40.922  27.056   5.631
65444W        W24705  43.496   3.357   2.777
65445W        W24706  41.008   7.340   1.723
65446W        W24707  16.716   2.398   1.376
65447W        W24708   5.238   2.444   4.203
65448W        W24709  38.486  29.950   0.302
65449W        W24710  22.656  37.519  12.423
65450W        W24711  11.642  43.797  11.608
65451W        W24712   6.358  28.955   1.429
65452W        W24713  15.599  22.569   1.702
65453W        W24714  10.261  34.956   2.287
65454W        W24715  11.701   9.841  11.461
65455W        W24716   2.859  31.570  13.791
65456W        W24717  33.445  26.625  10.065
65457W        W24718  29.128  27.564  11.915
65458W        W24719  23.180  31.949   4.798
65459W        W24720   3.742  19.094  12.355
65460W        W24721  26.109  35.442  11.988
65461W        W24722  44.789  40.427   2.231
65462W        W24723  17.094  34.426   0.483
65463W        W24724  31.987  15.815   2.725
65464W        W24725   4.440  37.368  13.002
65465W        W24726   2.343  13.843  13.058
65466W        W24727  42.425  24.652  13.518
65467W        W24728  19.680  36.388  11.950
65468W        W24729  43.954  10.694  11.046
65469W        W24730  12.787  44.369   2.704
65470W        W24731  19.109  27.495  14.312
65471W        W24732   9.270  37.915  14.798
65472W        W24733  26.701  36.922  10.413
65473W        W24734  25.625  27.044   3.329
65474W        W24735  32.545  29.611   1.361
65475W        W24736  26.115   5.815  14.344
65476W        W24737  25.179   0.851   5.653
65477W        W24738  19.218  12.352  12.987
65478W        W24739   3.380  21.041  14.436
65479W        W24740  28.068   3.392   2.250
65480W        W24741  18.670  38.507  11.384
65481W        W24742   4.450  32.040  10.629
65482W        W24743  41.368   7.233   4.598
65483W        W24744  11.853  35.060   2.335
65484W        W24745  27.602  38.496  12.558
65485W        W24746  42.857  20.686  11.385
65486W        W24747   0.774  40.484  12.829
65487W        W24748   9.718  14.283  12.064
65488W        W24749  28.995  38.422   1.735
65489W        W24750  36.927   7.693  10.564
65490W        W24751  16.147  18.703  14.792
65491W        W24752  14.650   7.291  11.595
65492W        W24753  26.469   7.770   1.329
65493W        W24754  38.023   1.252   1.896
65494W        W24755  44.328  14.205  11.562
65495W        W24756  34.540  42.904  12.053
65496W        W24757  17.705   7.894  12.562
65497W        W24758  28.436  30.653   3.292
65498W        W24759  38.049  23.492   1.396
65499W        W24760  26.120  33.609   1.393
65500W        W24761  38.010  11.789   2.192
65501W        W24762  42.789  13.247   2.892
65502W        W24763  31.494  19.210   0.279
65503W        W24764  26.029   1.435   0.329
65504W        W24765  26.002  18.112   0.324
65505W        W24766  19.222  38.840   2.822
65506W        W24767  39.531  28.121  11.578
65507W        W24768   3.925   8.664  10.512
65508W        W24769  24.131   5.362  11.962
65509W        W24770  34.521   4.833  12.050
65510W        W24771  19.721  10.251  13.961
65511W        W24772  12.346  34.500  11.439
65512W        W24773  44.887  24.481   0.330
65513W        W24774   4.932  16.316  12.502
65514W        W24775  23.094  33.607  11.457
65515W        W24776  11.744  31.453   0.479
65516W        W24777  25.118  21.566  12.429
65517W        W24778  29.567   8.296  14.983
65518W        W24779  43.017   8.309  10.467
65519W        W24780  35.579  20.538  14.848
65520W        W24781  12.191  29.492  10.899
65521W        W24782  13.716  42.299   4.287
65522W        W24783  34.079  26.069   4.767
65523W        W24784   8.732  31.442  13.419
65524W        W24785   8.887  37.546  11.917
65525W        W24786   4.834   2.317  11.444
65526W        W24787  16.619  11.271   2.356
65527W        W24788  19.065   3.452  10.409
65528W        W24789  20.081  16.267  14.313
65529W        W24790  42.873   1.337   4.213
65530W        W24791   9.230   1.382  11.863
65531W        W24792  24.225  19.159   0.246
65532W        W24793   4.845  42.500  12.007
65533W        W24794  40.505  39.328  12.924
65534W        W24795  20.531  11.301  11.892
65535W        W24796  27.486   9.732   1.767
65536W        W24797  31.562  40.814   4.249
65537W        W24798  17.292  15.630   3.682
65538W        W24799  20.074   5.793   4.622
65539W        W24800   9.278  34.977   0.379
65540W        W24801  17.188   2.325  11.005
65541W        W24802  12.795  28.580   0.871
65542W        W24803  39.500  42.860  10.963
65543W        W24804   0.345  37.559   4.680
65544W        W24805  44.880   9.212  12.883
65545W        W24806   2.849  16.129   3.257
65546W        W24807  26.546  35.981   3.317
65547W        W24808  44.994  19.626   0.903
65548W        W24809  30.923   5.701  14.498
65549W        W24810   9.661  34.446   3.235
65550W        W24811  42.799  27.057   0.866
65551W        W24812   5.327  40.862  10.583
65552W        W24813  39.864  19.133   0.768
65553W        W24814  41.365  32.062  10.919
65554W        W24815  28.526  42.521  11.610
65555W        W24816  29.541  13.160   2.411
65556W        W24817  15.109   2.722   2.874
65557W        W24818   0.898  12.768   2.267
65558W        W24819  39.898  12.734   2.336
65559W        W24820  31.965  34.044   3.221
65560W        W24821  32.024  41.305  13.833
65561W        W24822  38.447  17.593  12.990
65562W        W24823  19.576  36.016  14.894
65563W        W24824  12.708   9.667  14.888
65564W        W24825   0.891  34.600   2.310
65565W        W24826  25.604  42.420  11.104
65566W        W24827  38.919   4.373   3.221
65567W        W24828  36.355  37.374   0.893
65568W        W24829  11.164  23.714  11.587
65569W        W24830  26.656  28.677   1.821
65570W        W24831  19.083  31.456   0.437
65571W        W24832  37.975   3.246  12.059
65572W        W24833  12.212   3.940   2.720
65573W        W24834  26.108  21.174  11.990
65574W        W24835  11.717  39.321  11.958
65575W        W24836  26.601  28.550  14.909
65576W        W24837  31.066  21.202   0.827
65577W        W24838   1.302  16.599   0.350
65578W        W24839  44.991  36.096   2.318
65579W        W24840  13.214  18.546  14.916
65580W        W24841  15.814   2.379  14.796
65581W        W24842   1.420  38.948  12.909
65582W        W24843  41.423  24.513   0.341
65583W        W24844  25.170  36.402   1.330
65584W        W24845  38.356   8.175  11.499
65585W        W24846  33.380  40.028   2.761
65586W        W24847  16.675  18.789   2.883
65587W        W24848  23.647  36.388  13.823
65588W        W24849  19.117  43.889   3.750
65589W        W24850   1.941  31.930  13.385
65590W        W24851  12.722  11.158  14.319
65591W        W24852  27.148  38.367   1.698
65592W        W24853  16.760  22.132   1.401
65593W        W24854  32.541  13.169  13.369
65594W        W24855  11.808  12.138   3.685
65595W        W24856  39.534  33.085  14.999
65596W        W24857  34.543  12.613   1.297
65597W        W24858  12.146   0.438  12.342
65598W        W24859   4.877  22.615  13.847
65599W        W24860  27.685  25.216  13.878
65600W        W24861  23.640  23.174   1.773
65601W        W24862  12.170  43.378   0.419
65602W        W24863  12.198   0.319  10.483
65603W        W24864  21.632  29.116   3.302
65604W        W24865  18.655   4.316  13.811
65605W        W24866  24.082   4.424   2.891
65606W        W24867  23.597   0.912   0.884
65607W        W24868  12.119   9.218   0.756
65608W        W24869  39.368  11.672   2.221
65609W        W24870  12.720  30.435   4.795
65610W        W24871  10.223  38.843  13.330
65611W        W24872  14.649   1.295  13.343
65612W        W24873  41.443  41.906   0.850
65613W        W24874  44.399  27.536   2.238
65614W        W24875  41.471  38.335  13.544
65615W        W24876  18.777  41.821  11.951
65616W        W24877  23.145  39.064   4.603
65617W        W24878  41.040  35.604  12.410
65618W        W24879  41.515  30.106   0.870
65619W        W24880  44.453  13.769   4.113
65620W        W24881  24.579  38.408   1.441
65621W        W24882  28.505  21.163   1.281
65622W        W24883  30.127   8.256   0.462
65623W        W24884   9.229  36.450   0.456
65624W        W24885   4.895  29.453  12.991
65625W        W24886   6.214  28.176  10.001
65626W        W24887  20.076  24.702   0.347
65627W        W24888  38.501  34.891   2.240
65628W        W24889   1.793  16.106   0.279
65629W        W24890  13.782  22.531   3.305
65630W        W24891  14.098  44.313   0.247
65631W        W24892   7.193  39.394  13.913
65632W        W24893  27.573  25.629   1.709
65633W        W24894  16.167  35.589   0.424
65634W        W24895  20.224  42.926  14.787
65635W        W24896  40.366  22.092  12.541
65636W        W24897  39.392  10.351   0.739
65637W        W24898  44.473   5.353  11.587
65638W        W24899  41.868  43.291  14.824
65639W        W24900  40.464  23.201   2.340
65640W        W24901  29.463  41.889  13.958
65641W        W24902  38.849  15.589   3.697
65642W        W24903  34.878  41.485   4.617
65643W        W24904   6.882  24.560  13.533
65644W        W24905  35.392  21.736  12.434
65645W        W24906  26.169  26.481   3.226
65646W        W24907   6.209  14.662   4.711
65647W        W24908  30.925  41.316   0.328
65648W        W24909  12.118   6.858   4.263
65649W        W24910  39.843  22.191  10.589
65650W        W24911  11.175  37.972  13.818
65651W        W24912  17.231   9.722   1.865
65652W        W24913  10.636   3.935   9.439
65653W        W24914   2.442  27.097   1.926
65654W        W24915  28.436  18.747   4.303
65655W        W24916   7.304  40.415  14.364
65656W        W24917   8.711   1.746   1.344
65657W        W24918  37.560  13.735  11.417
65658W        W24919  36.935  27.599  12.012
65659W        W24920  27.639  30.918  14.445
65660W        W24921  16.134  29.554  14.017
65661W        W24922   9.663  38.916  10.973
65662W        W24923   6.211  28.145  11.562
65663W        W24924  22.588  14.160  13.420
65664W        W24925  31.912  32.409  14.283
65665W        W24926  31.580  12.687   3.786
65666W        W24927  36.513  44.314  11.380
65667W        W24928  26.162  33.119   3.638
65668W        W24929   8.812  30.123   1.930
65669W        W24930  14.750   6.799  14.879
65670W        W24931  16.603  27.941  12.351
65671W        W24932   8.361   0.892  12.373
65672W        W24933  33.471  35.398  14.857
65673W        W24934   7.841   7.288   2.805
65674W        W24935  13.612  40.445   1.805
65675W        W24936  39.944  42.385   2.752
65676W        W24937  31.570   5.811  13.799
65677W        W24938  26.537  11.198  14.335
65678W        W24939  37.407  14.667  10.470
65679W        W24940   4.856  29.621   5.083
65680W        W24941  29.592   7.735  13.518
65681W        W24942  17.259  21.587  11.492
65682W        W24943  34.588  14.828   2.838
65683W        W24944  37.875   2.407  12.986
65684W        W24945  38.510  44.259  12.841
65685W        W24946  43.283   4.277  13.399
65686W        W24947  10.384   3.333  11.951
65687W        W24948  41.826   7.397  13.827
65688W        W24949  37.339   0.253  12.018
65689W        W24950   3.380  13.766  10.899
65690W        W24951  25.552  21.133  10.440
65691W        W24952  13.711  11.142   1.318
65692W        W24953   1.846  35.022   3.866
65693W        W24954  38.523  40.513   3.201
65694W        W24955  37.541  32.473   4.750
65695W        W24956  17.196  28.633   1.760
65696W        W24957   1.434  22.740   1.318
65697W        W24958   7.685  37.508  11.019
65698W        W24959  14.133   1.924  11.387
65699W        W24960  35.109  21.558  13.047
65700W        W24961  30.439   5.759   0.466
65701W        W24962  44.854  29.541  12.540
65702W        W24963  29.020   6.753   1.820
65703W        W24964   3.361  44.468  13.443
65704W        W24965  12.721  43.016   3.366
65705W        W24966  24.204  39.861   3.868
65706W        W24967   9.170  43.865  10.936
65707W        W24968  34.908  30.139  13.414
65708W        W24969  37.077  42.806   2.840
65709W        W24970   7.747  39.925  10.577
65710W        W24971  22.061   3.402  11.528
65711W        W24972  22.040  27.692   4.777
65712W        W24973  10.223  28.669   4.603
65713W        W24974  32.137  19.631  13.361
65714W        W24975  29.998   2.303  13.390
65715W        W24976  42.903  21.606   1.710
65716W        W24977  30.588  10.642  13.963
65717W        W24978  10.171   8.759  12.837
65718W        W24979   1.248   2.257   1.326
65719W        W24980  26.123  34.488  10.558
65720W        W24981   7.749   4.838   2.300
65721W        W24982   8.735   1.951  12.971
65722W        W24983  30.013   0.881  11.973
65723W        W24984  25.572  22.638   1.223
65724W        W24985  25.189  19.199  12.892
65725W        W24986  16.153  25.479  14.863
65726W        W24987   0.320  40.319  13.055
65727W        W24988  15.787  12.685  11.971
65728W        W24989  19.594  41.945   5.321
65729W        W24990  26.509   6.364  14.381
65730W        W24991  22.689  26.666   9.944
65731W        W24992  42.003  24.610  13.537
65732W        W24993  23.567   2.900  11.880
65733W        W24994  37.387  12.167  12.475
65734W        W24995   6.883  35.473  13.846
65735W        W24996  30.478  31.403   4.315
65736W        W24997  11.264  32.072  11.573
65737W        W24998  23.129  22.049   4.632
65738W        W24999  19.750  18.576   4.761
65739W        W25000  21.040  14.338  11.128
65740W        W25001   8.246  20.758   3.703
65741W        W25002  38.455  41.905  12.467
65742W        W25003  38.904  35.420  14.277
65743W        W25004   5.402  16.767   4.284
65744W        W25005  25.172   4.209  11.607
65745W        W25006   9.725  38.468  13.336
65746W        W25007  27.968  17.556   9.973
65747W        W25008   9.367  44.957  11.508
65748W        W25009  38.839  18.058   3.780
65749W        W25010  27.971  14.758  13.867
65750W        W25011  17.204  40.916   3.172
65751W        W25012  30.949  31.508   2.396
65752W        W25013  17.767   2.802   1.896
65753W        W25014  29.945  15.595   0.851
65754W        W25015  40.384   1.740   3.672
65755W        W25016  10.377  18.066   0.966
65756W        W25017   9.846  33.476   0.817
65757W        W25018  27.197   2.268   2.256
65758W        W25019  10.343  37.561  11.129
65759W        W25020   0.250   9.255   0.355
65760W        W25021   5.279  16.169  13.547
65761W        W25022  29.982  22.566   4.215
65762W        W25023  16.227  40.987   4.162
65763W        W25024  24.210  27.028   4.273
65764W        W25025  34.613  28.445  14.802
65765W        W25026  42.330  17.664  13.506
65766W        W25027   1.349  39.008  11.116
65767W        W25028  34.542   2.767  12.360
65768W        W25029  10.351  26.133   4.798
65769W        W25030  15.579  28.010   1.283
65770W        W25031  35.951  22.584  11.406
65771W        W25032  34.453   5.432  11.869
65772W        W25033  20.746  39.468   2.894
65773W        W25034  31.987  35.457  13.885
65774W        W25035   6.198  27.178  12.506
65775W        W25036  16.167  23.041  12.889
65776W        W25037  10.838  17.654  12.411
65777W        W25038   6.302  28.030   0.818
65778W        W25039  12.328   1.296   4.290
65779W        W25040  18.738  32.105   0.392
65780W        W25041  11.328  27.614   0.272
65781W        W25042  22.048  18.204  14.323
65782W        W25043  12.772  19.180  13.541
65783W        W25044  20.086   6.251   4.328
65784W        W25045  13.706  32.079   0.953
65785W        W25046   6.267  43.383   0.330
65786W        W25047   9.256  11.249   0.925
65787W        W25048   2.890  38.366   1.222
65788W        W25049  38.998  40.003  12.882
65789W        W25050  43.424  29.970  14.780
65790W        W25051  30.059  20.546   3.354
65791W        W25052  13.799  24.628  12.473
65792W        W25053  14.252  35.510   0.810
65793W        W25054  34.471   9.167  12.958
65794W        W25055  25.589  37.517   1.410
65795W        W25056  25.522  29.610   9.949
65796W        W25057  24.687  42.455  13.989
65797W        W25058  10.214  26.661   3.708
65798W        W25059  19.736   7.694   4.779
65799W        W25060  44.437  11.813   0.811
65800W        W25061  30.602   8.165  12.906
65801W        W25062  27.636  16.231   3.333
65802W        W25063  27.157  14.288   4.250
65803W        W25064   2.930  10.229  12.923
65804W        W25065  30.114   7.243  14.032
65805W        W25066  44.782  14.661   2.883
65806W        W25067  26.687   0.427  14.355
65807W        W25068  11.867   7.771   4.607
65808W        W25069   1.405  16.185   1.433
65809W        W25070  18.255  36.405  13.539
65810W        W25071  17.671   3.878  14.880
65811W        W25072   5.217  30.051  12.451
65812W        W25073  11.626  17.152   3.661
65813W        W25074   8.681  38.410   4.634
65814W        W25075  20.061   4.820   5.258
65815W        W25076  19.070  25.578  12.383
65816W        W25077   8.889  26.181  12.827
65817W        W25078   2.278  32.636  11.048
65818W        W25079  36.946  33.023  13.502
65819W        W25080  44.359   0.955   0.728
65820W        W25081   0.322  13.304   0.739
65821W        W25082  36.036  43.960   4.705
65822W        W25083  35.411  22.166  14.824
65823W        W25084  37.950  27.165   0.414
65824W        W25085  22.747  43.383   1.766
65825W        W25086  44.883  42.380  14.343
65826W        W25087  29.084   1.260  13.850
65827W        W25088  25.137  44.481   2.805
65828W        W25089  19.748   7.381   0.441
65829W        W25090  26.033  40.527   4.621
65830W        W25091  25.206  34.905  14.031
65831W        W25092   1.292  23.182  11.496
65832W        W25093  16.737  24.495  10.893
65833W        W25094  15.126  31.143   2.278
65834W        W25095  23.202  17.270  10.490
65835W        W25096  34.403   8.872  11.950
65836W        W25097  16.101  22.238   4.736
65837W        W25098  41.503  28.971   2.274
65838W        W25099  20.132   1.339  12.984
65839W        W25100   5.826  34.435  11.008
65840W        W25101  21.020  32.014   0.848
65841W        W25102  14.303   5.881   3.765
65842W        W25103   5.855   5.813  13.317
65843W        W25104  33.118  25.079  13.010
65844W        W25105  31.897  15.306   3.839
65845W        W25106  38.350  35.037   9.633
65846W        W25107  36.943  16.608   2.191
65847W        W25108  38.841   3.884   2.264
65848W        W25109  25.172  43.013   0.275
65849W        W25110  35.387  11.374   9.667
65850W        W25111   7.267   9.882   0.324
65851W        W25112  18.122  32.502   0.753
65852W        W25113  23.061   4.409  11.551
65853W        W25114  36.063  42.398  12.043
65854W        W25115  10.735  31.087   3.230
65855W        W25116   4.712   5.828   2.351
65856W        W25117  37.542   3.257   3.833
65857W        W25118  37.365  25.209  11.607
65858W        W25119   8.184  28.665  12.490
65859W        W25120  24.626  19.543  10.894
65860W        W25121  39.340   1.896   0.801
65861W        W25122  21.677  23.628  13.480
65862W        W25123  39.487  37.079   3.332
65863W        W25124  16.778  40.307   2.711
65864W        W25125  28.568  26.128   0.845
65865W        W25126   5.218   3.220  11.942
65866W        W25127  26.130  10.374  12.413
65867W        W25128  23.068  32.395   9.663
65868W        W25129   0.461  20.221   2.404
65869W        W25130  23.143  13.829   4.736
65870W        W25131  15.788   2.409  12.521
65871W        W25132  23.091  42.309   3.187
65872W        W25133  18.141  32.073   2.776
65873W        W25134   2.270  23.041   0.945
65874W        W25135  28.944  44.296  13.941
65875W        W25136  13.636  21.694   1.932
65876W        W25137  21.149  24.056  12.462
65877W        W25138  38.863  12.165   3.825
65878W        W25139   3.899  10.274   1.241
65879W        W25140   4.810  14.270   4.301
65880W        W25141  37.398  39.824  14.504
65881W        W25142  13.713  22.557   0.818
65882W        W25143   9.338  43.465  13.911
65883W        W25144  44.964  26.005  12.921
65884W        W25145  35.021  39.350   1.829
65885W        W25146   7.238   8.272   2.301
65886W        W25147   4.847  25.989  14.872
65887W        W25148  38.541  30.060  12.057
65888W        W25149  20.633  22.231   2.353
65889W        W25150   4.308  22.578  11.108
65890W        W25151  15.769  26.487  12.482
65891W        W25152   9.825  24.035  13.974
65892W        W25153  34.014  30.617  11.609
65893W        W25154  25.164  37.423  12.984
65894W        W25155  26.973  23.688   1.367
65895W        W25156  25.217  37.086  11.506
65896W        W25157   9.224  10.237   4.138
65897W        W25158   9.863  28.659   2.899
65898W        W25159  31.526  43.830   4.354
65899W        W25160  34.878  19.201   2.403
65900W        W25161  34.101   7.416   3.261
65901W        W25162  26.660  28.965   1.439
65902W        W25163  39.884  16.605  13.329
65903W        W25164   6.327  42.788   5.197
65904W        W25165  18.161   6.876   3.862
65905W        W25166  18.656  35.976   2.765
65906W        W25167  27.010  31.023   2.733
65907W        W25168  25.622  17.137   3.304
65908W        W25169   3.379   1.862   0.791
65909W        W25170  26.062  16.613  13.516
65910W        W25171  28.609  15.097   1.831
65911W        W25172  24.640  10.366   2.878
65912W        W25173  23.064   5.721  14.909
65913W        W25174  30.497  39.492   3.159
65914W        W25175  42.412  22.703   1.306
65915W        W25176   5.319  22.082  12.053
65916W        W25177   2.448  42.902  12.949
65917W        W25178  43.899   2.951   0.726
65918W        W25179  16.745   1.344   1.358
65919W        W25180  44.371  12.224   0.846
65920W        W25181  16.191   1.327  13.505
65921W        W25182  34.956  38.042   4.665
65922W        W25183  28.149   1.316  13.813
65923W        W25184  38.033  12.152   4.223
65924W        W25185  32.056  44.831  13.411
65925W        W25186  31.616   5.927  12.578
65926W        W25187   0.875   7.351  12.345
65927W        W25188  32.120  37.914  12.406
65928W        W25189  24.609  42.392  13.526
65929W        W25190  20.720  36.969  12.859
65930W        W25191  26.533  22.639   0.933
65931W        W25192  41.929  40.380   0.928
65932W        W25193  21.737  13.805   0.858
65933W        W25194  17.071  39.828  10.960
65934W        W25195  41.415  10.165  14.910
65935W        W25196  21.544  21.139  12.048
65936W        W25197  42.959   2.315   3.859
65937W        W25198  12.671  34.511  12.903
65938W        W25199  35.941   3.233   9.988
65939W        W25200   8.884  24.519  11.516
65940W        W25201  15.170   4.879  14.855
65941W        W25202  44.486  31.945  12.479
65942W        W25203  17.194  34.034   1.819
65943W        W25204  28.485  10.378  11.096
65944W        W25205   9.240  34.992  12.519
65945W        W25206   8.191  26.017   4.174
65946W        W25207   9.236  38.971   2.710
65947W        W25208  43.928  11.179   3.654
65948W        W25209  13.208  38.373   3.174
65949W        W25210  31.467  23.075   3.355
65950W        W25211  28.120  22.585  13.836
65951W        W25212  37.879  40.801   3.253
65952W        W25213   1.243  42.502   4.175
65953W        W25214  31.570  32.609  12.379
65954W        W25215  19.579  37.883   2.195
65955W        W25216   0.883  43.389   1.374
65956W        W25217  17.794  13.287  12.394
65957W        W25218   6.261  13.320  14.359
65958W        W25219  20.220   5.741  14.800
65959W        W25220  15.102   3.273   9.473
65960W        W25221   2.235  30.119  11.889
65961W        W25222  12.640  14.194  11.872
65962W        W25223  19.597  33.477  12.555
65963W        W25224  26.986  29.008  10.542
65964W        W25225  19.535  16.594   1.354
65965W        W25226  33.988   4.303  11.498
65966W        W25227  13.236  43.989   1.750
65967W        W25228  32.545  42.813  14.768
65968W        W25229  23.210  37.836  11.546
65969W        W25230  18.606  17.707   2.195
65970W        W25231  21.220  23.075   4.804
65971W        W25232  39.843  44.956  10.433
65972W        W25233   1.444  17.079   4.629
65973W        W25234  22.707  29.935  13.372
65974W        W25235  38.961   9.161  11.510
65975W        W25236  37.904   5.689   1.383
65976W        W25237  40.965  19.648  11.888
65977W        W25238   9.816   2.379   3.834
65978W        W25239   5.708  24.681   1.697
65979W        W25240   9.800  30.047   2.246
65980W        W25241   5.866  11.364   1.818
65981W        W25242  28.989  41.334  10.407
65982W        W25243  13.160  38.854  11.568
65983W        W25244  34.564   3.320   4.217
65984W        W25245   1.297  17.704  11.555
65985W        W25246  14.227   3.323  10.634
65986W        W25247  11.279  40.479   1.852
65987W        W25248  42.298  24.657   1.826
65988W        W25249  36.065  33.418   4.599
65989W        W25250  10.255  42.907   3.634
65990W        W25251  14.219  38.401   4.345
65991W        W25252  25.045  11.145  13.816
65992W        W25253  34.463  37.418  11.402
65993W        W25254  38.338   9.269   2.727
65994W        W25255  31.111  29.100   3.803
65995W        W25256  31.125  39.519   2.380
65996W        W25257  22.041  16.735  14.023
65997W        W25258   9.289   3.430   3.677
65998W        W25259  16.648   3.753  12.860
65999W        W25260  43.415  15.708  13.833
66000W        W25261  29.038   0.276   4.821
66001W        W25262  19.208  13.329   2.389
66002W        W25263  28.030   8.874   1.698
66003W        W25264  10.641   9.353   3.837
66004W        W25265  13.319  27.464   2.184
66005W        W25266  35.537  24.143   0.358
66006W        W25267  11.756  21.040   0.349
66007W        W25268  22.099  40.849   3.301
66008W        W25269   0.832  42.491   0.478
66009W        W25270   9.347  42.299   3.272
66010W        W25271  22.211  35.453  11.598
66011W        W25272  31.468  43.862   0.751
66012W        W25273  14.722  32.391   1.742
66013W        W25274  34.599  25.501  11.385
66014W        W25275  32.029  19.082  11.484
66015W        W25276  11.260  23.642   2.879
66016W        W25277  30.025  30.574  13.517
66017W        W25278  31.477  31.457  13.832
66018W        W25279  32.403  32.126   2.332
66019W        W25280  30.059  35.877  14.022
66020W        W25281  11.853  10.705  12.398
66021W        W25282  30.435  16.741   4.754
66022W        W25283  11.218  43.325   0.892
66023W        W25284  43.792  19.549  14.924
66024W        W25285  14.661   5.906   3.756
66025W        W25286  16.709  14.683   3.343
66026W        W25287  29.001  29.560  11.874
66027W        W25288  38.332  10.765   4.279
66028W        W25289  32.596  43.017  11.445
66029W        W25290   0.345  44.971  14.802
66030W        W25291  12.816  35.968  11.376
66031W        W25292  15.581  32.541   0.825
66032W        W25293  30.566  44.330   2.296
66033W        W25294  17.795  33.381  12.981
66034W        W25295  23.628   6.273  11.406
66035W        W25296  30.655  21.576   4.791
66036W        W25297  16.672   3.384   5.290
66037W        W25298  19.579   5.856   3.640
66038W        W25299   6.713  22.631  11.928
66039W        W25300  11.635  31.509   3.328
66040W        W25301  17.779   8.341   5.096
66041W        W25302  16.748  21.757   4.682
66042W        W25303   7.232   3.943  11.094
66043W        W25304  13.297  42.869  13.347
66044W        W25305  36.879  17.200  13.461
66045W        W25306  30.927  14.741   0.750
66046W        W25307  19.226  13.293   1.405
66047W        W25308   1.830  16.292  10.993
66048W        W25309  20.686   0.332  14.831
66049W        W25310   3.951  21.540  14.904
66050W        W25311   7.209   5.792   2.222
66051W        W25312  20.205  28.985  12.872
66052W        W25313   7.356  34.933  12.879
66053W        W25314  20.121  39.034   0.732
66054W        W25315  30.582  44.962   3.196
66055W        W25316  31.969  36.073  12.549
66056W        W25317  14.780  11.346  13.986
66057W        W25318  21.065  37.351   0.726
66058W        W25319  20.551   6.760   0.384
66059W        W25320   3.361   6.888   3.712
66060W        W25321  26.557  24.062   0.278
66061W        W25322  12.820  16.669   4.282
66062W        W25323  12.228   1.837  13.354
66063W        W25324  44.411  21.152   4.615
66064W        W25325   6.331  11.242   3.284
66065W        W25326   7.680   8.402  11.428
66066W        W25327  12.324  14.158  12.033
66067W        W25328   9.815   1.459  12.455
66068W        W25329  43.934  16.313  12.476
66069W        W25330   3.220   6.383   2.863
66070W        W25331  19.161  24.012   0.875
66071W        W25332  11.858  33.423  12.028
66072W        W25333  26.473  27.197   1.828
66073W        W25334  31.151  37.362   0.934
66074W        W25335  11.172   8.166   4.754
66075W        W25336  13.334   2.437   0.381
66076W        W25337  21.609   5.384   0.307
66077W        W25338  32.022  24.630  12.899
66078W        W25339  21.264   4.310   3.185
66079W        W25340  39.023   9.808   5.114
66080W        W25341  39.890  40.327  13.512
66081W        W25342   7.763  11.330   0.470
66082W        W25343  36.537  24.057  14.363
66083W        W25344   1.940  43.416  10.891
66084W        W25345  26.153  44.943   3.175
66085W        W25346   2.913  31.967   5.257
66086W        W25347  23.640  23.220   3.250
66087W        W25348  39.029  28.596  13.041
66088W        W25349  16.706  17.673   3.772
66089W        W25350  10.789  41.923   1.343
66090W        W25351  18.177  15.108   0.454
66091W        W25352   5.426   1.403   3.365
66092W        W25353  25.563   6.872  12.922
66093W        W25354   6.297   3.435  13.314
66094W        W25355  18.117  29.955   2.220
66095W        W25356   4.438  21.029   1.310
66096W        W25357  18.243  30.097   1.861
66097W        W25358  43.774  22.234  13.967
66098W        W25359  25.663  20.634   0.420
66099W        W25360  11.805  42.844  14.417
66100W        W25361  29.575  43.867   1.844
66101W        W25362  16.212   1.911   2.837
66102W        W25363  36.475  13.290   1.235
66103W        W25364   6.366   4.774  14.998
66104W        W25365  17.792  42.798   4.154
66105W        W25366  36.045   9.864  14.440
66106W        W25367  24.722  10.653   3.766
66107W        W25368   4.802   2.245   2.667
66108W        W25369  22.533  33.124  14.319
66109W        W25370  37.870  39.029   0.809
66110W        W25371   3.855  30.445  11.063
66111W        W25372  17.631  30.155   2.310
66112W        W25373   1.396  20.072  14.896
66113W        W25374   5.742  11.704   0.930
66114W        W25375  38.945  35.870  13.381
66115W        W25376  31.517   8.725   4.798
66116W        W25377  20.730  24.060   0.336
66117W        W25378   0.898  40.905   0.928
66118W        W25379  15.591  31.919  11.458
66119W        W25380  38.473  29.955  11.577
66120W        W25381  44.005  35.419   4.759
66121W        W25382   0.406   0.941  13.887
66122W        W25383  16.096   1.353  14.844
66123W        W25384  29.948   0.457   0.913
66124W        W25385  42.008  36.496   3.708
66125W        W25386  43.441   0.936   3.301
66126W        W25387  39.013  43.317  11.064
66127W        W25388  18.068  35.962   1.812
66128W        W25389  19.269  10.807  13.412
66129W        W25390  29.063  21.512  12.491
66130W        W25391  15.277   1.731  12.879
66131W        W25392   0.988   4.852   1.323
66132W        W25393  39.043  38.050   3.202
66133W        W25394  15.166  34.437  14.003
66134W        W25395  20.687  11.273   0.805
66135W        W25396   1.776  30.952   2.213
66136W        W25397  30.151  23.667  11.417
66137W        W25398   3.916   8.791   2.214
66138W        W25399  28.070   4.214  13.361
66139W        W25400   4.402  20.118  13.341
66140W        W25401  20.748  42.365  14.334
66141W        W25402  16.626  30.074   4.174
66142W        W25403  29.067   1.327   2.900
66143W        W25404   6.361  26.208   0.805
66144W        W25405  15.725  21.027   2.806
66145W        W25406   3.820  28.514   3.804
66146W        W25407  11.622   7.406   2.207
66147W        W25408   5.293   6.811  13.480
66148W        W25409  11.759  31.458  11.126
66149W        W25410  30.997   7.735   9.943
66150W        W25411  42.848  37.545   0.301
66151W        W25412   2.447  42.437   4.778
66152W        W25413   9.685  10.230  10.426
66153W        W25414  31.542  19.601   2.760
66154W        W25415   5.868  18.201   4.315
66155W        W25416  34.050   7.210   4.838
66156W        W25417  44.914  44.988  12.530
66157W        W25418  44.899  34.475   0.757
66158W        W25419   6.347   5.754  14.804
66159W        W25420  19.119  32.441  13.922
66160W        W25421   7.710  25.054  11.029
66161W        W25422   8.865  38.967   4.711
66162W        W25423  13.305   5.208   3.697
66163W        W25424   9.378   6.819   1.446
66164W        W25425   8.206  27.505  14.442
66165W        W25426  26.476  36.098  12.503
66166W        W25427  28.538   7.680   3.180
66167W        W25428   7.306  30.565   2.374
66168W        W25429  23.528  33.606   9.642
66169W        W25430  41.902  43.765  13.043
66170W        W25431  33.078  17.110  11.579
66171W        W25432  19.060  42.381   1.731
66172W        W25433  43.787  18.789   3.684
66173W        W25434  20.060  39.938   2.833
66174W        W25435   6.839  14.804   3.326
66175W        W25436  22.549  22.725  13.032
66176W        W25437   6.874  20.634   3.215
66177W        W25438  36.898   9.328   9.539
66178W        W25439  31.448   6.419  12.443
66179W        W25440  34.604  29.590  14.454
66180W        W25441  39.940   7.864  14.782
66181W        W25442  38.530  30.984  11.864
66182W        W25443  44.934   2.763  13.330
66183W        W25444  28.521   6.741   0.951
66184W        W25445  26.527  30.518  11.449
66185W        W25446  37.557  43.901   3.725
66186W        W25447  21.207  39.832  10.625
66187W        W25448  21.218   7.807   1.728
66188W        W25449  12.307  42.977   4.662
66189W        W25450  28.544  18.773   4.664
66190W        W25451  22.242  28.483  11.052
66191W        W25452  21.667  27.649   4.694
66192W        W25453   5.878   6.241   5.279
66193W        W25454  34.522  13.820  10.488
66194W        W25455   6.210  27.500  10.925
66195W        W25456   6.908  17.643  13.358
66196W        W25457   1.355   3.943   1.873
66197W        W25458  40.946  21.091  12.044
66198W        W25459   2.813  22.176   1.892
66199W        W25460  26.518  16.189   1.780
66200W        W25461  21.162   4.213  13.043
66201W        W25462   2.783  43.351   3.726
66202W        W25463   9.160   6.730   3.246
66203W        W25464   1.842  38.489  13.991
66204W        W25465   3.918  27.158  12.526
66205W        W25466  43.461  28.071   0.800
66206W        W25467   0.416  35.860  14.974
66207W        W25468  11.841  39.349   3.231
66208W        W25469   2.232  27.498  10.954
66209W        W25470  24.629  11.652  10.978
66210W        W25471   2.817  35.925   3.289
66211W        W25472   4.894   3.228  13.804
66212W        W25473   5.422  20.131  14.799
66213W        W25474  42.018  36.972   0.423
66214W        W25475   0.434  15.203   2.784
66215W        W25476  42.830  25.119   9.446
66216W        W25477  25.027   7.897  13.928
66217W        W25478  44.811  36.959  11.037
66218W        W25479   7.250  19.661   3.669
66219W        W25480  40.799  13.825  11.108
66220W        W25481   3.355  27.553  14.810
66221W        W25482  20.710  29.450   2.216
66222W        W25483   8.397   3.883  14.510
66223W        W25484  16.705  32.431   3.239
66224W        W25485   0.380  44.288  12.938
66225W        W25486   2.472   9.177  13.398
66226W        W25487   5.806  40.532  14.916
66227W        W25488   1.965   8.803  12.416
66228W        W25489  17.283   0.318   1.832
66229W        W25490  39.393  36.394   1.770
66230W        W25491  24.219  22.573  11.513
66231W        W25492  10.812  36.400  12.966
66232W        W25493  14.289  18.749  10.955
66233W        W25494  10.353  27.527  14.326
66234W        W25495  12.251  44.928  12.385
66235W        W25496   5.403  37.993  11.437
66236W        W25497  27.163   9.783  13.478
66237W        W25498  31.576  25.019   2.405
66238W        W25499  37.055   7.319   0.873
66239W        W25500  23.990  39.013   1.898
66240W        W25501   8.672  40.547  13.498
66241W        W25502  40.467  13.839  13.019
66242W        W25503  25.632  29.066   5.265
66243W        W25504  16.134   6.389   1.917
66244W        W25505  34.113  29.479  12.571
66245W        W25506  21.231  33.931  12.361
66246W        W25507   4.896  29.471  14.301
66247W        W25508  14.770  23.231   0.285
66248W        W25509  20.626  18.118   1.248
66249W        W25510  14.666  18.639  10.517
66250W        W25511  37.873   2.903   2.785
66251W        W25512   5.264  20.613   2.808
66252W        W25513  11.160   9.775  13.019
66253W        W25514  27.613   8.850  12.997
66254W        W25515  19.602   6.700   1.860
66255W        W25516  28.574   0.809  11.964
66256W        W25517  27.164  13.105   1.911
66257W        W25518  29.450  21.142  12.950
66258W        W25519   9.229  39.006  11.527
66259W        W25520  24.556   5.241  14.404
66260W        W25521  21.189  22.007   2.178
66261W        W25522  39.511   4.267   4.721
66262W        W25523   1.385   4.354   1.367
66263W        W25524  35.495  35.422  12.355
66264W        W25525  25.545  37.399   4.818
66265W        W25526  10.766  32.915   3.346
66266W        W25527  21.637   2.458  11.546
66267W        W25528  10.299  23.663  13.992
66268W        W25529  44.287  17.305  12.025
66269W        W25530  17.690   4.860   5.796
66270W        W25531  28.623  20.200   1.350
66271W        W25532  29.921   5.714  11.051
66272W        W25533  12.827   1.858   0.755
66273W        W25534  13.230  28.651  11.416
66274W        W25535  12.776  37.086  12.835
66275W        W25536  25.183  41.296   1.356
66276W        W25537  34.599   3.752   2.343
66277W        W25538   4.414  20.041  12.499
66278W        W25539  33.093  36.064  12.889
66279W        W25540  17.717   1.369  10.997
66280W        W25541  27.623  21.600  10.477
66281W        W25542  16.783   1.338   3.703
66282W        W25543   5.831   3.221  14.344
66283W        W25544  11.358  25.696   2.380
66284W        W25545  40.478  28.056   1.408
66285W        W25546  17.557   3.825   3.854
66286W        W25547  41.968  17.124   1.311
66287W        W25548  25.708  33.041  12.476
66288W        W25549  23.176  20.268  13.527
66289W        W25550  17.796  19.139  14.353
66290W        W25551  19.045  44.426   1.704
66291W        W25552  20.578  30.033   2.355
66292W        W25553  16.142  26.166   0.383
66293W        W25554  14.829  28.443  13.061
66294W        W25555  26.011   9.313  14.402
66295W        W25556  35.996  40.804  11.570
66296W        W25557  18.760  31.604   0.814
66297W        W25558  19.752  35.969  10.129
66298W        W25559  12.173   4.257   3.822
66299W        W25560   6.254  29.012  14.789
66300W        W25561  30.126  44.975  14.020
66301W        W25562  19.164  31.975   3.717
66302W        W25563   3.432  26.597  12.513
66303W        W25564  42.352   6.357   4.208
66304W        W25565  21.651  14.205   0.450
66305W        W25566  36.093  31.071   1.343
66306W        W25567  30.430   5.756  11.564
66307W        W25568   3.452  22.164   3.736
66308W        W25569  24.217  11.710   3.684
66309W        W25570  11.649  41.520   1.231
66310W        W25571  11.212  39.847   4.237
66311W        W25572  24.108  15.091   2.273
66312W        W25573  40.854  18.089  13.347
66313W        W25574  28.986   8.406  11.423
66314W        W25575   1.328   5.426   1.353
66315W        W25576   5.338   4.724   5.262
66316W        W25577  27.521  29.630   3.237
66317W        W25578  10.193  31.490  10.537
66318W        W25579  36.001  10.144  13.398
66319W        W25580  34.041  22.096  14.924
66320W        W25581  26.619  13.814   0.295
66321W        W25582   0.365  28.102  13.468
66322W        W25583  32.407  40.828   2.743
66323W        W25584  44.401  18.051  14.852
66324W        W25585  16.243  15.770  10.464
66325W        W25586   0.406  32.443  11.960
66326W        W25587   4.273  12.707   1.705
66327W        W25588   5.406  14.659  14.923
66328W        W25589  11.199  26.180   1.292
66329W        W25590  13.618  29.957   9.548
66330W        W25591  26.957  23.514   1.871
66331W        W25592  32.088   2.384   0.887
66332W        W25593  29.627   5.824  11.487
66333W        W25594  10.360   5.208  11.946
66334W        W25595  20.648  15.647  10.524
66335W        W25596  34.874   3.806   4.661
66336W        W25597  22.074  44.441  11.438
66337W        W25598  16.781  18.134  13.872
66338W        W25599   4.795  20.715  13.506
66339W        W25600  43.470  29.106  13.484
66340W        W25601  22.161   0.871  10.642
66341W        W25602  44.382  11.131  10.620
66342W        W25603  41.434  23.575   1.704
66343W        W25604   7.258   9.807  14.446
66344W        W25605  34.588  20.538   3.364
66345W        W25606  41.886  14.264  10.974
66346W        W25607  30.585   2.333  11.575
66347W        W25608  25.057  25.511  11.599
66348W        W25609  44.377  13.151   1.723
66349W        W25610  31.417  21.133   4.303
66350W        W25611  32.966  40.350   1.878
66351W        W25612  17.739  23.094  13.941
66352W        W25613  20.743  24.575  13.039
66353W        W25614  15.319   2.857   0.414
66354W        W25615   3.854   2.739  11.903
66355W        W25616   6.349  17.112  13.460
66356W        W25617  33.451  15.271   0.416
66357W        W25618  24.191  27.196   1.250
66358W        W25619  16.758  39.817   2.894
66359W        W25620  37.859  16.187   3.248
66360W        W25621  31.974  20.188   0.758
66361W        W25622  44.972   5.349  12.503
66362W        W25623  41.315  12.251   3.171
66363W        W25624   8.771   6.870  13.825
66364W        W25625  25.968  26.620   4.220
66365W        W25626   3.259   9.768   2.751
66366W        W25627  16.758  35.883   1.915
66367W        W25628  17.133  26.086   4.803
66368W        W25629   5.690  33.940   4.214
66369W        W25630  24.668   1.347   1.336
66370W        W25631  43.281  40.460   1.863
66371W        W25632   9.219  32.460   0.789
66372W        W25633  16.753  14.657   4.698
66373W        W25634  28.679  20.264  12.545
66374W        W25635   8.768   2.452  12.089
66375W        W25636  26.975   7.288  12.942
66376W        W25637  31.913  43.986   2.896
66377W        W25638  39.853  35.987  13.543
66378W        W25639  32.613  25.580   4.762
66379W        W25640  39.502  26.592  10.403
66380W        W25641  44.454  16.779  10.962
66381W        W25642   8.180  36.875   1.326
66382W        W25643  18.634   7.911   3.788
66383W        W25644  41.306   0.979   0.463
66384W        W25645  16.211   0.850  11.405
66385W        W25646  29.441   1.784  10.116
66386W        W25647  42.881  41.409  10.523
66387W        W25648  10.725  10.165  14.011
66388W        W25649  11.811  16.075   3.264
66389W        W25650   9.306  41.845  14.953
66390W        W25651  30.655  15.690  13.432
66391W        W25652   3.891  25.100   1.705
66392W        W25653   1.739  27.462  11.894
66393W        W25654   8.892  28.932  12.989
66394W        W25655  36.424  27.490  10.507
66395W        W25656  42.838   0.826  14.860
66396W        W25657  17.290  33.028  12.384
66397W        W25658  16.315  40.944  11.915
66398W        W25659   1.759   4.823  12.516
66399W        W25660   7.844  37.367  11.434
66400W        W25661  11.638  40.492  12.089
66401W        W25662   4.837  13.229   4.611
66402W        W25663  13.622  41.858   3.839
66403W        W25664  24.091  22.688   3.292
66404W        W25665  23.073   9.188  11.488
66405W        W25666  35.107   9.217  14.488
66406W        W25667  30.029  26.527   1.447
66407W        W25668  25.685  14.284  10.404
66408W        W25669  29.965  33.968  14.998
66409W        W25670  41.499  39.527   2.362
66410W        W25671  15.660  38.050   0.260
66411W        W25672  39.908  44.004  12.840
66412W        W25673  33.084   6.822   0.314
66413W        W25674  41.847  10.371   0.478
66414W        W25675  42.811   3.718  12.470
66415W        W25676  29.994  31.574  12.983
66416W        W25677  33.521  40.357  11.041
66417W        W25678  13.605  31.572   2.788
66418W        W25679  13.742   0.436  14.998
66419W        W25680   0.984   8.255  11.440
66420W        W25681  11.784   7.890   4.207
66421W        W25682   0.895  26.512   3.325
66422W        W25683  40.951  36.937  14.407
66423W        W25684   5.905   1.804  10.949
66424W        W25685   9.334  38.020  11.476
66425W        W25686   7.762  18.682  13.463
66426W        W25687  18.231  40.540   4.657
66427W        W25688  27.644  13.331   2.850
66428W        W25689   1.835   8.342  10.542
66429W        W25690  12.206  27.596  12.919
66430W        W25691   6.849  34.474  14.456
66431W        W25692  23.186  12.121  13.401
66432W        W25693   9.181  22.085   3.384
66433W        W25694  23.614  33.415   1.400
66434W        W25695  30.930  28.565   4.747
66435W        W25696  15.212  12.262  12.353
66436W        W25697  24.216  11.673   4.122
66437W        W25698  41.801   5.386   3.155
66438W        W25699  38.532  38.419  14.920
66439W        W25700  29.149  41.031   2.265
66440W        W25701   1.244  28.120  12.349
66441W        W25702  23.640  31.089   0.771
66442W        W25703  13.757  37.869  12.390
66443W        W25704  32.938  36.093  10.482
66444W        W25705  22.128  21.646  14.862
66445W        W25706  37.846  23.683   1.777
66446W        W25707   7.363  44.755   0.876
66447W        W25708  44.872  16.229   0.309
66448W        W25709  24.566  17.762   0.824
66449W        W25710  34.524  13.671   2.218
66450W        W25711  22.745  33.971  12.452
66451W        W25712  31.550   1.842  13.503
66452W        W25713  15.312  40.801   1.814
66453W        W25714  12.645  37.464   0.321
66454W        W25715  18.621   8.825  14.323
66455W        W25716  41.528   2.450  12.576
66456W        W25717  28.526  24.528   1.895
66457W        W25718   2.241  23.637   0.808
66458W        W25719   2.393  23.037   1.850
66459W        W25720  36.048  31.540  12.971
66460W        W25721  25.617   3.835  12.004
66461W        W25722  44.401  39.355   3.201
66462W        W25723   7.743  15.164   2.863
66463W        W25724  31.124  27.690  13.447
66464W        W25725  13.834  25.973  13.883
66465W        W25726   0.381   5.918  14.374
66466W        W25727  38.993   6.200  11.945
66467W        W25728  21.560  18.120   2.295
66468W        W25729  12.166  31.559  11.445
66469W        W25730  29.503  23.998  11.016
66470W        W25731  21.173  43.982   4.782
66471W        W25732  31.498  10.702  13.497
66472W        W25733  37.338  19.712   3.149
66473W        W25734  27.613  30.123   9.474
66474W        W25735  42.825  38.365  12.493
66475W        W25736  35.104  21.679   1.396
66476W        W25737  42.464  21.591   2.203
66477W        W25738  23.701  27.560  14.787
66478W        W25739  12.829  24.032   1.392
66479W        W25740  15.266  26.109   5.222
66480W        W25741  24.151  26.694  11.111
66481W        W25742  26.604  17.786  12.545
66482W        W25743  43.305   7.367  11.484
66483W        W25744  35.006  11.309   5.318
66484W        W25745  33.929  38.925   3.702
66485W        W25746  17.155  26.551   3.820
66486W        W25747   2.379   0.862   4.340
66487W        W25748  42.331   8.804  13.478
66488W        W25749  43.458  32.051  13.013
66489W        W25750  43.375   5.337   3.640
66490W        W25751  11.310  18.099   0.351
66491W        W25752  14.716  25.179  11.078
66492W        W25753  31.504   4.843   4.317
66493W        W25754   6.284  39.321  13.353
66494W        W25755  35.044  30.999  11.863
66495W        W25756  37.508  18.607  10.576
66496W        W25757  10.274  36.495   0.959
66497W        W25758  44.950  34.888   1.766
66498W        W25759   1.732  17.136  11.998
66499W        W25760  18.665  24.195  14.431
66500W        W25761  43.465  15.646   0.331
66501W        W25762  43.878  18.756   1.908
66502W        W25763  27.110  39.880  12.439
66503W        W25764   3.883  32.558  13.496
66504W        W25765  16.241  18.279   3.676
66505W        W25766  10.236  34.108   3.837
66506W        W25767  27.078  22.691   1.372
66507W        W25768  35.367  30.522  11.885
66508W        W25769   6.380  10.180  13.924
66509W        W25770  34.882   0.385  11.442
66510W        W25771  35.449  27.169  11.063
66511W        W25772  12.754  15.283  14.833
66512W        W25773  36.885  18.752   1.253
66513W        W25774  21.063  27.517  11.048
66514W        W25775  28.656  24.653  10.945
66515W        W25776  26.488  41.501  10.486
66516W        W25777  11.224  34.920  11.403
66517W        W25778  27.664  13.309  12.357
66518W        W25779   4.803  35.924  10.982
66519W        W25780   1.763  15.790   4.241
66520W        W25781   4.247  18.277   0.788
66521W        W25782  11.369   9.360  10.537
66522W        W25783   1.947  17.116   2.769
66523W        W25784  25.157  36.031  11.433
66524W        W25785  44.814  37.394  10.447
66525W        W25786  33.566  24.555   2.203
66526W        W25787  39.017  38.461   2.864
66527W        W25788  36.029  38.953   0.260
66528W        W25789  19.064   7.832   2.693
66529W        W25790  32.901  15.098  14.887
66530W        W25791   4.407  14.739   0.277
66531W        W25792  42.033  13.107  13.449
66532W        W25793  14.730  42.443  14.411
66533W        W25794  36.563   6.748   1.770
66534W        W25795  12.264   3.807   2.231
66535W        W25796  23.651  31.065  13.877
66536W        W25797  11.349  29.614  11.004
66537W        W25798  30.092  26.964   2.345
66538W        W25799  24.570   4.882   0.947
66539W        W25800  32.092  19.254  14.304
66540W        W25801   0.360  44.446  10.467
66541W        W25802  12.775  42.781  11.500
66542W        W25803  31.074  13.193  10.548
66543W        W25804  34.093  12.660   2.263
66544W        W25805  17.119  20.557   9.504
66545W        W25806  28.172  40.004   3.727
66546W        W25807  39.449  27.586   3.837
66547W        W25808   1.454   8.739  11.973
66548W        W25809  39.005  12.641  12.407
66549W        W25810   0.967  32.119   3.227
66550W        W25811  22.681   4.863   4.237
66551W        W25812   2.829  17.099  12.826
66552W        W25813  30.932  36.522  14.923
66553W        W25814  12.845  29.994   2.877
66554W        W25815  37.016  22.148  13.916
66555W        W25816  14.667  25.211   0.445
66556W        W25817   2.942  12.230   3.781
66557W        W25818  43.839  22.030   2.373
66558W        W25819   9.177   1.966   3.775
66559W        W25820  14.624  31.989  10.024
66560W        W25821  19.042  32.616   2.383
66561W        W25822  34.973  21.531   3.348
66562W        W25823  26.022  40.434  11.387
66563W        W25824  10.704  40.535  10.926
66564W        W25825   6.834  18.733   3.744
66565W        W25826  27.960  10.260  14.948
66566W        W25827  27.509  26.578   0.400
66567W        W25828  42.503   2.363   1.749
66568W        W25829  34.011  34.503   0.968
66569W        W25830   1.296  24.724   3.291
66570W        W25831  28.641  29.558   0.477
66571W        W25832  15.236  29.618   1.746
66572W        W25833  26.561  25.511  12.405
66573W        W25834  34.401  40.352   3.237
66574W        W25835   5.710  12.142   1.382
66575W        W25836  22.642  28.557  14.772
66576W        W25837  37.465   3.928  11.117
66577W        W25838  12.827  42.015   3.773
66578W        W25839   6.689  29.446   0.946
66579W        W25840  36.409  26.988   4.779
66580W        W25841  28.471  40.390   0.818
66581W        W25842  44.830  29.089   2.761
66582W        W25843  11.700  33.067   4.826
66583W        W25844  35.527   0.348  13.361
66584W        W25845  30.066  29.934   5.183
66585W        W25846  15.091  35.559  12.001
66586W        W25847  22.012   1.328   0.285
66587W        W25848   8.355   4.313  14.897
66588W        W25849  41.305  10.142  12.409
66589W        W25850  21.521   1.955   0.858
66590W        W25851  33.911  36.364   4.617
66591W        W25852  13.655   3.303   3.827
66592W        W25853  39.377  13.152  11.447
66593W        W25854   7.185  34.536  10.907
66594W        W25855  35.384  32.538   1.923
66595W        W25856   3.873  22.244  11.062
66596W        W25857  31.954  38.054  13.477
66597W        W25858  26.602  29.517  13.489
66598W        W25859  38.502  13.136   3.721
66599W        W25860  10.191   3.829  13.023
66600W        W25861  34.043  29.453   3.669
66601W        W25862   3.811  31.448   3.711
66602W        W25863  35.497  43.823  12.990
66603W        W25864   3.364  35.425  12.907
66604W        W25865  37.918  23.519   2.875
66605W        W25866   8.314  31.920   0.409
66606W        W25867   4.380  29.616  11.071
66607W        W25868  15.666  42.922   1.401
66608W        W25869   1.308  24.488   1.898
66609W        W25870  18.267  28.958  11.393
66610W        W25871  35.056  24.519  11.967
66611W        W25872   4.265  31.517   2.411
66612W        W25873  34.075  39.418  14.938
66613W        W25874  30.518  13.620  14.913
66614W        W25875  34.549   5.228  10.977
66615W        W25876  30.159  42.812  14.902
66616W        W25877  16.080   1.890   1.711
66617W        W25878   7.881  33.532   9.956
66618W        W25879  42.841  44.967  12.950
66619W        W25880  18.232  29.539   2.413
66620W        W25881  44.940  38.071  10.995
66621W        W25882  19.143  37.477   2.265
66622W        W25883  19.279   9.189   0.339
66623W        W25884  35.093  18.235   2.791
66624W        W25885   2.340  22.622   0.884
66625W        W25886  36.017  25.978   4.813
66626W        W25887  29.010  29.600  12.565
66627W        W25888  39.363  41.379  11.380
66628W        W25889   9.154  23.579   0.315
66629W        W25890   8.404  43.951  12.479
66630W        W25891  43.817  10.766   1.228
66631W        W25892  37.026   2.241  13.051
66632W        W25893   9.689  14.116  10.526
66633W        W25894  36.954  42.441  11.955
66634W        W25895  22.606  13.306   1.289
66635W        W25896   3.382  25.532  12.833
66636W        W25897  15.774  44.279  13.955
66637W        W25898  39.034  39.376  12.828
66638W        W25899  25.541   9.362   0.830
66639W        W25900  19.618  30.488  13.994
66640W        W25901   7.833  22.210   0.338
66641W        W25902  26.143  24.093  13.950
66642W        W25903  24.149  22.131   4.150
66643W        W25904   5.304  24.488  14.465
66644W        W25905  42.328  16.782   0.361
66645W        W25906   7.278  17.570  13.853
66646W        W25907  16.697  31.115  12.416
66647W        W25908  35.013   8.897  12.557
66648W        W25909  14.606  22.156   3.721
66649W        W25910   5.909   8.752   3.633
66650W        W25911  13.810   4.223  11.380
66651W        W25912   1.797   9.760   3.717
66652W        W25913  11.763  10.232  13.494
66653W        W25914   6.250   2.804   3.780
66654W        W25915  38.965  33.124   2.375
66655W        W25916  16.104   2.304  12.869
66656W        W25917  32.024  28.617  14.847
66657W        W25918  30.028  31.542   4.225
66658W        W25919  17.742  36.429  12.476
66659W        W25920  18.567  36.507   0.951
66660W        W25921  36.991  35.532  10.454
66661W        W25922   6.861  13.110  12.854
66662W        W25923  18.584  44.848   4.200
66663W        W25924  29.066  16.614   1.817
66664W        W25925  43.438   6.310  13.823
66665W        W25926  23.136  32.095   1.304
66666W        W25927  28.099  33.006   2.292
66667W        W25928   8.692   0.799  13.332
66668W        W25929   4.756  35.508   4.126
66669W        W25930  20.174  35.533  14.489
66670W        W25931  26.679  28.929  13.943
66671W        W25932  35.375  28.504  12.567
66672W        W25933   7.208   3.791  11.572
66673W        W25934   4.413  38.069  10.446
66674W        W25935  40.311  19.209   1.332
66675W        W25936  17.098   8.355   2.763
66676W        W25937  20.682  10.178   3.365
66677W        W25938  21.653  35.440   1.343
66678W        W25939   8.695  25.119   1.828
66679W        W25940  28.633   0.841  12.385
66680W        W25941  10.355  42.993  11.445
66681W        W25942  23.196  17.761   2.179
66682W        W25943  29.534   3.458   4.707
66683W        W25944   4.355   8.389   2.797
66684W        W25945  19.636   8.728  10.937
66685W        W25946   7.404  42.329  14.428
66686W        W25947  18.783  25.664   4.761
66687W        W25948   4.870  30.100  13.487
66688W        W25949   4.720  25.111   3.655
66689W        W25950  44.874  26.118   1.863
66690W        W25951  24.660  41.960  11.534
66691W        W25952  20.646  44.436  11.938
66692W        W25953  37.890  14.207   0.836
66693W        W25954   7.272  11.159  13.352
66694W        W25955  30.016  42.410  11.891
66695W        W25956  19.591   4.392   2.860
66696W        W25957  24.209  42.940   4.666
66697W        W25958  36.921  41.925   4.797
66698W        W25959  11.312   2.471  14.968
66699W        W25960   6.424  42.965  14.838
66700W        W25961  32.058  44.905   3.297
66701W        W25962  17.784  32.952   3.156
66702W        W25963  21.585  21.602  14.983
66703W        W25964  29.622  13.170   1.328
66704W        W25965  16.289   5.735  12.092
66705W        W25966  40.855  31.566   4.684
66706W        W25967  44.874  28.127   2.725
66707W        W25968   3.409  19.657   1.224
66708W        W25969   0.454  14.113   4.821
66709W        W25970  39.401  22.529   3.749
66710W        W25971  24.001   5.373  14.944
66711W        W25972  34.435  10.275   2.322
66712W        W25973  21.125  44.980  13.387
66713W        W25974  13.326  18.187  10.634
66714W        W25975   4.367   9.709   0.819
66715W        W25976  16.711   4.828  10.000
66716W        W25977  13.659  11.860  12.970
66717W        W25978  22.236  20.653  11.911
66718W        W25979  34.550  36.917   4.196
66719W        W25980   3.231   9.269   3.644
66720W        W25981   6.302  34.372  13.314
66721W        W25982  39.399  33.506  14.410
66722W        W25983  42.861  10.238   1.889
66723W        W25984   3.845  35.515  12.351
66724W        W25985  35.866   0.750   4.241
66725W        W25986  40.951  10.820   0.471
66726W        W25987  29.477  11.776  10.895
66727W        W25988   5.917  35.556  10.511
66728W        W25989  35.067  43.470   2.770
66729W        W25990  24.982  13.321   3.261
66730W        W25991   5.404  14.783   2.386
66731W        W25992  30.985  44.356  11.003
66732W        W25993   3.430  19.208   2.732
66733W        W25994   6.859  42.411   4.606
66734W        W25995  19.620  23.080   4.175
66735W        W25996  14.105  29.157  10.966
66736W        W25997  16.756  35.957   0.344
66737W        W25998  40.337   1.774  12.416
66738W        W25999  11.817  20.541   0.798
66739W        W26000  18.222   0.978   2.257
66740W        W26001   0.443  15.801  14.293
66741W        W26002   4.723  16.289   0.319
66742W        W26003   0.423  13.668   4.136
66743W        W26004  16.648  37.493   4.289
66744W        W26005  13.634  42.819  14.793
66745W        W26006   3.871   7.267  12.537
66746W        W26007  10.784  15.787   2.357
66747W        W26008  19.597   2.274   4.312
66748W        W26009  13.311   9.845  12.479
66749W        W26010  36.433  25.179  12.535
66750W        W26011   0.404  33.443  12.412
66751W        W26012   9.858  41.903   4.285
66752W        W26013  43.019   4.923   2.779
66753W        W26014  30.988  25.052  13.451
66754W        W26015   0.891  38.346   1.443
66755W        W26016  15.730  13.698   4.180
66756W        W26017  10.152  22.078   0.422
66757W        W26018  12.188  13.747   2.896
66758W        W26019  26.545  12.771  10.510
66759W        W26020  39.502  29.493   3.353
66760W        W26021  38.956  39.894  13.865
66761W        W26022   0.290  21.637  11.405
66762W        W26023  35.882  23.654  10.514
66763W        W26024   8.325  27.071  10.516
66764W        W26025  18.710  30.039  12.972
66765W        W26026  12.342  14.626   3.259
66766W        W26027  33.079  31.568  12.072
66767W        W26028  32.039  43.955  10.596
66768W        W26029  39.834  44.774   2.852
66769W        W26030  22.062  13.632   4.265
66770W        W26031   8.278  25.122   4.740
66771W        W26032  33.974   2.768  10.636
66772W        W26033  33.491   0.950  12.445
66773W        W26034  15.676  39.413   3.864
66774W        W26035  39.837  39.856  13.323
66775W        W26036  25.642  11.315   0.922
66776W        W26037   6.767   6.884   4.290
66777W        W26038  12.281  28.995   3.174
66778W        W26039  15.688  27.615  14.958
66779W        W26040  39.398   6.863   0.325
66780W        W26041  39.318  22.613   2.799
66781W        W26042   0.905  40.486  11.968
66782W        W26043   6.372  18.195   1.445
66783W        W26044   2.296  32.005   3.632
66784W        W26045  14.708  17.757  11.489
66785W        W26046  17.600   9.731  14.365
66786W        W26047  42.446  22.150   0.753
66787W        W26048   3.726  34.407  14.783
66788W        W26049  29.138  23.999   2.250
66789W        W26050  29.650  41.417   0.938
66790W        W26051   0.329  34.879  14.029
66791W        W26052  43.443  29.560   3.751
66792W        W26053  39.019  40.460  12.977
66793W        W26054   5.735  23.159   0.863
66794W        W26055  42.849   3.776   4.803
66795W        W26056   7.763  15.102   0.245
66796W        W26057  22.252  40.541   1.885
66797W        W26058  35.480  43.380   4.188
66798W        W26059  19.081  16.085   1.793
66799W        W26060   2.750  15.155  11.449
66800W        W26061  14.745  12.696   1.776
66801W        W26062   0.472  35.983  10.523
66802W        W26063  44.342  32.523   0.312
66803W        W26064  35.588  37.459   2.295
66804W        W26065   0.890   2.740   0.767
66805W        W26066  33.554  25.081   2.838
66806W        W26067  44.966  28.124  14.970
66807W        W26068  34.567  26.621   5.308
66808W        W26069  44.770  38.398  12.507
66809W        W26070   8.700  33.925   0.322
66810W        W26071  42.975   3.847   3.859
66811W        W26072  31.553  26.032   0.876
66812W        W26073   1.445  39.040  10.631
66813W        W26074  27.530  17.707  14.969
66814W        W26075  28.588  19.188  14.930
66815W        W26076  29.142  16.245  11.030
66816W        W26077  38.957  21.139   3.795
66817W        W26078  36.899  28.526  12.059
66818W        W26079  37.986  18.166  12.001
66819W        W26080  42.873   0.973   0.918
66820W        W26081  27.131  22.167   2.317
66821W        W26082  27.638  21.702  12.024
66822W        W26083  42.840  40.326   1.378
66823W        W26084  39.823  34.498   2.225
66824W        W26085  13.262   8.355  13.816
66825W        W26086  19.741  31.420  11.434
66826W        W26087  24.109   4.812   0.249
66827W        W26088  30.552  15.619  11.061
66828W        W26089  21.623  13.650   3.774
66829W        W26090   4.407  35.561   2.198
66830W        W26091   1.917  39.435  10.567
66831W        W26092  10.706  19.667  10.575
66832W        W26093  22.701  15.784   3.794
66833W        W26094  20.148  35.399   2.247
66834W        W26095  21.230  24.043   2.308
66835W        W26096  28.659  15.772   0.267
66836W        W26097  25.533  19.587   5.162
66837W        W26098  25.639   7.673  11.425
66838W        W26099  16.654  23.718   4.298
66839W        W26100  28.513  28.023  12.426
66840W        W26101  37.536  15.645  11.048
66841W        W26102   5.373   7.742  13.872
66842W        W26103  23.649  40.992   0.352
66843W        W26104  10.796   4.335  10.573
66844W        W26105  13.187  36.389  11.062
66845W        W26106   1.453   3.278   2.819
66846W        W26107   8.657   4.286   1.411
66847W        W26108  41.354  28.645   0.300
66848W        W26109  19.561  13.193   3.830
66849W        W26110  10.196   3.909   3.848
66850W        W26111  23.537  12.616   4.291
66851W        W26112   0.832  25.140   1.409
66852W        W26113  25.029  39.980  11.543
66853W        W26114  16.261  40.324   3.332
66854W        W26115  14.700  38.937   2.801
66855W        W26116   4.261   9.318  10.410
66856W        W26117  12.745  20.666   4.152
66857W        W26118  20.255  34.896  10.935
66858W        W26119  39.442  23.057   5.746
66859W        W26120  31.424  33.559  10.561
66860W        W26121  36.550  20.029  14.297
66861W        W26122  18.750  43.316   0.776
66862W        W26123  14.338  18.705  13.480
66863W        W26124  12.123  14.624  10.542
66864W        W26125  35.526  15.626   4.261
66865W        W26126   6.285  34.006  10.955
66866W        W26127  33.463  19.095   2.358
66867W        W26128  11.833   5.314  13.317
66868W        W26129  11.664  38.396  12.023
66869W        W26130  18.240  11.129   0.945
66870W        W26131  11.841  29.157   0.329
66871W        W26132  31.042   3.255  11.592
66872W        W26133  33.932   3.850  12.503
66873W        W26134  25.512   7.386   3.256
66874W        W26135   9.765  24.500   0.361
66875W        W26136  29.103  27.589   3.272
66876W        W26137  25.534  13.825   2.396
66877W        W26138  29.047  24.606   0.866
66878W        W26139  39.546  27.450   3.206
66879W        W26140  41.877  39.819   0.455
66880W        W26141  37.396  28.078   2.344
66881W        W26142   5.889  18.595   0.274
66882W        W26143  33.613  31.504  12.502
66883W        W26144  19.560  38.502  11.561
66884W        W26145  30.921   4.910   2.412
66885W        W26146   6.356  40.858   1.703
66886W        W26147  39.508  41.014   0.479
66887W        W26148  37.020  43.996  10.481
66888W        W26149  11.754   9.171   3.288
66889W        W26150  14.618  32.023  12.463
66890W        W26151   9.168   9.744  11.515
66891W        W26152  21.216  24.984   1.931
66892W        W26153  16.802  26.954   1.843
66893W        W26154  26.458  16.707  12.471
66894W        W26155  16.609  33.381   3.180
66895W        W26156  38.442  10.324   4.225
66896W        W26157  43.343  10.251  14.440
66897W        W26158  16.592  23.708  13.392
66898W        W26159  43.305  18.700   3.662
66899W        W26160  20.172  14.710  14.852
66900W        W26161  32.549   4.855  12.384
66901W        W26162  43.972  15.786  11.964
66902W        W26163  10.190   4.206  13.902
66903W        W26164   6.354   7.266   2.411
66904W        W26165  12.137  26.103  13.043
66905W        W26166  30.115  17.101  10.985
66906W        W26167  34.024   8.835  12.401
66907W        W26168   5.247  19.700  11.444
66908W        W26169  37.502  32.117  14.857
66909W        W26170  39.473  32.940   3.307
66910W        W26171   5.863   6.189   1.391
66911W        W26172  41.369   9.319  12.086
66912W        W26173  10.713  12.642  14.906
66913W        W26174  44.789   7.843   1.301
66914W        W26175   9.719   3.400   0.821
66915W        W26176   4.351  10.307   4.172
66916W        W26177   3.367   1.881  12.959
66917W        W26178  28.589   3.890   0.958
66918W        W26179  21.570  15.820  12.376
66919W        W26180   6.387  29.542   4.238
66920W        W26181   4.212  31.017  11.027
66921W        W26182  24.034   3.864   1.412
66922W        W26183   0.446  28.507  12.964
66923W        W26184  24.173   7.834   1.854
66924W        W26185  12.720  32.545  12.095
66925W        W26186  40.974  11.795   2.333
66926W        W26187  44.314  21.092  14.322
66927W        W26188  29.984  14.110   2.326
66928W        W26189   1.797  35.463   2.234
66929W        W26190  33.570  42.304   2.852
66930W        W26191  38.840  39.347  10.411
66931W        W26192  43.368   0.909  11.519
66932W        W26193  36.454  30.005  12.560
66933W        W26194  14.294   8.778   0.462
66934W        W26195  21.637  33.943   0.341
66935W        W26196   1.282  10.675   3.706
66936W        W26197  24.999  33.897  12.040
66937W        W26198  21.056   7.689  13.986
66938W        W26199  33.930  36.359  10.622
66939W        W26200  35.393   0.954  11.591
66940W        W26201  42.847  41.369   0.945
66941W        W26202   5.407  16.212   2.191
66942W        W26203  43.416  20.040  13.482
66943W        W26204  31.029  19.750  11.408
66944W        W26205  15.252  33.394   4.259
66945W        W26206  25.558  25.203   4.675
66946W        W26207  35.512  38.001  10.557
66947W        W26208  22.526  10.844   4.677
66948W        W26209  38.020  44.790  14.277
66949W        W26210  28.154  20.542   0.441
66950W        W26211  26.157  16.746   2.285
66951W        W26212   1.950  35.990   1.821
66952W        W26213  22.536  20.167  12.924
66953W        W26214  11.372   3.406  14.910
66954W        W26215   5.427  25.983  12.566
66955W        W26216   7.717  44.379  12.571
66956W        W26217  24.698  19.579   3.221
66957W        W26218  26.663  24.986   3.323
66958W        W26219   9.186  39.905   2.687
66959W        W26220  44.324  28.029  12.527
66960W        W26221  29.131  11.287   0.347
66961W        W26222  36.070  43.788   0.327
66962W        W26223  33.485  35.961  10.011
66963W        W26224  29.586  44.820   9.567
66964W        W26225  14.635  23.177   2.701
66965W        W26226  29.030  12.235   2.366
66966W        W26227  16.751  26.186   2.371
66967W        W26228  33.091   5.272  13.935
66968W        W26229  18.098  21.665   4.354
66969W        W26230  42.283   9.685  14.431
66970W        W26231  21.631  15.208  10.635
66971W        W26232  37.512  21.540  12.951
66972W        W26233  13.786  18.221   4.665
66973W        W26234  32.490  39.006  14.813
66974W        W26235  34.528   2.874  14.376
66975W        W26236  20.149  24.566   3.722
66976W        W26237  10.265  11.257   1.706
66977W        W26238  17.585   7.767   4.796
66978W        W26239  16.265  38.400  10.578
66979W        W26240   3.734  40.827  10.552
66980W        W26241   3.364  21.241   3.741
66981W        W26242  14.781  16.609   1.694
66982W        W26243  20.715  10.269  14.435
66983W        W26244  40.316   0.817   4.276
66984W        W26245   5.372   1.747   4.702
66985W        W26246  12.736  15.130   3.769
66986W        W26247   5.858  22.668   0.848
66987W        W26248  27.962  18.562   0.430
66988W        W26249   8.726  11.816  13.391
66989W        W26250  26.093   9.321   2.791
66990W        W26251  36.961  36.491   1.923
66991W        W26252  25.174  15.139   1.867
66992W        W26253   5.304  22.629  12.027
66993W        W26254  28.542   1.239  11.868
66994W        W26255   9.881  39.031   4.332
66995W        W26256  18.078  11.716   1.297
66996W        W26257  40.546  22.549  10.557
66997W        W26258   3.453  10.833   4.707
66998W        W26259  34.397  23.519  12.936
66999W        W26260  30.037   7.702  10.459
67000W        W26261  22.086  32.613  12.493
67001W        W26262  30.017   0.966  12.407
67002W        W26263  23.019  38.922  12.015
67003W        W26264  10.702  27.507   4.726
67004W        W26265  16.086  43.899  14.357
67005W        W26266   4.384  13.227   2.312
67006W        W26267   3.807  30.004   0.730
67007W        W26268  22.583  34.893   2.380
67008W        W26269   6.280  17.633   3.213
67009W        W26270   5.368   4.940   2.760
67010W        W26271   6.757   2.851  12.855
67011W        W26272  17.284  21.544   1.259
67012W        W26273  15.258  26.684   0.412
67013W        W26274  32.933  22.563  11.464
67014W        W26275  41.374  28.134   2.836
67015W        W26276  44.500  26.092  10.119
67016W        W26277  18.127  27.596  13.047
67017W        W26278  17.702  40.805  10.536
67018W        W26279  29.469  24.482  11.037
67019W        W26280   8.161  20.124  13.815
67020W        W26281  41.440   7.342  11.882
67021W        W26282   7.254  32.946  12.903
67022W        W26283  33.613  25.997  13.038
67023W        W26284  32.122  23.010  13.005
67024W        W26285   0.786  21.590  12.837
67025W        W26286   8.656  19.277  14.762
67026W        W26287  33.120   9.878  12.560
67027W        W26288  22.126   9.280   3.332
67028W        W26289  26.650  18.178  12.549
67029W        W26290  33.082  15.198   3.737
67030W        W26291  24.622  10.224   1.901
67031W        W26292  33.468  16.162   4.157
67032W        W26293   9.715  14.744  13.974
67033W        W26294   8.797  14.759   5.117
67034W        W26295  17.137  18.631   0.805
67035W        W26296  32.629  36.479  12.958
67036W        W26297  16.771  25.133   3.859
67037W        W26298   6.770  43.795   4.807
67038W        W26299  35.482  12.212   5.572
67039W        W26300   0.753   6.783  14.390
67040W        W26301  15.821  25.101  11.969
67041W        W26302   6.393  44.285  14.802
67042W        W26303  32.417  40.435  12.501
67043W        W26304   1.862  33.075   3.720
67044W        W26305  26.675  40.033  12.540
67045W        W26306  17.716  31.620   2.752
67046W        W26307  26.631   1.345  10.993
67047W        W26308  39.031  19.686   2.721
67048W        W26309  17.242  40.941  14.937
67049W        W26310  11.127  10.671  14.022
67050W        W26311  40.981  39.958   2.686
67051W        W26312  31.040  37.027  14.424
67052W        W26313  34.112  34.572  14.381
67053W        W26314  34.607  25.575  10.489
67054W        W26315  33.894  35.852   4.748
67055W        W26316  40.842  26.610  11.026
67056W        W26317  19.268  11.193  14.797
67057W        W26318  26.063  38.961  10.921
67058W        W26319  30.952  16.304   2.409
67059W        W26320  31.522   9.779   3.743
67060W        W26321   9.289  21.098  10.557
67061W        W26322  14.791  11.698   0.342
67062W        W26323   6.307  28.650   0.881
67063W        W26324  32.088  27.098   3.853
67064W        W26325   7.212   3.934   1.742
67065W        W26326  35.958  31.499  13.513
67066W        W26327   5.849  13.308   4.684
67067W        W26328  25.508  41.915   3.845
67068W        W26329  31.919  37.446   3.723
67069W        W26330   0.420   0.934  11.607
67070W        W26331  28.590  18.117  14.415
67071W        W26332  37.955  16.730   3.753
67072W        W26333  29.171  15.647  11.569
67073W        W26334  29.932  39.935   1.848
67074W        W26335  37.965  40.436  10.433
67075W        W26336  37.052  20.643   3.867
67076W        W26337  14.329  42.419  14.812
67077W        W26338   7.187  23.703  12.881
67078W        W26339  15.202  14.630  13.045
67079W        W26340  26.460  11.698   5.172
67080W        W26341  12.856   1.407  12.935
67081W        W26342  20.052  36.985   2.381
67082W        W26343  13.323  43.404   3.760
67083W        W26344   6.223  43.832  12.529
67084W        W26345   6.912   0.909  13.912
67085W        W26346  23.563  11.782   3.723
67086W        W26347   2.299  32.925   2.816
67087W        W26348  37.918  38.965   3.381
67088W        W26349  30.488  14.252  13.528
67089W        W26350  17.159  14.234   3.801
67090W        W26351   9.848  34.097   4.633
67091W        W26352  39.053  42.819   9.967
67092W        W26353  33.589  10.258  11.079
67093W        W26354  32.604   9.192   9.931
67094W        W26355  43.306  17.606   0.840
67095W        W26356   2.746  21.649  12.440
67096W        W26357  33.600  20.636   2.365
67097W        W26358   6.838  35.874  13.821
67098W        W26359  43.495  28.158  14.964
67099W        W26360  43.372  17.631   1.374
67100W        W26361  23.528  35.039  12.013
67101W        W26362  14.205  44.973  10.428
67102W        W26363  34.118  44.494   4.334
67103W        W26364  11.676  24.672  14.312
67104W        W26365   0.413   0.476  13.446
67105W        W26366  25.629  17.616  14.996
67106W        W26367   5.852  11.339  14.770
67107W        W26368  32.047  44.939   0.396
67108W        W26369  43.983  39.834  14.932
67109W        W26370  33.087  23.019  10.406
67110W        W26371  29.649  34.506   4.329
67111W        W26372  14.139  33.581   4.302
67112W        W26373  10.168  44.870  11.093
67113W        W26374   2.348  31.903  14.769
67114W        W26375  39.059   9.330   4.229
67115W        W26376   4.839  15.632   3.336
67116W        W26377   7.302   9.181   2.207
67117W        W26378  35.437   5.699  10.481
67118W        W26379  32.045  32.935  14.977
67119W        W26380  19.179   2.788   0.967
67120W        W26381  22.557  32.416   2.872
67121W        W26382  43.352  16.727   0.304
67122W        W26383   1.469  41.006  10.594
67123W        W26384   4.257  24.018   1.292
67124W        W26385  13.194  27.047  13.999
67125W        W26386  20.062  27.063  14.429
67126W        W26387   3.441  23.065  14.905
67127W        W26388  20.658   4.358  14.335
67128W        W26389  12.283  36.519   3.701
67129W        W26390  36.593  14.173   3.704
67130W        W26391  40.986  38.449   1.283
67131W        W26392  42.942  33.044   3.809
67132W        W26393   4.928  37.920  13.399
67133W        W26394  43.856  42.315  11.513
67134W        W26395  39.982  26.591  12.945
67135W        W26396  33.875  29.152  13.437
67136W        W26397  41.019   1.808   0.946
67137W        W26398  22.611   2.284   2.774
67138W        W26399  13.266  40.496   4.174
67139W        W26400  17.061   8.886   0.287
67140W        W26401   0.458  23.648   2.760
67141W        W26402   7.313  10.146   3.704
67142W        W26403  13.701  16.272  12.881
67143W        W26404  34.577  37.380  13.047
67144W        W26405   7.290  37.883  10.435
67145W        W26406   3.300  10.856   1.212
67146W        W26407  20.738  10.266   2.277
67147W        W26408  35.555  39.024  11.922
67148W        W26409   2.748   3.895   1.306
67149W        W26410  12.144  16.285  13.492
67150W        W26411  42.492  36.533  14.912
67151W        W26412   4.374   2.825   1.339
67152W        W26413   0.848  44.268  14.402
67153W        W26414  22.668  17.304  12.434
67154W        W26415  29.983  44.887  12.497
67155W        W26416  17.719  41.910  10.611
67156W        W26417  29.653  31.481   3.269
67157W        W26418  44.989  28.477  14.819
67158W        W26419  27.504  37.373  11.398
67159W        W26420   4.232   3.841  12.951
67160W        W26421  28.496  42.466  14.380
67161W        W26422  24.668  34.902  14.418
67162W        W26423  41.899   0.773  12.921
67163W        W26424  34.984  15.637   3.261
67164W        W26425  12.654  11.202  14.027
67165W        W26426  36.882  29.138  14.415
67166W        W26427  30.025  33.080  11.945
67167W        W26428  22.723  10.240   0.332
67168W        W26429  29.151  37.383   1.896
67169W        W26430  35.504  14.163   1.814
67170W        W26431  28.986  13.238  14.345
67171W        W26432  13.605  22.682   2.382
67172W        W26433  35.054  26.493   0.882
67173W        W26434  34.039  27.687   4.234
67174W        W26435   9.676   7.368  10.520
67175W        W26436  17.766   8.301   0.855
67176W        W26437  12.764   4.408  13.385
67177W        W26438  11.165   5.889   3.697
67178W        W26439  41.536  40.448   0.448
67179W        W26440   0.298  36.036  12.388
67180W        W26441  26.665  23.135   1.847
67181W        W26442  13.287   4.831   2.302
67182W        W26443  30.592  16.155   2.256
67183W        W26444  38.030  41.438  10.524
67184W        W26445  25.594  37.336  14.449
67185W        W26446  22.163  10.338  12.855
67186W        W26447  32.568   8.328  14.435
67187W        W26448  24.674  40.420   4.319
67188W        W26449  14.294  21.755  11.934
67189W        W26450   5.748  30.071  10.907
67190W        W26451  18.157  26.607   3.637
67191W        W26452   0.481  28.018   1.405
67192W        W26453   2.264   5.866   2.790
67193W        W26454  22.536  39.556   2.831
67194W        W26455   9.223  26.042   3.840
67195W        W26456  44.394  10.756  14.512
67196W        W26457  29.162  36.480  11.066
67197W        W26458  35.371  26.017  13.945
67198W        W26459  35.491  39.348   1.400
67199W        W26460  44.376   2.803   4.788
67200W        W26461  26.480  21.706  11.000
67201W        W26462  24.618  19.215  11.026
67202W        W26463  35.098   4.812  14.461
67203W        W26464  33.529  25.180   1.249
67204W        W26465  22.030  26.157  14.810
67205W        W26466  32.471  18.264  10.558
67206W        W26467  21.087   5.292  11.604
67207W        W26468  15.737  17.262  13.507
67208W        W26469  34.015  31.554  11.443
67209W        W26470  22.514  33.090  13.902
67210W        W26471  17.632  40.019  11.484
67211W        W26472   5.919  21.116   9.983
67212W        W26473  24.595  41.382   0.337
67213W        W26474  28.938  43.373  12.831
67214W        W26475  10.276  40.819  11.879
67215W        W26476  14.649   0.266  10.449
67216W        W26477   3.217  18.179   1.231
67217W        W26478  13.133  22.661   2.795
67218W        W26479  35.059  21.558   2.859
67219W        W26480  13.284  23.047  13.944
67220W        W26481  32.994  27.560  12.567
67221W        W26482  17.279  12.343  12.862
67222W        W26483  11.217  24.108  13.501
67223W        W26484   0.250  38.936   2.234
67224W        W26485  30.920  26.549   1.277
67225W        W26486   3.848  42.373   4.609
67226W        W26487  15.151  16.614  13.052
67227W        W26488  37.436  11.128  13.930
67228W        W26489  26.039  41.536  12.463
67229W        W26490  23.158  25.631  13.504
67230W        W26491  10.650  27.067   2.252
67231W        W26492  12.117   4.241   2.715
67232W        W26493  22.521  15.279   3.366
67233W        W26494  37.413  34.404  13.049
67234W        W26495   4.237  44.795   0.270
67235W        W26496  43.904  27.619  12.827
67236W        W26497  33.617  38.032  13.019
67237W        W26498  18.261  38.950   3.755
67238W        W26499  24.106  27.648   1.217
67239W        W26500  27.147   7.306   3.327
67240W        W26501  35.926  43.269  10.631
67241W        W26502  10.716  44.962  13.322
67242W        W26503  24.642  20.201   1.351
67243W        W26504   7.227  10.778   4.645
67244W        W26505   6.715  22.235  13.796
67245W        W26506  36.408   3.275   4.619
67246W        W26507  23.095  25.982   3.205
67247W        W26508  25.144  15.658   2.893
67248W        W26509  24.099  20.584   3.768
67249W        W26510  30.911  28.568   0.744
67250W        W26511  25.627  19.621  14.381
67251W        W26512  25.154  28.056  12.067
67252W        W26513  36.907  15.734   3.168
67253W        W26514  25.696  12.334  13.480
67254W        W26515  39.940  40.478  13.915
67255W        W26516  36.941  24.561   4.203
67256W        W26517  19.637  25.084  11.516
67257W        W26518  40.445  32.113   4.714
67258W        W26519  29.550  15.820  13.501
67259W        W26520  10.272  22.565  11.878
67260W        W26521  29.062  10.742   0.368
67261W        W26522   4.244  29.122  13.023
67262W        W26523   4.217  15.720  13.445
67263W        W26524   6.696  20.182  10.540
67264W        W26525  14.728   4.851  14.919
67265W        W26526  28.946  31.047  12.528
67266W        W26527  27.131  13.153   0.454
67267W        W26528  14.639  17.710  14.789
67268W        W26529  32.452  10.161   0.400
67269W        W26530  42.937  35.055  14.016
67270W        W26531  19.084  27.137   0.450
67271W        W26532  20.171  42.862  10.068
67272W        W26533  28.659  10.677  10.961
67273W        W26534   0.322  44.975   4.181
67274W        W26535  18.771  31.985   5.098
67275W        W26536  43.481  36.529   1.850
67276W        W26537  21.196   2.254  10.635
67277W        W26538  39.452  19.228   2.338
67278W        W26539  39.551  31.951   1.389
67279W        W26540  11.302   2.427  12.867
67280W        W26541  38.023  10.358  10.157
67281W        W26542  14.708  35.367  14.880
67282W        W26543  27.141  39.040  13.543
67283W        W26544  44.409  11.766  14.014
67284W        W26545  10.290  35.956   4.732
67285W        W26546  15.150  44.923   0.434
67286W        W26547  24.697  22.068  11.998
67287W        W26548  31.933  34.016  14.867
67288W        W26549  24.613  37.067   0.964
67289W        W26550   5.200  39.027  11.380
67290W        W26551   3.425  17.090  13.335
67291W        W26552  36.494  33.418  10.453
67292W        W26553  29.656  40.968   4.610
67293W        W26554  13.280  31.016   3.811
67294W        W26555  21.538  19.754   9.442
67295W        W26556  25.069   6.376   3.833
67296W        W26557  14.184  39.834  10.637
67297W        W26558  11.244  15.207   2.377
67298W        W26559  33.406  25.042   3.713
67299W        W26560  21.115  18.781   2.829
67300W        W26561  38.400  10.251  11.883
67301W        W26562  35.050  22.621   0.870
67302W        W26563  16.151  15.603   3.264
67303W        W26564  39.870  32.636   0.824
67304W        W26565  10.261   3.916  11.945
67305W        W26566  17.747  14.689   1.225
67306W        W26567  30.025  30.550   3.660
67307W        W26568  10.749   5.316  13.339
67308W        W26569   0.376   2.455  12.076
67309W        W26570  16.190   3.876  10.035
67310W        W26571   7.338   1.953  13.332
67311W        W26572  23.630   0.462   3.327
67312W        W26573  44.808  14.259   2.409
67313W        W26574  32.942  33.542  11.930
67314W        W26575  39.949   1.290  10.468
67315W        W26576  36.906   7.777   2.210
67316W        W26577  26.567  39.462   0.334
67317W        W26578  44.783  12.758   0.806
67318W        W26579  41.452   6.241  14.946
67319W        W26580   5.878  30.445  14.785
67320W        W26581   4.317  10.648   3.662
67321W        W26582   7.311  11.684  11.611
67322W        W26583  25.483  42.907   1.328
67323W        W26584  42.785  11.162   1.739
67324W        W26585  20.061   2.244  10.460
67325W        W26586   3.832  14.335   4.671
67326W        W26587  17.088  39.056  12.421
67327W        W26588  17.238  38.545  12.459
67328W        W26589  36.965  15.127   2.798
67329W        W26590   8.770  29.666  12.432
67330W        W26591  23.088  39.551  10.595
67331W        W26592  27.527  35.103  11.910
67332W        W26593   3.455   5.307   2.736
67333W        W26594  28.573  37.072  14.316
67334W        W26595  25.546  34.947   1.444
67335W        W26596  38.520   8.180   0.243
67336W        W26597  40.521  33.922   0.440
67337W        W26598  31.061  10.662   2.785
67338W        W26599  15.580  42.855   0.775
67339W        W26600  16.811   7.862  11.905
67340W        W26601  41.325  11.159  13.892
67341W        W26602  43.872  11.664   3.179
67342W        W26603  35.397  27.079   1.892
67343W        W26604  33.424  43.330   2.792
67344W        W26605   0.865  22.123   0.374
67345W        W26606   3.783   3.778   2.413
67346W        W26607  43.303  44.759  13.414
67347W        W26608  11.866  13.725   4.809
67348W        W26609  43.949  22.041  14.972
67349W        W26610   8.705  39.560   2.863
67350W        W26611   3.783   9.719  13.488
67351W        W26612  24.687  23.201  12.423
67352W        W26613  40.414  39.870  13.451
67353W        W26614  43.372  41.827  10.431
67354W        W26615  35.020  40.994  13.325
67355W        W26616  16.205  37.365   0.252
67356W        W26617  15.155  13.218   1.447
67357W        W26618   0.950   8.205  13.982
67358W        W26619  39.871  15.254   3.679
67359W        W26620  16.782  18.056   4.183
67360W        W26621  29.597  28.507  13.362
67361W        W26622  16.092  18.275  10.429
67362W        W26623  35.571  18.760  11.504
67363W        W26624  29.542  37.072   3.308
67364W        W26625  24.169  19.177  12.360
67365W        W26626   4.892  20.162   1.852
67366W        W26627  24.694  16.307   0.906
67367W        W26628   0.837  24.058   2.847
67368W        W26629  44.470  30.035   4.746
67369W        W26630   8.728  40.913   2.266
67370W        W26631   0.876  15.771  14.305
67371W        W26632   6.840   1.975  11.857
67372W        W26633   4.845  23.214   4.794
67373W        W26634  31.465  26.686   1.757
67374W        W26635  23.232  17.085   0.867
67375W        W26636  41.038  44.504   2.883
67376W        W26637   0.289  32.945   2.349
67377W        W26638  37.465  19.280  14.453
67378W        W26639  18.553  30.466   0.461
67379W        W26640  33.499  19.539   3.690
67380W        W26641  26.983  28.123   5.111
67381W        W26642  10.255   0.318   1.411
67382W        W26643  33.994  16.244   2.189
67383W        W26644  27.030  32.406   0.482
67384W        W26645  28.119  30.129  13.318
67385W        W26646  26.173  33.049   0.822
67386W        W26647  17.616  26.544   0.362
67387W        W26648  15.642  17.232  11.116
67388W        W26649  35.044  30.025   2.756
67389W        W26650  31.518   1.764  12.866
67390W        W26651  42.503  30.940  12.468
67391W        W26652   4.255  30.652   3.801
67392W        W26653  26.461  10.754  14.014
67393W        W26654   7.201  40.480  13.929
67394W        W26655  39.344  27.165   1.717
67395W        W26656  18.751  37.537   2.275
67396W        W26657  26.175  37.457   2.196
67397W        W26658  16.101  38.016   4.301
67398W        W26659  12.828  23.679  13.410
67399W        W26660  34.511   3.733   2.826
67400W        W26661   8.687   4.447   1.756
67401W        W26662  17.598  37.371   2.344
67402W        W26663  44.453  32.461  12.962
67403W        W26664  43.491  42.883  10.635
67404W        W26665   2.239   3.829  13.057
67405W        W26666  42.509  17.641  11.049
67406W        W26667   4.701  14.290  12.403
67407W        W26668  13.741  41.844   2.351
67408W        W26669   9.337  37.022   0.276
67409W        W26670  12.750  24.153   0.416
67410W        W26671   4.280  20.059  11.006
67411W        W26672  20.617  22.538   1.435
67412W        W26673  33.995  19.109   1.707
67413W        W26674   2.287  17.615  13.910
67414W        W26675  41.881  21.595  12.433
67415W        W26676  22.644  27.586  10.487
67416W        W26677  21.210  17.236  12.932
67417W        W26678  23.095  14.739  11.549
67418W        W26679  36.916  24.171   4.811
67419W        W26680   7.763  27.972  14.505
67420W        W26681   3.316  44.487  11.504
67421W        W26682  21.106   2.378   1.367
67422W        W26683  35.451  13.283   2.864
67423W        W26684   4.446  20.233  11.412
67424W        W26685   5.925  29.123   1.351
67425W        W26686  43.898  28.122  13.348
67426W        W26687   8.894  23.023  13.355
67427W        W26688  30.927  41.508   2.249
67428W        W26689  36.876  31.024   3.308
67429W        W26690  39.897  35.546  13.025
67430W        W26691  24.605  26.083  14.309
67431W        W26692  11.659  13.292   5.204
67432W        W26693   1.969  34.954   2.242
67433W        W26694  41.392  28.132   2.408
67434W        W26695  18.065  30.565  11.451
67435W        W26696  23.237  22.094  10.996
67436W        W26697  38.329   6.847   4.692
67437W        W26698  20.249  35.591   3.658
67438W        W26699  36.442  19.682  11.495
67439W        W26700  13.636  36.945  11.596
67440W        W26701  30.540  16.084  12.067
67441W        W26702  41.845  20.168  13.029
67442W        W26703  43.825   8.890   1.893
67443W        W26704   3.301  39.398   2.220
67444W        W26705  39.867  34.961  12.548
67445W        W26706   4.754  29.069   4.772
67446W        W26707  28.013  40.487  11.883
67447W        W26708  37.034   4.793  14.979
67448W        W26709   0.925  33.541   4.340
67449W        W26710  37.386   8.867   3.331
67450W        W26711  33.556  32.430  12.916
67451W        W26712   0.857  33.055  10.141
67452W        W26713  31.907   8.263   3.174
67453W        W26714  29.089  25.077  11.923
67454W        W26715   8.696   1.444  11.883
67455W        W26716  30.112   8.377  11.382
67456W        W26717  31.613   1.410   1.702
67457W        W26718  44.395   4.424  11.934
67458W        W26719  18.094  39.933  14.441
67459W        W26720  42.444  15.225  14.929
67460W        W26721  21.203  23.231  14.990
67461W        W26722   7.272  43.386   4.601
67462W        W26723  12.816  31.993   3.249
67463W        W26724   2.882   7.405  11.580
67464W        W26725  23.569  25.474   3.221
67465W        W26726  29.151  40.831  10.408
67466W        W26727  16.666  14.190  10.976
67467W        W26728  42.022  42.421  14.423
67468W        W26729   9.888  21.040  12.434
67469W        W26730  33.932  31.093   2.178
67470W        W26731  39.007  33.100  11.033
67471W        W26732  35.452  33.425   2.224
67472W        W26733  43.785   5.705   4.614
67473W        W26734  37.928   1.437   3.710
67474W        W26735  27.457   9.786   2.285
67475W        W26736   0.901  34.435   0.259
67476W        W26737  43.986   9.210   1.384
67477W        W26738  11.154  11.630   3.251
67478W        W26739  41.344  30.604   4.209
67479W        W26740  41.903  33.067   0.468
67480W        W26741  16.633  24.550  14.317
67481W        W26742   8.405   7.310   1.890
67482W        W26743   3.819   4.223  13.033
67483W        W26744  15.626  35.935   0.914
67484W        W26745  41.040  31.533   2.313
67485W        W26746  29.040  39.507  11.992
67486W        W26747  20.204  33.585  14.031
67487W        W26748  32.429  20.618   1.822
67488W        W26749  14.193  38.420  11.538
67489W        W26750  12.789  16.215  10.623
67490W        W26751  15.730  22.666   1.313
67491W        W26752  19.201   6.824  11.577
67492W        W26753  25.708  33.130   4.768
67493W        W26754  10.752  27.491  12.079
67494W        W26755  36.492   0.779   1.317
67495W        W26756  14.814  27.501  14.760
67496W        W26757  42.453   4.924  12.020
67497W        W26758  39.426  15.227  12.982
67498W        W26759  43.979   9.176  13.309
67499W        W26760  26.592  33.549  13.335
67500W        W26761  26.602  36.375  13.421
67501W        W26762  13.691  43.420  11.026
67502W        W26763  37.551  29.432  11.594
67503W        W26764  40.901  10.784  13.365
67504W        W26765  30.981  18.136   2.366
67505W        W26766  34.903  16.089  14.330
67506W        W26767   6.185  26.109   4.211
67507W        W26768   6.858  33.581   1.211
67508W        W26769   8.695  32.510   2.366
67509W        W26770  28.128  39.410   1.318
67510W        W26771   2.897   2.956  10.597
67511W        W26772  19.124  33.989  12.093
67512W        W26773  17.723  42.486  13.499
67513W        W26774  36.024  34.032  12.904
67514W        W26775  36.592  37.345  13.051
67515W        W26776  37.979  11.274   0.479
67516W        W26777  39.061   8.214  13.956
67517W        W26778  30.163  13.753  11.455
67518W        W26779  39.808  14.665  12.359
67519W        W26780  41.025   8.832  12.084
67520W        W26781  22.504  39.020  12.856
67521W        W26782  27.652  32.077   0.912
67522W        W26783  19.702  15.748   3.807
67523W        W26784  37.495   9.395  10.557
67524W        W26785  38.335  41.824  10.506
67525W        W26786   0.918  27.545   1.828
67526W        W26787  38.029   6.858  10.627
67527W        W26788  24.531  31.095   2.888
67528W        W26789   6.797   5.712  13.487
67529W        W26790  20.562  22.732  14.405
67530W        W26791   7.864  13.813   1.398
67531W        W26792  40.500  26.081   3.252
67532W        W26793  19.068  15.150   4.749
67533W        W26794  37.431  40.380   4.777
67534W        W26795  17.584  26.546  13.354
67535W        W26796  17.163  25.514  14.809
67536W        W26797   9.882  31.405  14.342
67537W        W26798  13.681  10.765   3.840
67538W        W26799  38.514  23.591  10.586
67539W        W26800  22.527  37.424  14.506
67540W        W26801  18.225  29.599  12.573
67541W        W26802  26.625  35.496   0.317
67542W        W26803  28.446   9.175   3.640
67543W        W26804  26.962  44.838   0.471
67544W        W26805  29.120  28.026  11.454
67545W        W26806  26.163  29.607   2.250
67546W        W26807  25.551  26.518  13.946
67547W        W26808  31.422  14.273  14.452
67548W        W26809  37.392   7.875   4.142
67549W        W26810  35.862  16.127   4.147
67550W        W26811  40.306  33.464   0.827
67551W        W26812   1.748  11.212   1.422
67552W        W26813  33.059  13.158  11.024
67553W        W26814  22.612  27.189   4.638
67554W        W26815  30.912  29.080   1.235
67555W        W26816  20.734   7.765  11.028
67556W        W26817  44.968  13.207  13.825
67557W        W26818  38.044  10.767  11.512
67558W        W26819   7.727  42.918  10.990
67559W        W26820  22.622   3.381   1.422
67560W        W26821  32.457   8.801   0.823
67561W        W26822   9.354   7.172   0.752
67562W        W26823   1.442  31.142  13.804
67563W        W26824  37.067   7.673   9.557
67564W        W26825  32.517  20.664   2.733
67565W        W26826  37.503  20.763  12.040
67566W        W26827  25.495  40.406  10.096
67567W        W26828  29.957   7.332   0.953
67568W        W26829  11.636  39.977   1.442
67569W        W26830   5.203  22.720  13.413
67570W        W26831  26.129  25.657   4.695
67571W        W26832  15.777  24.612  14.790
67572W        W26833   3.931  19.756  14.477
67573W        W26834  11.726  29.066   4.730
67574W        W26835  29.442  21.695  13.819
67575W        W26836  15.183  22.157  13.829
67576W        W26837  13.661  42.433   2.295
67577W        W26838  35.896  32.899  14.911
67578W        W26839  27.476   4.308   4.826
67579W        W26840  11.699  23.552  14.393
67580W        W26841  27.684  33.962  10.901
67581W        W26842  38.424   4.380  13.321
67582W        W26843   2.827  18.081   4.712
67583W        W26844  28.605  19.741  10.577
67584W        W26845  34.908  25.484  13.046
67585W        W26846  39.019  19.762   4.743
67586W        W26847  44.007  32.916  11.566
67587W        W26848  16.612  23.646   2.755
67588W        W26849   0.809  35.990   3.683
67589W        W26850  31.624  21.528   0.442
67590W        W26851   7.409  20.273  12.876
67591W        W26852  32.048  34.392  10.938
67592W        W26853  32.931   6.775  12.433
67593W        W26854  33.970   8.716   0.449
67594W        W26855   6.400   3.895  11.390
67595W        W26856  39.839   2.949   4.597
67596W        W26857  13.722   9.814  12.410
67597W        W26858  15.328  36.052   0.449
67598W        W26859   5.836  44.267   0.416
67599W        W26860  22.211   2.884  13.507
67600W        W26861  18.061  44.829  12.857
67601W        W26862  23.589   3.759   2.861
67602W        W26863  38.469  28.527   4.163
67603W        W26864   3.408  36.930   2.862
67604W        W26865  33.967   3.363  13.932
67605W        W26866   3.814  26.637  14.014
67606W        W26867  43.829  44.278  13.429
67607W        W26868  43.836  17.752   1.398
67608W        W26869  22.517  25.526   4.141
67609W        W26870   4.842  40.986   3.677
67610W        W26871   8.705  21.740   0.782
67611W        W26872  41.376  23.652   3.294
67612W        W26873  19.616  36.057   0.823
67613W        W26874   6.351  24.097  11.032
67614W        W26875  37.417   3.337   5.093
67615W        W26876  40.460  29.636   2.833
67616W        W26877  44.500  21.614  13.402
67617W        W26878  39.853  37.052   2.331
67618W        W26879  20.731  37.494  10.067
67619W        W26880  20.766   3.414  10.539
67620W        W26881  21.669  20.250  14.821
67621W        W26882  14.294   1.825  13.308
67622W        W26883  41.923  40.509   1.325
67623W        W26884  15.234  22.242  14.412
67624W        W26885  17.585  33.544  11.903
67625W        W26886  17.589  20.660  13.861
67626W        W26887  38.880   0.780   0.264
67627W        W26888  34.067  38.851   4.644
67628W        W26889  39.455  19.156  13.519
67629W        W26890  12.748  31.605   3.842
67630W        W26891   2.332  31.934  10.062
67631W        W26892  23.547  26.643  12.930
67632W        W26893  27.115  40.031  10.431
67633W        W26894  22.613  36.399  12.966
67634W        W26895  44.800   9.703   0.857
67635W        W26896   6.308  12.662  10.628
67636W        W26897   7.322  35.059   2.325
67637W        W26898  16.161  16.235  11.992
67638W        W26899  21.167  28.967  11.907
67639W        W26900  25.007  40.503   1.321
67640W        W26901   5.708  25.175   3.209
67641W        W26902  27.106  18.762   1.353
67642W        W26903  12.622  42.982   1.367
67643W        W26904  19.214  36.914  13.396
67644W        W26905   6.736  13.109   1.304
67645W        W26906   1.300  33.131  12.448
67646W        W26907  19.087  27.109   3.226
67647W        W26908  14.613   2.844  10.897
67648W        W26909  30.427  32.989  11.383
67649W        W26910   3.786  32.933  10.966
67650W        W26911  11.158  12.218   1.213
67651W        W26912  17.093  17.723  13.325
67652W        W26913   5.346  27.466  10.445
67653W        W26914  16.140  29.585  12.009
67654W        W26915  34.414  16.597  12.069
67655W        W26916  23.692  35.986  10.462
67656W        W26917  44.465   0.829  12.981
67657W        W26918  17.688  23.026  14.417
67658W        W26919   7.347  32.581   1.846
67659W        W26920   4.439  35.046  14.867
67660W        W26921   3.339  20.156  11.415
67661W        W26922  13.665  10.313   4.212
67662W        W26923  17.144  20.552  14.864
67663W        W26924  31.066   8.362   5.302
67664W        W26925  32.509  26.132   1.346
67665W        W26926  29.451  28.161  12.880
67666W        W26927  38.073   0.844   1.428
67667W        W26928  30.599  35.486  11.430
67668W        W26929  34.568  33.424   3.682
67669W        W26930  14.283   3.246   4.612
67670W        W26931  31.407  11.862   3.218
67671W        W26932  14.807   5.374   9.491
67672W        W26933   9.319  22.028  12.381
67673W        W26934  12.230   0.927  12.013
67674W        W26935  31.415  11.653  10.617
67675W        W26936   5.795  43.409  14.901
67676W        W26937  25.601  29.609   4.815
67677W        W26938  40.867  23.161  11.956
67678W        W26939  38.860  44.819  11.427
67679W        W26940  37.903  42.816   2.773
67680W        W26941  32.999  26.092  14.370
67681W        W26942  16.120  42.486  13.862
67682W        W26943   7.809  18.731  11.928
67683W        W26944  40.971  26.208   1.400
67684W        W26945  15.120  43.991  14.876
67685W        W26946  20.164   1.818   3.855
67686W        W26947  17.237  17.277  14.290
67687W        W26948   0.809   4.251   1.713
67688W        W26949  22.581  12.750   2.249
67689W        W26950  11.806  11.688   9.964
67690W        W26951  20.676  42.847  12.028
67691W        W26952   1.867   2.875  11.053
67692W        W26953  20.675  31.512   0.421
67693W        W26954  34.945  33.012  12.970
67694W        W26955   2.381  36.562  11.998
67695W        W26956   3.838  19.737   1.335
67696W        W26957  19.089   5.789  10.980
67697W        W26958  19.121   5.329   3.280
67698W        W26959  31.487   5.357   0.346
67699W        W26960  13.819  31.012  12.560
67700W        W26961  18.223   3.800  13.459
67701W        W26962  25.023  13.239  12.865
67702W        W26963  21.670  22.617  10.962
67703W        W26964  26.489  26.006  13.940
67704W        W26965  17.628  11.340   2.315
67705W        W26966   8.377  20.042  14.378
67706W        W26967   9.208   1.249   1.875
67707W        W26968  25.995  15.676  11.957
67708W        W26969  14.207  18.219  13.471
67709W        W26970  19.181  44.932   4.776
67710W        W26971  15.626   1.901  14.011
67711W        W26972  33.026  32.098   1.926
67712W        W26973   1.812  34.057   4.219
67713W        W26974  21.625  23.994   4.636
67714W        W26975  33.571  17.694   4.172
67715W        W26976   1.944   7.174  11.603
67716W        W26977  34.409  35.467   3.710
67717W        W26978  29.524  35.919  13.792
67718W        W26979  22.587  21.534  14.827
67719W        W26980  13.199  35.558  13.404
67720W        W26981   1.321  37.038   0.248
67721W        W26982  27.039  10.338  12.401
67722W        W26983  39.907  31.146  13.900
67723W        W26984  12.823  41.908   1.440
67724W        W26985  37.461   0.932  14.848
67725W        W26986  28.983  25.062  14.301
67726W        W26987  33.394   2.270  14.383
67727W        W26988  43.356   8.792  11.397
67728W        W26989  43.990   8.683   1.421
67729W        W26990  32.143  19.722  10.980
67730W        W26991  21.250  36.382   2.315
67731W        W26992  35.882  44.434  14.870
67732W        W26993  16.212   9.259  12.514
67733W        W26994  33.077  19.548   4.257
67734W        W26995  37.565  24.984   1.257
67735W        W26996  26.629  29.509   5.263
67736W        W26997   5.825  37.896  13.330
67737W        W26998  39.048  35.417   3.287
67738W        W26999  12.142  25.997   2.782
67739W        W27000  36.054  39.543   4.294
67740W        W27001  19.195  26.648   1.702
67741W        W27002  29.594   9.201  11.578
67742W        W27003  19.091   7.855  12.368
67743W        W27004  41.408  21.070  12.344
67744W        W27005   5.215  27.539  11.425
67745W        W27006  19.648  26.684   1.879
67746W        W27007  28.673  30.611  14.966
67747W        W27008  25.194  34.581  14.405
67748W        W27009  31.412  25.136   3.868
67749W        W27010  26.600  39.917  14.951
67750W        W27011  37.401  28.068   1.264
67751W        W27012   1.321  18.132   3.368
67752W        W27013  14.268  19.071  12.951
67753W        W27014  24.168  13.717   0.791
67754W        W27015  32.133  31.902   1.418
67755W        W27016  42.884  20.169  12.932
67756W        W27017  17.717  12.280  14.421
67757W        W27018  43.949  32.392   2.385
67758W        W27019   4.212  30.061  10.592
67759W        W27020  35.377   3.857   1.873
67760W        W27021  44.335   2.298   5.260
67761W        W27022   7.320  27.458   0.782
67762W        W27023   3.447  20.707  12.920
67763W        W27024   3.833   6.726  14.285
67764W        W27025  44.810  27.477   1.268
67765W        W27026  40.820  37.840   3.312
67766W        W27027   7.822  41.464  10.069
67767W        W27028  22.158  37.005  14.875
67768W        W27029  34.543  15.111   1.248
67769W        W27030   2.233  20.071  12.040
67770W        W27031  38.921  43.433  11.600
67771W        W27032  11.821  20.573   1.728
67772W        W27033  43.941   8.901  11.512
67773W        W27034  33.401  20.117   1.230
67774W        W27035  23.701  32.503  13.047
67775W        W27036  31.950  44.374   0.436
67776W        W27037  41.035  24.661  14.812
67777W        W27038  27.692  11.696  10.911
67778W        W27039   1.448   5.398   3.169
67779W        W27040  30.979  24.050   3.654
67780W        W27041  16.311  16.801   1.733
67781W        W27042  14.689   2.885   2.878
67782W        W27043  33.469  21.056  13.821
67783W        W27044  44.340  28.154  13.870
67784W        W27045  20.106  44.943  12.961
67785W        W27046  37.048   0.412  12.029
67786W        W27047  32.078   8.212  13.932
67787W        W27048  12.814  36.851  12.085
67788W        W27049  15.811  19.640   4.735
67789W        W27050  23.525   4.330  11.927
67790W        W27051  31.424   1.788  12.018
67791W        W27052  11.694  26.573   1.297
67792W        W27053   5.817  17.750   4.227
67793W        W27054  30.486  10.845   4.634
67794W        W27055  22.510  43.929   0.370
67795W        W27056  31.150  23.566   4.130
67796W        W27057  23.734   2.335   3.208
67797W        W27058   1.779  12.278   3.211
67798W        W27059  11.694  16.154   1.259
67799W        W27060   9.187  30.030   2.888
67800W        W27061  28.632  30.614  11.897
67801W        W27062  19.674   1.887   0.408
67802W        W27063  27.197  33.935  10.507
67803W        W27064  32.534  35.962  11.976
67804W        W27065   3.832  42.292   1.245
67805W        W27066   0.354  17.110   0.785
67806W        W27067   7.756  36.560   1.352
67807W        W27068   4.759   1.416  12.374
67808W        W27069  42.940  42.873   0.357
67809W        W27070   4.222   2.350  12.435
67810W        W27071  30.631   0.793  11.883
67811W        W27072  15.087  27.577   2.855
67812W        W27073  11.145  20.620   1.423
67813W        W27074  29.547   7.245  12.947
67814W        W27075  42.463   8.395  11.497
67815W        W27076   3.917  26.701  10.100
67816W        W27077  29.119  23.055   4.682
67817W        W27078  33.571  20.232  11.073
67818W        W27079  11.865  41.874  14.513
67819W        W27080  35.917  12.137   2.401
67820W        W27081   4.870  25.019  12.477
67821W        W27082   1.247   0.395   3.799
67822W        W27083   6.780  17.622   4.272
67823W        W27084  10.148   9.765  12.847
67824W        W27085   2.738  25.004  14.461
67825W        W27086  33.507  31.570  14.396
67826W        W27087  37.876   7.886   5.241
67827W        W27088  17.757  38.052   2.705
67828W        W27089  40.999  22.638  12.491
67829W        W27090  27.070   2.796   5.099
67830W        W27091  14.674  34.959  13.914
67831W        W27092  16.726  35.559   1.433
67832W        W27093  20.032  10.337  13.396
67833W        W27094  12.766  13.242   4.241
67834W        W27095  40.379   3.337   3.216
67835W        W27096  10.729  33.967   3.855
67836W        W27097  10.355  39.481   1.261
67837W        W27098  16.807  10.263   4.212
67838W        W27099  37.415  24.595  10.988
67839W        W27100   4.926  31.146  10.946
67840W        W27101  29.436   0.825  13.988
67841W        W27102  41.362  42.423   0.337
67842W        W27103  44.814  41.529   0.953
67843W        W27104  31.120   4.450   4.678
67844W        W27105  35.528  12.329   3.667
67845W        W27106  24.547  21.739   1.404
67846W        W27107  32.537   0.272   4.301
67847W        W27108  33.007  25.196   1.421
67848W        W27109   0.928  11.637   4.647
67849W        W27110  27.690  10.829   4.704
67850W        W27111   1.284  10.821  13.352
67851W        W27112  35.432  35.417   1.389
67852W        W27113  10.708   4.286   5.783
67853W        W27114  42.420   2.241  14.288
67854W        W27115   9.334  11.339   2.771
67855W        W27116  19.752  22.656  11.105
67856W        W27117   1.433   1.745  13.936
67857W        W27118  17.067  27.627  14.798
67858W        W27119  30.512  15.672  13.045
67859W        W27120  14.096  17.173   3.653
67860W        W27121   2.888   1.787  14.917
67861W        W27122  10.778  27.601  12.833
67862W        W27123   0.976  10.648  11.585
67863W        W27124  28.665  44.440   3.642
67864W        W27125  15.135  37.998  13.431
67865W        W27126  12.616  37.934  12.354
67866W        W27127   9.155  33.517  14.887
67867W        W27128   1.364  32.966  13.485
67868W        W27129  33.087  30.033   3.772
67869W        W27130  38.922   4.927  14.451
67870W        W27131   9.294  14.109   4.130
67871W        W27132  16.792  29.036  14.801
67872W        W27133  17.777  37.564  11.954
67873W        W27134  16.637  10.748  14.861
67874W        W27135  39.531   3.269  14.491
67875W        W27136  39.477  12.220  12.965
67876W        W27137  19.609  37.518   0.846
67877W        W27138  13.816  41.347   2.842
67878W        W27139  26.579  23.736  11.998
67879W        W27140  31.923   9.744   1.385
67880W        W27141  22.696  38.424  13.942
67881W        W27142   9.872  11.190  11.112
67882W        W27143  39.397   0.479   0.848
67883W        W27144  37.356  11.195  13.541
67884W        W27145  37.536  15.234   4.820
67885W        W27146  34.441   0.975   3.249
67886W        W27147  21.750  16.085  11.855
67887W        W27148  15.666  16.213  10.456
67888W        W27149  38.394  32.442   2.213
67889W        W27150   2.888   5.918  12.853
67890W        W27151  31.011  28.187   1.213
67891W        W27152   0.905  29.051   1.397
67892W        W27153  25.103  32.458   0.458
67893W        W27154  44.283  35.860  12.055
67894W        W27155  41.426  26.153  10.465
67895W        W27156  14.835  42.378   3.366
67896W        W27157  16.152  14.118   4.182
67897W        W27158  42.368   5.907  12.849
67898W        W27159  40.843  27.614   4.599
67899W        W27160  17.684  32.081  12.456
67900W        W27161  17.135   2.425  14.390
67901W        W27162   1.400   9.656   1.294
67902W        W27163  37.849   9.784   2.311
67903W        W27164  25.182  25.502   4.113
67904W        W27165  29.936   1.376  10.071
67905W        W27166  29.493   2.288   1.282
67906W        W27167  12.234  30.559  13.946
67907W        W27168  12.136  20.240  11.406
67908W        W27169  24.694  39.461   3.842
67909W        W27170  12.250  35.945   1.318
67910W        W27171  30.965  36.462   1.369
67911W        W27172   6.836  36.403   2.796
67912W        W27173  43.940  29.513  14.355
67913W        W27174  26.010   6.362   5.163
67914W        W27175  30.045  43.456   0.843
67915W        W27176  29.083  30.618   3.766
67916W        W27177  18.267  20.678   2.866
67917W        W27178  44.473   7.272   3.676
67918W        W27179   1.367  33.027  10.580
67919W        W27180  21.639   7.404   4.188
67920W        W27181  25.000  18.121  14.822
67921W        W27182  23.645  17.067  11.441
67922W        W27183  24.632   3.271   0.425
67923W        W27184  28.558  25.536   2.194
67924W        W27185  10.284  43.503  14.930
67925W        W27186  34.502  23.166  13.810
67926W        W27187   6.739  28.610   4.804
67927W        W27188  20.264  23.673  12.884
67928W        W27189  33.013   2.312  13.791
67929W        W27190  24.543   8.683  13.387
67930W        W27191  28.483  12.248  13.347
67931W        W27192  25.106   5.424   0.805
67932W        W27193  25.625   7.405   0.782
67933W        W27194  26.981  21.543  12.971
67934W        W27195  27.472  40.879  12.541
67935W        W27196  23.070  28.122  11.514
67936W        W27197  16.617  42.404  10.478
67937W        W27198  36.372  22.195   2.257
67938W        W27199  17.223  34.940   0.855
67939W        W27200  31.591  24.633   4.720
67940W        W27201  19.617   9.164  10.984
67941W        W27202  33.552  10.219  12.866
67942W        W27203  44.496  37.338  10.406
67943W        W27204   3.314  19.073  12.940
67944W        W27205  27.033  23.140  14.386
67945W        W27206  30.930   3.283  13.013
67946W        W27207  40.915  29.071  14.021
67947W        W27208  28.436  23.606   3.766
67948W        W27209  32.595   0.923   3.263
67949W        W27210  32.994  13.787   4.239
67950W        W27211  29.929   7.751   1.333
67951W        W27212   2.262  36.089   3.275
67952W        W27213  27.018  10.829  14.467
67953W        W27214   8.661  34.880   2.313
67954W        W27215  43.963  43.892  10.984
67955W        W27216  23.118   2.455  14.900
67956W        W27217  25.997  15.706   0.316
67957W        W27218  11.758  41.434   5.298
67958W        W27219  39.326  43.819  12.505
67959W        W27220  29.619  43.270   1.412
67960W        W27221  33.403   8.805   2.725
67961W        W27222  39.425  22.997   1.920
67962W        W27223  43.437  38.055   2.902
67963W        W27224  44.758   4.325  13.425
67964W        W27225   3.719  41.823   1.281
67965W        W27226  32.989  32.569   1.783
67966W        W27227  22.618   4.865   5.219
67967W        W27228  23.651  21.687   0.460
67968W        W27229   1.858  20.190   2.318
67969W        W27230  17.267   4.224  14.344
67970W        W27231  43.933  10.705   2.880
67971W        W27232  34.007  23.540  11.545
67972W        W27233  20.603  10.143   4.705
67973W        W27234   7.336   9.725  10.511
67974W        W27235  36.875  28.495   2.884
67975W        W27236  23.220   3.849  14.969
67976W        W27237  24.557   3.781  14.461
67977W        W27238  27.192  12.664   1.423
67978W        W27239  29.625  35.436  13.341
67979W        W27240   8.347  31.513  14.370
67980W        W27241  18.745  31.021  10.467
67981W        W27242  22.071  33.517  11.509
67982W        W27243  42.873  15.133   3.205
67983W        W27244   8.196  30.599   1.796
67984W        W27245  20.716  25.704  10.562
67985W        W27246  41.461  13.721  11.561
67986W        W27247   4.858  27.043   3.823
67987W        W27248  31.430   2.904  13.031
67988W        W27249  17.263  33.108   2.286
67989W        W27250  39.357  10.692  13.528
67990W        W27251  22.588  43.464  12.054
67991W        W27252  40.450  27.995   1.896
67992W        W27253   0.890  12.728   4.648
67993W        W27254   6.901   7.706  13.831
67994W        W27255  30.592  24.638  12.421
67995W        W27256  20.603   1.930   0.741
67996W        W27257  28.595  28.931   4.640
67997W        W27258  24.685  29.152  12.032
67998W        W27259  20.574  10.753  10.934
67999W        W27260  11.720  32.939   3.703
68000W        W27261  15.155  15.305   1.277
68001W        W27262  43.816  29.627   2.364
68002W        W27263  23.135  25.481   4.642
68003W        W27264  37.012  17.139  10.935
68004W        W27265  10.292  12.362  12.340
68005W        W27266  30.001  25.040  12.071
68006W        W27267   4.303  13.843   1.916
68007W        W27268  40.407  39.324   3.697
68008W        W27269  42.803  38.015  14.434
68009W        W27270  29.513   1.320   5.107
68010W        W27271  31.500  18.171  10.987
68011W        W27272  30.522  32.495   0.929
68012W        W27273  43.819  24.007  12.353
68013W        W27274  36.390   5.905   1.763
68014W        W27275   1.477  21.520   0.853
68015W        W27276   9.281  37.532  11.602
68016W        W27277  34.923   0.809  12.520
68017W        W27278  28.130  37.456  11.498
68018W        W27279  38.559  39.445  13.418
68019W        W27280  34.965  39.482  14.470
68020W        W27281  38.396   5.706   2.414
68021W        W27282  38.926   2.779   9.955
68022W        W27283  40.865   8.844   2.231
68023W        W27284  10.780   3.385  11.000
68024W        W27285  43.874  27.160   9.638
68025W        W27286  34.446  26.974  10.898
68026W        W27287  10.308  29.010   1.718
68027W        W27288   0.255  16.597   0.770
68028W        W27289  14.807  44.790   2.190
68029W        W27290  28.481   7.332  10.931
68030W        W27291   8.272  28.092   2.811
68031W        W27292  10.351  17.772  13.363
68032W        W27293  20.200  27.096  10.905
68033W        W27294  36.476   3.290   5.127
68034W        W27295  20.580  34.527  12.575
68035W        W27296  24.198  33.964  13.531
68036W        W27297  41.902  23.212  14.869
68037W        W27298  43.981  15.232   2.674
68038W        W27299  15.244  26.156  13.409
68039W        W27300  41.445  37.487   5.295
68040W        W27301  15.769  26.985  10.920
68041W        W27302  35.931  35.853   3.656
68042W        W27303  36.012  18.119   0.802
68043W        W27304  27.660  17.101  14.016
68044W        W27305  33.006  42.358  12.072
68045W        W27306  19.689  11.174  13.379
68046W        W27307  20.057  10.170  11.915
68047W        W27308  31.487  12.765  14.858
68048W        W27309   0.966  33.616   3.826
68049W        W27310  39.547   7.681  14.846
68050W        W27311  27.472  30.970   3.256
68051W        W27312   6.227  18.233  12.482
68052W        W27313  35.008  29.042  13.864
68053W        W27314  15.319  10.766   3.808
68054W        W27315  29.607  21.654  14.817
68055W        W27316  30.133  41.853   3.246
68056W        W27317   9.873  25.693  14.000
68057W        W27318  23.139   5.896  11.891
68058W        W27319  42.003   5.854  14.821
68059W        W27320  16.812   8.853   1.934
68060W        W27321   8.216  32.890   0.760
68061W        W27322  38.886  14.200   0.880
68062W        W27323   4.747  25.710   0.457
68063W        W27324  23.652   2.740   4.329
68064W        W27325  26.076  24.602  11.951
68065W        W27326  42.475  23.011  13.959
68066W        W27327   0.955  35.868  11.426
68067W        W27328  17.242  27.170   1.762
68068W        W27329  44.831   6.282   1.809
68069W        W27330   6.231  31.060  11.560
68070W        W27331  13.670  25.555   9.951
68071W        W27332  11.802  44.458  14.329
68072W        W27333  28.080   1.336   3.236
68073W        W27334   0.442  24.136  12.466
68074W        W27335  30.658  30.474   3.215
68075W        W27336  38.056   8.831  12.005
68076W        W27337  18.733  18.073  14.008
68077W        W27338  28.494  28.457   1.739
68078W        W27339  36.857  30.019  13.830
68079W        W27340   7.285  28.539  13.537
68080W        W27341  13.767   6.814   1.851
68081W        W27342  34.602  31.061   2.874
68082W        W27343  12.165  43.506  12.929
68083W        W27344  10.299   1.399  10.615
68084W        W27345  13.154  36.502   2.341
68085W        W27346  12.277  13.308   0.328
68086W        W27347  36.348  43.853   3.816
68087W        W27348  23.080  43.989  12.388
68088W        W27349  25.982   2.328  13.520
68089W        W27350   1.422  18.259   1.715
68090W        W27351  16.179  20.655  13.802
68091W        W27352  10.842  44.957  13.888
68092W        W27353  22.026  44.817   4.277
68093W        W27354  33.933  20.650   0.329
68094W        W27355  39.389   9.656   4.272
68095W        W27356  24.064  19.693  14.328
68096W        W27357  21.154   7.410   9.920
68097W        W27358  39.482  12.640   0.424
68098W        W27359  33.982  13.753   1.756
68099W        W27360   3.854   1.360   4.743
68100W        W27361  34.454   0.932  12.048
68101W        W27362  34.435  18.723   4.143
68102W        W27363   1.840  38.964  14.848
68103W        W27364  14.739  10.267   0.878
68104W        W27365  37.875   1.856  11.976
68105W        W27366  20.241  42.785  11.550
68106W        W27367   0.281   8.757   0.305
68107W        W27368  30.908  27.008   0.269
68108W        W27369  29.950   4.397  12.470
68109W        W27370  15.265  15.149  10.932
68110W        W27371  34.599  31.607  12.576
68111W        W27372  23.192   2.419   3.674
68112W        W27373  32.958  32.570   0.926
68113W        W27374  19.780  35.852  10.453
68114W        W27375  27.690  21.067   0.379
68115W        W27376  28.114  17.607  13.998
68116W        W27377  31.600  21.151  14.278
68117W        W27378   4.777  15.724   2.790
68118W        W27379  43.339  14.765   0.289
68119W        W27380  23.082  10.683  11.453
68120W        W27381   7.341  30.968  11.430
68121W        W27382  22.183  13.279   4.335
68122W        W27383  18.186  15.630  13.885
68123W        W27384  43.513  41.811   0.786
68124W        W27385  28.115  16.266   0.880
68125W        W27386  41.958  20.146  12.060
68126W        W27387   7.396  44.286   2.333
68127W        W27388  17.773   8.888   3.849
68128W        W27389  16.627  24.211  11.390
68129W        W27390  12.248  21.248  10.478
68130W        W27391  26.165   8.353   0.779
68131W        W27392   8.378   1.388   2.872
68132W        W27393  21.023  10.857   1.236
68133W        W27394  24.091  30.031   2.671
68134W        W27395  27.499   9.675   3.829
68135W        W27396  28.065  18.291  13.362
68136W        W27397  12.659   8.680   4.151
68137W        W27398  22.564  38.567   2.813
68138W        W27399  29.105  40.477  11.551
68139W        W27400  41.921  43.884   3.293
68140W        W27401  44.448   2.258   1.447
68141W        W27402  34.511  27.599  11.439
68142W        W27403  40.311  29.619   0.261
68143W        W27404  21.653  21.686  11.057
68144W        W27405  22.717  15.129  14.874
68145W        W27406  41.004  37.547   3.645
68146W        W27407  40.938   2.318  14.838
68147W        W27408  24.207   5.904   2.330
68148W        W27409  27.959  26.513  11.961
68149W        W27410  33.430  25.072  12.038
68150W        W27411  42.306   6.313   2.796
68151W        W27412  10.301   3.345  14.963
68152W        W27413  27.959  35.042   5.320
68153W        W27414   1.363  16.576  12.897
68154W        W27415  32.025  20.657  12.845
68155W        W27416  17.635  20.617  14.397
68156W        W27417  12.679  40.926   1.725
68157W        W27418  21.520  44.915  10.410
68158W        W27419  25.489  25.706  13.886
68159W        W27420  17.607  36.068   2.309
68160W        W27421  26.033  23.187  13.020
68161W        W27422   1.365  28.091   4.235
68162W        W27423  38.051  25.573  12.354
68163W        W27424  28.064  40.374   2.890
68164W        W27425  42.313  36.067  13.479
68165W        W27426  42.437  17.106   4.124
68166W        W27427  30.911  32.617  10.416
68167W        W27428  19.776  40.803   2.863
68168W        W27429   9.200   7.831   1.788
68169W        W27430  22.651  10.825   4.332
68170W        W27431   4.944  34.980   1.740
68171W        W27432  14.806  28.454  13.433
68172W        W27433   7.349  10.703  14.374
68173W        W27434   7.303   3.741  13.809
68174W        W27435  10.863   3.796  10.141
68175W        W27436   4.779  34.541  10.971
68176W        W27437  20.092  17.259   5.651
68177W        W27438  13.121  36.082  14.277
68178W        W27439  18.074  27.566   2.238
68179W        W27440  21.055  11.757  11.051
68180W        W27441  32.123  37.832   3.372
68181W        W27442   6.344   6.330   0.843
68182W        W27443  42.784  24.621  11.970
68183W        W27444  34.058  23.175  12.379
68184W        W27445  25.624  11.348   1.228
68185W        W27446  44.887  41.853   1.835
68186W        W27447   0.298   1.376   4.807
68187W        W27448  44.261   5.728  12.483
68188W        W27449  35.552  31.061   1.885
68189W        W27450   0.903   3.415   3.163
68190W        W27451  23.113  41.800  13.406
68191W        W27452  40.845   1.405   3.660
68192W        W27453  24.613  36.355   2.859
68193W        W27454  10.765   0.403  12.843
68194W        W27455   6.760  44.978   0.726
68195W        W27456  41.031  35.531  14.445
68196W        W27457  25.098  28.993  11.516
68197W        W27458  19.093  13.766   0.455
68198W        W27459  31.052  42.283  12.551
68199W        W27460  16.112  24.653   2.204
68200W        W27461  16.693  36.096  12.030
68201W        W27462   3.424  40.865   2.305
68202W        W27463   7.684  22.726  13.869
68203W        W27464  29.936  41.834   2.283
68204W        W27465  26.593  29.493   1.331
68205W        W27466  35.059  24.588  11.566
68206W        W27467  20.596  17.577   1.434
68207W        W27468  14.182  35.022  12.572
68208W        W27469  10.771  36.387   2.900
68209W        W27470  26.204  43.418  10.538
68210W        W27471  16.702  43.993  12.829
68211W        W27472  43.808  36.095  12.045
68212W        W27473  33.942  43.860   4.670
68213W        W27474  36.353   3.790  13.493
68214W        W27475  29.645  17.173   4.346
68215W        W27476   0.277  16.582  11.424
68216W        W27477  30.541  14.115   3.727
68217W        W27478  35.565   0.798   2.885
68218W        W27479  10.344  14.169  12.929
68219W        W27480  20.669  14.331   2.856
68220W        W27481   1.321  21.728  14.841
68221W        W27482  16.143  40.483   2.836
68222W        W27483  37.958   4.368   1.316
68223W        W27484  36.465  40.901   3.810
68224W        W27485  29.106  40.018   4.716
68225W        W27486  13.239  19.279  13.490
68226W        W27487  22.151  29.496  10.520
68227W        W27488   0.954  24.510   3.823
68228W        W27489  33.914  32.580  14.510
68229W        W27490  26.162   9.874   4.642
68230W        W27491  28.005  13.149  14.854
68231W        W27492  32.491   7.723   3.368
68232W        W27493  30.971   8.278   1.698
68233W        W27494  42.442  15.318   2.388
68234W        W27495  16.676  26.702  12.533
68235W        W27496  44.364  28.670  10.980
68236W        W27497  29.144   1.848   2.291
68237W        W27498  19.745   4.245  12.416
68238W        W27499  30.078  12.116   0.380
68239W        W27500  15.142  10.668  12.549
68240W        W27501  11.261  16.305   0.818
68241W        W27502  13.737  43.926  14.447
68242W        W27503  39.023  42.930   2.255
68243W        W27504  34.102  23.677  13.001
68244W        W27505  29.017   8.818  10.985
68245W        W27506   8.204  44.491   1.795
68246W        W27507   9.649   1.363   3.835
68247W        W27508  34.104  26.970  11.564
68248W        W27509  43.362  12.712   4.608
68249W        W27510  11.788  12.290  13.943
68250W        W27511   8.779   4.825  11.586
68251W        W27512   6.401  37.087  13.449
68252W        W27513  13.168  10.229   3.243
68253W        W27514   2.761  15.087   2.336
68254W        W27515  40.346  37.853   0.763
68255W        W27516  43.432  11.193  11.569
68256W        W27517  28.473  20.575   3.223
68257W        W27518  40.481  30.013  12.406
68258W        W27519  26.065   6.871   3.179
68259W        W27520  21.121  28.595   1.770
68260W        W27521  22.196  10.309  10.443
68261W        W27522  36.390  19.544  14.465
68262W        W27523  35.571  13.244  14.806
68263W        W27524  37.454  17.778  14.285
68264W        W27525  10.664   2.428  14.367
68265W        W27526  13.161  44.386   2.673
68266W        W27527   6.830  16.234  14.816
68267W        W27528  30.083   1.301   0.942
68268W        W27529  17.794  29.427   0.309
68269W        W27530   9.716  21.621  13.830
68270W        W27531  27.504   5.399  11.372
68271W        W27532  25.497  33.566  14.506
68272W        W27533   1.898  40.483  14.885
68273W        W27534  31.096  26.477   1.833
68274W        W27535  35.547  25.620   0.875
68275W        W27536  35.912  41.036   2.191
68276W        W27537  38.904   4.814   1.415
68277W        W27538   8.181   3.396   1.902
68278W        W27539  42.940   7.183  12.940
68279W        W27540  43.415  10.759   2.823
68280W        W27541  34.027  28.154  12.057
68281W        W27542  33.507   7.302   5.125
68282W        W27543  13.280  22.070   3.218
68283W        W27544  21.529  41.528   2.387
68284W        W27545  11.132  30.046  13.932
68285W        W27546  15.135  30.494   1.329
68286W        W27547  13.151  21.641   1.708
68287W        W27548  28.446   8.807  13.529
68288W        W27549  36.428  29.171   3.823
68289W        W27550   3.841  29.034   4.160
68290W        W27551   6.681  35.022   1.872
68291W        W27552  16.152  29.966   1.276
68292W        W27553   6.897  23.066   4.716
68293W        W27554  19.116  22.136  14.846
68294W        W27555  28.027  16.226   4.812
68295W        W27556  30.479   2.450   3.653
68296W        W27557  20.058  11.851  14.770
68297W        W27558   4.728   3.758   2.837
68298W        W27559  38.571  26.020   3.191
68299W        W27560  22.567  31.426   4.347
68300W        W27561  27.046  19.675   0.272
68301W        W27562  26.480   3.934   4.137
68302W        W27563  12.210  29.929  12.849
68303W        W27564  23.008  20.142   3.629
68304W        W27565  23.733  15.255  14.281
68305W        W27566  20.163  33.010  11.872
68306W        W27567  41.869  14.829   2.403
68307W        W27568  35.584  24.143  10.504
68308W        W27569  15.612  22.080   1.873
68309W        W27570  16.700  23.639   2.393
68310W        W27571  44.265  41.934  11.410
68311W        W27572  34.499  16.588   1.891
68312W        W27573  15.785  37.995  14.495
68313W        W27574  23.152  23.129   0.949
68314W        W27575  27.991   1.305  13.512
68315W        W27576  28.953  39.891  11.593
68316W        W27577  40.503  14.195   4.637
68317W        W27578  14.232   9.650  14.019
68318W        W27579  38.463  32.009  13.502
68319W        W27580  21.512  30.623   2.220
68320W        W27581  11.718  15.104  13.012
68321W        W27582  31.411   0.900  10.596
68322W        W27583   7.751  13.843  13.919
68323W        W27584  31.088   4.257   1.325
68324W        W27585   1.291  19.671   1.252
68325W        W27586   4.442  40.819   4.234
68326W        W27587  28.443  37.013  13.382
68327W        W27588  32.496  19.206  12.071
68328W        W27589  29.468  29.586  12.377
68329W        W27590   9.366   3.914  14.810
68330W        W27591  13.835  18.546   0.892
68331W        W27592   2.872  17.676   2.224
68332W        W27593  10.357   9.801   4.699
68333W        W27594  44.867   5.314  14.025
68334W        W27595   9.351  16.637  12.910
68335W        W27596  23.036  12.631   0.964
68336W        W27597  18.572  16.217  11.608
68337W        W27598  13.250  11.847   4.117
68338W        W27599  30.924  21.144  13.362
68339W        W27600   1.871  25.043   2.250
68340W        W27601  14.629  23.192   0.952
68341W        W27602  30.653  20.537  14.509
68342W        W27603   0.395  40.542  11.995
68343W        W27604  44.971  11.745  12.860
68344W        W27605  20.754   9.672   4.113
68345W        W27606  21.530  44.281   2.836
68346W        W27607   8.829   3.823   1.710
68347W        W27608  13.815  41.296  12.901
68348W        W27609   9.745  32.455  13.373
68349W        W27610   2.765  44.383   0.950
68350W        W27611   1.365  27.192   1.328
68351W        W27612  21.617  13.824  13.880
68352W        W27613  23.022  36.859   0.248
68353W        W27614   3.419  44.481   0.466
68354W        W27615  33.113   0.880  12.079
68355W        W27616  21.655   1.323   4.764
68356W        W27617  21.607  32.422   3.193
68357W        W27618  33.915  11.148   1.249
68358W        W27619  44.890   8.171  12.836
68359W        W27620   3.846  43.973   4.792
68360W        W27621   8.330  30.098   4.803
68361W        W27622   7.279  12.618   4.767
68362W        W27623  16.672  25.631  14.958
68363W        W27624  20.540  26.634   0.309
68364W        W27625  20.220  42.432  10.627
68365W        W27626  33.503  16.600  13.531
68366W        W27627  19.607  22.035  10.442
68367W        W27628  42.511  16.776   3.383
68368W        W27629  37.862  10.707   1.413
68369W        W27630  13.188  35.000  14.334
68370W        W27631  42.427   6.713  14.897
68371W        W27632  31.528   3.420   3.324
68372W        W27633  34.517   3.895  12.089
68373W        W27634  29.549  23.239   3.765
68374W        W27635   7.255  31.071   4.301
68375W        W27636   6.720  40.888   1.778
68376W        W27637   7.753  16.147   4.205
68377W        W27638  35.888  39.857   0.777
68378W        W27639  43.986  16.594   5.565
68379W        W27640  16.300  36.939   1.931
68380W        W27641  24.589   3.400  14.955
68381W        W27642  33.917  25.595   2.685
68382W        W27643   2.307  42.405   2.723
68383W        W27644  11.674   6.338  14.935
68384W        W27645  36.065  11.297  11.108
68385W        W27646  40.943  28.561   4.144
68386W        W27647   1.458  18.767   2.883
68387W        W27648  38.389   8.394   4.313
68388W        W27649  10.341  16.789   1.235
68389W        W27650  30.062  33.945  12.943
68390W        W27651  29.466   7.740   1.700
68391W        W27652  32.501   6.259  10.938
68392W        W27653  41.007  29.131  12.387
68393W        W27654  23.556  18.703  10.069
68394W        W27655  18.064  38.345   0.347
68395W        W27656  26.173  40.395   0.927
68396W        W27657  23.687   9.261   4.182
68397W        W27658   6.272  15.705   0.383
68398W        W27659  23.650  34.016  14.284
68399W        W27660  36.548  26.490  10.945
68400W        W27661  40.800  29.090   4.173
68401W        W27662  13.654  17.263   3.170
68402W        W27663   1.846  27.615   3.864
68403W        W27664  34.056  22.657   0.793
68404W        W27665   6.907  28.518   2.768
68405W        W27666  30.519   6.814  13.005
68406W        W27667  15.593  17.093  14.895
68407W        W27668  22.621  24.577   2.869
68408W        W27669  44.792  10.670  11.446
68409W        W27670  37.472  30.518  13.428
68410W        W27671  13.643  35.371  12.996
68411W        W27672  17.714  21.152   0.939
68412W        W27673  23.214  28.447  11.603
68413W        W27674  43.003  26.058   9.505
68414W        W27675  31.460   2.281   3.639
68415W        W27676  40.044  19.248  14.920
68416W        W27677  23.062  37.989  12.957
68417W        W27678  20.541  33.418   2.268
68418W        W27679  11.130  28.079  12.488
68419W        W27680  11.212  27.657  12.953
68420W        W27681  23.680   0.902   4.241
68421W        W27682  37.932  28.078  13.499
68422W        W27683  41.343  40.959   4.748
68423W        W27684  39.048  21.576   9.929
68424W        W27685  15.728  44.849  10.893
68425W        W27686   6.693  44.346  11.379
68426W        W27687  18.701  10.811   2.216
68427W        W27688  40.889   3.252  12.391
68428W        W27689  42.350  21.608  12.546
68429W        W27690  41.907  28.126   9.446
68430W        W27691  25.187   7.884   1.774
68431W        W27692  19.717  36.396  13.020
68432W        W27693  15.717  13.780  12.421
68433W        W27694   4.726  33.391   3.292
68434W        W27695  18.558  33.588  14.955
68435W        W27696  26.046   6.700  12.990
68436W        W27697  37.905  10.166  11.498
68437W        W27698  30.432  29.614  10.589
68438W        W27699  34.490  43.820  14.498
68439W        W27700  20.664   8.213  13.017
68440W        W27701  18.616  40.506  10.474
68441W        W27702  43.317  15.812  13.407
68442W        W27703  41.854  23.117  13.888
68443W        W27704  15.778  39.961   2.707
68444W        W27705   5.703  18.660   1.890
68445W        W27706  20.687  36.375  11.902
68446W        W27707  29.520  23.984   2.356
68447W        W27708  26.529  29.107  12.457
68448W        W27709  35.008  24.071  11.898
68449W        W27710  17.689  14.206   4.321
68450W        W27711   9.372  35.415   3.348
68451W        W27712   6.814  12.169   1.329
68452W        W27713  19.657  37.449   5.199
68453W        W27714  17.693  41.961  14.485
68454W        W27715  33.525   9.773  13.798
68455W        W27716   2.372  35.543  10.467
68456W        W27717   9.155   9.822  13.504
68457W        W27718  29.567   4.742   2.406
68458W        W27719  25.176  18.215  14.305
68459W        W27720  19.623  29.513   9.659
68460W        W27721   6.823  34.570   2.261
68461W        W27722  29.525   0.438   4.647
68462W        W27723  41.488  24.613   3.862
68463W        W27724   4.424  30.142  12.505
68464W        W27725   1.246  20.213   1.343
68465W        W27726   3.778  23.628  14.316
68466W        W27727  26.538  40.450   0.257
68467W        W27728  41.473  42.321  12.082
68468W        W27729  39.965  34.427   0.864
68469W        W27730  19.236   4.750   1.771
68470W        W27731  40.937  11.188   2.218
68471W        W27732   8.777  28.470  11.514
68472W        W27733  31.477  31.911  11.494
68473W        W27734   3.849  14.150   2.840
68474W        W27735  33.965  23.582   1.846
68475W        W27736  32.892  21.019  10.610
68476W        W27737   3.880  39.009   0.766
68477W        W27738  40.886  44.350  13.964
68478W        W27739  43.447  27.663   2.406
68479W        W27740   2.305  14.267   2.259
68480W        W27741   5.318   0.366  11.444
68481W        W27742  19.601   3.930   2.351
68482W        W27743  25.599  38.916  10.471
68483W        W27744  31.422  24.183   0.255
68484W        W27745  33.912  16.119  12.579
68485W        W27746  13.242   2.730  10.896
68486W        W27747  34.884  18.595   0.796
68487W        W27748  15.639  41.908   1.770
68488W        W27749   6.382  33.613   4.743
68489W        W27750  17.734   5.698   2.236
68490W        W27751   9.239   8.807  14.958
68491W        W27752  23.665  24.201  13.001
68492W        W27753  44.993   0.838  11.974
68493W        W27754  10.311  23.627  14.838
68494W        W27755  24.138  16.220  13.798
68495W        W27756  24.566   4.707   4.189
68496W        W27757  30.095   2.401   0.444
68497W        W27758   2.407  29.923   3.360
68498W        W27759  11.260   7.178   1.873
68499W        W27760  36.547  25.095  13.360
68500W        W27761  43.983   6.318  10.893
68501W        W27762   8.856   2.898   0.917
68502W        W27763  13.115  37.951  14.302
68503W        W27764  30.438  18.247  12.925
68504W        W27765  28.465  26.069  10.443
68505W        W27766   8.666   3.245  12.030
68506W        W27767  27.529  39.513  12.010
68507W        W27768  29.155  14.785  12.529
68508W        W27769  22.552  17.605  14.931
68509W        W27770  16.704  43.954  14.762
68510W        W27771  19.566   3.928   3.808
68511W        W27772  42.482   1.283  12.005
68512W        W27773  39.961  19.701   0.270
68513W        W27774  37.558  37.555   9.921
68514W        W27775   4.807  18.758  11.051
68515W        W27776  10.228  16.132  10.574
68516W        W27777  28.475  26.683  10.092
68517W        W27778  19.608  18.193   1.236
68518W        W27779  39.945   0.359   3.332
68519W        W27780  37.983  31.574  11.121
68520W        W27781   6.413  19.277  10.489
68521W        W27782  25.665  44.494  10.033
68522W        W27783  29.518  13.242   0.896
68523W        W27784  20.058  16.181  13.013
68524W        W27785  37.435  27.448   3.840
68525W        W27786  10.680  11.682  12.359
68526W        W27787  18.599   0.938  12.563
68527W        W27788  37.568  14.298  10.975
68528W        W27789  35.526  28.953   3.310
68529W        W27790  23.237  10.824  13.435
68530W        W27791   5.782  18.108  10.550
68531W        W27792  27.182  22.048   1.234
68532W        W27793  40.949  23.008   4.674
68533W        W27794  22.608  10.169  12.073
68534W        W27795  22.620   3.247   4.739
68535W        W27796  20.268   5.933  10.066
68536W        W27797  44.807  14.828  11.923
68537W        W27798  16.639  34.568  11.118
68538W        W27799   7.223  33.887  13.449
68539W        W27800  43.966  44.873   2.732
68540W        W27801  27.039  28.058   0.269
68541W        W27802  11.199  41.340  13.857
68542W        W27803  11.848   3.387  10.566
68543W        W27804  20.221  35.910  10.598
68544W        W27805   7.346  37.937   1.870
68545W        W27806   9.297  44.291   5.295
68546W        W27807  23.005  21.756  10.582
68547W        W27808  33.898  17.615   2.368
68548W        W27809  22.199  36.940  13.416
68549W        W27810  22.173  39.404  13.534
68550W        W27811   6.851  43.386  10.933
68551W        W27812  28.966  31.571  10.101
68552W        W27813  22.644   6.772  12.435
68553W        W27814  42.318  42.967  11.585
68554W        W27815   8.790   2.766   3.646
68555W        W27816  27.497  44.383   1.339
68556W        W27817  21.629  41.973   3.175
68557W        W27818   5.921   0.327  10.451
68558W        W27819  32.597  22.737   1.244
68559W        W27820   2.232  33.049  13.427
68560W        W27821  42.806  11.345   0.871
68561W        W27822  44.790  22.229  11.099
68562W        W27823  38.348  39.956   4.682
68563W        W27824  21.173  43.966  14.922
68564W        W27825  44.980   5.318   1.893
68565W        W27826  28.581  44.399   4.264
68566W        W27827  13.198  43.423   4.820
68567W        W27828  12.358  16.807  10.625
68568W        W27829  18.096   7.307  11.471
68569W        W27830  38.886  42.382   0.890
68570W        W27831  28.607   4.854   0.392
68571W        W27832   4.812  33.601  14.797
68572W        W27833  41.371  26.587  14.960
68573W        W27834  35.051  44.876  10.604
68574W        W27835  32.539  17.648   4.828
68575W        W27836  38.048  12.701   1.276
68576W        W27837  32.042   7.280  13.938
68577W        W27838  41.502  23.500  14.332
68578W        W27839  22.086  25.533   4.325
68579W        W27840  33.121  40.899   4.729
68580W        W27841  29.008  33.111  12.990
68581W        W27842  42.302   7.297   3.167
68582W        W27843  13.821  24.056  13.976
68583W        W27844  42.011  14.288   2.251
68584W        W27845   5.793   3.876   1.424
68585W        W27846   8.195   1.292   0.824
68586W        W27847  32.135   6.865   3.273
68587W        W27848  27.032   0.487   9.459
68588W        W27849  34.479  21.096  11.083
68589W        W27850  22.713  19.628  12.016
68590W        W27851  10.247  11.244  11.076
68591W        W27852  19.194  28.546  13.395
68592W        W27853  20.587  16.691  10.520
68593W        W27854  27.970  35.039   2.727
68594W        W27855  44.395  10.367   4.282
68595W        W27856  12.669  37.858  14.886
68596W        W27857   9.366  30.086   4.658
68597W        W27858  11.843  42.329   4.267
68598W        W27859   4.229  17.171   0.328
68599W        W27860  28.647  39.829   0.821
68600W        W27861  12.775  44.313  12.417
68601W        W27862  15.786  40.472   1.401
68602W        W27863  19.541  21.552  13.444
68603W        W27864  32.570  26.458   0.916
68604W        W27865   3.799  22.500   0.855
68605W        W27866  30.021   1.403   4.146
68606W        W27867  36.946  33.036   4.226
68607W        W27868  44.503   6.318   2.900
68608W        W27869  20.161   1.295  11.111
68609W        W27870  25.506   2.435   9.442
68610W        W27871   4.878   8.849   4.297
68611W        W27872  18.268  12.611  13.812
68612W        W27873  14.609  25.179  12.565
68613W        W27874  39.954  36.590  14.505
68614W        W27875  43.949   7.209  14.510
68615W        W27876  31.125  20.115  13.441
68616W        W27877  39.014  36.973  12.855
68617W        W27878   1.397   9.307   0.394
68618W        W27879  42.808  44.465  13.919
68619W        W27880  44.756  36.416  12.510
68620W        W27881  10.234  43.301  11.058
68621W        W27882   0.433  35.391   2.739
68622W        W27883  43.442  10.700  11.006
68623W        W27884  17.634  19.238   0.931
68624W        W27885  27.604  25.173  12.990
68625W        W27886   2.374  23.622  10.619
68626W        W27887  35.585  29.951  10.963
68627W        W27888  22.543   7.417  14.879
68628W        W27889  16.161  44.440   3.709
68629W        W27890   1.292   3.218  10.973
68630W        W27891  24.641  23.561  11.075
68631W        W27892   4.441  40.321   3.710
68632W        W27893  30.575  34.477   1.341
68633W        W27894  11.725   9.310  13.430
68634W        W27895  32.117  29.061  13.817
68635W        W27896  17.272  30.536   1.703
68636W        W27897  26.023  35.587  13.983
68637W        W27898  20.584  15.658  11.911
68638W        W27899  42.378  21.147  14.390
68639W        W27900  42.854  29.161   3.275
68640W        W27901   8.186  17.088   1.303
68641W        W27902  11.175  42.800  14.923
68642W        W27903  31.097  11.145  14.830
68643W        W27904   6.274  34.441  11.865
68644W        W27905  30.624   8.170   4.263
68645W        W27906  33.088   5.408  11.930
68646W        W27907   3.806   2.773   3.196
68647W        W27908  42.024   0.452   4.125
68648W        W27909   3.817  30.102  14.019
68649W        W27910  28.017  37.884   4.338
68650W        W27911   9.356  31.946   4.204
68651W        W27912   5.822   6.793  12.954
68652W        W27913  23.146  40.380   0.346
68653W        W27914  40.339  14.127  13.833
68654W        W27915  16.122  28.026  14.358
68655W        W27916  33.579  18.213   0.388
68656W        W27917  15.632  26.174   5.232
68657W        W27918  32.956  28.061  12.972
68658W        W27919  35.967  41.523  13.060
68659W        W27920  20.749  17.610   3.658
68660W        W27921  34.530  43.487  10.605
68661W        W27922  18.269  39.440  12.089
68662W        W27923  21.214  25.026   0.869
68663W        W27924  29.926  22.143   1.717
68664W        W27925  41.983  33.516   3.236
68665W        W27926  34.606  13.293  10.900
68666W        W27927  29.481  19.726  10.426
68667W        W27928  26.972  37.493  10.045
68668W        W27929   6.912   9.647   4.178
68669W        W27930  42.888  40.944   2.700
68670W        W27931   1.282  10.242  12.857
68671W        W27932  30.097  33.077   0.765
68672W        W27933  33.029   0.947   1.736
68673W        W27934  33.618  22.225   3.653
68674W        W27935  23.612  21.184  13.385
68675W        W27936  30.580   1.273  14.304
68676W        W27937  22.042  11.349   2.306
68677W        W27938  19.215   0.348   4.331
68678W        W27939  31.013  17.115   3.370
68679W        W27940  21.148   2.352  14.006
68680W        W27941   4.348   6.835   4.265
68681W        W27942  29.480  37.456  14.847
68682W        W27943  36.075  44.384  13.528
68683W        W27944   2.928   1.361   3.830
68684W        W27945  19.041  30.923  14.451
68685W        W27946   5.319  22.247   2.273
68686W        W27947  22.146  35.435   2.749
68687W        W27948  24.158  44.380   4.180
68688W        W27949  44.258   2.350   2.237
68689W        W27950  30.053  19.745  14.956
68690W        W27951  20.214  21.185  13.332
68691W        W27952  16.286  20.608   2.228
68692W        W27953   5.731  26.165  13.889
68693W        W27954  33.553  38.980  10.566
68694W        W27955  33.511  22.666   1.876
68695W        W27956   5.257   2.739   3.797
68696W        W27957   1.964  11.671  13.460
68697W        W27958  20.239  11.700   0.314
68698W        W27959  36.359  35.478   4.795
68699W        W27960  19.122  19.249   0.828
68700W        W27961  34.053  16.138  11.106
68701W        W27962  10.859  41.819  11.418
68702W        W27963  40.335  11.756   0.327
68703W        W27964  17.767  27.134   3.828
68704W        W27965   6.798   4.779  12.522
68705W        W27966  36.484  15.108   3.826
68706W        W27967  15.185  15.711   1.885
68707W        W27968  20.704  13.201   2.312
68708W        W27969  17.646  42.347  10.971
68709W        W27970  13.251  10.680  14.462
68710W        W27971  12.702  12.249   4.683
68711W        W27972  44.800  34.608   2.414
68712W        W27973  33.456  22.062   3.366
68713W        W27974  43.421  34.579  13.807
68714W        W27975  35.452  27.461   1.723
68715W        W27976   3.305  32.069  12.541
68716W        W27977  21.660  25.190   0.824
68717W        W27978  34.902  36.907  13.478
68718W        W27979  13.329  11.743  14.919
68719W        W27980   3.861   1.305   0.389
68720W        W27981  24.722   8.284  12.002
68721W        W27982  30.513  19.720  14.028
68722W        W27983   1.824  40.799  10.600
68723W        W27984  32.999  32.438   3.728
68724W        W27985   1.241  15.303   4.303
68725W        W27986  15.805  18.086  12.079
68726W        W27987  38.823  13.178  12.865
68727W        W27988   3.935  29.047  14.336
68728W        W27989  30.540   0.476   2.198
68729W        W27990   3.760   7.701   3.214
68730W        W27991  36.447  18.618  14.890
68731W        W27992  43.976  28.970  12.887
68732W        W27993  19.040  23.235  10.515
68733W        W27994  32.612  32.613   1.437
68734W        W27995   4.909  35.584   4.814
68735W        W27996   2.946  26.641  11.392
68736W        W27997  13.283  23.620   0.896
68737W        W27998  24.199  20.608   3.363
68738W        W27999  21.562  16.628   0.291
68739W        W28000  17.236  40.410  10.995
68740W        W28001   9.693  18.568  12.510
68741W        W28002  25.473  39.388   0.809
68742W        W28003  15.704  12.281   2.314
68743W        W28004  34.563  33.017   4.228
68744W        W28005  22.219  32.396  13.987
68745W        W28006  25.151  18.660   3.271
68746W        W28007   5.270   1.846   1.893
68747W        W28008   8.723  19.713   4.691
68748W        W28009  24.704  27.596  12.522
68749W        W28010  12.212   6.407   0.266
68750W        W28011  23.200  14.191  14.913
68751W        W28012  41.927   6.744  14.365
68752W        W28013   6.375  17.244  12.876
68753W        W28014  17.786  15.656   2.738
68754W        W28015   7.298  38.552  11.862
68755W        W28016  21.756   4.320   3.171
68756W        W28017  31.517  24.121   4.246
68757W        W28018  42.918  40.334   1.790
68758W        W28019   6.853  22.165   1.735
68759W        W28020  32.518   0.845  11.600
68760W        W28021   5.242  44.463   1.705
68761W        W28022  40.818   2.834   4.350
68762W        W28023  25.164  24.553  10.609
68763W        W28024  31.150  22.102   3.859
68764W        W28025   0.889  11.143   2.297
68765W        W28026   9.333   1.921  14.994
68766W        W28027  20.533   6.296  14.994
68767W        W28028  43.983  38.360   2.811
68768W        W28029  19.632  24.554   1.269
68769W        W28030   5.331  11.371  12.898
68770W        W28031  23.532  11.344  10.912
68771W        W28032  37.495  39.969  11.000
68772W        W28033  23.722   4.444  11.561
68773W        W28034  34.383   6.311   0.277
68774W        W28035  30.001  22.524   2.256
68775W        W28036  37.338   5.752   2.663
68776W        W28037  30.977  18.275   0.866
68777W        W28038  12.362  43.986   3.164
68778W        W28039  22.612   2.769   3.650
68779W        W28040   8.828  17.754  14.002
68780W        W28041  37.059  26.026   1.266
68781W        W28042  44.488  35.989   3.859
68782W        W28043  15.678   0.354   9.957
68783W        W28044   7.908  34.553  14.858
68784W        W28045  24.621  41.516   2.281
68785W        W28046  27.672  38.489  11.500
68786W        W28047  16.733  29.629   1.434
68787W        W28048  42.901  13.208   0.299
68788W        W28049  39.810  40.048   3.833
68789W        W28050   5.212  17.636   3.808
68790W        W28051  28.950  10.709  14.799
68791W        W28052  41.457  32.494  14.341
68792W        W28053  21.681  40.478   2.692
68793W        W28054   6.771  15.249  13.847
68794W        W28055  32.401  31.595  13.413
68795W        W28056  33.450  33.911   3.163
68796W        W28057  36.846  20.252   1.828
68797W        W28058   9.311  34.370   1.825
68798W        W28059  36.981  41.329   1.229
68799W        W28060  20.596   1.886  11.909
68800W        W28061   1.342  33.464   0.297
68801W        W28062  44.756  15.196   4.261
68802W        W28063  16.752  10.255  14.414
68803W        W28064  36.512   9.816  11.505
68804W        W28065  37.562  32.141  11.961
68805W        W28066  38.501  14.192  14.281
68806W        W28067  34.520   3.720  11.495
68807W        W28068  28.620  25.472   0.246
68808W        W28069  17.258   0.340   2.239
68809W        W28070  15.182   9.259   0.259
68810W        W28071  40.351   0.446   1.223
68811W        W28072  10.294  13.287  10.933
68812W        W28073  15.290  24.531   5.198
68813W        W28074  29.034  32.923   1.359
68814W        W28075  18.055  14.679  12.390
68815W        W28076  23.669   7.735  14.884
68816W        W28077  17.669  32.393  12.507
68817W        W28078  25.095  13.659  11.586
68818W        W28079   9.265  25.156  12.491
68819W        W28080  34.925  19.042  12.038
68820W        W28081  17.188  24.545   1.364
68821W        W28082   9.295  11.800   0.797
68822W        W28083  42.437  38.522   0.729
68823W        W28084  10.167  23.121  13.534
68824W        W28085  37.863  41.921  10.531
68825W        W28086   1.874  32.001   0.252
68826W        W28087   0.342  24.142   3.203
68827W        W28088  14.132   8.746  13.535
68828W        W28089  24.527  37.068   2.282
68829W        W28090  43.768  39.946  14.347
68830W        W28091   4.400  31.513  12.533
68831W        W28092  22.096  22.567  14.972
68832W        W28093  25.600  13.771  11.482
68833W        W28094  40.881  34.445   2.218
68834W        W28095  14.243   7.262   3.671
68835W        W28096  23.675  14.134   3.709
68836W        W28097  25.016  13.108   4.158
68837W        W28098  32.523  12.290  11.560
68838W        W28099  12.754  19.126  10.614
68839W        W28100   8.326  44.778   0.925
68840W        W28101  15.226   1.741  13.881
68841W        W28102  12.151  13.648   4.237
68842W        W28103  31.135  24.580   1.811
68843W        W28104  32.566  30.924   4.138
68844W        W28105  23.604   2.423  14.485
68845W        W28106  44.282  27.552   5.120
68846W        W28107  19.714  13.745   2.251
68847W        W28108  23.022  32.982   1.365
68848W        W28109  16.693   2.933  12.541
68849W        W28110   5.716  39.332   1.714
68850W        W28111  25.708  36.979   3.170
68851W        W28112  19.695  29.599   2.880
68852W        W28113   8.239  22.013   4.767
68853W        W28114  28.674  31.493  11.480
68854W        W28115  12.849  23.656   0.895
68855W        W28116  41.525  20.099   0.962
68856W        W28117  15.139  26.033  12.922
68857W        W28118  39.855   4.280  10.606
68858W        W28119  42.018   9.838   2.382
68859W        W28120  22.107  39.061   0.393
68860W        W28121  10.333  22.647  12.978
68861W        W28122  23.112  23.115  14.351
68862W        W28123  20.573  15.688   3.792
68863W        W28124  15.812  20.171  12.039
68864W        W28125  35.557  40.438  12.434
68865W        W28126  20.201   8.319   9.577
68866W        W28127  11.866  12.782  12.423
68867W        W28128  26.056  15.742  14.417
68868W        W28129  11.289   7.699  12.392
68869W        W28130  25.984  33.479   1.738
68870W        W28131  16.752  24.149   0.792
68871W        W28132   9.159   1.424   2.352
68872W        W28133  35.451  12.124  14.319
68873W        W28134  41.423   1.266  14.329
68874W        W28135  27.455  13.825   2.683
68875W        W28136  24.080  17.736   2.314
68876W        W28137   9.349   3.807   0.918
68877W        W28138   2.860  34.493  14.811
68878W        W28139  22.093  35.852   2.279
68879W        W28140  24.201  38.565  12.356
68880W        W28141  18.619  15.315   2.695
68881W        W28142  15.250  34.084  13.834
68882W        W28143  11.810  25.987  13.331
68883W        W28144  31.928  38.532   4.616
68884W        W28145  22.630   6.325   4.284
68885W        W28146  38.384  44.333   3.848
68886W        W28147  35.017  43.470   1.927
68887W        W28148   4.809  26.539   1.347
68888W        W28149  14.258  33.568   0.327
68889W        W28150  44.815   3.846   0.405
68890W        W28151  15.226   0.772  14.401
68891W        W28152  34.536  31.027  11.119
68892W        W28153  18.163  18.192  10.563
68893W        W28154  41.487  14.319   0.397
68894W        W28155  17.717  33.480   0.813
68895W        W28156  23.062   2.749  11.504
68896W        W28157  19.139   9.325   5.174
68897W        W28158  43.457   1.736  11.459
68898W        W28159  22.532  23.984  12.996
68899W        W28160   8.199  34.533   0.358
68900W        W28161  29.104  19.762   5.173
68901W        W28162  21.596  25.580  14.896
68902W        W28163   8.192   8.820  14.888
68903W        W28164   4.375  41.788  10.906
68904W        W28165  40.852  32.560   2.196
68905W        W28166  14.208  24.612   1.387
68906W        W28167  41.421   3.226  11.858
68907W        W28168  37.997  16.268   1.808
68908W        W28169  43.961  11.811   2.728
68909W        W28170  28.437  16.725  12.438
68910W        W28171  12.647  32.552  12.978
68911W        W28172  18.710   9.830  12.545
68912W        W28173   1.962  28.166   4.349
68913W        W28174  34.027  37.350  13.022
68914W        W28175  38.935   6.342   1.872
68915W        W28176  20.195   5.418  13.332
68916W        W28177  35.852  28.668   0.325
68917W        W28178  33.003   1.772  13.518
68918W        W28179  28.581  24.980  12.478
68919W        W28180  40.472  24.104   4.800
68920W        W28181   8.840  35.576   3.818
68921W        W28182   9.184  25.086   4.664
68922W        W28183  44.866  17.785   1.772
68923W        W28184  21.563  24.713  14.769
68924W        W28185  43.446  31.153  12.972
68925W        W28186  39.887  27.059   3.795
68926W        W28187  11.738  37.488  13.371
68927W        W28188  17.684  12.787   2.391
68928W        W28189   7.672   3.411   4.293
68929W        W28190  43.822   4.225   4.747
68930W        W28191  20.537  37.518   4.652
68931W        W28192   6.874   3.249   0.928
68932W        W28193  11.645   7.685  12.899
68933W        W28194   7.800  21.601  11.410
68934W        W28195  34.588  16.163   0.901
68935W        W28196  11.341  43.315  14.916
68936W        W28197  22.505  25.025   3.841
68937W        W28198  34.373  13.231   0.376
68938W        W28199  27.473  37.031   3.639
68939W        W28200   7.876  12.288  12.967
68940W        W28201  11.320  14.300  10.598
68941W        W28202  32.103  38.333   3.246
68942W        W28203  27.986  35.536  13.430
68943W        W28204  19.569  40.910  11.955
68944W        W28205  20.121  15.636   4.181
68945W        W28206  11.807  15.135  12.027
68946W        W28207  21.154  31.133   1.292
68947W        W28208   2.785  39.405   2.723
68948W        W28209  10.326  41.441   0.745
68949W        W28210  11.169  11.353   2.250
68950W        W28211  21.235  20.574  14.024
68951W        W28212   4.369   0.423   1.918
68952W        W28213  39.894  36.864  13.056
68953W        W28214   9.876  27.075   3.209
68954W        W28215   2.785  18.609  14.408
68955W        W28216  43.011  43.507  13.417
68956W        W28217  16.100  17.184   0.791
68957W        W28218  16.665  42.929   4.612
68958W        W28219  16.721  43.446  12.397
68959W        W28220  12.226   0.757  11.598
68960W        W28221  41.870   1.240  14.800
68961W        W28222  26.013  20.247  10.509
68962W        W28223  21.120   2.920   3.381
68963W        W28224  11.146  39.534  11.423
68964W        W28225  19.648  20.633   2.255
68965W        W28226  36.426  24.037   5.099
68966W        W28227  27.514  37.945   2.772
68967W        W28228   6.344  12.797  11.101
68968W        W28229  40.493  29.574  11.902
68969W        W28230  27.624  36.544  12.044
68970W        W28231  20.064  35.886   2.843
68971W        W28232  15.327  28.069   3.663
68972W        W28233  37.916  39.960   2.191
68973W        W28234  39.842  32.918  10.967
68974W        W28235  36.547   0.962  11.099
68975W        W28236  20.664   6.273   3.217
68976W        W28237  40.960  31.932  11.973
68977W        W28238  36.413   2.791   4.313
68978W        W28239  17.570  22.608  10.426
68979W        W28240  39.063  23.178   4.712
68980W        W28241  29.448  14.699   2.321
68981W        W28242  29.466  40.878   1.900
68982W        W28243  30.083  16.113  13.834
68983W        W28244  18.276  13.787  12.089
68984W        W28245   4.371  19.684  13.917
68985W        W28246  39.893  38.022   1.859
68986W        W28247  18.621  19.711   0.922
68987W        W28248  13.116   7.255   4.636
68988W        W28249  10.813   4.788  13.920
68989W        W28250   5.910   9.207   2.761
68990W        W28251  13.605  22.219  11.044
68991W        W28252  14.778  17.566   1.400
68992W        W28253   2.366   6.292  11.021
68993W        W28254  27.593  14.128   0.391
68994W        W28255  30.021  24.576  14.902
68995W        W28256  22.567  20.155   4.699
68996W        W28257  16.720  39.917   4.637
68997W        W28258  38.060  37.039  14.840
68998W        W28259  35.397  19.182   1.355
68999W        W28260  42.934  37.019  12.864
69000W        W28261   4.329   5.324   0.810
69001W        W28262  37.356  24.028  14.278
69002W        W28263  17.139  26.475  11.956
69003W        W28264   3.923  24.030  11.066
69004W        W28265   8.311   4.392  12.530
69005W        W28266  17.618   4.386  13.926
69006W        W28267  27.984   0.423   4.127
69007W        W28268   9.662  32.941  14.967
69008W        W28269   8.160  30.500   3.335
69009W        W28270  25.580  41.987  11.030
69010W        W28271  10.336  43.890   1.295
69011W        W28272   4.800  37.920  13.052
69012W        W28273  37.914   0.271   3.347
69013W        W28274  11.690  14.170   0.842
69014W        W28275  16.719  16.801  11.125
69015W        W28276  38.458  34.020  14.772
69016W        W28277  10.296  35.013   3.736
69017W        W28278  23.080  42.830   2.742
69018W        W28279  35.452   7.760   0.281
69019W        W28280  25.486  41.511  13.826
69020W        W28281  22.737  24.705  10.930
69021W        W28282   7.686  34.591  13.941
69022W        W28283  34.870  18.215  11.937
69023W        W28284  30.594  35.880   3.299
69024W        W28285  34.893  33.123   2.900
69025W        W28286   0.410  36.097   1.287
69026W        W28287  10.776  29.493  11.551
69027W        W28288  10.317  44.276  12.538
69028W        W28289   2.806  21.580   0.873
69029W        W28290  28.028  37.580  11.096
69030W        W28291  13.280  13.257   3.721
69031W        W28292  25.170   2.739   4.701
69032W        W28293  14.787   8.265   2.763
69033W        W28294  21.169  39.875  11.999
69034W        W28295   8.711  39.464   1.228
69035W        W28296   9.278  16.090   2.227
69036W        W28297   4.892  20.205   3.821
69037W        W28298  28.042  18.614   1.799
69038W        W28299  18.057  38.359  14.905
69039W        W28300  21.757  37.010   0.842
69040W        W28301  19.738  39.341   0.733
69041W        W28302   7.680   0.977  10.115
69042W        W28303  31.153  38.994  12.511
69043W        W28304   8.203  13.841   4.198
69044W        W28305  34.097  36.572  14.021
69045W        W28306   3.766   8.219  10.496
69046W        W28307  44.998  32.632   0.296
69047W        W28308  27.659  31.015  11.472
69048W        W28309   1.827  15.653  14.961
69049W        W28310  23.504  31.404   0.341
69050W        W28311  28.595  15.128  14.865
69051W        W28312   8.888  24.543   4.771
69052W        W28313  12.196  37.026  12.544
69053W        W28314  31.407  26.114   1.777
69054W        W28315  35.035  21.198   1.299
69055W        W28316  40.925  30.537   0.305
69056W        W28317  13.258  13.219  10.538
69057W        W28318  33.568  39.536  10.561
69058W        W28319   3.298  35.547  11.113
69059W        W28320  44.775  20.124  14.433
69060W        W28321   5.820  29.550   1.296
69061W        W28322  25.686  44.370   0.293
69062W        W28323  18.548   0.950  14.298
69063W        W28324  42.424  29.942   3.680
69064W        W28325  19.237  36.484   4.762
69065W        W28326  31.547  10.316   0.353
69066W        W28327  41.790  31.581   4.137
69067W        W28328  20.248   4.915   1.345
69068W        W28329  14.133  16.181   3.842
69069W        W28330  42.960   0.887  11.942
69070W        W28331   7.727  21.210   0.826
69071W        W28332  36.580  32.142   1.389
69072W        W28333  36.896   4.821  12.858
69073W        W28334   5.218  12.763  11.423
69074W        W28335  11.170  25.707  11.952
69075W        W28336  42.330  35.030   1.218
69076W        W28337  31.445  38.016   2.804
69077W        W28338  11.332  43.903   2.366
69078W        W28339  20.236  30.143   9.945
69079W        W28340  40.850   9.307  11.404
69080W        W28341  33.062  33.874   2.361
69081W        W28342  42.024  14.231  14.994
69082W        W28343  27.514  22.567  14.402
69083W        W28344  20.046  44.262   3.860
69084W        W28345  38.500   8.809   2.331
69085W        W28346   6.295  39.457  10.957
69086W        W28347   5.866  25.629   1.430
69087W        W28348  32.409  43.390  11.083
69088W        W28349  10.823  23.674   1.822
69089W        W28350  39.828  20.759  14.397
69090W        W28351  21.733   8.271  13.062
69091W        W28352  37.906  42.331   2.758
69092W        W28353  15.705  12.336  11.048
69093W        W28354  32.574  29.476  11.597
69094W        W28355  30.441  40.862  14.316
69095W        W28356  23.044  42.911   3.176
69096W        W28357  37.550  25.569  13.058
69097W        W28358   9.671   5.806   1.723
69098W        W28359  20.686  25.967  14.275
69099W        W28360  14.817  21.564  12.437
69100W        W28361  37.467  43.018   1.304
69101W        W28362  31.541  39.993   0.440
69102W        W28363   9.842  25.999  11.113
69103W        W28364  10.152   6.808  11.992
69104W        W28365   9.740  18.257  10.940
69105W        W28366  41.018  12.118   1.890
69106W        W28367  17.613   4.427   3.686
69107W        W28368  35.037  12.318   0.918
69108W        W28369  29.578   9.753   0.458
69109W        W28370  40.384  37.928  10.907
69110W        W28371  37.356  14.203  14.855
69111W        W28372  31.601  17.700   2.669
69112W        W28373   5.385   5.222  13.988
69113W        W28374  36.573  10.193   3.158
69114W        W28375  38.024  39.060   4.201
69115W        W28376  34.051  29.437   3.299
69116W        W28377  42.972  40.007   0.442
69117W        W28378   1.360  15.092  11.400
69118W        W28379   6.417   2.310   4.286
69119W        W28380  40.375  35.548  12.931
69120W        W28381  43.920  16.100   4.304
69121W        W28382   7.846  38.369  11.869
69122W        W28383  38.951  15.170  11.955
69123W        W28384   1.851  20.548  12.421
69124W        W28385  33.433  43.011  12.550
69125W        W28386  32.119  25.543   2.352
69126W        W28387  25.671   9.371  11.389
69127W        W28388  36.583   2.914  12.039
69128W        W28389  43.313  44.930   0.354
69129W        W28390  24.112  20.219   3.226
69130W        W28391  38.516  36.564  12.516
69131W        W28392  32.138  20.698  13.916
69132W        W28393  24.580  36.890  10.949
69133W        W28394  32.567  18.217   1.307
69134W        W28395   8.730  15.718  12.476
69135W        W28396  35.931  28.132  13.960
69136W        W28397  12.206  40.974   4.283
69137W        W28398  12.250  25.078   1.765
69138W        W28399  29.666  37.054   4.115
69139W        W28400  44.889   4.864  12.085
69140W        W28401  31.954  39.319  10.923
69141W        W28402   3.867  26.021  13.395
69142W        W28403  37.011   1.824  14.797
69143W        W28404  36.387  41.391  11.499
69144W        W28405  26.533  40.489   1.875
69145W        W28406  33.944   0.453   4.143
69146W        W28407   7.242  24.600   3.640
69147W        W28408  11.784  22.742  12.991
69148W        W28409  13.250  14.812   3.167
69149W        W28410  33.998   2.842  13.395
69150W        W28411  38.429  25.104   5.748
69151W        W28412  42.801   2.379   1.397
69152W        W28413   7.731  20.550   2.263
69153W        W28414  14.117  39.464  12.987
69154W        W28415  24.711  13.827  13.335
69155W        W28416  26.105  16.185   0.794
69156W        W28417   6.427  36.404  13.534
69157W        W28418   3.758   2.797  11.010
69158W        W28419  28.956   7.852   2.233
69159W        W28420  28.588   3.222   2.299
69160W        W28421   3.378  35.991  14.321
69161W        W28422  11.843  30.644   2.263
69162W        W28423  42.925  23.159   4.176
69163W        W28424  14.754  39.973   1.320
69164W        W28425   5.718  26.560   0.915
69165W        W28426  15.700   1.944  13.476
69166W        W28427  13.602   9.386  13.884
69167W        W28428  12.618   5.771  12.525
69168W        W28429  12.146  33.901   0.740
69169W        W28430  22.721  12.311   4.236
69170W        W28431  19.283  25.067   4.692
69171W        W28432  35.978  29.566  12.081
69172W        W28433  13.776  20.719   1.734
69173W        W28434  44.994  33.446   0.468
69174W        W28435  16.173   0.428  11.425
69175W        W28436  33.960   7.257   3.706
69176W        W28437  26.578  41.953   0.369
69177W        W28438  29.576  37.959   4.230
69178W        W28439   0.295  15.138   0.900
69179W        W28440   9.766  31.098   0.423
69180W        W28441   1.479  33.467  11.072
69181W        W28442  13.842  10.723  13.989
69182W        W28443  31.462  25.511   2.290
69183W        W28444  44.485  14.731   0.409
69184W        W28445  43.767  25.041  11.609
69185W        W28446   2.745  26.697  12.376
69186W        W28447  10.773  12.144   3.769
69187W        W28448  34.922  22.703  14.336
69188W        W28449  35.864   2.878   2.364
69189W        W28450  29.092   0.941  13.511
69190W        W28451  33.553  28.095   3.156
69191W        W28452  14.766  12.297   3.843
69192W        W28453  17.658  17.257  14.029
69193W        W28454  23.540  36.347  14.296
69194W        W28455  40.521   5.733   2.311
69195W        W28456  35.400  37.551  12.407
69196W        W28457  12.825  13.271  14.942
69197W        W28458  44.472  43.842   1.323
69198W        W28459   7.790   2.316   1.898
69199W        W28460  24.623  31.459  13.048
69200W        W28461  36.095  19.762  12.413
69201W        W28462  26.981  17.281   2.313
69202W        W28463   6.800  39.032  12.832
69203W        W28464   9.697  24.177  12.437
69204W        W28465  33.388   6.837   1.917
69205W        W28466  13.125  35.016  13.371
69206W        W28467  37.410  30.943   3.849
69207W        W28468  23.040  31.933  10.579
69208W        W28469  21.692  18.165   3.270
69209W        W28470  16.301  44.309  13.988
69210W        W28471   3.834  16.157   4.311
69211W        W28472  20.247  23.635  11.122
69212W        W28473  29.109  12.309   0.432
69213W        W28474  23.119  19.568  10.047
69214W        W28475  40.383  43.404  13.424
69215W        W28476  31.563  14.682   1.241
69216W        W28477  28.080  41.448   5.237
69217W        W28478   0.447  29.471  10.624
69218W        W28479  31.990  16.124  11.498
69219W        W28480  35.087  20.761   3.379
69220W        W28481  21.558  37.971  12.525
69221W        W28482  12.679  16.705   3.184
69222W        W28483  17.718  37.529   4.837
69223W        W28484  43.513  17.182   0.330
69224W        W28485  20.209  29.125   0.333
69225W        W28486  13.337  21.182   0.846
69226W        W28487  12.709  17.727   0.918
69227W        W28488  42.825  28.135  14.306
69228W        W28489  39.037  43.968  12.026
69229W        W28490  44.362  35.506   4.752
69230W        W28491  30.123  39.051   2.187
69231W        W28492  41.300  13.780  13.966
69232W        W28493  38.526  44.910   1.891
69233W        W28494   8.731  37.413   3.189
69234W        W28495  42.847  12.330   3.227
69235W        W28496  41.020  15.120   3.307
69236W        W28497   2.901  44.496  13.353
69237W        W28498  41.309  41.500  14.368
69238W        W28499  13.648  37.465  12.437
69239W        W28500  42.355  35.543   2.336
69240W        W28501  44.924  26.593   4.281
69241W        W28502  21.565  12.343  10.904
69242W        W28503  28.996  36.978  10.930
69243W        W28504  11.175   5.317   3.286
69244W        W28505   6.887  28.070   4.655
69245W        W28506  24.116  40.512  13.898
69246W        W28507   5.405  40.927   3.674
69247W        W28508  28.046  36.496   4.721
69248W        W28509  43.868  34.550   3.667
69249W        W28510  34.383  24.532  14.442
69250W        W28511   9.869  13.251   2.769
69251W        W28512   5.687  19.569  14.921
69252W        W28513  15.633  39.956  11.097
69253W        W28514  13.802  14.620   0.886
69254W        W28515  39.946  10.364  13.372
69255W        W28516  12.280  35.880   3.723
69256W        W28517   9.885   8.232  11.860
69257W        W28518  28.137  13.744   1.853
69258W        W28519  24.202  44.858   1.264
69259W        W28520   1.883  37.466   2.309
69260W        W28521  22.602  19.148   9.936
69261W        W28522  26.639  35.500  11.859
69262W        W28523  41.325   9.785  12.929
69263W        W28524   1.286  37.506   3.793
69264W        W28525  31.449   7.692  13.486
69265W        W28526  21.117  17.296   0.424
69266W        W28527   0.428  27.177   1.749
69267W        W28528  41.973  35.000  13.325
69268W        W28529   2.928  32.133  12.048
69269W        W28530  18.186  31.148  13.398
69270W        W28531  28.137  12.720   1.720
69271W        W28532  35.897  41.517   2.806
69272W        W28533  15.212   2.440  14.515
69273W        W28534  17.213  17.245  13.367
69274W        W28535  25.533  35.570   3.717
69275W        W28536  16.318  41.521   0.783
69276W        W28537  28.102   4.382   3.379
69277W        W28538   2.450  24.190   2.737
69278W        W28539  33.546  39.813  13.950
69279W        W28540  38.513  25.214   1.814
69280W        W28541  37.858  42.374  12.848
69281W        W28542  41.465  38.489   0.464
69282W        W28543   5.257  40.418   3.698
69283W        W28544  39.331  17.585   2.769
69284W        W28545   0.350  35.973   4.676
69285W        W28546  30.522  17.064  11.415
69286W        W28547   6.307  33.987   2.776
69287W        W28548  26.611  14.705   1.828
69288W        W28549   0.289  25.565  10.590
69289W        W28550  27.972  27.962  10.127
69290W        W28551  30.015  22.182   3.149
69291W        W28552  23.576  38.394  14.779
69292W        W28553  41.793   9.837  12.504
69293W        W28554  32.022  13.666   1.269
69294W        W28555  39.819  22.598  14.482
69295W        W28556   3.823  15.687  10.985
69296W        W28557   1.482   3.724   2.308
69297W        W28558  11.779  22.166  13.396
69298W        W28559  29.927  33.027   4.182
69299W        W28560  16.089  43.386   4.793
69300W        W28561  11.640  21.655   3.738
69301W        W28562  24.561  32.569  11.107
69302W        W28563   0.290  34.446   1.772
69303W        W28564  20.526   3.729   2.257
69304W        W28565  36.957  34.593   2.188
69305W        W28566   8.838   1.402   2.277
69306W        W28567   0.465  30.631  14.951
69307W        W28568  11.253  32.482   4.233
69308W        W28569  37.926   3.280  13.951
69309W        W28570  33.428  35.446   3.147
69310W        W28571   6.849  33.540  11.016
69311W        W28572  37.523  30.617  11.420
69312W        W28573  31.974  24.983  12.924
69313W        W28574  24.543  40.003  12.496
69314W        W28575  29.929  10.687  10.644
69315W        W28576  31.950  18.208   4.116
69316W        W28577  19.737  31.995   3.194
69317W        W28578   8.669  39.338   3.228
69318W        W28579  34.591  17.644  13.928
69319W        W28580  30.633  42.435   4.677
69320W        W28581   5.347  19.094   3.236
69321W        W28582   8.376  11.863  13.875
69322W        W28583  28.087   4.342   2.666
69323W        W28584  40.398  24.579  11.598
69324W        W28585   7.280  42.311  10.939
69325W        W28586  29.550   0.795   0.823
69326W        W28587   2.879   6.863   1.784
69327W        W28588  20.058  23.172  13.998
69328W        W28589  16.274   3.425  11.446
69329W        W28590  44.809  30.061  12.508
69330W        W28591  24.142  12.828   5.255
69331W        W28592  30.589  38.344   0.448
69332W        W28593  20.227  16.239   2.675
69333W        W28594   9.170  23.159   2.850
69334W        W28595   2.355  16.586  11.920
69335W        W28596   3.901  15.141  13.500
69336W        W28597  25.591  15.781   1.792
69337W        W28598  27.087  25.171   1.743
69338W        W28599  38.328  27.532  14.973
69339W        W28600   3.903  36.877   4.337
69340W        W28601   1.403  38.396   3.375
69341W        W28602  25.081  41.319   3.344
69342W        W28603  21.183  17.747   0.901
69343W        W28604  29.994  34.589   2.197
69344W        W28605  23.136   4.357   1.312
69345W        W28606  23.148  26.183  12.531
69346W        W28607  15.253  17.221  14.007
69347W        W28608  32.938  22.097  13.380
69348W        W28609  10.857  44.949  14.872
69349W        W28610  38.347  21.190   1.355
69350W        W28611   9.185  29.047   0.410
69351W        W28612   0.381  20.231  12.089
69352W        W28613   5.193  29.479   4.835
69353W        W28614   8.773  41.334   2.394
69354W        W28615   5.316  25.506  14.319
69355W        W28616   8.384  38.494  10.511
69356W        W28617   4.222   9.213   2.833
69357W        W28618  38.552  13.123  13.993
69358W        W28619   7.858  41.003  12.472
69359W        W28620  23.664  28.440  14.889
69360W        W28621  24.004  26.577   3.314
69361W        W28622  23.703   1.920   1.258
69362W        W28623  37.971  34.932  11.401
69363W        W28624   5.431  31.083   2.731
69364W        W28625   8.176  26.025  13.407
69365W        W28626  40.320  43.316   1.221
69366W        W28627  12.642  42.317   0.785
69367W        W28628  25.052  27.988   0.802
69368W        W28629  34.923  28.459  13.031
69369W        W28630   9.244   8.866   1.927
69370W        W28631   9.857  22.228  12.091
69371W        W28632   3.922  15.721  11.879
69372W        W28633  41.922  33.980  10.636
69373W        W28634   3.316   3.228  10.149
69374W        W28635  39.331  30.536  11.048
69375W        W28636  39.517  15.315   2.792
69376W        W28637  38.975  21.617  10.415
69377W        W28638  15.289  38.494   0.910
69378W        W28639   1.367  14.809  13.844
69379W        W28640  27.156  35.016   2.350
69380W        W28641   5.845  18.231  11.404
69381W        W28642  37.958  27.474   1.426
69382W        W28643  26.698  11.133   3.369
69383W        W28644  16.293  31.413   3.735
69384W        W28645   8.294   2.331   1.933
69385W        W28646  32.088  39.012  13.439
69386W        W28647  13.244  27.052  10.042
69387W        W28648  38.401  43.781  11.993
69388W        W28649   1.432  11.328  11.043
69389W        W28650  29.564  35.991  12.394
69390W        W28651  20.244  19.695   9.974
69391W        W28652  14.809  42.934   0.875
69392W        W28653  31.089  18.057  10.975
69393W        W28654  20.043  24.612  10.893
69394W        W28655  34.930  22.590  10.505
69395W        W28656  33.067  36.025  10.898
69396W        W28657   4.764   7.893  14.343
69397W        W28658  17.211  25.014  11.102
69398W        W28659   7.390  23.033  12.846
69399W        W28660  15.675   3.841   2.822
69400W        W28661  37.483  27.999  12.994
69401W        W28662  40.544  38.896   4.813
69402W        W28663  38.830  38.448   4.301
69403W        W28664   7.812  38.028  11.921
69404W        W28665  35.425  23.596  11.611
69405W        W28666  25.682  25.034  14.397
69406W        W28667  19.698  33.493  10.411
69407W        W28668  18.110  42.920  14.382
69408W        W28669  24.561  15.820  14.993
69409W        W28670  32.499  26.677  10.430
69410W        W28671   8.794   8.357  12.409
69411W        W28672   7.346   5.759  12.057
69412W        W28673  39.940   3.848  11.081
69413W        W28674  23.724  14.320   3.191
69414W        W28675  17.168  25.201   3.163
69415W        W28676   3.440  24.056  11.878
69416W        W28677  14.685   6.697   3.868
69417W        W28678   7.895  30.619  12.457
69418W        W28679  30.418  18.201  10.979
69419W        W28680  28.150  42.952  12.038
69420W        W28681  35.043  29.442   3.708
69421W        W28682  28.445  22.561   3.674
69422W        W28683  34.576  11.162  12.086
69423W        W28684  39.885   3.324   0.834
69424W        W28685  43.977   3.710   4.700
69425W        W28686  42.818  11.133  13.953
69426W        W28687   0.778  34.394  14.281
69427W        W28688  14.679  28.095  11.464
69428W        W28689  35.588  20.760  12.556
69429W        W28690  21.222   8.808   4.716
69430W        W28691  28.464  27.543  14.432
69431W        W28692   6.778   8.667  12.505
69432W        W28693   5.350   6.348   9.628
69433W        W28694  14.225  39.538   0.458
69434W        W28695  37.949  34.594   3.785
69435W        W28696  29.549  23.170  13.950
69436W        W28697   0.806   6.255  12.446
69437W        W28698  40.020   8.344   1.872
69438W        W28699  13.731  18.699  11.055
69439W        W28700  40.954   6.703  14.771
69440W        W28701   9.701  37.063   3.736
69441W        W28702  15.731  12.145   4.276
69442W        W28703  42.827  26.614   3.715
69443W        W28704   0.335  37.576  12.824
69444W        W28705  23.049  40.322   3.351
69445W        W28706  10.307   0.402   3.318
69446W        W28707  32.577  24.691   0.251
69447W        W28708  15.120  42.992   4.192
69448W        W28709   1.297  44.811   1.777
69449W        W28710  38.040  32.032  13.372
69450W        W28711   9.290   0.959   1.255
69451W        W28712   9.837  32.540   3.199
69452W        W28713  30.617  40.808   1.445
69453W        W28714  20.713  34.928   4.322
69454W        W28715  34.902  15.713   4.786
69455W        W28716  14.779  19.133   0.446
69456W        W28717  31.896  11.373   1.848
69457W        W28718  34.460  13.733  14.285
69458W        W28719  26.520  23.235   2.770
69459W        W28720  15.696   3.852  12.502
69460W        W28721  22.015  34.593   3.258
69461W        W28722   7.826  29.171   2.711
69462W        W28723  10.379   8.889   3.249
69463W        W28724  39.494   1.968  12.443
69464W        W28725  30.070  30.433  14.004
69465W        W28726  28.443  14.226   1.334
69466W        W28727  15.734   4.430   9.945
69467W        W28728  25.582  40.802  11.468
69468W        W28729   4.265   6.727   3.206
69469W        W28730  20.624  41.942  13.869
69470W        W28731  16.765  27.524  12.906
69471W        W28732  42.791  14.326  12.998
69472W        W28733  35.365   9.816   2.766
69473W        W28734  34.017  34.540  14.986
69474W        W28735  40.830  31.055   2.405
69475W        W28736  44.989  13.680   1.303
69476W        W28737  25.065   6.389  10.970
69477W        W28738   6.698  30.995  14.396
69478W        W28739  27.973  17.766  13.341
69479W        W28740  39.465  33.020   9.460
69480W        W28741  44.474  32.118   0.957
69481W        W28742  36.038  19.664  11.476
69482W        W28743   9.375  11.750  11.548
69483W        W28744  26.608  36.918   4.192
69484W        W28745  40.477  10.221  13.058
69485W        W28746  34.058  18.594  11.474
69486W        W28747  10.756   3.807  13.464
69487W        W28748  38.400  25.629   3.802
69488W        W28749  41.385   7.412   2.810
69489W        W28750   5.272  40.887  12.915
69490W        W28751  19.726  41.927   1.891
69491W        W28752   3.787   6.306   2.348
69492W        W28753  32.454  40.548  11.424
69493W        W28754  33.394  15.234  14.460
69494W        W28755  34.420  32.558  13.807
69495W        W28756   0.399  10.300   1.221
69496W        W28757  38.045   0.441  11.464
69497W        W28758  20.684  23.601   5.104
69498W        W28759  35.855   5.207   1.851
69499W        W28760   7.698   5.209  14.931
69500W        W28761  33.605  36.982  14.357
69501W        W28762  34.898  32.407  10.937
69502W        W28763  19.170  11.161   4.638
69503W        W28764  40.314  26.071   2.358
69504W        W28765  42.822  44.858  10.477
69505W        W28766   4.767  14.728   4.266
69506W        W28767  11.361  16.082  12.855
69507W        W28768   9.782   7.678  14.338
69508W        W28769  13.220   8.722  13.886
69509W        W28770  26.508  17.645   1.224
69510W        W28771  20.652   1.293  12.037
69511W        W28772  11.846  15.083  14.788
69512W        W28773  27.975  25.087  13.808
69513W        W28774   1.404  39.419   1.249
69514W        W28775  12.799   5.438   4.185
69515W        W28776  25.689  21.648   2.896
69516W        W28777  12.731  18.206   3.328
69517W        W28778   8.790  14.765   4.150
69518W        W28779  25.664  31.590   1.358
69519W        W28780  43.879  28.616  13.517
69520W        W28781  27.652  28.515  14.925
69521W        W28782  35.502  36.480   0.356
69522W        W28783   1.410  29.481   2.311
69523W        W28784  12.203   7.329   1.901
69524W        W28785  24.511   8.186   2.800
69525W        W28786  11.646   0.852   5.265
69526W        W28787  16.126  24.500   3.339
69527W        W28788  27.498  40.436   2.241
69528W        W28789  38.951  11.190   3.381
69529W        W28790  15.149  40.492  12.384
69530W        W28791  10.179   4.428  14.382
69531W        W28792   0.979  32.602   0.313
69532W        W28793  33.879  28.469   1.800
69533W        W28794   0.801   8.364  12.486
69534W        W28795  38.042  37.845   3.224
69535W        W28796  39.970   6.219  13.529
69536W        W28797   2.907  16.727   3.737
69537W        W28798  32.083  25.005  13.893
69538W        W28799  22.193  10.788  13.415
69539W        W28800  20.061  31.510  14.437
69540W        W28801  21.232  39.890  11.594
69541W        W28802  41.306  22.639  10.611
69542W        W28803   9.360  37.398  13.320
69543W        W28804  32.450  31.952  12.957
69544W        W28805   6.306  32.493  13.361
69545W        W28806  25.499  25.063   3.156
69546W        W28807  35.545  29.124   0.393
69547W        W28808  44.360  26.068   2.804
69548W        W28809  37.883   6.801  12.955
69549W        W28810  25.656  32.928   2.361
69550W        W28811   1.805   4.267  11.394
69551W        W28812  43.932  40.826  13.912
69552W        W28813   8.673   1.803   3.236
69553W        W28814  41.036   4.847  14.412
69554W        W28815  11.246  21.084  14.010
69555W        W28816   8.164  19.716  10.918
69556W        W28817  16.086  30.065  13.883
69557W        W28818  25.054  38.558   3.648
69558W        W28819  18.684  21.055   0.898
69559W        W28820   7.228  27.667   1.210
69560W        W28821  29.564  16.281  11.080
69561W        W28822  43.928  12.778   1.324
69562W        W28823   1.430  38.954   1.772
69563W        W28824  32.975  20.220  12.526
69564W        W28825   0.294  41.872   3.220
69565W        W28826  14.311  11.797  13.803
69566W        W28827   4.804  12.194  10.591
69567W        W28828  43.481   0.345   1.863
69568W        W28829  15.634  37.047  10.931
69569W        W28830   5.855  38.380  10.946
69570W        W28831  34.920  44.777  14.463
69571W        W28832  13.262  15.281  10.421
69572W        W28833  32.589  13.765  10.931
69573W        W28834   8.377  17.140  12.940
69574W        W28835   0.458  42.382  14.499
69575W        W28836  41.471  39.998   3.145
69576W        W28837  17.723   8.721   4.304
69577W        W28838   4.317  36.969  14.344
69578W        W28839   1.815  15.720   4.666
69579W        W28840  24.052  19.712   2.331
69580W        W28841  32.017  35.401   3.805
69581W        W28842  24.159  14.191   3.175
69582W        W28843  42.500  44.451  14.428
69583W        W28844  12.297  43.871  11.398
69584W        W28845  14.224   1.311  12.928
69585W        W28846  20.113  33.390   4.752
69586W        W28847  32.560  41.413  13.356
69587W        W28848  38.327   7.801  13.932
69588W        W28849  13.244  44.283  12.347
69589W        W28850  34.425  10.146  13.465
69590W        W28851  28.059  11.833   1.351
69591W        W28852  15.668  36.465  13.523
69592W        W28853  20.713   8.666  11.501
69593W        W28854   8.346   7.177   4.231
69594W        W28855   1.333  34.542   2.845
69595W        W28856  21.045  16.625   9.951
69596W        W28857  38.385  38.376  11.559
69597W        W28858   4.748  42.940   4.732
69598W        W28859  10.254   7.303  12.438
69599W        W28860   2.741  40.421  11.381
69600W        W28861  14.180  26.623   1.778
69601W        W28862  17.062  34.018  11.460
69602W        W28863  39.355  38.464   0.738
69603W        W28864  17.215  30.468   0.730
69604W        W28865  18.544  25.106  12.010
69605W        W28866   9.236  43.383  10.921
69606W        W28867  41.016  33.485   2.347
69607W        W28868   4.849  14.711  12.420
69608W        W28869  40.884   0.964   1.826
69609W        W28870  16.173   6.749  13.056
69610W        W28871  12.288   0.350   0.320
69611W        W28872  39.450  27.549   0.741
69612W        W28873  28.116  10.268   1.849
69613W        W28874  43.997  16.631  12.968
69614W        W28875  22.170  41.820  12.354
69615W        W28876   4.937   2.817  11.504
69616W        W28877   3.337  21.595  14.469
69617W        W28878  33.120  11.168   3.204
69618W        W28879   5.358  22.045  12.558
69619W        W28880   9.883  34.505  14.359
69620W        W28881  44.396  31.094  11.611
69621W        W28882  11.330  12.678   1.386
69622W        W28883  42.459  15.169  12.037
69623W        W28884   7.854  21.699   1.381
69624W        W28885  28.440  16.200  13.950
69625W        W28886  17.163  40.398  13.360
69626W        W28887  33.013  17.268   4.802
69627W        W28888  43.313  22.536   3.634
69628W        W28889  26.640   8.756   3.847
69629W        W28890   1.356   1.372   4.187
69630W        W28891  17.107   8.787  13.913
69631W        W28892  41.387  15.788  13.797
69632W        W28893   0.931  20.159  12.533
69633W        W28894  38.878  34.920  11.612
69634W        W28895   2.801  37.944   2.199
69635W        W28896  27.014  13.200   3.726
69636W        W28897  37.360  30.968   4.736
69637W        W28898  24.531   2.234  14.419
69638W        W28899   3.430   0.467  14.995
69639W        W28900  41.392   7.800  13.465
69640W        W28901  34.392  23.058  12.908
69641W        W28902  11.128  39.810   2.696
69642W        W28903  36.041  17.687   3.718
69643W        W28904  19.190  34.536  11.969
69644W        W28905  21.216  38.936   0.320
69645W        W28906  22.655  23.710  12.541
69646W        W28907  11.734  42.801   1.427
69647W        W28908   1.935  19.042   3.296
69648W        W28909  34.557  37.545   2.308
69649W        W28910   5.788  23.091  14.451
69650W        W28911  34.416   5.226   2.776
69651W        W28912  18.598   3.930  12.475
69652W        W28913  12.635  13.843  11.501
69653W        W28914   0.977  10.760  14.417
69654W        W28915  33.394   5.253  10.549
69655W        W28916  34.444   1.881   4.700
69656W        W28917   0.898  16.627   2.674
69657W        W28918  44.009  18.744   2.361
69658W        W28919  10.800  20.240   1.721
69659W        W28920  37.853  31.510   3.348
69660W        W28921  36.436   2.854   2.815
69661W        W28922  34.458   5.254  13.037
69662W        W28923  15.238   4.880  13.440
69663W        W28924  36.529  21.165  14.506
69664W        W28925  13.307  11.249   4.328
69665W        W28926  13.111  35.438  10.532
69666W        W28927   8.276  44.367  14.499
69667W        W28928   7.401  14.177   2.207
69668W        W28929   5.203  32.130  13.998
69669W        W28930  26.601  43.474   1.886
69670W        W28931  21.525  43.511  14.495
69671W        W28932  21.122  25.565  10.423
69672W        W28933  10.852   2.293   3.799
69673W        W28934   7.303   2.365   1.270
69674W        W28935   7.366   7.693  10.927
69675W        W28936   9.716  22.147  13.328
69676W        W28937  28.022  43.769  11.374
69677W        W28938  37.017  31.566   4.711
69678W        W28939  40.921   5.242   2.197
69679W        W28940  15.226  35.457  12.457
69680W        W28941   8.247  22.601  13.938
69681W        W28942  28.678  20.703  14.856
69682W        W28943   4.239  40.884   3.176
69683W        W28944  23.495  38.042   4.759
69684W        W28945   8.310  28.936   0.322
69685W        W28946  37.834  21.586   4.625
69686W        W28947  26.566  29.100   9.566
69687W        W28948   1.745  37.889   1.918
69688W        W28949   8.181  28.072   0.838
69689W        W28950  28.541   6.230  14.780
69690W        W28951   7.667  40.354  11.392
69691W        W28952  39.503  37.529  12.859
69692W        W28953  38.988  37.070  13.884
69693W        W28954   6.315   5.734   3.645
69694W        W28955  15.209  30.040  12.445
69695W        W28956   3.409  30.614  13.540
69696W        W28957   8.699   8.298   3.372
69697W        W28958  23.610  28.161   2.279
69698W        W28959  11.782   1.776   4.210
69699W        W28960  27.036   5.772   0.941
69700W        W28961  22.073  43.770  12.436
69701W        W28962  34.961  11.789  10.432
69702W        W28963  31.909  43.908  13.038
69703W        W28964  18.213  38.346   2.218
69704W        W28965  11.322  27.675  11.499
69705W        W28966   6.721   5.304   0.302
69706W        W28967  26.624  32.447   5.694
69707W        W28968  24.139  32.480  11.477
69708W        W28969  10.153  32.891  11.935
69709W        W28970   2.292  37.432   5.279
69710W        W28971  41.450  32.601  11.407
69711W        W28972  41.941  30.627   3.667
69712W        W28973  38.846   0.935   2.379
69713W        W28974  30.548  14.262   1.406
69714W        W28975  35.904  10.687   2.871
69715W        W28976   9.181  15.240   1.811
69716W        W28977  32.482   4.829   0.267
69717W        W28978  44.909   3.835   1.378
69718W        W28979  37.518  27.193  10.102
69719W        W28980  22.028  27.663   3.243
69720W        W28981  15.732   7.667   2.837
69721W        W28982  34.503  23.689  13.493
69722W        W28983   9.744   5.878   3.709
69723W        W28984  34.543   3.893  11.021
69724W        W28985  33.881  26.096  11.056
69725W        W28986  18.149   7.318  11.922
69726W        W28987   7.841  41.332  14.845
69727W        W28988  25.680  15.300  12.577
69728W        W28989  23.592  12.266   1.864
69729W        W28990   0.300  31.013   1.263
69730W        W28991  25.596  16.716   2.281
69731W        W28992   6.273   3.385   5.176
69732W        W28993   1.255  25.038   1.419
69733W        W28994  35.565  34.594  13.383
69734W        W28995  44.766  13.786   0.891
69735W        W28996   6.878  23.170  13.972
69736W        W28997  13.337  32.987  13.023
69737W        W28998  26.574  28.473  12.503
69738W        W28999  42.411  16.095  14.444
69739W        W29000  29.020  17.570   4.734
69740W        W29001  37.968   2.470   3.334
69741W        W29002  22.502   9.767  11.100
69742W        W29003  19.261   5.377   1.918
69743W        W29004  31.642  36.867  12.088
69744W        W29005  23.623   3.876  14.770
69745W        W29006  10.300  32.540  13.005
69746W        W29007  31.529  27.639   1.821
69747W        W29008  20.231  18.669  13.864
69748W        W29009  11.161  15.644   4.290
69749W        W29010   3.714   5.269   1.230
69750W        W29011  18.587   8.402   4.317
69751W        W29012  25.509   4.437  12.408
69752W        W29013   6.771   7.342   0.749
69753W        W29014  44.997  41.372  13.859
69754W        W29015   3.930  39.828  10.541
69755W        W29016  25.984  23.631   0.243
69756W        W29017   7.719  22.221   2.385
69757W        W29018  37.481  19.645   1.743
69758W        W29019   6.361  25.538   0.740
69759W        W29020  31.911  30.121   3.154
69760W        W29021   7.340  17.173  12.866
69761W        W29022  37.545   2.465   3.308
69762W        W29023   0.840  34.119  12.975
69763W        W29024  24.102  20.592   2.837
69764W        W29025  23.090  24.501   3.779
69765W        W29026  35.385   3.819  12.017
69766W        W29027  21.135  18.555  14.947
69767W        W29028   5.310  29.454   3.803
69768W        W29029  38.502  38.560   1.231
69769W        W29030  24.617  30.983  14.471
69770W        W29031   9.822  28.164  14.995
69771W        W29032  17.070  18.725   2.373
69772W        W29033  10.152  20.666   2.375
69773W        W29034  11.810  32.004   1.805
69774W        W29035  23.999   8.189   0.802
69775W        W29036   3.404   1.407  11.110
69776W        W29037  40.479   5.840  12.580
69777W        W29038  23.596  18.238   0.441
69778W        W29039  25.987  26.142  11.938
69779W        W29040   2.812   0.960   0.743
69780W        W29041   3.333  20.718  14.971
69781W        W29042  12.355  43.304  14.952
69782W        W29043   0.835  29.975  14.380
69783W        W29044   9.796  26.066  13.320
69784W        W29045   8.720  15.098  11.437
69785W        W29046  16.651   2.350   3.366
69786W        W29047  13.736  15.683  12.347
69787W        W29048  42.833  38.489   2.751
69788W        W29049  42.300   2.956  12.912
69789W        W29050  25.021  14.231   3.280
69790W        W29051  11.172  38.515   2.803
69791W        W29052  43.358  40.021  12.084
69792W        W29053  17.271   3.897   1.251
69793W        W29054  31.414  26.001  12.549
69794W        W29055  33.913  42.429  10.578
69795W        W29056  14.321  43.289  13.994
69796W        W29057  31.420  26.171   2.358
69797W        W29058  31.088  34.459   4.612
69798W        W29059   7.380  41.891  14.808
69799W        W29060   0.979  12.281  13.878
69800W        W29061  32.515  21.738   3.690
69801W        W29062  32.552  30.526   0.931
69802W        W29063   6.211  14.688  14.897
69803W        W29064  34.501  41.439   3.632
69804W        W29065  30.500  44.972   3.657
69805W        W29066  25.684  28.670  12.365
69806W        W29067  17.204   9.213  12.414
69807W        W29068  24.978  17.694   0.272
69808W        W29069  34.554  30.951  11.597
69809W        W29070  31.977  29.658  14.859
69810W        W29071   4.857  20.693  12.359
69811W        W29072   8.702  32.583  13.464
69812W        W29073  42.312  38.018   5.671
69813W        W29074  42.377  35.421   2.812
69814W        W29075  21.650  23.537  12.039
69815W        W29076   1.869  39.332  14.019
69816W        W29077  41.317  15.757  10.945
69817W        W29078  37.530  36.558  12.928
69818W        W29079  26.696  30.935   2.314
69819W        W29080  13.344  32.534   2.826
69820W        W29081  34.041   9.158   4.114
69821W        W29082  32.954  10.280   2.789
69822W        W29083   2.271  25.180   1.439
69823W        W29084  37.850   8.281   3.794
69824W        W29085  35.045  40.320  10.611
69825W        W29086  44.405  28.962  13.497
69826W        W29087  29.625  16.657  12.479
69827W        W29088  33.098   0.942   2.737
69828W        W29089  41.321  26.689  12.824
69829W        W29090  32.596  20.641  13.448
69830W        W29091  24.571   3.449  11.607
69831W        W29092  15.252  22.504  12.911
69832W        W29093  26.994   8.820  10.429
69833W        W29094  14.331  35.888   1.883
69834W        W29095  17.785  32.400   0.394
69835W        W29096  17.571   1.761  14.969
69836W        W29097  18.168  10.193  12.516
69837W        W29098  15.601  17.113   0.873
69838W        W29099  11.227  30.571  10.954
69839W        W29100  29.918  19.236   1.795
69840W        W29101  33.074   7.269  13.822
69841W        W29102  26.536  20.719   0.426
69842W        W29103  31.573  22.080  13.325
69843W        W29104   0.841  31.141  13.824
69844W        W29105  20.722  40.513   4.161
69845W        W29106  38.039  42.926   4.193
69846W        W29107  33.578  37.908   4.631
69847W        W29108  19.655  29.020   2.259
69848W        W29109   5.725  37.036  11.937
69849W        W29110  13.620  19.094   4.790
69850W        W29111  40.311  12.236   1.314
69851W        W29112   7.813  19.213  12.532
69852W        W29113  22.640  36.418  10.521
69853W        W29114  14.328   0.280  12.454
69854W        W29115  28.579  12.198  12.568
69855W        W29116  44.350  26.174   1.420
69856W        W29117   8.254  34.910   0.867
69857W        W29118  15.166  31.480  12.936
69858W        W29119  38.055  36.894  14.348
69859W        W29120   3.907  11.216   4.302
69860W        W29121  15.761  41.813   2.402
69861W        W29122  10.169  27.453  11.003
69862W        W29123  43.348  19.681   5.738
69863W        W29124  10.688  18.146   5.228
69864W        W29125   5.318  19.266   3.780
69865W        W29126  27.608   8.861   3.663
69866W        W29127  28.124  10.701   2.357
69867W        W29128  18.288  28.964   0.827
69868W        W29129  39.018  19.673  12.395
69869W        W29130  29.160  29.958   0.458
69870W        W29131  38.939  38.477   0.456
69871W        W29132  21.178   2.859   2.676
69872W        W29133  11.658  44.777  13.999
69873W        W29134  18.188   9.709  13.030
69874W        W29135  19.061  29.986  13.953
69875W        W29136  13.715  35.877   4.642
69876W        W29137  30.443  19.752   1.217
69877W        W29138  28.154  30.509  12.881
69878W        W29139  20.071   3.427   5.192
69879W        W29140   6.871   6.194  12.526
69880W        W29141  13.194   9.796   1.312
69881W        W29142  29.075   3.796  14.382
69882W        W29143   9.690  33.092   2.316
69883W        W29144   8.802  30.060  11.526
69884W        W29145  20.639  17.195   0.867
69885W        W29146  30.915   9.219  11.400
69886W        W29147  21.743  14.697   1.334
69887W        W29148  13.220  32.939  11.870
69888W        W29149  19.719   7.760   2.202
69889W        W29150  24.195  43.303  14.325
69890W        W29151  19.681   9.864  14.978
69891W        W29152  44.427  44.847  13.898
69892W        W29153  18.215  28.518   3.154
69893W        W29154   6.898  36.584  12.038
69894W        W29155  43.486  23.218   0.413
69895W        W29156  31.614  38.544  10.447
69896W        W29157  15.614  33.105   2.808
69897W        W29158  17.201  26.204   4.290
69898W        W29159  33.529  14.228  12.447
69899W        W29160  11.325   3.446   5.164
69900W        W29161  40.945  41.518  11.006
69901W        W29162  32.453   5.397   1.852
69902W        W29163  42.920  30.536  13.341
69903W        W29164  17.300  24.050   3.695
69904W        W29165  16.249  12.741   0.851
69905W        W29166  19.601   5.700   2.696
69906W        W29167  17.242  10.270   1.725
69907W        W29168   5.429  35.033  14.884
69908W        W29169  11.233  36.379   0.763
69909W        W29170  24.117   5.325  13.520
69910W        W29171  17.734  31.089   3.635
69911W        W29172  30.066  43.768  11.372
69912W        W29173  18.064  39.061  13.806
69913W        W29174  42.448  11.690   1.447
69914W        W29175  17.608  10.678  11.439
69915W        W29176  14.170  16.786   0.947
69916W        W29177  36.538  11.666   5.126
69917W        W29178  33.003   3.887   1.381
69918W        W29179  37.834  44.374  12.947
69919W        W29180  20.266   8.801   0.259
69920W        W29181  11.133   6.757  14.285
69921W        W29182   4.827  40.505  11.096
69922W        W29183   3.217   9.700   4.130
69923W        W29184  39.345  28.123  13.050
69924W        W29185  34.095  15.782   1.715
69925W        W29186  41.013  26.622   5.137
69926W        W29187  13.120   8.372   1.291
69927W        W29188   4.270  31.620  11.936
69928W        W29189  40.399  37.984   1.908
69929W        W29190   3.320  33.461   1.276
69930W        W29191  36.416  42.413   0.889
69931W        W29192   2.304  39.052   4.695
69932W        W29193  33.479  26.060   2.193
69933W        W29194  12.189  29.593  11.484
69934W        W29195   6.796  33.973   1.761
69935W        W29196   5.290   6.194  10.051
69936W        W29197  19.612   0.905  10.600
69937W        W29198  38.914   2.880  14.862
69938W        W29199  12.722  16.205   4.744
69939W        W29200  29.648  31.576   1.297
69940W        W29201  28.571   6.911  13.516
69941W        W29202  12.151  39.884  14.409
69942W        W29203  39.415  20.535   0.736
69943W        W29204  23.735   7.201  13.415
69944W        W29205  26.044  29.996   2.379
69945W        W29206  13.283  44.378  13.505
69946W        W29207   7.354  22.162  10.535
69947W        W29208  11.824  27.040   0.891
69948W        W29209  11.661  32.420   3.733
69949W        W29210  42.976   6.243  11.594
69950W        W29211   7.342  12.783  14.911
69951W        W29212  23.607  42.897   3.305
69952W        W29213  17.780  39.471  10.999
69953W        W29214  21.166  22.539  11.406
69954W        W29215  20.271  29.604   9.934
69955W        W29216   8.353   9.889   4.762
69956W        W29217  41.889  11.647   3.277
69957W        W29218   0.490  40.869  11.610
69958W        W29219  41.843  20.097   1.309
69959W        W29220   0.375  44.964   3.200
69960W        W29221   7.344  24.610  12.353
69961W        W29222  36.386  12.685   4.265
69962W        W29223   2.445  13.349   1.696
69963W        W29224   6.186  36.568   0.472
69964W        W29225   3.237  13.296  14.815
69965W        W29226  38.922   5.403   0.481
69966W        W29227   5.762  11.267  13.912
69967W        W29228  27.618  11.352   4.741
69968W        W29229  25.003  17.623  12.462
69969W        W29230  18.100  20.674  12.547
69970W        W29231  32.423  14.718  11.397
69971W        W29232  40.852   5.331   2.891
69972W        W29233  44.870   2.245  14.012
69973W        W29234  26.491  42.464  10.452
69974W        W29235   4.764  41.494   1.345
69975W        W29236   8.197   4.364   4.700
69976W        W29237  11.629  29.519  12.833
69977W        W29238  19.239   6.260   4.794
69978W        W29239  25.540  36.500   0.375
69979W        W29240  38.492  20.066  13.455
69980W        W29241  38.943  34.488   4.286
69981W        W29242  13.702  18.282  11.917
69982W        W29243  37.869  32.913   3.211
69983W        W29244  19.643   9.368   2.284
69984W        W29245  26.135  36.981   3.313
69985W        W29246  39.056  37.831   4.636
69986W        W29247  19.159   4.726   1.371
69987W        W29248  21.527  18.643  12.830
69988W        W29249   1.292  40.351   1.766
69989W        W29250  19.606   8.165  11.859
69990W        W29251   1.826  33.916   2.281
69991W        W29252   8.827  21.176  14.394
69992W        W29253  24.980   8.689  13.456
69993W        W29254  34.421  12.662  12.853
69994W        W29255  21.221  38.410  13.862
69995W        W29256  10.638  29.985   0.390
69996W        W29257  16.807  30.591  10.918
69997W        W29258   9.799  27.109   3.774
69998W        W29259  40.810  39.518  14.909
69999W        W29260  15.627  35.974   1.292
70000W        W29261   2.262  20.262  13.890
70001W        W29262  30.525  40.345  14.499
70002W        W29263  18.103  20.596   4.720
70003W        W29264  38.032   7.829  10.414
70004W        W29265  19.146  40.951   4.836
70005W        W29266  31.016   4.841  12.858
70006W        W29267  26.554  32.392  13.873
70007W        W29268  40.038  22.642  13.501
70008W        W29269  16.809  44.404   0.453
70009W        W29270   4.250  23.651   0.461
70010W        W29271  13.227  15.669   1.786
70011W        W29272  23.683  33.937   4.764
70012W        W29273  36.552  42.932   5.277
70013W        W29274  33.029   2.277  14.900
70014W        W29275   5.316  20.233   1.756
70015W        W29276  16.744  42.919  14.345
70016W        W29277  21.680  39.932   1.811
70017W        W29278   8.394  13.324  13.455
70018W        W29279  35.878  26.056  12.990
70019W        W29280  14.221  11.298   2.245
70020W        W29281  32.630   4.918   2.357
70021W        W29282  19.572  19.238   4.119
70022W        W29283   1.463  14.685   0.315
70023W        W29284  39.982  21.062  13.468
70024W        W29285  19.147  13.123  14.433
70025W        W29286   9.313   8.851   2.246
70026W        W29287  17.761  31.933   2.722
70027W        W29288   0.794   2.811   3.836
70028W        W29289  44.395  38.484   3.358
70029W        W29290  32.014  39.364   1.405
70030W        W29291  18.234  22.700   3.718
70031W        W29292  41.985  10.237   3.188
70032W        W29293  40.377   1.329  14.828
70033W        W29294  42.394  39.834  13.949
70034W        W29295   3.849  15.227   4.158
70035W        W29296  15.118  42.382   1.312
70036W        W29297   8.175  31.487  13.476
70037W        W29298  25.689  14.710   0.901
70038W        W29299  43.840  20.543  12.390
70039W        W29300  15.628  22.080  12.436
70040W        W29301  30.963  24.585   4.810
70041W        W29302  18.622   2.295  13.033
70042W        W29303   1.795  37.484  10.633
70043W        W29304   7.280  11.650  14.792
70044W        W29305  35.431  22.643   3.812
70045W        W29306  24.003   7.772   0.385
70046W        W29307  31.941  19.739   1.244
70047W        W29308   6.251  31.010   2.249
70048W        W29309  18.734   1.813  10.975
70049W        W29310   7.326  19.633  11.912
70050W        W29311  23.593  28.504   1.844
70051W        W29312   5.286  40.414  10.456
70052W        W29313  28.139  33.504  14.970
70053W        W29314  33.011  14.156   3.707
70054W        W29315  22.706   3.443  12.891
70055W        W29316  41.506  22.198  11.548
70056W        W29317   6.227  14.099   0.862
70057W        W29318  34.967  22.210  13.804
70058W        W29319   6.218  11.784  10.409
70059W        W29320  19.204  19.119   2.191
70060W        W29321   1.391  15.724  13.812
70061W        W29322  18.630  28.990  11.869
70062W        W29323  32.444  31.107  12.426
70063W        W29324   0.905  18.119  10.117
70064W        W29325  26.069   7.391   3.382
70065W        W29326  37.423   3.266   2.825
70066W        W29327  32.588  16.622  10.971
70067W        W29328  38.978  31.412  14.030
70068W        W29329   0.439  14.213  11.397
70069W        W29330  36.362   4.424   1.919
70070W        W29331  24.150  30.483   4.180
70071W        W29332  35.375  25.612  14.481
70072W        W29333  12.721  25.522  13.403
70073W        W29334  26.174  42.978   1.236
70074W        W29335   8.378  18.102  12.366
70075W        W29336  12.299   8.354   4.626
70076W        W29337  12.715  44.446  14.415
70077W        W29338   2.906  34.378  14.410
70078W        W29339  33.124  33.018   2.301
70079W        W29340  27.124  24.556  12.998
70080W        W29341  11.331  43.925  13.441
70081W        W29342  29.132  32.897   1.801
70082W        W29343  12.347   7.346   2.761
70083W        W29344  40.497   5.931   1.770
70084W        W29345  27.632  42.776   3.164
70085W        W29346  36.009  33.394  13.945
70086W        W29347  23.998  42.459  10.969
70087W        W29348  22.034  19.762  12.020
70088W        W29349   4.935   5.749   2.794
70089W        W29350  27.187  40.512   0.951
70090W        W29351  31.603  22.577   1.303
70091W        W29352   5.736  27.022  13.852
70092W        W29353   3.833  21.196  13.927
70093W        W29354  21.141  35.591  11.475
70094W        W29355  30.058   2.412   2.676
70095W        W29356   3.318  30.142  14.290
70096W        W29357  39.944  23.191   4.264
70097W        W29358  11.166  44.289   1.266
70098W        W29359  31.071  42.397   3.639
70099W        W29360  35.558  11.631   3.639
70100W        W29361  12.779  38.465   3.192
70101W        W29362  14.198   9.837   4.819
70102W        W29363  30.610  42.382  13.313
70103W        W29364   7.281  10.700   1.340
70104W        W29365  21.562  43.828  14.795
70105W        W29366  44.427  22.701  12.851
70106W        W29367  39.529  42.982   2.685
70107W        W29368  27.450  28.621  12.417
70108W        W29369   9.804  12.797  13.400
70109W        W29370  30.638  35.858  11.504
70110W        W29371  26.094   5.247  11.047
70111W        W29372   4.762  27.103  13.324
70112W        W29373  12.660  40.380  12.070
70113W        W29374  10.378   2.293  10.476
70114W        W29375  41.889  13.826  12.844
70115W        W29376  32.030  26.018  14.494
70116W        W29377   7.302  12.249  13.451
70117W        W29378  43.933  16.292   0.360
70118W        W29379  37.467  25.567   2.290
70119W        W29380  29.461  33.523   2.875
70120W        W29381  39.386  30.552  13.407
70121W        W29382   3.841  19.626   4.251
70122W        W29383  13.183  15.738  10.543
70123W        W29384  31.423  10.649  11.960
70124W        W29385  22.641  29.041   3.695
70125W        W29386  40.451   1.927   0.445
70126W        W29387   2.434  28.154   5.304
70127W        W29388  20.680   1.320   1.721
70128W        W29389  29.508  27.585   1.263
70129W        W29390  38.045  20.753   1.223
70130W        W29391  23.991  27.095  11.558
70131W        W29392  23.116  26.957  12.031
70132W        W29393  15.686   3.751   2.373
70133W        W29394   1.823  35.988   4.188
70134W        W29395  40.311  38.339   2.226
70135W        W29396  44.503  21.098   2.797
70136W        W29397  36.896   2.332  11.526
70137W        W29398   3.282  43.515   4.129
70138W        W29399  29.445  17.110  10.062
70139W        W29400   2.470   6.749   2.277
70140W        W29401   5.911  34.408  14.937
70141W        W29402  42.934  10.839  10.625
70142W        W29403  22.149  25.074  14.918
70143W        W29404  27.634  40.540   0.855
70144W        W29405  31.107  19.176  12.979
70145W        W29406  29.571  37.943  14.311
70146W        W29407  22.593   1.283   3.308
70147W        W29408  26.631  14.764  14.302
70148W        W29409  32.632  11.236  14.294
70149W        W29410  30.021   2.891  12.431
70150W        W29411   9.831   9.872  11.609
70151W        W29412  27.569  18.689   4.145
70152W        W29413  31.552  41.948   3.322
70153W        W29414  44.968  20.538  13.936
70154W        W29415  27.944   0.760   1.698
70155W        W29416  40.422  18.070   1.258
70156W        W29417   8.326  22.623   0.262
70157W        W29418   3.258  33.005   2.277
70158W        W29419  12.162  14.242  13.398
70159W        W29420   1.735   8.671   0.756
70160W        W29421  37.582  39.876  13.429
70161W        W29422  42.328  43.425  14.460
70162W        W29423  22.082  26.977  10.595
70163W        W29424  36.017  20.080   1.348
70164W        W29425  26.655  17.668   0.886
70165W        W29426   0.291  25.031  10.517
70166W        W29427  21.551  30.013   4.346
70167W        W29428  11.825  22.208   2.822
70168W        W29429  19.577  25.496   4.346
70169W        W29430  28.604   4.316   1.369
70170W        W29431  21.656  33.043   1.862
70171W        W29432   4.880   2.880  11.958
70172W        W29433  18.092  26.548  11.495
70173W        W29434  36.964  38.033   1.339
70174W        W29435   3.949  18.176  14.445
70175W        W29436  27.649   7.761   0.943
70176W        W29437  42.391   6.748  12.054
70177W        W29438  44.847  40.959  10.620
70178W        W29439  17.623  31.633   2.374
70179W        W29440  43.349  43.314   4.831
70180W        W29441  16.116  29.975   4.799
70181W        W29442  43.351  38.831  14.361
70182W        W29443   5.295  11.265   3.234
70183W        W29444  14.206  16.249   1.374
70184W        W29445  27.020  17.236  14.287
70185W        W29446  30.087  39.021  12.554
70186W        W29447  17.661   2.874   1.427
70187W        W29448   7.739   3.784  14.783
70188W        W29449   1.845  23.227  12.561
70189W        W29450  36.987  41.498   0.790
70190W        W29451  19.703  36.981  12.395
70191W        W29452   8.273  25.965   0.319
70192W        W29453  13.143  20.749   0.283
70193W        W29454  21.543  39.887  11.609
70194W        W29455  27.527  16.104   1.930
70195W        W29456   0.824  23.662   1.757
70196W        W29457  30.601  30.450   3.858
70197W        W29458  38.048  44.808  10.908
70198W        W29459  10.306  37.391  13.809
70199W        W29460  34.546  38.558  14.357
70200W        W29461  17.290  14.657  14.762
70201W        W29462   9.882  43.274   0.362
70202W        W29463   5.786   2.748  14.859
70203W        W29464   6.186   0.256  14.285
70204W        W29465  26.004  16.602   3.767
70205W        W29466  43.964  11.351   2.303
70206W        W29467  20.113  26.621   0.931
70207W        W29468  14.324   0.273   3.638
70208W        W29469  43.954  13.611  13.372
70209W        W29470  14.179  17.186   0.259
70210W        W29471  33.098  31.419  13.899
70211W        W29472  24.645  43.936  13.349
70212W        W29473  23.540  28.010  13.793
70213W        W29474  27.036  42.006   0.833
70214W        W29475  20.605  36.409  12.452
70215W        W29476  12.278  13.627  12.467
70216W        W29477   8.670  39.514   3.645
70217W        W29478   3.751  44.318  12.534
70218W        W29479  34.880  38.504   2.360
70219W        W29480  11.356   7.233   1.381
70220W        W29481   0.878  11.213  14.790
70221W        W29482  27.548  37.871  14.286
70222W        W29483  28.958   1.796  13.937
70223W        W29484  31.028   4.827  13.973
70224W        W29485   5.887  42.849  14.909
70225W        W29486   1.930   2.227  12.829
70226W        W29487  22.669  27.941   1.776
70227W        W29488  22.557   3.807  14.805
70228W        W29489  20.173  14.132   3.648
70229W        W29490   4.770  34.091   4.695
70230W        W29491  29.120  14.639  11.985
70231W        W29492  30.008  33.961  13.462
70232W        W29493  16.727   5.430  14.475
70233W        W29494  13.133  11.773  13.997
70234W        W29495  39.439  13.186   1.434
70235W        W29496  31.017  22.104   2.326
70236W        W29497  21.697  34.941   0.358
70237W        W29498  27.678  13.831   0.259
70238W        W29499   7.904  13.146  13.956
70239W        W29500  32.008   0.336  11.903
70240W        W29501  44.315  19.271   4.170
70241W        W29502  22.122  19.199   2.667
70242W        W29503  22.214  27.521  11.477
70243W        W29504   0.313  39.337   0.425
70244W        W29505   0.793  17.609   1.895
70245W        W29506   7.680  16.785   1.805
70246W        W29507  30.544  37.016  12.077
70247W        W29508  29.072  16.658   4.688
70248W        W29509  22.093  15.321  12.954
70249W        W29510  29.508  11.182   1.747
70250W        W29511  20.726  14.716  12.042
70251W        W29512  24.012  44.814   2.178
70252W        W29513  39.058   0.462  12.968
70253W        W29514  26.590  29.579   0.459
70254W        W29515  22.066  24.535   2.183
70255W        W29516   6.792  12.667   3.768
70256W        W29517  25.508   6.411   0.292
70257W        W29518  34.382  20.181   0.467
70258W        W29519   9.744  38.075   0.773
70259W        W29520  28.639   1.245  12.916
70260W        W29521  40.012  10.253   3.634
70261W        W29522   1.417  33.459  12.898
70262W        W29523  10.244  29.445  13.521
70263W        W29524  32.605  36.433   0.903
70264W        W29525  18.566  28.159  10.505
70265W        W29526   8.804  13.825   1.769
70266W        W29527   1.794  38.894  12.948
70267W        W29528  31.647  39.810  11.402
70268W        W29529   9.197  34.965   1.357
70269W        W29530  35.552  17.267   1.723
70270W        W29531  44.290   9.707   2.860
70271W        W29532  21.250  37.933  11.038
70272W        W29533  34.371  23.519   4.708
70273W        W29534  37.883  32.037   3.284
70274W        W29535  31.586   0.320  11.098
70275W        W29536  13.645  36.350  14.821
70276W        W29537   0.857  39.898   3.835
70277W        W29538  34.089  32.487   0.339
70278W        W29539  43.907  24.649  13.401
70279W        W29540  26.958   1.378   1.743
70280W        W29541  39.026  21.750  11.487
70281W        W29542  33.986   6.245  11.524
70282W        W29543  29.036  44.950   0.302
70283W        W29544   7.688   8.845  11.491
70284W        W29545   8.672  24.141  11.387
70285W        W29546   1.392  31.514  14.901
70286W        W29547  31.970  31.997  13.470
70287W        W29548  31.601  38.339   2.256
70288W        W29549   9.872  22.099   2.685
70289W        W29550  38.445  33.420  12.870
70290W        W29551  43.996   9.362  14.350
70291W        W29552  13.313  32.568  11.931
70292W        W29553  37.507  21.188   2.710
70293W        W29554   7.911  20.643  14.347
70294W        W29555  20.139  19.076   2.383
70295W        W29556   7.322   3.432   0.390
70296W        W29557  11.212  35.854   4.597
70297W        W29558  28.097   0.486  13.316
70298W        W29559  29.572  22.719   2.312
70299W        W29560  30.118  19.592   2.396
70300W        W29561  39.858  27.977   0.325
70301W        W29562  38.380  31.545   0.438
70302W        W29563  40.055  33.560  14.318
70303W        W29564  32.482  16.710   1.263
70304W        W29565  26.059  12.180   0.902
70305W        W29566  30.588   3.713  11.882
70306W        W29567   8.804  34.516  10.978
70307W        W29568   9.223  24.533  10.484
70308W        W29569  37.919  11.129   1.801
70309W        W29570  42.322  30.026   5.306
70310W        W29571   9.752   0.257   3.636
70311W        W29572  20.635  35.445  11.059
70312W        W29573   5.249  21.033  12.557
70313W        W29574   9.651   2.327  11.882
70314W        W29575  33.431  44.472  11.908
70315W        W29576  38.957  43.490  11.871
70316W        W29577  10.683   3.236   2.722
70317W        W29578  11.773  41.515  12.426
70318W        W29579  35.064  37.481  10.955
70319W        W29580   9.682  17.293  10.940
70320W        W29581  15.587  43.008   4.606
70321W        W29582  12.814  20.662   0.439
70322W        W29583  11.777  14.142   2.829
70323W        W29584  41.863  14.644   0.831
70324W        W29585   1.421  43.364  11.601
70325W        W29586  19.077  19.251   0.382
70326W        W29587  43.855  10.679   4.635
70327W        W29588  20.188  38.846  13.386
70328W        W29589  10.757  18.658  11.513
70329W        W29590  36.897  39.868   4.614
70330W        W29591  13.190  33.507   2.730
70331W        W29592  27.545  26.147  10.634
70332W        W29593   5.704  24.018   1.447
70333W        W29594  23.127  29.522  12.380
70334W        W29595   1.785  44.471  14.411
70335W        W29596  39.919  18.199   0.841
70336W        W29597  26.077  21.114  11.509
70337W        W29598  12.797  28.440   1.733
70338W        W29599   6.320   0.975   2.324
70339W        W29600  32.555  31.959  11.981
70340W        W29601  21.668  15.790  13.003
70341W        W29602   5.829  30.965  14.465
70342W        W29603   3.360  17.063  10.577
70343W        W29604  33.391  27.544  11.609
70344W        W29605  11.747   3.302   0.465
70345W        W29606  18.779  12.224   2.778
70346W        W29607  15.232   4.292   0.308
70347W        W29608  41.320  43.873   2.213
70348W        W29609  19.075  28.574   3.360
70349W        W29610  17.066  15.252   1.368
70350W        W29611  42.013  19.624   5.207
70351W        W29612   5.929  12.184   3.638
70352W        W29613   6.263   6.377  13.038
70353W        W29614  38.031   5.336  11.907
70354W        W29615  16.567  17.780  12.580
70355W        W29616  24.168  15.728   0.429
70356W        W29617  33.003  38.416   2.378
70357W        W29618  22.182  10.641  12.412
70358W        W29619   8.768  23.033  14.941
70359W        W29620   5.398  38.958   3.861
70360W        W29621  16.314  43.830  11.053
70361W        W29622   4.420  44.826   3.250
70362W        W29623  19.181  13.687   1.934
70363W        W29624  33.599  31.013  14.815
70364W        W29625  29.921  24.493   1.252
70365W        W29626  11.308   3.813  11.607
70366W        W29627  12.287  24.706   3.792
70367W        W29628   2.720   7.804   3.181
70368W        W29629   0.770   1.361   0.876
70369W        W29630  18.694  36.533   3.801
70370W        W29631  20.756   7.683   4.703
70371W        W29632   9.202  24.038   4.270
70372W        W29633   6.229  18.655  13.534
70373W        W29634  26.111  42.994   1.742
70374W        W29635   2.792   8.371   0.791
70375W        W29636   9.808  34.908   1.315
70376W        W29637   9.265  33.966  12.011
70377W        W29638  15.685  31.579  10.046
70378W        W29639  38.442   8.747  14.916
70379W        W29640  35.965  43.367   2.717
70380W        W29641  26.967  23.641  12.344
70381W        W29642  40.990  40.893   4.158
70382W        W29643  22.145  28.062   2.794
70383W        W29644  27.068  36.517   3.340
70384W        W29645  18.551  27.145  13.919
70385W        W29646  10.144   6.720  14.337
70386W        W29647  24.070  37.996   3.701
70387W        W29648  12.161  34.608  11.084
70388W        W29649  23.151   8.894   0.262
70389W        W29650  36.589  36.372  12.451
70390W        W29651  32.080  27.033  13.816
70391W        W29652   7.701   1.331   4.830
70392W        W29653  19.636  41.894  14.878
70393W        W29654  40.320  40.945  12.377
70394W        W29655  13.630  27.191   3.680
70395W        W29656  38.488  17.595  12.004
70396W        W29657  17.791  25.996  12.385
70397W        W29658  35.869  28.955   0.422
70398W        W29659  33.578   3.388  11.004
70399W        W29660   8.718  31.610   4.204
70400W        W29661  30.483  18.175  14.427
70401W        W29662  21.209   7.690  11.502
70402W        W29663  34.896   5.856  10.008
70403W        W29664   2.891   6.221  10.545
70404W        W29665   9.760  23.638  11.549
70405W        W29666   6.196   2.913   3.178
70406W        W29667   5.320  33.985  10.590
70407W        W29668  29.163  39.467   1.364
70408W        W29669  43.284   1.960   2.666
70409W        W29670  28.019   4.901  11.514
70410W        W29671   2.360  22.232   2.368
70411W        W29672  27.077  43.958  10.509
70412W        W29673  11.808  24.630   1.711
70413W        W29674  21.137  10.766   3.755
70414W        W29675  32.081  35.507   2.313
70415W        W29676   4.794  11.822   1.861
70416W        W29677  41.029  25.139  14.005
70417W        W29678   7.807  33.953   1.743
70418W        W29679  33.043   6.699  10.413
70419W        W29680  15.094  18.166   3.353
70420W        W29681   2.910  24.532   0.444
70421W        W29682  18.602   9.667  13.533
70422W        W29683  41.014  20.215  11.438
70423W        W29684  12.746  35.862  12.423
70424W        W29685  38.015  10.350   1.383
70425W        W29686  11.705   5.240   2.680
70426W        W29687  28.138  25.996   3.242
70427W        W29688  12.334  17.217  13.030
70428W        W29689   4.293   5.783  12.936
70429W        W29690   2.913  42.023  10.601
70430W        W29691  22.623  12.210   0.290
70431W        W29692  11.760  39.489  12.987
70432W        W29693  35.598  15.297   3.666
70433W        W29694   3.947   3.275  14.801
70434W        W29695  36.465  44.912   1.410
70435W        W29696   6.905  39.050  13.503
70436W        W29697  42.906  26.610  10.945
70437W        W29698  36.880  19.108  14.834
70438W        W29699  39.903  35.075   0.967
70439W        W29700  11.278  17.635   1.744
70440W        W29701  22.185  35.907  14.300
70441W        W29702  33.417   4.221  12.012
70442W        W29703  30.014  44.795   3.870
70443W        W29704  15.710   8.826  13.466
70444W        W29705  27.600  31.924   2.358
70445W        W29706  27.084  19.263  12.505
70446W        W29707  26.625  29.462   4.671
70447W        W29708  24.993  41.508  11.391
70448W        W29709  35.509  22.164  13.984
70449W        W29710  18.714  40.894  14.986
70450W        W29711  30.524   7.249  11.458
70451W        W29712  43.495  31.996  13.428
70452W        W29713  38.494  12.680   2.248
70453W        W29714  31.102  19.637   2.742
70454W        W29715   6.185  29.044  13.842
70455W        W29716  43.956  24.619   5.251
70456W        W29717  19.239  17.115   1.867
70457W        W29718  15.702  26.521   0.758
70458W        W29719  41.479  16.086  13.046
70459W        W29720  24.075  18.747   4.236
70460W        W29721   7.792  27.979  13.049
70461W        W29722   1.965   0.316   2.200
70462W        W29723   4.879  25.023  11.015
70463W        W29724  43.999   3.956  12.546
70464W        W29725  14.631  16.202   3.766
70465W        W29726  22.571  23.021   9.926
70466W        W29727  13.767  12.352   2.180
70467W        W29728  34.929  32.526   1.886
70468W        W29729  31.951  26.682  12.927
70469W        W29730  25.548  14.141   5.146
70470W        W29731  22.678  37.960  10.600
70471W        W29732  39.942  32.584   3.338
70472W        W29733  24.605  14.279   1.795
70473W        W29734  40.944   3.249   2.179
70474W        W29735  31.476   7.181  12.971
70475W        W29736  15.800  10.689  10.141
70476W        W29737  15.117  38.403   4.274
70477W        W29738   6.391   8.778   2.318
70478W        W29739  40.412  18.621   2.184
70479W        W29740  34.514  24.042   3.792
70480W        W29741  29.439   3.868   4.256
70481W        W29742   0.768  39.530   2.332
70482W        W29743  23.530  14.285   2.708
70483W        W29744  22.605  11.246  11.986
70484W        W29745  28.669  12.785   3.174
70485W        W29746  11.318  31.925  14.474
70486W        W29747  38.353  14.134   5.309
70487W        W29748  31.612  42.358   1.442
70488W        W29749  13.215  38.358  11.938
70489W        W29750  42.386   8.398  13.497
70490W        W29751  31.577  42.969  14.802
70491W        W29752  13.151  13.135   1.848
70492W        W29753   3.796   7.392  14.769
70493W        W29754  22.515  35.454  11.452
70494W        W29755  24.501  40.858   4.323
70495W        W29756  22.138  29.988   4.322
70496W        W29757  31.016  13.700  10.579
70497W        W29758  34.958  44.825   3.857
70498W        W29759   0.357  43.430  11.017
70499W        W29760  12.830   3.813  12.881
70500W        W29761  29.430  29.517  10.637
70501W        W29762  11.709  19.604  13.392
70502W        W29763  31.922  10.309  11.576
70503W        W29764  26.611   4.263   1.432
70504W        W29765   0.367  17.284  12.525
70505W        W29766   1.833   1.918   1.432
70506W        W29767  13.622  14.235   0.263
70507W        W29768   6.392   2.876  10.571
70508W        W29769   1.240  33.554   1.756
70509W        W29770   2.743  19.765  11.043
70510W        W29771  34.001   5.902  11.097
70511W        W29772  24.986  21.620  13.973
70512W        W29773  20.595  37.481  13.055
70513W        W29774  10.752  15.216   3.323
70514W        W29775  28.639  42.385  10.903
70515W        W29776  12.265  12.321   3.316
70516W        W29777  27.073  26.502  11.858
70517W        W29778   1.940  21.539   1.289
70518W        W29779  30.950  30.509  12.351
70519W        W29780  39.439  44.914   0.397
70520W        W29781  32.057   2.312  10.501
70521W        W29782  15.657  30.497   3.761
70522W        W29783   2.809  37.346   1.409
70523W        W29784  19.240  31.523   1.312
70524W        W29785   6.203   3.373  10.049
70525W        W29786  21.240   6.381   4.148
70526W        W29787   0.400   7.906  10.531
70527W        W29788  25.557   2.283   5.097
70528W        W29789  35.062  27.042  14.008
70529W        W29790  38.963  40.319  12.555
70530W        W29791   9.736   2.457  11.089
70531W        W29792  15.143  24.607   5.606
70532W        W29793  40.996   1.783  10.592
70533W        W29794   8.214  27.677   1.355
70534W        W29795   1.895  30.426   2.820
70535W        W29796  42.327  33.434  12.557
70536W        W29797  11.688  39.864  11.555
70537W        W29798  22.653  43.782  14.328
70538W        W29799  27.447  36.043  12.967
70539W        W29800  25.112   7.830   0.382
70540W        W29801  37.558  21.166  12.517
70541W        W29802  34.872   0.388  14.294
70542W        W29803  13.212  19.590  11.986
70543W        W29804  18.279  38.924   3.207
70544W        W29805  15.243   0.764  11.467
70545W        W29806  27.447  17.276   2.304
70546W        W29807  15.283   2.246   1.336
70547W        W29808   1.336  36.378   4.692
70548W        W29809   9.233  27.454  12.905
70549W        W29810   3.387  20.600   4.758
70550W        W29811  10.366  33.418   0.794
70551W        W29812  27.687  26.613  13.342
70552W        W29813  30.156  28.173  13.919
70553W        W29814  30.078  12.857   4.779
70554W        W29815   9.777  43.400  12.500
70555W        W29816  18.569  36.096   3.649
70556W        W29817   2.822  29.152  12.869
70557W        W29818  42.998  13.829  14.443
70558W        W29819  18.239   4.818  10.142
70559W        W29820  17.162   4.724  14.924
70560W        W29821  39.958  18.255   9.584
70561W        W29822  11.680  11.303  11.951
70562W        W29823   1.763  22.104  10.896
70563W        W29824  26.581  17.208  14.992
70564W        W29825  16.738  10.335  13.378
70565W        W29826  13.171  28.074   3.272
70566W        W29827  24.630  31.425   4.722
70567W        W29828   2.935   6.216  11.918
70568W        W29829   0.966  25.477   2.225
70569W        W29830   6.306  27.449  13.801
70570W        W29831  17.750   9.852   1.919
70571W        W29832  35.516  14.162   0.368
70572W        W29833  33.884  20.172   0.386
70573W        W29834  17.194  34.925  12.511
70574W        W29835  26.173  31.410   3.333
70575W        W29836  15.648  26.509  14.326
70576W        W29837   2.332  34.487  10.636
70577W        W29838  17.191  42.283  13.499
70578W        W29839  15.100   6.188  14.015
70579W        W29840   6.224   3.413   0.889
70580W        W29841  10.243  39.396  11.595
70581W        W29842  39.886  16.689   3.810
70582W        W29843  26.625   7.792  13.396
70583W        W29844  10.332  29.575  12.901
70584W        W29845  28.630  43.300   3.861
70585W        W29846  25.668  27.513   1.735
70586W        W29847   9.739  13.639   4.271
70587W        W29848  39.014  30.068   1.238
70588W        W29849  36.397  17.780   2.209
70589W        W29850  38.564  38.543  13.360
70590W        W29851  38.981  37.563   1.319
70591W        W29852  28.963  28.135   3.713
70592W        W29853  31.475  12.771  13.429
70593W        W29854  34.572  29.958  14.836
70594W        W29855  29.505  35.979   2.879
70595W        W29856  42.455  43.793   3.196
70596W        W29857   8.374  22.053   3.869
70597W        W29858  25.518  22.090  13.993
70598W        W29859  13.263  34.114   0.431
70599W        W29860  20.753  14.247  13.384
70600W        W29861   3.240  16.786  12.880
70601W        W29862  14.169   4.835  10.902
70602W        W29863  15.638  37.012   3.274
70603W        W29864  14.684  24.720  13.952
70604W        W29865  23.684   9.758  13.341
70605W        W29866   7.828  31.591  11.565
70606W        W29867  36.012   3.762  14.970
70607W        W29868  20.623  23.652   0.851
70608W        W29869  39.372  26.662  13.978
70609W        W29870  13.117  19.156  14.944
70610W        W29871  17.237  32.074   9.946
70611W        W29872   8.329  41.363  12.561
70612W        W29873  34.071  30.971   1.736
70613W        W29874  40.836  44.448  11.972
70614W        W29875  34.987  38.967  10.625
70615W        W29876  14.108   8.282  14.344
70616W        W29877  33.406  37.465   2.278
70617W        W29878  11.224   0.450  12.892
70618W        W29879  28.963  12.227  10.571
70619W        W29880  24.103  22.688   3.777
70620W        W29881  11.657  43.297   2.749
70621W        W29882  13.667   2.465   3.802
70622W        W29883  35.446  18.134   3.856
70623W        W29884  33.011  21.120   1.895
70624W        W29885  14.798  36.470   4.655
70625W        W29886  11.326  25.481  12.394
70626W        W29887  19.285   2.844   1.279
70627W        W29888  44.354  14.207  14.298
70628W        W29889   5.830  24.173  14.287
70629W        W29890   7.387  14.335   3.650
70630W        W29891   9.783  15.602   3.381
70631W        W29892   8.255   6.254  14.797
70632W        W29893   0.791  31.504  13.343
70633W        W29894   0.815  13.181  13.537
70634W        W29895  30.507  15.153   1.256
70635W        W29896  31.619  28.467   4.708
70636W        W29897  43.869  14.656   1.323
70637W        W29898   2.311   6.747  12.055
70638W        W29899  39.832  13.257   0.962
70639W        W29900  27.987   3.222  14.763
70640W        W29901  41.942  43.414  13.485
70641W        W29902  29.630  39.835   1.339
70642W        W29903  36.951  29.600  11.891
70643W        W29904  16.118   3.387  14.433
70644W        W29905  35.857  22.077  10.469
70645W        W29906  20.088  44.777  12.365
70646W        W29907   7.398  44.373   1.390
70647W        W29908  24.550  29.145  14.021
70648W        W29909  33.422  32.410   4.737
70649W        W29910  43.366  33.035   0.962
70650W        W29911   8.239  26.079  11.074
70651W        W29912   6.769  21.532   2.667
70652W        W29913  18.570  14.803   1.418
70653W        W29914   6.398  25.187  14.824
70654W        W29915  17.145  28.137  13.927
70655W        W29916  43.515  43.487  12.390
70656W        W29917  19.544  26.632  11.870
70657W        W29918  30.972  29.652  10.121
70658W        W29919  30.129   3.755  10.623
70659W        W29920  18.625  42.806   0.782
70660W        W29921   8.673  11.367  10.480
70661W        W29922  37.026  27.684  13.527
70662W        W29923  39.453  42.400   4.752
70663W        W29924  28.002  11.275  10.426
70664W        W29925   1.949  13.731  13.378
70665W        W29926  24.204  11.844   1.302
70666W        W29927   7.270   8.782   3.867
70667W        W29928  18.551  37.508   1.322
70668W        W29929  38.887  18.255   1.216
70669W        W29930  16.267  41.001   1.431
70670W        W29931  31.006  27.183   2.326
70671W        W29932  35.382  43.009  14.367
70672W        W29933  25.188   1.785  14.444
70673W        W29934  14.190  22.529   3.699
70674W        W29935  41.922  29.166  13.365
70675W        W29936  15.207  18.187   3.683
70676W        W29937   1.817  31.489  14.761
70677W        W29938  18.749  42.467   0.317
70678W        W29939  26.542  39.901  12.918
70679W        W29940   2.847  43.351  11.928
70680W        W29941  25.583   4.747  10.935
70681W        W29942   0.477  19.564   1.846
70682W        W29943  17.793  24.494   2.295
70683W        W29944   7.203   1.788   0.397
70684W        W29945  22.625  34.005  12.948
70685W        W29946  14.336  29.669   1.245
70686W        W29947  10.190  13.633   5.260
70687W        W29948  29.475  27.593  14.014
70688W        W29949  30.479  29.155   2.273
70689W        W29950  24.192  44.263   4.824
70690W        W29951  35.459  33.496   3.153
70691W        W29952  23.528   8.269  12.380
70692W        W29953  25.562  12.278   1.437
70693W        W29954  25.535   8.234  14.467
70694W        W29955  21.155   1.859   4.205
70695W        W29956  21.111  35.551   1.372
70696W        W29957  38.554   1.925  12.422
70697W        W29958  21.103  13.739  10.951
70698W        W29959   3.293  25.572   2.221
70699W        W29960  32.900   2.741  11.516
70700W        W29961  11.297  20.139   1.246
70701W        W29962  16.271  17.307  13.483
70702W        W29963  42.285  33.502  11.574
70703W        W29964   2.725  10.758   4.698
70704W        W29965  12.313  13.146  13.316
70705W        W29966  28.656   0.856  13.505
70706W        W29967  42.462  41.015  13.528
70707W        W29968  36.510   5.219   3.731
70708W        W29969   1.944   0.361  11.121
70709W        W29970  39.884  25.218  14.986
70710W        W29971  24.518  25.495   4.231
70711W        W29972  20.586  32.602   3.707
70712W        W29973  29.097   8.180  12.373
70713W        W29974  37.852  40.358   1.292
70714W        W29975  18.154  43.903  12.061
70715W        W29976   4.329  16.286  11.576
70716W        W29977  21.710  16.227   3.722
70717W        W29978   4.370  16.159  10.493
70718W        W29979   9.839  42.831   4.636
70719W        W29980  11.855  19.617  10.067
70720W        W29981  27.953  37.973  13.484
70721W        W29982  42.400  34.864   0.357
70722W        W29983  19.097  35.524   0.412
70723W        W29984  13.340  22.046   1.824
70724W        W29985   2.261  20.088  10.461
70725W        W29986  22.212  18.786  14.289
70726W        W29987   6.254  28.026   3.696
70727W        W29988   2.941  11.195  13.996
70728W        W29989  44.874  37.989  12.066
70729W        W29990  33.416  32.997  14.870
70730W        W29991  30.414  33.903  14.856
70731W        W29992  22.625  22.214  13.906
70732W        W29993  14.759   7.411   1.779
70733W        W29994  25.615  36.061  13.815
70734W        W29995  33.878  16.213   3.289
70735W        W29996  31.646   9.180  14.479
70736W        W29997   1.804   1.321   4.647
70737W        W29998  30.922   4.783   4.642
70738W        W29999  25.644  24.161   3.228
70739W        W30000  44.892   9.658  12.970
70740W        W30001  40.004  11.769  11.551
70741W        W30002  27.060  22.050   4.318
70742W        W30003  44.898  44.895  13.466
70743W        W30004  29.051  34.384  13.959
70744W        W30005  15.324  10.198  13.805
70745W        W30006  30.039   5.922  11.612
70746W        W30007  16.584  25.665   4.296
70747W        W30008   2.373  16.124   0.731
70748W        W30009  27.526  17.732  13.385
70749W        W30010  17.661  32.962   3.681
70750W        W30011   5.789  37.560  13.454
70751W        W30012   2.793  26.970   0.965
70752W        W30013  31.985  36.370   1.248
70753W        W30014   3.289  10.661  14.889
70754W        W30015   7.266  22.058  13.486
70755W        W30016  35.488  29.018  14.940
70756W        W30017  32.914  31.429   4.643
70757W        W30018  41.994  11.659  14.351
70758W        W30019  16.597  28.136  13.538
70759W        W30020  35.436  30.046   3.703
70760W        W30021   8.379  24.482  12.459
70761W        W30022   8.398  31.430  14.019
70762W        W30023  43.872  33.499  14.828
70763W        W30024  43.787  29.559  13.816
70764W        W30025   7.251  27.023  13.451
70765W        W30026  41.903  13.786  13.393
70766W        W30027  42.878  15.795  12.956
70767W        W30028  29.474  33.572   0.833
70768W        W30029   8.325   9.783  13.343
70769W        W30030   2.444  41.513  11.069
70770W        W30031  17.265  17.722  10.436
70771W        W30032   3.273  30.011   4.699
70772W        W30033  28.489  30.028   5.159
70773W        W30034  43.317  24.040   2.236
70774W        W30035  11.861   7.243   0.361
70775W        W30036  32.467  11.719   9.967
70776W        W30037  17.790  25.505   2.847
70777W        W30038   3.242  27.678  13.463
70778W        W30039   3.731  28.934   3.816
70779W        W30040   8.341  11.137  12.998
70780W        W30041  18.680  34.101   1.211
70781W        W30042  38.489  27.150  13.963
70782W        W30043   1.270   4.890   1.733
70783W        W30044   4.838   2.252  13.932
70784W        W30045   9.806  27.152  14.480
70785W        W30046  24.583  10.687  11.084
70786W        W30047  40.831  37.480  11.546
70787W        W30048   0.805  28.553  13.521
70788W        W30049  29.570  14.678   0.312
70789W        W30050  17.300  23.183  11.902
70790W        W30051   2.362  20.577  14.822
70791W        W30052  41.375  29.974  10.514
70792W        W30053  15.253  14.725   3.165
70793W        W30054   8.774  29.561   3.690
70794W        W30055  12.286  17.798  13.961
70795W        W30056  37.987  17.644  13.875
70796W        W30057   6.884  31.470   2.341
70797W        W30058  14.817   1.848  13.030
70798W        W30059  41.878   1.881  12.445
70799W        W30060  28.944  22.068   1.294
70800W        W30061  24.565  14.817   1.833
70801W        W30062  40.988  10.363   1.236
70802W        W30063   3.458  13.764  14.759
70803W        W30064  37.869  17.743  10.523
70804W        W30065  21.071  14.238  10.053
70805W        W30066  33.058  33.380  11.546
70806W        W30067   8.207  32.618  14.493
70807W        W30068  28.611  41.411   3.197
70808W        W30069  22.068  18.732   5.747
70809W        W30070   8.845  37.968   3.811
70810W        W30071  36.476  17.649  13.031
70811W        W30072   6.190  34.107   3.225
70812W        W30073  31.137   8.788  13.416
70813W        W30074  38.954  34.931   9.959
70814W        W30075  12.289  41.499   0.885
70815W        W30076  44.954  24.567   1.336
70816W        W30077  27.625  38.873  12.558
70817W        W30078  36.491  42.475   2.726
70818W        W30079  24.082  19.180  10.955
70819W        W30080  37.525  40.816   1.720
70820W        W30081  31.037   0.967   5.091
70821W        W30082  33.057   4.943  10.986
70822W        W30083  44.292  18.142   2.274
70823W        W30084  25.594  40.888   0.813
70824W        W30085   3.307  23.603   1.261
70825W        W30086  29.526  15.178  13.047
70826W        W30087  31.545  39.985  13.867
70827W        W30088   6.679   0.886  10.582
70828W        W30089  29.610   3.837   0.879
70829W        W30090  33.011  32.091  13.860
70830W        W30091   0.262  14.724   4.724
70831W        W30092  35.467  19.605   1.281
70832W        W30093   8.262  15.645  12.914
70833W        W30094   7.315  18.245  11.413
70834W        W30095  13.165  26.659   0.895
70835W        W30096  15.146  41.790  12.083
70836W        W30097   9.688  44.431   2.332
70837W        W30098  38.485  35.945   0.734
70838W        W30099  15.735  22.154  13.476
70839W        W30100  33.549  10.338   2.366
70840W        W30101  29.006  26.109  10.572
70841W        W30102  25.197  12.833  11.869
70842W        W30103  28.647  35.535  13.418
70843W        W30104  41.441  10.745  10.540
70844W        W30105  30.633   3.887  10.984
70845W        W30106  12.613  15.811  14.501
70846W        W30107   7.890   8.247   2.750
70847W        W30108   4.446  22.689  13.979
70848W        W30109  16.804  36.434  14.512
70849W        W30110   4.449  41.864   0.906
70850W        W30111  32.001  42.369  10.907
70851W        W30112  12.740   2.263   3.682
70852W        W30113  36.492   3.415   2.274
70853W        W30114  16.206  24.207  13.018
70854W        W30115  32.961  21.540  14.016
70855W        W30116   2.452   9.284  11.465
70856W        W30117   7.882  28.587  13.059
70857W        W30118  28.111  36.466   0.442
70858W        W30119  44.320   3.846   4.717
70859W        W30120  17.704  11.235   2.686
70860W        W30121  37.956  31.945  14.835
70861W        W30122  21.211   9.717  13.843
70862W        W30123  25.471  27.137   0.438
70863W        W30124  44.931  11.849   3.830
70864W        W30125  28.532  26.486   2.314
70865W        W30126   7.195  14.765  10.635
70866W        W30127  14.157  36.854   4.695
70867W        W30128  18.616   7.251   2.720
70868W        W30129  29.951   2.349   3.170
70869W        W30130  39.319  44.311  11.493
70870W        W30131  19.225  40.387  11.383
70871W        W30132  14.241  19.642   4.278
70872W        W30133  28.674   1.456  14.329
70873W        W30134  41.985   8.844  11.393
70874W        W30135  42.837  44.990  13.434
70875W        W30136  42.957   0.868  11.571
70876W        W30137   5.367  32.920  11.912
70877W        W30138   3.805  41.006   1.865
70878W        W30139  11.677   2.320   1.935
70879W        W30140  19.138  14.266  14.328
70880W        W30141  31.136  43.877   3.635
70881W        W30142  14.269  28.497   0.373
70882W        W30143  20.613  32.456   2.888
70883W        W30144  29.975   6.834   2.302
70884W        W30145  19.122  21.748   5.724
70885W        W30146  22.161  41.958  13.430
70886W        W30147  24.987  28.076  13.367
70887W        W30148  43.983   4.236   1.903
70888W        W30149  15.692  28.556  12.560
70889W        W30150   8.252   9.306   9.495
70890W        W30151  11.211  40.492   0.959
70891W        W30152  25.020  30.545   2.389
70892W        W30153  44.335  23.515   0.276
70893W        W30154  10.664   9.299  13.515
70894W        W30155  20.693  36.554   4.235
70895W        W30156  10.382  16.234   3.850
70896W        W30157  19.057   8.174  14.022
70897W        W30158  12.353  29.038   5.315
70898W        W30159  25.509  37.923  14.469
70899W        W30160   4.214  40.336   1.211
70900W        W30161  31.547   7.855   3.331
70901W        W30162  32.491  18.744  11.881
70902W        W30163  12.737  29.483   4.613
70903W        W30164  33.927   3.853  11.006
70904W        W30165   0.790   2.298  13.906
70905W        W30166  12.274  18.656  11.076
70906W        W30167   7.748  26.512  13.314
70907W        W30168  21.667   0.824  10.493
70908W        W30169  15.235  25.114  13.860
70909W        W30170  15.156  25.078   0.967
70910W        W30171  28.477  20.074  12.863
70911W        W30172  14.758  42.511  11.983
70912W        W30173  24.149   2.443   2.217
70913W        W30174  36.380  15.646   5.091
70914W        W30175  31.898  29.150   0.403
70915W        W30176  15.779  11.338   4.714
70916W        W30177  44.341  24.614   4.808
70917W        W30178   6.397   4.445   5.225
70918W        W30179   0.345  26.567  12.835
70919W        W30180  36.052   5.834   2.370
70920W        W30181  11.847   5.346  10.036
70921W        W30182   8.677  27.672   1.871
70922W        W30183   8.292  19.731   2.775
70923W        W30184  25.554  32.497   3.713
70924W        W30185  44.810  18.758  12.932
70925W        W30186  32.414  27.983  13.055
70926W        W30187  28.512  19.721   2.781
70927W        W30188  34.424  36.079  10.492
70928W        W30189  18.092  14.734   1.319
70929W        W30190  33.568  27.146   3.184
70930W        W30191  37.867   8.866   3.782
70931W        W30192  31.616  27.010  13.314
70932W        W30193   3.341   5.919   0.316
70933W        W30194  14.289  43.818   1.856
70934W        W30195  30.047  15.241  11.548
70935W        W30196  27.513  20.109  11.873
70936W        W30197  28.651  10.216  14.292
70937W        W30198  10.316   8.668  10.041
70938W        W30199  36.983   5.837  13.907
70939W        W30200  10.380  25.035  11.462
70940W        W30201   3.908  27.587  10.446
70941W        W30202  32.934  12.238  14.809
70942W        W30203  41.903   0.379   3.790
70943W        W30204   8.238  24.081   2.221
70944W        W30205  10.655   4.831   4.118
70945W        W30206  18.641  17.227   5.252
70946W        W30207  24.210  38.917   2.812
70947W        W30208  38.339  19.583  14.915
70948W        W30209  44.794  26.617  12.481
70949W        W30210   9.729   1.832  14.004
70950W        W30211  29.139   3.443  12.347
70951W        W30212  42.291   0.357   2.256
70952W        W30213  14.228   3.903  13.398
70953W        W30214  36.937  16.172  14.455
70954W        W30215  31.636  25.512   1.746
70955W        W30216  29.543  38.421   1.263
70956W        W30217  17.184   6.804   0.304
70957W        W30218  18.091  40.991   0.775
70958W        W30219  42.924  30.058  12.408
70959W        W30220   3.260  30.652   1.367
70960W        W30221  22.128  12.806   4.752
70961W        W30222   9.840  35.548   0.852
70962W        W30223  37.050  24.485   0.959
70963W        W30224   4.789  16.121   1.229
70964W        W30225  27.459   6.407  12.842
70965W        W30226  36.982  30.007  13.366
70966W        W30227  10.251  44.300  14.808
70967W        W30228  25.714  21.516  12.575
70968W        W30229  29.465   3.871  10.445
70969W        W30230  32.973   7.298   3.377
70970W        W30231  14.638  37.413   2.762
70971W        W30232   3.754  25.500  14.013
70972W        W30233   4.414  38.013   2.327
70973W        W30234  12.755   3.756  12.461
70974W        W30235  16.635  41.034  10.910
70975W        W30236  27.612  30.093  14.793
70976W        W30237  36.072  17.299   2.238
70977W        W30238  38.443  24.200  12.522
70978W        W30239  40.322   8.301  11.511
70979W        W30240  37.938  40.318   1.825
70980W        W30241   8.252  43.793  11.046
70981W        W30242  31.969   1.308  13.476
70982W        W30243  14.666   7.868  14.793
70983W        W30244  28.592  34.915  11.887
70984W        W30245  22.505  38.829  13.972
70985W        W30246  12.246   9.748  11.528
70986W        W30247  22.717  38.435   1.734
70987W        W30248  41.790  38.920   1.900
70988W        W30249   1.268   0.312  11.398
70989W        W30250  44.416  12.756  13.808
70990W        W30251   0.861   2.244  12.913
70991W        W30252  31.964  39.842  13.320
70992W        W30253  42.439  33.058  13.894
70993W        W30254  37.845  25.154   3.761
70994W        W30255  35.396  10.656  10.911
70995W        W30256  12.241  29.958   4.324
70996W        W30257  31.021  16.211   3.311
70997W        W30258  41.837  39.343   4.307
70998W        W30259  43.407   8.668   3.234
70999W        W30260  38.472  11.223  12.579
71000W        W30261  40.948  13.169   1.334
71001W        W30262  12.193   3.314  11.913
71002W        W30263  30.047   6.407  14.846
71003W        W30264  22.529   0.272  13.025
71004W        W30265  27.483  33.965   4.233
71005W        W30266  26.629   2.324   1.722
71006W        W30267  23.548  31.001  11.433
71007W        W30268   2.763  36.366  11.487
71008W        W30269  22.037  35.891   3.277
71009W        W30270  41.872  18.707  14.893
71010W        W30271  39.518  44.967   3.323
71011W        W30272  14.819  19.183  12.017
71012W        W30273   3.330  16.269  10.596
71013W        W30274  37.896  41.006   2.394
71014W        W30275  10.782  42.798   5.269
71015W        W30276  25.481  44.451  12.850
71016W        W30277   2.380  26.636  10.527
71017W        W30278  25.003  28.022  10.139
71018W        W30279  38.064  14.320  14.438
71019W        W30280  34.034  29.019  12.522
71020W        W30281  37.384  13.339   2.755
71021W        W30282  38.032   9.742   4.683
71022W        W30283  37.010  18.116   0.808
71023W        W30284  31.464  24.665   0.456
71024W        W30285  33.924  42.931   0.770
71025W        W30286  36.022   0.325  11.900
71026W        W30287  35.012  21.149   2.795
71027W        W30288  30.521  44.840   1.283
71028W        W30289  22.715  23.041  14.819
71029W        W30290  29.022   6.258  13.333
71030W        W30291  40.547  25.525   4.114
71031W        W30292  40.510  34.090   2.807
71032W        W30293  41.388  21.140  10.510
71033W        W30294  11.311  34.957  13.930
71034W        W30295  39.897   1.261  14.298
71035W        W30296  12.809   8.872  11.900
71036W        W30297  22.048  41.888  14.288
71037W        W30298  24.718  38.385   2.395
71038W        W30299  29.019  33.536   2.301
71039W        W30300  13.630  12.633   1.854
71040W        W30301   8.341   0.461   0.329
71041W        W30302  13.832  41.528  14.512
71042W        W30303  26.111  20.702  12.870
71043W        W30304   8.679  27.080   2.341
71044W        W30305   1.469  20.248  14.288
71045W        W30306  41.410  42.779   0.861
71046W        W30307  40.477  12.122   2.243
71047W        W30308  16.230   2.366  10.502
71048W        W30309  17.192   8.741   0.738
71049W        W30310  11.848  41.985   4.762
71050W        W30311   0.885  21.036   1.898
71051W        W30312  23.497  15.805  10.575
71052W        W30313  37.554  37.923   0.464
71053W        W30314  30.979  17.655  14.430
71054W        W30315   9.741  24.023   1.843
71055W        W30316  43.336   1.468   0.784
71056W        W30317  21.150  16.771   4.199
71057W        W30318  27.596   1.471   2.396
71058W        W30319   8.794  12.639  10.507
71059W        W30320  38.956  36.866  14.918
71060W        W30321   2.784  13.736   3.746
71061W        W30322   6.896  38.561   4.200
71062W        W30323  34.966  32.637  14.821
71063W        W30324   4.367  13.322   0.268
71064W        W30325  29.530  19.580  11.437
71065W        W30326   9.709  23.567   3.189
71066W        W30327   4.936  15.615  14.404
71067W        W30328  30.961  18.265   5.083
71068W        W30329  13.636  35.863  13.029
71069W        W30330  33.085   9.725   3.261
71070W        W30331  19.590  38.363  11.116
71071W        W30332  41.879  34.533   0.883
71072W        W30333  40.872  24.668  10.613
71073W        W30334  25.044   4.439   3.656
71074W        W30335  27.944   6.211  12.097
71075W        W30336  36.524  44.317  14.855
71076W        W30337   6.803  13.105  13.315
71077W        W30338  42.776  12.801   3.369
71078W        W30339  11.288  28.463  11.995
71079W        W30340  30.975   8.163  10.119
71080W        W30341  43.001  39.020   2.699
71081W        W30342  28.139  20.157  12.921
71082W        W30343  21.099  27.542  14.032
71083W        W30344  12.238  37.357  11.429
71084W        W30345  42.010  44.274  14.761
71085W        W30346   7.180  22.597  11.966
71086W        W30347   0.406   5.195   1.713
71087W        W30348  36.879  35.569  11.483
71088W        W30349  35.902   5.696  11.529
71089W        W30350   7.316   4.244  10.989
71090W        W30351  31.582   9.363   4.163
71091W        W30352   5.725   4.371  13.989
71092W        W30353  11.355   1.908  14.970
71093W        W30354  38.428  29.591  13.957
71094W        W30355  41.965   2.834   0.270
71095W        W30356  13.685  16.629   0.795
71096W        W30357   4.331  18.740   3.252
71097W        W30358  30.031  31.941  13.409
71098W        W30359  42.853  18.284   2.212
71099W        W30360  31.079   0.340   3.280
71100W        W30361  20.742  27.967  11.873
71101W        W30362  20.738  23.232   0.434
71102W        W30363  32.901  10.335  11.513
71103W        W30364  28.152  36.409   1.439
71104W        W30365  43.947  27.675   4.207
71105W        W30366  24.151   9.758   0.269
71106W        W30367   2.902  15.778  14.381
71107W        W30368  44.847   9.337  11.978
71108W        W30369  41.412  28.559  11.580
71109W        W30370  10.640   4.889   1.899
71110W        W30371  27.550   3.295   2.881
71111W        W30372  28.030  15.741   9.928
71112W        W30373  34.441  42.870  12.529
71113W        W30374  42.291  10.235   2.264
71114W        W30375  36.957  22.045   2.728
71115W        W30376  13.639  37.476   4.686
71116W        W30377  39.324   4.742  10.954
71117W        W30378  44.360  13.657  10.457
71118W        W30379  17.233  14.228   5.135
71119W        W30380  17.245  17.294  11.595
71120W        W30381  42.986  27.165   3.671
71121W        W30382  30.600  19.190  14.819
71122W        W30383  36.043  33.933  11.611
71123W        W30384  13.778  26.614   3.314
71124W        W30385  25.613  29.605   0.780
71125W        W30386  23.991  23.614   0.880
71126W        W30387  21.112   6.887  13.802
71127W        W30388  12.686   7.753   4.742
71128W        W30389  41.443   5.366  12.451
71129W        W30390  32.055  27.452   9.976
71130W        W30391   7.178  34.888   2.773
71131W        W30392  28.654  17.572  12.406
71132W        W30393  35.569  25.075  12.478
71133W        W30394  20.180   8.206   0.743
71134W        W30395  12.845  24.158   4.772
71135W        W30396  19.211   9.789   0.831
71136W        W30397   9.707   1.328   4.286
71137W        W30398  42.841   2.891   0.465
71138W        W30399  12.359  34.904  13.975
71139W        W30400  20.744  28.044   0.383
71140W        W30401   6.792  34.445   4.310
71141W        W30402  12.139  40.927  14.312
71142W        W30403   0.414  37.581   1.828
71143W        W30404  10.666   2.909  14.822
71144W        W30405  32.469  29.595   1.935
71145W        W30406  19.073   7.344   2.245
71146W        W30407  27.609  32.086   2.754
71147W        W30408  12.230   9.863   0.797
71148W        W30409  19.780  22.523   5.171
71149W        W30410  27.068  37.975  14.847
71150W        W30411  12.342  22.545  14.416
71151W        W30412  35.548  30.476  10.460
71152W        W30413  14.703  30.588   0.942
71153W        W30414  32.524  37.056   1.427
71154W        W30415  43.276  15.241   3.632
71155W        W30416  25.589  12.166   1.715
71156W        W30417  40.819  37.026  11.082
71157W        W30418   0.821  42.021  14.509
71158W        W30419  17.632  25.979   2.294
71159W        W30420  29.035  26.132   4.253
71160W        W30421   0.953  21.529  14.803
71161W        W30422  22.120  36.929  14.468
71162W        W30423   4.711  38.557  13.859
71163W        W30424  34.383  23.155  14.906
71164W        W30425  30.506  31.633  14.390
71165W        W30426   4.349  36.504   1.373
71166W        W30427  24.683   6.782   0.260
71167W        W30428  17.088  35.366  11.031
71168W        W30429  34.957  21.607  10.586
71169W        W30430  43.996  13.205  13.807
71170W        W30431   3.815   8.386  14.816
71171W        W30432  40.464  43.510   2.809
71172W        W30433  14.827  37.549  14.013
71173W        W30434  25.219  37.007  12.967
71174W        W30435  36.076   6.290   1.312
71175W        W30436  38.432  19.071   3.862
71176W        W30437  44.911  12.688  12.927
71177W        W30438  44.270  35.858  11.372
71178W        W30439  39.854  38.360   3.657
71179W        W30440  22.072  10.239  12.484
71180W        W30441  36.499  16.227   4.634
71181W        W30442   5.807  39.893  11.038
71182W        W30443  17.200  12.759  11.492
71183W        W30444   6.710   8.281   3.868
71184W        W30445  30.533   9.801  14.312
71185W        W30446  43.378   6.875  11.589
71186W        W30447   8.698  21.678  14.964
71187W        W30448   5.828   9.769   2.215
71188W        W30449   9.836  16.205  10.512
71189W        W30450  17.678  24.660   3.817
71190W        W30451  42.322  10.260   3.192
71191W        W30452  29.623  40.964   2.319
71192W        W30453   1.825  18.716  12.966
71193W        W30454  38.374  34.466  12.543
71194W        W30455  10.690  11.260   2.774
71195W        W30456  14.765  18.671   3.636
71196W        W30457  19.135  23.578  11.089
71197W        W30458  43.363  24.538  13.312
71198W        W30459  36.470  31.521  12.493
71199W        W30460   1.955  12.739   1.870
71200W        W30461  20.265  21.592  13.911
71201W        W30462  13.139  18.639   4.277
71202W        W30463  41.860   4.737  10.903
71203W        W30464  16.180  22.594  13.968
71204W        W30465  30.558  43.476   4.709
71205W        W30466  10.645  13.706   3.215
71206W        W30467  19.647   7.399  13.043
71207W        W30468   0.345  11.201  10.409
71208W        W30469  18.691  33.004   4.150
71209W        W30470  41.389  26.142  12.894
71210W        W30471  29.055   7.336  13.835
71211W        W30472   0.799   1.948  11.953
71212W        W30473  33.057  36.985   1.801
71213W        W30474  37.942  43.361  12.982
71214W        W30475   3.270  16.089  13.447
71215W        W30476  11.651  17.655  11.086
71216W        W30477  30.486  11.679  13.932
71217W        W30478   8.348   0.986   0.305
71218W        W30479  35.410  42.966   3.851
71219W        W30480  32.977  37.040   0.901
71220W        W30481  34.100  10.755  10.903
71221W        W30482  34.951  34.562   5.251
71222W        W30483  34.885  28.547  10.623
71223W        W30484  14.229  15.087   4.308
71224W        W30485  12.347  15.739   1.296
71225W        W30486  26.119  20.524  14.020
71226W        W30487  15.286  20.038   4.805
71227W        W30488  32.127  33.423  13.055
71228W        W30489  37.941  35.949   2.842
71229W        W30490  16.164  24.032  13.493
71230W        W30491  42.028  28.107  13.829
71231W        W30492  22.068  12.358   2.884
71232W        W30493  29.168  16.134  10.506
71233W        W30494  28.107  35.056  10.138
71234W        W30495   4.763  42.838   3.737
71235W        W30496  10.749  34.549   2.228
71236W        W30497  16.129  38.559  11.421
71237W        W30498  15.263  10.278  11.954
71238W        W30499  16.245  21.518  12.473
71239W        W30500  27.506  29.440  12.457
71240W        W30501   2.264   0.900  11.570
71241W        W30502  17.084  32.135  13.805
71242W        W30503  18.256  20.655  12.061
71243W        W30504  11.836  24.120   4.690
71244W        W30505  10.863  43.849  11.007
71245W        W30506  12.663  23.598  13.874
71246W        W30507   3.268  44.972  10.483
71247W        W30508   0.288  27.555  14.023
71248W        W30509   5.862  26.622   3.791
71249W        W30510  23.623  23.146   2.805
71250W        W30511  30.422  16.769  12.903
71251W        W30512  23.544  29.000   2.886
71252W        W30513  11.305  30.585   2.320
71253W        W30514  32.102  21.144  11.420
71254W        W30515  39.925  36.585   3.366
71255W        W30516  16.202  43.435  12.544
71256W        W30517  37.379   7.339  14.914
71257W        W30518   0.911  20.524  14.415
71258W        W30519  34.034  31.551  13.468
71259W        W30520  22.011   4.269   3.855
71260W        W30521   2.960  19.660  13.544
71261W        W30522  14.668  20.615   0.791
71262W        W30523  42.344  22.037   3.867
71263W        W30524  27.522  15.760   0.388
71264W        W30525  22.602  27.692  14.386
71265W        W30526   6.376   6.775  14.515
71266W        W30527  25.512  36.062   0.924
71267W        W30528  38.550  14.232  11.485
71268W        W30529  33.416  33.481   2.668
71269W        W30530  36.558  37.086  12.580
71270W        W30531  14.294  31.059   1.329
71271W        W30532  27.998  17.162  14.464
71272W        W30533  25.528  13.237   1.280
71273W        W30534  41.839  36.507   2.347
71274W        W30535  12.638  28.656   2.224
71275W        W30536  33.461  41.372   2.373
71276W        W30537   5.769  42.415  12.952
71277W        W30538  10.344  39.005   0.424
71278W        W30539   7.739  27.542  12.086
71279W        W30540  17.112  41.975   2.221
71280W        W30541  13.705  29.037   5.655
71281W        W30542  24.495  35.096   4.635
71282W        W30543   9.177  19.190   1.711
71283W        W30544   9.291   5.223   1.906
71284W        W30545  40.954  19.555   3.253
71285W        W30546  11.193  39.417   1.267
71286W        W30547  14.708   3.929   4.149
71287W        W30548  12.667  34.920  11.017
71288W        W30549  10.170  11.153  14.385
71289W        W30550  16.795   7.860   2.674
71290W        W30551  26.620  40.044  11.455
71291W        W30552   9.285  23.602   4.174
71292W        W30553  19.128  13.236   1.905
71293W        W30554  38.376  11.268   4.703
71294W        W30555  27.974  33.500   2.263
71295W        W30556  16.650  34.886   3.727
71296W        W30557   3.942  35.493   0.770
71297W        W30558  34.065  16.628  11.122
71298W        W30559  41.022  23.675  14.977
71299W        W30560  37.347  26.047   4.256
71300W        W30561  39.005  38.890  12.472
71301W        W30562  40.932   1.772   2.751
71302W        W30563  20.631   3.710   4.749
71303W        W30564  16.690  28.502  13.337
71304W        W30565  25.025  23.519  12.948
71305W        W30566   2.471   9.164   3.382
71306W        W30567  37.846   3.950  13.397
71307W        W30568  26.680   0.872  10.404
71308W        W30569  23.699  10.800   3.237
71309W        W30570  39.445  39.364   1.712
71310W        W30571  43.458  14.621   3.380
71311W        W30572  33.384   2.423   3.189
71312W        W30573  36.531  20.684  13.896
71313W        W30574  29.056  25.152  13.972
71314W        W30575  33.964  34.101   1.436
71315W        W30576  24.524   0.881  13.514
71316W        W30577  41.895  31.492   4.820
71317W        W30578   2.452  27.159   3.817
71318W        W30579  15.786  29.505  12.946
71319W        W30580  27.973  39.013  10.503
71320W        W30581   3.350  25.596   0.318
71321W        W30582  11.215  15.205   1.245
71322W        W30583  18.646  16.575  10.048
71323W        W30584  32.892  36.471  11.086
71324W        W30585  37.902   9.672  10.969
71325W        W30586  29.573  10.334   4.766
71326W        W30587  38.478  43.385   3.856
71327W        W30588  17.739  27.091   5.183
71328W        W30589  28.950   9.298   4.158
71329W        W30590  43.008   0.955  13.324
71330W        W30591  42.806  29.056   0.739
71331W        W30592  17.555  18.575  10.541
71332W        W30593  36.546  39.047  12.862
71333W        W30594  35.970  26.979  14.389
71334W        W30595  35.974   1.903   2.775
71335W        W30596  26.166  11.275  14.853
71336W        W30597  22.133  20.685   2.828
71337W        W30598  26.154  39.449  10.598
71338W        W30599  42.992   8.704  13.386
71339W        W30600  33.382  14.198   4.597
71340W        W30601  40.965  20.597  12.429
71341W        W30602  37.087  18.197  13.478
71342W        W30603   0.919  31.490  14.352
71343W        W30604  17.293  22.103   3.773
71344W        W30605  28.520   2.760  10.959
71345W        W30606  33.007  28.059  14.942
71346W        W30607  10.733  19.770  14.376
71347W        W30608  23.031   3.450   3.288
71348W        W30609  43.801  14.158  12.490
71349W        W30610  28.183  18.699   2.705
71350W        W30611  27.567  39.335  12.878
71351W        W30612  22.160  20.252  10.926
71352W        W30613  41.793  14.753  10.135
71353W        W30614  25.964  27.065  14.803
71354W        W30615  16.760  36.475   2.186
71355W        W30616   7.809  23.036   3.173
71356W        W30617   0.843  34.428   3.808
71357W        W30618   1.940  11.687  12.000
71358W        W30619  20.274  43.946   1.337
71359W        W30620  28.590  35.872  14.477
71360W        W30621  14.137  25.202  14.775
71361W        W30622  14.822  27.030  14.285
71362W        W30623  20.711  41.329   2.870
71363W        W30624  21.588  15.239  14.908
71364W        W30625  12.306  29.462   0.939
71365W        W30626  13.795  27.544   3.687
71366W        W30627  20.551  13.822  12.458
71367W        W30628  35.412  10.153   0.800
71368W        W30629  42.445  41.017  11.609
71369W        W30630  19.743   3.785  12.002
71370W        W30631  12.254  16.592   0.859
71371W        W30632  18.058  42.520   4.814
71372W        W30633   1.419  15.313   1.924
71373W        W30634   0.419   7.698   2.389
71374W        W30635  14.163  37.435  14.983
71375W        W30636   7.744  23.569  12.962
71376W        W30637  18.102  14.727   3.792
71377W        W30638  20.749  36.577  10.602
71378W        W30639  28.099  16.594   4.349
71379W        W30640  34.481  38.869  11.504
71380W        W30641   5.720   1.411  14.932
71381W        W30642  29.646  15.139  13.409
71382W        W30643  33.443   5.906  13.006
71383W        W30644  31.059   7.854   4.256
71384W        W30645  43.887  14.807   2.255
71385W        W30646  37.062  39.512  12.548
71386W        W30647  30.019   4.723   0.848
71387W        W30648  18.274  16.313   3.750
71388W        W30649   5.313  43.899  11.974
71389W        W30650   0.266  22.589  12.956
71390W        W30651  43.993   2.253   4.728
71391W        W30652  42.296   2.397   4.649
71392W        W30653  43.290  33.479   4.310
71393W        W30654  24.619  40.984   3.850
71394W        W30655   3.923  33.424  10.936
71395W        W30656   4.788  36.938  13.981
71396W        W30657  34.954  24.630  14.847
71397W        W30658  19.179  31.146  10.642
71398W        W30659  44.782  43.417  11.931
71399W        W30660  23.551  18.671  13.887
71400W        W30661   3.722  27.004   4.731
71401W        W30662  19.729  39.061  12.486
71402W        W30663  30.930  14.105  12.443
71403W        W30664   0.911   7.254  12.089
71404W        W30665  44.785  34.405  11.959
71405W        W30666  31.149  17.779  13.508
71406W        W30667   4.376  22.746  14.378
71407W        W30668  40.316  11.331   2.315
71408W        W30669  16.094  16.301   0.735
71409W        W30670  14.330  27.663  12.552
71410W        W30671  42.449   7.882   3.172
71411W        W30672  14.112  35.093  14.937
71412W        W30673  39.368  31.099   2.375
71413W        W30674  29.143  42.323   3.640
71414W        W30675   1.899   9.312   1.353
71415W        W30676  42.382   4.316  12.396
71416W        W30677  22.700  31.625  14.892
71417W        W30678  26.050  41.870   2.278
71418W        W30679  42.809  28.182  13.935
71419W        W30680  22.663  29.005  11.448
71420W        W30681  28.538  21.522   0.479
71421W        W30682  12.693  16.799   2.833
71422W        W30683  23.164  23.538   2.711
71423W        W30684  26.068  31.097   0.796
71424W        W30685   5.872  33.406  14.933
71425W        W30686  32.616  36.904  12.926
71426W        W30687  22.043  31.559   0.378
71427W        W30688  19.640   4.826  14.295
71428W        W30689   3.240  19.168  14.294
71429W        W30690  21.646  15.581   3.854
71430W        W30691  20.609  25.171   2.404
71431W        W30692  23.562  42.975  12.935
71432W        W30693  32.100  18.725   0.744
71433W        W30694  24.222  42.998  13.521
71434W        W30695  12.834  13.681  14.800
71435W        W30696  19.262   8.215   2.273
71436W        W30697   4.406  15.186  14.759
71437W        W30698  10.766   1.955   5.258
71438W        W30699  31.060  43.770  13.879
71439W        W30700   1.251   2.448  12.456
71440W        W30701  40.974  21.653   2.358
71441W        W30702  34.081  39.831  13.512
71442W        W30703  16.314  34.079   3.714
71443W        W30704   6.306  44.417  14.378
71444W        W30705   7.693   7.862   5.205
71445W        W30706  43.426  34.417   1.923
71446W        W30707  41.969  26.166   1.378
71447W        W30708  40.834  15.616   1.378
71448W        W30709   0.743  27.010   0.482
71449W        W30710   0.344   9.882   4.343
71450W        W30711   3.941  10.738   2.224
71451W        W30712  20.601  15.115   3.793
71452W        W30713   9.706  41.459   3.675
71453W        W30714  19.647   1.469  14.485
71454W        W30715  29.918  31.049  13.456
71455W        W30716  27.634  41.017   1.879
71456W        W30717   3.269  14.630  11.042
71457W        W30718  12.813  15.815  10.640
71458W        W30719   7.875  39.365  14.945
71459W        W30720  29.460  44.419  11.494
71460W        W30721  42.306  39.935   1.866
71461W        W30722  27.551  11.216  12.545
71462W        W30723  33.387  15.636   2.223
71463W        W30724  42.434  44.354  10.596
71464W        W30725   9.680  20.635   1.354
71465W        W30726  29.015  19.212   3.311
71466W        W30727  18.193  19.585   3.689
71467W        W30728  23.225  37.040   0.825
71468W        W30729  26.474   0.902   9.594
71469W        W30730   9.177  12.253  13.849
71470W        W30731  14.278  20.752   2.359
71471W        W30732  17.797  24.176   3.717
71472W        W30733  36.007  21.112  13.532
71473W        W30734  41.467  36.347  13.795
71474W        W30735  26.480  15.097   0.253
71475W        W30736  19.674  17.267  14.980
71476W        W30737  21.078  12.141  14.438
71477W        W30738   7.221   7.774   0.956
71478W        W30739  17.688  32.992   0.891
71479W        W30740  22.104  27.042  12.430
71480W        W30741   4.743  22.592   0.871
71481W        W30742  37.833   7.844  12.908
71482W        W30743   9.301  29.048  11.995
71483W        W30744  28.460   6.807  12.858
71484W        W30745   8.348  37.971   0.869
71485W        W30746  12.237  33.879   0.289
71486W        W30747   9.863  23.119  11.014
71487W        W30748   0.338  29.468  13.341
71488W        W30749  40.806  27.626  13.942
71489W        W30750  38.408  41.368  14.996
71490W        W30751   2.733  11.139   3.858
71491W        W30752   2.820  13.248  14.784
71492W        W30753  40.801   3.754  10.612
71493W        W30754  18.180  10.292  14.325
71494W        W30755  19.063   3.404   2.303
71495W        W30756  22.616  20.201  14.815
71496W        W30757  23.002  18.741  14.495
71497W        W30758  35.363  18.128   0.902
71498W        W30759  10.864  25.143   4.302
71499W        W30760  21.054  10.352   2.415
71500W        W30761  32.529  20.048   2.838
71501W        W30762  28.980  32.938  13.512
71502W        W30763  16.177  30.076   3.197
71503W        W30764  39.992  40.898   0.902
71504W        W30765  27.079  38.545  12.077
71505W        W30766  14.748  30.436  12.489
71506W        W30767  30.000  35.908  10.493
71507W        W30768  24.636  19.692   3.743
71508W        W30769   1.815  10.265   4.203
71509W        W30770  13.754   4.243  10.409
71510W        W30771  34.039  15.328   3.717
71511W        W30772   6.242  21.599  14.006
71512W        W30773  35.055  37.345  10.474
71513W        W30774  27.137  31.551  12.436
71514W        W30775   5.735  28.930  11.404
71515W        W30776  20.189  41.388   3.323
71516W        W30777  20.609  21.089   4.813
71517W        W30778   3.858  24.106   1.229
71518W        W30779  24.199   1.942  12.940
71519W        W30780  16.236  26.498  14.404
71520W        W30781  28.134  36.472   2.694
71521W        W30782  31.929  24.479   4.627
71522W        W30783  13.240   3.935  14.891
71523W        W30784  38.471  32.052  11.500
71524W        W30785  24.023  36.394  11.984
71525W        W30786   6.391  16.319   2.287
71526W        W30787  32.431   0.458  11.933
71527W        W30788   4.923  17.146   2.394
71528W        W30789  32.952  33.066  11.541
71529W        W30790  17.252  38.890   3.645
71530W        W30791   0.976  40.962   1.318
71531W        W30792  42.415  10.341  11.064
71532W        W30793  35.384  19.731  12.433
71533W        W30794  18.259  27.603   3.386
71534W        W30795  21.530  26.176   2.277
71535W        W30796  27.530  35.069   3.725
71536W        W30797   1.771  22.703   0.762
71537W        W30798  19.200  43.773   2.262
71538W        W30799  42.309  42.980  11.020
71539W        W30800   7.859  37.848   2.897
71540W        W30801  24.048  35.447   1.870
71541W        W30802  10.848  28.565  12.507
71542W        W30803  32.922  17.575   1.835
71543W        W30804  28.088   2.246   2.380
71544W        W30805   6.187  21.065   3.242
71545W        W30806  23.205   3.946  11.437
71546W        W30807   0.946  36.965   3.334
71547W        W30808  34.076  25.068  12.485
71548W        W30809  33.546  25.030   0.338
71549W        W30810  28.439  27.645   0.426
71550W        W30811  13.148   9.644  13.336
71551W        W30812  17.645  11.738   1.402
71552W        W30813  12.243  27.143  10.051
71553W        W30814  40.012  31.417   0.373
71554W        W30815  17.726  29.600  12.944
71555W        W30816  35.069   0.750  12.845
71556W        W30817  20.663  40.514  12.870
71557W        W30818  12.852  37.950  11.963
71558W        W30819  27.630  20.076  13.455
71559W        W30820  27.690   3.279   2.190
71560W        W30821  13.808  38.366  13.792
71561W        W30822  37.880   7.353   1.922
71562W        W30823  34.920  10.248   1.771
71563W        W30824  25.058  18.066   4.148
71564W        W30825   9.696  14.628   3.687
71565W        W30826  21.255  20.546   3.177
71566W        W30827  42.305  18.628   5.795
71567W        W30828  13.225  16.736  11.467
71568W        W30829   8.867   4.377  14.428
71569W        W30830  20.758  38.462  11.558
71570W        W30831  27.117   4.435   2.772
71571W        W30832  35.494  16.610   0.297
71572W        W30833  23.236  12.648   4.293
71573W        W30834  41.810  43.477  10.923
71574W        W30835  18.183  33.509  14.941
71575W        W30836   9.373  30.516  11.607
71576W        W30837  20.543  38.064  14.390
71577W        W30838  11.283  29.578  13.030
71578W        W30839  13.156  10.757   4.123
71579W        W30840  24.644  16.675   2.183
71580W        W30841   3.735  17.135  11.536
71581W        W30842  40.432   2.279  12.956
71582W        W30843  22.718  36.386   4.279
71583W        W30844  27.521  26.594  12.090
71584W        W30845  29.444   5.382   2.232
71585W        W30846  22.699  12.838   5.106
71586W        W30847  28.976   6.895  12.090
71587W        W30848  23.532  22.563  14.993
71588W        W30849  34.958  42.924  13.878
71589W        W30850  29.985  41.395  14.450
71590W        W30851   5.699   4.317  13.327
71591W        W30852  35.372   3.884   1.361
71592W        W30853   0.432  38.507   2.877
71593W        W30854  17.674  27.109   5.628
71594W        W30855   2.801  16.149  12.502
71595W        W30856  31.153  22.502   1.892
71596W        W30857   8.335  41.988  13.367
71597W        W30858  21.647  40.532   2.209
71598W        W30859   2.437  26.674  14.994
71599W        W30860  32.015   0.337  13.422
71600W        W30861  42.287  35.880   1.871
71601W        W30862  12.273  27.470   2.792
71602W        W30863  44.925  33.597   3.291
71603W        W30864  29.425   6.803   3.231
71604W        W30865  22.111   4.427   4.617
71605W        W30866  30.525  31.505  13.400
71606W        W30867  36.364  43.798  13.868
71607W        W30868   8.797  17.760  10.905
71608W        W30869  38.883  17.665  11.930
71609W        W30870  39.973   6.196  14.408
71610W        W30871   0.770  30.089   1.812
71611W        W30872  33.496   5.290   3.348
71612W        W30873   3.763  14.168  11.519
71613W        W30874  22.068  30.643   0.844
71614W        W30875   9.290  12.157   3.244
71615W        W30876  44.926  37.479   3.215
71616W        W30877   7.393  34.535   3.378
71617W        W30878   8.236   1.316  14.384
71618W        W30879  42.334   7.413   2.735
71619W        W30880  20.547  22.733  10.633
71620W        W30881  40.318   1.483   3.364
71621W        W30882  14.640  17.076  10.590
71622W        W30883  36.841  39.502  14.331
71623W        W30884  44.909  42.924   1.248
71624W        W30885  37.369  34.090  10.582
71625W        W30886   1.933  32.517  13.430
71626W        W30887  18.113  43.850   2.875
71627W        W30888  29.025   6.859   0.962
71628W        W30889   8.273  21.733  10.904
71629W        W30890  15.236  30.505  11.458
71630W        W30891  23.526  13.650  13.010
71631W        W30892  18.615  22.609   4.205
71632W        W30893  31.569   5.693  13.525
71633W        W30894  16.689  24.679  12.356
71634W        W30895  23.707   8.748  14.975
71635W        W30896   6.710  25.127   0.314
71636W        W30897  33.500   3.235   3.277
71637W        W30898  25.208   8.662   4.288
71638W        W30899  24.128  31.133  14.820
71639W        W30900  38.503  30.104   4.119
71640W        W30901  42.893  27.688  11.591
71641W        W30902  24.513  36.012   0.937
71642W        W30903   5.903   8.353   4.127
71643W        W30904  19.667  20.720   0.961
71644W        W30905   0.469  26.108  10.588
71645W        W30906  27.017  44.476   0.369
71646W        W30907  10.239  34.033  13.954
71647W        W30908  31.431  21.104   0.943
71648W        W30909  38.014  31.938  11.460
71649W        W30910  19.567  27.149   9.481
71650W        W30911  31.409   4.908  11.952
71651W        W30912  29.644  39.954  12.083
71652W        W30913  22.626   5.716   4.759
71653W        W30914   9.154   9.649  14.441
71654W        W30915  22.511  32.560   9.491
71655W        W30916  41.422  35.025   1.263
71656W        W30917   9.341  25.714  12.433
71657W        W30918  39.462   7.318  11.390
71658W        W30919  34.870  42.390  14.868
71659W        W30920  28.017  37.830  14.454
71660W        W30921  32.048  31.457   0.384
71661W        W30922  25.198  36.447  11.935
71662W        W30923  44.800   5.895  11.579
71663W        W30924  19.130  17.794   3.345
71664W        W30925  32.890  44.288  13.376
71665W        W30926  34.561  33.954   2.865
71666W        W30927  32.967  20.046   1.393
71667W        W30928  14.134  30.152   3.682
71668W        W30929  30.658  39.345   0.446
71669W        W30930  25.607   3.318  10.984
71670W        W30931  27.610   8.875  11.036
71671W        W30932  18.716   7.355  12.433
71672W        W30933   0.853  13.630   3.149
71673W        W30934  38.022  30.940   4.681
71674W        W30935  43.863  19.217   3.344
71675W        W30936  36.919  14.669  11.485
71676W        W30937  39.040  39.974   4.709
71677W        W30938  19.680  25.970  11.858
71678W        W30939  32.602  10.764  11.528
71679W        W30940  17.090   7.854  11.608
71680W        W30941  22.734   8.296   0.262
71681W        W30942   5.246  11.337   4.192
71682W        W30943  31.071   9.689   1.905
71683W        W30944   7.254   4.433   0.263
71684W        W30945  15.754   1.312   2.405
71685W        W30946   4.868  15.813  11.959
71686W        W30947   8.654  32.098  12.058
71687W        W30948  20.712   3.358  11.874
71688W        W30949  35.577  12.177   0.968
71689W        W30950  12.221  26.132   0.928
71690W        W30951  14.666  43.924  13.020
71691W        W30952   9.228  13.173  11.508
71692W        W30953  39.901  32.027   2.378
71693W        W30954   7.401  28.935   0.898
71694W        W30955   1.919  19.106   1.714
71695W        W30956  33.058  19.592  12.971
71696W        W30957  14.103  16.091   0.453
71697W        W30958  28.611  43.802   3.648
71698W        W30959  16.811  17.695   0.857
71699W        W30960  43.328  38.382  12.045
71700W        W30961   2.324  13.666   2.260
71701W        W30962  36.588  25.577  10.512
71702W        W30963  35.559   4.794  10.968
71703W        W30964   7.859  41.355   3.367
71704W        W30965  24.637  20.113   3.209
71705W        W30966   9.203  24.661  14.309
71706W        W30967   9.332  20.623   0.733
71707W        W30968  25.635  13.673   4.159
71708W        W30969  35.064  24.689   4.336
71709W        W30970  33.998  26.046   4.185
71710W        W30971  18.284  10.847  12.917
71711W        W30972  32.466  23.204  11.019
71712W        W30973  39.495  20.591  13.363
71713W        W30974  32.583  35.474   2.766
71714W        W30975   5.199  20.141   4.600
71715W        W30976   7.207  33.430   2.730
71716W        W30977  39.989  19.199  11.556
71717W        W30978  31.538   9.204   5.586
71718W        W30979  15.713  16.170   1.890
71719W        W30980  33.432  41.788   3.334
71720W        W30981  17.683  26.594   4.713
71721W        W30982  44.427   8.328  11.409
71722W        W30983  13.261  21.517   0.848
71723W        W30984   3.252  32.566   3.312
71724W        W30985  29.007  32.089  10.513
71725W        W30986  14.705  27.007  10.131
71726W        W30987   3.293  24.625  12.854
71727W        W30988  30.607  44.777  14.392
71728W        W30989  44.858  12.730   1.900
71729W        W30990   3.221  18.112   3.683
71730W        W30991  27.101   8.292  13.345
71731W        W30992  34.103  29.532   2.854
71732W        W30993   3.342   6.855  12.885
71733W        W30994  37.904  21.630   0.783
71734W        W30995   5.729  24.648  13.016
71735W        W30996  17.662   2.866  11.957
71736W        W30997  30.437  27.081  12.510
71737W        W30998  42.828   8.208   3.296
71738W        W30999  21.625  13.298  12.073
71739W        W31000  27.977   1.928  14.304
71740W        W31001   4.215  22.068   0.250
71741W        W31002  26.572  18.179   1.388
71742W        W31003  27.691  12.758  13.525
71743W        W31004  35.457  14.629  12.362
71744W        W31005  23.606  12.749   2.269
71745W        W31006  44.003  38.056   5.162
71746W        W31007  31.093   8.224   1.358
71747W        W31008   5.335  39.983   4.694
71748W        W31009  11.261  30.620   1.399
71749W        W31010  44.474  30.957  12.443
71750W        W31011  29.003  24.106   1.763
71751W        W31012  29.592  44.276   3.856
71752W        W31013  14.718  30.419  13.831
71753W        W31014  10.306  18.188  12.377
71754W        W31015  12.692   5.416   0.268
71755W        W31016  23.653  12.236  14.456
71756W        W31017  36.922  10.668   4.147
71757W        W31018  44.961   5.723  12.060
71758W        W31019  16.719  18.753  10.422
71759W        W31020  28.605  14.630   4.157
71760W        W31021  15.149   7.178   3.306
71761W        W31022  24.538   6.303  14.348
71762W        W31023  31.942  20.648   2.712
71763W        W31024  24.505  40.538   0.421
71764W        W31025  30.478   1.255   3.735
71765W        W31026  13.768  10.812   2.694
71766W        W31027   5.361   1.937  13.010
71767W        W31028  35.522  24.139  13.817
71768W        W31029  13.296   9.343   3.373
71769W        W31030  19.680   1.876   2.293
71770W        W31031   8.333  31.540   0.442
71771W        W31032   4.398  27.103   1.738
71772W        W31033   3.836  21.089   2.261
71773W        W31034  30.456   5.326  14.970
71774W        W31035  26.524  25.533  11.027
71775W        W31036  44.346  37.348  13.471
71776W        W31037   0.980  11.742   1.729
71777W        W31038  36.083  19.183   4.344
71778W        W31039   1.414  32.963  11.469
71779W        W31040  14.095  33.887   0.259
71780W        W31041  18.059  16.645   3.310
71781W        W31042  35.960  22.052   4.732
71782W        W31043  10.154  29.551   0.448
71783W        W31044   4.826  34.451   1.239
71784W        W31045  44.484  25.010  13.991
71785W        W31046  37.998   7.905   4.830
71786W        W31047  21.679  40.431   3.266
71787W        W31048  27.015  44.304   3.692
71788W        W31049  27.624  25.019   4.229
71789W        W31050  39.992  29.996   4.777
71790W        W31051   3.744  29.541  12.058
71791W        W31052  42.282  17.567  12.954
71792W        W31053  32.458  38.983  13.363
71793W        W31054   3.769  41.798   3.792
71794W        W31055  30.094  34.023   2.718
71795W        W31056  12.627  13.289   2.295
71796W        W31057  38.017  28.541   1.274
71797W        W31058   0.475   2.774  13.420
71798W        W31059  32.480  13.112  14.339
71799W        W31060   7.853  32.525   3.698
71800W        W31061  35.093  21.544   2.412
71801W        W31062   5.761  39.511   2.766
71802W        W31063  27.585  42.490  12.891
71803W        W31064  40.804  14.299  10.534
71804W        W31065  33.030  15.610  12.944
71805W        W31066   0.384  26.095  13.321
71806W        W31067  22.173  27.615  10.513
71807W        W31068  40.312  11.794   2.390
71808W        W31069  30.464  18.778   1.216
71809W        W31070  25.605  18.784   1.857
71810W        W31071  17.647  20.699  12.540
71811W        W31072  34.967  13.217   9.973
71812W        W31073  41.378  11.823   1.843
71813W        W31074  11.197  10.252   3.190
71814W        W31075  12.648   5.402   2.386
71815W        W31076  29.613  28.501  11.999
71816W        W31077  29.505   2.737   0.817
71817W        W31078  37.834   2.786   4.322
71818W        W31079   2.427  13.726   3.148
71819W        W31080  30.911  28.102   3.218
71820W        W31081  26.054   6.252  13.499
71821W        W31082   5.846  22.668   0.364
71822W        W31083  42.015  25.622  14.471
71823W        W31084  32.392  12.172   2.285
71824W        W31085  28.942  44.987  12.397
71825W        W31086  27.074  31.456  13.890
71826W        W31087  26.108  40.353  14.930
71827W        W31088  12.126  21.530   4.313
71828W        W31089  40.351  18.052  12.359
71829W        W31090  32.057  36.068  13.844
71830W        W31091  13.731   5.305   9.470
71831W        W31092   4.884  33.572   1.312
71832W        W31093   2.741  25.713   0.750
71833W        W31094  30.065   6.420   0.743
71834W        W31095   5.269  15.089  10.417
71835W        W31096   4.797  33.042   9.943
71836W        W31097  36.957   1.843  11.463
71837W        W31098  39.984  10.210   3.372
71838W        W31099  11.176  41.440  13.346
71839W        W31100  25.476  27.965   2.787
71840W        W31101  42.998   7.878   2.402
71841W        W31102  28.579   7.313  12.855
71842W        W31103  10.687  40.982   4.287
71843W        W31104  18.627  28.584   4.634
71844W        W31105  42.427  32.585  12.907
71845W        W31106   0.479  10.872   2.177
71846W        W31107  27.103   4.784   1.848
71847W        W31108  42.353  35.959  12.885
71848W        W31109  11.785  12.722   1.848
71849W        W31110  29.554  32.133   0.479
71850W        W31111  19.697  40.351   4.243
71851W        W31112   4.810   8.679   2.374
71852W        W31113  24.185  25.663  13.874
71853W        W31114   2.772  31.111  12.959
71854W        W31115  33.054  42.492   2.314
71855W        W31116  11.823  33.475   4.151
71856W        W31117  17.291  33.604   2.889
71857W        W31118  13.142   2.413  13.350
71858W        W31119  38.839  22.714   2.268
71859W        W31120  26.680   9.727  11.960
71860W        W31121  31.149  39.842  14.498
71861W        W31122  12.318  30.988   4.608
71862W        W31123  16.568  25.535   3.736
71863W        W31124  38.401  43.432  12.482
71864W        W31125  32.968  23.513   1.418
71865W        W31126   5.374   4.700   0.388
71866W        W31127  36.442   8.287   3.781
71867W        W31128  38.941  34.865   1.898
71868W        W31129  20.061  35.019   4.218
71869W        W31130   7.678   5.435  13.419
71870W        W31131  34.872  17.197   4.656
71871W        W31132  22.589  37.474   2.313
71872W        W31133  39.821   7.670   1.833
71873W        W31134  30.985  26.156   1.808
71874W        W31135  24.527  27.496  12.083
71875W        W31136  40.379   2.362  13.851
71876W        W31137  13.692   3.867  14.423
71877W        W31138   8.274  41.905  10.503
71878W        W31139  31.069  42.527   4.288
71879W        W31140  23.673  27.465   0.248
71880W        W31141  14.722  35.419  13.375
71881W        W31142   8.401  36.420   0.249
71882W        W31143  20.668  31.054  13.324
71883W        W31144   4.240  13.764  14.822
71884W        W31145   0.917  26.501  13.414
71885W        W31146   6.364  24.592  14.500
71886W        W31147  37.968  36.569   2.191
71887W        W31148  28.057  39.867  12.880
71888W        W31149  36.401  43.921   4.185
71889W        W31150  12.856  15.297   1.232
71890W        W31151  16.196  17.639  13.454
71891W        W31152  36.074  33.419   5.271
71892W        W31153   7.792   9.701  13.823
71893W        W31154  35.924  26.621  14.869
71894W        W31155  20.647  38.846  10.472
71895W        W31156   3.734   5.717  13.438
71896W        W31157  34.475   4.765   0.764
71897W        W31158  44.474  20.603  14.349
71898W        W31159  29.482  10.316   3.153
71899W        W31160   4.317  35.542   1.339
71900W        W31161  20.742  44.766  13.843
71901W        W31162   0.381  41.499   3.305
71902W        W31163  30.922  34.040  11.048
71903W        W31164  13.114  43.955  11.428
71904W        W31165  21.653  26.557  11.117
71905W        W31166  10.832  36.436  14.515
71906W        W31167  34.572  35.051  12.350
71907W        W31168  26.089  43.348   1.715
71908W        W31169  19.614  10.201  11.482
71909W        W31170  10.175  24.691   9.954
71910W        W31171  30.576  43.333   3.218
71911W        W31172  39.362  16.779   0.899
71912W        W31173  35.921  19.131   4.717
71913W        W31174  26.620  25.054   1.226
71914W        W31175  18.724  41.967   3.721
71915W        W31176  17.692  30.479  14.492
71916W        W31177   1.468  28.065  14.313
71917W        W31178  30.108  13.631   1.383
71918W        W31179   7.321  36.502   0.325
71919W        W31180  13.837  29.960  13.341
71920W        W31181  15.323  15.681  13.321
71921W        W31182  12.193  22.572   0.374
71922W        W31183  23.063   6.208  14.950
71923W        W31184  34.553   5.886   4.123
71924W        W31185  25.992  31.027   4.126
71925W        W31186  27.613  20.580   2.810
71926W        W31187  18.770  22.009  13.417
71927W        W31188  22.590   1.346  14.277
71928W        W31189  29.135  25.002   3.372
71929W        W31190  23.620  22.521  13.885
71930W        W31191  30.038  17.188  13.345
71931W        W31192  27.673  14.820  12.909
71932W        W31193  30.463  19.062  12.478
71933W        W31194  38.912  18.766   3.761
71934W        W31195  16.141  21.131  11.094
71935W        W31196   0.918  35.978   5.089
71936W        W31197  40.024  30.996   0.478
71937W        W31198  38.985   0.433   1.341
71938W        W31199  16.712  43.853  12.462
71939W        W31200  16.743  16.650   2.247
71940W        W31201  14.800  13.291   4.795
71941W        W31202  19.176  12.116  14.803
71942W        W31203  23.521  17.667  13.467
71943W        W31204  18.081  33.045  10.642
71944W        W31205  23.045   5.423  12.468
71945W        W31206  24.229  29.553   0.320
71946W        W31207   2.949  36.393  13.311
71947W        W31208  30.428  39.997   0.368
71948W        W31209  31.607   3.264  11.006
71949W        W31210  22.082  23.012  12.492
71950W        W31211  42.330  14.719   1.914
71951W        W31212  26.649   5.231  10.991
71952W        W31213  24.673  20.767   0.273
71953W        W31214  37.358  32.087  13.052
71954W        W31215  13.767   9.879   2.308
71955W        W31216  42.856  34.551  13.335
71956W        W31217  34.972  32.122   4.777
71957W        W31218   7.278   0.438  10.987
71958W        W31219  37.877   3.230  14.875
71959W        W31220  21.625  12.850   1.296
71960W        W31221   8.749  13.345   1.780
71961W        W31222  19.707  39.040  14.403
71962W        W31223  43.429   0.751  12.558
71963W        W31224   6.195   6.368   1.248
71964W        W31225  38.399   7.895   1.368
71965W        W31226  13.324  14.204  10.456
71966W        W31227   6.295  25.168  13.835
71967W        W31228   9.847   8.380   2.392
71968W        W31229  14.194  28.129  12.859
71969W        W31230   7.746   5.742  13.473
71970W        W31231   4.312  27.525  14.486
71971W        W31232  14.766  34.515  11.474
71972W        W31233   5.217  16.185  13.955
71973W        W31234  37.390   7.778  10.127
71974W        W31235  13.801  36.951   2.687
71975W        W31236  44.285  23.093  11.424
71976W        W31237  29.496  19.139  12.391
71977W        W31238  27.054  24.553   2.814
71978W        W31239   7.190  31.506   1.858
71979W        W31240  39.532  20.755   0.370
71980W        W31241  41.840  27.009   1.700
71981W        W31242  22.056  34.590   4.832
71982W        W31243   7.897  33.400  10.631
71983W        W31244  12.826   9.771  12.407
71984W        W31245  37.018  12.186   2.819
71985W        W31246   2.273  16.309  14.770
71986W        W31247  31.087  37.581  14.904
71987W        W31248   2.432   6.331   2.286
71988W        W31249  40.998  38.382   2.799
71989W        W31250  38.056  16.811  12.350
71990W        W31251  10.717  28.536  11.953
71991W        W31252   6.185  17.688   2.256
71992W        W31253  19.109  16.621  14.827
71993W        W31254   2.350  11.764  14.474
71994W        W31255  26.988   6.241  13.371
71995W        W31256  35.480   7.815  11.075
71996W        W31257  27.053  42.018  14.021
71997W        W31258  28.087  29.474   4.335
71998W        W31259   1.947  33.999  11.561
71999W        W31260   9.769  34.944  13.373
72000W        W31261  40.954  23.008   0.736
72001W        W31262   1.947  28.458   4.806
72002W        W31263  42.288   3.400  11.510
72003W        W31264  35.401  24.498   0.291
72004W        W31265  31.005  16.710   3.827
72005W        W31266  23.170  33.120  14.393
72006W        W31267  20.768  27.526  14.783
72007W        W31268   9.344   4.411  12.062
72008W        W31269  10.318  18.261  10.632
72009W        W31270  21.624   0.382   4.813
72010W        W31271  38.822  10.777  13.885
72011W        W31272  37.847   8.843   2.696
72012W        W31273   7.861  20.196  12.409
72013W        W31274  29.077  32.414  12.421
72014W        W31275  27.564  25.974  10.991
72015W        W31276  25.204  15.706  11.941
72016W        W31277  14.318  19.686  10.932
72017W        W31278  26.111   6.715  14.954
72018W        W31279  18.286  19.755  13.806
72019W        W31280   4.811  29.982   0.450
72020W        W31281  10.179   9.381   2.398
72021W        W31282  39.955   8.379  13.334
72022W        W31283  30.417  19.185  10.903
72023W        W31284  37.571  12.646  13.441
72024W        W31285  35.954  12.613  12.007
72025W        W31286  17.162  30.449   0.292
72026W        W31287  38.389  25.610   2.765
72027W        W31288  14.135  39.944  11.105
72028W        W31289   6.875  41.510   1.840
72029W        W31290  32.008  13.618   0.848
72030W        W31291  16.194   0.951   1.921
72031W        W31292  22.552   8.290   2.796
72032W        W31293  22.632  31.438  10.898
72033W        W31294  26.657  11.277  10.077
72034W        W31295  34.529  17.588   4.254
72035W        W31296  10.649   1.762  10.619
72036W        W31297  31.960   7.405   0.391
72037W        W31298  18.226  15.240   0.892
72038W        W31299  40.941  12.350  11.963
72039W        W31300  13.242   4.271  12.544
72040W        W31301  37.071  15.636  14.426
72041W        W31302  12.669  35.017   1.913
72042W        W31303  42.865  41.839   4.605
72043W        W31304  16.730  33.918   3.766
72044W        W31305  33.405   6.373   4.600
72045W        W31306  12.665   8.347  13.937
72046W        W31307  14.183   9.212   0.377
72047W        W31308  37.364  16.799  13.890
72048W        W31309  35.069  30.425  12.580
72049W        W31310  27.510   8.749  13.847
72050W        W31311  44.427  44.945  11.881
72051W        W31312  36.549  34.579  13.025
72052W        W31313  41.024  28.496   2.309
72053W        W31314  26.613  23.529   3.373
72054W        W31315  15.822  12.126   0.962
72055W        W31316  19.749   0.373   2.674
72056W        W31317  17.141  43.419   3.232
72057W        W31318  29.576   9.336   2.788
72058W        W31319   3.766  11.745   4.599
72059W        W31320  15.167   2.451   1.863
72060W        W31321   7.359  20.048  13.424
72061W        W31322  38.347  21.030   1.796
72062W        W31323  18.770  20.671   1.907
72063W        W31324  19.751  17.786   5.208
72064W        W31325  37.052   2.304   0.352
72065W        W31326  42.355  25.035   0.380
72066W        W31327   2.744   8.753   3.773
72067W        W31328   0.896  21.653  11.417
72068W        W31329  44.403  20.252  12.909
72069W        W31330  38.433   0.898  12.558
72070W        W31331  25.695  23.689  10.918
72071W        W31332  28.933  42.482   4.331
72072W        W31333  27.654  25.505   4.746
72073W        W31334  38.887  10.862   5.180
72074W        W31335   9.366  37.505  13.042
72075W        W31336  42.343  15.686   9.997
72076W        W31337  32.527  32.573  12.863
72077W        W31338   5.901  25.609   4.619
72078W        W31339  43.490  11.328   3.864
72079W        W31340  11.276  24.653  12.888
72080W        W31341  22.575  26.111  14.441
72081W        W31342  27.135  37.079   2.729
72082W        W31343  36.096  12.753   0.398
72083W        W31344  30.467   8.379  10.633
72084W        W31345  43.307  11.783   0.334
72085W        W31346  29.039  32.418   1.357
72086W        W31347   6.823  32.476   1.701
72087W        W31348  23.179   5.421   1.250
72088W        W31349  43.916   2.233  11.405
72089W        W31350  33.524  14.190  11.094
72090W        W31351  30.533   1.854   4.316
72091W        W31352  17.097  33.455  14.829
72092W        W31353   6.203  23.996  11.996
72093W        W31354   5.930   0.929  14.958
72094W        W31355  31.449  30.465   1.795
72095W        W31356  20.122  15.662   3.771
72096W        W31357  13.179  27.512   1.447
72097W        W31358  38.502   0.779  10.627
72098W        W31359   9.386  39.377   0.330
72099W        W31360  23.573  33.123   3.834
72100W        W31361  16.289  43.783   4.264
72101W        W31362  12.815  37.980  10.991
72102W        W31363  18.686   3.754  13.403
72103W        W31364  37.905  33.971   0.906
72104W        W31365  44.892  25.208   5.201
72105W        W31366  40.364  40.871   0.756
72106W        W31367  17.219  26.109  11.502
72107W        W31368  18.224  23.018   1.826
72108W        W31369   1.407  29.032  13.027
72109W        W31370  14.738  36.548   0.840
72110W        W31371  13.263  23.660   2.848
72111W        W31372  26.618  31.922  14.947
72112W        W31373  18.755  29.108  12.516
72113W        W31374   5.914  12.191  13.458
72114W        W31375   0.478   0.901   2.847
72115W        W31376  34.948  42.429  13.891
72116W        W31377  14.692  28.476  14.376
72117W        W31378  36.508  17.161   0.477
72118W        W31379  26.668  39.463   2.375
72119W        W31380   5.289  19.171   2.242
72120W        W31381  19.203  36.922  10.979
72121W        W31382  19.550  39.986  14.861
72122W        W31383  32.071  25.160  14.908
72123W        W31384  35.439   9.311   2.364
72124W        W31385  14.132   8.801   3.355
72125W        W31386  16.806  37.930   0.845
72126W        W31387  32.138  42.013   2.301
72127W        W31388  27.183  10.663  12.842
72128W        W31389  25.707  22.745  12.950
72129W        W31390  28.667  24.118   3.761
72130W        W31391  35.875  39.319  11.857
72131W        W31392  20.135   5.756   0.859
72132W        W31393   2.275  22.660   1.226
72133W        W31394  14.165  26.985   4.340
72134W        W31395   2.289   0.419  10.428
72135W        W31396   7.747  34.476  12.851
72136W        W31397  19.129  39.919  11.372
72137W        W31398  38.037  25.085  10.122
72138W        W31399  10.373  10.649  12.034
72139W        W31400  22.542  20.211   2.895
72140W        W31401  23.002   7.667  13.461
72141W        W31402  40.431  44.413   0.289
72142W        W31403  23.206   0.861  12.474
72143W        W31404  30.147   3.219  13.441
72144W        W31405  27.067  38.910   2.361
72145W        W31406   4.865  11.259   4.291
72146W        W31407  26.019  11.340   2.869
72147W        W31408  22.560  16.168   1.801
72148W        W31409  37.927   8.327  14.786
72149W        W31410  22.037  22.073  11.412
72150W        W31411  29.075  35.445   1.429
72151W        W31412  24.142   6.771   1.362
72152W        W31413  40.440  43.918   3.185
72153W        W31414  27.947  22.734   0.387
72154W        W31415   4.936  11.217   1.743
72155W        W31416  15.754  25.574  10.154
72156W        W31417  18.103  39.501   4.123
72157W        W31418  35.469  14.233   2.211
72158W        W31419  13.205   3.923  11.560
72159W        W31420  12.159  13.316   3.755
72160W        W31421  33.439  26.610  11.453
72161W        W31422  22.048  30.553  11.046
72162W        W31423   0.801  35.593   4.803
72163W        W31424   9.340  12.228  14.385
72164W        W31425  25.630  40.541   0.941
72165W        W31426   8.186  18.072   1.820
72166W        W31427  41.927  14.807  13.503
72167W        W31428  14.213  10.370   1.353
72168W        W31429  36.549   4.893  14.306
72169W        W31430  31.462  18.055  14.952
72170W        W31431   6.348   5.338   1.703
72171W        W31432  14.788  37.996   2.735
72172W        W31433  41.417  25.677  12.939
72173W        W31434   3.770   2.350   0.357
72174W        W31435  19.716  31.435  12.936
72175W        W31436  25.491  37.380   9.998
72176W        W31437   4.223  41.454   2.850
72177W        W31438  27.449   8.341   4.648
72178W        W31439  24.498  34.118   2.720
72179W        W31440  20.041   9.818   2.869
72180W        W31441   3.240  11.179   2.245
72181W        W31442  40.540   2.897   2.281
72182W        W31443  34.580  36.927  11.975
72183W        W31444   0.337  11.716   0.469
72184W        W31445   7.746  17.675   0.927
72185W        W31446  41.000   2.800  13.801
72186W        W31447  19.760  15.664  12.496
72187W        W31448   9.779   7.859   4.685
72188W        W31449   9.170  26.061   0.454
72189W        W31450  44.413  34.418   2.268
72190W        W31451   4.345  24.088  10.517
72191W        W31452  25.574   0.320  11.924
72192W        W31453  36.900  31.980   2.770
72193W        W31454   0.366  27.021  14.276
72194W        W31455  25.538   6.214   1.446
72195W        W31456  15.151   0.304  12.004
72196W        W31457   4.708  38.885   0.834
72197W        W31458   8.327   3.952   0.857
72198W        W31459  19.725  13.267   1.301
72199W        W31460   4.302   9.210   0.875
72200W        W31461  18.144  30.043  13.922
72201W        W31462  27.035  42.883   3.264
72202W        W31463   7.893  39.969   3.276
72203W        W31464  40.819  24.072   4.637
72204W        W31465  22.696  14.261  10.567
72205W        W31466  25.965  27.951  10.948
72206W        W31467  33.616  15.186   4.702
72207W        W31468  23.102  32.941   3.695
72208W        W31469  34.539  26.998  14.856
72209W        W31470  13.841  22.219  10.414
72210W        W31471  20.645   3.955  10.540
72211W        W31472  44.817  35.444   3.847
72212W        W31473  26.516  35.522   3.255
72213W        W31474  44.773  28.480  10.617
72214W        W31475  33.966   3.308  12.988
72215W        W31476  27.534   0.343  12.427
72216W        W31477  33.516   6.869  11.095
72217W        W31478  27.450   7.295   2.678
72218W        W31479  33.446  36.864   4.744
72219W        W31480  41.431  34.016  11.952
72220W        W31481  31.025  44.863   0.836
72221W        W31482  15.100  41.507  13.973
72222W        W31483  37.569  13.789   1.397
72223W        W31484  38.332   9.735   2.260
72224W        W31485  13.605  24.092  14.793
72225W        W31486  22.683  30.413  13.026
72226W        W31487  32.140  31.019   0.439
72227W        W31488   9.391  40.976  10.979
72228W        W31489  38.325  33.501  10.413
72229W        W31490   5.371  12.194   3.308
72230W        W31491  12.614   7.330   1.843
72231W        W31492  25.571  34.068   3.297
72232W        W31493  15.590   9.339  13.924
72233W        W31494  38.958  33.384   1.270
72234W        W31495   6.310   9.664  11.476
72235W        W31496   4.758  10.267  14.403
72236W        W31497  24.985  19.070   4.335
72237W        W31498  33.560  30.907  10.450
72238W        W31499  28.676  32.011   1.843
72239W        W31500  21.154  35.977   3.716
72240W        W31501  18.277   1.859   2.724
72241W        W31502  37.974   7.335   4.833
72242W        W31503  38.856   3.798  10.497
72243W        W31504  18.698  26.084  13.500
72244W        W31505   9.267   8.894  12.832
72245W        W31506  37.846  39.893   3.867
72246W        W31507  35.495   5.889   0.834
72247W        W31508   9.238  29.004  14.991
72248W        W31509   4.234   3.219  11.589
72249W        W31510  40.043  33.087   5.708
72250W        W31511  27.964  14.182   2.771
72251W        W31512   5.436  20.626   3.763
72252W        W31513  21.542   3.765   4.325
72253W        W31514  13.311  18.614  13.064
72254W        W31515  33.432  14.334   0.323
72255W        W31516  12.301   8.285   4.282
72256W        W31517  44.882  17.247   2.278
72257W        W31518  25.200  35.409   4.760
72258W        W31519  25.616  26.538   2.865
72259W        W31520  25.564  33.956   1.702
72260W        W31521  31.551  28.025  13.840
72261W        W31522  42.819  38.915  11.954
72262W        W31523  29.049  25.207  14.834
72263W        W31524  30.962  28.980  12.427
72264W        W31525  29.956  19.180  12.417
72265W        W31526   7.685  25.689   4.134
72266W        W31527   1.242  22.176   0.332
72267W        W31528  42.828  16.680   1.750
72268W        W31529   6.321  35.056  14.925
72269W        W31530  25.078  23.652   4.666
72270W        W31531  20.673  11.637  10.444
72271W        W31532  16.152  28.183  11.108
72272W        W31533  28.529   8.237  14.470
72273W        W31534   2.254   7.776   2.285
72274W        W31535  35.962  15.166   4.634
72275W        W31536   7.724   9.290   2.670
72276W        W31537  38.857  35.008  12.547
72277W        W31538  42.841  22.728   3.817
72278W        W31539  34.488  16.665   1.402
72279W        W31540  27.469  25.709  14.317
72280W        W31541   1.390  36.503  13.454
72281W        W31542  31.554   7.870  13.803
72282W        W31543  33.500   0.301   4.692
72283W        W31544   5.318   8.754   3.167
72284W        W31545  42.355  24.625   4.257
72285W        W31546   4.372  32.026   1.268
72286W        W31547   2.961   4.810   2.369
72287W        W31548  41.928   1.317  14.305
72288W        W31549  41.412  12.264   0.432
72289W        W31550   7.667   5.932   3.823
72290W        W31551  18.767   6.381  14.814
72291W        W31552   3.881   6.189  10.505
72292W        W31553   2.855   0.786  10.486
72293W        W31554   9.830  43.805   1.863
72294W        W31555  17.217  15.301  11.987
72295W        W31556   7.196  37.537   4.670
72296W        W31557   6.691  13.246   2.671
72297W        W31558  30.970  44.865   3.699
72298W        W31559  21.581  14.341  11.963
72299W        W31560   9.688  11.315   2.742
72300W        W31561  44.893  14.191  14.433
72301W        W31562  12.289  44.892   0.329
72302W        W31563  34.989  35.363  14.373
72303W        W31564  15.622  42.340  11.443
72304W        W31565  41.501  41.379  12.438
72305W        W31566  33.097  40.434  11.474
72306W        W31567   7.250  12.811  12.460
72307W        W31568  10.200  31.102  14.961
72308W        W31569  38.958  12.748   2.880
72309W        W31570  37.060  19.221   3.808
72310W        W31571   1.910  21.621  11.912
72311W        W31572  28.007  21.572  12.414
72312W        W31573  24.121  41.313   3.165
72313W        W31574   0.465   9.883  13.813
72314W        W31575   8.326   2.745   4.327
72315W        W31576  24.148   6.350   2.319
72316W        W31577  42.909  15.766  11.497
72317W        W31578  42.523  29.532   4.838
72318W        W31579  30.118   3.456  10.502
72319W        W31580  35.581  10.814   0.307
72320W        W31581  43.440  14.262   4.711
72321W        W31582  27.958   9.830  12.922
72322W        W31583  33.056   7.788   1.922
72323W        W31584  31.535  16.116  12.397
72324W        W31585  32.070  22.185   3.725
72325W        W31586  44.825  38.959  11.111
72326W        W31587  24.101  30.505  11.011
72327W        W31588  28.680  12.161  10.413
72328W        W31589  30.546   2.797   9.937
72329W        W31590   7.803   1.841  14.351
72330W        W31591  12.183  32.972   0.423
72331W        W31592   9.655  19.120  14.450
72332W        W31593  20.662   5.918  13.806
72333W        W31594  20.625  18.769  12.429
72334W        W31595   5.282  34.961  10.924
72335W        W31596  42.866   2.776  12.551
72336W        W31597  20.668  43.308  11.566
72337W        W31598  40.028   4.931   2.372
72338W        W31599   4.342   6.831   1.750
72339W        W31600  12.240  11.867  12.008
72340W        W31601   9.667  17.704   2.374
72341W        W31602   0.862   2.762  14.893
72342W        W31603  15.216   9.323   3.751
72343W        W31604  15.179   5.438  13.308
72344W        W31605  27.575  26.018  11.385
72345W        W31606  24.541  23.531  13.389
72346W        W31607  11.750  17.223  12.511
72347W        W31608  22.169   8.864  13.318
72348W        W31609  13.124  37.894   1.712
72349W        W31610  19.222   7.873   0.743
72350W        W31611  26.491  37.862  13.003
72351W        W31612  42.877  32.501  11.028
72352W        W31613  33.001  44.915   0.963
72353W        W31614   4.835  35.974  14.768
72354W        W31615   2.467  24.154  10.072
72355W        W31616  42.895  12.214   0.351
72356W        W31617  18.125  21.116   4.182
72357W        W31618  14.782  41.323   1.357
72358W        W31619  22.509  12.804   4.742
72359W        W31620  22.151  11.755  11.580
72360W        W31621  27.954  39.477  12.022
72361W        W31622  24.072   6.309  12.014
72362W        W31623  37.513  36.071   0.317
72363W        W31624  16.603  36.367  11.994
72364W        W31625  26.130  39.547   2.297
72365W        W31626   1.953  19.140   3.722
72366W        W31627  41.307   5.731  14.966
72367W        W31628  13.780  23.190  12.577
72368W        W31629  17.555  27.941   2.333
72369W        W31630  28.117  36.862  13.926
72370W        W31631  41.369  44.941  11.524
72371W        W31632  32.518   7.350   1.278
72372W        W31633  11.760  34.938  11.450
72373W        W31634   1.236  41.888  12.578
72374W        W31635   6.685  14.785  12.018
72375W        W31636  14.656  28.094   3.775
72376W        W31637  34.415  37.840  11.014
72377W        W31638   2.793  43.999   3.721
72378W        W31639  33.395  40.385  12.982
72379W        W31640  41.899  14.216   0.947
72380W        W31641   3.253  15.308  13.488
72381W        W31642  25.650  36.093   1.836
72382W        W31643  21.590  22.504  12.480
72383W        W31644  28.672  37.550  14.314
72384W        W31645   9.879  43.428  14.392
72385W        W31646  30.158  21.531   4.352
72386W        W31647  21.543   1.847   3.864
72387W        W31648  18.599  12.697  11.597
72388W        W31649  44.757  22.619   0.248
72389W        W31650  20.697   4.212   0.415
72390W        W31651  22.121  17.143  13.997
72391W        W31652   9.348  19.278  14.285
72392W        W31653   7.822  21.075  10.610
72393W        W31654  16.296  35.987   3.174
72394W        W31655  12.338   4.432   1.372
72395W        W31656  10.855  19.552  12.432
72396W        W31657   1.790  30.654   1.432
72397W        W31658  19.739  24.082   4.127
72398W        W31659  42.364  37.867  10.451
72399W        W31660  19.693   5.351   0.947
72400W        W31661  15.293  11.207  13.401
72401W        W31662   3.862  37.534  13.447
72402W        W31663  15.207  32.109   4.272
72403W        W31664  24.982  16.119  11.105
72404W        W31665  41.442   3.455  13.982
72405W        W31666  11.688  24.206  12.361
72406W        W31667   4.395  29.567   4.705
72407W        W31668  25.542   7.335  10.427
72408W        W31669   2.244   7.830   3.178
72409W        W31670  31.632  17.702   1.841
72410W        W31671  23.608  18.630  11.430
72411W        W31672  42.014  39.464   4.710
72412W        W31673   9.700  31.550   2.338
72413W        W31674   9.694  44.889   4.749
72414W        W31675  23.239  25.202   0.391
72415W        W31676  29.562   1.366  12.368
72416W        W31677  39.839  11.823  14.394
72417W        W31678  26.963  33.093   3.777
72418W        W31679  31.046  34.596  12.963
72419W        W31680  16.101   5.263   1.864
72420W        W31681   3.317  23.218   1.805
72421W        W31682  39.400  41.532  10.523
72422W        W31683  36.957   6.375   0.748
72423W        W31684  44.374  43.964  14.985
72424W        W31685   4.792  27.027  12.385
72425W        W31686  14.212  32.568  13.060
72426W        W31687  35.517  29.607  11.536
72427W        W31688  22.049   1.863  14.875
72428W        W31689  31.097  10.357   4.687
72429W        W31690   3.739   1.931   4.206
72430W        W31691  42.439   9.256   3.374
72431W        W31692  31.552   3.296   0.254
72432W        W31693   8.660  20.745  13.478
72433W        W31694  41.020  22.138   2.406
72434W        W31695   8.772  34.461   1.813
72435W        W31696  25.608  41.501   2.732
72436W        W31697  22.546   3.310   4.286
72437W        W31698   5.861   7.218  11.607
72438W        W31699  23.633   0.934   0.272
72439W        W31700  23.170  32.907  10.494
72440W        W31701  38.420  30.955  12.520
72441W        W31702   2.759  40.897  14.904
72442W        W31703  28.070  20.122  10.962
72443W        W31704  28.629  27.651  14.898
72444W        W31705  43.471  10.732  14.430
72445W        W31706  37.978  30.106  13.004
72446W        W31707  12.782   7.336   3.686
72447W        W31708  31.498   4.445  13.979
72448W        W31709   5.408  17.715   1.813
72449W        W31710  35.511   5.745   3.276
72450W        W31711  26.014  17.564  11.126
72451W        W31712   5.885  37.461  12.355
72452W        W31713  28.184  28.456   0.310
72453W        W31714  27.972  17.602  12.890
72454W        W31715  37.935   5.353   4.658
72455W        W31716  29.631  38.879  13.488
72456W        W31717  14.267  23.562  11.581
72457W        W31718  23.162  34.056  14.420
72458W        W31719   7.829  14.723   3.384
72459W        W31720  22.660   3.312   0.301
72460W        W31721  37.427  35.012  12.555
72461W        W31722  25.492  29.138  13.482
72462W        W31723   2.939   2.270   4.806
72463W        W31724  38.442  28.461   1.242
72464W        W31725  17.685  30.060   0.819
72465W        W31726  38.438  37.983  10.437
72466W        W31727   2.921  38.544   2.661
72467W        W31728   6.875  14.708   1.886
72468W        W31729   3.321  22.736   3.835
72469W        W31730  41.004  39.497  11.541
72470W        W31731  10.177   2.308   9.968
72471W        W31732   5.732  12.357  14.493
72472W        W31733  14.224  20.118   3.371
72473W        W31734  43.874  20.614  14.472
72474W        W31735  15.663  29.097   0.261
72475W        W31736   7.173   2.810  14.875
72476W        W31737   0.296  34.530  11.371
72477W        W31738  35.554   7.177   4.646
72478W        W31739  16.689  11.337  14.441
72479W        W31740  38.061  29.000  10.146
72480W        W31741   6.840   7.197   2.313
72481W        W31742  30.946  40.909  13.442
72482W        W31743  40.497  29.630   0.743
72483W        W31744  25.143  26.594  10.125
72484W        W31745   5.884  28.053  14.988
72485W        W31746  20.720  19.271   1.277
72486W        W31747  44.778  13.805   2.342
72487W        W31748  28.070  33.125   3.760
72488W        W31749  22.729  12.268  13.429
72489W        W31750  26.586  10.208  13.403
72490W        W31751   0.783   4.308   2.381
72491W        W31752  19.102  38.022  11.887
72492W        W31753  13.233  41.028  13.385
72493W        W31754   7.678   8.832   2.686
72494W        W31755  35.971  34.400   0.876
72495W        W31756   3.254  29.146   3.292
72496W        W31757  26.074  21.191  13.833
72497W        W31758   6.409  13.696  12.448
72498W        W31759  32.515  16.708  13.341
72499W        W31760  16.640  10.732   3.638
72500W        W31761  28.171  17.746  12.566
72501W        W31762  35.052  40.821  14.505
72502W        W31763  30.548  17.742   3.313
72503W        W31764  32.952   6.297   5.197
72504W        W31765  21.601  44.769  11.072
72505W        W31766  43.949  24.099   4.292
72506W        W31767  29.152   0.360   0.476
72507W        W31768  34.086  11.251   2.903
72508W        W31769  14.242  30.954  12.500
72509W        W31770  21.673  30.088  10.591
72510W        W31771  27.169  10.179   0.793
72511W        W31772   8.811   3.418   3.193
72512W        W31773  42.313  11.854  12.893
72513W        W31774  37.832  32.121   2.343
72514W        W31775   6.761  41.008  11.480
72515W        W31776  29.102  20.055  11.579
72516W        W31777  18.677  17.772  13.402
72517W        W31778   5.787  28.646  11.051
72518W        W31779   4.788   8.713  14.429
72519W        W31780  26.516   6.218   5.234
72520W        W31781  17.745  28.974   4.654
72521W        W31782  12.211  10.138  14.362
72522W        W31783  43.990  39.517   3.246
72523W        W31784  14.710  27.679   0.316
72524W        W31785  41.915  12.677  11.917
72525W        W31786   0.479   8.737  10.919
72526W        W31787   8.352  16.074  10.411
72527W        W31788  18.744  25.554  14.383
72528W        W31789  24.063  35.524   4.284
72529W        W31790  37.471  27.483   0.416
72530W        W31791  41.910   6.226   0.431
72531W        W31792  21.521  26.966   3.683
72532W        W31793  35.501   0.836  11.902
72533W        W31794  12.194  35.602   2.246
72534W        W31795  37.051  16.152  11.973
72535W        W31796  38.892  39.821   2.847
72536W        W31797  23.986  32.140  12.919
72537W        W31798  34.978  18.729   4.239
72538W        W31799  22.020  18.705  11.474
72539W        W31800  42.811  15.090   2.665
72540W        W31801  27.090  22.665  12.038
72541W        W31802  18.251   9.846   0.942
72542W        W31803  34.103  19.099  14.778
72543W        W31804   9.854  41.936   0.391
72544W        W31805  10.709   3.930   0.285
72545W        W31806  16.768   1.419  14.840
72546W        W31807  22.697  17.075  14.452
72547W        W31808   1.864   3.381   2.853
72548W        W31809  20.622   9.368   1.831
72549W        W31810  38.948  17.732   4.799
72550W        W31811  10.795  10.749  13.308
72551W        W31812  34.415  24.581  12.418
72552W        W31813   0.358   0.295  11.534
72553W        W31814  40.883   1.303   1.890
72554W        W31815  20.768  41.871   1.707
72555W        W31816  39.515  37.356   4.332
72556W        W31817  22.523  37.050   2.364
72557W        W31818  32.514   6.740  14.415
72558W        W31819  34.578  16.730  13.460
72559W        W31820  25.045  34.393  12.985
72560W        W31821  29.045  36.030  12.395
72561W        W31822  14.738  25.140   1.426
72562W        W31823   8.390  27.508   4.240
72563W        W31824  44.388  32.516   1.800
72564W        W31825   3.740  39.329   4.181
72565W        W31826  37.914  22.594   0.283
72566W        W31827  38.998  23.029   0.356
72567W        W31828  22.663   7.295  13.481
72568W        W31829  24.994  19.640   3.385
72569W        W31830  12.711  10.871   0.479
72570W        W31831  19.713   4.784  14.819
72571W        W31832  19.726   2.756  13.403
72572W        W31833  27.643   6.685  11.951
72573W        W31834  37.972  26.698  14.796
72574W        W31835  26.200  38.848  14.473
72575W        W31836  27.091  39.421  14.490
72576W        W31837  43.014  15.243  11.873
72577W        W31838  19.535  39.015  14.959
72578W        W31839  42.323  20.153   1.728
72579W        W31840  30.945  24.053   4.708
72580W        W31841  26.084  28.931   2.199
72581W        W31842  35.524  23.099  12.960
72582W        W31843  40.036  43.443   3.304
72583W        W31844   4.821  34.432   4.832
72584W        W31845  20.586  34.535  12.032
72585W        W31846   6.193  22.540  10.976
72586W        W31847  10.227  30.413   5.103
72587W        W31848  44.770  44.002   3.253
72588W        W31849  29.068   3.794   4.802
72589W        W31850  16.578   3.409   4.212
72590W        W31851  32.566  43.829   3.181
72591W        W31852  38.394  16.293  13.972
72592W        W31853  29.150   2.865   2.311
72593W        W31854  27.094  38.899  10.004
72594W        W31855  29.102   6.343  10.948
72595W        W31856  39.893  13.134  14.795
72596W        W31857  20.080   5.814   0.435
72597W        W31858  15.180   3.386  11.932
72598W        W31859   3.831  16.176  14.277
72599W        W31860  36.871  17.586  14.937
72600W        W31861   8.263  25.071  12.902
72601W        W31862  42.422  38.008  12.085
72602W        W31863  35.974  41.354  14.815
72603W        W31864  14.824  13.819   2.865
72604W        W31865  44.809  42.319  11.075
72605W        W31866  26.951  15.315  12.824
72606W        W31867  43.493  43.765   0.433
72607W        W31868  23.618  10.701  13.319
72608W        W31869   3.275  43.272   2.203
72609W        W31870   7.880  17.688  11.496
72610W        W31871  18.256  44.318   2.846
72611W        W31872   1.454  12.149   0.827
72612W        W31873  29.023   6.801  12.535
72613W        W31874  40.844  32.016  10.635
72614W        W31875  21.055  28.601  11.441
72615W        W31876  21.630  37.457   1.435
72616W        W31877   2.386  42.872  10.535
72617W        W31878  32.570   8.393   3.265
72618W        W31879  10.736  21.026   1.330
72619W        W31880  16.298  25.980   3.365
72620W        W31881  33.037  10.844   4.324
72621W        W31882  23.234  34.953   2.739
72622W        W31883  35.955   3.362   0.821
72623W        W31884   8.189  33.925   1.321
72624W        W31885  32.104  37.582   1.230
72625W        W31886  40.977  21.746   4.215
72626W        W31887  22.660  12.813  13.449
72627W        W31888   0.891  20.179  14.380
72628W        W31889  14.823   6.920  14.414
72629W        W31890  15.629  37.846  12.039
72630W        W31891  19.092  32.469  13.514
72631W        W31892   4.256  20.759  11.059
72632W        W31893   8.292  34.111   1.809
72633W        W31894  12.812   0.426   1.363
72634W        W31895  26.682  25.032   0.327
72635W        W31896  40.867  36.087  12.415
72636W        W31897  22.502  40.365   4.692
72637W        W31898  21.143  17.255  14.849
72638W        W31899  35.384  28.666  10.616
72639W        W31900  14.782  36.571  11.556
72640W        W31901  22.079  26.964   1.321
72641W        W31902  44.858  20.189  10.579
72642W        W31903  29.484   4.729   0.769
72643W        W31904  26.576   7.200  11.575
72644W        W31905  21.131  22.249  13.423
72645W        W31906  42.865  28.582   1.914
72646W        W31907  19.590  22.521   2.700
72647W        W31908  36.991  38.344  14.009
72648W        W31909   8.275   1.846   4.342
72649W        W31910  42.978  20.142  12.503
72650W        W31911  40.457  23.599   5.285
72651W        W31912  22.550  18.560   0.760
72652W        W31913  17.113   3.765  12.372
72653W        W31914  39.467   0.378   3.721
72654W        W31915  32.500  37.527  14.914
72655W        W31916  10.286  30.004  11.112
72656W        W31917  28.063  35.865  11.053
72657W        W31918  39.552  15.621   4.669
72658W        W31919  25.669   4.321   2.754
72659W        W31920  10.866  32.451  11.543
72660W        W31921  33.419  32.393  11.880
72661W        W31922  42.835  20.121   1.769
72662W        W31923  34.055  39.402   4.331
72663W        W31924  44.896  40.860   3.157
72664W        W31925  17.665  14.257  13.447
72665W        W31926  13.295  15.256  12.483
72666W        W31927  24.057  38.373   1.751
72667W        W31928  37.002  11.229   2.213
72668W        W31929   0.356  14.207   4.154
72669W        W31930  17.757  31.026   0.247
72670W        W31931  10.266  33.883  12.538
72671W        W31932  26.499   7.341  11.858
72672W        W31933  15.191  25.016   5.581
72673W        W31934   5.365   3.902  11.445
72674W        W31935  20.270   7.827  13.337
72675W        W31936  37.413  33.402  12.534
72676W        W31937  18.602  30.592   3.363
72677W        W31938  31.992  17.113  13.021
72678W        W31939  19.544  27.565  12.425
72679W        W31940   0.979   2.889  11.577
72680W        W31941   8.868  15.089   4.672
72681W        W31942   2.371  38.843   3.277
72682W        W31943  25.522  39.881  14.420
72683W        W31944  40.020  23.649  10.032
72684W        W31945  23.528   8.374  13.807
72685W        W31946  23.716   9.293   2.303
72686W        W31947   6.878  19.099  12.931
72687W        W31948  40.427  27.177   1.443
72688W        W31949  19.750  31.578  14.442
72689W        W31950   1.920  11.833   1.768
72690W        W31951  37.433  14.663  12.864
72691W        W31952  25.469  19.739  11.077
72692W        W31953  35.591  25.054  14.327
72693W        W31954  23.714  30.652  12.014
72694W        W31955   1.430  35.567   1.739
72695W        W31956  41.538  21.648   1.288
72696W        W31957  43.905   9.660  14.506
72697W        W31958  24.106  36.537  10.474
72698W        W31959   9.774   4.774   2.241
72699W        W31960  30.147  10.197  14.796
72700W        W31961  30.596  38.002   1.814
72701W        W31962   7.796  10.658   1.731
72702W        W31963   4.724  39.027  13.480
72703W        W31964   8.743   4.213  10.063
72704W        W31965  25.150  19.591   0.399
72705W        W31966  12.690  25.474   0.281
72706W        W31967   0.838  18.189  14.938
72707W        W31968  16.072  41.486   3.335
72708W        W31969  15.666   9.819   3.289
72709W        W31970  19.227   1.842   4.261
72710W        W31971  10.701  36.967  12.864
72711W        W31972  34.894   1.953   5.306
72712W        W31973   4.896  33.095   2.416
72713W        W31974  36.992  29.132   0.248
72714W        W31975  39.369  31.443  14.982
72715W        W31976  21.169  36.992  12.002
72716W        W31977   1.756  34.117  10.585
72717W        W31978  40.041  18.144  13.389
72718W        W31979  17.222   1.845  11.535
72719W        W31980  13.148  12.770  12.571
72720W        W31981  33.613   8.656   2.202
72721W        W31982  41.922  12.354   3.375
72722W        W31983  42.890   4.356   0.833
72723W        W31984  11.788   1.289  13.977
72724W        W31985  24.222  34.026   2.324
72725W        W31986  15.285  35.000  14.435
72726W        W31987   7.295  26.501  10.631
72727W        W31988  37.954  37.006  12.487
72728W        W31989  38.009  28.058  12.578
72729W        W31990  34.519   7.219  13.872
72730W        W31991  39.347   6.199  13.926
72731W        W31992  34.867  12.307   2.304
72732W        W31993  22.630  20.113  11.581
72733W        W31994  43.965  40.331  13.018
72734W        W31995  37.555  27.533  12.976
72735W        W31996  18.603   0.457   0.855
72736W        W31997  43.352   6.380   3.267
72737W        W31998  25.712   4.271  14.318
72738W        W31999  12.711   8.275   4.813
72739W        W32000   2.366   8.161   4.131
72740W        W32001  14.219  27.485   3.372
72741W        W32002   4.863  30.514   0.861
72742W        W32003  16.085  32.023   0.369
72743W        W32004  16.217  43.328   3.236
72744W        W32005  12.321   1.258   3.778
72745W        W32006   5.339  18.672   9.971
72746W        W32007  23.641   0.912  11.603
72747W        W32008  29.104  19.671  14.434
72748W        W32009  21.219  32.142  14.865
72749W        W32010  29.544  37.560   3.181
72750W        W32011  10.763  38.520   2.184
72751W        W32012  18.766   8.741   3.650
72752W        W32013  33.081  13.770  10.945
72753W        W32014  40.048  44.402   4.658
72754W        W32015  42.428  14.174  14.485
72755W        W32016  37.895  11.785  12.575
72756W        W32017   8.851  37.441   2.307
72757W        W32018  25.514   8.714  13.965
72758W        W32019  38.975  17.570   3.326
72759W        W32020  12.330   6.260  12.508
72760W        W32021  12.284   1.285   0.439
72761W        W32022  44.964  23.635  12.489
72762W        W32023   1.757  39.055  12.365
72763W        W32024  10.226  36.557  10.044
72764W        W32025   0.425  34.115   0.341
72765W        W32026   0.473  37.471   5.238
72766W        W32027  18.565  43.328  13.496
72767W        W32028   7.886  18.566  13.873
72768W        W32029  39.843  28.681  12.049
72769W        W32030   5.368   8.800   2.281
72770W        W32031   4.806  22.195   2.848
72771W        W32032  23.521  29.036  13.820
72772W        W32033  33.994  34.879  13.059
72773W        W32034  12.837  32.935   2.872
72774W        W32035  44.909  39.452  11.603
72775W        W32036   5.711   2.830   1.771
72776W        W32037   5.371   0.908   4.198
72777W        W32038  44.906  30.489  12.916
72778W        W32039  20.710  28.556  13.937
72779W        W32040  35.059  33.531  14.367
72780W        W32041  19.114  43.460  14.457
72781W        W32042  35.583  17.624  12.834
72782W        W32043  35.065  25.211  14.437
72783W        W32044   2.750   4.330  10.918
72784W        W32045  40.388  39.499  11.862
72785W        W32046  22.077   7.893   3.773
72786W        W32047  31.466  24.176  14.904
72787W        W32048  35.924  12.215  14.473
72788W        W32049  22.095  25.120  13.953
72789W        W32050   4.711  35.013  11.916
72790W        W32051   4.328   5.220   1.374
72791W        W32052   5.707  16.160  11.495
72792W        W32053   1.808  28.013  12.542
72793W        W32054  19.231   3.951   0.810
72794W        W32055  25.180  20.642   4.729
72795W        W32056  19.122   5.846  13.403
72796W        W32057  41.377   4.887  12.084
72797W        W32058  34.469  25.120   4.722
72798W        W32059  25.690  32.423   3.177
72799W        W32060  43.998  10.783   0.787
72800W        W32061  20.605  15.646  11.121
72801W        W32062  22.628  44.399   1.796
72802W        W32063  32.993  40.483   2.761
72803W        W32064  18.103  18.597   3.378
72804W        W32065   7.190   3.330   3.665
72805W        W32066  20.677   7.407   1.792
72806W        W32067  31.642  37.931  11.127
72807W        W32068  20.598  41.816  12.519
72808W        W32069  24.600  43.926   2.334
72809W        W32070  29.583  12.336  11.060
72810W        W32071  22.027  31.938  14.281
72811W        W32072  30.604   8.301  11.563
72812W        W32073   7.694  23.623   0.928
72813W        W32074  32.118  15.119  12.997
72814W        W32075  10.737  43.284   0.464
72815W        W32076   1.917  27.014  12.053
72816W        W32077   0.863  16.158   1.301
72817W        W32078  36.443  36.993  11.455
72818W        W32079  34.471  35.392   4.819
72819W        W32080   9.814  31.981   3.803
72820W        W32081   7.842  25.075  10.645
72821W        W32082  27.083   7.723   1.773
72822W        W32083  42.820  14.777   4.165
72823W        W32084   2.390   4.816   5.304
72824W        W32085  26.588  37.894  11.919
72825W        W32086  38.515   6.706   3.311
72826W        W32087  35.430  18.171  11.910
72827W        W32088  19.144  14.716  12.878
72828W        W32089  23.702  38.051  12.402
72829W        W32090  30.959  20.046   0.287
72830W        W32091  35.973   3.804  12.354
72831W        W32092  36.411  41.407   1.332
72832W        W32093   6.212   9.845  12.913
72833W        W32094  23.575   9.358   1.825
72834W        W32095   8.761  27.601  14.841
72835W        W32096  41.500  10.285  12.832
72836W        W32097  32.121  36.847  11.008
72837W        W32098   3.846  22.604   1.283
72838W        W32099  28.994  43.850   4.188
72839W        W32100   8.269  18.291   4.613
72840W        W32101  28.563  10.752   3.359
72841W        W32102  24.017  16.277   3.856
72842W        W32103  23.218  41.797   3.297
72843W        W32104  23.026   6.754  11.590
72844W        W32105  38.445   5.857  14.880
72845W        W32106  39.440  11.666   4.269
72846W        W32107  23.033  25.163   4.230
72847W        W32108  21.082   6.790   1.386
72848W        W32109  40.429  13.715   2.411
72849W        W32110  42.512  18.569   5.186
72850W        W32111  40.798  25.171  12.435
72851W        W32112  21.033   3.429  10.939
72852W        W32113  23.646   0.907  14.768
72853W        W32114  43.274   7.911  11.453
72854W        W32115  17.241  43.378   1.344
72855W        W32116  35.380  28.090  12.905
72856W        W32117  10.153   6.699  10.635
72857W        W32118  12.822  20.558   0.938
72858W        W32119  26.583   9.213  10.971
72859W        W32120  26.130  43.985   3.148
72860W        W32121  33.411  16.185   3.855
72861W        W32122  18.096  34.557  12.855
72862W        W32123  22.586   7.390   4.328
72863W        W32124  32.953  23.135  13.444
72864W        W32125  16.169  20.745   0.355
72865W        W32126  19.658  25.546  12.919
72866W        W32127  27.146   6.206  12.072
72867W        W32128  16.628  36.962  12.377
72868W        W32129  18.108  41.381  10.609
72869W        W32130  16.735  43.775   2.209
72870W        W32131  41.313   0.303   2.391
72871W        W32132  11.368   6.762  11.465
72872W        W32133  25.091  17.098  10.968
72873W        W32134  10.360  17.748   2.893
72874W        W32135   9.372  37.467   0.447
72875W        W32136  32.083  32.009   1.793
72876W        W32137  20.047  33.120  12.387
72877W        W32138  33.601  42.821   0.272
72878W        W32139  35.477  10.238   0.455
72879W        W32140  38.463  42.781  13.470
72880W        W32141  18.291  24.076  13.339
72881W        W32142   4.789  10.226   2.679
72882W        W32143  41.527  25.467  11.876
72883W        W32144  38.011  14.615   0.876
72884W        W32145  33.119  30.455  11.007
72885W        W32146  12.787  19.082  11.482
72886W        W32147   4.761  40.533   1.369
72887W        W32148  34.511  15.657  11.994
72888W        W32149  44.787   7.239  10.416
72889W        W32150  42.805  22.736  11.439
72890W        W32151  37.442  30.026   3.352
72891W        W32152  11.803  16.767   1.752
72892W        W32153   7.735  15.276  11.458
72893W        W32154  14.638   6.248   5.695
72894W        W32155  28.521  36.459   2.372
72895W        W32156  43.851   1.260  12.829
72896W        W32157  44.767   2.749   0.434
72897W        W32158  10.166   2.415  13.835
72898W        W32159  21.511  16.787  12.349
72899W        W32160  21.556   8.674  10.990
72900W        W32161  43.339   0.428  14.766
72901W        W32162  43.430   4.423   2.744
72902W        W32163  15.298   8.370  12.004
72903W        W32164  22.629   0.435  14.909
72904W        W32165  11.253  25.493   1.393
72905W        W32166  24.697  44.399  14.950
72906W        W32167   7.714  38.855  10.469
72907W        W32168   8.756  35.045   4.724
72908W        W32169  22.023  24.155  14.880
72909W        W32170  22.210  18.183   0.897
72910W        W32171  26.140   0.378   4.609
72911W        W32172   1.813  37.925   2.253
72912W        W32173  19.147   0.470  13.904
72913W        W32174  40.326  18.250   4.597
72914W        W32175  13.173  23.213  11.512
72915W        W32176  32.516  33.597  14.470
72916W        W32177  44.794  25.106  11.062
72917W        W32178  35.889   5.785   5.098
72918W        W32179  18.130  22.250   2.330
72919W        W32180  33.524   5.217  12.579
72920W        W32181  19.263  13.643  13.465
72921W        W32182   4.400  39.830   4.813
72922W        W32183  35.441  25.008   4.644
72923W        W32184  36.568   2.299  12.084
72924W        W32185  44.875  28.554   0.777
72925W        W32186  25.133  17.664  13.833
72926W        W32187   0.789  39.964   1.424
72927W        W32188  28.083  18.557  11.078
72928W        W32189  34.040  33.580  11.930
72929W        W32190  21.725   6.203  13.963
72930W        W32191  30.119  13.842   4.165
72931W        W32192   9.348  27.190  11.451
72932W        W32193  34.478   7.679  14.330
72933W        W32194  11.312  20.077  10.953
72934W        W32195  11.722  27.528  14.910
72935W        W32196  19.678  19.588  11.040
72936W        W32197  40.035   5.757  14.347
72937W        W32198  31.600  40.880   3.174
72938W        W32199   1.839  37.428   4.203
72939W        W32200  11.706  21.646  11.865
72940W        W32201  14.206  25.555   4.347
72941W        W32202   5.386   3.327   4.149
72942W        W32203  22.711  13.207  14.426
72943W        W32204  19.636  36.097  11.443
72944W        W32205  20.187  28.115  13.523
72945W        W32206  23.720  20.137   1.834
72946W        W32207  34.588   5.717  12.835
72947W        W32208  44.359   8.373   0.850
72948W        W32209  26.079  44.913  14.507
72949W        W32210  37.870  26.578  12.415
72950W        W32211   7.699  15.094   4.811
72951W        W32212  13.774  27.563  10.050
72952W        W32213  44.365  29.616  13.028
72953W        W32214  11.661  23.192  12.919
72954W        W32215  35.094   3.321  12.490
72955W        W32216  18.052  29.123   4.716
72956W        W32217   6.352  25.038  13.424
72957W        W32218  27.016   6.856   0.752
72958W        W32219  23.241  14.670   2.873
72959W        W32220  17.749  16.780   1.404
72960W        W32221  39.376   6.887  13.459
72961W        W32222  42.928  34.887  12.893
72962W        W32223  37.443  41.494   3.308
72963W        W32224  15.651  40.518   3.354
72964W        W32225  16.724  25.130  14.765
72965W        W32226  34.957  15.319   0.363
72966W        W32227  27.586  30.501  12.446
72967W        W32228  30.508  17.296   3.761
72968W        W32229   5.323   0.905  11.601
72969W        W32230  33.511   3.865   0.865
72970W        W32231   7.879  33.523   2.291
72971W        W32232  10.654  14.323  10.641
72972W        W32233  40.380  23.535   2.249
72973W        W32234  28.673  37.876  12.552
72974W        W32235  39.946  29.666  13.320
72975W        W32236  30.514  22.230  10.480
72976W        W32237  25.585  40.826   2.202
72977W        W32238  23.496  19.167   2.339
72978W        W32239  15.792   0.397   3.319
72979W        W32240  25.679  38.060  12.453
72980W        W32241  33.036  29.109   1.813
72981W        W32242  19.607  37.041   0.267
72982W        W32243  44.922   0.453  11.861
72983W        W32244  10.671  29.976  14.418
72984W        W32245  10.351  36.402   3.387
72985W        W32246  34.547  32.978  13.057
72986W        W32247  32.633   7.401  11.542
72987W        W32248  10.708  18.087   0.308
72988W        W32249  32.005  16.234   0.465
72989W        W32250  20.184  36.395  12.895
72990W        W32251  23.075  41.860  13.863
72991W        W32252  44.923  16.304  14.782
72992W        W32253  14.103  24.187  12.496
72993W        W32254   4.880  29.567   3.251
72994W        W32255   7.353  28.001   0.830
72995W        W32256   0.248  22.223  13.486
72996W        W32257   3.235  40.891   3.220
72997W        W32258  16.584  44.976  10.571
72998W        W32259  13.195   0.356  11.957
72999W        W32260  29.517  32.618   9.617
73000W        W32261  18.728  12.749  12.999
73001W        W32262  15.696  36.554   0.358
73002W        W32263  43.796  26.484   3.742
73003W        W32264  27.159   2.325  14.298
73004W        W32265   4.337  14.824  11.423
73005W        W32266  38.450  12.285  10.621
73006W        W32267  22.108  24.045   0.385
73007W        W32268   6.759  42.996   1.917
73008W        W32269  18.548  32.482   3.656
73009W        W32270  39.330   1.381   1.291
73010W        W32271  23.644  33.935  12.052
73011W        W32272  16.141  12.680   4.786
73012W        W32273  41.890  15.153  14.884
73013W        W32274  44.770  15.084  11.081
73014W        W32275  28.665   0.877   1.362
73015W        W32276  39.977  19.607   1.251
73016W        W32277  41.519  18.238  11.864
73017W        W32278  16.213  29.027   0.462
73018W        W32279  23.075   7.368   3.651
73019W        W32280  23.162   9.214  14.913
73020W        W32281  26.094   3.346  12.874
73021W        W32282   5.350  29.491   4.268
73022W        W32283  35.527   3.436   1.802
73023W        W32284  14.120  15.593  12.449
73024W        W32285  17.568  39.029  13.055
73025W        W32286  35.044  37.496   1.219
73026W        W32287   5.724  37.847   2.878
73027W        W32288   4.870  11.811  11.045
73028W        W32289   5.248  12.801  13.390
73029W        W32290  32.574  10.184   1.697
73030W        W32291  29.586  36.461   3.653
73031W        W32292   9.866  16.191  14.902
73032W        W32293  30.063  20.063  10.546
73033W        W32294  29.449  15.686   5.112
73034W        W32295   2.736  16.618  14.483
73035W        W32296   8.737   7.772   3.673
73036W        W32297  30.485  19.705   1.756
73037W        W32298  20.757   3.267   4.639
73038W        W32299  24.654  21.530   1.759
73039W        W32300  30.984  36.515  11.040
73040W        W32301  31.919   0.941   2.690
73041W        W32302   2.372   9.862   2.293
73042W        W32303  16.725  12.131  14.486
73043W        W32304  34.075  31.546  14.938
73044W        W32305  32.056   1.382  13.838
73045W        W32306  25.023  11.863  12.512
73046W        W32307  34.451  20.570   2.729
73047W        W32308  19.166   8.300   4.825
73048W        W32309  12.148  24.975  12.397
73049W        W32310   5.427  10.288  13.530
73050W        W32311  11.131  26.515   0.745
73051W        W32312  16.806  29.639   4.195
73052W        W32313   8.866  31.592   0.895
73053W        W32314  10.167   6.245   2.317
73054W        W32315  30.933  38.544   0.885
73055W        W32316   3.285   7.359  12.873
73056W        W32317   8.891  28.964  10.964
73057W        W32318  36.561  29.537  14.782
73058W        W32319  39.040  24.673   5.293
73059W        W32320  36.547  17.646   2.900
73060W        W32321  22.686  31.014   0.307
73061W        W32322  17.226  35.488  13.967
73062W        W32323  35.526   4.844  12.467
73063W        W32324  13.185  21.139  10.047
73064W        W32325  30.044   6.219  11.415
73065W        W32326  32.490  30.520   2.346
73066W        W32327   5.912  40.052  12.339
73067W        W32328  13.110  27.053  14.404
73068W        W32329  11.690  36.526  13.934
73069W        W32330  15.121  23.205   4.808
73070W        W32331  43.837  43.878  14.446
73071W        W32332  12.294   3.324   3.760
73072W        W32333   4.357  14.633  14.781
73073W        W32334  42.425  14.127   0.803
73074W        W32335  17.682  14.270  12.356
73075W        W32336   6.857  24.597  13.060
73076W        W32337   5.257  27.615  13.058
73077W        W32338   1.788  24.646  12.495
73078W        W32339   6.892  30.529   1.788
73079W        W32340  41.436  26.592   1.698
73080W        W32341   5.783  28.481  14.468
73081W        W32342  40.872  33.940   4.688
73082W        W32343   7.901   7.235   3.228
73083W        W32344  30.101   7.226   0.456
73084W        W32345  31.016  44.797  11.524
73085W        W32346   7.833  38.953  11.905
73086W        W32347   9.177   9.844  12.457
73087W        W32348  29.596  13.249  11.125
73088W        W32349  17.573  13.817   2.330
73089W        W32350  40.373  17.778  14.013
73090W        W32351  10.340  23.234  13.949
73091W        W32352  19.194  15.164   0.838
73092W        W32353   1.924  40.991  10.986
73093W        W32354  31.005  36.550  12.359
73094W        W32355   8.805  30.503   2.355
73095W        W32356   4.731   4.730  13.440
73096W        W32357  44.940   2.743   2.898
73097W        W32358  30.510   9.814  11.554
73098W        W32359  43.801   6.362  11.901
73099W        W32360   0.765  39.894  14.514
73100W        W32361   2.806   0.906  14.424
73101W        W32362  37.520  31.436   2.895
73102W        W32363  21.612  35.004  13.460
73103W        W32364  36.357   6.218   3.848
73104W        W32365  37.554  23.157  11.096
73105W        W32366  39.408  41.342   0.853
73106W        W32367  43.002  40.022  14.279
73107W        W32368  27.028  42.527   4.607
73108W        W32369  18.782   0.330  12.532
73109W        W32370  42.798  31.897   1.280
73110W        W32371  28.657   1.870   0.311
73111W        W32372  27.610  24.005  14.512
73112W        W32373  10.274  10.834   1.784
73113W        W32374  38.870  14.302  13.384
73114W        W32375  18.206   2.339  11.980
73115W        W32376  40.929  15.123   5.732
73116W        W32377  25.972   6.805  14.367
73117W        W32378  15.799   0.756  14.489
73118W        W32379  31.134  13.613   2.396
73119W        W32380  15.318  37.580   4.298
73120W        W32381  13.699  19.159   0.896
73121W        W32382  20.038   4.753  13.325
73122W        W32383  42.831   3.214   1.779
73123W        W32384  44.263  30.029   0.881
73124W        W32385  40.340  44.995   2.718
73125W        W32386  10.786  39.823   2.183
73126W        W32387  10.686   2.733   2.802
73127W        W32388  30.658  43.327   0.872
73128W        W32389  41.338  27.984  13.464
73129W        W32390  43.774  26.665   1.809
73130W        W32391  19.596  27.077   1.870
73131W        W32392  35.394  16.161   4.674
73132W        W32393  12.146  24.175  10.978
73133W        W32394  32.922  13.144  11.584
73134W        W32395   1.393  13.741  14.312
73135W        W32396  44.349  23.240   3.851
73136W        W32397  31.147  29.577   2.813
73137W        W32398  41.417  29.052  11.457
73138W        W32399  24.978  34.527   4.334
73139W        W32400  36.384  39.032   5.275
73140W        W32401  14.313  43.402   1.264
73141W        W32402  15.129  32.889   0.935
73142W        W32403   4.698  33.991  13.491
73143W        W32404  11.651  26.093   4.763
73144W        W32405  34.919  18.777  13.473
73145W        W32406  28.091   2.730   5.092
73146W        W32407  20.034   5.420  11.596
73147W        W32408  24.680  11.322  12.554
73148W        W32409  30.589  23.108  12.520
73149W        W32410   9.201  32.580   4.795
73150W        W32411  20.181  25.507   4.801
73151W        W32412   5.703  35.376  13.447
73152W        W32413  11.647  19.563   1.932
73153W        W32414   6.354  39.964  14.026
73154W        W32415  21.722  15.120  13.312
73155W        W32416  44.808   3.454  13.435
73156W        W32417  33.588  36.582   0.259
73157W        W32418  23.562   0.836   2.688
73158W        W32419  26.207  28.995  14.463
73159W        W32420  39.320  17.252   3.645
73160W        W32421  35.575  28.456  14.956
73161W        W32422  28.990  37.515   1.326
73162W        W32423  35.447  13.634  10.509
73163W        W32424  10.797  41.848  12.411
73164W        W32425  28.959  24.623  14.447
73165W        W32426   3.219  24.131  13.479
73166W        W32427  23.614  14.177  12.470
73167W        W32428  40.997   2.938   2.324
73168W        W32429  39.921  20.111   4.199
73169W        W32430  13.132  25.592   0.403
73170W        W32431   4.821  16.678   3.386
73171W        W32432  41.466  41.354   1.365
73172W        W32433  28.661   2.951  13.308
73173W        W32434  33.121   2.283  11.055
73174W        W32435  18.210  11.252  11.497
73175W        W32436  34.992   5.269  11.061
73176W        W32437  44.001  12.811   2.854
73177W        W32438   4.232  39.354   2.797
73178W        W32439  42.356  23.573  12.442
73179W        W32440  11.686   3.818   4.725
73180W        W32441  38.465  33.993  10.614
73181W        W32442  23.525  33.523  14.773
73182W        W32443  42.310  43.290   0.822
73183W        W32444  40.444  17.227   0.916
73184W        W32445  13.720   9.302  13.053
73185W        W32446   0.348  17.575  12.081
73186W        W32447  27.946   7.276  13.398
73187W        W32448  20.230  19.666  13.804
73188W        W32449  11.266  27.447  14.786
73189W        W32450  34.980   3.879  14.361
73190W        W32451  21.252   5.288   1.358
73191W        W32452  21.134  29.507  13.307
73192W        W32453   5.314  16.767  11.520
73193W        W32454  10.314  10.760  13.894
73194W        W32455   7.836  23.608   4.810
73195W        W32456  35.506   7.717   9.443
73196W        W32457  23.505  11.712   3.237
73197W        W32458  40.368  32.141   0.898
73198W        W32459   8.379  22.591  10.500
73199W        W32460  16.731  33.887  13.981
73200W        W32461  16.311   1.382  11.065
73201W        W32462  27.975   7.313   4.721
73202W        W32463  22.505  17.097   1.848
73203W        W32464  16.196  26.157  12.362
73204W        W32465  43.954   4.778  10.000
73205W        W32466   3.921   7.224   0.275
73206W        W32467  28.530  38.059   0.781
73207W        W32468  15.176  23.512  14.881
73208W        W32469  26.484   2.893   4.242
73209W        W32470  44.861  39.851   0.419
73210W        W32471  37.345  17.168   0.449
73211W        W32472  27.179  37.516  10.422
73212W        W32473  22.196  11.251  11.536
73213W        W32474  28.021  18.589  14.937
73214W        W32475  44.375  43.003   3.836
73215W        W32476  40.926  40.969  14.511
73216W        W32477  26.044  32.632   0.308
73217W        W32478  25.067   5.438   1.283
73218W        W32479  20.527  24.164   2.767
73219W        W32480  24.663   7.743  14.364
73220W        W32481  29.122  24.149   3.340
73221W        W32482  15.186  32.101   3.259
73222W        W32483   6.849  12.232   2.800
73223W        W32484  18.065  28.443  13.902
73224W        W32485  32.137  32.511  12.932
73225W        W32486  14.304  22.067   1.299
73226W        W32487  37.459  42.856   0.755
73227W        W32488  16.195  38.000   3.153
73228W        W32489  25.001  25.560  14.405
73229W        W32490  44.836  32.414  11.908
73230W        W32491  12.816  29.101   0.748
73231W        W32492  21.623  17.556  12.884
73232W        W32493  22.130  34.441   0.961
73233W        W32494  18.663  27.547   4.129
73234W        W32495   2.845  19.250  13.031
73235W        W32496  44.857  13.761   0.305
73236W        W32497  23.003  44.771   0.255
73237W        W32498  24.693  15.732   2.382
73238W        W32499  27.023   0.742   1.721
73239W        W32500   6.313   1.860   0.369
73240W        W32501   6.397  25.149   4.124
73241W        W32502  28.985  20.195  13.484
73242W        W32503   0.799   8.867  13.332
73243W        W32504  32.564  27.624  14.796
73244W        W32505   8.184  41.309   2.186
73245W        W32506   3.788  30.026   4.130
73246W        W32507  26.598   4.897   2.721
73247W        W32508  32.997   5.896  13.936
73248W        W32509  10.766  44.971   0.869
73249W        W32510  23.143  22.021  14.357
73250W        W32511  41.940  16.579   5.239
73251W        W32512  17.652   3.873  12.393
73252W        W32513  41.320  26.471   1.212
73253W        W32514   1.434   7.198   1.280
73254W        W32515  22.552  27.594   2.348
73255W        W32516  23.577  44.886  14.913
73256W        W32517  24.126   0.984   3.271
73257W        W32518  43.858  41.963   3.746
73258W        W32519   7.886  37.535   4.712
73259W        W32520  28.523   7.395  10.468
73260W        W32521  16.701  18.145   0.851
73261W        W32522  14.239  28.449  11.971
73262W        W32523  29.088   7.411  13.520
73263W        W32524  15.273  32.110  13.001
73264W        W32525   2.918  24.025  12.964
73265W        W32526   2.301  43.804   2.847
73266W        W32527  27.478  18.281  10.926
73267W        W32528   8.403  23.076   0.424
73268W        W32529  26.038   1.746  11.926
73269W        W32530  32.623  37.530   3.268
73270W        W32531  25.503  14.834   4.137
73271W        W32532  31.000  42.455  13.024
73272W        W32533  26.176  35.905  14.500
73273W        W32534  17.762  34.564  13.456
73274W        W32535  29.055   4.242   0.905
73275W        W32536  25.053  34.515  10.414
73276W        W32537  25.581  18.218   2.701
73277W        W32538   4.287   1.339   1.878
73278W        W32539   8.229  27.459  13.047
73279W        W32540  33.415  27.460  12.398
73280W        W32541  10.286  33.547   1.308
73281W        W32542  39.443   4.220   2.185
73282W        W32543  43.379  15.767  11.412
73283W        W32544  40.545  34.416  13.355
73284W        W32545   0.399  42.358   4.170
73285W        W32546  44.316  16.278   1.705
73286W        W32547  31.968  44.268  10.443
73287W        W32548  33.914   9.838  12.343
73288W        W32549   0.261  24.633  10.506
73289W        W32550  38.862   3.423   0.902
73290W        W32551  31.897  28.976   1.298
73291W        W32552   0.967   1.918   4.354
73292W        W32553  36.849   7.400  14.024
73293W        W32554  39.411  40.485   3.151
73294W        W32555  10.799  30.069  12.378
73295W        W32556  18.076  34.945  10.542
73296W        W32557  15.226  37.429   2.329
73297W        W32558  37.513  21.529   2.788
73298W        W32559  40.524  21.728  14.283
73299W        W32560  18.190  22.523  10.613
73300W        W32561  17.559   4.907  13.036
73301W        W32562  30.021  33.105   3.256
73302W        W32563  13.281  14.319   4.285
73303W        W32564  44.356   1.359   3.313
73304W        W32565  43.280  37.375  12.569
73305W        W32566  28.930  41.808  12.345
73306W        W32567   0.803  36.035  13.307
73307W        W32568  16.262   1.293   3.811
73308W        W32569  10.848  23.115  10.459
73309W        W32570  31.042  20.191  13.980
73310W        W32571  16.201   1.376  11.896
73311W        W32572  37.054  25.627   0.288
73312W        W32573  35.875  34.536   0.477
73313W        W32574  21.022  24.124   1.852
73314W        W32575  17.279  31.976   2.413
73315W        W32576  28.649  13.693   2.309
73316W        W32577   0.778  40.829  14.856
73317W        W32578  16.160  42.923  10.922
73318W        W32579   8.163  10.711   1.838
73319W        W32580  15.320  12.657   0.255
73320W        W32581   5.932  44.003   4.805
73321W        W32582  25.576  34.443  10.429
73322W        W32583   3.226  37.351   1.883
73323W        W32584   6.193  20.191  11.061
73324W        W32585   3.265  11.138   2.892
73325W        W32586   5.324  17.140   4.666
73326W        W32587   7.804  18.242  12.484
73327W        W32588  26.180  44.797   3.774
73328W        W32589  13.843  21.585  12.484
73329W        W32590   5.915   1.356  12.952
73330W        W32591   1.459   4.914  10.471
73331W        W32592  20.193   7.406  11.535
73332W        W32593  25.565  36.392  13.374
73333W        W32594  31.500  36.952  12.476
73334W        W32595  39.839  29.537   4.713
73335W        W32596  17.193  19.770  10.628
73336W        W32597  41.536  17.776  14.414
73337W        W32598  27.493  15.650  11.064
73338W        W32599  42.493  39.386   3.865
73339W        W32600   9.772   3.267   2.204
73340W        W32601  21.756  31.493  11.867
73341W        W32602  41.537  25.516  14.492
73342W        W32603  22.132  28.176   4.700
73343W        W32604  25.515   0.444  11.006
73344W        W32605   6.783   7.410  10.922
73345W        W32606  14.714  40.053  13.547
73346W        W32607  39.812   8.322   0.805
73347W        W32608  26.508  19.683  13.332
73348W        W32609  10.736  20.166  11.075
73349W        W32610  28.963  21.038  14.771
73350W        W32611  13.627   3.283   2.827
73351W        W32612   3.267  30.564  11.483
73352W        W32613  10.308   3.714  10.984
73353W        W32614   3.900  23.140   1.445
73354W        W32615  39.849  16.724   1.724
73355W        W32616  26.639  29.989   1.430
73356W        W32617  28.158   2.882   2.375
73357W        W32618  11.144  27.972   2.744
73358W        W32619  44.354  16.798   0.818
73359W        W32620  16.704  20.712   2.855
73360W        W32621   6.251  17.104  12.534
73361W        W32622  22.519   1.408  11.102
73362W        W32623  38.334  17.191  13.844
73363W        W32624  22.066  30.066  10.889
73364W        W32625  34.872   1.331  13.847
73365W        W32626  35.086  22.024  12.826
73366W        W32627   4.419  27.556  13.446
73367W        W32628  20.660  14.791   1.385
73368W        W32629  37.053  35.438  14.354
73369W        W32630   8.381   2.913  13.534
73370W        W32631  33.112  10.727   0.848
73371W        W32632  18.172   0.367   3.333
73372W        W32633  24.184  12.316   2.376
73373W        W32634  19.206  24.661   4.266
73374W        W32635   3.414  22.200  11.876
73375W        W32636  27.190  18.152  12.961
73376W        W32637  42.928  39.949  12.388
73377W        W32638  19.127  33.947  12.566
73378W        W32639   5.756  37.075   2.721
73379W        W32640   8.891  40.816   4.180
73380W        W32641  42.308  22.128   5.206
73381W        W32642   8.172  38.975   2.700
73382W        W32643  24.534   9.775   4.804
73383W        W32644  23.548   9.383   4.802
73384W        W32645  19.691  24.510   0.246
73385W        W32646   7.334   1.777   2.281
73386W        W32647  17.072  17.087  11.927
73387W        W32648  21.078   4.834  13.337
73388W        W32649  33.414  18.689  13.829
73389W        W32650   5.287  11.262   1.753
73390W        W32651  11.805   9.686  13.347
73391W        W32652  35.427   9.191  11.876
73392W        W32653  43.405  36.981  12.407
73393W        W32654  36.027   0.415  14.947
73394W        W32655  18.780  32.557   2.292
73395W        W32656   4.775   1.477  14.516
73396W        W32657  29.945   5.338  14.364
73397W        W32658  24.599  42.290   4.241
73398W        W32659  24.012  35.482   1.443
73399W        W32660   6.783  33.526   3.156
73400W        W32661  28.046  40.961  12.358
73401W        W32662  44.457  15.612  13.505
73402W        W32663  36.916   3.289  13.858
73403W        W32664  22.708  17.593  11.997
73404W        W32665   9.652   8.339  12.505
73405W        W32666  27.114  27.117   0.415
73406W        W32667   5.843  37.564  14.512
73407W        W32668   4.853  31.606  14.881
73408W        W32669  17.705  42.284   0.405
73409W        W32670   0.747  18.077   0.945
73410W        W32671  14.773  29.522  14.452
73411W        W32672  21.017  32.968   3.665
73412W        W32673  17.294  26.010  13.480
73413W        W32674  38.996  15.315  13.818
73414W        W32675  40.470  39.918   4.237
73415W        W32676  17.185  12.633  13.981
73416W        W32677  44.000  24.679  14.877
73417W        W32678   1.429  15.173  14.026
73418W        W32679  23.111  33.433  13.398
73419W        W32680  19.728  29.652   4.145
73420W        W32681   1.271   4.850  14.453
73421W        W32682  39.389  30.917  13.866
73422W        W32683  16.584   3.241   2.227
73423W        W32684  36.883   3.433   2.859
73424W        W32685  36.349  27.001  14.463
73425W        W32686  17.140  27.627   1.739
73426W        W32687  34.071  22.121  11.951
73427W        W32688  11.850   0.822   3.660
73428W        W32689  30.455  27.511   1.316
73429W        W32690  28.005  31.452   1.406
73430W        W32691  40.326  24.216   1.884
73431W        W32692  36.416   4.901  13.823
73432W        W32693  25.553  12.211  11.539
73433W        W32694   9.386   6.322  13.444
73434W        W32695   9.157  39.822  11.613
73435W        W32696  31.145  13.768   3.171
73436W        W32697  10.149  15.689   0.273
73437W        W32698  13.610   5.906   0.836
73438W        W32699  20.528   0.493  10.526
73439W        W32700  37.513  21.641  11.976
73440W        W32701   6.420  44.280   1.298
73441W        W32702  37.974  13.697   3.359
73442W        W32703   6.895  35.404  12.516
73443W        W32704  14.119  26.969   1.758
73444W        W32705   3.951  42.449   4.166
73445W        W32706  16.574   6.272   9.609
73446W        W32707  15.242  12.284   3.817
73447W        W32708   9.236  12.331  14.983
73448W        W32709  37.559   1.897  10.120
73449W        W32710  12.201  28.089   2.265
73450W        W32711  14.173  14.769  11.491
73451W        W32712   2.432  30.910   3.647
73452W        W32713  30.468  27.614   0.740
73453W        W32714  22.071   4.922   4.267
73454W        W32715  28.966  15.664  12.528
73455W        W32716  15.290  38.517   0.471
73456W        W32717  35.413   0.432  14.939
73457W        W32718   3.329  11.770  11.018
73458W        W32719  15.255  21.257  14.883
73459W        W32720  37.835   7.382  14.419
73460W        W32721   9.887   3.329  13.024
73461W        W32722  29.441  18.763   1.427
73462W        W32723  18.778  26.007   4.720
73463W        W32724  34.982  13.614   4.787
73464W        W32725  19.047  11.761  11.476
73465W        W32726  15.284  11.161   4.742
73466W        W32727  18.610   5.258   1.699
73467W        W32728  40.815  40.954  14.805
73468W        W32729  14.747  13.329  12.865
73469W        W32730  18.556  21.046  13.031
73470W        W32731  24.507  15.621   4.790
73471W        W32732  10.363  15.659  12.086
73472W        W32733  39.495  24.596  11.996
73473W        W32734   2.309  34.952   1.352
73474W        W32735   3.303  14.269   2.403
73475W        W32736  34.104  18.769   1.740
73476W        W32737  11.856  22.236  11.936
73477W        W32738  18.210  12.779  10.514
73478W        W32739  38.884  42.331  12.097
73479W        W32740  27.179  12.333  11.981
73480W        W32741  43.308  23.535  10.004
73481W        W32742  22.084  16.805   0.742
73482W        W32743  15.735   8.683  11.878
73483W        W32744  30.163  21.608  11.388
73484W        W32745  26.674   4.777   2.286
73485W        W32746   7.807  14.270  10.594
73486W        W32747  11.743  20.111  11.508
73487W        W32748  19.767   0.335   3.647
73488W        W32749  25.087  43.421   2.329
73489W        W32750   3.376  20.753   0.865
73490W        W32751  23.627  29.595  11.389
73491W        W32752  41.482  13.821   0.760
73492W        W32753  38.007  41.491  10.070
73493W        W32754  18.780  37.939  12.980
73494W        W32755  27.468  31.481  14.900
73495W        W32756  16.581   8.241   3.836
73496W        W32757  21.179  20.206   1.846
73497W        W32758   5.725  34.513  12.905
73498W        W32759  11.704  36.573   0.475
73499W        W32760   2.834   6.911  13.917
73500W        W32761  35.956  10.358   3.681
73501W        W32762  15.172  31.912  10.932
73502W        W32763  29.537  41.795   4.661
73503W        W32764  39.956  40.931   1.849
73504W        W32765  16.755  38.945   0.842
73505W        W32766  27.662  19.188  13.015
73506W        W32767   8.162   7.251  14.334
73507W        W32768  41.809  16.149   0.318
73508W        W32769  39.849  40.907  13.449
73509W        W32770  41.019  33.949   0.916
73510W        W32771  15.596  14.739  14.407
73511W        W32772   4.331  19.213   2.315
73512W        W32773   2.891  28.175  11.081
73513W        W32774  11.791  17.637   0.457
73514W        W32775  44.325  40.900   3.311
73515W        W32776  33.084  22.048   4.603
73516W        W32777  35.920   4.719   3.697
73517W        W32778  36.035  17.703  11.579
73518W        W32779  43.283  10.749   3.203
73519W        W32780   2.406  31.058  12.559
73520W        W32781  43.446  16.177   5.115
73521W        W32782  36.027  14.773   1.309
73522W        W32783   5.339  24.981   0.807
73523W        W32784   6.234  19.605  13.342
73524W        W32785   1.871  36.075  14.917
73525W        W32786  34.960  18.147  12.438
73526W        W32787  33.455  24.565   0.382
73527W        W32788  23.505  44.330  14.410
73528W        W32789   3.716   6.854  13.421
73529W        W32790  16.761  33.467  14.398
73530W        W32791  30.554  21.080  12.375
73531W        W32792  38.517   6.807  10.913
73532W        W32793  32.027  25.672  10.486
73533W        W32794  20.676  12.790   1.876
73534W        W32795  10.799   1.772   3.745
73535W        W32796  22.729  12.616   0.476
73536W        W32797  15.581  43.351  14.971
73537W        W32798  23.552  18.586  12.958
73538W        W32799  38.441   5.346  12.357
73539W        W32800   7.399   3.252   1.742
73540W        W32801  30.415  20.600   0.298
73541W        W32802  39.432  43.970   4.699
73542W        W32803  44.365  23.494  11.089
73543W        W32804  10.377  19.285   1.795
73544W        W32805  39.954  41.896  14.006
73545W        W32806  43.366  31.536  11.937
73546W        W32807   2.859  19.665   0.342
73547W        W32808   9.786  43.416   3.259
73548W        W32809  10.308  40.994  13.925
73549W        W32810   9.359   6.340   0.299
73550W        W32811  32.401   3.842   3.648
73551W        W32812  35.994  23.645   2.819
73552W        W32813  15.139  14.211  11.023
73553W        W32814  43.361  33.076  13.324
73554W        W32815  11.786  32.073  14.964
73555W        W32816   8.232  33.409  11.114
73556W        W32817  34.999   9.386  11.940
73557W        W32818   4.928  38.455  13.431
73558W        W32819   3.224  18.749  11.378
73559W        W32820  14.185  39.987   0.428
73560W        W32821  33.404  25.988   3.631
73561W        W32822  26.955  40.443   1.884
73562W        W32823  16.640  31.550   1.926
73563W        W32824  31.920  28.973  11.538
73564W        W32825  17.702  10.827  13.506
73565W        W32826  12.720  18.681  10.573
73566W        W32827  42.977   9.297   1.696
73567W        W32828  42.451   3.876  10.451
73568W        W32829   8.881  22.530   4.296
73569W        W32830  19.579   9.756  10.430
73570W        W32831   8.822  28.587  13.997
73571W        W32832   7.294   7.307  14.285
73572W        W32833  11.343  34.076  14.336
73573W        W32834  12.754  23.206   3.689
73574W        W32835  16.740   5.702  11.424
73575W        W32836  35.960  28.118   4.261
73576W        W32837  22.199  33.454  13.968
73577W        W32838  19.611  32.900  12.361
73578W        W32839  39.874  11.372  12.348
73579W        W32840  14.687  25.563  10.943
73580W        W32841  40.386  27.593  11.932
73581W        W32842  40.435  35.361   0.813
73582W        W32843  44.484  23.015   4.284
73583W        W32844  29.076  32.441   2.300
73584W        W32845   4.808   0.329  12.069
73585W        W32846   4.394  14.752  13.006
73586W        W32847  33.501  26.033  13.819
73587W        W32848  26.663  37.832   3.764
73588W        W32849   1.295   7.176  11.005
73589W        W32850  24.623  33.493  13.915
73590W        W32851   3.870   4.314  13.402
73591W        W32852  44.886  21.554   0.907
73592W        W32853  23.997  31.639   3.193
73593W        W32854  43.005  21.590  11.855
73594W        W32855  19.744  20.044  13.888
73595W        W32856  26.179  19.561   3.706
73596W        W32857   5.400  17.212  12.537
73597W        W32858  42.954  16.219   0.921
73598W        W32859  23.024   7.688   0.963
73599W        W32860   6.353  26.085  12.084
73600W        W32861  28.584  34.007  12.985
73601W        W32862   3.930  21.128   2.713
73602W        W32863  10.331  25.065   4.305
73603W        W32864  15.214  13.830   1.345
73604W        W32865  35.934   3.367  14.386
73605W        W32866  33.438  23.047   3.833
73606W        W32867   5.247  14.104   3.717
73607W        W32868  44.259  22.114   3.362
73608W        W32869  40.972  35.478  13.459
73609W        W32870   0.412  19.740   3.819
73610W        W32871   6.389   0.486   1.839
73611W        W32872  36.915  32.626  12.860
73612W        W32873  11.160  36.027   1.299
73613W        W32874   8.748  33.112  11.567
73614W        W32875  22.161  20.687   3.213
73615W        W32876  17.241  40.380  11.985
73616W        W32877  24.533  21.584   3.385
73617W        W32878  13.189   4.226  14.935
73618W        W32879  11.727  29.016  13.831
73619W        W32880  31.570  20.671   4.228
73620W        W32881  25.158  30.639   1.384
73621W        W32882  43.959  26.195   9.538
73622W        W32883  17.216  23.632  14.843
73623W        W32884  35.538  16.085   0.267
73624W        W32885  21.206   5.804   3.647
73625W        W32886   4.799  24.541   2.204
73626W        W32887   6.340  28.520  12.043
73627W        W32888  26.974  11.772   1.324
73628W        W32889  41.430  36.962  13.881
73629W        W32890  32.060  16.120  13.478
73630W        W32891  11.725   0.452   4.636
73631W        W32892  30.943   0.763   1.417
73632W        W32893   4.864  32.537   4.667
73633W        W32894   1.273  11.842  13.463
73634W        W32895  30.155   7.719  12.565
73635W        W32896  24.548  20.547   2.751
73636W        W32897  30.512  29.111  14.419
73637W        W32898   7.406  36.366  11.963
73638W        W32899   9.733  27.472  12.965
73639W        W32900  24.516   4.792  10.584
73640W        W32901  36.459  37.455  13.866
73641W        W32902  19.595   8.846   2.277
73642W        W32903   5.756  13.268  11.096
73643W        W32904  24.600  40.352  14.471
73644W        W32905   2.730   6.343   0.451
73645W        W32906  42.486  29.931   1.765
73646W        W32907  23.605   3.454   4.834
73647W        W32908  27.161   7.336   4.276
73648W        W32909  39.826  41.854  12.998
73649W        W32910   9.643  33.555  14.365
73650W        W32911   1.957   8.886   3.289
73651W        W32912   9.738  26.683  14.309
73652W        W32913   7.858  39.378   2.393
73653W        W32914  41.997  44.334  11.882
73654W        W32915  23.734  37.966   4.235
73655W        W32916   3.227   3.311   1.287
73656W        W32917  35.554   7.817   5.257
73657W        W32918  29.487   1.759  11.884
73658W        W32919  10.263  22.006  11.086
73659W        W32920   6.743  33.583  14.989
73660W        W32921   5.847  15.712   4.313
73661W        W32922  39.833  37.028   3.277
73662W        W32923  32.960  41.421  13.940
73663W        W32924  19.218  44.963  13.473
73664W        W32925  25.969  15.251  14.819
73665W        W32926  13.171  37.435   1.838
73666W        W32927  25.985  33.387   5.217
73667W        W32928  26.692   9.325   4.334
73668W        W32929  32.116   2.286  12.548
73669W        W32930  41.983   1.355   2.817
73670W        W32931  23.618   7.265  14.774
73671W        W32932  10.213  44.900  14.001
73672W        W32933  18.200  28.590  10.617
73673W        W32934  12.174  24.155  12.002
73674W        W32935  40.506  28.550  10.537
73675W        W32936  25.503  33.885  11.430
73676W        W32937   7.704  14.330   4.742
73677W        W32938   1.332  35.580   2.820
73678W        W32939   8.203  44.812  10.558
73679W        W32940  22.592  40.919  14.880
73680W        W32941   2.853  21.057   2.862
73681W        W32942  23.614  21.138   0.382
73682W        W32943  33.992  39.019  11.550
73683W        W32944   7.269  17.562   3.780
73684W        W32945  27.001  17.256   4.674
73685W        W32946  37.006  31.642  11.881
73686W        W32947  28.640   3.273  14.321
73687W        W32948  22.587   3.362  10.095
73688W        W32949   9.866  18.125   3.701
73689W        W32950  25.124  39.431  10.590
73690W        W32951  21.133  10.162  12.526
73691W        W32952   2.888  13.837  10.425
73692W        W32953   4.257  20.747   1.870
73693W        W32954  33.027   4.401  12.429
73694W        W32955  14.750  30.502   2.327
73695W        W32956  22.686  34.436  12.075
73696W        W32957  10.383  19.234  13.338
73697W        W32958  18.157  21.713   0.789
73698W        W32959  19.267  32.459   3.273
73699W        W32960  40.945  16.166   0.781
73700W        W32961  39.848  34.096   1.408
73701W        W32962  30.115   9.753  12.545
73702W        W32963  22.249   0.836   4.720
73703W        W32964  36.094  41.328  10.595
73704W        W32965   8.196  34.001  14.440
73705W        W32966  24.210  26.963  14.333
73706W        W32967  27.469  39.380   1.398
73707W        W32968  19.721   8.743   3.281
73708W        W32969   3.310  31.982  12.965
73709W        W32970  32.595  20.616   1.407
73710W        W32971  36.843   8.316   2.671
73711W        W32972  17.174  24.145  12.988
73712W        W32973   1.296  22.709  10.506
73713W        W32974  11.797  14.684   4.251
73714W        W32975   8.687  42.855  14.449
73715W        W32976  20.560   8.766   4.289
73716W        W32977  19.779  13.257   0.867
73717W        W32978  20.714  15.280   1.406
73718W        W32979  35.409  16.774  13.004
73719W        W32980  25.066  40.400  14.828
73720W        W32981  18.628  37.069  10.510
73721W        W32982  23.070  15.752   2.378
73722W        W32983   7.174  37.860   3.644
73723W        W32984  21.533   3.946  10.509
73724W        W32985  38.548  11.842  11.542
73725W        W32986  20.646  24.608   0.742
73726W        W32987  37.851   9.731   9.606
73727W        W32988  23.717  42.362   3.216
73728W        W32989  11.704   1.775   0.365
73729W        W32990   4.224  28.053   4.273
73730W        W32991  41.908  28.611   1.407
73731W        W32992  15.217  20.610  14.826
73732W        W32993  15.318  36.367  12.872
73733W        W32994  14.103  13.762   2.386
73734W        W32995  10.759  17.593   2.353
73735W        W32996  17.218   7.342  12.080
73736W        W32997  25.118  36.480   4.689
73737W        W32998   6.894  22.175  10.576
73738W        W32999  15.756  15.148   2.313
73739W        W33000   9.798  12.766  11.039
73740W        W33001   6.332  31.456   2.758
73741W        W33002  40.997  15.146  12.402
73742W        W33003  28.182   7.816   1.262
73743W        W33004   2.775  16.205  11.405
73744W        W33005   1.916   2.471  10.429
73745W        W33006  11.242  19.651   1.390
73746W        W33007  10.792  42.929   2.235
73747W        W33008  27.536  43.283   9.927
73748W        W33009  32.457  14.321   2.284
73749W        W33010  27.688  24.198  14.005
73750W        W33011  20.761  40.348  14.359
73751W        W33012  37.397  31.002  10.614
73752W        W33013  20.750  26.687   2.294
73753W        W33014  27.174  30.090   2.741
73754W        W33015  10.876  12.219   1.866
73755W        W33016   3.406  41.913   2.419
73756W        W33017  18.626  20.659   4.221
73757W        W33018  17.745  27.196  14.838
73758W        W33019   0.462  42.420   2.362
73759W        W33020  33.881  13.806  10.468
73760W        W33021  15.604  13.152   1.278
73761W        W33022  23.113  30.997  12.021
73762W        W33023  24.597  27.102  13.981
73763W        W33024   6.919  39.948   0.313
73764W        W33025   5.871  44.462   2.277
73765W        W33026  40.836   5.815   4.246
73766W        W33027  37.982   0.278  13.356
73767W        W33028  39.419  36.495   4.324
73768W        W33029   1.350   2.414   1.733
73769W        W33030  29.956   1.876  14.823
73770W        W33031   5.717  30.012  14.300
73771W        W33032   5.859   6.817  12.375
73772W        W33033   9.321  28.534  10.559
73773W        W33034  40.018  35.501  14.977
73774W        W33035  13.209  28.137  10.118
73775W        W33036   3.401  41.387   0.322
73776W        W33037   6.186  32.078  13.945
73777W        W33038   5.816  24.625   3.301
73778W        W33039  44.294   2.326   4.660
73779W        W33040  28.974   5.822  13.319
73780W        W33041  23.118  11.284  12.873
73781W        W33042   6.225   3.787   3.736
73782W        W33043  38.566  44.988  14.809
73783W        W33044   4.316   5.857  14.419
73784W        W33045   8.184  15.313  12.059
73785W        W33046  35.477  11.641  12.058
73786W        W33047  33.101  12.789   3.339
73787W        W33048  27.084  35.087  14.456
73788W        W33049  32.990  17.184  12.843
73789W        W33050  16.101  21.574   2.832
73790W        W33051  11.304  14.740  13.455
73791W        W33052  37.084  36.403   1.439
73792W        W33053  19.640  40.415   1.824
73793W        W33054  20.700   4.449  12.483
73794W        W33055   2.954  17.109   3.861
73795W        W33056  41.936  40.884   0.357
73796W        W33057  37.087  26.624  12.065
73797W        W33058  11.166  34.564  13.870
73798W        W33059  42.859  17.241  14.389
73799W        W33060  41.481  13.153   2.213
73800W        W33061   0.494  21.042   1.376
73801W        W33062  30.423   1.746  14.276
73802W        W33063  26.036  12.713  12.529
73803W        W33064  33.034  35.084   2.823
73804W        W33065  20.237  20.579  12.024
73805W        W33066  21.190   6.206  12.396
73806W        W33067  29.576  33.071   4.706
73807W        W33068  43.318  31.950  11.611
73808W        W33069  41.391  13.244  13.462
73809W        W33070  40.347  21.033   3.275
73810W        W33071  28.053   0.275  12.070
73811W        W33072  10.846  24.216  13.442
73812W        W33073  29.068  40.813  13.347
73813W        W33074  37.081  28.056  14.801
73814W        W33075  25.185   5.839   3.753
73815W        W33076  33.502   5.762  12.431
73816W        W33077  26.146  25.055  13.398
73817W        W33078  44.008   2.394   3.849
73818W        W33079  17.284  13.308  11.467
73819W        W33080  41.797  16.772   0.466
73820W        W33081  38.927  16.305   3.342
73821W        W33082   9.272  34.110  10.523
73822W        W33083   5.738  34.073  14.020
73823W        W33084   0.390   5.215   3.753
73824W        W33085  42.416  19.192   2.321
73825W        W33086  42.411  33.542  14.490
73826W        W33087  37.957   6.735  11.941
73827W        W33088   9.833  27.680   2.838
73828W        W33089  27.492   6.270   4.149
73829W        W33090  15.235  28.996   0.262
73830W        W33091  24.098  10.347  14.784
73831W        W33092  24.126  35.414  12.469
73832W        W33093  12.719  19.118   2.203
73833W        W33094  43.300  19.060   2.882
73834W        W33095  25.079  20.700  11.968
73835W        W33096  10.820  31.447  12.020
73836W        W33097  39.369  43.845   1.441
73837W        W33098  36.068  34.027   4.610
73838W        W33099  18.104   5.216   1.874
73839W        W33100  34.008  41.011   2.192
73840W        W33101  35.019  41.843   2.664
73841W        W33102   7.265   8.897   1.364
73842W        W33103  42.958  41.976   1.234
73843W        W33104   2.345  38.927   2.859
73844W        W33105  13.335  39.829  11.015
73845W        W33106  25.595  16.143   4.336
73846W        W33107  12.705  13.681   2.880
73847W        W33108   5.295   7.407  11.876
73848W        W33109  30.580   2.733  12.414
73849W        W33110  34.026  38.027   2.299
73850W        W33111  26.019  12.314   3.278
73851W        W33112  40.408  13.716  11.092
73852W        W33113  25.061  30.143  14.362
73853W        W33114  16.316  15.232   4.614
73854W        W33115  35.096  39.885   4.143
73855W        W33116  34.964  42.895   3.865
73856W        W33117   7.687  37.370   2.226
73857W        W33118  26.975  23.538   5.237
73858W        W33119  28.480  38.529  13.991
73859W        W33120  23.623  21.166  14.293
73860W        W33121  38.820  25.047  13.987
73861W        W33122  30.425  44.346  12.543
73862W        W33123  14.200  36.874   4.120
73863W        W33124  26.147  44.891  10.532
73864W        W33125  29.056  15.303   4.113
73865W        W33126  38.466  13.660   0.743
73866W        W33127  40.934  13.699   0.379
73867W        W33128  25.199   8.381  12.489
73868W        W33129  44.317  32.135  13.330
73869W        W33130  14.114  29.458   2.880
73870W        W33131  19.737  26.457  12.405
73871W        W33132  35.010  22.194  13.360
73872W        W33133  29.117  29.166   3.345
73873W        W33134  38.969  24.033   3.689
73874W        W33135  16.572   7.752   1.334
73875W        W33136   9.190  36.428   2.753
73876W        W33137   9.394   8.369  13.976
73877W        W33138   8.329  17.152  10.998
73878W        W33139  20.655   8.194  13.338
73879W        W33140  43.980  44.464   1.747
73880W        W33141  28.677  39.404   0.416
73881W        W33142   9.808  18.295  13.847
73882W        W33143  28.546   1.749  12.941
73883W        W33144  37.005   9.292  10.161
73884W        W33145  15.210   8.366   1.426
73885W        W33146   1.421  17.061   2.671
73886W        W33147  42.444  38.978   3.343
73887W        W33148  44.776  35.583  14.345
73888W        W33149  30.059  41.537   4.622
73889W        W33150  40.049  27.037  14.856
73890W        W33151  25.008  31.504   2.856
73891W        W33152   4.799  41.453   0.419
73892W        W33153  43.399   7.245   3.666
73893W        W33154  37.917   7.868   0.460
73894W        W33155   1.872  44.409  12.870
73895W        W33156   3.455  40.016  11.569
73896W        W33157  13.717  10.842  12.047
73897W        W33158  25.167  35.557  13.946
73898W        W33159  34.889   1.261  11.111
73899W        W33160   5.708   6.268   2.684
73900W        W33161   3.431  44.812  12.950
73901W        W33162  10.654  32.403   4.126
73902W        W33163   9.150  34.048   3.266
73903W        W33164  27.068  14.818  11.476
73904W        W33165  14.809  19.600  14.857
73905W        W33166  11.763  43.957   1.708
73906W        W33167  21.672  36.088  10.495
73907W        W33168  19.582  20.718  10.527
73908W        W33169  33.608  34.463  11.577
73909W        W33170  32.106  26.556   2.829
73910W        W33171   1.459  23.587  14.029
73911W        W33172  16.701  29.978   3.848
73912W        W33173   8.815  44.406  12.435
73913W        W33174  32.609  31.906  14.999
73914W        W33175  14.773  26.142   2.203
73915W        W33176  15.317  22.072   3.198
73916W        W33177  19.583   7.369   2.329
73917W        W33178  10.292  21.563   0.892
73918W        W33179  33.036  17.631   0.948
73919W        W33180  11.830  33.987   4.182
73920W        W33181  42.435  13.605  12.966
73921W        W33182  19.554   7.286   0.905
73922W        W33183  14.248  43.416   4.748
73923W        W33184  34.002   1.423  13.453
73924W        W33185  39.319  26.678  13.422
73925W        W33186  31.046  33.553  12.430
73926W        W33187   8.662  20.232   3.375
73927W        W33188  14.233  30.118   0.481
73928W        W33189  38.009  43.912  14.509
73929W        W33190  29.985  40.874   1.390
73930W        W33191  36.943  25.095  14.871
73931W        W33192  23.680  34.575  12.917
73932W        W33193  24.662  34.937  13.382
73933W        W33194  35.950  37.954   2.850
73934W        W33195   8.333  12.753   3.730
73935W        W33196  28.643  37.580  11.372
73936W        W33197   0.415  16.120  13.459
73937W        W33198  29.460  38.417  10.424
73938W        W33199  35.894   0.977   4.719
73939W        W33200   4.295  34.984   0.291
73940W        W33201   5.353  35.564  14.385
73941W        W33202  30.610  23.555  12.853
73942W        W33203  11.845  24.104   0.340
73943W        W33204  26.593   4.253  12.362
73944W        W33205   2.386  18.649  11.520
73945W        W33206  24.212   5.266   4.285
73946W        W33207  20.604   3.369  13.831
73947W        W33208  29.121  38.415   3.802
73948W        W33209  40.026  17.652  13.880
73949W        W33210  13.321  33.386   3.169
73950W        W33211  44.436  43.799  12.973
73951W        W33212   6.770  41.020  14.447
73952W        W33213  33.611   5.309   2.770
73953W        W33214  33.388  41.863   0.394
73954W        W33215  23.710  18.169   3.633
73955W        W33216   3.277   2.796  10.941
73956W        W33217  39.531  35.984  14.484
73957W        W33218  28.439  23.671  10.955
73958W        W33219   5.755  32.061  13.437
73959W        W33220  25.102  37.423  10.131
73960W        W33221  29.100   2.926  12.352
73961W        W33222  10.263  24.130   2.772
73962W        W33223  15.793  32.040  14.758
73963W        W33224  25.115  13.830  12.862
73964W        W33225  31.585  36.935  12.978
73965W        W33226  31.121  19.264   0.464
73966W        W33227  32.557  18.122   3.817
73967W        W33228   5.836  34.376  10.536
73968W        W33229   0.804  26.963  13.837
73969W        W33230  16.652   3.826  13.463
73970W        W33231   6.396   8.799  14.906
73971W        W33232  19.589   8.663   2.903
73972W        W33233  44.308  18.668   2.865
73973W        W33234  30.473  40.899  10.988
73974W        W33235  25.697   6.706   0.463
73975W        W33236  44.476  41.044   3.861
73976W        W33237  36.444  15.085   4.827
73977W        W33238  33.599  41.018  12.839
73978W        W33239  28.040  30.417   2.227
73979W        W33240   4.918  14.300  11.924
73980W        W33241  44.876  35.537  11.538
73981W        W33242  20.036  38.380  12.863
73982W        W33243  14.149  23.213   4.759
73983W        W33244   9.276  20.761  11.010
73984W        W33245  13.314  13.733   2.217
73985W        W33246  30.141  30.162   1.237
73986W        W33247   4.265   3.425   1.365
73987W        W33248  39.381  22.696  12.024
73988W        W33249  12.638   2.274   1.402
73989W        W33250   5.934  29.059   0.964
73990W        W33251  29.472  14.261   0.787
73991W        W33252  28.020  37.891   1.865
73992W        W33253  28.050  39.890  11.551
73993W        W33254  38.011  44.807  10.424
73994W        W33255  11.784   9.792   3.241
73995W        W33256  19.140  40.932  11.921
73996W        W33257  30.499   9.851  14.950
73997W        W33258  26.570  13.336   4.609
73998W        W33259  31.141  31.089   1.440
73999W        W33260  44.996  43.824  14.774
74000W        W33261  16.124  40.355  14.431
74001W        W33262   1.257  24.191   0.835
74002W        W33263   5.239  19.040  13.883
74003W        W33264  31.106  14.688  12.974
74004W        W33265  13.619  29.102   4.274
74005W        W33266  33.025  37.446   1.374
74006W        W33267  18.549  17.601   4.613
74007W        W33268   3.314   0.463   1.309
74008W        W33269   3.721   6.415  13.879
74009W        W33270  32.480  13.777   1.848
74010W        W33271  14.686  38.389  12.516
74011W        W33272  14.649  19.590   0.860
74012W        W33273  41.860   1.795  12.831
74013W        W33274   2.238  33.048   4.774
74014W        W33275  35.869  40.007  13.492
74015W        W33276  19.195  28.536   2.318
74016W        W33277  13.197  21.587   4.127
74017W        W33278  40.462  29.633   1.925
74018W        W33279  37.365   7.320   3.851
74019W        W33280  40.939  31.954   4.144
74020W        W33281  32.496  11.135  12.025
74021W        W33282   2.898  34.031   1.212
74022W        W33283   8.706  12.127   3.185
74023W        W33284   2.321  40.508  13.378
74024W        W33285   4.314   4.706   3.774
74025W        W33286  14.635  20.031   0.959
74026W        W33287   2.337  32.023   3.172
74027W        W33288  41.487  10.252   1.260
74028W        W33289  28.076   3.306   0.476
74029W        W33290  39.903   8.665   3.362
74030W        W33291  32.608  21.646  12.973
74031W        W33292  12.725  17.735   3.675
74032W        W33293   4.741  40.545   2.398
74033W        W33294   0.847  34.083   2.681
74034W        W33295  28.519  41.490   0.325
74035W        W33296  12.706  26.082   1.729
74036W        W33297  33.083  32.403  14.022
74037W        W33298  34.873  27.991  12.351
74038W        W33299  38.418   9.750  12.550
74039W        W33300  21.690  36.981   4.702
74040W        W33301   2.436  18.283   1.323
74041W        W33302  13.239  21.216  14.811
74042W        W33303  32.110   7.835  14.821
74043W        W33304  33.955  19.183  12.425
74044W        W33305  28.944  20.562  14.875
74045W        W33306  17.791  41.307   2.228
74046W        W33307  19.732  15.764  10.644
74047W        W33308  10.342  34.418   4.293
74048W        W33309  30.024   9.282   4.760
74049W        W33310  24.063  28.155   3.748
74050W        W33311  33.025  39.946   4.661
74051W        W33312  21.161  28.447   2.839
74052W        W33313  37.020  30.487   0.422
74053W        W33314  29.141  42.439   2.324
74054W        W33315   4.404  18.081   4.224
74055W        W33316  38.535  28.029  10.483
74056W        W33317  38.465  42.946  12.073
74057W        W33318   7.802  24.178   1.425
74058W        W33319  22.665  44.399  14.288
74059W        W33320  36.407   6.891  11.862
74060W        W33321  43.848   8.181   0.732
74061W        W33322  25.165  11.790   4.830
74062W        W33323  11.301   6.825  14.768
74063W        W33324  40.973  40.457   1.259
74064W        W33325   0.456  39.025   2.664
74065W        W33326   8.708   9.388   1.776
74066W        W33327  36.043   5.792  14.759
74067W        W33328   4.856  39.054  11.504
74068W        W33329  43.885  39.393  13.961
74069W        W33330  22.705  27.457   3.818
74070W        W33331  36.563  31.120   4.771
74071W        W33332  39.498   4.414   1.300
74072W        W33333  37.008   2.899  11.112
74073W        W33334  21.649   1.812   1.399
74074W        W33335  21.193  38.892  11.010
74075W        W33336  43.807  23.566  14.993
74076W        W33337   1.908  24.671  10.608
74077W        W33338   9.692  16.583  13.970
74078W        W33339  33.418  43.355   1.370
74079W        W33340  11.860  27.652  11.556
74080W        W33341  12.698  16.234   2.817
74081W        W33342  33.999  30.980   4.176
74082W        W33343  28.443  15.647  14.357
74083W        W33344  33.473  28.500   2.198
74084W        W33345  18.123  28.480  14.394
74085W        W33346   8.182  13.709   1.776
74086W        W33347  22.653  20.028   1.869
74087W        W33348   1.399  16.217   0.954
74088W        W33349  40.918  14.340  13.360
74089W        W33350  20.226  36.926  11.934
74090W        W33351  40.902  33.929  14.375
74091W        W33352   9.818  13.782  13.312
74092W        W33353  33.478  41.015  11.472
74093W        W33354  10.787   2.898  13.041
74094W        W33355  19.569  41.833   2.296
74095W        W33356  34.375  33.132  11.117
74096W        W33357   3.400  37.010  11.398
74097W        W33358   8.305  13.156   4.838
74098W        W33359  37.536  15.648   2.803
74099W        W33360  42.019  37.393  12.952
74100W        W33361  43.022  42.504   2.232
74101W        W33362  17.763   8.750  11.046
74102W        W33363   1.403   9.663  10.645
74103W        W33364   5.437   7.840  10.405
74104W        W33365  28.667  38.853   2.719
74105W        W33366  12.702  19.553  13.821
74106W        W33367   2.407   0.987  11.909
74107W        W33368  21.598  43.367  11.373
74108W        W33369  20.660   4.725  14.438
74109W        W33370  29.510   1.429  14.897
74110W        W33371   6.411  30.103  13.368
74111W        W33372  24.030  23.733  13.419
74112W        W33373  34.430  32.133  14.366
74113W        W33374  30.961   5.366  13.958
74114W        W33375  27.470   5.747  12.890
74115W        W33376  27.146  34.983   3.712
74116W        W33377  11.324   1.833  11.991
74117W        W33378  24.211  16.249  12.890
74118W        W33379  14.270  12.309   4.761
74119W        W33380  27.962   9.687   0.832
74120W        W33381  24.994   0.297  13.489
74121W        W33382  27.554  19.559  13.992
74122W        W33383   2.275  16.600  13.440
74123W        W33384   9.251  24.985  10.635
74124W        W33385  10.814   3.411   4.774
74125W        W33386  18.686  44.279  12.953
74126W        W33387  25.076   9.284  12.836
74127W        W33388  23.620  41.928   4.221
74128W        W33389  39.429  27.134   4.328
74129W        W33390  43.946  12.356  10.939
74130W        W33391  33.563  12.346  13.917
74131W        W33392  41.004  20.051   2.810
74132W        W33393  30.530  44.783   2.294
74133W        W33394  28.618  12.686   3.763
74134W        W33395  40.543  27.942  12.517
74135W        W33396  25.014  37.894   3.373
74136W        W33397  43.431  43.879   2.900
74137W        W33398  38.827  15.134   1.775
74138W        W33399  23.197   8.350   4.176
74139W        W33400  37.926  18.747  10.943
74140W        W33401  40.539  38.824  13.353
74141W        W33402  42.790  26.079  14.999
74142W        W33403   0.780   0.488   2.402
74143W        W33404  16.681  40.307   1.784
74144W        W33405  38.881  15.748   0.853
74145W        W33406   4.310  21.654   3.833
74146W        W33407   7.679  41.330  12.978
74147W        W33408  11.197  29.590  11.564
74148W        W33409  15.290  17.075   4.179
74149W        W33410  12.690  38.405   2.852
74150W        W33411  42.485  32.619  12.513
74151W        W33412  25.621  37.059  12.412
74152W        W33413  27.647  26.633   4.321
74153W        W33414  26.486  31.940  13.050
74154W        W33415  27.186  34.374  12.865
74155W        W33416   6.415  25.144  11.984
74156W        W33417  20.154  38.418   3.688
74157W        W33418  24.621  11.351  12.013
74158W        W33419  35.863  35.971  12.488
74159W        W33420  12.201   5.918  14.483
74160W        W33421  35.954  31.466   2.284
74161W        W33422  36.474  33.889  14.398
74162W        W33423  41.913  36.932  13.458
74163W        W33424  37.531   5.256  11.599
74164W        W33425  20.636  28.444  11.535
74165W        W33426  19.694  16.595   3.191
74166W        W33427   4.765  29.102  13.444
74167W        W33428  17.747  24.576  11.508
74168W        W33429   6.190  42.401  14.456
74169W        W33430   0.335  43.983   2.756
74170W        W33431  33.127  13.163   0.794
74171W        W33432  31.032  13.338   4.725
74172W        W33433   3.877   6.383  12.881
74173W        W33434  26.051  36.951  10.592
74174W        W33435  20.037  23.015  10.906
74175W        W33436  39.895  42.297   2.410
74176W        W33437  13.716   4.225   2.339
74177W        W33438  35.455  37.070  10.951
74178W        W33439  39.537   5.421   3.290
74179W        W33440  31.410   1.959  14.848
74180W        W33441  38.886   8.894   2.289
74181W        W33442  34.494   2.734  10.637
74182W        W33443  12.680   2.245   4.165
74183W        W33444  12.844  14.143   1.291
74184W        W33445  26.987   3.759   9.936
74185W        W33446  12.822   3.858  13.960
74186W        W33447   9.795  22.566   0.843
74187W        W33448   5.393  21.046   3.330
74188W        W33449  29.516  14.165  12.845
74189W        W33450   4.738   1.286   4.806
74190W        W33451  12.823   4.231   0.424
74191W        W33452  20.096   9.790   0.345
74192W        W33453   0.447  25.130  12.428
74193W        W33454  12.664  40.867   4.637
74194W        W33455  36.924  23.184  14.444
74195W        W33456   7.361   0.874   0.402
74196W        W33457  38.389  40.021  12.494
74197W        W33458   8.684  43.017   3.301
74198W        W33459  32.918   0.448   2.386
74199W        W33460  17.274   9.188   0.405
74200W        W33461  38.443   5.863   3.829
74201W        W33462  42.432   1.438  11.106
74202W        W33463  28.596   1.425  13.489
74203W        W33464  15.588  43.801   4.127
74204W        W33465  24.999  38.436  10.611
74205W        W33466  21.215   1.299   2.746
74206W        W33467  31.434  29.460   2.855
74207W        W33468  17.205  22.583  12.433
74208W        W33469  35.551  26.507  10.989
74209W        W33470  15.599  37.038  11.553
74210W        W33471  36.970  38.914   1.876
74211W        W33472  32.897  43.480   0.277
74212W        W33473  25.073  37.407  13.523
74213W        W33474  18.254   4.267  13.854
74214W        W33475  20.234  22.701  11.076
74215W        W33476  16.700  16.726  10.644
74216W        W33477  42.914  42.939   1.443
74217W        W33478  44.332  15.110   4.796
74218W        W33479  11.259  31.925   1.369
74219W        W33480  27.580  19.587  12.354
74220W        W33481  28.493  12.183  12.036
74221W        W33482  41.476  25.711   1.432
74222W        W33483  11.727   8.673  11.865
74223W        W33484  14.147   8.233  10.495
74224W        W33485  18.756  12.147   0.481
74225W        W33486  16.157  35.084   3.375
74226W        W33487  20.073  23.722   3.286
74227W        W33488  10.203  38.402   0.810
74228W        W33489  21.663  18.665  13.911
74229W        W33490  22.195  34.045  13.878
74230W        W33491   4.277  42.878  10.894
74231W        W33492   5.845  42.295  10.599
74232W        W33493   5.325  37.397  13.001
74233W        W33494  25.589  31.942   2.679
74234W        W33495  14.269   8.303  11.382
74235W        W33496   9.250  34.440  13.386
74236W        W33497  20.688  27.639  13.899
74237W        W33498  19.113  13.712  13.990
74238W        W33499  24.185  41.021   4.308
74239W        W33500  44.366  10.333   1.724
74240W        W33501  21.141  28.114  14.453
74241W        W33502   6.392   0.446   4.761
74242W        W33503  30.464  26.005   2.348
74243W        W33504  16.193   7.736   4.257
74244W        W33505  30.485  28.059   4.317
74245W        W33506   8.212  26.498   0.424
74246W        W33507  23.501  32.003   4.196
74247W        W33508  22.083  40.424  11.415
74248W        W33509   2.292  44.474  13.002
74249W        W33510   4.872   8.830  12.472
74250W        W33511  12.780  19.211  14.389
74251W        W33512  30.429  32.463  10.898
74252W        W33513  34.599  38.867   2.204
74253W        W33514  37.424  27.451  13.796
74254W        W33515  39.507  21.233  11.000
74255W        W33516  31.114  21.193   1.263
74256W        W33517  30.044  39.400   0.915
74257W        W33518  16.740  24.079   4.180
74258W        W33519  31.056   0.293  11.543
74259W        W33520  26.056  29.138  13.452
74260W        W33521  22.108  16.195   2.413
74261W        W33522   1.240   9.881   3.224
74262W        W33523   1.270   6.361  14.844
74263W        W33524  21.110  20.096   5.157
74264W        W33525  28.606  10.321  11.611
74265W        W33526  32.430   7.204   2.815
74266W        W33527   9.263  40.322  12.426
74267W        W33528  34.026  18.745  11.114
74268W        W33529  42.419   3.368  14.324
74269W        W33530   9.781  43.887  10.484
74270W        W33531  37.836   4.352   3.863
74271W        W33532  22.625  34.049  10.559
74272W        W33533  33.486   6.351  13.985
74273W        W33534  13.621  33.585  11.375
74274W        W33535  41.039  18.606  11.498
74275W        W33536  32.607  38.430   1.288
74276W        W33537  26.969  40.894  12.340
74277W        W33538  32.954   4.289   2.662
74278W        W33539  15.597  20.096   2.813
74279W        W33540   6.719  17.231   2.295
74280W        W33541  25.077  38.032   2.368
74281W        W33542  24.611  12.646   2.255
74282W        W33543  43.848   7.184   1.214
74283W        W33544  21.102  39.318  12.024
74284W        W33545  14.644  40.381   0.837
74285W        W33546  22.185  10.352   1.919
74286W        W33547  11.636   3.254   1.375
74287W        W33548  13.345  17.082  12.382
74288W        W33549  44.922  37.963   2.813
74289W        W33550  27.642  21.756   0.952
74290W        W33551  36.528  28.435  10.571
74291W        W33552  32.526  19.586   3.269
74292W        W33553  17.757  40.034  12.060
74293W        W33554  23.182  35.858  11.524
74294W        W33555   6.893  18.749   4.354
74295W        W33556  17.736   6.908  12.057
74296W        W33557   1.840  35.370   1.808
74297W        W33558   4.804  35.497  14.954
74298W        W33559  14.598   5.216   2.680
74299W        W33560  27.174   8.284  14.411
74300W        W33561  21.604  10.272   2.238
74301W        W33562  40.916  17.668   1.417
74302W        W33563  44.979  39.510  14.498
74303W        W33564  21.033  21.594   3.784
74304W        W33565  24.502  17.262  11.117
74305W        W33566   1.447  27.132   3.843
74306W        W33567  43.396  22.048  12.994
74307W        W33568  10.678  17.616  13.482
74308W        W33569  41.421  31.007  11.967
74309W        W33570   6.875  18.658   0.899
74310W        W33571  14.620   3.315   0.945
74311W        W33572  26.976  17.641   1.836
74312W        W33573   2.761  32.099   1.324
74313W        W33574  26.177  29.534  12.096
74314W        W33575  44.472   1.333  10.412
74315W        W33576   9.717  16.718  11.392
74316W        W33577  35.975  44.956   0.737
74317W        W33578   6.380  35.950   4.333
74318W        W33579  17.165   7.745   2.755
74319W        W33580   1.461  24.721   0.297
74320W        W33581  16.202  13.124  10.519
74321W        W33582  18.706  30.525  11.107
74322W        W33583  32.502  13.149   3.662
74323W        W33584  37.070  25.485  14.379
74324W        W33585   0.433  20.610   0.870
74325W        W33586  43.770  13.331   3.866
74326W        W33587  33.015   2.848  12.919
74327W        W33588  43.428  21.180  12.930
74328W        W33589  23.719  26.161   1.828
74329W        W33590  40.944  40.034  14.453
74330W        W33591  10.765  42.030   2.307
74331W        W33592   3.794  43.366  12.000
74332W        W33593  18.232  17.779   0.887
74333W        W33594  26.073  30.438  13.942
74334W        W33595   8.315  27.476   3.769
74335W        W33596  44.331  22.055   4.645
74336W        W33597  10.797  25.180  10.993
74337W        W33598   1.243  44.409  13.355
74338W        W33599  31.043  38.936  13.853
74339W        W33600   8.192  24.568  14.402
74340W        W33601  38.389  36.010  14.480
74341W        W33602   0.922  19.710  13.351
74342W        W33603  31.043  22.519  13.006
74343W        W33604   5.257  41.957  11.484
74344W        W33605  21.050   9.167   0.332
74345W        W33606  33.122  42.504  13.379
74346W        W33607  30.075  44.862  14.815
74347W        W33608  39.360  28.617   4.320
74348W        W33609  22.033  39.874  11.087
74349W        W33610   4.246  10.365   2.733
74350W        W33611   5.391  26.531  12.057
74351W        W33612  33.473  28.934   4.686
74352W        W33613  18.137  33.452   4.624
74353W        W33614  30.436  38.825  10.505
74354W        W33615   4.807  28.105   0.353
74355W        W33616  26.031  14.593  12.447
74356W        W33617  27.618  25.985   4.754
74357W        W33618  36.864   7.378  10.452
74358W        W33619  42.508   4.779  10.930
74359W        W33620  41.402  27.129  14.427
74360W        W33621   7.334   5.754  12.946
74361W        W33622  26.537   0.745   5.705
74362W        W33623   4.861  16.260  13.437
74363W        W33624  27.513  19.765  10.627
74364W        W33625  29.974  24.716   2.891
74365W        W33626  30.614   6.749   2.829
74366W        W33627  36.912  33.936  13.317
74367W        W33628  30.134   7.279  14.316
74368W        W33629  22.057  15.753  10.474
74369W        W33630   4.339  29.005  14.869
74370W        W33631  27.055  26.012   4.223
74371W        W33632  25.184  24.162  11.493
74372W        W33633   4.295   7.396   2.300
74373W        W33634  19.729  40.488  14.898
74374W        W33635  39.476   1.901   4.172
74375W        W33636  17.783  22.109   2.411
74376W        W33637  10.736  18.644  12.422
74377W        W33638  18.778  36.066   4.635
74378W        W33639  14.250  10.316  13.929
74379W        W33640   6.685  40.414   1.236
74380W        W33641  17.720  41.924   0.861
74381W        W33642  12.270  11.764   4.186
74382W        W33643  23.720  25.069  10.983
74383W        W33644  20.565  12.172   0.479
74384W        W33645  14.204  38.462  11.076
74385W        W33646   1.835  30.017   0.321
74386W        W33647   9.371   1.829   1.732
74387W        W33648  19.586  14.298   3.252
74388W        W33649  41.422  19.727   4.144
74389W        W33650  41.852  29.606  14.978
74390W        W33651  32.492  41.446   4.282
74391W        W33652  33.049  27.955   4.751
74392W        W33653  12.654  17.739  13.516
74393W        W33654  28.646  16.737   2.753
74394W        W33655  41.966  14.812  14.511
74395W        W33656  35.568  15.632   3.178
74396W        W33657   6.206  27.678   0.257
74397W        W33658   6.885  25.625  13.420
74398W        W33659  35.011  44.898   2.390
74399W        W33660  18.666  20.259  14.789
74400W        W33661  17.141  39.900  13.917
74401W        W33662  25.009  37.026   0.924
74402W        W33663   4.846   3.226  10.437
74403W        W33664  18.130  31.055   4.158
74404W        W33665  28.543   0.923  12.907
74405W        W33666  32.924   1.969  11.997
74406W        W33667  29.146  27.623   0.269
74407W        W33668  43.282  27.039   3.682
74408W        W33669  24.553  13.764   3.273
74409W        W33670   6.240   4.434  11.419
74410W        W33671   2.957   1.905   2.903
74411W        W33672  15.755   6.834  11.960
74412W        W33673  36.910  21.087   3.340
74413W        W33674  44.781  44.842   4.207
74414W        W33675  21.535  12.327   4.761
74415W        W33676   7.222  12.299   3.841
74416W        W33677  15.215  16.154   3.201
74417W        W33678  18.635  36.992   3.806
74418W        W33679   2.369  21.678  12.474
74419W        W33680  19.629  19.739  11.429
74420W        W33681  20.617   0.751  10.552
74421W        W33682  32.542  44.318   2.719
74422W        W33683  44.003  11.642  11.452
74423W        W33684  31.058  16.763   4.217
74424W        W33685  33.569  37.535   1.824
74425W        W33686  41.995  12.713  12.491
74426W        W33687  38.427  40.330   0.950
74427W        W33688  32.066   8.708   2.277
74428W        W33689  13.665   7.287  12.465
74429W        W33690   8.273  14.140  10.589
74430W        W33691   9.645  28.672  14.488
74431W        W33692   2.907  29.542   4.175
74432W        W33693   1.476   4.240   0.464
74433W        W33694   0.277  13.286  10.431
74434W        W33695  28.056  25.102   9.942
74435W        W33696  44.504  20.189   1.398
74436W        W33697  22.676  13.334   4.828
74437W        W33698  24.630   3.420   4.809
74438W        W33699  23.505  19.777   3.713
74439W        W33700  31.626  43.440  11.969
74440W        W33701   0.411   9.795  11.464
74441W        W33702  37.986  11.649  10.499
74442W        W33703  36.537  42.463  14.910
74443W        W33704   9.348  43.889   2.204
74444W        W33705   0.816  15.273   0.933
74445W        W33706   1.275  11.153   4.734
74446W        W33707  32.435  37.348  12.014
74447W        W33708  30.160  29.430   1.316
74448W        W33709  34.557  16.103   2.720
74449W        W33710   9.223  26.175  13.841
74450W        W33711   3.436  24.488   2.736
74451W        W33712  35.983  32.484  10.557
74452W        W33713  24.643  37.915  13.374
74453W        W33714  42.955  31.575  11.871
74454W        W33715  27.475   4.890   1.878
74455W        W33716  30.910  12.820   3.350
74456W        W33717  27.968  28.090  12.955
74457W        W33718   2.869  12.816   4.815
74458W        W33719  10.295  31.081   1.920
74459W        W33720  44.378  27.134   2.261
74460W        W33721  25.211  30.930  11.993
74461W        W33722  11.283  21.209   0.856
74462W        W33723  22.599  44.387   4.688
74463W        W33724  21.127  18.242   1.408
74464W        W33725   0.252  26.966   3.230
74465W        W33726   6.265  29.169  10.137
74466W        W33727  27.151  43.361  11.526
74467W        W33728  39.436  22.028  13.899
74468W        W33729  17.614  21.057   4.341
74469W        W33730  11.770  25.143   0.382
74470W        W33731  15.128   3.943   1.290
74471W        W33732  16.182  16.292  13.485
74472W        W33733  43.445  25.168  13.431
74473W        W33734  10.300   7.202  12.996
74474W        W33735  34.026  23.677  11.943
74475W        W33736   1.968  33.097   4.228
74476W        W33737   9.358  10.263  11.532
74477W        W33738   6.399   0.810  11.065
74478W        W33739  28.528  34.376   2.860
74479W        W33740  12.681  12.205  14.822
74480W        W33741   2.434  26.073   1.841
74481W        W33742  26.632  37.364  13.362
74482W        W33743  20.544   3.725   1.291
74483W        W33744  11.773  19.214  11.033
74484W        W33745   7.805  42.335  11.858
74485W        W33746  16.162  37.906  12.373
74486W        W33747  29.124  14.139   1.296
74487W        W33748  34.958  13.109   0.883
74488W        W33749   5.251  19.536   0.891
74489W        W33750  30.440  37.544   3.656
74490W        W33751   5.383  38.363   3.151
74491W        W33752   7.174  23.618  14.373
74492W        W33753  15.600   8.384   0.392
74493W        W33754  26.208  42.836   0.333
74494W        W33755  28.964  27.004   0.729
74495W        W33756  38.372  33.440   1.377
74496W        W33757   8.221  20.543  13.871
74497W        W33758  40.311   2.306   0.373
74498W        W33759  36.503  30.090   0.402
74499W        W33760   7.364  12.292  11.475
74500W        W33761   3.354   5.399   1.854
74501W        W33762  41.306  14.666  10.048
74502W        W33763  14.327   9.844   3.272
74503W        W33764   9.781   2.722   2.185
74504W        W33765  21.737   3.304   0.878
74505W        W33766   3.359  13.667  10.450
74506W        W33767   2.812  33.513   3.843
74507W        W33768  29.021  32.980  10.916
74508W        W33769  33.410  13.309   4.208
74509W        W33770  26.993   7.228  14.427
74510W        W33771  42.905  43.932  10.620
74511W        W33772  13.137  33.128   4.689
74512W        W33773  27.192  32.986  14.862
74513W        W33774  16.289  16.102  12.538
74514W        W33775  43.836  38.388   3.869
74515W        W33776  23.620  28.984   3.856
74516W        W33777   4.339   1.773   2.792
74517W        W33778  24.545  41.041   1.426
74518W        W33779  13.110  10.351   3.771
74519W        W33780   3.414  28.563   0.728
74520W        W33781  11.836   1.814  11.578
74521W        W33782   3.365  33.893   0.779
74522W        W33783  41.383  35.910   1.432
74523W        W33784  25.170  17.157   1.902
74524W        W33785  17.201   9.747   3.708
74525W        W33786  19.282  28.021  13.950
74526W        W33787  39.048  28.678   2.336
74527W        W33788  31.559  18.671  14.930
74528W        W33789  42.978  43.413  11.916
74529W        W33790   3.722  22.739  11.903
74530W        W33791  30.127  35.366   1.709
74531W        W33792   4.786  17.703  10.441
74532W        W33793  44.432  15.264  10.558
74533W        W33794  32.541   5.299  11.584
74534W        W33795  29.079  12.197   0.943
74535W        W33796  15.750  26.551   4.248
74536W        W33797  19.749  10.261  14.792
74537W        W33798  25.627  20.733   4.331
74538W        W33799   4.334  25.122   1.306
74539W        W33800  13.265   7.700  13.826
74540W        W33801  15.615  34.058   2.276
74541W        W33802  12.765  24.162  11.897
74542W        W33803  36.388  39.986  11.103
74543W        W33804  21.652  10.345  14.809
74544W        W33805  22.715  40.871  13.947
74545W        W33806   5.870  31.427   1.235
74546W        W33807  25.667  13.165  13.928
74547W        W33808   2.876  16.744  10.426
74548W        W33809  37.517  21.741  14.848
74549W        W33810  11.259  19.089   4.302
74550W        W33811  42.834  34.463   4.243
74551W        W33812   1.255  14.219   3.310
74552W        W33813   2.424  15.153   3.289
74553W        W33814   3.937  43.483  12.400
74554W        W33815  37.511  40.960  11.978
74555W        W33816  17.097  38.028   1.347
74556W        W33817  43.952  11.668   0.300
74557W        W33818  13.168  30.003   0.863
74558W        W33819   1.361   1.796   4.116
74559W        W33820  29.054  42.812  12.365
74560W        W33821   4.903  33.081  14.950
74561W        W33822  37.915  43.888  13.926
74562W        W33823  42.852  21.025   4.300
74563W        W33824  25.165  34.069   0.259
74564W        W33825  16.810  19.166   5.285
74565W        W33826  23.563  40.541   4.152
74566W        W33827  27.665   4.283  12.035
74567W        W33828  39.901  43.865   0.373
74568W        W33829  30.056  23.129  13.895
74569W        W33830  44.909  23.187  14.976
74570W        W33831  31.040  28.013  10.046
74571W        W33832   7.245   3.738   9.552
74572W        W33833  20.167  25.518  12.082
74573W        W33834  24.021   8.270   1.442
74574W        W33835  24.981   8.305   3.319
74575W        W33836  25.679  40.031   4.665
74576W        W33837  26.075   8.329  12.502
74577W        W33838  26.638  18.209   0.848
74578W        W33839  43.404  44.852   2.848
74579W        W33840  24.997  13.208  10.469
74580W        W33841  16.643   3.844   1.445
74581W        W33842  25.149  14.274  14.786
74582W        W33843  34.119  16.714  12.493
74583W        W33844   8.725   5.415   2.885
74584W        W33845  25.666  29.066   1.280
74585W        W33846   1.862   5.431  13.966
74586W        W33847  42.450  35.571  13.878
74587W        W33848  29.603  38.879   0.955
74588W        W33849  27.059  44.433  13.955
74589W        W33850  31.422   7.308   4.804
74590W        W33851   5.897   2.246  10.455
74591W        W33852  41.956  37.878   3.262
74592W        W33853   6.791   9.729  14.944
74593W        W33854   3.938  25.556  12.394
74594W        W33855  18.642  13.236   0.829
74595W        W33856  22.058  37.440   0.447
74596W        W33857  19.687   5.819   2.336
74597W        W33858  37.500  22.576  11.934
74598W        W33859   1.299  19.776   1.727
74599W        W33860  15.654  24.522  12.459
74600W        W33861  11.233  36.387  13.388
74601W        W33862  10.732  19.258  13.504
74602W        W33863  31.976   8.294   1.726
74603W        W33864   8.771   1.864   4.710
74604W        W33865  32.885  33.529  13.349
74605W        W33866  19.731  28.631  10.923
74606W        W33867  44.355  30.001   4.118
74607W        W33868  32.966  44.839  11.609
74608W        W33869   4.802   0.351   2.661
74609W        W33870  38.380  44.962   0.953
74610W        W33871  39.814  29.452   1.762
74611W        W33872  36.042   9.782  13.487
74612W        W33873   8.879  18.693   3.784
74613W        W33874  27.107  37.981  11.468
74614W        W33875  42.470  22.177   1.331
74615W        W33876  11.160   8.896  10.984
74616W        W33877  27.153  43.282   3.648
74617W        W33878   1.363  28.160  14.802
74618W        W33879  21.192  38.503  14.937
74619W        W33880  33.462  20.119  12.478
74620W        W33881  22.027  31.135  13.810
74621W        W33882  35.102  11.160   1.713
74622W        W33883  18.660   2.445   5.096
74623W        W33884  18.132   0.308   3.699
74624W        W33885  28.086  10.854  13.804
74625W        W33886  38.827  15.599  12.558
74626W        W33887  25.125  16.152  13.937
74627W        W33888   9.872  44.329  13.005
74628W        W33889  14.774   0.873  10.926
74629W        W33890  28.073  25.544  11.962
74630W        W33891  43.281   2.929   0.481
74631W        W33892   7.730  27.154   4.794
74632W        W33893   0.345  23.239  10.487
74633W        W33894  39.426  23.015  10.641
74634W        W33895  34.866  25.577  12.026
74635W        W33896  26.066  27.623  13.313
74636W        W33897  20.153   5.688   3.251
74637W        W33898  36.459  38.925  12.403
74638W        W33899  13.280  24.140   0.858
74639W        W33900  17.159  13.665  12.053
74640W        W33901  34.094  28.614   2.875
74641W        W33902  18.635  42.359  14.481
74642W        W33903  30.915  35.476   0.350
74643W        W33904   7.323  39.388  11.998
74644W        W33905  43.470  20.163   0.930
74645W        W33906   0.387  41.920   2.221
74646W        W33907  22.529  40.835  10.421
74647W        W33908   2.772  43.801   4.331
74648W        W33909  41.432  32.578  12.454
74649W        W33910  43.947  26.513  13.836
74650W        W33911  14.280  26.669   4.336
74651W        W33912   5.729  33.044   0.479
74652W        W33913  19.046  14.240  14.783
74653W        W33914   9.303  31.909  13.485
74654W        W33915   7.235  21.669   2.401
74655W        W33916  17.561   4.289  11.105
74656W        W33917  10.874  31.122   2.366
74657W        W33918   6.765  21.665   0.888
74658W        W33919  10.683  16.238  12.963
74659W        W33920  12.714  28.016   1.412
74660W        W33921  11.823  24.992   0.902
74661W        W33922  11.862   4.261   1.879
74662W        W33923  42.373  13.205   1.878
74663W        W33924  14.268  15.195  13.047
74664W        W33925  10.806  19.739   4.352
74665W        W33926   6.214   5.825   1.796
74666W        W33927  23.141  30.052   2.259
74667W        W33928  37.501  24.554   4.338
74668W        W33929  43.953  40.964  13.455
74669W        W33930  14.172  40.916   4.182
74670W        W33931  41.479  34.426  12.090
74671W        W33932  21.126  26.515   3.735
74672W        W33933  17.202  32.112   4.797
74673W        W33934   2.235   3.889   0.248
74674W        W33935  22.137  22.549  11.442
74675W        W33936  30.990  28.438  14.344
74676W        W33937  12.805  36.845  13.387
74677W        W33938  29.160  37.946  10.541
74678W        W33939  18.552  27.193   0.805
74679W        W33940  18.692   0.917  13.804
74680W        W33941  18.643  31.104   9.988
74681W        W33942  39.443   2.266   2.756
74682W        W33943   3.322  36.004  10.417
74683W        W33944   7.798  43.308   0.450
74684W        W33945  36.978   4.400  12.577
74685W        W33946  31.065   2.831  11.588
74686W        W33947   3.799  17.140   1.423
74687W        W33948  39.403  28.498  12.911
74688W        W33949  15.752  22.702  13.514
74689W        W33950  28.671  24.080   2.727
74690W        W33951  21.698  32.528   0.963
74691W        W33952   5.239   7.235  12.358
74692W        W33953  12.837  42.975  12.912
74693W        W33954  32.028  22.252  11.489
74694W        W33955  32.396  36.379  14.421
74695W        W33956   3.870  27.510   3.714
74696W        W33957  32.955  38.400   3.835
74697W        W33958   7.839  19.664   5.154
74698W        W33959  23.117   9.732  10.979
74699W        W33960   4.426  11.289   1.333
74700W        W33961  24.160  40.930  13.044
74701W        W33962  13.815  17.735  13.054
74702W        W33963   3.296   7.247   2.753
74703W        W33964  36.483  12.236   4.271
74704W        W33965  30.442   3.403   1.269
74705W        W33966  16.803   8.726  12.073
74706W        W33967  30.923   7.346  12.062
74707W        W33968   9.743   8.216  13.999
74708W        W33969  43.948  10.878   2.356
74709W        W33970  12.728  19.096   2.719
74710W        W33971  19.177  14.816   4.668
74711W        W33972  25.057  18.545  13.370
74712W        W33973   5.720  14.694  13.819
74713W        W33974  33.530  25.008  11.123
74714W        W33975  17.748   1.755   4.273
74715W        W33976  11.700  44.312   1.210
74716W        W33977  13.161  19.060   4.219
74717W        W33978  33.474  32.014   0.865
74718W        W33979  21.038  23.019  10.516
74719W        W33980  35.358   2.804  12.883
74720W        W33981  29.965  38.468   4.642
74721W        W33982  29.583  10.372   3.746
74722W        W33983  39.511  15.116   3.695
74723W        W33984  40.917  38.879   4.634
74724W        W33985   0.753  35.957   2.265
74725W        W33986  43.889   0.872   3.734
74726W        W33987  28.669  31.589  13.932
74727W        W33988   8.869  42.494  11.381
74728W        W33989  37.993   9.151  12.576
74729W        W33990  15.249  15.817   4.726
74730W        W33991  40.522  35.886   1.884
74731W        W33992  38.031  37.340  14.830
74732W        W33993  18.769  22.549  14.953
74733W        W33994  33.074  10.321   3.738
74734W        W33995  11.736  34.596   2.205
74735W        W33996  37.455  34.866  10.641
74736W        W33997  23.660  39.974  12.984
74737W        W33998  17.665  16.646  10.510
74738W        W33999  34.924  33.961  13.520
74739W        W34000  29.943  20.140  10.935
74740W        W34001  18.183   2.327  10.577
74741W        W34002  13.630  39.492   3.772
74742W        W34003   1.784  20.724   1.249
74743W        W34004  21.517  22.744   2.328
74744W        W34005   8.709   8.202   1.738
74745W        W34006   7.779  31.602  13.908
74746W        W34007  40.308  26.534   1.710
74747W        W34008  18.294   1.848   4.664
74748W        W34009  18.164   6.740   2.802
74749W        W34010   1.856  40.527   0.937
74750W        W34011   6.845   5.331   1.791
74751W        W34012  41.819  20.704  14.404
74752W        W34013  17.741  34.530   1.777
74753W        W34014  12.182  44.479  12.395
74754W        W34015  12.335  23.112  11.930
74755W        W34016  30.586  40.872  10.479
74756W        W34017  10.673  14.630  11.019
74757W        W34018   8.171  37.932   3.328
74758W        W34019  26.137   6.882  13.358
74759W        W34020  10.791  12.785   0.321
74760W        W34021  33.948  15.590  11.906
74761W        W34022  32.125  41.945  11.005
74762W        W34023   6.369  36.956  10.474
74763W        W34024  21.588  29.052   3.709
74764W        W34025  44.941  36.461  11.094
74765W        W34026  10.249  14.594   1.381
74766W        W34027  34.915   1.945   2.863
74767W        W34028  31.501  38.065  13.362
74768W        W34029   3.358  40.913   0.805
74769W        W34030  10.654  38.543   4.650
74770W        W34031  18.791  28.514   0.331
74771W        W34032  17.759  24.191   2.256
74772W        W34033  28.095  32.126  14.965
74773W        W34034  35.973  32.607  13.393
74774W        W34035  22.113  30.421  14.820
74775W        W34036   5.291  10.348  11.560
74776W        W34037  41.988  10.776   2.244
74777W        W34038   5.376  29.098  11.567
74778W        W34039  40.835  33.901  10.122
74779W        W34040   9.658  24.564  12.066
74780W        W34041  30.009   8.302  13.971
74781W        W34042  17.638  22.682  11.108
74782W        W34043   0.755   7.287   3.695
74783W        W34044  13.842  22.637  14.857
74784W        W34045  29.482  42.870  12.510
74785W        W34046  39.473  28.177  13.792
74786W        W34047  26.689  29.631  12.854
74787W        W34048  21.170  35.918  12.577
74788W        W34049  37.855  44.937  12.841
74789W        W34050   1.820  19.097   1.418
74790W        W34051   2.800   4.213  13.396
74791W        W34052  35.446  20.681  10.902
74792W        W34053  16.598  21.513  14.360
74793W        W34054  34.891  29.933   4.147
74794W        W34055  18.644  19.209   2.328
74795W        W34056  16.140  37.962  11.056
74796W        W34057   4.296  32.604  11.897
74797W        W34058  20.034  43.323  14.003
74798W        W34059  40.989  33.615   3.636
74799W        W34060  30.454   4.794   5.167
74800W        W34061  41.040  19.184  13.039
74801W        W34062  18.583  38.520  12.857
74802W        W34063  31.951   1.776  14.919
74803W        W34064   9.152  29.918  13.022
74804W        W34065  30.160  41.806   2.691
74805W        W34066   8.688  15.734   1.836
74806W        W34067  22.191  33.517   3.374
74807W        W34068  30.076   1.969  13.500
74808W        W34069  17.138   7.371  14.794
74809W        W34070  22.517  37.350   3.784
74810W        W34071  20.579  29.488   3.255
74811W        W34072   4.731   3.904  10.023
74812W        W34073  31.109   1.415   3.197
74813W        W34074   4.363  10.759  10.415
74814W        W34075  17.272  43.310  13.310
74815W        W34076  31.042  15.603   5.241
74816W        W34077  33.622  41.474  11.114
74817W        W34078  41.397  29.564   2.879
74818W        W34079  14.337  43.783   0.804
74819W        W34080  44.378   0.792  12.434
74820W        W34081   8.247  37.903  10.622
74821W        W34082  41.501  13.284   1.701
74822W        W34083  40.869  16.165   2.301
74823W        W34084   4.241  35.969  13.956
74824W        W34085  30.910  43.919  11.602
74825W        W34086  35.393  11.670  11.572
74826W        W34087  44.485  15.775  13.970
74827W        W34088   2.782  30.492  12.911
74828W        W34089  18.155  25.576  10.890
74829W        W34090  37.351  39.546  12.436
74830W        W34091  23.705  17.782  14.451
74831W        W34092  20.186  13.700  11.127
74832W        W34093  24.486  13.165  13.930
74833W        W34094  40.012  13.175  11.504
74834W        W34095  31.967   5.926   1.815
74835W        W34096   7.262  25.010   0.878
74836W        W34097  22.199  31.601   4.784
74837W        W34098  12.751  22.538   4.665
74838W        W34099  42.996  22.155  14.452
74839W        W34100  26.189   3.824  14.494
74840W        W34101   0.916  20.545   0.307
74841W        W34102  16.198  41.311  13.874
74842W        W34103  31.534   2.807  11.885
74843W        W34104  14.749   1.395   0.835
74844W        W34105  14.231   5.813   2.806
74845W        W34106  34.942  20.548   4.302
74846W        W34107  13.722   5.894  12.395
74847W        W34108  11.792  43.966  13.883
74848W        W34109  10.809  14.325   4.311
74849W        W34110  28.573  44.327  13.509
74850W        W34111  35.967  14.803   3.206
74851W        W34112  41.466  40.940  13.901
74852W        W34113  44.328  34.578   5.581
74853W        W34114  30.480  18.178  10.413
74854W        W34115   5.927  37.012  13.456
74855W        W34116   1.324  38.025  13.843
74856W        W34117  40.924  36.090   2.321
74857W        W34118  21.251  19.664   1.361
74858W        W34119   2.273  13.782  12.056
74859W        W34120  28.980  13.637   3.637
74860W        W34121  40.050  37.457  13.974
74861W        W34122  36.032  17.149  14.002
74862W        W34123  25.468   5.919   1.327
74863W        W34124  21.724  18.258  11.024
74864W        W34125  20.052   4.450  14.441
74865W        W34126   8.889   8.889   0.332
74866W        W34127  12.253  32.951  11.061
74867W        W34128  20.176  28.619  10.622
74868W        W34129  41.891  21.168  10.475
74869W        W34130  44.470   8.293   1.351
74870W        W34131   1.284   9.362  14.401
74871W        W34132  26.997   6.305   0.280
74872W        W34133   2.916   8.357  12.079
74873W        W34134   7.390  16.187  11.449
74874W        W34135  12.217  41.841  12.973
74875W        W34136  19.565  21.555   1.903
74876W        W34137  18.721  40.014  14.402
74877W        W34138  13.800   5.700   3.303
74878W        W34139   5.281  21.256   2.762
74879W        W34140  18.568  14.708   3.806
74880W        W34141  40.023   6.803  13.975
74881W        W34142   2.967   8.795   0.297
74882W        W34143   1.432  16.812  11.437
74883W        W34144  41.383  38.367   0.942
74884W        W34145   6.876  44.930  14.821
74885W        W34146  17.616  41.021  14.974
74886W        W34147  37.339  12.251  13.461
74887W        W34148  42.487   7.399   2.332
74888W        W34149  34.531   8.276  11.489
74889W        W34150  22.234   2.411   2.330
74890W        W34151   0.749  26.118  12.858
74891W        W34152   9.819  31.059  11.897
74892W        W34153  34.968  11.674  11.479
74893W        W34154  28.495  18.559   1.933
74894W        W34155  33.407  18.180  10.915
74895W        W34156  18.156  33.451   3.381
74896W        W34157  27.040  43.976  13.869
74897W        W34158  20.551  11.789  11.601
74898W        W34159   5.794  31.443   2.179
74899W        W34160  41.040  29.129  11.574
74900W        W34161  20.686  17.726   3.182
74901W        W34162  23.684  23.567  11.107
74902W        W34163   1.745   1.238  13.492
74903W        W34164   3.267  24.694  11.886
74904W        W34165   7.191  27.636  10.632
74905W        W34166  42.309  38.500   2.795
74906W        W34167   6.864  13.632   2.698
74907W        W34168  18.738  18.112   0.915
74908W        W34169  34.550  34.515   2.786
74909W        W34170   8.381  42.894  13.443
74910W        W34171  22.018  26.184  12.039
74911W        W34172  20.176  44.862  13.474
74912W        W34173  11.278  17.757  14.916
74913W        W34174   6.240  34.495   1.882
74914W        W34175  37.862  30.533   3.750
74915W        W34176  30.521  44.354  14.353
74916W        W34177  12.701   1.874   0.355
74917W        W34178  33.076  34.951  11.910
74918W        W34179  12.624  32.002   0.410
74919W        W34180  40.479  30.585  11.119
74920W        W34181  16.809  16.107  14.485
74921W        W34182  30.137   6.719   2.880
74922W        W34183  34.455  34.612   4.739
74923W        W34184  31.484  31.464   3.282
74924W        W34185  40.401  33.527  12.988
74925W        W34186   4.261   4.300   0.925
74926W        W34187  20.042   5.871  14.405
74927W        W34188   2.233  10.780  14.996
74928W        W34189  26.606   6.409  12.440
74929W        W34190  22.666  40.387   0.452
74930W        W34191  19.630  11.632   1.797
74931W        W34192  44.851   2.835   3.203
74932W        W34193   3.448  18.072  10.603
74933W        W34194   1.974  39.429  13.457
74934W        W34195   2.249  26.486   1.246
74935W        W34196   7.234  33.557  12.462
74936W        W34197   2.949  13.780   4.125
74937W        W34198   1.249  20.688   0.739
74938W        W34199  29.583   0.838  14.368
74939W        W34200  35.003  23.524   2.206
74940W        W34201   0.985  18.547  14.957
74941W        W34202  34.016  20.207  13.813
74942W        W34203  36.891  15.732   1.854
74943W        W34204  23.614   4.216  10.640
74944W        W34205  34.036  37.000  11.070
74945W        W34206  32.061  20.078  12.438
74946W        W34207  10.216  12.159  13.805
74947W        W34208  24.127  44.386   5.243
74948W        W34209   3.830  13.227  12.892
74949W        W34210   2.361   9.355   1.259
74950W        W34211  11.149  37.884  11.480
74951W        W34212  24.048  12.132   1.259
74952W        W34213   4.828  17.776   2.301
74953W        W34214  14.337  34.599  12.467
74954W        W34215  27.177  26.119  10.404
74955W        W34216  19.271  17.723   0.448
74956W        W34217  44.322  14.158   4.251
74957W        W34218  10.706  15.212   0.765
74958W        W34219  44.406  25.175  12.991
74959W        W34220  31.042  35.994  12.030
74960W        W34221   9.772   7.758  11.029
74961W        W34222  30.013  10.308   2.752
74962W        W34223  29.619  28.098   2.415
74963W        W34224  12.704  25.699   4.783
74964W        W34225  11.660  32.002   2.343
74965W        W34226  41.913  19.544  11.567
74966W        W34227   4.839   3.220  12.089
74967W        W34228   1.297  16.772   4.761
74968W        W34229  38.366  20.255   3.382
74969W        W34230   4.939  38.023  14.951
74970W        W34231  16.256  39.547   4.598
74971W        W34232   5.715  42.511   0.404
74972W        W34233   9.183  19.745  12.883
74973W        W34234  17.267  12.126  11.934
74974W        W34235  11.249   5.268   2.209
74975W        W34236  22.633   1.266  10.495
74976W        W34237  22.676   3.952   3.373
74977W        W34238  11.627  13.218  13.903
74978W        W34239  34.076   5.912   0.761
74979W        W34240  10.349  33.950   2.744
74980W        W34241  16.182  10.717   0.251
74981W        W34242   8.366   0.305   3.764
74982W        W34243  42.992  34.893   3.199
74983W        W34244  32.085   5.872  11.517
74984W        W34245   0.752  36.907  14.956
74985W        W34246  30.069  15.257   4.671
74986W        W34247  37.394  13.815   4.241
74987W        W34248  18.122  25.215  11.522
74988W        W34249  18.178  18.772  11.524
74989W        W34250   3.432  31.990   1.404
74990W        W34251  25.638   1.942   2.195
74991W        W34252  14.097  32.430   1.749
74992W        W34253   4.436  14.332  11.879
74993W        W34254  21.027  27.629   4.149
74994W        W34255  19.597  37.045  14.776
74995W        W34256  44.345  38.049   1.796
74996W        W34257  19.616  22.996   1.232
74997W        W34258  24.053  19.689   3.165
74998W        W34259  18.695  37.954   3.171
74999W        W34260  40.956   4.306   3.840
75000W        W34261  12.724  43.448  10.518
75001W        W34262  20.137  10.318   0.905
75002W        W34263  43.781  27.596  12.431
75003W        W34264  39.467  40.488  13.909
75004W        W34265   6.834  25.574   2.198
75005W        W34266  31.952  19.546   0.247
75006W        W34267  39.887  20.078   0.774
75007W        W34268  11.639  34.435   1.772
75008W        W34269  44.771   0.393   1.836
75009W        W34270  38.036  30.963  12.532
75010W        W34271  38.983  22.047   2.419
75011W        W34272  35.013  20.580  14.997
75012W        W34273  28.532  23.198   2.367
75013W        W34274  11.702   2.415  11.997
75014W        W34275  42.959  30.625  14.363
75015W        W34276   1.275   7.175   0.319
75016W        W34277  18.184  22.536   1.904
75017W        W34278  16.624  29.635   5.802
75018W        W34279  25.114  12.313   4.156
75019W        W34280  44.925  16.077  14.361
75020W        W34281  17.641  29.041  11.519
75021W        W34282  27.623  21.704   1.446
75022W        W34283  32.617  30.931  14.855
75023W        W34284  40.354  41.514   1.899
75024W        W34285  10.847  39.008   9.926
75025W        W34286   7.307  41.872  12.851
75026W        W34287  16.794  31.574  14.277
75027W        W34288  31.134  22.523  11.008
75028W        W34289  38.524  38.428  14.432
75029W        W34290  39.492  44.322   4.258
75030W        W34291  20.239  40.533   4.776
75031W        W34292  37.013  38.984   3.833
75032W        W34293  27.683  20.261  14.952
75033W        W34294   9.685  11.800  10.625
75034W        W34295  33.982  34.111   4.260
75035W        W34296   4.786  25.631   1.835
75036W        W34297  27.586  29.055  14.818
75037W        W34298  23.107   2.263  10.631
75038W        W34299  13.786   6.688   3.790
75039W        W34300  30.559  16.802  10.511
75040W        W34301  18.195  18.253  14.387
75041W        W34302   6.786  25.080  12.502
75042W        W34303   7.342  28.038   4.212
75043W        W34304  44.435  24.635   9.531
75044W        W34305  19.245  21.631  12.881
75045W        W34306  21.709  14.153   4.319
75046W        W34307   0.982  16.705  11.886
75047W        W34308   7.303  24.613  13.428
75048W        W34309  20.654  32.551   1.277
75049W        W34310   3.885  41.820  11.496
75050W        W34311  14.768  36.865   2.753
75051W        W34312  25.608  23.500  14.390
75052W        W34313   0.333  29.087   1.239
75053W        W34314  39.467  11.360   2.393
75054W        W34315  38.559  28.599   2.413
75055W        W34316   1.757   8.173   4.729
75056W        W34317  17.638  21.130  14.978
75057W        W34318  13.151  21.560   2.710
75058W        W34319  39.952  44.826  11.576
75059W        W34320  41.522  40.825   0.907
75060W        W34321  30.949   3.948   2.248
75061W        W34322  31.492  29.094  13.354
75062W        W34323  22.211  24.157   1.287
75063W        W34324   2.439   2.932   0.834
75064W        W34325   7.233   4.794  12.500
75065W        W34326  14.825  23.504   0.795
75066W        W34327   0.775  12.239   1.694
75067W        W34328  39.497  36.354   0.754
75068W        W34329  11.816  38.568  12.494
75069W        W34330  37.884  20.762   4.332
75070W        W34331  43.001  39.039   1.405
75071W        W34332  27.131  42.931   4.147
75072W        W34333  27.071  11.331  13.936
75073W        W34334  19.579  26.101  13.455
75074W        W34335   1.779   5.339  10.912
75075W        W34336  32.627  34.513   1.834
75076W        W34337  38.819  44.345  13.827
75077W        W34338  44.887  31.482  10.427
75078W        W34339  44.308  41.381  11.991
75079W        W34340  39.876   5.827  13.364
75080W        W34341   3.460  34.440  11.090
75081W        W34342  29.111  26.647  10.622
75082W        W34343   2.736   7.275   3.354
75083W        W34344  43.934  22.571   2.886
75084W        W34345  19.751  42.975  10.536
75085W        W34346  18.252  34.971  12.994
75086W        W34347  40.509  31.899   1.403
75087W        W34348  26.973  41.472   1.285
75088W        W34349  27.617  16.199  13.007
75089W        W34350  23.070  19.102  10.510
75090W        W34351  16.780  13.812   3.239
75091W        W34352  38.371  18.213   1.395
75092W        W34353  18.691  15.148  11.044
75093W        W34354  22.589   2.875   0.921
75094W        W34355  36.490   6.803   0.889
75095W        W34356  32.432  21.659  11.372
75096W        W34357  42.974   5.719   4.128
75097W        W34358   8.752  36.094   1.775
75098W        W34359  31.081  43.306  12.559
75099W        W34360  21.516  41.429  11.585
75100W        W34361  16.715  26.582   0.271
75101W        W34362  40.376   0.953  10.644
75102W        W34363  27.563  18.131   3.317
75103W        W34364  14.157   7.732  11.498
75104W        W34365   8.744   4.918   1.733
75105W        W34366  24.081  11.202   2.331
75106W        W34367  14.178  15.710   3.227
75107W        W34368   9.294   3.305  10.936
75108W        W34369  11.826  12.272  10.557
75109W        W34370  10.643  32.935  12.946
75110W        W34371  33.887  34.426   1.402
75111W        W34372  34.961   1.910   0.728
75112W        W34373   5.417  31.556   0.762
75113W        W34374  18.109  34.929   2.739
75114W        W34375  15.659  17.255   4.734
75115W        W34376  23.984  36.914  13.370
75116W        W34377  26.980  40.368  11.064
75117W        W34378  39.853  34.426  10.964
75118W        W34379  28.045   6.408   4.295
75119W        W34380  28.442  12.724  13.896
75120W        W34381  25.214   1.776   1.226
75121W        W34382  39.325  14.740   2.744
75122W        W34383  42.828  24.723  10.608
75123W        W34384  42.949   4.276  12.344
75124W        W34385  44.822  36.011  12.374
75125W        W34386  34.882  13.619   0.336
75126W        W34387   8.271   2.910   4.743
75127W        W34388  32.956   6.292  13.320
75128W        W34389   5.835  39.900   0.454
75129W        W34390  26.991   9.679  10.622
75130W        W34391  39.383  34.938  11.547
75131W        W34392   9.698  35.977  14.894
75132W        W34393  33.439   4.285  10.105
75133W        W34394  35.872  20.094  14.283
75134W        W34395  18.109  31.926   4.119
75135W        W34396  18.544   0.372  14.494
75136W        W34397  38.508   5.800  12.383
75137W        W34398  10.210  14.695   0.766
75138W        W34399  18.680  43.994  11.083
75139W        W34400  25.683  33.560  11.060
75140W        W34401   4.206   0.932  12.387
75141W        W34402  20.651  23.665   1.429
75142W        W34403  28.521  19.745   4.600
75143W        W34404  38.499   0.432   2.773
75144W        W34405  27.141   4.416  14.782
75145W        W34406  10.704  43.008   3.686
75146W        W34407  17.143  43.924   0.776
75147W        W34408  41.959  10.640  13.385
75148W        W34409  41.339   6.182   2.841
75149W        W34410  42.838  19.675  13.360
75150W        W34411  20.559   1.865   1.427
75151W        W34412  23.998  37.085  12.087
75152W        W34413  24.606  24.693  13.410
75153W        W34414  22.519   9.841  11.884
75154W        W34415   3.728  33.473   1.390
75155W        W34416  41.969  28.565  12.529
75156W        W34417   1.295  26.162   1.452
75157W        W34418   9.162  24.698   3.367
75158W        W34419  24.596  19.653   2.239
75159W        W34420  36.084   5.829  12.431
75160W        W34421  42.517  22.097  10.036
75161W        W34422  19.111  44.335   0.248
75162W        W34423  10.157  19.084   0.288
75163W        W34424   2.929  13.186  13.448
75164W        W34425  28.540  43.802   4.234
75165W        W34426  22.032  38.822  12.831
75166W        W34427  33.551  11.678  10.134
75167W        W34428  25.500  32.889  14.920
75168W        W34429  32.114   0.405  14.854
75169W        W34430  22.127   5.400   4.325
75170W        W34431  27.154   2.289   9.944
75171W        W34432   7.780  42.909  13.482
75172W        W34433  26.651  31.966   4.340
75173W        W34434   2.265  24.544   2.901
75174W        W34435  44.334  30.937   1.381
75175W        W34436  33.123  39.434  10.547
75176W        W34437  34.512   5.335   0.838
75177W        W34438  40.892  20.191   5.297
75178W        W34439   3.953  21.182  12.371
75179W        W34440  41.925  23.562  10.987
75180W        W34441   4.418   5.834  11.896
75181W        W34442  13.281   4.250  12.928
75182W        W34443  25.191  36.395  12.939
75183W        W34444   2.927  42.491   3.849
75184W        W34445  27.451  18.148   2.347
75185W        W34446  10.349  17.090  14.499
75186W        W34447   9.185   2.965  14.802
75187W        W34448  26.033  36.874   2.881
75188W        W34449  40.955  31.403  11.420
75189W        W34450  39.541  16.577   0.402
75190W        W34451  19.190  39.539  11.429
75191W        W34452  19.086  16.679   3.354
75192W        W34453  25.047   0.978   4.318
75193W        W34454  26.096  36.927   1.295
75194W        W34455  19.583  33.021   3.361
75195W        W34456  30.051  30.024  10.428
75196W        W34457  29.122   6.759   1.266
75197W        W34458  18.628  19.558   0.316
75198W        W34459  44.345  28.529   4.695
75199W        W34460   1.762   4.902   0.452
75200W        W34461   4.861  37.483  13.892
75201W        W34462  16.720   3.301  14.412
75202W        W34463   7.714  26.660   5.167
75203W        W34464  24.703  31.461  14.893
75204W        W34465   9.281  21.059   2.325
75205W        W34466   1.778  36.033   0.855
75206W        W34467   6.870   7.843  14.287
75207W        W34468   7.172  18.205  13.812
75208W        W34469  36.560  26.557   0.964
75209W        W34470  13.795  27.192   0.741
75210W        W34471  24.024  37.907  12.961
75211W        W34472  30.994   8.714   0.763
75212W        W34473  18.124  16.115  11.575
75213W        W34474  24.100   7.350  12.831
75214W        W34475  10.140  12.323  10.559
75215W        W34476  43.449  23.610   3.220
75216W        W34477  29.587  31.523  10.092
75217W        W34478   9.873  39.526   0.786
75218W        W34479   7.764  42.366   0.295
75219W        W34480  16.724   8.162   2.812
75220W        W34481   8.886  16.628  12.529
75221W        W34482  40.894   5.428  12.041
75222W        W34483  31.105   5.771  10.930
75223W        W34484  15.635   3.337  13.835
75224W        W34485  32.982  40.393  11.933
75225W        W34486  32.091  43.431   1.312
75226W        W34487  18.605  36.402   0.288
75227W        W34488   1.921  37.057  11.609
75228W        W34489   5.848   5.399  13.541
75229W        W34490   8.237   4.414   2.241
75230W        W34491  39.859  35.071  13.541
75231W        W34492  23.720   6.783   4.165
75232W        W34493  40.432   2.926  12.904
75233W        W34494   4.742  34.371   0.836
75234W        W34495  24.197   4.911  13.466
75235W        W34496  36.391  30.429   4.277
75236W        W34497   3.725   7.287  10.039
75237W        W34498  23.238  23.090   1.247
75238W        W34499  44.414  27.590  13.517
75239W        W34500  43.319  11.687  11.970
75240W        W34501  12.689   0.870   4.318
75241W        W34502  16.207  24.069   0.962
75242W        W34503  19.139  11.360  13.320
75243W        W34504  38.381  13.124   2.808
75244W        W34505   0.364   7.280   2.813
75245W        W34506  21.105  27.520   2.734
75246W        W34507   8.247  11.344   4.268
75247W        W34508   1.969  26.018  14.870
75248W        W34509  43.376  34.085   4.172
75249W        W34510  40.836  40.328  12.379
75250W        W34511  27.034  26.055   3.829
75251W        W34512  34.608  17.302   1.407
75252W        W34513   6.256  44.856  11.127
75253W        W34514  12.654  38.921   1.873
75254W        W34515  32.933  13.773   0.384
75255W        W34516  36.992  22.524  14.924
75256W        W34517  19.625  19.202   0.446
75257W        W34518  28.030   3.262   3.792
75258W        W34519  15.250   4.732   5.178
75259W        W34520  27.078  43.932  13.379
75260W        W34521  27.570  42.868   2.377
75261W        W34522   1.249  17.212  14.933
75262W        W34523  17.754  13.723   1.874
75263W        W34524  41.799  26.148   3.269
75264W        W34525   2.262  43.336  11.412
75265W        W34526  20.664  44.848  14.359
75266W        W34527  29.982  12.715  12.864
75267W        W34528  26.119  21.098   2.771
75268W        W34529  33.021  43.273   0.772
75269W        W34530  32.555  21.122   1.734
75270W        W34531  32.512   1.760  13.437
75271W        W34532  19.058   9.734   4.614
75272W        W34533  16.135  14.151  11.001
75273W        W34534  26.586  19.255   1.214
75274W        W34535  31.152   0.925   1.910
75275W        W34536  29.115  15.798  12.052
75276W        W34537  11.170  13.114   2.802
75277W        W34538   7.205  28.970  13.037
75278W        W34539  35.398   4.231  12.840
75279W        W34540  41.429   0.438   0.288
75280W        W34541  33.085   2.434  12.488
75281W        W34542  40.031   4.204   4.124
75282W        W34543  13.283   6.690  14.874
75283W        W34544  34.118  36.037  12.997
75284W        W34545  31.426  35.465  11.064
75285W        W34546  30.441  38.943   3.826
75286W        W34547  35.422  13.749  11.508
75287W        W34548  22.176  20.193  14.381
75288W        W34549  41.340  12.833  11.609
75289W        W34550   6.728   9.711   4.709
75290W        W34551  16.613  31.030  11.923
75291W        W34552  31.099  18.687  14.959
75292W        W34553  18.090  35.532   4.183
75293W        W34554  19.127   5.932  10.606
75294W        W34555  18.548  41.415   4.250
75295W        W34556  17.697   7.739  14.844
75296W        W34557   2.887  30.091  13.346
75297W        W34558   0.938  13.804   4.295
75298W        W34559  16.222  22.241   3.797
75299W        W34560   4.792  44.941   1.251
75300W        W34561   1.456  17.713  14.346
75301W        W34562   4.751  22.115   3.796
75302W        W34563  39.826   4.924   0.482
75303W        W34564  18.760  34.100   4.176
75304W        W34565   4.260  38.977   2.249
75305W        W34566  15.723   4.350   0.872
75306W        W34567   3.767   5.379  14.872
75307W        W34568  14.714  20.541   3.367
75308W        W34569   1.922   3.726  10.610
75309W        W34570   7.722  33.394   2.776
75310W        W34571  17.584  43.299  13.467
75311W        W34572  31.109  23.127   2.207
75312W        W34573   5.910  11.657  11.477
75313W        W34574  19.587  33.128   0.473
75314W        W34575  33.518  29.484  13.355
75315W        W34576  30.042   7.898   4.746
75316W        W34577   1.318   7.855  11.565
75317W        W34578  23.631  18.673  13.410
75318W        W34579  13.222  18.708  10.499
75319W        W34580   1.306  27.682   4.239
75320W        W34581  43.816   4.712  10.515
75321W        W34582   2.856  11.821  12.002
75322W        W34583  42.862  30.497   0.839
75323W        W34584   3.426  31.968   2.202
75324W        W34585   1.947  10.380   1.445
75325W        W34586  16.105   9.741  12.012
75326W        W34587  38.008  32.462  13.435
75327W        W34588   2.291  30.526  14.320
75328W        W34589  15.192  38.980   3.641
75329W        W34590  13.301  36.901   2.873
75330W        W34591  36.978  37.994  10.628
75331W        W34592  12.821  11.712  14.407
75332W        W34593  29.081  24.571   2.195
75333W        W34594  35.046   6.235   5.215
75334W        W34595   3.406  25.079   2.689
75335W        W34596  13.238  40.862  11.474
75336W        W34597  15.253  30.635  12.393
75337W        W34598  20.588  10.291  14.968
75338W        W34599  38.486  12.273   0.416
75339W        W34600   1.828  21.680   3.291
75340W        W34601   4.811   2.417   1.847
75341W        W34602   3.715  41.485  12.058
75342W        W34603  25.642  36.049   2.357
75343W        W34604  38.373  18.658   1.258
75344W        W34605   6.915   3.388  14.964
75345W        W34606  26.553  12.140  11.569
75346W        W34607  30.940   2.729   0.800
75347W        W34608   1.246  31.647   0.794
75348W        W34609  29.922  24.143   0.482
75349W        W34610   0.433   5.818  12.007
75350W        W34611  25.095  12.740   4.159
75351W        W34612  35.928  41.476  13.322
75352W        W34613  24.687  20.691  12.393
75353W        W34614   7.234  29.444   1.770
75354W        W34615  32.960  25.115   0.427
75355W        W34616  33.094  24.660  11.881
75356W        W34617  19.723  34.418   1.349
75357W        W34618   2.433  21.512   2.725
75358W        W34619   9.691  14.276   1.805
75359W        W34620  37.886  10.878  12.438
75360W        W34621  16.141  13.250  13.914
75361W        W34622   1.361  18.069   2.310
75362W        W34623  21.080  24.179   1.403
75363W        W34624  15.234  32.586   2.773
75364W        W34625   9.810  35.040   3.206
75365W        W34626   4.221   9.156  13.895
75366W        W34627  43.402  22.170   4.633
75367W        W34628  21.598   7.283   2.353
75368W        W34629  44.401  24.681   3.311
75369W        W34630   2.787  19.736  12.078
75370W        W34631   5.425   5.218  14.467
75371W        W34632  10.293  29.666  12.379
75372W        W34633  44.756  11.182   0.347
75373W        W34634  13.183  19.574   2.331
75374W        W34635   5.215  14.131  11.919
75375W        W34636  37.543   6.271   5.173
75376W        W34637  40.480  19.209  10.998
75377W        W34638  19.234   5.913   3.801
75378W        W34639  35.109  29.158  14.476
75379W        W34640  31.501  16.668   1.846
75380W        W34641  36.546  22.252  14.009
75381W        W34642   5.426   9.385  10.047
75382W        W34643   8.247  16.789   1.927
75383W        W34644  15.727   4.932   3.280
75384W        W34645  21.655   0.875   3.195
75385W        W34646   3.711   0.864   2.387
75386W        W34647  20.145  38.952  13.821
75387W        W34648   4.702  43.485  12.494
75388W        W34649   3.800  43.408   1.428
75389W        W34650  25.010  19.614   4.214
75390W        W34651  10.758  11.763   4.289
75391W        W34652   0.265  10.826  11.465
75392W        W34653   3.748  40.843  13.322
75393W        W34654  39.317  25.039   3.152
75394W        W34655  36.005  15.246  12.519
75395W        W34656  44.809   3.405   1.751
75396W        W34657  35.894  28.161  13.542
75397W        W34658  41.338   6.292  13.541
75398W        W34659  37.077  37.866   3.332
75399W        W34660  27.168   8.164   4.697
75400W        W34661  13.281  18.139   2.766
75401W        W34662  33.612   2.955  14.969
75402W        W34663  11.166  42.892   3.343
75403W        W34664   6.808  35.411  13.504
75404W        W34665  27.982  11.780  13.860
75405W        W34666  27.006  22.547  12.540
75406W        W34667   4.893  27.141   3.243
75407W        W34668  29.472  44.343   2.380
75408W        W34669  28.110  21.563  11.428
75409W        W34670  13.237   7.268   2.225
75410W        W34671  28.628  16.800  11.048
75411W        W34672  40.401  29.427   1.217
75412W        W34673  44.806   7.282   0.751
75413W        W34674  29.450   4.771   0.476
75414W        W34675  30.927  16.579  11.381
75415W        W34676  27.532  23.133  11.570
75416W        W34677  13.697   9.178   3.653
75417W        W34678  44.951  38.552  10.915
75418W        W34679  24.173  13.337  12.371
75419W        W34680  37.030  44.929   3.256
75420W        W34681   8.776  33.116  11.093
75421W        W34682   4.815  34.103  13.894
75422W        W34683  12.839  43.270  11.910
75423W        W34684  10.202  31.470  11.027
75424W        W34685   1.476   8.300  12.851
75425W        W34686  17.728   9.777  14.829
75426W        W34687  31.429  20.107  14.395
75427W        W34688  18.759  27.006   2.195
75428W        W34689  19.208  25.564   0.258
75429W        W34690  36.979  25.609   2.732
75430W        W34691  33.943  23.681  10.956
75431W        W34692  38.440  33.487  14.972
75432W        W34693  16.186  14.725   2.293
75433W        W34694  42.484   8.835  12.841
75434W        W34695  23.092  30.501  10.039
75435W        W34696  11.673   8.326   2.694
75436W        W34697  33.108  22.547  13.800
75437W        W34698   0.757  19.277   3.837
75438W        W34699   7.665  15.754   3.218
75439W        W34700  33.911   0.982  10.600
75440W        W34701  44.422  43.428  10.580
75441W        W34702  41.830  28.123  13.374
75442W        W34703   6.263  20.138  11.378
75443W        W34704  42.425  19.620  10.583
75444W        W34705  32.460  14.590   4.130
75445W        W34706  40.313   0.400   2.665
75446W        W34707  14.597  12.269   2.254
75447W        W34708  22.069  39.509  12.069
75448W        W34709  39.347  32.481   2.287
75449W        W34710  12.224   4.764   0.780
75450W        W34711  28.654  31.524  12.434
75451W        W34712   1.823  29.478  14.023
75452W        W34713   7.325  16.609  11.543
75453W        W34714   8.779  31.630   2.688
75454W        W34715  30.636  31.514   2.712
75455W        W34716  11.865   6.819  11.936
75456W        W34717  26.024  31.958  13.315
75457W        W34718  43.931   4.414  12.359
75458W        W34719   1.820  27.977   4.679
75459W        W34720   9.320  14.155  13.900
75460W        W34721  32.536  30.983   1.331
75461W        W34722  15.601  44.988   1.855
75462W        W34723   9.366  42.841  10.560
75463W        W34724   4.817  39.983  13.447
75464W        W34725  15.648  10.138  10.489
75465W        W34726   5.697  20.703  13.375
75466W        W34727   0.838  32.928  14.902
75467W        W34728  22.041   4.315   3.315
75468W        W34729  32.040  30.650   4.738
75469W        W34730  20.732   2.456   1.424
75470W        W34731  37.874  22.637   0.847
75471W        W34732  43.868  37.481   4.782
75472W        W34733  31.633   8.781   3.365
75473W        W34734   8.281   3.812   0.426
75474W        W34735  27.513  41.441   0.381
75475W        W34736  29.140  31.567   4.788
75476W        W34737  14.688  12.182  12.088
75477W        W34738  31.487   8.234   0.261
75478W        W34739  31.541  39.520   0.903
75479W        W34740  11.791  18.090  10.504
75480W        W34741  40.956  12.631  11.094
75481W        W34742   1.379  26.109   3.293
75482W        W34743  21.192   3.855   0.401
75483W        W34744  30.597  20.085  12.564
75484W        W34745  41.471  10.338  13.846
75485W        W34746  23.564   0.873   1.302
75486W        W34747  11.157  24.479   1.362
75487W        W34748   4.263  15.652  11.067
75488W        W34749  26.982  35.865  12.081
75489W        W34750  28.176  38.512   4.676
75490W        W34751  15.328  15.145   4.774
75491W        W34752  29.165  21.222   0.470
75492W        W34753  43.436  19.150  11.470
75493W        W34754  26.462  30.493   1.431
75494W        W34755  28.604  32.468   2.226
75495W        W34756  21.084  25.985  12.888
75496W        W34757  40.484  40.428  10.505
75497W        W34758  38.945  20.657  11.962
75498W        W34759  28.441   2.448  11.591
75499W        W34760  27.560  37.554   4.286
75500W        W34761  22.048  42.870   0.344
75501W        W34762  42.020   7.356  14.827
75502W        W34763  29.585  32.933  12.521
75503W        W34764   6.748  44.368   1.893
75504W        W34765  38.342   4.922   2.852
75505W        W34766  34.078  31.963   1.739
75506W        W34767  12.208  42.826   0.360
75507W        W34768  21.054  33.030  13.850
75508W        W34769  30.913  24.522   1.323
75509W        W34770  27.633   4.406  11.540
75510W        W34771  10.294  10.182  12.361
75511W        W34772  27.601  36.561   4.256
75512W        W34773  39.984  17.602  12.424
75513W        W34774  39.881  26.456   2.857
75514W        W34775   9.731  22.668   4.694
75515W        W34776  10.712   5.728   9.990
75516W        W34777   5.901  35.926   0.809
75517W        W34778   3.823  18.714  12.983
75518W        W34779  42.390  15.104   1.290
75519W        W34780   5.819   9.263  14.382
75520W        W34781  39.902  14.253   0.362
75521W        W34782  40.817  42.913  11.060
75522W        W34783  40.362  27.644   0.854
75523W        W34784   9.220  19.741  10.631
75524W        W34785   6.371  29.650  10.921
75525W        W34786   4.441  23.163   1.720
75526W        W34787  14.834   3.917  12.479
75527W        W34788  22.006   1.330  13.016
75528W        W34789   3.349  24.149  12.571
75529W        W34790  21.671  19.109  14.465
75530W        W34791   4.796  20.244  13.415
75531W        W34792  23.681  26.078   2.880
75532W        W34793  10.237  18.589   0.245
75533W        W34794  27.134  40.520  13.028
75534W        W34795  36.583   4.402  10.453
75535W        W34796  20.110  36.386  13.953
75536W        W34797  22.607  23.998  14.364
75537W        W34798  25.705  16.099  11.890
75538W        W34799  28.587   3.728   2.414
75539W        W34800  23.990  29.970   2.355
75540W        W34801  11.130  30.654  13.844
75541W        W34802  22.039  31.492   0.758
75542W        W34803  17.725  13.250  14.017
75543W        W34804  16.105  39.444  13.995
75544W        W34805   0.263  26.686  13.927
75545W        W34806  18.774  20.704   0.759
75546W        W34807  44.910  12.201   2.890
75547W        W34808   9.211  18.222  11.015
75548W        W34809  33.524  34.910   1.703
75549W        W34810  40.528  31.592  13.815
75550W        W34811  18.742  23.506  14.884
75551W        W34812  14.711   7.814   0.473
75552W        W34813  25.201   7.327  14.359
75553W        W34814  10.280  31.023   0.886
75554W        W34815  10.338   9.160  12.045
75555W        W34816  25.100  15.727  10.602
75556W        W34817  10.245  21.527  11.485
75557W        W34818   5.398  25.710   0.787
75558W        W34819   1.363   3.743   2.698
75559W        W34820   9.656   9.786  12.855
75560W        W34821  21.056   6.681   1.798
75561W        W34822  21.104  44.303   2.382
75562W        W34823  19.248   7.764  10.996
75563W        W34824  15.308  12.655  10.491
75564W        W34825  25.673  25.502  10.992
75565W        W34826   0.478   2.787  14.349
75566W        W34827  30.514  29.001  14.031
75567W        W34828  41.894  13.710  12.346
75568W        W34829  32.123   1.265  10.986
75569W        W34830  30.112  37.023  14.867
75570W        W34831  29.156   3.736   4.188
75571W        W34832  36.508   1.786  12.417
75572W        W34833   0.914   4.942   5.175
75573W        W34834  22.119  41.509  14.318
75574W        W34835  29.923   3.328  14.003
75575W        W34836  37.546  32.596  13.360
75576W        W34837  21.649  38.562   2.408
75577W        W34838  31.571  30.907   3.197
75578W        W34839  25.486  41.427   1.448
75579W        W34840  28.601  34.467  14.358
75580W        W34841  23.107  30.620   1.865
75581W        W34842   6.830  34.377   1.360
75582W        W34843  14.271  31.952  11.885
75583W        W34844  39.446   8.838   0.413
75584W        W34845  35.599   2.322  12.988
75585W        W34846  28.184  32.476  10.451
75586W        W34847   5.215  42.387   0.752
75587W        W34848  36.009  10.349   4.213
75588W        W34849  42.282  19.088  12.086
75589W        W34850  15.146  38.924  14.443
75590W        W34851  36.480  41.814  13.482
75591W        W34852  23.587   7.774  12.500
75592W        W34853  10.723  15.812  11.412
75593W        W34854   6.888  23.666  11.915
75594W        W34855   6.272  39.525   4.791
75595W        W34856  18.070  35.939   4.122
75596W        W34857   2.469  33.072  12.538
75597W        W34858   8.356  13.111  14.982
75598W        W34859   9.717  36.531   1.865
75599W        W34860   8.387   4.270   5.261
75600W        W34861  36.857   5.278   1.241
75601W        W34862  34.598   4.359   2.374
75602W        W34863  17.194  16.680   3.146
75603W        W34864  15.628  33.410   1.812
75604W        W34865  26.555   3.767   0.316
75605W        W34866  10.821   9.225   0.867
75606W        W34867  43.768  20.131   4.297
75607W        W34868  18.747   9.183   0.926
75608W        W34869  20.593  19.066  14.367
75609W        W34870  20.561   9.297  14.903
75610W        W34871  27.477  24.074   0.349
75611W        W34872  38.510  24.580  11.483
75612W        W34873  30.158  28.491   3.359
75613W        W34874  32.412  17.169  13.975
75614W        W34875  37.999  34.114   1.329
75615W        W34876  26.057   0.983   2.789
75616W        W34877  31.604   2.839  14.982
75617W        W34878  15.633   3.299   2.240
75618W        W34879   4.448  13.266   2.678
75619W        W34880  43.802   4.358  12.097
75620W        W34881  22.225  35.948   3.799
75621W        W34882   2.354  24.567   2.184
75622W        W34883  37.449  20.532  10.976
75623W        W34884   2.292  42.919  14.819
75624W        W34885  12.672  30.008  11.450
75625W        W34886   9.691   9.337  12.008
75626W        W34887  15.742  33.471  10.999
75627W        W34888  38.024  20.048  13.463
75628W        W34889  21.240   6.700  12.833
75629W        W34890  30.566   5.752  11.980
75630W        W34891  37.906   3.423   3.712
75631W        W34892   2.780  20.042   3.781
75632W        W34893  18.168  34.109  13.513
75633W        W34894  22.527  23.721   0.303
75634W        W34895  38.354  40.304   1.885
75635W        W34896  30.421  40.546   4.115
75636W        W34897  10.205  25.130  12.394
75637W        W34898  20.626  18.620   0.377
75638W        W34899  13.658  20.255  13.517
75639W        W34900  12.669  40.038  11.527
75640W        W34901   2.836   5.360  10.608
75641W        W34902  27.597  34.886  13.494
75642W        W34903  40.990  14.819   1.259
75643W        W34904  32.552  42.283  14.853
75644W        W34905  42.357  34.074  13.483
75645W        W34906  33.008  26.065  10.560
75646W        W34907  11.172  33.022   2.839
75647W        W34908   9.234  42.909   4.284
75648W        W34909  40.542  40.044   3.210
75649W        W34910  25.139  38.051   4.608
75650W        W34911  17.757  21.252   1.737
75651W        W34912  25.567  22.131   2.825
75652W        W34913  38.463   9.741   3.234
75653W        W34914  14.708  12.632  12.926
75654W        W34915  39.409  31.032  14.364
75655W        W34916   9.843  25.698  11.948
75656W        W34917   8.882   1.930  14.926
75657W        W34918  22.169   6.834  12.543
75658W        W34919  36.387  17.292  10.100
75659W        W34920   8.711   8.379   0.467
75660W        W34921  24.486  15.643   0.378
75661W        W34922   8.333  40.526  14.758
75662W        W34923  42.435  19.543   1.343
75663W        W34924  36.384  29.161  13.938
75664W        W34925  40.037   4.802  11.514
75665W        W34926   5.363   6.201  13.036
75666W        W34927  11.765  22.535  13.979
75667W        W34928  24.080   8.354  10.444
75668W        W34929  36.577   8.284  12.564
75669W        W34930  42.441  22.571   4.612
75670W        W34931  40.340  19.727  11.992
75671W        W34932  17.126  27.650   2.237
75672W        W34933  10.232  20.099  12.861
75673W        W34934  41.947  16.736  11.972
75674W        W34935  29.594  28.490  11.550
75675W        W34936  39.552  11.624  14.307
75676W        W34937  11.216   6.192   3.260
75677W        W34938  11.852   7.181   5.175
75678W        W34939  20.056  16.286   5.293
75679W        W34940  42.934  41.448   3.322
75680W        W34941  29.986   5.200  12.475
75681W        W34942   6.426   5.717   3.373
75682W        W34943  28.675  19.710   3.747
75683W        W34944  17.079  34.428   1.750
75684W        W34945  16.246   7.781   5.247
75685W        W34946  24.690  42.023   2.670
75686W        W34947  30.979  11.667   4.206
75687W        W34948  24.988  35.058  11.609
75688W        W34949  33.067  12.262   4.743
75689W        W34950   2.410  38.509  10.479
75690W        W34951  33.389  19.715   2.364
75691W        W34952   2.846  28.960   2.834
75692W        W34953  19.573  36.455   2.676
75693W        W34954   3.334  31.059   4.168
75694W        W34955  34.084  12.624   5.260
75695W        W34956  42.874  44.333   4.797
75696W        W34957  11.296  41.434   1.408
75697W        W34958  31.550  27.150  11.442
75698W        W34959  40.927  27.595  13.387
75699W        W34960  44.796  40.874   2.334
75700W        W34961  29.058  32.939   2.826
75701W        W34962  23.668  31.636  11.049
75702W        W34963  39.462  35.566  12.479
75703W        W34964  20.627   0.767   1.221
75704W        W34965  15.652  12.188   0.464
75705W        W34966  27.600  34.087   1.402
75706W        W34967   5.902   3.726  14.775
75707W        W34968  38.860  31.080   4.229
75708W        W34969  20.635  40.436  10.574
75709W        W34970  24.510  37.868   2.703
75710W        W34971  14.646  30.148  12.939
75711W        W34972  17.706  17.702   0.787
75712W        W34973  44.905  36.989   2.685
75713W        W34974  36.053  25.122   2.800
75714W        W34975  35.013  26.521   1.871
75715W        W34976  22.514   6.796   4.654
75716W        W34977   4.716   2.724  13.495
75717W        W34978  25.054  36.422  13.446
75718W        W34979  10.309   1.883   4.734
75719W        W34980  12.821   5.264  12.929
75720W        W34981  36.908  12.852   3.655
75721W        W34982  21.152   8.342   3.748
75722W        W34983  33.601   4.212   2.769
75723W        W34984  31.977  40.367  14.770
75724W        W34985   5.800  40.977   3.669
75725W        W34986  33.549  37.910   1.916
75726W        W34987   7.180   0.782  12.833
75727W        W34988  41.955  37.519   3.244
75728W        W34989  16.096  27.548  14.913
75729W        W34990  16.218   8.734  11.938
75730W        W34991  30.653  41.967  12.490
75731W        W34992   1.871   7.910   2.190
75732W        W34993  26.965  18.635  12.353
75733W        W34994  32.927  16.616  11.040
75734W        W34995   5.387   4.728  14.331
75735W        W34996  41.841  41.443   4.312
75736W        W34997  29.453   8.300   1.422
75737W        W34998  23.519  30.428   1.255
75738W        W34999   6.397  15.089  13.388
75739W        W35000  24.578  20.168   4.624
75740W        W35001  14.637  39.458  12.897
75741W        W35002  37.500  38.016   4.283
75742W        W35003  31.434  34.386   3.378
75743W        W35004  14.798  12.811   3.862
75744W        W35005  21.532  16.232  11.596
75745W        W35006  44.914  23.704   9.923
75746W        W35007  44.952  24.137   3.695
75747W        W35008  40.475   3.225   2.356
75748W        W35009  11.298  37.544  10.983
75749W        W35010  30.624  32.524   2.276
75750W        W35011  43.810  33.983  13.338
75751W        W35012   3.396   8.864   3.776
75752W        W35013   0.250  33.555   3.864
75753W        W35014   7.230  38.927   3.191
75754W        W35015  20.126  15.619   0.386
75755W        W35016  42.859  35.049  14.318
75756W        W35017  27.951  36.873  14.306
75757W        W35018   8.676  19.253   3.359
75758W        W35019  31.119  26.154  13.527
75759W        W35020  38.894  24.509  14.933
75760W        W35021   7.886  13.793   3.357
75761W        W35022  31.553  13.331  12.418
75762W        W35023  22.032  26.115   1.786
75763W        W35024  36.862   5.312  11.384
75764W        W35025  32.469  19.755  13.985
75765W        W35026  26.175   7.380  14.814
75766W        W35027  35.432  35.912   4.210
75767W        W35028  19.053  29.960   4.618
75768W        W35029  14.738   6.209   1.345
75769W        W35030  21.110  21.172  14.933
75770W        W35031  17.574  28.457   4.245
75771W        W35032  43.321   3.416   4.238
75772W        W35033   4.392   8.393   1.253
75773W        W35034  38.005  43.377  13.989
75774W        W35035  42.916  42.891   3.227
75775W        W35036  13.115  38.931   2.860
75776W        W35037  42.507  33.579   1.235
75777W        W35038   2.765  36.565  11.058
75778W        W35039   7.859  27.522  12.855
75779W        W35040   8.191  42.945  10.499
75780W        W35041  32.409  34.394   2.756
75781W        W35042  38.853  16.752  12.062
75782W        W35043   7.310  22.251  10.999
75783W        W35044   3.749  22.073   1.870
75784W        W35045  44.938  26.535   5.118
75785W        W35046  23.592  24.199   4.654
75786W        W35047  34.097  20.133   4.119
75787W        W35048  19.167  12.263  12.091
75788W        W35049  27.669  44.006   1.296
75789W        W35050   8.691   3.845   0.437
75790W        W35051  12.150  43.287  13.838
75791W        W35052  10.263  31.599   4.837
75792W        W35053  32.080  10.762  11.921
75793W        W35054   5.864  17.670   3.334
75794W        W35055  42.460  24.520   4.623
75795W        W35056  40.366  32.406  10.069
75796W        W35057  41.034  25.981   2.247
75797W        W35058  29.628  34.917   4.770
75798W        W35059  17.727  19.591   0.332
75799W        W35060  27.189  32.003   1.255
75800W        W35061   9.275  13.729  13.833
75801W        W35062   4.369   7.840  13.015
75802W        W35063   0.316  34.047   2.350
75803W        W35064  18.718  14.250  10.925
75804W        W35065  41.940  30.490  13.355
75805W        W35066  21.576  36.990   3.772
75806W        W35067   8.183  40.426  13.054
75807W        W35068  26.124  29.503   1.302
75808W        W35069  32.531  37.555  11.026
75809W        W35070  37.480  19.093   4.823
75810W        W35071   8.340  27.594  11.546
75811W        W35072  33.910  22.553   4.651
75812W        W35073  42.819  19.111   4.316
75813W        W35074  24.724  32.398   4.305
75814W        W35075  15.693  27.064   1.245
75815W        W35076  44.461   1.327   0.279
75816W        W35077  27.624  11.254   4.173
75817W        W35078  19.258  32.402  14.452
75818W        W35079  22.056  30.921  12.919
75819W        W35080   1.272  21.107   1.305
75820W        W35081  34.401  37.501   0.858
75821W        W35082  11.351   3.270   2.311
75822W        W35083  18.670  18.266   1.339
75823W        W35084   3.384  23.107   3.673
75824W        W35085  44.000  20.252   3.213
75825W        W35086  24.050  14.782  13.438
75826W        W35087  10.265  42.468   0.808
75827W        W35088   5.764  29.164   3.149
75828W        W35089  14.615  30.134   2.198
75829W        W35090  42.898  25.105   3.385
75830W        W35091  20.039  39.970  11.604
75831W        W35092  12.121   8.869  10.907
75832W        W35093  30.153  39.014   1.722
75833W        W35094  42.932  43.478   3.181
75834W        W35095   3.382  35.938   2.740
75835W        W35096  38.898  33.382  14.410
75836W        W35097  15.139   4.255   4.207
75837W        W35098   2.857  37.998  11.913
75838W        W35099   8.730  43.886  12.980
75839W        W35100  17.731  30.621  11.420
75840W        W35101  22.728  17.114  11.972
75841W        W35102  43.811  42.932   3.713
75842W        W35103  28.033   5.827   3.740
75843W        W35104   0.748  22.248  11.105
75844W        W35105  14.179  36.527   1.720
75845W        W35106   3.344   6.816   4.774
75846W        W35107  23.091  31.463  13.852
75847W        W35108   6.795   6.402   2.405
75848W        W35109  31.555  28.619  12.340
75849W        W35110  12.346  18.191  13.001
75850W        W35111   9.834  10.324   3.779
75851W        W35112  35.556  19.618  14.823
75852W        W35113   7.311  21.670   3.754
75853W        W35114  36.881  10.341   0.463
75854W        W35115  37.855   3.275   1.694
75855W        W35116   5.921  26.676   2.694
75856W        W35117  20.747  23.213   3.196
75857W        W35118  34.554  37.382  14.320
75858W        W35119  15.602  15.682   3.195
75859W        W35120  23.587  39.421  11.574
75860W        W35121   5.414  29.105   1.353
75861W        W35122   5.222  21.697  12.052
75862W        W35123   3.873  41.787  10.912
75863W        W35124  18.567  44.757   4.762
75864W        W35125   5.793   6.352   4.130
75865W        W35126  20.584   7.194   2.210
75866W        W35127  26.556  43.909   2.296
75867W        W35128  30.998   1.444   5.281
75868W        W35129   6.723  37.998   1.865
75869W        W35130  30.133  41.394  10.574
75870W        W35131   1.351  30.102   2.779
75871W        W35132   1.880  21.573   2.399
75872W        W35133  17.627  16.661   3.813
75873W        W35134   3.747  21.129   3.248
75874W        W35135  16.672   4.913  13.000
75875W        W35136  42.001  10.326   4.340
75876W        W35137   5.296  29.536  11.042
75877W        W35138  13.701  16.692  12.370
75878W        W35139  18.779  22.052   4.128
75879W        W35140  35.590  24.698   0.804
75880W        W35141  10.338   5.878  12.951
75881W        W35142   1.782  37.552   5.271
75882W        W35143  16.295  17.574  12.911
75883W        W35144  42.495  43.937  11.544
75884W        W35145  39.986  23.145  12.901
75885W        W35146  28.459   5.772  13.892
75886W        W35147  17.280  12.257   1.363
75887W        W35148  11.683  14.145  12.012
75888W        W35149  10.854  39.933  14.831
75889W        W35150   6.709  41.368  13.339
75890W        W35151   4.720   9.334   3.180
75891W        W35152  40.878  39.811   3.781
75892W        W35153  38.459  42.899  14.903
75893W        W35154  42.362   7.284   0.919
75894W        W35155  24.164  43.455  12.360
75895W        W35156   1.307  24.669  12.860
75896W        W35157  24.085  22.597  10.405
75897W        W35158  28.562  40.340   2.182
75898W        W35159   2.249  41.376   2.409
75899W        W35160  35.533  20.256   3.852
75900W        W35161  16.599  26.509   3.381
75901W        W35162  45.000  18.239   5.733
75902W        W35163  18.083  22.014   2.791
75903W        W35164  35.909  40.865   2.864
75904W        W35165  40.308  31.411   1.858
75905W        W35166  43.823  44.936  11.599
75906W        W35167  35.965  34.885  11.406
75907W        W35168  40.828  35.409   0.315
75908W        W35169  23.038  13.715  12.452
75909W        W35170  12.216   7.668   3.705
75910W        W35171  31.957   5.895  12.378
75911W        W35172   0.403  43.291  10.508
75912W        W35173  39.017  26.617   1.916
75913W        W35174  10.770  16.170  14.842
75914W        W35175   1.466   4.776  14.010
75915W        W35176   6.722  27.541   2.184
75916W        W35177  18.212  44.413  13.471
75917W        W35178   5.787  43.909   1.794
75918W        W35179  30.041   8.752   1.712
75919W        W35180  28.039   8.747   3.645
75920W        W35181  23.582   4.812   1.317
75921W        W35182  13.682  26.194  10.609
75922W        W35183   0.390  33.462  10.461
75923W        W35184  37.948  30.040  13.995
75924W        W35185  22.182  21.695   1.792
75925W        W35186  29.968   0.287   3.639
75926W        W35187  24.487  35.896  13.533
75927W        W35188  25.061  30.633  11.958
75928W        W35189  18.065  15.725  14.465
75929W        W35190  10.211  20.625  14.406
75930W        W35191  15.090  11.758  14.341
75931W        W35192  21.142  21.658   2.376
75932W        W35193  25.714  15.140   2.802
75933W        W35194   8.793  20.087  12.473
75934W        W35195  34.440  44.805  13.518
75935W        W35196   7.313  24.050   0.831
75936W        W35197   2.304   7.837  12.042
75937W        W35198  36.534  31.420  13.491
75938W        W35199  15.661   3.359   1.778
75939W        W35200  40.981  23.177  12.369
75940W        W35201  31.578  41.945  10.468
75941W        W35202   5.352  43.463   4.199
75942W        W35203  33.967   4.338   3.847
75943W        W35204  24.671  14.691  13.490
75944W        W35205  37.839   4.380  13.831
75945W        W35206  37.454  35.930  11.495
75946W        W35207  33.995  32.590  11.931
75947W        W35208   1.473   4.309   2.756
75948W        W35209  24.646  39.512  12.346
75949W        W35210  30.930  15.597  11.570
75950W        W35211  29.165   6.824  14.401
75951W        W35212  30.519   0.396  13.345
75952W        W35213  14.201  35.888   3.715
75953W        W35214  19.633  23.564  12.024
75954W        W35215   6.299  20.572  13.457
75955W        W35216  11.660   1.263  14.944
75956W        W35217  13.212  27.501  14.478
75957W        W35218   3.741  24.607   2.877
75958W        W35219   6.697  40.458  10.959
75959W        W35220   9.387  25.699  10.432
75960W        W35221  26.970  14.277   1.326
75961W        W35222  44.868  33.981   3.334
75962W        W35223   2.275  44.784   0.280
75963W        W35224  29.598  34.444  10.891
75964W        W35225   2.967  29.474  10.561
75965W        W35226  32.492  37.558  12.840
75966W        W35227  31.537  23.725  10.414
75967W        W35228  21.728   6.797   4.769
75968W        W35229  35.929  36.499   2.271
75969W        W35230  38.388  26.693   3.845
75970W        W35231   6.201  42.314   0.468
75971W        W35232  28.609   7.815  12.976
75972W        W35233   7.352   1.767   4.642
75973W        W35234  34.005  33.008  13.309
75974W        W35235  11.225   0.875  12.917
75975W        W35236  37.007  18.773  14.959
75976W        W35237  29.489   4.253   9.942
75977W        W35238  38.374  23.013  12.424
75978W        W35239  21.110  40.466  10.929
75979W        W35240  34.864   0.861  11.389
75980W        W35241  25.524  32.489  14.291
75981W        W35242  11.785   3.886  11.403
75982W        W35243  44.755  32.552  10.893
75983W        W35244  29.561  18.182   4.655
75984W        W35245  33.399  25.164  14.399
75985W        W35246  26.459  26.579  10.979
75986W        W35247  33.389  26.078  10.620
75987W        W35248  37.544  20.209  14.386
75988W        W35249  38.450   0.306   0.847
75989W        W35250  10.213  16.800   2.337
75990W        W35251  42.378  34.019   2.797
75991W        W35252  19.281  12.827  14.886
75992W        W35253   1.894  34.967   1.299
75993W        W35254  22.719  44.408   0.745
75994W        W35255   3.414  20.194   3.304
75995W        W35256   4.242  35.883  12.512
75996W        W35257   2.349  19.761  14.281
75997W        W35258  39.843  42.838   2.767
75998W        W35259  10.237  23.016  10.577
75999W        W35260  27.609  41.891  12.433
76000W        W35261   5.906  37.430  10.937
76001W        W35262  31.438  41.391  12.860
76002W        W35263  27.143  22.058   3.273
76003W        W35264   2.372  39.924   4.711
76004W        W35265   8.325   0.262  10.552
76005W        W35266   0.462   2.322  10.513
76006W        W35267  43.470  44.311   0.396
76007W        W35268  35.503  39.061   1.357
76008W        W35269  37.543  13.329   4.295
76009W        W35270  26.177  26.629  14.358
76010W        W35271   7.260   0.943   1.923
76011W        W35272   1.756  35.458  14.897
76012W        W35273  38.491  21.201  10.447
76013W        W35274  13.822  19.225   4.125
76014W        W35275   1.449  33.049  14.310
76015W        W35276  11.775  31.630  14.832
76016W        W35277  15.706  44.985   4.264
76017W        W35278   1.837  23.145  10.502
76018W        W35279  24.192  27.012   2.238
76019W        W35280  31.637  17.772  10.945
76020W        W35281  44.390   6.383  10.404
76021W        W35282  11.220  26.987   3.720
76022W        W35283  24.146  35.898   0.266
76023W        W35284   1.341  39.928  10.526
76024W        W35285   7.303  25.629  10.897
76025W        W35286   7.841  38.479  14.835
76026W        W35287   0.424  23.576  11.525
76027W        W35288  17.692   5.377   0.298
76028W        W35289  39.482   0.311  14.818
76029W        W35290  42.944  41.467   2.665
76030W        W35291  30.595  39.518   4.201
76031W        W35292   0.453  26.510  10.945
76032W        W35293  16.263  10.239   3.770
76033W        W35294  26.633  13.169   3.170
76034W        W35295  24.086  38.440  10.482
76035W        W35296  11.692  10.240   4.630
76036W        W35297  28.585  25.155  12.046
76037W        W35298  21.561  30.510  14.475
76038W        W35299  13.250  34.369   0.418
76039W        W35300  33.521  39.338  11.593
76040W        W35301  30.591  15.618   2.220
76041W        W35302  14.132   6.344  14.937
76042W        W35303  37.435   2.834  11.995
76043W        W35304  18.202  38.824   4.204
76044W        W35305  14.236  36.859  14.337
76045W        W35306  42.524  34.981  13.453
76046W        W35307  22.561  38.997   9.967
76047W        W35308  12.690  32.570  14.831
76048W        W35309  43.018  17.792  10.101
76049W        W35310  41.933  12.141  14.360
76050W        W35311   8.349  30.948   1.889
76051W        W35312   4.801  21.523  12.500
76052W        W35313  24.031  21.087  13.530
76053W        W35314  44.798  44.997   2.703
76054W        W35315  15.608  22.639   0.377
76055W        W35316  18.267  31.063  14.314
76056W        W35317  32.083  27.975  11.493
76057W        W35318  24.132  14.735   2.889
76058W        W35319  33.022  15.618   1.712
76059W        W35320  13.217  42.792   2.789
76060W        W35321  21.517  32.441   4.722
76061W        W35322  37.869  13.785   4.333
76062W        W35323  34.091  17.165  12.572
76063W        W35324  20.605  41.878  13.535
76064W        W35325  17.281   6.196  13.314
76065W        W35326  15.153  11.293  14.959
76066W        W35327  29.951  18.740   4.118
76067W        W35328  29.532  19.132   2.293
76068W        W35329  13.296  15.108   1.785
76069W        W35330   0.745  40.466  14.428
76070W        W35331  28.997  13.205   4.269
76071W        W35332  21.563  44.931  13.017
76072W        W35333  12.177  28.025   3.268
76073W        W35334  42.509   6.876  11.443
76074W        W35335  27.093  24.998  12.487
76075W        W35336  32.575  13.831   3.731
76076W        W35337   5.877  23.081   3.371
76077W        W35338  22.631  26.082  13.330
76078W        W35339  19.104   3.886   3.774
76079W        W35340  33.890  43.986  13.502
76080W        W35341  20.177   9.840  12.420
76081W        W35342  21.029  14.703  11.555
76082W        W35343   0.352   3.394   2.664
76083W        W35344  12.630   4.327  12.537
76084W        W35345  42.446   0.327   2.855
76085W        W35346  33.876   5.390  14.494
76086W        W35347  29.548  42.990   0.336
76087W        W35348  38.526  19.569   0.878
76088W        W35349   3.952  35.463  14.813
76089W        W35350  21.651  13.607   4.700
76090W        W35351  35.556  13.160   3.694
76091W        W35352  38.947  29.520   1.857
76092W        W35353  17.254  38.522   2.710
76093W        W35354   5.341  15.329  14.912
76094W        W35355  10.359  38.034  14.420
76095W        W35356  11.219  20.265  13.509
76096W        W35357  41.946  17.251   3.344
76097W        W35358  15.647   5.210  13.391
76098W        W35359  37.017  30.531   2.779
76099W        W35360  34.014  42.523  13.413
76100W        W35361  38.435  32.084  12.445
76101W        W35362  32.955  36.993   2.263
76102W        W35363  33.482  42.989  10.040
76103W        W35364  23.989  41.415  12.350
76104W        W35365  17.201  39.002   5.291
76105W        W35366  23.154   3.329   1.906
76106W        W35367   5.234  41.902  13.012
76107W        W35368  18.065  36.903  13.369
76108W        W35369  31.973  30.566   4.127
76109W        W35370  11.292  31.137   2.218
76110W        W35371  43.963  30.632  12.512
76111W        W35372  41.955   9.170  10.599
76112W        W35373  20.712  25.506  13.502
76113W        W35374  43.849  34.106   2.218
76114W        W35375  43.962   5.723   1.339
76115W        W35376  41.935  38.001  11.938
76116W        W35377  23.219   4.868   2.902
76117W        W35378  34.917  14.300  14.450
76118W        W35379  25.023  34.097  13.020
76119W        W35380  14.596   8.859   0.916
76120W        W35381  30.612  29.586  14.855
76121W        W35382   3.228   2.787  13.057
76122W        W35383  11.310  31.113   2.805
76123W        W35384  43.876   2.258  11.884
76124W        W35385  30.659  35.523  10.619
76125W        W35386  22.720  16.151  10.634
76126W        W35387   6.228   6.837   5.293
76127W        W35388  33.960  11.730  11.897
76128W        W35389  24.216  24.664   1.265
76129W        W35390   2.236  38.536   1.322
76130W        W35391   2.447  36.381   1.330
76131W        W35392   2.281  38.560   1.860
76132W        W35393  22.723   7.386  13.893
76133W        W35394  33.038   2.441   1.406
76134W        W35395  20.591   8.691   1.437
76135W        W35396  35.403  43.297  11.479
76136W        W35397  17.216  38.397   2.358
76137W        W35398  31.477   3.821   3.371
76138W        W35399  30.425  11.343  11.486
76139W        W35400   0.363  39.513   1.281
76140W        W35401  34.575  22.640   3.739
76141W        W35402  16.585  29.541  13.050
76142W        W35403  39.394  15.731   1.914
76143W        W35404  30.075  19.110  11.123
76144W        W35405  30.445   0.393  10.894
76145W        W35406  25.534  20.244   0.938
76146W        W35407  42.352  17.730  11.896
76147W        W35408   8.327  28.156  12.040
76148W        W35409  30.414   7.667  11.379
76149W        W35410   0.263  31.914   1.350
76150W        W35411  33.091  31.442  14.484
76151W        W35412  26.658   9.340   0.474
76152W        W35413  21.654   9.686   2.770
76153W        W35414  27.666  32.577   0.752
76154W        W35415  21.228  21.128   4.213
76155W        W35416  25.067  24.230  14.350
76156W        W35417   4.916  31.479  11.086
76157W        W35418  43.954   5.886  14.382
76158W        W35419  18.073  39.815  10.944
76159W        W35420   1.769  31.959  10.118
76160W        W35421   2.471   7.227   0.886
76161W        W35422  44.435  44.322  12.071
76162W        W35423   8.352  26.208   3.264
76163W        W35424  27.040  36.021   4.131
76164W        W35425  31.454  41.965  11.970
76165W        W35426  36.024  41.503   2.413
76166W        W35427  34.054  37.883   4.285
76167W        W35428  22.242   6.680   0.937
76168W        W35429  33.547   6.738  11.394
76169W        W35430   3.231  43.946  10.548
76170W        W35431  24.016   1.859   5.109
76171W        W35432  26.072   6.758   0.393
76172W        W35433  41.902  15.277   3.690
76173W        W35434  27.477   6.681  13.336
76174W        W35435  19.734  29.556  12.845
76175W        W35436  25.994  28.525   1.316
76176W        W35437  40.452  32.433   0.773
76177W        W35438  23.209  43.965  14.436
76178W        W35439   4.252  19.204  12.054
76179W        W35440  14.134  24.585  12.957
76180W        W35441  34.563  14.162  10.963
76181W        W35442  25.626  28.532   1.847
76182W        W35443  10.293  32.485  14.426
76183W        W35444   0.945  14.741   3.735
76184W        W35445   3.941   6.309  12.514
76185W        W35446  24.042  11.363  12.909
76186W        W35447  40.892  15.221   4.641
76187W        W35448  34.982   8.664  14.768
76188W        W35449  15.729  43.434   9.935
76189W        W35450   6.245  11.695  13.354
76190W        W35451  29.426  41.391  14.400
76191W        W35452  35.928  18.180  12.043
76192W        W35453  24.501  15.275  12.538
76193W        W35454   1.858  26.696   2.754
76194W        W35455  26.495  38.842   4.123
76195W        W35456   8.725  40.018  14.796
76196W        W35457  33.045  39.937   1.796
76197W        W35458  23.012  42.813   2.331
76198W        W35459  32.941  19.719   0.862
76199W        W35460  27.620  31.631  11.533
76200W        W35461   8.388  20.254   2.366
76201W        W35462   0.925  15.324  14.379
76202W        W35463   3.447  40.410  13.817
76203W        W35464   0.866  37.977  11.440
76204W        W35465  14.287  32.124   4.204
76205W        W35466  39.938  21.147  12.400
76206W        W35467  11.748  23.566  12.561
76207W        W35468  28.935  38.538   0.948
76208W        W35469  34.559  23.231  14.345
76209W        W35470  41.907  22.058  12.346
76210W        W35471  19.739  34.485  12.870
76211W        W35472  19.146  30.037  12.060
76212W        W35473  36.899  36.842  12.047
76213W        W35474  34.046   9.155  10.932
76214W        W35475  32.615  28.583   4.230
76215W        W35476  25.601  35.986   3.694
76216W        W35477  26.036  42.312  11.074
76217W        W35478   2.267  35.041   4.239
76218W        W35479   5.254   0.927   0.453
76219W        W35480  10.301  43.780  11.985
76220W        W35481  11.178   6.877   9.488
76221W        W35482  25.026   0.947   4.624
76222W        W35483  21.758  23.214  12.917
76223W        W35484   0.845   3.952   1.831
76224W        W35485  15.260  43.374   3.728
76225W        W35486  16.726   8.280  14.018
76226W        W35487  37.922  21.036   1.443
76227W        W35488  23.577  39.342   1.245
76228W        W35489  26.016   1.482  13.876
76229W        W35490  37.570  26.682  12.551
76230W        W35491  33.601  37.883  11.907
76231W        W35492   6.686  11.321   3.254
76232W        W35493  35.421  18.060   4.676
76233W        W35494  28.122  43.486  14.410
76234W        W35495  12.198   2.745   2.717
76235W        W35496  26.593   3.943  14.802
76236W        W35497  18.748  26.051   0.840
76237W        W35498  37.532  42.359   1.905
76238W        W35499  38.545  15.710   2.839
76239W        W35500  15.097   7.870  12.854
76240W        W35501  31.426  11.162  11.985
76241W        W35502  17.798  20.263   0.311
76242W        W35503  15.312  20.703   0.289
76243W        W35504   1.769   2.788  10.450
76244W        W35505  28.638  28.065  12.019
76245W        W35506  21.228   6.290   0.439
76246W        W35507  29.629  44.754   1.773
76247W        W35508  25.143  43.403  10.643
76248W        W35509  39.029  11.862  10.494
76249W        W35510  25.996   2.452   0.961
76250W        W35511  25.094  25.538  12.902
76251W        W35512  24.526  16.699  12.889
76252W        W35513   1.347  33.423   4.317
76253W        W35514  25.154  23.631   3.354
76254W        W35515  34.882  13.703  10.636
76255W        W35516  29.646   8.359  11.919
76256W        W35517  30.428   5.760   4.598
76257W        W35518  17.099   0.846  11.548
76258W        W35519  41.329  32.427   3.832
76259W        W35520  36.066  25.028   0.407
76260W        W35521  32.556   7.354   3.662
76261W        W35522  43.274   5.889   4.155
76262W        W35523  21.746   0.942   3.751
76263W        W35524  31.090  30.153  13.860
76264W        W35525  23.621   0.880  12.565
76265W        W35526   7.214  21.736   0.837
76266W        W35527   2.933  36.882  11.879
76267W        W35528   1.935  21.065  14.979
76268W        W35529  32.593  36.442  14.828
76269W        W35530  35.021   9.730   5.664
76270W        W35531  11.715   4.739   1.343
76271W        W35532   2.871  37.373  14.485
76272W        W35533  26.952   6.770   2.299
76273W        W35534  10.757  37.986  14.369
76274W        W35535  36.954  37.512  12.407
76275W        W35536   3.320   3.932  14.466
76276W        W35537   0.367  12.178   1.382
76277W        W35538  25.127  34.874   0.733
76278W        W35539  38.494  19.744  11.396
76279W        W35540  32.534  33.431   3.329
76280W        W35541   6.694  21.107   0.881
76281W        W35542  23.561  40.494  13.515
76282W        W35543   8.892  30.503   0.947
76283W        W35544  28.534  21.540   4.348
76284W        W35545   5.268  34.028   4.126
76285W        W35546  39.952  20.747  11.566
76286W        W35547  43.511  43.335  14.762
76287W        W35548  35.527  17.286   0.299
76288W        W35549   4.420   8.352   9.603
76289W        W35550  11.246   8.272   0.370
76290W        W35551  44.911  42.974   4.176
76291W        W35552   9.238  23.564   1.336
76292W        W35553   6.818  29.122   0.281
76293W        W35554  17.716   7.690   4.152
76294W        W35555  25.671  15.813   0.859
76295W        W35556  33.085   3.854  14.360
76296W        W35557  12.345  32.403   0.820
76297W        W35558  20.145  31.998   1.261
76298W        W35559   3.215  39.065   1.839
76299W        W35560  26.060  33.990  11.924
76300W        W35561  27.504  21.252  12.043
76301W        W35562  33.055  21.586   4.838
76302W        W35563  10.865   2.266  10.971
76303W        W35564  19.275  28.448  10.127
76304W        W35565  25.632  10.667   0.765
76305W        W35566  25.661  41.957   1.900
76306W        W35567  35.877   6.285   3.815
76307W        W35568  31.026  25.486   2.766
76308W        W35569  10.799  36.941   4.808
76309W        W35570  22.107   5.307   3.364
76310W        W35571  23.134  39.869   2.699
76311W        W35572  19.583  29.491  11.471
76312W        W35573   8.230  41.442  13.045
76313W        W35574  14.673  39.019   0.418
76314W        W35575  17.592  37.885  11.867
76315W        W35576  36.881  20.650   2.754
76316W        W35577  43.978  14.828  10.029
76317W        W35578   0.441  35.091   1.826
76318W        W35579  36.929  31.144  10.548
76319W        W35580   3.802  29.935   1.351
76320W        W35581   5.393  33.036  10.534
76321W        W35582   6.810  38.845   1.233
76322W        W35583  31.515  22.225  10.468
76323W        W35584  28.625  19.543   0.880
76324W        W35585  32.579  40.036  13.815
76325W        W35586  10.866  11.333   4.750
76326W        W35587   5.378  19.082   2.756
76327W        W35588   7.222  16.202   4.629
76328W        W35589   9.821  14.210  10.967
76329W        W35590  17.572   4.813  13.505
76330W        W35591   1.455   9.718  11.499
76331W        W35592  23.088  40.986  13.386
76332W        W35593  12.853  17.796  12.535
76333W        W35594  38.852   0.403   0.320
76334W        W35595   9.347  23.499   2.193
76335W        W35596  27.528  42.949  13.014
76336W        W35597  19.654  25.138  12.030
76337W        W35598   3.375  24.526   2.309
76338W        W35599  17.781   1.899   2.401
76339W        W35600  15.745  22.149   4.823
76340W        W35601  15.745   8.329   3.823
76341W        W35602  37.531   2.389  10.994
76342W        W35603  20.055  34.944   0.781
76343W        W35604  38.908   7.678  11.075
76344W        W35605  17.257   4.414  11.860
76345W        W35606  12.139  34.997   0.793
76346W        W35607  29.580  14.830   4.319
76347W        W35608  37.982  32.469  12.043
76348W        W35609  23.072  31.149   4.188
76349W        W35610  29.963  40.451  14.480
76350W        W35611  17.184  26.545   3.377
76351W        W35612   0.269   8.178  10.902
76352W        W35613  11.712   6.307   5.317
76353W        W35614  27.038  43.965   1.881
76354W        W35615  33.039  11.815   3.353
76355W        W35616  37.064  25.973  10.571
76356W        W35617  14.301  34.033  10.561
76357W        W35618   9.837  14.788  11.551
76358W        W35619  20.565  38.499  10.423
76359W        W35620   5.284  16.764   3.744
76360W        W35621  19.051  29.431  13.522
76361W        W35622  21.018   8.687  12.500
76362W        W35623  27.100  18.576  11.453
76363W        W35624  15.159  33.538   3.831
76364W        W35625  12.279  31.081   0.779
76365W        W35626   9.768   6.258  10.138
76366W        W35627   8.403  44.988   3.803
76367W        W35628  30.159   4.884  10.943
76368W        W35629  24.131  16.151  14.870
76369W        W35630  21.749   1.468  13.941
76370W        W35631  32.521  27.005  10.475
76371W        W35632   8.811  18.624  10.597
76372W        W35633  38.965  33.427   4.197
76373W        W35634   8.251  16.590  13.326
76374W        W35635  34.604  32.936   0.966
76375W        W35636  41.525   0.828  12.990
76376W        W35637   9.200   3.256   2.258
76377W        W35638  40.031  10.650  13.524
76378W        W35639  42.452  27.455   1.705
76379W        W35640  13.168   8.656  11.387
76380W        W35641  30.153  33.023   9.943
76381W        W35642  25.590   7.852  14.870
76382W        W35643  43.465  43.917  11.021
76383W        W35644  26.541   3.379   2.390
76384W        W35645  24.635   8.801  14.031
76385W        W35646  28.580  18.753   1.246
76386W        W35647  22.744  30.435   2.284
76387W        W35648  42.354   0.283   1.290
76388W        W35649   4.370  12.695   3.273
76389W        W35650   2.843  15.247  10.537
76390W        W35651   9.867   7.402  12.009
76391W        W35652  17.157  31.153  11.021
76392W        W35653  25.206  18.623  12.973
76393W        W35654   8.869  35.102  10.515
76394W        W35655  21.214  24.125  11.451
76395W        W35656  27.040  18.753  14.311
76396W        W35657  14.162   4.939  13.362
76397W        W35658   4.902  37.880  12.542
76398W        W35659  24.657   8.174   0.290
76399W        W35660  37.338  24.005  10.412
76400W        W35661  38.025  16.224  11.983
76401W        W35662  27.629   9.731  14.353
76402W        W35663   4.867   5.389  11.445
76403W        W35664  27.043  29.637  13.485
76404W        W35665   7.175  36.094   0.909
76405W        W35666  19.556  33.625   0.458
76406W        W35667  24.062   1.837  14.379
76407W        W35668  37.032  25.183   0.779
76408W        W35669  13.219  30.613  12.039
76409W        W35670  38.922  27.994   0.276
76410W        W35671  18.223  39.047   1.786
76411W        W35672   5.312   9.288  11.964
76412W        W35673  11.773  34.016   1.271
76413W        W35674   6.368   1.408   4.251
76414W        W35675   0.878  36.499   1.412
76415W        W35676   9.760  31.094   3.221
76416W        W35677   0.927  25.196  11.954
76417W        W35678  33.618   1.473  12.835
76418W        W35679  21.253  15.083   0.323
76419W        W35680  23.541  16.592   0.411
76420W        W35681  29.620  41.504   4.634
76421W        W35682  44.862   0.348   4.750
76422W        W35683  12.681  20.137   2.863
76423W        W35684   5.827  38.035   2.217
76424W        W35685  23.093  28.645   1.715
76425W        W35686   6.188   6.695   0.907
76426W        W35687  38.823  36.865  11.498
76427W        W35688  15.288  12.294   2.403
76428W        W35689  32.555  34.886  10.894
76429W        W35690  31.097  40.030   2.398
76430W        W35691  21.103  37.849  13.888
76431W        W35692  26.624   6.858  12.952
76432W        W35693  12.220  17.201  12.418
76433W        W35694   7.300   5.795  11.608
76434W        W35695  30.605  17.605  14.467
76435W        W35696  30.571  21.252   1.389
76436W        W35697  20.628  21.663   2.782
76437W        W35698  17.296   9.809  11.062
76438W        W35699  39.475  35.491   1.909
76439W        W35700  17.302  32.105   0.412
76440W        W35701  31.544  32.584   1.913
76441W        W35702  31.995   2.239  13.008
76442W        W35703   5.717  14.595  11.411
76443W        W35704  20.549  29.069   4.617
76444W        W35705  32.926  43.845   4.239
76445W        W35706  17.261  23.686   1.290
76446W        W35707  25.524  23.056  14.005
76447W        W35708  22.234  24.219   3.707
76448W        W35709  21.741  29.516  14.822
76449W        W35710  23.126   3.421  14.859
76450W        W35711  31.122  43.282  13.314
76451W        W35712  25.136   8.893  13.044
76452W        W35713  33.039  13.202   0.358
76453W        W35714  41.844   6.922   1.367
76454W        W35715   9.686  30.428  11.046
76455W        W35716  29.140  11.774  11.919
76456W        W35717   3.305  15.084   0.337
76457W        W35718   9.659  11.631   4.813
76458W        W35719  26.606  33.392   2.753
76459W        W35720  26.201  44.842   4.350
76460W        W35721  34.445  43.281   2.686
76461W        W35722  20.538  11.139   4.779
76462W        W35723   5.913  11.783   2.237
76463W        W35724   8.292  24.580  13.370
76464W        W35725  24.057  24.034   0.430
76465W        W35726  27.082  29.633  13.904
76466W        W35727   9.820   1.757   0.759
76467W        W35728   1.816  10.686   1.734
76468W        W35729  11.773  32.911   1.731
76469W        W35730  42.349  29.595   0.876
76470W        W35731   2.468   3.373  14.852
76471W        W35732  42.876  11.293  10.159
76472W        W35733  39.046  33.468  11.062
76473W        W35734  22.742   2.781   2.295
76474W        W35735  17.132  32.114   0.937
76475W        W35736  20.116  17.222   4.174
76476W        W35737  39.063  38.437  14.325
76477W        W35738  19.543   8.716  13.940
76478W        W35739   3.846  26.700  12.888
76479W        W35740  39.982   0.801   1.867
76480W        W35741  38.526  22.715  10.973
76481W        W35742  14.791  18.547  14.345
76482W        W35743  16.099  17.559  12.344
76483W        W35744   8.172  34.108  13.506
76484W        W35745  12.721  36.525  14.813
76485W        W35746  20.704  34.501  12.892
76486W        W35747  24.102   6.865  14.963
76487W        W35748  26.512  10.714  11.469
76488W        W35749  13.197  14.274  13.424
76489W        W35750  26.459  21.534  14.869
76490W        W35751   9.395  36.910   4.752
76491W        W35752  37.082  37.438  12.865
76492W        W35753  38.908  34.061  11.603
76493W        W35754  44.852  41.938  13.816
76494W        W35755  40.380   4.284   3.672
76495W        W35756  40.386  20.066   0.269
76496W        W35757  39.967  17.210   1.379
76497W        W35758   2.259   2.814   2.776
76498W        W35759  15.678   0.247  12.861
76499W        W35760   8.206  18.592  10.462
76500W        W35761  16.679   5.779   4.253
76501W        W35762  38.006  25.476  14.373
76502W        W35763  38.410  44.302   3.174
76503W        W35764  41.968  42.436  13.437
76504W        W35765  28.075  30.539  14.851
76505W        W35766  12.803  34.980  14.300
76506W        W35767  12.750  11.157  13.019
76507W        W35768  43.989  35.888   0.944
76508W        W35769  16.617  11.256   2.845
76509W        W35770  21.640  26.503   4.713
76510W        W35771  27.158  12.299   2.716
76511W        W35772  23.706  27.500   4.172
76512W        W35773  16.593   2.921   3.292
76513W        W35774  43.926  15.794  14.768
76514W        W35775  31.540   4.433   3.692
76515W        W35776  10.213  23.494   3.191
76516W        W35777  37.462  18.058  14.454
76517W        W35778  15.299  35.029  12.986
76518W        W35779  26.590  43.305  11.026
76519W        W35780  39.413  33.107  14.020
76520W        W35781  25.010  41.817   4.628
76521W        W35782  36.045  24.045  10.901
76522W        W35783  39.006   5.242  14.948
76523W        W35784  11.311  29.949   1.874
76524W        W35785  38.384  29.010   4.226
76525W        W35786  12.206  42.002  13.334
76526W        W35787  23.653  31.140  12.460
76527W        W35788  34.521  12.795  13.952
76528W        W35789  25.120  42.499  13.051
76529W        W35790  24.502  23.567   4.224
76530W        W35791  32.078   9.237   1.930
76531W        W35792  34.422  26.060   3.170
76532W        W35793  13.733  34.513   0.344
76533W        W35794  26.061  18.633  10.410
76534W        W35795   5.195  44.769  14.938
76535W        W35796  41.907  17.770   0.480
76536W        W35797  26.992  13.820  10.443
76537W        W35798  44.875  27.116  10.976
76538W        W35799  29.508  16.600  14.932
76539W        W35800  11.712  22.726  10.978
76540W        W35801   2.744  39.478  10.641
76541W        W35802  38.946  42.293   1.307
76542W        W35803  37.372  43.881   1.780
76543W        W35804  28.990  15.216   1.778
76544W        W35805  44.758  25.174   1.777
76545W        W35806  38.528  14.138   4.807
76546W        W35807   0.319  22.668   2.784
76547W        W35808   9.819  31.488  10.614
76548W        W35809  29.015  23.619   2.859
76549W        W35810   4.435  33.521   1.733
76550W        W35811  13.176  41.359  10.644
76551W        W35812  18.574  15.729  13.350
76552W        W35813  23.734  42.490  14.306
76553W        W35814  30.913  38.510   1.705
76554W        W35815  15.256  27.020  12.828
76555W        W35816  24.223  32.897  12.903
76556W        W35817  37.574  22.143   3.350
76557W        W35818  34.578  34.887   0.953
76558W        W35819  13.808  19.087  14.961
76559W        W35820  15.126  35.002  10.466
76560W        W35821   4.727   9.663   4.681
76561W        W35822  22.129   9.262  13.903
76562W        W35823  34.027  25.991   0.379
76563W        W35824  41.986   0.399  12.390
76564W        W35825  19.057   1.278  11.903
76565W        W35826  37.422   5.397  12.533
76566W        W35827   0.908  41.383   3.730
76567W        W35828   8.727  10.684  14.457
76568W        W35829  18.614   5.409  12.950
76569W        W35830  16.201  30.059  11.574
76570W        W35831  25.146  40.829   2.868
76571W        W35832  36.015  26.109  10.482
76572W        W35833  28.637   4.267  11.476
76573W        W35834  44.401  14.164  10.435
76574W        W35835  14.335  12.186   2.800
76575W        W35836  22.150  17.083   5.266
76576W        W35837  21.580  30.972   0.364
76577W        W35838  28.656  22.683  10.941
76578W        W35839  21.190  34.027  11.536
76579W        W35840  21.619   7.808  10.563
76580W        W35841  30.164  18.196  11.963
76581W        W35842  28.128  14.228  11.458
76582W        W35843  37.362  30.474  10.959
76583W        W35844  44.863  23.590   2.686
76584W        W35845   6.419  26.077  13.964
76585W        W35846  35.458  33.505   2.848
76586W        W35847  44.887  19.282   4.836
76587W        W35848   3.453  11.341  11.522
76588W        W35849  15.754  25.015   3.381
76589W        W35850   0.489  14.094  12.004
76590W        W35851  37.989   3.916   3.757
76591W        W35852   9.193  12.306   4.157
76592W        W35853  14.288  40.898   2.261
76593W        W35854  34.910   1.308  11.560
76594W        W35855  32.446   5.359  14.831
76595W        W35856   7.296  42.796   2.355
76596W        W35857  33.423  11.320   0.947
76597W        W35858  16.783  30.618   4.197
76598W        W35859   7.228  14.163  14.468
76599W        W35860  16.300  19.563   5.177
76600W        W35861  27.164  18.566  13.984
76601W        W35862   1.794   9.213   2.789
76602W        W35863  37.885  37.053  12.018
76603W        W35864  37.936  11.260  14.858
76604W        W35865  27.020  11.329  11.856
76605W        W35866  21.029  29.541   2.257
76606W        W35867  15.667  15.138  13.831
76607W        W35868  43.992  21.653   1.924
76608W        W35869  33.456   2.264  12.012
76609W        W35870  22.695  10.155   3.709
76610W        W35871  12.301  20.606  12.937
76611W        W35872  42.352  18.681  14.334
76612W        W35873  16.665  11.846   1.746
76613W        W35874  11.305   1.872   3.774
76614W        W35875  22.248   3.834  14.845
76615W        W35876  16.116  19.703   3.234
76616W        W35877   2.386  38.908  10.439
76617W        W35878  41.873  42.992  13.842
76618W        W35879  38.350  23.123  10.973
76619W        W35880  42.834   4.371  11.602
76620W        W35881  23.210  11.304   0.404
76621W        W35882  12.331   0.479  12.894
76622W        W35883  33.991  26.970   0.363
76623W        W35884  25.133  15.257  14.875
76624W        W35885  11.340  23.575   0.741
76625W        W35886  28.002   9.823   2.379
76626W        W35887  28.502  27.579   1.925
76627W        W35888   4.825  22.021  13.529
76628W        W35889  40.440  44.362   1.423
76629W        W35890  15.761  25.577  10.465
76630W        W35891   2.282  19.633   2.222
76631W        W35892  31.413  14.803  13.802
76632W        W35893  16.204  36.906   0.312
76633W        W35894   7.181  26.661  12.577
76634W        W35895   0.855  40.538   1.366
76635W        W35896  15.628  41.425  11.040
76636W        W35897   5.223  20.175   1.286
76637W        W35898  15.215  13.289   3.722
76638W        W35899  25.001   2.820   0.770
76639W        W35900  31.042  40.931  14.910
76640W        W35901  37.417  13.274   0.736
76641W        W35902  11.857  29.583   2.860
76642W        W35903  41.020   1.743   3.870
76643W        W35904  37.492  35.878   2.805
76644W        W35905  43.282  22.014   2.314
76645W        W35906  27.599  25.214   2.805
76646W        W35907  19.152  11.623  10.453
76647W        W35908  22.601  42.294  14.810
76648W        W35909  43.985  31.122   4.267
76649W        W35910  37.391  42.356  14.484
76650W        W35911  44.772  16.260  10.501
76651W        W35912  14.673  37.018  10.424
76652W        W35913  19.604  14.718  10.620
76653W        W35914  42.894  41.528   1.834
76654W        W35915  24.705  30.085  14.283
76655W        W35916   1.915  31.920  14.358
76656W        W35917  34.867  40.990   2.247
76657W        W35918  38.835  41.041  12.038
76658W        W35919  23.215  43.875   3.177
76659W        W35920  10.870  25.990   2.881
76660W        W35921   8.224  21.698  14.887
76661W        W35922  14.699   8.199  14.382
76662W        W35923  11.776  20.201  13.899
76663W        W35924  28.093  32.952  11.611
76664W        W35925  35.422  30.082   4.623
76665W        W35926  12.775  13.117   3.151
76666W        W35927  40.462  32.026  12.530
76667W        W35928  38.453  44.302  11.522
76668W        W35929  33.432  35.551   0.460
76669W        W35930  41.532  21.074   3.378
76670W        W35931  43.469  35.103  12.361
76671W        W35932  15.617   2.446   3.244
76672W        W35933  24.142  22.055  12.459
76673W        W35934  11.289  30.117  11.899
76674W        W35935   2.820   3.743  14.761
76675W        W35936  34.538  37.904  11.964
76676W        W35937   7.312   6.311   9.999
76677W        W35938  15.192  32.629   0.278
76678W        W35939  32.510  26.572  13.414
76679W        W35940  44.815  10.715  13.855
76680W        W35941  40.045   7.228  13.504
76681W        W35942  29.592  38.348  13.522
76682W        W35943  27.620   3.313   3.788
76683W        W35944  16.226  34.112  12.468
76684W        W35945   1.758  35.902  14.298
76685W        W35946   9.694   4.268  14.992
76686W        W35947  12.213  35.858   0.777
76687W        W35948  31.121  12.692   4.201
76688W        W35949  20.038  31.054   3.746
76689W        W35950   3.264   4.342  14.014
76690W        W35951  22.548  14.317   3.324
76691W        W35952  31.940  22.172   1.277
76692W        W35953  11.849   4.414   0.402
76693W        W35954   8.210  30.914  13.470
76694W        W35955  12.226  31.944  13.481
76695W        W35956   2.452  20.740  13.518
76696W        W35957   4.886   4.324  10.512
76697W        W35958   2.771  43.848   3.150
76698W        W35959  34.020  34.998   3.661
76699W        W35960  11.814  37.339  14.915
76700W        W35961  27.603  32.528   4.266
76701W        W35962  38.020  33.455  12.556
76702W        W35963   2.421  22.053  14.836
76703W        W35964  38.861  29.521   3.637
76704W        W35965   1.955  25.549   2.708
76705W        W35966  13.163   8.373  11.124
76706W        W35967  13.124  16.197  11.587
76707W        W35968  12.651   1.352   4.609
76708W        W35969  44.282  21.612  14.849
76709W        W35970  27.617   5.763  14.992
76710W        W35971  31.408  13.772  10.614
76711W        W35972  13.625  41.312  10.967
76712W        W35973  14.591  17.113   0.443
76713W        W35974   8.209  26.042  11.613
76714W        W35975  36.059  16.589   4.151
76715W        W35976   2.300   8.691  11.123
76716W        W35977   3.229  34.990   1.728
76717W        W35978   4.812   8.207  12.845
76718W        W35979  42.950  10.295   0.300
76719W        W35980   1.927  25.497  12.570
76720W        W35981  17.632   3.725  11.965
76721W        W35982   3.879  19.617  11.381
76722W        W35983   5.368  31.043   4.755
76723W        W35984  19.087  31.539  12.475
76724W        W35985  12.620  25.092  10.909
76725W        W35986  39.841  29.582  13.905
76726W        W35987  23.101  34.428   1.360
76727W        W35988  36.403  25.010  13.858
76728W        W35989  11.314  22.611   4.778
76729W        W35990  29.539  31.997   2.677
76730W        W35991  23.675  37.491   3.843
76731W        W35992  27.589   8.224   0.283
76732W        W35993  42.443  16.189  13.351
76733W        W35994  12.840   4.255   4.752
76734W        W35995   3.386  32.444  11.392
76735W        W35996  17.697  23.602   0.398
76736W        W35997  33.558  31.594   4.823
76737W        W35998  23.683  22.731   1.319
76738W        W35999   0.821   4.864  14.983
76739W        W36000   3.399  23.652  12.501
76740W        W36001  20.124   2.304  11.563
76741W        W36002  34.453   0.293   2.382
76742W        W36003  41.038  20.600  10.523
76743W        W36004  25.474  28.579   1.297
76744W        W36005  35.930  27.542   0.899
76745W        W36006  37.996  40.995  12.579
76746W        W36007  36.536  39.398  13.859
76747W        W36008  35.899  38.938  10.892
76748W        W36009  23.630  12.360  10.591
76749W        W36010  16.766  24.208   1.327
76750W        W36011   7.821   1.412  12.870
76751W        W36012  18.753  34.591  13.460
76752W        W36013  26.206  16.190  13.314
76753W        W36014  15.704  23.709  11.041
76754W        W36015   2.750  22.046   0.952
76755W        W36016  44.382  37.453   0.351
76756W        W36017  44.863  44.453  13.320
76757W        W36018  26.063  31.992  11.071
76758W        W36019  24.102  35.363  11.588
76759W        W36020   0.926  12.761  13.907
76760W        W36021  40.545  37.542   3.201
76761W        W36022  36.045  38.512  14.776
76762W        W36023  26.478  21.734   4.305
76763W        W36024  19.572  32.132  12.917
76764W        W36025  10.745  12.695  12.953
76765W        W36026  11.334  30.945  12.892
76766W        W36027  34.868  43.389   4.348
76767W        W36028  14.219   4.405   3.206
76768W        W36029   1.266  12.685  14.933
76769W        W36030  17.249  32.993  13.307
76770W        W36031  33.958   6.799   4.615
76771W        W36032  15.824  12.190   5.105
76772W        W36033  34.047  28.536  10.640
76773W        W36034  10.354  10.823  14.813
76774W        W36035  36.403  31.538  14.811
76775W        W36036   1.471   1.267  12.520
76776W        W36037   9.371  29.582   2.220
76777W        W36038   9.779   9.691  12.495
76778W        W36039  35.956  20.102  10.983
76779W        W36040   6.762   5.829  14.405
76780W        W36041  27.105  42.830   1.904
76781W        W36042  31.101  41.383  14.376
76782W        W36043  36.461   3.859  10.531
76783W        W36044  21.185  30.650  11.460
76784W        W36045   2.811   9.336  13.398
76785W        W36046  18.268  23.228   1.373
76786W        W36047  34.455  43.832   3.362
76787W        W36048  31.633  41.980   2.316
76788W        W36049  12.675   9.865   1.342
76789W        W36050  36.887  21.723  14.363
76790W        W36051  17.126  29.541   3.283
76791W        W36052  22.696   3.274  11.055
76792W        W36053   4.858  19.552  11.862
76793W        W36054  20.633  11.778  12.079
76794W        W36055   8.397  18.741  12.869
76795W        W36056  24.061  28.065  10.976
76796W        W36057  12.709   2.865   1.706
76797W        W36058  44.774  21.066   3.163
76798W        W36059  26.102  26.637   3.648
76799W        W36060   2.772  29.605  11.877
76800W        W36061   6.329  23.574  11.092
76801W        W36062   4.924  16.699  12.433
76802W        W36063   0.916  35.579  12.954
76803W        W36064  21.261  32.588  10.501
76804W        W36065  22.105  34.073   0.738
76805W        W36066  19.091  21.064   0.456
76806W        W36067   6.813   3.407  11.440
76807W        W36068  33.037  15.186  13.042
76808W        W36069   1.469   0.765  12.557
76809W        W36070  11.638  30.558  14.788
76810W        W36071  18.556   3.272  12.847
76811W        W36072  19.226   0.465   2.709
76812W        W36073   4.431  13.160   4.753
76813W        W36074  23.661   6.235   0.243
76814W        W36075  14.173  22.723   1.795
76815W        W36076  13.704   4.719  14.030
76816W        W36077  12.702  34.577   4.719
76817W        W36078   8.742  29.942  10.643
76818W        W36079  28.632  33.524  13.534
76819W        W36080  12.297  37.022   0.961
76820W        W36081  34.530  34.524   4.149
76821W        W36082   2.330  27.653  13.546
76822W        W36083   4.808  10.243   1.788
76823W        W36084  38.454  12.285   1.699
76824W        W36085   6.321  15.117   4.296
76825W        W36086  17.737  32.917   2.869
76826W        W36087  24.072   4.733  11.113
76827W        W36088  29.472  39.357  14.965
76828W        W36089  40.438   4.209  10.894
76829W        W36090  18.580  38.067  13.525
76830W        W36091  11.799  27.021   2.731
76831W        W36092  41.978  19.223   0.261
76832W        W36093  27.447  10.271   3.382
76833W        W36094   1.844  30.030   0.823
76834W        W36095  12.634   1.742   3.300
76835W        W36096   8.299  22.037   1.350
76836W        W36097   2.254  32.476  10.485
76837W        W36098  18.145  44.764   4.604
76838W        W36099  29.437  14.313   1.428
76839W        W36100  36.945  32.891   2.178
76840W        W36101  23.222  33.578  13.852
76841W        W36102  40.424  22.156   0.749
76842W        W36103   8.203  22.699  13.007
76843W        W36104  23.714  20.217  11.409
76844W        W36105  35.512  38.063  10.975
76845W        W36106  16.654  21.224   3.313
76846W        W36107  13.635  11.296  11.069
76847W        W36108  26.572  22.692  10.984
76848W        W36109  31.622  21.622   3.231
76849W        W36110  16.212   5.212   0.963
76850W        W36111  38.420  34.946   3.793
76851W        W36112  19.724  24.005  11.987
76852W        W36113  18.659   0.361  14.865
76853W        W36114  28.490  38.001   4.803
76854W        W36115  23.630   4.370   0.291
76855W        W36116   4.932   1.886  10.990
76856W        W36117  24.136  38.835  12.554
76857W        W36118  25.114  17.246  13.018
76858W        W36119  27.052   4.429   2.410
76859W        W36120  39.541  13.815   1.770
76860W        W36121  23.107   0.260   2.263
76861W        W36122  17.662  23.596  11.482
76862W        W36123  33.051  11.252   1.708
76863W        W36124  12.813  27.953   2.805
76864W        W36125  10.332  35.991   4.156
76865W        W36126  25.123  19.252   3.175
76866W        W36127  33.493  20.616  14.322
76867W        W36128  42.885  25.615   0.924
76868W        W36129  42.388  32.914   0.940
76869W        W36130  10.730  25.499   4.610
76870W        W36131   0.251  19.120   3.685
76871W        W36132  11.844  42.859   2.723
76872W        W36133  35.420  19.253  13.410
76873W        W36134   9.322  14.319   3.698
76874W        W36135   0.488  38.356  13.009
76875W        W36136  43.370  27.597  13.473
76876W        W36137  11.327  12.630   2.316
76877W        W36138  40.318  44.437  13.865
76878W        W36139  40.898  30.499  12.054
76879W        W36140   3.220  27.535   3.254
76880W        W36141  24.654  41.006  12.981
76881W        W36142  18.290   0.951  14.441
76882W        W36143  30.967  21.049   2.275
76883W        W36144  15.640  35.076  11.094
76884W        W36145  22.686  15.300   2.337
76885W        W36146  12.646  23.134   4.165
76886W        W36147   4.378  40.900   4.626
76887W        W36148   3.322  30.944  11.558
76888W        W36149   0.475  33.580  14.882
76889W        W36150  30.641  31.905   0.782
76890W        W36151  16.682  44.782   2.228
76891W        W36152   6.821   0.298   3.354
76892W        W36153  11.710  13.601  14.959
76893W        W36154  28.088   8.823  11.965
76894W        W36155  14.141  13.802   1.358
76895W        W36156   2.929  25.552  13.439
76896W        W36157   2.782  39.982  11.904
76897W        W36158  32.033   2.361   2.716
76898W        W36159  18.762  10.696  14.984
76899W        W36160  44.900  38.825  14.891
76900W        W36161  11.355   5.368   5.273
76901W        W36162   4.850  24.081   4.655
76902W        W36163   1.944  42.777   2.304
76903W        W36164  15.084  17.657  13.319
76904W        W36165   5.827  33.502   1.217
76905W        W36166   7.755   2.934  14.345
76906W        W36167  27.647  18.674   1.921
76907W        W36168   9.826  12.291   3.257
76908W        W36169  37.867   5.868   0.787
76909W        W36170  22.162  31.484   1.246
76910W        W36171   7.696  25.511  14.409
76911W        W36172  26.118  31.493   1.323
76912W        W36173  33.404  11.718   4.607
76913W        W36174  28.510   3.461   3.632
76914W        W36175  34.093   5.275  12.976
76915W        W36176  41.796  33.127   4.222
76916W        W36177  16.735  21.126   0.883
76917W        W36178  19.640  43.377  13.364
76918W        W36179  24.635  38.531   4.831
76919W        W36180  20.236   5.836   3.855
76920W        W36181  15.760  17.572   1.753
76921W        W36182  24.631  17.116  10.505
76922W        W36183  21.207  21.066  13.546
76923W        W36184   8.896   7.844  11.379
76924W        W36185  18.113  34.080   0.274
76925W        W36186   4.766  37.995  10.622
76926W        W36187  15.210  14.702   1.842
76927W        W36188  32.141  44.403  14.985
76928W        W36189   8.669   4.313  11.927
76929W        W36190  11.139  42.009   3.760
76930W        W36191  31.555   1.460  11.046
76931W        W36192  22.120  25.139  13.325
76932W        W36193  18.646  19.663   2.253
76933W        W36194  11.680  22.648  12.381
76934W        W36195  13.320  38.987  12.369
76935W        W36196  31.970  18.178   4.738
76936W        W36197  41.393  30.419  14.007
76937W        W36198  25.978  22.696   4.830
76938W        W36199  38.937  38.839   3.710
76939W        W36200  20.136  30.480   1.727
76940W        W36201   5.747  10.722  13.321
76941W        W36202  30.650   0.349  12.049
76942W        W36203   3.229   2.785  14.903
76943W        W36204   1.292  21.222  12.833
76944W        W36205   7.320  15.733  11.059
76945W        W36206  26.474  34.909  14.279
76946W        W36207  44.488   2.725  11.536
76947W        W36208  13.769  34.514  11.944
76948W        W36209  21.098  41.879   4.745
76949W        W36210  43.493  19.227  14.782
76950W        W36211  33.409  23.633  13.342
76951W        W36212  26.178  26.159   4.821
76952W        W36213  23.109   5.715   2.336
76953W        W36214  34.385   2.723   4.243
76954W        W36215  17.120  29.072   3.157
76955W        W36216  34.553  34.024   3.379
76956W        W36217  22.658  21.728  12.556
76957W        W36218  27.040  38.045   4.801
76958W        W36219   1.427  32.989  13.009
76959W        W36220  44.779  39.920   2.340
76960W        W36221  31.000  29.935  12.916
76961W        W36222  25.550  41.823   2.232
76962W        W36223  10.173   1.823   4.253
76963W        W36224  39.879  10.357  14.364
76964W        W36225  12.341  26.126   0.320
76965W        W36226  10.810   6.278  13.435
76966W        W36227  11.671  39.917   3.186
76967W        W36228  25.632  26.994   2.287
76968W        W36229  42.408   4.444   2.779
76969W        W36230  39.032  37.065   1.853
76970W        W36231  18.725  44.991   1.252
76971W        W36232  27.013  12.288  13.862
76972W        W36233  18.066  41.445  11.509
76973W        W36234  18.142  10.785  11.581
76974W        W36235  15.139  31.946   3.719
76975W        W36236   4.417  18.152   1.919
76976W        W36237   7.318   7.396   4.670
76977W        W36238  15.199  10.364  14.987
76978W        W36239   8.298  32.096   2.403
76979W        W36240  12.256  12.628  14.439
76980W        W36241   9.650  40.393  11.920
76981W        W36242  15.145  26.629   2.803
76982W        W36243  29.561  40.422  13.836
76983W        W36244  16.790  11.836  10.448
76984W        W36245  23.054   3.776   0.881
76985W        W36246   5.832  31.448   4.158
76986W        W36247   8.673  35.493  12.416
76987W        W36248   7.382  21.153   3.762
76988W        W36249  15.697  41.826  14.812
76989W        W36250  16.237  28.477  11.394
76990W        W36251  19.669   7.709  13.526
76991W        W36252  25.550   0.397  13.509
76992W        W36253  26.678  27.971   3.367
76993W        W36254   5.732  37.570  11.989
76994W        W36255   8.862   1.907  11.380
76995W        W36256  25.183  28.575   5.280
76996W        W36257  13.838  10.693   2.326
76997W        W36258  42.291  22.665   4.126
76998W        W36259  11.339  37.476  11.564
76999W        W36260  42.391  41.907  11.053
77000W        W36261  34.903  33.507  11.910
77001W        W36262   4.376  10.243   3.687
77002W        W36263  37.492   6.268  13.852
77003W        W36264   1.860  18.603   1.854
77004W        W36265  26.992  22.537   1.723
77005W        W36266  38.343   6.774   3.858
77006W        W36267  38.516   4.289   3.335
77007W        W36268  36.393  31.538  14.473
77008W        W36269  30.910   3.877   3.676
77009W        W36270  36.074  36.876   4.792
77010W        W36271  41.316  32.986  11.480
77011W        W36272   7.240   5.253   0.928
77012W        W36273   3.238  31.978   2.751
77013W        W36274  18.747  10.647   0.269
77014W        W36275  44.807  20.589   2.708
77015W        W36276  21.058   9.242   1.437
77016W        W36277  16.237  25.701  12.529
77017W        W36278  39.040  23.075   1.844
77018W        W36279   1.905  37.474  14.432
77019W        W36280  27.661  25.485  12.871
77020W        W36281  21.039  19.718  11.865
77021W        W36282   2.381  40.949  12.836
77022W        W36283   5.231  26.982  13.027
77023W        W36284  11.306  15.268   0.787
77024W        W36285  39.964  41.398  12.461
77025W        W36286  33.024  33.092   4.780
77026W        W36287  11.148  12.240   2.731
77027W        W36288  17.643  42.943  12.829
77028W        W36289  15.805  35.580   3.198
77029W        W36290   3.262   0.751   1.756
77030W        W36291   9.197   2.927  11.511
77031W        W36292  20.752   1.468  11.451
77032W        W36293  31.051  30.623  13.015
77033W        W36294  44.480  38.481  11.550
77034W        W36295  34.591  30.580   1.384
77035W        W36296  16.729  12.634  12.343
77036W        W36297  44.418  39.061  13.423
77037W        W36298  22.562  39.452  12.368
77038W        W36299   6.374   0.331   3.262
77039W        W36300  31.478  29.121   3.275
77040W        W36301   6.871  43.893  11.452
77041W        W36302  26.974  27.516  11.098
77042W        W36303   7.900  32.606  11.464
77043W        W36304  44.279  31.994   2.674
77044W        W36305  14.622  32.535   3.216
77045W        W36306  32.548  37.973   0.945
77046W        W36307  24.521  10.216  13.947
77047W        W36308   3.300  19.776   4.186
77048W        W36309  26.602   6.851   0.864
77049W        W36310  42.888  24.075  13.407
77050W        W36311  34.383  13.167   5.301
77051W        W36312   6.231   3.899   4.220
77052W        W36313   5.356  10.656  11.507
77053W        W36314  39.888  31.024  14.824
77054W        W36315  22.233  39.414  12.372
77055W        W36316   3.303  41.475   3.243
77056W        W36317  21.085  24.092   0.302
77057W        W36318  38.340  14.178   1.369
77058W        W36319  10.332  18.730  12.089
77059W        W36320  25.120  37.039  14.892
77060W        W36321   9.695  10.305  14.886
77061W        W36322  30.424   1.751   1.340
77062W        W36323  37.522  42.869  14.441
77063W        W36324  15.312  13.134  12.361
77064W        W36325  30.085  44.456  10.906
77065W        W36326  42.315  15.760   2.306
77066W        W36327  42.993  10.756   3.811
77067W        W36328  24.171  41.947   3.181
77068W        W36329  25.160  34.548  13.941
77069W        W36330  14.144  43.358   2.664
77070W        W36331  24.632  35.097  13.966
77071W        W36332   8.831  22.515   0.786
77072W        W36333   2.940  42.944   1.699
77073W        W36334   6.804  17.239   1.235
77074W        W36335  41.816  27.447   2.801
77075W        W36336  30.500  25.171   3.267
77076W        W36337   1.328  22.066   3.271
77077W        W36338  34.599  30.907  13.462
77078W        W36339  27.952   5.902  12.364
77079W        W36340   5.692  37.030  13.047
77080W        W36341  36.068  24.597   4.277
77081W        W36342   9.670  27.508   3.179
77082W        W36343   7.315  29.130  11.551
77083W        W36344  38.519  44.916  11.890
77084W        W36345  35.992  18.635   0.339
77085W        W36346  20.753  36.452   0.387
77086W        W36347  18.062  33.477  14.292
77087W        W36348  34.935   7.319   5.116
77088W        W36349   8.778  27.959  10.522
77089W        W36350  43.300  40.303   3.643
77090W        W36351   2.907  14.760   2.826
77091W        W36352  20.625  21.175   3.366
77092W        W36353  23.178  34.449  13.037
77093W        W36354  20.217  29.525   9.616
77094W        W36355  37.927  19.084   4.633
77095W        W36356  25.614  35.516  13.792
77096W        W36357   6.691  38.469  11.116
77097W        W36358  17.145   9.300   1.275
77098W        W36359  38.404   6.881  14.299
77099W        W36360  33.470  42.458  10.529
77100W        W36361   0.346  13.664   3.190
77101W        W36362  32.397   0.455   3.686
77102W        W36363  40.849  19.229  13.806
77103W        W36364  22.131  11.312  12.456
77104W        W36365  21.592   3.796   4.655
77105W        W36366  30.055   2.960  11.859
77106W        W36367   8.309  44.991   4.242
77107W        W36368   5.347  39.405   4.829
77108W        W36369  11.355  20.745   3.365
77109W        W36370  37.046  11.858  13.428
77110W        W36371  32.568  12.722   1.804
77111W        W36372  29.121  39.351  13.500
77112W        W36373  29.532  36.455   2.855
77113W        W36374  36.955  12.205   1.840
77114W        W36375  29.064  26.139  14.479
77115W        W36376  35.494  41.514  13.542
77116W        W36377  23.086  21.106  12.905
77117W        W36378  37.078  40.423   0.252
77118W        W36379  10.347  15.144  11.048
77119W        W36380  17.211  43.885  12.886
77120W        W36381  20.635  44.269  14.840
77121W        W36382  24.984   2.896   3.149
77122W        W36383  42.453  28.638  13.325
77123W        W36384  29.075  43.833   0.370
77124W        W36385  39.363  39.890   3.830
77125W        W36386  22.643  19.227  13.010
77126W        W36387  22.591  41.969  11.945
77127W        W36388  33.473  21.074   4.334
77128W        W36389  41.992   4.372  14.931
77129W        W36390  24.011  10.726  11.101
77130W        W36391  42.965  32.459  11.563
77131W        W36392  43.289   2.937   2.391
77132W        W36393  41.376  32.422   1.791
77133W        W36394  12.660   3.920   2.269
77134W        W36395  31.573   3.295  10.032
77135W        W36396   9.705  30.645   2.847
77136W        W36397  18.054  14.335  14.497
77137W        W36398  16.285  31.412  13.514
77138W        W36399  36.554  34.917  11.957
77139W        W36400  34.577  40.050  11.582
77140W        W36401   1.241  30.578   1.709
77141W        W36402  35.415  19.058   0.305
77142W        W36403  18.741  36.577  13.823
77143W        W36404  26.033  28.045   0.376
77144W        W36405   0.983   7.842   4.725
77145W        W36406  24.557  41.951   3.633
77146W        W36407  41.864  37.536   0.435
77147W        W36408  30.908  35.420   4.179
77148W        W36409  44.491  29.059   3.656
77149W        W36410  10.866  44.985   4.149
77150W        W36411  44.816   4.249   1.706
77151W        W36412  33.039   6.185   9.625
77152W        W36413  29.005  13.614  11.605
77153W        W36414   9.217  28.462   2.276
77154W        W36415   2.450  26.080   2.731
77155W        W36416  25.480   1.766  12.067
77156W        W36417  20.665   8.241   4.702
77157W        W36418   0.890  28.048   1.369
77158W        W36419  27.629  26.987   2.292
77159W        W36420  33.961  34.012   2.777
77160W        W36421   8.894  16.233   3.630
77161W        W36422   8.807   7.189  14.360
77162W        W36423  21.217  17.758   2.855
77163W        W36424  42.854  10.664  12.913
77164W        W36425  25.549  22.125   1.404
77165W        W36426  11.317   0.978  11.100
77166W        W36427   5.338   2.962  14.794
77167W        W36428  20.769  18.759   1.759
77168W        W36429  20.641  15.322  14.848
77169W        W36430  20.244  41.431  10.983
77170W        W36431  40.039   1.461  12.510
77171W        W36432  19.584   8.382  14.423
77172W        W36433  24.077   9.236   4.657
77173W        W36434  26.682  33.429   0.367
77174W        W36435  42.415  29.049  12.981
77175W        W36436  41.404  14.667   0.797
77176W        W36437   7.390   7.851  11.473
77177W        W36438  14.613  23.096  10.571
77178W        W36439  32.140  37.922   0.764
77179W        W36440  29.141  13.790   1.391
77180W        W36441  43.919  44.304   3.363
77181W        W36442  32.008  25.000   1.814
77182W        W36443  21.150  30.577   3.868
77183W        W36444  40.029  44.798   4.299
77184W        W36445  34.515  31.937  11.473
77185W        W36446  21.591  30.493   5.271
77186W        W36447  36.928   9.271   4.155
77187W        W36448   0.345   6.845   1.935
77188W        W36449  12.154  26.990  10.423
77189W        W36450  33.061  41.448  12.908
77190W        W36451  23.568  24.084   4.120
77191W        W36452   4.403  26.458   0.305
77192W        W36453  14.246  32.589  14.500
77193W        W36454  30.573   5.883   0.834
77194W        W36455  13.298  33.989  12.838
77195W        W36456   7.305  34.385   4.278
77196W        W36457  38.477  28.157   4.767
77197W        W36458  44.895  41.812  10.995
77198W        W36459  20.210  16.802  14.495
77199W        W36460  20.150  37.541   0.753
77200W        W36461   2.366  36.444  13.533
77201W        W36462  28.618  14.260   4.748
77202W        W36463  10.293   8.840   2.742
77203W        W36464  42.418   7.239   4.224
77204W        W36465   9.878  38.949  14.421
77205W        W36466  15.800  43.768  10.530
77206W        W36467  32.962  11.687  14.298
77207W        W36468  35.358   8.834  13.980
77208W        W36469  42.938   4.812  13.953
77209W        W36470  30.632  33.097  14.823
77210W        W36471  43.480  30.973  10.425
77211W        W36472  44.362   2.429  11.555
77212W        W36473  17.167  28.093   2.321
77213W        W36474  21.139  13.347   4.214
77214W        W36475  20.179  40.889  11.561
77215W        W36476  22.154  24.716   4.285
77216W        W36477  18.680  21.531  12.840
77217W        W36478  18.743  34.418   1.213
77218W        W36479  12.273  31.487   3.191
77219W        W36480  33.498  13.294  10.946
77220W        W36481  23.575  39.035   1.349
77221W        W36482   0.313  18.687  11.926
77222W        W36483   2.748   0.341   3.762
77223W        W36484  12.736  28.475   0.250
77224W        W36485  43.822   5.930   2.873
77225W        W36486  29.060   4.308  11.436
77226W        W36487  14.602  15.084  12.387
77227W        W36488  25.640  40.011   2.203
77228W        W36489   0.288  38.381   4.242
77229W        W36490  37.504  15.728  13.900
77230W        W36491  36.047   6.257  12.894
77231W        W36492  26.023  13.173  11.372
77232W        W36493   3.236  33.010   1.841
77233W        W36494  15.195   6.274  12.931
77234W        W36495  27.502  44.968  10.412
77235W        W36496  18.651  35.484  14.822
77236W        W36497   4.863  38.047   1.269
77237W        W36498  14.111   2.730   1.911
77238W        W36499  13.307  22.503   0.880
77239W        W36500  28.625  36.421  14.450
77240W        W36501  27.951  30.132  13.011
77241W        W36502  23.150  42.389   4.637
77242W        W36503  13.603  21.684  14.023
77243W        W36504  32.533  39.824  13.412
77244W        W36505  20.754   5.720   2.859
77245W        W36506  33.562  16.074  10.987
77246W        W36507  36.083  33.940   3.840
77247W        W36508  28.448   4.300  12.072
77248W        W36509  19.740  14.204   2.862
77249W        W36510  35.381  32.092  14.418
77250W        W36511  28.509  21.546   3.822
77251W        W36512  40.395  22.046   2.398
77252W        W36513  12.853  35.079  10.636
77253W        W36514  15.116  22.532  11.109
77254W        W36515   3.795  22.734   4.336
77255W        W36516  41.352  12.172  11.121
77256W        W36517   4.385  15.091  11.958
77257W        W36518  15.267  40.044   2.793
77258W        W36519  36.843   7.806   4.250
77259W        W36520  30.088  39.334   0.477
77260W        W36521  12.116   4.307  11.034
77261W        W36522  27.180  25.691  12.489
77262W        W36523   3.375  30.480   0.293
77263W        W36524  20.135  38.037   4.262
77264W        W36525   6.881  24.019   0.828
77265W        W36526  20.663  18.585  13.530
77266W        W36527  17.071  16.801   3.829
77267W        W36528   8.368   2.829  10.911
77268W        W36529  27.953  32.001  14.029
77269W        W36530   2.345  22.184   4.714
77270W        W36531   7.218  15.296  13.902
77271W        W36532  16.224  27.142  13.419
77272W        W36533  23.198  38.508  11.124
77273W        W36534  40.039   2.369  12.867
77274W        W36535  38.981   3.378   5.091
77275W        W36536  17.758  25.009  13.447
77276W        W36537  31.595  13.220   3.279
77277W        W36538  29.548  36.020  10.906
77278W        W36539  30.436   1.300   2.772
77279W        W36540  43.479  22.500  10.920
77280W        W36541  16.797  25.593   2.688
77281W        W36542  32.396  14.132   0.946
77282W        W36543  10.875  28.611  13.928
77283W        W36544  24.617  34.089   3.213
77284W        W36545  37.003   6.266   1.255
77285W        W36546  34.381  39.500  10.929
77286W        W36547  24.651  39.394  14.326
77287W        W36548   4.818  37.386  11.448
77288W        W36549  15.781  15.608   9.926
77289W        W36550  14.305   5.703  13.530
77290W        W36551  20.083  34.546   4.801
77291W        W36552  21.609   4.805   4.669
77292W        W36553  20.668  14.721   2.243
77293W        W36554  44.481  13.114  13.310
77294W        W36555  37.062  44.907   4.817
77295W        W36556  26.040   4.339   0.958
77296W        W36557  30.043  15.760   0.279
77297W        W36558  43.779  39.984  13.371
77298W        W36559  22.597  39.959  10.516
77299W        W36560  22.252   5.716   1.404
77300W        W36561  44.397   0.338   1.267
77301W        W36562  24.117   3.317   4.678
77302W        W36563  12.359  40.026  11.908
77303W        W36564  27.662   2.900  14.313
77304W        W36565   9.760  35.097  12.544
77305W        W36566  25.971  25.523   4.179
77306W        W36567   4.724  11.191   3.193
77307W        W36568  27.591   0.813   3.270
77308W        W36569   2.429  15.155  13.513
77309W        W36570  39.923  41.436  11.477
77310W        W36571  12.686  16.232  14.944
77311W        W36572  19.265  16.151  13.836
77312W        W36573  28.488  26.525  14.455
77313W        W36574  19.165   0.424  14.925
77314W        W36575  35.059  43.824   3.360
77315W        W36576  42.341  19.637  11.600
77316W        W36577   5.696  16.623  14.835
77317W        W36578   7.908  23.714   1.214
77318W        W36579   5.272  35.096   3.342
77319W        W36580  25.184  38.929   0.862
77320W        W36581  15.165   8.235   0.311
77321W        W36582   0.929  10.869   4.119
77322W        W36583  30.024  19.688   3.731
77323W        W36584   2.244  29.460   2.278
77324W        W36585  15.263  41.030   0.938
77325W        W36586  41.378  26.038   0.481
77326W        W36587  36.960  34.431   2.891
77327W        W36588  29.958  27.662   0.898
77328W        W36589  24.128  14.706  12.907
77329W        W36590  44.900  37.987  14.294
77330W        W36591  23.035   9.664   2.408
77331W        W36592  13.138  30.058   1.742
77332W        W36593  10.174   2.834  11.005
77333W        W36594  44.333  24.563  10.130
77334W        W36595   2.966  31.621   3.827
77335W        W36596  42.468  16.634  13.804
77336W        W36597  16.714  19.140   9.942
77337W        W36598  29.029  24.147  11.603
77338W        W36599  36.417  24.152   0.445
77339W        W36600  26.635  19.670  14.305
77340W        W36601  23.237   6.724  14.832
77341W        W36602  13.604  32.102  11.374
77342W        W36603  30.966   3.429  11.074
77343W        W36604  40.509   1.951   4.251
77344W        W36605  37.380   5.862  12.460
77345W        W36606  27.002  33.909  10.090
77346W        W36607  39.493  37.014   3.674
77347W        W36608  20.693   1.919  10.640
77348W        W36609  22.206  42.956   4.782
77349W        W36610  11.831   5.334  13.966
77350W        W36611  29.079  43.867  13.005
77351W        W36612  38.496  26.678  11.103
77352W        W36613  14.270   4.783   4.251
77353W        W36614  17.240  11.763  10.430
77354W        W36615  31.131   2.772  14.912
77355W        W36616  16.182   5.875   1.811
77356W        W36617   9.149   6.810  13.406
77357W        W36618  23.568  25.044   1.449
77358W        W36619  17.567  43.900   0.799
77359W        W36620   2.845  22.103   2.310
77360W        W36621   1.874  24.189  10.991
77361W        W36622  33.098  31.453  12.864
77362W        W36623  36.043   2.960   0.469
77363W        W36624  22.729  13.709   4.248
77364W        W36625  37.067  34.507  13.971
77365W        W36626  44.481  37.412   3.169
77366W        W36627  28.132  11.699   2.312
77367W        W36628   7.846   5.794   2.288
77368W        W36629  27.068   2.935  10.546
77369W        W36630  27.589  32.133   3.383
77370W        W36631  28.967  29.474   1.835
77371W        W36632  32.943  39.853  13.308
77372W        W36633   3.813   3.338  10.590
77373W        W36634  44.789  38.976   4.295
77374W        W36635   3.714   4.332   3.799
77375W        W36636  24.062  11.834  10.645
77376W        W36637  29.618  30.543  13.378
77377W        W36638  27.011  19.634   4.152
77378W        W36639   0.895  39.895   1.812
77379W        W36640  44.769  24.180  13.382
77380W        W36641   1.875  42.453   4.745
77381W        W36642  11.245  18.141  13.410
77382W        W36643  19.564  21.746  13.975
77383W        W36644  10.260  33.038   2.342
77384W        W36645  14.287  33.926  11.597
77385W        W36646  39.053   8.216  14.813
77386W        W36647  37.344  30.039   0.480
77387W        W36648  17.238  17.266   2.823
77388W        W36649  31.601   9.851   9.994
77389W        W36650  19.195  23.489   0.809
77390W        W36651   8.168  38.458   1.696
77391W        W36652  17.799   5.892  14.422
77392W        W36653  26.544  32.504  14.324
77393W        W36654  18.601  20.610  12.059
77394W        W36655  23.225  36.553   3.668
77395W        W36656   3.290  43.344  11.552
77396W        W36657  17.766   5.243  14.416
77397W        W36658  28.126   5.864   0.333
77398W        W36659  13.192  38.340   3.676
77399W        W36660  10.671   8.314  13.041
77400W        W36661  29.146  20.723   2.244
77401W        W36662  36.919   4.776  11.990
77402W        W36663  24.679  27.582   1.799
77403W        W36664  34.964  34.898   0.754
77404W        W36665  24.996  29.075  13.414
77405W        W36666  21.733  32.485   3.630
77406W        W36667  13.174  41.037  12.472
77407W        W36668   0.813  14.835   4.775
77408W        W36669   7.209  37.059   3.269
77409W        W36670  25.180   0.852  14.425
77410W        W36671  21.038  37.452   4.276
77411W        W36672  21.162  44.960  11.445
77412W        W36673   1.858   2.467  12.459
77413W        W36674   2.879  33.900  12.060
77414W        W36675  14.121  36.419  14.507
77415W        W36676  36.425   5.277   2.859
77416W        W36677   7.247  24.056   1.785
77417W        W36678  17.292  35.888   2.277
77418W        W36679  10.659  37.019   1.235
77419W        W36680  14.753  20.555  12.988
77420W        W36681  14.254  11.752  11.490
77421W        W36682  10.258  33.886   3.326
77422W        W36683  34.548  33.878  11.389
77423W        W36684  30.007   6.902  11.931
77424W        W36685  44.455   9.211  14.359
77425W        W36686  34.576  35.103  10.582
77426W        W36687  16.103   6.389   1.324
77427W        W36688  10.270   1.316   1.739
77428W        W36689  27.476  11.752  14.514
77429W        W36690  35.410  43.416  11.016
77430W        W36691  34.525  40.364  14.840
77431W        W36692  26.599  37.490  11.935
77432W        W36693  35.877  14.183   2.725
77433W        W36694  38.834  14.709   0.257
77434W        W36695  44.767  30.585   0.862
77435W        W36696  37.548   7.373  12.870
77436W        W36697  20.641   0.941  12.097
77437W        W36698  29.016  34.031   4.752
77438W        W36699  38.557  36.928   3.312
77439W        W36700  11.669  36.472  12.520
77440W        W36701  30.957  15.735   1.748
77441W        W36702   1.243  10.241   3.771
77442W        W36703  14.235   6.259   0.394
77443W        W36704  43.272  33.929  10.887
77444W        W36705  35.564   5.241  13.522
77445W        W36706  41.957  14.318   3.652
77446W        W36707  33.547  33.436   0.260
77447W        W36708  16.157  11.775  14.428
77448W        W36709  32.038  30.654  12.479
77449W        W36710  18.570  14.717  11.883
77450W        W36711  28.538  23.173  11.567
77451W        W36712   2.741   1.770   3.356
77452W        W36713   6.201  37.885  13.464
77453W        W36714  39.032  11.197  10.150
77454W        W36715  15.164  31.008   0.369
77455W        W36716  27.456  15.100  14.958
77456W        W36717  30.006  11.755   2.346
77457W        W36718  12.617  11.635  10.513
77458W        W36719  44.996  29.552  13.330
77459W        W36720  19.541   5.437   4.747
77460W        W36721  17.783  32.889   4.659
77461W        W36722  37.930  21.662  11.012
77462W        W36723  21.051   5.768  10.593
77463W        W36724  18.665   2.867   0.734
77464W        W36725   3.455  20.587  13.992
77465W        W36726  44.487  40.379   0.296
77466W        W36727   6.721  22.505  12.504
77467W        W36728   7.268   6.276  12.831
77468W        W36729  21.522  38.373  14.977
77469W        W36730  40.885  29.566   1.214
77470W        W36731  43.445  10.736  12.926
77471W        W36732  32.571   1.823   0.759
77472W        W36733   3.837  24.214  10.538
77473W        W36734  34.984  34.468  13.506
77474W        W36735  33.902  19.055   3.705
77475W        W36736  32.618  43.894   0.406
77476W        W36737   9.381  41.864  10.466
77477W        W36738   7.339  17.093   2.879
77478W        W36739  11.150  37.966   1.419
77479W        W36740  37.370  25.000  11.035
77480W        W36741  16.293  14.800   1.252
77481W        W36742  41.958  27.513   2.213
77482W        W36743   7.728  29.949   1.898
77483W        W36744  24.064  12.154   0.335
77484W        W36745  43.286  19.561   4.180
77485W        W36746  28.469  20.218   1.753
77486W        W36747   5.722   9.863  11.924
77487W        W36748  12.755  34.024  13.431
77488W        W36749  17.133  33.112   4.126
77489W        W36750  13.202  14.176   0.402
77490W        W36751  12.340   8.226   0.339
77491W        W36752  38.942  16.603  11.418
77492W        W36753  27.986  20.676  11.378
77493W        W36754   4.440  38.460   4.146
77494W        W36755  33.057  34.040  11.372
77495W        W36756  25.205  30.163   2.838
77496W        W36757  14.129  43.921   2.733
77497W        W36758   7.361  18.622   0.275
77498W        W36759   3.457  41.947   3.757
77499W        W36760  35.522  12.151   1.872
77500W        W36761  37.985   0.877   4.740
77501W        W36762  41.303   9.886   4.705
77502W        W36763   3.410  35.589   1.924
77503W        W36764  19.074  15.703  12.922
77504W        W36765  13.323  30.507   4.623
77505W        W36766   1.424  28.037   3.803
77506W        W36767  22.621  33.440   2.375
77507W        W36768  18.258   3.413  12.429
77508W        W36769  31.527  37.844  12.981
77509W        W36770  29.964   4.797   4.836
77510W        W36771   0.471  38.915   1.731
77511W        W36772   2.377  43.483  11.121
77512W        W36773   3.367   2.818   4.203
77513W        W36774  32.610  13.319   1.278
77514W        W36775   4.868   7.381   1.217
77515W        W36776  11.277  12.312   3.184
77516W        W36777  10.269   1.397   3.346
77517W        W36778  28.577  35.551   2.182
77518W        W36779  41.420  26.509  12.358
77519W        W36780   0.939  11.250   9.978
77520W        W36781  25.589  20.619   0.779
77521W        W36782  40.472   0.319  13.387
77522W        W36783  37.996  14.829  14.368
77523W        W36784  39.418   4.235   0.423
77524W        W36785  40.801  15.753  12.513
77525W        W36786   5.317  34.916  11.603
77526W        W36787  20.602  38.565   1.228
77527W        W36788  43.829  37.002   4.745
77528W        W36789  23.171  23.141   0.311
77529W        W36790   9.204  32.475  13.341
77530W        W36791   6.813  41.926   4.160
77531W        W36792  19.597  17.102   2.818
77532W        W36793  42.951  18.250  14.841
77533W        W36794  34.387  14.682   1.232
77534W        W36795  34.557  35.011  10.969
77535W        W36796   0.760  10.157  13.369
77536W        W36797  32.447  27.183   4.726
77537W        W36798   8.790   5.864  13.005
77538W        W36799  27.165  21.690  11.890
77539W        W36800  14.704  21.148  11.499
77540W        W36801  41.817  27.513  13.822
77541W        W36802   6.412  29.960  12.513
77542W        W36803  22.230  37.945  14.868
77543W        W36804  12.662  24.217  14.916
77544W        W36805  15.255  37.501  11.417
77545W        W36806  38.821  32.106   3.212
77546W        W36807   9.157  42.842  14.469
77547W        W36808  30.519   1.296   9.599
77548W        W36809  15.629  38.344   4.152
77549W        W36810  15.796  34.536   5.196
77550W        W36811  16.674   7.759  14.030
77551W        W36812  37.569  36.951   3.188
77552W        W36813  40.907  20.119  11.021
77553W        W36814  25.109  22.639  11.425
77554W        W36815  36.498  43.490   1.824
77555W        W36816  38.332  11.739   0.906
77556W        W36817  26.601  20.256   2.190
77557W        W36818  42.015   4.377  13.434
77558W        W36819   8.683  15.177   1.739
77559W        W36820  27.031  41.353  12.937
77560W        W36821  42.306  37.084  13.433
77561W        W36822  22.701  15.692  13.032
77562W        W36823   6.869  43.304   4.828
77563W        W36824  43.361  27.044   1.773
77564W        W36825  38.361  29.433   2.217
77565W        W36826  17.130  40.010  14.929
77566W        W36827   6.299   7.356  12.049
77567W        W36828  42.785  12.793  12.418
77568W        W36829  31.982   9.703  10.530
77569W        W36830  34.606  36.360  14.378
77570W        W36831  27.530  36.856  13.894
77571W        W36832  24.125   6.871  10.475
77572W        W36833  21.171  38.859  12.513
77573W        W36834  40.376  12.309  11.387
77574W        W36835  17.169  24.999  10.096
77575W        W36836  25.971  34.904   0.880
77576W        W36837  22.521   1.461   4.239
77577W        W36838  11.658  40.307  11.418
77578W        W36839  36.516  31.998   1.931
77579W        W36840  34.375  26.183   2.311
77580W        W36841  29.992   0.970  10.934
77581W        W36842  16.237  11.188   3.707
77582W        W36843   8.217  26.196   4.716
77583W        W36844  22.699  30.558   0.870
77584W        W36845   6.750  44.907   1.738
77585W        W36846   1.881   8.776  11.457
77586W        W36847  38.066  21.204   3.203
77587W        W36848  23.544  22.712  12.524
77588W        W36849  34.909  16.291  13.410
77589W        W36850  19.277   8.184  11.459
77590W        W36851   5.264  35.976   0.952
77591W        W36852  31.451  20.046   1.861
77592W        W36853  14.703  24.715   1.318
77593W        W36854   0.750  30.443  13.381
77594W        W36855  33.472  30.463  13.818
77595W        W36856  18.184  24.511  14.444
77596W        W36857  42.322  20.051  13.852
77597W        W36858  41.463   7.206   4.187
77598W        W36859  29.589  11.168   0.959
77599W        W36860  23.541  10.705   2.748
77600W        W36861  14.800  13.254   3.766
77601W        W36862  10.293  27.582   0.413
77602W        W36863  29.572  12.205  13.830
77603W        W36864  22.681  18.659  11.466
77604W        W36865  30.479  31.435  11.922
77605W        W36866  14.792   5.336   2.205
77606W        W36867  23.508  34.443  10.466
77607W        W36868  15.311  30.465   4.126
77608W        W36869  27.569   6.709   4.679
77609W        W36870   4.306  27.120  11.092
77610W        W36871  11.818  42.298  12.378
77611W        W36872   8.332   1.437   4.747
77612W        W36873  38.053   4.446   2.691
77613W        W36874  27.637  23.008   0.762
77614W        W36875  43.869  30.142  11.607
77615W        W36876  36.057  25.468   2.777
77616W        W36877  43.444  25.694   0.756
77617W        W36878  43.014  43.365  13.935
77618W        W36879  11.815  15.733   1.824
77619W        W36880  41.914  11.754  13.855
77620W        W36881  41.947  11.665   1.737
77621W        W36882   8.246   0.489  10.938
77622W        W36883  35.562  36.510  11.023
77623W        W36884  27.982  42.333   3.204
77624W        W36885  29.449  23.520  11.419
77625W        W36886  27.584  34.518  14.455
77626W        W36887  26.632  41.041   2.310
77627W        W36888  32.918   0.365   4.796
77628W        W36889  41.508  42.430  12.970
77629W        W36890  10.754  35.920   0.413
77630W        W36891   4.266  39.330  13.887
77631W        W36892   7.389  41.887  11.098
77632W        W36893  10.818  27.975  10.105
77633W        W36894  26.596  13.316   5.246
77634W        W36895  22.175  20.161   5.115
77635W        W36896  42.844  14.711  14.275
77636W        W36897  19.161  11.273  10.577
77637W        W36898  15.104   9.684  14.292
77638W        W36899  17.734   3.381  12.358
77639W        W36900  41.500  31.421   1.854
77640W        W36901  27.186  17.720  10.943
77641W        W36902  24.212  34.480   2.272
77642W        W36903  30.640  21.684  11.517
77643W        W36904   0.466  41.479   0.259
77644W        W36905  33.586  36.943   0.349
77645W        W36906  42.797  41.443   3.795
77646W        W36907  38.876  38.044  14.482
77647W        W36908  13.343  20.583  14.861
77648W        W36909  13.675  40.331   2.374
77649W        W36910   9.761  29.083   3.241
77650W        W36911  19.549  30.031  10.585
77651W        W36912  27.986  19.686  10.512
77652W        W36913   9.889  30.990   2.385
77653W        W36914  39.937  28.039  14.822
77654W        W36915  22.625  28.435   4.157
77655W        W36916  44.358   6.808  13.842
77656W        W36917  42.384  29.153  11.074
77657W        W36918  41.505   4.937   9.994
77658W        W36919  31.439  38.904  11.526
77659W        W36920  26.625   9.299  14.826
77660W        W36921  28.944  19.639   2.686
77661W        W36922  16.570  35.513   0.801
77662W        W36923   9.840  36.542   0.838
77663W        W36924  39.039  44.844  10.633
77664W        W36925  44.918  20.559   3.290
77665W        W36926  25.061  21.720  10.892
77666W        W36927  12.727  36.943   4.701
77667W        W36928  32.496   7.233  11.113
77668W        W36929  24.005   5.864   2.800
77669W        W36930   7.397  38.329   0.441
77670W        W36931  37.848  36.082   0.822
77671W        W36932  22.735  32.900   3.773
77672W        W36933  19.764  43.986  13.054
77673W        W36934   0.909  17.289  10.019
77674W        W36935   2.401  11.768   1.364
77675W        W36936  18.263  26.593   1.246
77676W        W36937  39.393  32.454  10.489
77677W        W36938  39.820  13.126  13.060
77678W        W36939  36.431  34.559   9.998
77679W        W36940  11.234  30.598  14.302
77680W        W36941  41.913  44.484   1.739
77681W        W36942  10.785  29.063  12.973
77682W        W36943   3.380  31.964  11.908
77683W        W36944  37.010   9.749   1.796
77684W        W36945  44.933  13.161   4.763
77685W        W36946  25.645   8.752   3.166
77686W        W36947   2.432   6.879  14.391
77687W        W36948  33.916  37.347  12.370
77688W        W36949  12.795  29.661  12.096
77689W        W36950  10.676  21.062  11.457
77690W        W36951  30.647  38.058   3.286
77691W        W36952  34.609  35.406  10.442
77692W        W36953  34.480  35.443   2.323
77693W        W36954  24.659  40.488   2.673
77694W        W36955  22.072  19.640   3.245
77695W        W36956  37.880  30.599   1.286
77696W        W36957  12.305  30.134   1.754
77697W        W36958  35.038  33.071   0.926
77698W        W36959  39.351  40.926  14.316
77699W        W36960  31.034  32.097   5.121
77700W        W36961   5.337   4.434   3.689
77701W        W36962  38.560  32.116  11.908
77702W        W36963  40.369   1.452  11.579
77703W        W36964  13.174   5.239   0.326
77704W        W36965  19.551   5.750  11.920
77705W        W36966   2.861  40.348   1.815
77706W        W36967  30.107  44.376  11.604
77707W        W36968   6.740  28.601  11.069
77708W        W36969  26.125   4.930  11.373
77709W        W36970   3.430   8.217   1.304
77710W        W36971  32.448  22.149  12.016
77711W        W36972  42.031  33.017  14.015
77712W        W36973  21.154  10.139   1.297
77713W        W36974   5.871  20.139   3.707
77714W        W36975  29.660   9.394   3.259
77715W        W36976  32.508   5.839  11.969
77716W        W36977  21.681  33.393  12.917
77717W        W36978  29.572  14.231  14.363
77718W        W36979  21.637  10.859   1.229
77719W        W36980  21.052  39.399  14.313
77720W        W36981  14.114  15.577  11.597
77721W        W36982  31.028   3.338   3.259
77722W        W36983  41.452   2.938   2.753
77723W        W36984   8.836   7.247  10.626
77724W        W36985   4.942  35.043  10.602
77725W        W36986  28.981  27.166   4.675
77726W        W36987  33.966  20.688  12.853
77727W        W36988  36.412   1.292   0.308
77728W        W36989   9.779  30.146   1.375
77729W        W36990  12.637  39.422  10.547
77730W        W36991  44.941   2.744  14.296
77731W        W36992  30.136  32.447  12.440
77732W        W36993  37.922  35.378   3.758
77733W        W36994   4.911   4.880   1.234
77734W        W36995  37.463  35.475   2.209
77735W        W36996  43.854  15.810  11.565
77736W        W36997  26.584  23.092  14.355
77737W        W36998  18.743  22.663  11.129
77738W        W36999  15.748  38.509  12.397
77739W        W37000  26.054   5.727   0.331
77740W        W37001  17.117   8.869  11.931
77741W        W37002  32.476  41.001   1.899
77742W        W37003  30.910  43.405   0.852
77743W        W37004  44.452  35.067   1.716
77744W        W37005  38.839  40.034   3.198
77745W        W37006  26.051  27.977   1.757
77746W        W37007  14.707  29.088   0.379
77747W        W37008  33.897  14.763  10.993
77748W        W37009  27.640  11.335   1.816
77749W        W37010  20.261  38.398  12.362
77750W        W37011   8.844  35.452   2.395
77751W        W37012  41.022  30.462   4.714
77752W        W37013  44.908   5.354   0.775
77753W        W37014  38.488  24.654  12.947
77754W        W37015  41.860  18.271   4.157
77755W        W37016  28.485  17.134   1.239
77756W        W37017  17.166   7.726   9.959
77757W        W37018  41.466  15.601  10.574
77758W        W37019  14.632   4.925   0.851
77759W        W37020  16.737  32.619   0.270
77760W        W37021  37.575   4.912  10.580
77761W        W37022   8.360  22.183   3.186
77762W        W37023  16.729  28.560   2.339
77763W        W37024   6.328  17.098   4.607
77764W        W37025  38.958  21.740   3.827
77765W        W37026   7.795  19.049  13.409
77766W        W37027  36.003  37.343   2.318
77767W        W37028  31.973  20.744   2.342
77768W        W37029  22.252  16.755   2.696
77769W        W37030  32.018  33.108   1.727
77770W        W37031  15.206  41.513   4.301
77771W        W37032  23.680  43.376  14.427
77772W        W37033  20.588  38.005  13.902
77773W        W37034  26.673  40.051   4.716
77774W        W37035  38.821  39.917  11.860
77775W        W37036  31.542  22.710  12.032
77776W        W37037  43.851  19.658  11.075
77777W        W37038  25.991   5.425  11.921
77778W        W37039  39.506  11.712  14.819
77779W        W37040  18.243  19.222   3.724
77780W        W37041   5.902  21.617   2.860
77781W        W37042  12.714  44.958  13.423
77782W        W37043  23.593   3.732   4.275
77783W        W37044   7.403  42.420   1.401
77784W        W37045  41.988  32.117   4.248
77785W        W37046  29.633   4.414  12.377
77786W        W37047  19.748  23.601   3.848
77787W        W37048  36.889  37.883  12.362
77788W        W37049  27.596   3.955  12.982
77789W        W37050  31.432  21.243   2.715
77790W        W37051   8.689  14.248  14.955
77791W        W37052  29.491  24.563   1.422
77792W        W37053  22.589   2.748  12.908
77793W        W37054  13.792   3.276   2.306
77794W        W37055  36.985  34.071  14.482
77795W        W37056   8.888  19.767  14.419
77796W        W37057  38.501  25.584  12.462
77797W        W37058  12.237  40.399   4.694
77798W        W37059   4.919  36.566   4.196
77799W        W37060  41.856  17.685  12.939
77800W        W37061  13.624  25.101  10.534
77801W        W37062  44.890  11.150  10.597
77802W        W37063  31.574  35.876   4.675
77803W        W37064  40.875  26.632   4.326
77804W        W37065  42.297  38.991   0.922
77805W        W37066   8.242  44.265  11.449
77806W        W37067  41.488  13.763  14.430
77807W        W37068  44.463  44.891   3.676
77808W        W37069  39.915   4.905   1.744
77809W        W37070  38.545  37.444   4.118
77810W        W37071  25.608  30.484   1.337
77811W        W37072  13.322  17.280   2.671
77812W        W37073  16.318   5.428  13.487
77813W        W37074  26.115  34.584   2.736
77814W        W37075  32.514  18.095  13.415
77815W        W37076   4.779  40.476   2.705
77816W        W37077  31.605  24.572   2.739
77817W        W37078  33.967   0.399   3.260
77818W        W37079  36.039  21.220   0.764
77819W        W37080   8.382  11.797   0.825
77820W        W37081   6.288  18.112   2.247
77821W        W37082  34.056  13.167   2.821
77822W        W37083  30.656  14.307  10.928
77823W        W37084  17.216  37.560  11.483
77824W        W37085  11.662  19.242  12.369
77825W        W37086   8.757  13.349   4.695
77826W        W37087   6.323   1.852  12.365
77827W        W37088  11.259  25.677   4.823
77828W        W37089  41.432  44.356   4.289
77829W        W37090  32.056  13.843   3.221
77830W        W37091   2.789  31.087   2.762
77831W        W37092   9.789  20.254  11.867
77832W        W37093  38.835  31.954  14.508
77833W        W37094  18.678  32.613   1.334
77834W        W37095  42.288   6.419  13.880
77835W        W37096  35.578  17.206   2.668
77836W        W37097  11.319  25.044   2.677
77837W        W37098  11.229  12.298   4.203
77838W        W37099  17.693   1.938   3.194
77839W        W37100  12.220  43.971  13.469
77840W        W37101   3.376  14.811   0.297
77841W        W37102  18.082  16.695  11.910
77842W        W37103  40.421   3.327  13.800
77843W        W37104  36.470  33.497   1.340
77844W        W37105  33.053  14.809  11.449
77845W        W37106  29.116  40.911   1.399
77846W        W37107  36.901  13.840   4.636
77847W        W37108  13.738   5.353   0.910
77848W        W37109  43.914  34.597   0.955
77849W        W37110  29.987  13.650   0.447
77850W        W37111   2.253  12.800  10.545
77851W        W37112  31.094  44.927  10.556
77852W        W37113  27.178  32.035   2.286
77853W        W37114  13.644  43.286   1.363
77854W        W37115  10.814  30.937  10.606
77855W        W37116   0.851   3.368   2.855
77856W        W37117  38.515  43.344   1.369
77857W        W37118  33.565  35.002  13.910
77858W        W37119   7.248   4.447   2.901
77859W        W37120  25.541   0.813   1.878
77860W        W37121  39.896  23.204  13.803
77861W        W37122  28.470  29.958   0.269
77862W        W37123  14.594   5.732  11.549
77863W        W37124  41.854  34.588  14.448
77864W        W37125  39.351  21.559  14.361
77865W        W37126  29.559  42.866  13.929
77866W        W37127  25.478  16.254  11.576
77867W        W37128  23.159  40.953  10.555
77868W        W37129   7.892  35.918  12.510
77869W        W37130   8.250  42.800  10.967
77870W        W37131   5.231  17.236   1.783
77871W        W37132  17.634  25.559   2.388
77872W        W37133  12.694   0.429  10.432
77873W        W37134   9.702  15.103   4.766
77874W        W37135  11.236  38.358  14.466
77875W        W37136  25.479  11.287   2.667
77876W        W37137  39.862  38.465  12.059
77877W        W37138  37.571   7.333   9.982
77878W        W37139   2.359  20.103   2.348
77879W        W37140   7.290   7.272  12.358
77880W        W37141  30.433   7.726   0.851
77881W        W37142  38.869  38.025   2.365
77882W        W37143  22.093  30.631  13.911
77883W        W37144   3.271   0.451   0.907
77884W        W37145  32.994   4.282  11.426
77885W        W37146  29.979  26.546  11.922
77886W        W37147  30.059  35.532  10.426
77887W        W37148  18.095  40.322  13.797
77888W        W37149  25.517  13.265  12.879
77889W        W37150  34.578  35.096   1.747
77890W        W37151  24.521  21.234   2.723
77891W        W37152   7.907  36.888   4.290
77892W        W37153   4.263  38.928   3.647
77893W        W37154  29.538  36.559  11.106
77894W        W37155  13.750  25.190  11.451
77895W        W37156  37.039  44.264  12.473
77896W        W37157  26.048   4.936  10.029
77897W        W37158   1.372  37.054   0.834
77898W        W37159  10.175   7.756   3.776
77899W        W37160  37.413  14.279  10.528
77900W        W37161  23.569  14.834   3.808
77901W        W37162  42.448   6.850   1.921
77902W        W37163  39.525  17.591   3.172
77903W        W37164  35.382   7.406  12.940
77904W        W37165  19.562  14.224  13.015
77905W        W37166  20.162  44.892  11.072
77906W        W37167  25.592  28.071  10.556
77907W        W37168  33.107  15.725   0.422
77908W        W37169  28.536   6.206  10.967
77909W        W37170  33.030   9.694   2.400
77910W        W37171   2.251  25.576  10.464
77911W        W37172  16.256  28.510  14.908
77912W        W37173   5.351  44.980   0.471
77913W        W37174  10.349   1.862   1.307
77914W        W37175  27.508  29.166  12.059
77915W        W37176  23.533  30.952  14.308
77916W        W37177   1.928  38.989   5.170
77917W        W37178  17.239  38.011   4.706
77918W        W37179  39.986  24.229   9.598
77919W        W37180  33.001  38.035  11.006
77920W        W37181  21.017  33.585   0.816
77921W        W37182  27.192  28.056  13.011
77922W        W37183  40.460  14.620  11.994
77923W        W37184  22.207   7.180  13.448
77924W        W37185  33.503  28.607   4.768
77925W        W37186  25.497  36.893  10.557
77926W        W37187  37.380  10.385  14.441
77927W        W37188  24.677  12.651  14.308
77928W        W37189  42.427  24.654  11.561
77929W        W37190   2.267  36.586   3.184
77930W        W37191  18.059  26.995  10.432
77931W        W37192   2.786  13.749  14.903
77932W        W37193  18.624  22.557  13.807
77933W        W37194  44.371   8.163  12.531
77934W        W37195  36.400  12.252  12.384
77935W        W37196   2.377  34.547   4.832
77936W        W37197   0.256  23.030   4.119
77937W        W37198   3.905  17.637   1.351
77938W        W37199  20.689  15.652   0.398
77939W        W37200  17.680  14.791   1.846
77940W        W37201   0.446  30.101  12.971
77941W        W37202   0.770   4.436   1.398
77942W        W37203  29.665  38.853   2.406
77943W        W37204  26.193   3.388  11.067
77944W        W37205  21.587   0.915   4.639
77945W        W37206  20.145   4.254  12.580
77946W        W37207  34.895   7.894   0.738
77947W        W37208   9.699  38.556   3.788
77948W        W37209  11.773  17.293  10.912
77949W        W37210  10.246  20.111   0.945
77950W        W37211  18.683   9.246   2.313
77951W        W37212  39.321   5.836   3.713
77952W        W37213   9.202  34.550   3.243
77953W        W37214  30.501  21.533   2.714
77954W        W37215  27.118  34.564   4.170
77955W        W37216  27.460  12.352  10.595
77956W        W37217  18.257   0.773  12.417
77957W        W37218  31.632   9.362  13.416
77958W        W37219  15.772   2.230  13.877
77959W        W37220  35.375  20.133  11.062
77960W        W37221  34.967  13.339   1.280
77961W        W37222  30.083  27.487  10.542
77962W        W37223  17.567  36.022   3.826
77963W        W37224  11.800  30.095  13.319
77964W        W37225   8.872  31.922   0.749
77965W        W37226  16.689  25.633   1.222
77966W        W37227  25.077  28.119   1.754
77967W        W37228  33.419   8.842   3.635
77968W        W37229  10.725  23.647  14.332
77969W        W37230  44.412  41.010   2.834
77970W        W37231  28.446  25.056   2.225
77971W        W37232  20.750  20.629  13.995
77972W        W37233   3.251   2.762   0.320
77973W        W37234  22.501  22.535  14.467
77974W        W37235  42.356   9.326   1.725
77975W        W37236  13.309  41.305  13.469
77976W        W37237  18.571  11.690   9.999
77977W        W37238   5.781   8.276   2.832
77978W        W37239  17.105  23.559  13.481
77979W        W37240   8.781  21.753   3.632
77980W        W37241  42.366   1.293   4.618
77981W        W37242  38.991  38.917  10.451
77982W        W37243  42.885  23.710   3.378
77983W        W37244  26.146  31.580  13.834
77984W        W37245  44.330  26.461  14.462
77985W        W37246   1.734  18.582   1.348
77986W        W37247  28.635  11.741  10.902
77987W        W37248  33.034  33.540   0.757
77988W        W37249  24.079  19.236   4.692
77989W        W37250   9.884  11.761  14.823
77990W        W37251  14.779  38.428   3.703
77991W        W37252  18.225  25.212  11.032
77992W        W37253   7.808   1.372  10.525
77993W        W37254  29.497   7.828  11.611
77994W        W37255  28.121  44.864  13.030
77995W        W37256  14.292  25.134  12.484
77996W        W37257  17.281  15.672   1.862
77997W        W37258  26.481  39.498   1.252
77998W        W37259  28.490  11.259  10.428
77999W        W37260  22.674  16.689   0.409
78000W        W37261  40.914   7.834  11.530
78001W        W37262   5.295  29.922   4.725
78002W        W37263   5.705   3.444   2.258
78003W        W37264  16.690  44.935   1.302
78004W        W37265  35.575  44.764   3.385
78005W        W37266  14.763   7.766   3.720
78006W        W37267  25.991   2.282   1.798
78007W        W37268   3.456  29.176  10.437
78008W        W37269  21.229  16.300  12.898
78009W        W37270  34.932  18.606   0.435
78010W        W37271  14.734  10.733   0.350
78011W        W37272  34.610  35.420  13.388
78012W        W37273  41.455  22.215   2.832
78013W        W37274  33.513  13.835  12.006
78014W        W37275  28.099   5.847  10.574
78015W        W37276  15.096  43.965  11.433
78016W        W37277  38.040   5.807   3.182
78017W        W37278   1.373  40.474  11.998
78018W        W37279  10.777   7.901  11.404
78019W        W37280  33.000   0.765   0.311
78020W        W37281  27.596  34.433   1.767
78021W        W37282  18.713  41.531  10.502
78022W        W37283  43.368   0.310   2.819
78023W        W37284  18.721  33.953  13.799
78024W        W37285  32.923  35.093  12.988
78025W        W37286  29.020  36.390  10.581
78026W        W37287  38.896  10.842  14.372
78027W        W37288  40.432  32.499  10.523
78028W        W37289  21.659  16.641  14.959
78029W        W37290   5.276  18.584   4.691
78030W        W37291  21.734  27.541   1.320
78031W        W37292  26.195  21.030   1.375
78032W        W37293  16.186  12.654  12.580
78033W        W37294   7.785  21.085  10.138
78034W        W37295  25.105   4.269  12.511
78035W        W37296  14.229  35.517  14.776
78036W        W37297  31.582  36.518   3.668
78037W        W37298   8.212  44.859   1.771
78038W        W37299  10.336  32.975  14.028
78039W        W37300  40.403  25.160  12.341
78040W        W37301  30.014  43.372   2.418
78041W        W37302  33.537  27.491   3.721
78042W        W37303  14.757  23.133   1.815
78043W        W37304  31.621  26.061  11.922
78044W        W37305  34.919  44.430  10.142
78045W        W37306  21.658   4.345   2.366
78046W        W37307  19.748   4.248   2.265
78047W        W37308  41.366  38.854  14.991
78048W        W37309  42.350   9.345  13.423
78049W        W37310  30.449  27.109   0.277
78050W        W37311  17.665  26.503   2.878
78051W        W37312  29.950  20.105   0.928
78052W        W37313  42.820  38.021  13.057
78053W        W37314  30.030  37.423  13.821
78054W        W37315   4.902  41.872   3.339
78055W        W37316  28.495   6.245  11.460
78056W        W37317  30.528   7.809  12.494
78057W        W37318  16.284  38.937  12.429
78058W        W37319  42.387  38.435   2.410
78059W        W37320  36.934  11.649   3.305
78060W        W37321  42.385   7.257   4.614
78061W        W37322  17.129  34.374   2.743
78062W        W37323  44.447  39.469  10.978
78063W        W37324  21.182   7.733  11.024
78064W        W37325  32.057  14.803  10.626
78065W        W37326  16.116  18.682  11.584
78066W        W37327  16.762  35.387  10.520
78067W        W37328  15.256  24.071   4.626
78068W        W37329  34.095  33.050  12.914
78069W        W37330  35.109  40.490   2.882
78070W        W37331  20.174  36.998  13.526
78071W        W37332  17.790  29.124   2.403
78072W        W37333  42.776  27.463  12.906
78073W        W37334  15.629  35.940  10.542
78074W        W37335  26.614   1.420   1.358
78075W        W37336   0.937   4.919  12.406
78076W        W37337   6.218  21.060   2.392
78077W        W37338  22.532  42.908   3.227
78078W        W37339   4.447  24.595   3.688
78079W        W37340  15.694   6.690   0.957
78080W        W37341  22.698   2.884   0.252
78081W        W37342  18.291  42.332   0.352
78082W        W37343  40.991  40.960   4.779
78083W        W37344   9.661  25.681   3.334
78084W        W37345  38.973  18.214   9.585
78085W        W37346  24.102  26.499   2.342
78086W        W37347   6.702  28.983   1.887
78087W        W37348  17.269  21.511   1.764
78088W        W37349  24.551  36.369   3.275
78089W        W37350  13.627   8.169   4.237
78090W        W37351  26.195  30.092   1.389
78091W        W37352  15.119  10.746  14.458
78092W        W37353  24.089   8.804  14.475
78093W        W37354  20.528  35.483  14.301
78094W        W37355  11.132  24.017  14.288
78095W        W37356  29.150  20.689  13.475
78096W        W37357  16.306   4.855   4.349
78097W        W37358  23.220  34.936   1.359
78098W        W37359  43.950  22.564   2.193
78099W        W37360  11.257  15.605   5.153
78100W        W37361  22.585  24.105  13.503
78101W        W37362  17.124   5.395  12.456
78102W        W37363  24.187  33.123   0.752
78103W        W37364   7.723   6.884   5.088
78104W        W37365  28.577  11.808  10.583
78105W        W37366  37.558  15.702   0.249
78106W        W37367  37.469  22.640   4.683
78107W        W37368  36.411  41.322   3.724
78108W        W37369  20.567   9.766   0.369
78109W        W37370  44.907  43.421  12.953
78110W        W37371  42.015  44.264   3.820
78111W        W37372   6.833  41.003   2.191
78112W        W37373   4.786  10.373  12.459
78113W        W37374   8.306  17.158   4.315
78114W        W37375   5.295  37.544   1.357
78115W        W37376  18.725  19.621   1.334
78116W        W37377  32.062  30.525  12.095
78117W        W37378  38.539  36.864  14.967
78118W        W37379  18.556  28.622   3.669
78119W        W37380  25.555  37.031  12.033
78120W        W37381  44.486  23.177   2.227
78121W        W37382  27.968  24.486  12.902
78122W        W37383  28.036  41.386  13.349
78123W        W37384  34.426  43.330  12.050
78124W        W37385   0.362   4.810   3.278
78125W        W37386  10.656  30.971  13.523
78126W        W37387   4.406  20.577   1.439
78127W        W37388  43.780   2.773  10.415
78128W        W37389  37.021   8.302   0.369
78129W        W37390   8.237  19.238   4.216
78130W        W37391  11.215  35.859  12.430
78131W        W37392  36.538  27.533  14.942
78132W        W37393  20.741  23.104   2.269
78133W        W37394  35.879  25.118   3.867
78134W        W37395   7.316  37.049   1.426
78135W        W37396  39.900  27.611  14.392
78136W        W37397  10.381  41.437  14.276
78137W        W37398  15.171  27.083   1.915
78138W        W37399  26.637  40.305   0.878
78139W        W37400   9.670   1.836  13.340
78140W        W37401  32.600  43.015   1.342
78141W        W37402   7.238  16.583  14.761
78142W        W37403  24.514  27.002  11.077
78143W        W37404  39.023   7.817  14.328
78144W        W37405   7.879  44.976  13.526
78145W        W37406  12.349  40.305  14.913
78146W        W37407  15.146  23.090  11.035
78147W        W37408  33.427   0.940  11.097
78148W        W37409  11.259   0.862  13.466
78149W        W37410  29.434  19.591   9.989
78150W        W37411  39.466  16.172   0.313
78151W        W37412   0.891  27.108   1.231
78152W        W37413  41.472  21.665  12.938
78153W        W37414  44.854  28.998  13.806
78154W        W37415  42.371  38.920  12.905
78155W        W37416  32.487  18.615   3.845
78156W        W37417  25.202  37.024  12.537
78157W        W37418  43.475  29.969   0.869
78158W        W37419  15.094  14.695   3.679
78159W        W37420  41.850  19.578   0.896
78160W        W37421   4.281   9.328   1.726
78161W        W37422  25.528  24.547   1.450
78162W        W37423  37.495  11.848  13.461
78163W        W37424  12.612  38.560   1.794
78164W        W37425  25.692  43.977  14.304
78165W        W37426  12.745  13.107  12.056
78166W        W37427   5.238   8.834  10.575
78167W        W37428   3.420  23.154  11.034
78168W        W37429  15.797  10.261  10.037
78169W        W37430  31.457  14.130   3.717
78170W        W37431  41.859  20.744   4.821
78171W        W37432   7.318  19.074  12.355
78172W        W37433  15.150  37.878   0.882
78173W        W37434   1.966  10.773  12.039
78174W        W37435  16.139  24.132   0.414
78175W        W37436   1.763  24.552   0.369
78176W        W37437  32.394  36.029  11.105
78177W        W37438  43.357  12.255  10.546
78178W        W37439  33.076  17.700  13.540
78179W        W37440  19.096  30.120   9.580
78180W        W37441  24.491  15.178   2.690
78181W        W37442  23.023  27.635  14.883
78182W        W37443   5.331  27.031   2.730
78183W        W37444  13.792  35.527   0.784
78184W        W37445   9.366  39.469  10.961
78185W        W37446  26.493   2.813   2.871
78186W        W37447  12.703  35.447   1.702
78187W        W37448   8.861   6.332   5.571
78188W        W37449  11.808   6.766  10.085
78189W        W37450  11.131   2.290   1.386
78190W        W37451   8.172  42.965   1.403
78191W        W37452   3.388   1.736   3.785
78192W        W37453  30.506  35.042  12.456
78193W        W37454  44.350  33.918   4.144
78194W        W37455  21.258  14.131   0.880
78195W        W37456  40.861  44.406  11.048
78196W        W37457  37.869  15.243  13.314
78197W        W37458  29.669  23.185   1.412
78198W        W37459  37.338  37.073   0.926
78199W        W37460   4.938  17.557   3.836
78200W        W37461  38.439  26.159   1.762
78201W        W37462  41.516   1.245  12.043
78202W        W37463   2.463  15.664  13.515
78203W        W37464  33.420   3.243  14.477
78204W        W37465  19.546   7.248  12.543
78205W        W37466  30.134  44.352   1.901
78206W        W37467  27.195  14.122   2.347
78207W        W37468  22.591  43.021   9.969
78208W        W37469  37.515  25.211  14.918
78209W        W37470  40.517  19.139  11.993
78210W        W37471   8.740  12.691  10.104
78211W        W37472   2.226   4.233  12.976
78212W        W37473  37.559  27.570  14.356
78213W        W37474   4.285  13.331   1.435
78214W        W37475   5.332   9.804  11.602
78215W        W37476  39.508   9.377   2.415
78216W        W37477  16.217  16.585   2.313
78217W        W37478  21.636  29.596   3.222
78218W        W37479   8.833   3.785   3.194
78219W        W37480   2.764  27.618   2.386
78220W        W37481  32.122  11.286   4.127
78221W        W37482  14.603  20.677   1.248
78222W        W37483   5.863   2.244   1.238
78223W        W37484  25.658  13.136   3.283
78224W        W37485  22.031  21.151   2.400
78225W        W37486   8.663   1.284  11.451
78226W        W37487   6.419   0.743  12.021
78227W        W37488   7.721  10.178  12.512
78228W        W37489  15.204  28.004   1.431
78229W        W37490   6.398  37.530  14.032
78230W        W37491  28.499  12.772  11.431
78231W        W37492  26.005  15.766   2.763
78232W        W37493  18.621  37.835   4.793
78233W        W37494  29.041  33.501  13.473
78234W        W37495  24.173  18.293  11.100
78235W        W37496  14.152  10.793   0.314
78236W        W37497  42.926  10.806  13.803
78237W        W37498  43.956   6.805  10.502
78238W        W37499  11.692  42.941   3.633
78239W        W37500  18.736  27.560  11.453
78240W        W37501   9.156  27.961   3.774
78241W        W37502  31.476  20.603  14.462
78242W        W37503  40.915   1.916   4.222
78243W        W37504  13.126   7.865   9.599
78244W        W37505  26.659  40.832  12.491
78245W        W37506   9.799  38.841  10.494
78246W        W37507  24.133  42.360  13.333
78247W        W37508  44.350  39.995  10.131
78248W        W37509  35.854   9.284   2.745
78249W        W37510  40.992   3.909  10.921
78250W        W37511  11.770  39.560  13.975
78251W        W37512  31.505  20.535   0.852
78252W        W37513  27.573  36.419  14.001
78253W        W37514  21.078  34.962   1.720
78254W        W37515  24.149  14.278   2.833
78255W        W37516   0.981   1.792   2.193
78256W        W37517   0.316  44.900  11.111
78257W        W37518  26.140  24.576  10.534
78258W        W37519  23.122   0.300  12.535
78259W        W37520   3.870   2.355   2.669
78260W        W37521  44.408  35.531  10.582
78261W        W37522   1.363   7.669   3.688
78262W        W37523  39.376  16.568  14.909
78263W        W37524  20.042  32.489   0.268
78264W        W37525  33.896  30.651  11.127
78265W        W37526  33.397  37.026  11.899
78266W        W37527  24.998  33.553   0.927
78267W        W37528  36.992  26.633   3.245
78268W        W37529  37.374  34.115  12.959
78269W        W37530  17.681  25.526  14.327
78270W        W37531  43.432   2.912  14.764
78271W        W37532  22.220  40.848   0.318
78272W        W37533  16.766  31.536   1.284
78273W        W37534  39.833  42.005  14.940
78274W        W37535   7.181  17.608   3.156
78275W        W37536   1.270   8.790   1.214
78276W        W37537  38.495  15.775  13.548
78277W        W37538  26.624  37.549  13.971
78278W        W37539   1.296  41.817   4.272
78279W        W37540  43.794  21.516  11.007
78280W        W37541  42.288  19.760   2.304
78281W        W37542  34.970  30.578   4.698
78282W        W37543  19.577   0.850  14.397
78283W        W37544  30.924  41.957   4.607
78284W        W37545  24.146  35.976  12.499
78285W        W37546  36.411  33.947   4.709
78286W        W37547  40.378  18.193   0.433
78287W        W37548  21.753  24.080  14.352
78288W        W37549  24.709  29.054   2.679
78289W        W37550  38.514  19.626  13.831
78290W        W37551  34.896  31.543  11.917
78291W        W37552  14.154  35.508   4.730
78292W        W37553  28.098  22.658   5.111
78293W        W37554  39.864  12.766  14.356
78294W        W37555  38.845  34.483  11.386
78295W        W37556  17.113   2.820   5.164
78296W        W37557  25.496   8.792  11.882
78297W        W37558   9.289  17.247  13.969
78298W        W37559  41.521  12.694  10.523
78299W        W37560  33.950  28.568  12.548
78300W        W37561   9.234  16.576   1.289
78301W        W37562  27.984   1.940  12.031
78302W        W37563  42.933  42.945   2.237
78303W        W37564  22.128  14.748  11.487
78304W        W37565  10.164   1.372  12.463
78305W        W37566  32.411  12.197  13.339
78306W        W37567   3.755  14.209   1.709
78307W        W37568  27.510   3.908   3.309
78308W        W37569  21.095  13.296   3.161
78309W        W37570  16.104  13.734  11.090
78310W        W37571  13.653   2.423  14.385
78311W        W37572  34.930  16.262   1.261
78312W        W37573  32.084  33.462  13.969
78313W        W37574  26.004  22.670  13.958
78314W        W37575   5.817  24.990   2.692
78315W        W37576  12.177   8.298   2.886
78316W        W37577   4.804  19.643   2.789
78317W        W37578  34.958  38.546  13.921
78318W        W37579  34.474  13.175  13.523
78319W        W37580  33.095  26.986  14.765
78320W        W37581  23.592  31.149  14.801
78321W        W37582  14.198  31.101   3.847
78322W        W37583  39.391  36.417  10.998
78323W        W37584  42.775  10.310  12.399
78324W        W37585  22.707  19.662  12.538
78325W        W37586  29.103  18.753   1.876
78326W        W37587  36.472  14.767   0.349
78327W        W37588   5.714  13.316  12.977
78328W        W37589  14.761  19.201   1.234
78329W        W37590   9.284  28.487  12.916
78330W        W37591  43.934  14.340   2.225
78331W        W37592  17.628   9.763   2.394
78332W        W37593  28.978   8.181   1.441
78333W        W37594  30.562  14.149  11.600
78334W        W37595  28.552  28.563   9.998
78335W        W37596  12.649  19.584   3.652
78336W        W37597  41.303  29.160  13.500
78337W        W37598   7.295  34.441   1.890
78338W        W37599  27.489  19.076   1.365
78339W        W37600  13.674  22.170  14.825
78340W        W37601  34.430   5.215   2.202
78341W        W37602  44.297   1.292   0.776
78342W        W37603  28.977  38.429   2.401
78343W        W37604  15.619  36.012  14.920
78344W        W37605   5.785  25.510  11.947
78345W        W37606  28.657  27.098   3.381
78346W        W37607  36.029  36.936  14.922
78347W        W37608   6.911  29.118   3.153
78348W        W37609  29.005  13.649  11.116
78349W        W37610  15.659  40.037  14.444
78350W        W37611   4.438  39.012   0.274
78351W        W37612  16.772  16.598  14.350
78352W        W37613  37.495  27.021  12.016
78353W        W37614   1.357   5.845  13.309
78354W        W37615  23.678  38.427   1.751
78355W        W37616  26.041  32.121  14.357
78356W        W37617  31.120  15.816  11.125
78357W        W37618  28.438   1.241  13.951
78358W        W37619  43.510  11.366  14.297
78359W        W37620  38.552  15.108   4.201
78360W        W37621  38.400  25.128   9.670
78361W        W37622  23.089   3.753   0.315
78362W        W37623   9.823   8.718  11.862
78363W        W37624  18.219  32.902   3.823
78364W        W37625   2.346   4.910  11.596
78365W        W37626  31.112   6.259  11.456
78366W        W37627  25.086  15.315  12.564
78367W        W37628   4.204  33.432   2.899
78368W        W37629  34.413  42.380  14.916
78369W        W37630  33.396  23.674  10.026
78370W        W37631  42.876   6.354  14.485
78371W        W37632  35.448  39.004  11.124
78372W        W37633  22.568  21.153   0.865
78373W        W37634  12.195  28.172  10.488
78374W        W37635  15.763  15.645   5.119
78375W        W37636  34.407  35.438   1.317
78376W        W37637  41.358  35.500   1.406
78377W        W37638  13.777  20.581  11.583
78378W        W37639  31.147  11.235  11.050
78379W        W37640  44.878  17.749  14.327
78380W        W37641   5.293  44.344  14.285
78381W        W37642  19.546  35.991  12.043
78382W        W37643   6.272   9.862   4.206
78383W        W37644  33.016  10.869  14.012
78384W        W37645  22.228  35.551   4.792
78385W        W37646   1.842  15.648   1.734
78386W        W37647   8.223   4.710   1.935
78387W        W37648  11.344  33.614   3.319
78388W        W37649  16.745  34.889  11.928
78389W        W37650  35.381   4.739  11.532
78390W        W37651  14.683   5.770  11.864
78391W        W37652  38.336   3.776  10.417
78392W        W37653  44.848  28.056  11.396
78393W        W37654  10.766  21.520   1.795
78394W        W37655   0.352  34.958  11.084
78395W        W37656   2.850  10.346   0.288
78396W        W37657  23.506  23.577   4.622
78397W        W37658  28.643  12.258   2.338
78398W        W37659   3.947  23.531  12.445
78399W        W37660   0.357   0.290   3.343
78400W        W37661  21.600  12.825   5.254
78401W        W37662   5.817   9.380   4.817
78402W        W37663  38.054   6.867  14.940
78403W        W37664  22.624  41.329  10.554
78404W        W37665   8.685  19.141  13.792
78405W        W37666  39.449  40.357   1.763
78406W        W37667   4.745  42.518  14.316
78407W        W37668  10.195  22.048  13.524
78408W        W37669   0.978   3.860   0.839
78409W        W37670  39.486   9.212  13.469
78410W        W37671  23.707  23.612   0.406
78411W        W37672  12.707  29.026  10.091
78412W        W37673  42.995   9.381   3.850
78413W        W37674  21.654  43.767  12.884
78414W        W37675  43.875  42.782  11.052
78415W        W37676   0.437  29.170   0.450
78416W        W37677  29.541  41.324   9.960
78417W        W37678  32.536  24.082  11.404
78418W        W37679  11.829  12.185   2.220
78419W        W37680  24.589  16.234   3.263
78420W        W37681  13.210  41.815  10.504
78421W        W37682   0.402  40.854   2.668
78422W        W37683  12.641  29.062  11.919
78423W        W37684  16.665   3.896  10.908
78424W        W37685  17.080  39.335   4.342
78425W        W37686  28.540  18.741   3.149
78426W        W37687   0.254  29.175  11.905
78427W        W37688  42.816   7.378  10.636
78428W        W37689   4.803  33.580  10.979
78429W        W37690   0.494  20.109  14.784
78430W        W37691  42.947  43.842  12.551
78431W        W37692  39.000  43.858   2.212
78432W        W37693  37.959  15.204   1.256
78433W        W37694   2.821   2.756  14.924
78434W        W37695   2.838  36.417   4.749
78435W        W37696  41.915   6.408  13.839
78436W        W37697  10.707  19.592   0.883
78437W        W37698  37.084   7.299  14.811
78438W        W37699  14.310  35.931  13.421
78439W        W37700  25.708  42.015  14.886
78440W        W37701  18.082  26.960  11.890
78441W        W37702  30.063   4.383  13.462
78442W        W37703   4.824  33.510  13.491
78443W        W37704  25.581  44.426   2.665
78444W        W37705  41.385  31.954  14.397
78445W        W37706  15.326  24.979  12.907
78446W        W37707  23.032  24.493  12.540
78447W        W37708   1.774  40.877   3.636
78448W        W37709  14.136  21.104  13.540
78449W        W37710  23.098  12.159   2.678
78450W        W37711  36.521  31.433   3.847
78451W        W37712   1.874  24.047  12.481
78452W        W37713  10.185   4.406  12.860
78453W        W37714  26.497  30.059  14.294
78454W        W37715  24.192   6.853  12.520
78455W        W37716   4.233   1.429  12.512
78456W        W37717  32.553  33.445   3.702
78457W        W37718  29.554  22.069  12.415
78458W        W37719  22.677  21.185   3.283
78459W        W37720  14.657  26.178  11.376
78460W        W37721  28.560  39.015  10.415
78461W        W37722  29.062  22.142   4.113
78462W        W37723  36.576   9.252  13.032
78463W        W37724  20.672  27.522   2.371
78464W        W37725  44.938  14.737  13.330
78465W        W37726  11.624  12.674  11.529
78466W        W37727  39.922  14.148  13.957
78467W        W37728  28.059   3.896  12.904
78468W        W37729  41.814  33.394   4.205
78469W        W37730   4.716  37.406   1.924
78470W        W37731  26.158  43.787  12.516
78471W        W37732  39.939  15.759  11.446
78472W        W37733  16.212  17.293  11.556
78473W        W37734  10.251  37.912   3.202
78474W        W37735  32.091  16.802   2.419
78475W        W37736  43.500   7.381  13.063
78476W        W37737   7.210  27.613  14.446
78477W        W37738   0.421  35.389   1.845
78478W        W37739  27.565  19.096  14.823
78479W        W37740   5.828   6.295   3.202
78480W        W37741  28.584  20.113  13.423
78481W        W37742  12.809  15.792  10.083
78482W        W37743  42.498  15.746  14.856
78483W        W37744  13.753  38.977  11.398
78484W        W37745  11.651   5.768   0.742
78485W        W37746  40.358  43.874   1.258
78486W        W37747  32.522  38.825  12.528
78487W        W37748   5.813  29.426  12.888
78488W        W37749  20.658  12.814   0.282
78489W        W37750   1.780  23.085  12.946
78490W        W37751  25.529  26.688   0.344
78491W        W37752  44.974  11.177  14.967
78492W        W37753   0.822   7.747   3.322
78493W        W37754  33.503  34.981  12.021
78494W        W37755  35.876  25.037  14.883
78495W        W37756  19.557  18.651   1.898
78496W        W37757   1.275   7.386  11.476
78497W        W37758  35.039   1.413  13.470
78498W        W37759   9.658  13.670   3.166
78499W        W37760  41.983  35.903   0.932
78500W        W37761  32.123  38.340   2.220
78501W        W37762  31.420  21.114  12.469
78502W        W37763  24.652  41.010   3.386
78503W        W37764   4.366   1.391  10.453
78504W        W37765   4.292  35.091  12.537
78505W        W37766  18.664  43.861  13.390
78506W        W37767  42.929   9.783  14.006
78507W        W37768   7.746   5.434  14.349
78508W        W37769  23.568  40.532   2.249
78509W        W37770  34.018  26.626   4.698
78510W        W37771  27.539  38.442   2.864
78511W        W37772  27.616  44.395  12.570
78512W        W37773  28.116  43.496  10.991
78513W        W37774  35.509   2.251   3.232
78514W        W37775   8.756   0.341  10.989
78515W        W37776   7.849  11.761  14.335
78516W        W37777  29.571  43.452   2.193
78517W        W37778  32.503  35.059   0.918
78518W        W37779   1.404  29.158   3.763
78519W        W37780  27.485  19.053   3.831
78520W        W37781  25.561  18.689   2.895
78521W        W37782  21.056  17.701   4.188
78522W        W37783  16.652  23.564  12.397
78523W        W37784   6.314   8.292   3.815
78524W        W37785  26.066  34.890   2.691
78525W        W37786  27.510  21.238   3.815
78526W        W37787  20.178  28.652  14.030
78527W        W37788  30.546  23.004  14.885
78528W        W37789  37.566  21.178  13.928
78529W        W37790   4.901  24.505   1.314
78530W        W37791   0.743  18.559   4.144
78531W        W37792  44.799  20.745  10.420
78532W        W37793  17.062  35.107   4.117
78533W        W37794  22.102  18.187  11.405
78534W        W37795  20.043  43.801  13.852
78535W        W37796  27.942  19.151   0.930
78536W        W37797  37.347  15.588   4.622
78537W        W37798  11.318   3.269   1.928
78538W        W37799  37.875  39.046  12.056
78539W        W37800  25.660   0.279  14.475
78540W        W37801  31.583  15.149  12.947
78541W        W37802  12.251  31.917   1.755
78542W        W37803  13.340  13.343   3.234
78543W        W37804   0.763   8.841   1.264
78544W        W37805  33.444  17.231  13.433
78545W        W37806  39.534   9.851   3.170
78546W        W37807   6.300  39.362   0.907
78547W        W37808  26.621  44.004  11.889
78548W        W37809  25.971  22.743  10.911
78549W        W37810   4.728  36.892  12.525
78550W        W37811  10.649  24.527   0.399
78551W        W37812  17.590  25.973  14.795
78552W        W37813  40.419  18.744   4.198
78553W        W37814  15.086  34.883   1.266
78554W        W37815   4.706  29.005   1.381
78555W        W37816  28.019  41.899   3.253
78556W        W37817  14.267  34.556  10.603
78557W        W37818   1.734  36.466  14.423
78558W        W37819   4.383  30.030  13.963
78559W        W37820  17.184  31.054   1.442
78560W        W37821  28.977  26.192   3.150
78561W        W37822   3.819  40.854  14.374
78562W        W37823  11.145  24.020  11.937
78563W        W37824  43.956  29.141   0.810
78564W        W37825  22.714  34.487   3.863
78565W        W37826  35.891  21.727  13.429
78566W        W37827  19.067  39.445  13.425
78567W        W37828  44.836  34.466   1.257
78568W        W37829   7.684  32.953   4.318
78569W        W37830  24.724   6.419   0.338
78570W        W37831   6.893  23.523  13.492
78571W        W37832  15.777   5.916   0.327
78572W        W37833  38.569   0.851   4.186
78573W        W37834  37.033   4.269   4.701
78574W        W37835   0.746  19.119  14.816
78575W        W37836  18.089  14.645   0.349
78576W        W37837  28.071  28.970  12.067
78577W        W37838   0.758  44.959   1.264
78578W        W37839  36.974   0.415  12.486
78579W        W37840  24.582   6.295   4.795
78580W        W37841  28.948  43.304   1.899
78581W        W37842  34.608  26.954  11.902
78582W        W37843  29.955  26.076   3.771
78583W        W37844  37.005   4.352  13.819
78584W        W37845  42.454   2.900   2.299
78585W        W37846  12.692   8.315   3.235
78586W        W37847  28.612  44.262  10.904
78587W        W37848  14.783  17.678   3.796
78588W        W37849  18.724   4.402  11.942
78589W        W37850  32.485  14.150   1.740
78590W        W37851   9.255  35.590  12.911
78591W        W37852  16.740  18.715   1.452
78592W        W37853  25.578  39.035  14.852
78593W        W37854  27.610  32.960   3.860
78594W        W37855   8.244  23.198  12.512
78595W        W37856  30.029   4.398   9.453
78596W        W37857  41.453  44.412  14.494
78597W        W37858  26.155  28.155  11.583
78598W        W37859  12.617   3.214  11.877
78599W        W37860  27.979  40.381   2.367
78600W        W37861   6.202  37.059   2.667
78601W        W37862  26.597  21.251  10.567
78602W        W37863  19.577  14.256  13.831
78603W        W37864  10.686  26.675   2.759
78604W        W37865  25.973  32.507  13.929
78605W        W37866  40.001  11.311   2.312
78606W        W37867   6.279  44.879  14.830
78607W        W37868  15.092  16.289   2.752
78608W        W37869  39.314  22.025  14.347
78609W        W37870  15.289  43.944   2.180
78610W        W37871  19.062  12.147   1.755
78611W        W37872  33.064  18.108  14.915
78612W        W37873  19.697  28.489  14.848
78613W        W37874  11.652  18.078   3.290
78614W        W37875   2.790  43.360   1.719
78615W        W37876  20.654   7.808  11.995
78616W        W37877  14.209  43.323  12.871
78617W        W37878  43.368   5.813  10.911
78618W        W37879   4.845  40.887   1.374
78619W        W37880   7.774  29.592  14.374
78620W        W37881   6.254  31.053   1.362
78621W        W37882   3.308  37.452   1.432
78622W        W37883   7.794  16.195   0.480
78623W        W37884  41.884  41.377   0.245
78624W        W37885  19.196   1.858   3.371
78625W        W37886  27.103   6.307   3.295
78626W        W37887   1.283  33.994   4.224
78627W        W37888  29.622  14.760   3.254
78628W        W37889  14.139  40.988  13.933
78629W        W37890   9.710  25.479  11.434
78630W        W37891  31.426   9.745   4.800
78631W        W37892  43.809  17.274   2.753
78632W        W37893  27.957  13.771  13.322
78633W        W37894   6.331   9.679   0.343
78634W        W37895  16.309  43.475   3.760
78635W        W37896   9.262  15.645  12.052
78636W        W37897  41.011  23.504   1.218
78637W        W37898  43.449  39.329  12.047
78638W        W37899  23.099  41.951  11.526
78639W        W37900  41.862  18.637   0.453
78640W        W37901  23.644   8.838   3.784
78641W        W37902  31.013  18.664  13.374
78642W        W37903  33.453   1.243  12.033
78643W        W37904  44.467  42.476  13.367
78644W        W37905  13.791  14.334   2.402
78645W        W37906  20.158  24.080   4.338
78646W        W37907  21.596  33.881  11.936
78647W        W37908  44.999  26.986   4.620
78648W        W37909  41.442   3.752   4.601
78649W        W37910   3.366  18.195  11.973
78650W        W37911  29.668  19.775  11.090
78651W        W37912   9.828   5.271  14.416
78652W        W37913   1.310  19.160  13.852
78653W        W37914  18.547  44.432  13.416
78654W        W37915  19.754  34.898   5.225
78655W        W37916  20.613  42.807   3.725
78656W        W37917  34.587  18.648  11.979
78657W        W37918  13.830  42.988  11.081
78658W        W37919  20.218  40.447   2.695
78659W        W37920  27.967  32.118  10.620
78660W        W37921  15.716  20.066   5.206
78661W        W37922  35.458  26.541   4.254
78662W        W37923  25.218   1.971  12.844
78663W        W37924  28.056  42.496   0.473
78664W        W37925  33.035  18.664  10.513
78665W        W37926   0.329  29.592   3.868
78666W        W37927  41.423  20.655  13.906
78667W        W37928  10.256  35.375   0.242
78668W        W37929   9.245  31.141  10.434
78669W        W37930  14.615  36.074   2.356
78670W        W37931  38.427   4.239   0.255
78671W        W37932  10.633  21.629  13.438
78672W        W37933  29.435   3.272  11.910
78673W        W37934   4.801  10.271  14.978
78674W        W37935  20.700   1.830  13.043
78675W        W37936   5.737  18.690   3.147
78676W        W37937  36.473  19.573  14.843
78677W        W37938  43.949  39.339   4.629
78678W        W37939  32.457  18.139   4.248
78679W        W37940  31.440  40.348  10.592
78680W        W37941  14.275  20.665   0.455
78681W        W37942   5.341  13.349   2.307
78682W        W37943  34.532  37.387  13.970
78683W        W37944  42.010   0.902  13.407
78684W        W37945  37.857  44.894  11.525
78685W        W37946   1.747  38.031  10.614
78686W        W37947  22.182  31.631  12.043
78687W        W37948  29.980  41.007   3.251
78688W        W37949  16.652  43.486   2.800
78689W        W37950  37.862   7.727  11.052
78690W        W37951  31.482  31.611  12.572
78691W        W37952   1.264  24.651   0.804
78692W        W37953   9.664  18.156  14.774
78693W        W37954   4.262  38.823   1.889
78694W        W37955  41.033   2.932  12.908
78695W        W37956  19.043   7.315   0.315
78696W        W37957  41.318  22.503  12.957
78697W        W37958  13.337  40.824  10.428
78698W        W37959  13.770  31.547  14.311
78699W        W37960  44.388  25.543  14.337
78700W        W37961  10.173  44.395   1.233
78701W        W37962  22.675  21.700  11.933
78702W        W37963  12.336   3.450   0.808
78703W        W37964  44.872  39.028  10.419
78704W        W37965  39.921   0.419  14.802
78705W        W37966  21.156  30.091  14.776
78706W        W37967  19.656   1.239  10.465
78707W        W37968   8.829  30.080   1.334
78708W        W37969   9.175  25.700   4.703
78709W        W37970  17.061  31.485   3.726
78710W        W37971  15.713  25.511  13.861
78711W        W37972   8.658  14.631   3.740
78712W        W37973  34.864  39.552   0.942
78713W        W37974  28.676   9.301  14.995
78714W        W37975  40.953  30.154  10.071
78715W        W37976  29.112  21.090   4.752
78716W        W37977  25.989   9.800  11.008
78717W        W37978  22.056   9.830  13.960
78718W        W37979   4.330  38.552   4.709
78719W        W37980   3.346  34.976   0.858
78720W        W37981  11.254  25.684  11.469
78721W        W37982  25.714   7.416   4.289
78722W        W37983  17.771   1.304  14.915
78723W        W37984  27.127  26.979  13.529
78724W        W37985  28.950  35.905  11.385
78725W        W37986  11.841  31.558   0.858
78726W        W37987  16.096  30.113   0.851
78727W        W37988  19.751   1.421   0.360
78728W        W37989  14.132  37.517   2.878
78729W        W37990   8.259  11.793  12.969
78730W        W37991  37.899   1.928  14.508
78731W        W37992  40.519  10.816  14.280
78732W        W37993  40.311   8.284  14.389
78733W        W37994  39.493  24.090  13.808
78734W        W37995  31.642   2.464   1.231
78735W        W37996  28.961  12.268  11.540
78736W        W37997  39.359  28.082   1.885
78737W        W37998  36.425  32.632  10.949
78738W        W37999   9.321   0.288  11.425
78739W        W38000   1.757  36.046  12.936
78740W        W38001   3.813  19.205  13.486
78741W        W38002  20.765  15.643  12.548
78742W        W38003  23.041  42.505   0.902
78743W        W38004  35.578   1.352  13.793
78744W        W38005  26.660   1.343  13.342
78745W        W38006  13.162  11.369  14.344
78746W        W38007   7.275  20.542  14.854
78747W        W38008  24.590   0.281   2.317
78748W        W38009  15.202  38.570  12.866
78749W        W38010  10.254  29.667  11.038
78750W        W38011  10.759  26.565  13.390
78751W        W38012  15.694  22.647  14.382
78752W        W38013  13.290  17.194  12.924
78753W        W38014  18.732  11.806  10.905
78754W        W38015  23.588  41.315  10.890
78755W        W38016  43.283  24.715  11.021
78756W        W38017   9.335  35.927  12.433
78757W        W38018  39.486  28.177  14.803
78758W        W38019  24.095   2.842   1.404
78759W        W38020  44.863  27.148  13.368
78760W        W38021   1.364  42.936   3.221
78761W        W38022  12.739  15.257  11.125
78762W        W38023  43.355  13.838  12.548
78763W        W38024  34.380  28.435   2.754
78764W        W38025  15.124  29.074   0.872
78765W        W38026  10.750  44.417   1.376
78766W        W38027  23.091  15.324  12.933
78767W        W38028  14.339  17.200  12.555
78768W        W38029  24.669   2.769  14.509
78769W        W38030   6.788  17.271   3.771
78770W        W38031  31.580  10.837   1.365
78771W        W38032  14.107  27.116  12.040
78772W        W38033  18.057  24.597   3.831
78773W        W38034  40.907   0.392   3.304
78774W        W38035  40.970  37.035   0.357
78775W        W38036  25.008   3.764  12.451
78776W        W38037  42.284  10.197   4.693
78777W        W38038   8.200  31.009   4.668
78778W        W38039  25.154  35.956  12.949
78779W        W38040  18.604   1.315   1.432
78780W        W38041   3.840  21.659  11.410
78781W        W38042  35.382  11.350  11.385
78782W        W38043   9.288   6.366  14.903
78783W        W38044   6.301  31.552   2.349
78784W        W38045   9.233  24.536  12.478
78785W        W38046  22.220  42.976  12.997
78786W        W38047  32.127   1.878  11.044
78787W        W38048  18.714   5.221   3.871
78788W        W38049  10.855  37.071  10.525
78789W        W38050  37.542  26.964  13.425
78790W        W38051  25.594  31.077   0.349
78791W        W38052   2.439   3.342  13.545
78792W        W38053  32.096   4.728  13.853
78793W        W38054  11.794  44.920  13.020
78794W        W38055   9.687  32.110   0.413
78795W        W38056  14.108  18.747  13.800
78796W        W38057  40.410  20.577   3.751
78797W        W38058  12.743   4.291  12.836
78798W        W38059   3.262   3.264  13.844
78799W        W38060   1.832  13.211  11.913
78800W        W38061  24.606   0.871   1.443
78801W        W38062  40.948   8.396   0.374
78802W        W38063   7.721   8.194   4.634
78803W        W38064  36.905  34.042  12.862
78804W        W38065  11.222  29.042   3.734
78805W        W38066  12.310  23.736  11.387
78806W        W38067   0.393  22.718   4.652
78807W        W38068  32.407  40.877   4.340
78808W        W38069  37.065  26.119   0.243
78809W        W38070   3.442  33.012  13.930
78810W        W38071   5.899  28.064   2.392
78811W        W38072  41.825  15.607   1.887
78812W        W38073  37.377  34.941   1.297
78813W        W38074  29.972  19.247  13.001
78814W        W38075   7.730  32.128   4.309
78815W        W38076  42.291   4.245  14.770
78816W        W38077  36.965  40.490  13.898
78817W        W38078  12.826  18.259  11.923
78818W        W38079  16.101  25.617   2.723
78819W        W38080  14.214  42.492   1.291
78820W        W38081  15.809  39.555   3.183
78821W        W38082  41.389  12.221  14.958
78822W        W38083  22.248  10.138   4.809
78823W        W38084  44.812  13.780  13.332
78824W        W38085  28.578   0.379   2.674
78825W        W38086  31.608  38.524   0.366
78826W        W38087  25.167  32.635   3.841
78827W        W38088  22.712  24.666  11.976
78828W        W38089  18.717  21.606   4.299
78829W        W38090  32.599  23.139  13.344
78830W        W38091  41.524  31.966   4.156
78831W        W38092  34.611   4.410   0.303
78832W        W38093  34.097  27.978  11.502
78833W        W38094  10.164  10.859  10.413
78834W        W38095   0.839   2.829   1.443
78835W        W38096  41.964  35.083  13.817
78836W        W38097  29.150  36.513  14.948
78837W        W38098  25.115   8.172   2.281
78838W        W38099  38.361  26.116  14.502
78839W        W38100  19.567  25.993  11.433
78840W        W38101  34.989  27.177   3.653
78841W        W38102  23.641  15.626   1.905
78842W        W38103  31.647  29.476   4.810
78843W        W38104   1.800  23.523  14.806
78844W        W38105  39.330  26.999   4.750
78845W        W38106  32.441  14.324  12.435
78846W        W38107  10.342  22.194  12.994
78847W        W38108  16.784  38.552   1.765
78848W        W38109   5.867  30.982   4.610
78849W        W38110   9.687   2.385   2.878
78850W        W38111  17.273  43.810   1.754
78851W        W38112  38.325  31.571   0.773
78852W        W38113  17.660  40.375   4.832
78853W        W38114   2.280  11.204   1.925
78854W        W38115  41.470  16.719   0.793
78855W        W38116  10.258   2.287  12.400
78856W        W38117  31.054   2.891   0.345
78857W        W38118  37.921  23.684  12.423
78858W        W38119   8.195  34.609   4.829
78859W        W38120  23.616  28.567   3.212
78860W        W38121  35.104   8.834   2.713
78861W        W38122  18.208  39.018  10.577
78862W        W38123   3.414  13.762  11.947
78863W        W38124  13.318   8.258   2.376
78864W        W38125   8.742  44.397   3.714
78865W        W38126   9.262  38.359   1.716
78866W        W38127   4.303  32.072   9.960
78867W        W38128  18.615  18.572  13.815
78868W        W38129  30.611   4.356   3.679
78869W        W38130  44.327  43.909  14.494
78870W        W38131   3.849  27.063   4.218
78871W        W38132  36.449   3.358  13.527
78872W        W38133  10.191  31.627   1.871
78873W        W38134  35.041  13.340   5.167
78874W        W38135   6.419  17.599  13.835
78875W        W38136   7.910  14.168   2.759
78876W        W38137  36.368  31.025  14.983
78877W        W38138   7.882   3.304  13.937
78878W        W38139   3.813  24.102   4.138
78879W        W38140  33.620  25.971   0.841
78880W        W38141  33.542  43.956   0.400
78881W        W38142  30.067  26.128  14.803
78882W        W38143  44.493  13.700   3.658
78883W        W38144  28.529  13.727   0.785
78884W        W38145  31.009  31.944  12.992
78885W        W38146  15.088  34.992   2.848
78886W        W38147  33.399  15.174  13.414
78887W        W38148  11.780  30.620  12.566
78888W        W38149  30.975  11.659  10.133
78889W        W38150  44.859   6.376  13.341
78890W        W38151  40.504  29.510  12.578
78891W        W38152  42.947  19.217  12.498
78892W        W38153   1.790  42.012   3.296
78893W        W38154  23.213  38.357  12.420
78894W        W38155  27.960   1.328   2.206
78895W        W38156   2.471   5.295   2.222
78896W        W38157  28.518   0.317   5.285
78897W        W38158  26.125   7.316   2.843
78898W        W38159  10.383  13.216  14.415
78899W        W38160  24.171   6.181   4.237
78900W        W38161  22.997   1.793  12.499
78901W        W38162  35.519  24.112  11.006
78902W        W38163  24.173  20.078  10.612
78903W        W38164  19.255  33.604   1.792
78904W        W38165  27.973  14.699  11.014
78905W        W38166  39.545   4.213  14.501
78906W        W38167  16.156   6.419  14.977
78907W        W38168  31.011   5.769   0.469
78908W        W38169   0.302  30.124   1.733
78909W        W38170  26.481  17.184  10.485
78910W        W38171  24.633  30.157  10.925
78911W        W38172   6.210  13.729  11.587
78912W        W38173  23.067  40.863   2.757
78913W        W38174  26.082   5.395   1.745
78914W        W38175  15.785  10.836   3.149
78915W        W38176  27.991  11.762  14.338
78916W        W38177  19.260  32.482  10.485
78917W        W38178   1.734   1.308   1.797
78918W        W38179  27.007  32.473   3.365
78919W        W38180  37.045  27.956   2.882
78920W        W38181   6.810  25.681   1.777
78921W        W38182  43.872  38.469   2.292
78922W        W38183  38.378  30.993   4.830
78923W        W38184  43.455  36.498   5.187
78924W        W38185  41.792  24.693   9.593
78925W        W38186  14.204  30.647  14.825
78926W        W38187  18.069  32.913  12.051
78927W        W38188  17.096  44.401   3.667
78928W        W38189  33.529  14.136   3.795
78929W        W38190   2.868   7.358  14.986
78930W        W38191  29.641  44.369  13.469
78931W        W38192  43.888  12.346   4.145
78932W        W38193  39.379  21.581   2.287
78933W        W38194   0.785   9.166  14.796
78934W        W38195  38.841  44.304  12.509
78935W        W38196  27.512  27.513   4.763
78936W        W38197  39.413   5.815   3.267
78937W        W38198  13.627   4.782   3.825
78938W        W38199   9.833  14.692  12.853
78939W        W38200   6.190  15.266  11.379
78940W        W38201  24.622  32.025  12.079
78941W        W38202  38.529   5.396  10.463
78942W        W38203  11.355  16.786   3.283
78943W        W38204   8.654   7.369  12.918
78944W        W38205   8.334   9.692   0.841
78945W        W38206   9.227  25.993   4.699
78946W        W38207   5.387  33.892  14.375
78947W        W38208  16.112   5.221   2.705
78948W        W38209  16.684  27.477   2.307
78949W        W38210  32.450  24.497  14.851
78950W        W38211  21.567  24.990   5.286
78951W        W38212  16.304  36.068  13.543
78952W        W38213   1.892  41.381   0.910
78953W        W38214  15.261  41.902   3.655
78954W        W38215  12.282  29.984   0.764
78955W        W38216  33.532   2.755  11.580
78956W        W38217   8.321   5.281  14.427
78957W        W38218  31.044  41.845  12.032
78958W        W38219  30.148  16.598  11.087
78959W        W38220  18.563  23.053   2.717
78960W        W38221  32.597  12.782   5.310
78961W        W38222   9.664  24.511  11.106
78962W        W38223  22.626  13.761   3.324
78963W        W38224  28.490  33.122  13.843
78964W        W38225  41.445  20.669   0.284
78965W        W38226  44.313   0.322   3.639
78966W        W38227  24.162  16.246  12.555
78967W        W38228  39.908   6.711  11.538
78968W        W38229  40.357   5.237   2.217
78969W        W38230  16.270  33.412   1.920
78970W        W38231  41.337  21.543   2.360
78971W        W38232  41.457  23.011  14.324
78972W        W38233  15.301  34.462  14.873
78973W        W38234  18.163  38.367  13.532
78974W        W38235  15.120  25.566  13.414
78975W        W38236  13.110   0.806  10.535
78976W        W38237  28.614  23.625   2.735
78977W        W38238  34.873  26.105   1.256
78978W        W38239  35.001  11.705  13.904
78979W        W38240   0.769  17.228   4.786
78980W        W38241  37.841  17.703   1.328
78981W        W38242  11.647   9.174  10.463
78982W        W38243  21.106  27.499   0.276
78983W        W38244   6.222  30.053  13.882
78984W        W38245  41.853  31.923  14.020
78985W        W38246  40.430  41.451  11.570
78986W        W38247  24.692  20.715  11.869
78987W        W38248  31.925  40.823  10.623
78988W        W38249  28.487  35.859   2.671
78989W        W38250  12.670  24.507   0.895
78990W        W38251  35.537  16.593   1.313
78991W        W38252  39.910  31.572   1.277
78992W        W38253  36.045   2.885   2.761
78993W        W38254   8.740  30.114  11.017
78994W        W38255  22.534  32.426   5.588
78995W        W38256  38.341  35.099  11.061
78996W        W38257   4.854  40.844  10.147
78997W        W38258  43.796  11.635   0.928
78998W        W38259   3.723   4.254  13.982
78999W        W38260   9.844  14.780  13.366
79000W        W38261  29.619  44.357  10.082
79001W        W38262  29.465  32.621  10.597
79002W        W38263  43.464  22.604   2.801
79003W        W38264  14.232  18.764  10.643
79004W        W38265  19.669  31.563  12.033
79005W        W38266  19.767  25.689  13.409
79006W        W38267  20.122   7.298   1.889
79007W        W38268  11.208  12.830   3.870
79008W        W38269  41.004  37.396  12.019
79009W        W38270  39.477  30.425  11.999
79010W        W38271   4.886  18.550  14.277
79011W        W38272  24.616  35.962  13.986
79012W        W38273  34.419  23.662  13.954
79013W        W38274  41.020  31.573   3.147
79014W        W38275   7.730  26.093   1.866
79015W        W38276  22.160  33.424  12.035
79016W        W38277  43.016   1.743   0.759
79017W        W38278  41.936  14.208   1.804
79018W        W38279  26.585  23.652  13.547
79019W        W38280  20.136  21.706  11.392
79020W        W38281  42.813  20.530   2.671
79021W        W38282  17.074  35.603  10.504
79022W        W38283  19.593  44.412   2.257
79023W        W38284  29.488  19.711  12.406
79024W        W38285  43.299  40.799   3.820
79025W        W38286  18.603   4.804   4.623
79026W        W38287   5.798  24.089  13.840
79027W        W38288  38.472  38.445   0.390
79028W        W38289  14.284  15.714  12.937
79029W        W38290  11.216  16.740   3.736
79030W        W38291  35.986  35.597  11.107
79031W        W38292  31.514  31.564  11.925
79032W        W38293  38.994   3.390   1.694
79033W        W38294  37.047   3.452   1.805
79034W        W38295  44.979  44.943  13.836
79035W        W38296  24.973  17.557  11.093
79036W        W38297  37.381  20.212   1.319
79037W        W38298  43.996   7.277   0.295
79038W        W38299  18.750  29.982  12.432
79039W        W38300  24.218  43.001  14.308
79040W        W38301   2.804  32.137  13.968
79041W        W38302  16.240  18.164   3.193
79042W        W38303  20.701  42.784   4.150
79043W        W38304   4.773   8.375   4.615
79044W        W38305  13.269  33.397   4.128
79045W        W38306   9.823  30.137   1.929
79046W        W38307   2.922  15.651  13.516
79047W        W38308  25.962  31.445  13.408
79048W        W38309   1.848  14.780  11.069
79049W        W38310  17.175  15.155   2.767
79050W        W38311  26.636  11.778  11.612
79051W        W38312  19.116   9.393  11.053
79052W        W38313  17.699  19.744  13.814
79053W        W38314  41.458  15.774   5.735
79054W        W38315  29.131  25.703  11.950
79055W        W38316  11.319   2.955  14.890
79056W        W38317  15.588  10.641  14.888
79057W        W38318  18.669  41.937   4.618
79058W        W38319  16.577  24.618  13.942
79059W        W38320  15.774  32.441  11.585
79060W        W38321  24.191  22.168  10.908
79061W        W38322  23.668   2.334   3.660
79062W        W38323  32.572  25.687  11.391
79063W        W38324  42.825  21.742   9.928
79064W        W38325  24.536  26.558   2.861
79065W        W38326  38.398  17.297   4.755
79066W        W38327  43.295  18.628  12.962
79067W        W38328  10.212  13.252  11.524
79068W        W38329  25.182  26.141  10.996
79069W        W38330   0.882  26.662   5.110
79070W        W38331  36.396  30.024   3.270
79071W        W38332  21.694   2.410   2.196
79072W        W38333  25.125  16.170   0.358
79073W        W38334   0.921  25.507  14.959
79074W        W38335  38.532  44.805   2.234
79075W        W38336  44.935  44.331   2.770
79076W        W38337   8.229   8.890   4.747
79077W        W38338   7.802  31.057   0.766
79078W        W38339   3.809   6.258   3.813
79079W        W38340   9.670  14.825   1.232
79080W        W38341   7.360   4.354  11.484
79081W        W38342  29.574   2.796  12.365
79082W        W38343  16.293  39.315  11.551
79083W        W38344  14.748  40.457   0.293
79084W        W38345  29.065  22.736  11.088
79085W        W38346  29.441  28.153  13.366
79086W        W38347  40.342  44.967  10.962
79087W        W38348  25.692  16.252   2.187
79088W        W38349  10.730  29.951   0.899
79089W        W38350  22.134  18.184  12.007
79090W        W38351   2.891  14.697   4.267
79091W        W38352   7.241   4.861  14.413
79092W        W38353  42.860  24.183   3.147
79093W        W38354  39.375   6.264  10.452
79094W        W38355  19.063  23.139  14.859
79095W        W38356  13.612   7.359  10.098
79096W        W38357   6.714  16.644   1.698
79097W        W38358  28.090  37.577  12.976
79098W        W38359  36.581  24.997   2.311
79099W        W38360  41.861  21.523   0.347
79100W        W38361  23.088  12.678  10.952
79101W        W38362  29.946  23.015   3.372
79102W        W38363   4.237  28.457   2.186
79103W        W38364  29.942  11.199   0.739
79104W        W38365  37.526  13.292   4.603
79105W        W38366  30.471  41.375   2.217
79106W        W38367   4.890   6.298   3.698
79107W        W38368   4.833  15.220  10.453
79108W        W38369  41.912  19.138   0.778
79109W        W38370  11.766  32.051   4.283
79110W        W38371  33.616  27.168  10.610
79111W        W38372  24.592  15.274   3.839
79112W        W38373  42.985   0.262  11.877
79113W        W38374  12.227  12.733  12.088
79114W        W38375   1.257  41.503   0.828
79115W        W38376   4.232   3.258  12.578
79116W        W38377  24.586  33.005   4.310
79117W        W38378  32.005  11.683  11.910
79118W        W38379  14.230  44.284  12.994
79119W        W38380  18.755   4.891   1.372
79120W        W38381   0.284  13.310  12.467
79121W        W38382  29.593  22.064  14.337
79122W        W38383  43.440  37.354   3.635
79123W        W38384  15.172  29.535   1.394
79124W        W38385   0.940  15.641  10.107
79125W        W38386  19.166   5.211   2.255
79126W        W38387  32.896  38.509  14.409
79127W        W38388  17.738  11.806  11.372
79128W        W38389   9.209  23.529  14.515
79129W        W38390  14.168  21.546   3.217
79130W        W38391   0.975  31.934   4.621
79131W        W38392  26.635   6.381   3.261
79132W        W38393  28.000  36.025   3.827
79133W        W38394  44.350   1.281  11.390
79134W        W38395   3.856   5.779   3.664
79135W        W38396  25.180   3.815   1.730
79136W        W38397   8.389   4.413  14.327
79137W        W38398  25.963  20.133   4.174
79138W        W38399  23.035  13.273   3.679
79139W        W38400  18.703  26.654   4.640
79140W        W38401  38.418  35.527  12.570
79141W        W38402  30.977  25.624  14.806
79142W        W38403  13.715  37.031  12.431
79143W        W38404   9.181  19.751  11.018
79144W        W38405  12.676  42.891  13.397
79145W        W38406  13.168   2.397   2.412
79146W        W38407  32.568  41.305  11.917
79147W        W38408  29.016  26.693   2.232
79148W        W38409  29.032  16.655   0.804
79149W        W38410  34.887  39.476  14.933
79150W        W38411  21.071   8.720  13.541
79151W        W38412  33.010  35.960  14.329
79152W        W38413  22.132  10.803   3.801
79153W        W38414  39.340  26.118  14.822
79154W        W38415  14.101  13.782   4.232
79155W        W38416   1.366   7.305  13.497
79156W        W38417   7.282  24.166  13.352
79157W        W38418   5.264   0.868   2.727
79158W        W38419  18.628  15.672   0.740
79159W        W38420  18.782  36.482   2.232
79160W        W38421  40.993  30.560  12.563
79161W        W38422  34.082  17.181  13.995
79162W        W38423  20.644   9.173  14.499
79163W        W38424  39.387  11.358  11.126
79164W        W38425  42.974  28.569   0.463
79165W        W38426   1.739   8.312  13.544
79166W        W38427  22.633  17.270  13.354
79167W        W38428  41.419   4.399   4.313
79168W        W38429  43.901  30.974  11.374
79169W        W38430  28.181  32.486  11.028
79170W        W38431   8.742  13.639  10.426
79171W        W38432   3.421   6.189   5.250
79172W        W38433   3.431  38.444   0.910
79173W        W38434  19.639   0.832   3.192
79174W        W38435  35.956   1.806   0.776
79175W        W38436  22.087  38.062  11.443
79176W        W38437  29.543  40.483   3.345
79177W        W38438   4.243  38.564  12.534
79178W        W38439   8.861  24.172   1.301
79179W        W38440  40.818  36.484  12.398
79180W        W38441  23.181  25.070  10.923
79181W        W38442  25.469  17.292   4.206
79182W        W38443  33.569  13.644   4.733
79183W        W38444   0.969   3.285   3.630
79184W        W38445  22.115   7.274  13.014
79185W        W38446  12.147  26.090  13.406
79186W        W38447   9.775  33.915   2.805
79187W        W38448  42.485  10.321   0.363
79188W        W38449  20.175  14.730   3.377
79189W        W38450  41.838  31.530   0.755
79190W        W38451  14.725  15.280   0.762
79191W        W38452  39.853  18.233  12.367
79192W        W38453  25.135  16.161   1.402
79193W        W38454  12.727   4.773   4.321
79194W        W38455  33.419   4.287   0.475
79195W        W38456  16.790  12.282   4.603
79196W        W38457  10.803  30.100  14.811
79197W        W38458  19.080   5.817  12.872
79198W        W38459  10.304  40.978  11.548
79199W        W38460  12.138   0.309   4.182
79200W        W38461  15.149  25.520   2.238
79201W        W38462   2.293  17.158  12.006
79202W        W38463  32.066  18.162   2.201
79203W        W38464   1.777  23.665  12.924
79204W        W38465   8.676  14.608  10.582
79205W        W38466  24.626  33.881  14.294
79206W        W38467  18.056   0.482   4.776
79207W        W38468  41.306   7.769   2.663
79208W        W38469  28.967  35.465   2.213
79209W        W38470  17.759  16.781  13.326
79210W        W38471  34.547   5.801  11.123
79211W        W38472  19.654  10.138   5.086
79212W        W38473  17.566   7.311  13.442
79213W        W38474  33.106   6.855  13.419
79214W        W38475  35.456  27.601   3.242
79215W        W38476  44.848   8.877  13.884
79216W        W38477  36.347   8.661   0.932
79217W        W38478  35.074  21.232  12.874
79218W        W38479   2.419  28.631   3.753
79219W        W38480  40.942  28.127   4.186
79220W        W38481  28.158  37.468   0.348
79221W        W38482  11.785   9.258  14.359
79222W        W38483  32.896   5.744  10.458
79223W        W38484  38.391  13.736   2.417
79224W        W38485  44.372   9.673  13.359
79225W        W38486  20.731   0.313   3.715
79226W        W38487  27.084  44.844   3.670
79227W        W38488  11.797  30.540  13.512
79228W        W38489   8.712  41.342   0.934
79229W        W38490  36.529   0.840  11.971
79230W        W38491  36.354  26.991   2.819
79231W        W38492  24.631  42.364  12.033
79232W        W38493  34.880   2.903  12.428
79233W        W38494   8.398  39.383   4.797
79234W        W38495  22.999  44.954  14.292
79235W        W38496  32.407   0.485  14.856
79236W        W38497  13.774  36.863   0.248
79237W        W38498   7.843  43.302  14.014
79238W        W38499  14.794  41.968   3.682
79239W        W38500  25.173  13.138  14.436
79240W        W38501  15.316   2.383   3.810
79241W        W38502  35.859  38.344  13.830
79242W        W38503  16.202  24.688   1.241
79243W        W38504   7.300   0.818  14.365
79244W        W38505   4.713  27.471  10.434
79245W        W38506  35.474   3.820  12.528
79246W        W38507   7.376   9.848   3.768
79247W        W38508   4.917  43.006  12.013
79248W        W38509  34.938  27.169   4.703
79249W        W38510  26.038  19.092   0.465
79250W        W38511  25.670  37.909   0.907
79251W        W38512  36.095  12.175   0.813
79252W        W38513   3.360  22.517   0.856
79253W        W38514  25.117  41.350  14.960
79254W        W38515  23.105  24.564  13.514
79255W        W38516  42.337  23.506   1.825
79256W        W38517  33.076  23.041  11.559
79257W        W38518  36.558  16.766  13.950
79258W        W38519  40.433   9.710   1.700
79259W        W38520  30.489   0.810   1.830
79260W        W38521   5.924  23.034   2.304
79261W        W38522  12.322  20.040   4.674
79262W        W38523  11.696  43.516  14.356
79263W        W38524  25.067  43.314   5.294
79264W        W38525  40.855  33.428   5.262
79265W        W38526  44.933  23.687  14.002
79266W        W38527   9.696  41.867   4.795
79267W        W38528  17.779   1.797  12.863
79268W        W38529  10.337  11.656   0.261
79269W        W38530  43.983  14.288   2.891
79270W        W38531  21.058  26.543   0.416
79271W        W38532  12.620   7.715   1.727
79272W        W38533  22.244  20.083   0.849
79273W        W38534  33.972  24.168   1.359
79274W        W38535  25.514  16.123  10.981
79275W        W38536  12.819  40.916  14.816
79276W        W38537  19.179  40.966  12.911
79277W        W38538  10.238  40.518   2.213
79278W        W38539  21.036  25.619   4.659
79279W        W38540  19.590  27.973   3.324
79280W        W38541  38.342  26.497   3.348
79281W        W38542  43.342  23.148   4.600
79282W        W38543  26.195  24.639  14.796
79283W        W38544   2.851  11.228   2.874
79284W        W38545  36.573  22.039  11.010
79285W        W38546  33.543  39.529   3.291
79286W        W38547  18.658   0.406  13.815
79287W        W38548   2.294  11.799   0.837
79288W        W38549  22.699   0.333   1.232
79289W        W38550   9.196  28.128   2.874
79290W        W38551  14.648  19.056  14.320
79291W        W38552  28.016  13.738  10.530
79292W        W38553  41.503   0.481  11.010
79293W        W38554  25.520  23.615  12.915
79294W        W38555  27.985  27.988   3.830
79295W        W38556  31.605  35.891   3.818
79296W        W38557   8.214   8.297  14.301
79297W        W38558  17.708  36.489   4.765
79298W        W38559  12.343   8.728   3.701
79299W        W38560  27.997   2.919  14.787
79300W        W38561   4.771  42.520   4.257
79301W        W38562   0.374  29.165   2.732
79302W        W38563  33.389  23.197   0.966
79303W        W38564  28.672  17.632  10.945
79304W        W38565   7.219  24.568   4.660
79305W        W38566  15.180  12.216   1.214
79306W        W38567  17.731  17.670   1.428
79307W        W38568   5.404  24.582   3.697
79308W        W38569   9.814  41.418  10.409
79309W        W38570   7.319   3.728   9.946
79310W        W38571  25.165   9.239  12.439
79311W        W38572  33.498  27.989  14.880
79312W        W38573  43.876  10.762   1.888
79313W        W38574   3.767  35.439   1.363
79314W        W38575  12.654  37.488  13.541
79315W        W38576  21.606  43.435  13.936
79316W        W38577   3.419  40.438  10.520
79317W        W38578  15.305  32.085  12.073
79318W        W38579  43.281   7.291  10.454
79319W        W38580  40.950   8.859   5.130
79320W        W38581  37.961  41.476   0.734
79321W        W38582  27.471  18.636  14.355
79322W        W38583  20.583   8.881   0.825
79323W        W38584   2.313  10.825   2.723
79324W        W38585  21.024  11.250   1.348
79325W        W38586  38.475  10.289   1.430
79326W        W38587   5.355   4.404   2.793
79327W        W38588  33.131   5.834   5.197
79328W        W38589   9.819  41.478  11.949
79329W        W38590  37.831  35.891   2.352
79330W        W38591  22.565   4.894  14.861
79331W        W38592  33.932  26.070   2.361
79332W        W38593  31.556  27.070   4.744
79333W        W38594  25.969   4.379   1.276
79334W        W38595   2.916  39.344   1.391
79335W        W38596   4.896  39.937  12.049
79336W        W38597   3.372  44.474  14.473
79337W        W38598  24.574  23.731  10.450
79338W        W38599  38.823  37.396  12.557
79339W        W38600  37.915  42.971  14.488
79340W        W38601  33.904  36.888   3.635
79341W        W38602  23.050  10.357  10.450
79342W        W38603   8.677  14.719  13.359
79343W        W38604  18.601  31.986   4.292
79344W        W38605  34.916  41.834  14.775
79345W        W38606  12.294  28.605   1.812
79346W        W38607  19.268   2.247  12.077
79347W        W38608  39.023  41.985   4.633
79348W        W38609  15.707  41.996   2.662
79349W        W38610   4.819   5.907   1.698
79350W        W38611  14.220  41.378   4.659
79351W        W38612  28.435  28.011  10.925
79352W        W38613  24.201  23.506  14.902
79353W        W38614  44.818  19.075   4.223
79354W        W38615   3.428  39.485  13.360
79355W        W38616  32.945  31.945  10.467
79356W        W38617  17.200  22.143   2.790
79357W        W38618   4.810  30.975  12.894
79358W        W38619   2.840  41.808   2.878
79359W        W38620   1.734  25.146   1.321
79360W        W38621  22.746  10.801  12.351
79361W        W38622  21.079  44.343  12.381
79362W        W38623  27.627  13.351   0.862
79363W        W38624  24.069   4.844  10.146
79364W        W38625  15.257   0.885  13.832
79365W        W38626   4.333  43.408  11.420
79366W        W38627  40.533   4.380  12.355
79367W        W38628  28.551  25.535   2.825
79368W        W38629  10.653  43.417  12.931
79369W        W38630   2.327  15.687   9.948
79370W        W38631  13.711  23.577  10.463
79371W        W38632  14.611  37.488  10.424
79372W        W38633  30.065   9.364   0.261
79373W        W38634  20.160  43.803   0.460
79374W        W38635   6.838  38.863  14.385
79375W        W38636  37.486   9.305   1.896
79376W        W38637  32.912   5.824   1.857
79377W        W38638  36.037  24.191   1.282
79378W        W38639  25.083  17.614   3.207
79379W        W38640  33.084   9.241   1.437
79380W        W38641  24.563  20.610  13.315
79381W        W38642  35.080  17.650   4.728
79382W        W38643  18.754  24.115   4.723
79383W        W38644  23.165  23.166   3.358
79384W        W38645  27.517  18.228  12.509
79385W        W38646  14.141  27.141  14.763
79386W        W38647   5.404  22.221  13.367
79387W        W38648   5.347  38.397   0.890
79388W        W38649  34.542  21.195  13.886
79389W        W38650   7.189  44.402   5.168
79390W        W38651  11.234  14.314   1.232
79391W        W38652  36.943   1.895   4.784
79392W        W38653   4.874  10.755  10.949
79393W        W38654  32.533  43.455  14.357
79394W        W38655   2.277   3.363  10.450
79395W        W38656  21.641  12.793  12.400
79396W        W38657  41.342  29.585  14.397
79397W        W38658   6.837   9.314   4.139
79398W        W38659  31.920  36.588  11.478
79399W        W38660  28.668  35.361   1.833
79400W        W38661  15.619  21.738  13.802
79401W        W38662  21.249  19.716   3.667
79402W        W38663   9.759  24.525  10.525
79403W        W38664  27.092  31.984  12.913
79404W        W38665  30.161  15.187   2.681
79405W        W38666  31.592  12.795  11.105
79406W        W38667  15.715   6.199  12.885
79407W        W38668  19.605   1.791  10.616
79408W        W38669  40.334  30.108   2.326
79409W        W38670  27.582  25.545   0.933
79410W        W38671  34.972  22.730   1.923
79411W        W38672  27.598  36.017   3.224
79412W        W38673  30.009  13.112  11.864
79413W        W38674  32.897   3.230   0.752
79414W        W38675   0.974   6.780   1.389
79415W        W38676  40.894  13.841   5.313
79416W        W38677   2.921  34.444   2.362
79417W        W38678  32.965  34.891  11.611
79418W        W38679  13.762  18.582   3.735
79419W        W38680  27.108  28.114   4.645
79420W        W38681  39.905  25.090  12.853
79421W        W38682  31.131  36.470   3.283
79422W        W38683  28.455  22.600   4.189
79423W        W38684   8.344  21.731   0.950
79424W        W38685  26.134  37.345  12.023
79425W        W38686  33.410  41.904   1.231
79426W        W38687  18.172  44.913   3.813
79427W        W38688   4.813  22.197   0.367
79428W        W38689  13.605  21.545  11.609
79429W        W38690  37.881  27.048  13.371
79430W        W38691   5.391  13.284  11.081
79431W        W38692  26.682   3.333  11.127
79432W        W38693  33.549  26.502  13.337
79433W        W38694  30.532   0.876  11.448
79434W        W38695  37.893  34.610  12.415
79435W        W38696  19.752   5.208  14.931
79436W        W38697  41.518  21.031   4.715
79437W        W38698  32.026  16.236  14.345
79438W        W38699  10.282   4.729  11.881
79439W        W38700  42.881  32.464   4.294
79440W        W38701  32.123  42.294  11.440
79441W        W38702  13.688  19.756  13.355
79442W        W38703  11.314  22.665   0.802
79443W        W38704  28.177  12.184  11.436
79444W        W38705   9.886  36.945  13.331
79445W        W38706  23.164  16.711  12.529
79446W        W38707  30.944   9.782   2.271
79447W        W38708  34.044  24.216  11.896
79448W        W38709  19.715  16.702   0.431
79449W        W38710  35.585   9.884   2.416
79450W        W38711  14.775  38.558   0.244
79451W        W38712  22.570   6.803   0.435
79452W        W38713  29.172   2.295  12.566
79453W        W38714  21.647  21.603   0.879
79454W        W38715  39.472  29.428  12.551
79455W        W38716   7.834   1.310   2.875
79456W        W38717  15.650  13.203   0.465
79457W        W38718  18.229   9.705  11.592
79458W        W38719   4.771   6.879  11.975
79459W        W38720  32.623  22.558  11.045
79460W        W38721  25.481  41.492   3.330
79461W        W38722  14.778  32.453  14.328
79462W        W38723   8.857  33.414  10.621
79463W        W38724  23.149  19.638  12.435
79464W        W38725  10.193  13.687   4.245
79465W        W38726   2.432  14.246  12.466
79466W        W38727  38.900  17.096   2.857
79467W        W38728  21.560   0.981  14.874
79468W        W38729  37.375  32.016   4.265
79469W        W38730  13.216  21.236  11.420
79470W        W38731  34.113  38.882   2.397
79471W        W38732  21.721   2.853  14.910
79472W        W38733  31.010  28.015   5.309
79473W        W38734  38.563   8.768   4.263
79474W        W38735  15.113  29.609   0.375
79475W        W38736  13.642  17.700  11.425
79476W        W38737   2.351  42.850   0.439
79477W        W38738   5.323  28.122  10.015
79478W        W38739  14.673  21.698   3.659
79479W        W38740  13.602  23.068   1.822
79480W        W38741  15.638  32.562  14.990
79481W        W38742  40.032  15.756  10.959
79482W        W38743   3.391  22.729  13.543
79483W        W38744  19.170  17.203   3.639
79484W        W38745  19.652   3.370   3.815
79485W        W38746  22.521  35.903   9.971
79486W        W38747  15.787  26.529   2.803
79487W        W38748  11.241   6.246   0.337
79488W        W38749  27.195  16.093  11.079
79489W        W38750   1.476   5.432  11.493
79490W        W38751  20.592  39.357  14.846
79491W        W38752  24.012  37.454  13.529
79492W        W38753  16.240  41.932  12.973
79493W        W38754  32.118  26.158  10.936
79494W        W38755   9.367   6.851   2.855
79495W        W38756  32.042  10.173   3.237
79496W        W38757  30.498   0.315   3.150
79497W        W38758   2.419  14.204  13.472
79498W        W38759  34.407  30.457  11.506
79499W        W38760  10.767   0.826   1.224
79500W        W38761  33.396   6.741   0.412
79501W        W38762  11.316  32.516  13.453
79502W        W38763  40.421  25.700   0.299
79503W        W38764  34.558  37.965   0.473
79504W        W38765   5.272  40.442   2.671
79505W        W38766  25.549   0.890  12.961
79506W        W38767  30.119  21.039  10.061
79507W        W38768  15.633   6.321   1.869
79508W        W38769   4.358   7.302  13.822
79509W        W38770  29.062  35.362  13.978
79510W        W38771   0.333  23.115   0.253
79511W        W38772  42.316  42.478  10.524
79512W        W38773  31.500  39.517   0.386
79513W        W38774  31.549  35.032   2.213
79514W        W38775  30.487  17.124  14.452
79515W        W38776  34.425  41.442  14.296
79516W        W38777   8.659   4.887   3.166
79517W        W38778  14.323  43.291  12.428
79518W        W38779  31.493   8.777   1.918
79519W        W38780  20.769  15.154   4.649
79520W        W38781   3.951   5.295   3.820
79521W        W38782   2.966  30.956  10.556
79522W        W38783  33.428  24.678   3.743
79523W        W38784  28.959   7.896  13.382
79524W        W38785  41.306   6.708   4.758
79525W        W38786  42.459   2.962   4.223
79526W        W38787   1.436  10.302  12.480
79527W        W38788  44.958  15.088  10.509
79528W        W38789  39.332  18.291   3.804
79529W        W38790  13.791  34.481  13.995
79530W        W38791  29.113  33.020   3.356
79531W        W38792  11.335   4.918   1.393
79532W        W38793   7.852  20.264  11.023
79533W        W38794  16.671   2.794   0.293
79534W        W38795   4.800  35.905  14.429
79535W        W38796   9.717  41.455   4.250
79536W        W38797   6.865  18.763  12.043
79537W        W38798  15.104   8.298   0.829
79538W        W38799  24.506  23.108   1.855
79539W        W38800  23.613  30.947   1.917
79540W        W38801  13.825  42.426  12.346
79541W        W38802  37.531  31.463   0.875
79542W        W38803  19.148  20.232  14.473
79543W        W38804  10.141  30.477   3.383
79544W        W38805  28.501   9.299  11.087
79545W        W38806  17.746  16.775   5.125
79546W        W38807  32.951   8.789  12.996
79547W        W38808  19.107   3.756  13.812
79548W        W38809  43.430  40.804   0.436
79549W        W38810  25.603   7.334  13.979
79550W        W38811  31.012  23.115   4.171
79551W        W38812  43.379  16.600   1.915
79552W        W38813  28.119   2.759  13.490
79553W        W38814   0.901   4.430  14.778
79554W        W38815  44.010  21.647   3.293
79555W        W38816  33.445  27.511  12.901
79556W        W38817  27.645   8.743   1.343
79557W        W38818  13.147   4.251  14.384
79558W        W38819  17.194  40.521  11.421
79559W        W38820   9.818   1.860   1.717
79560W        W38821  16.225  22.662   3.857
79561W        W38822   9.810  29.046  11.890
79562W        W38823  29.057  36.363  12.423
79563W        W38824  23.070  23.614  13.350
79564W        W38825  13.309  25.137   3.784
79565W        W38826   1.281  42.790   4.189
79566W        W38827  31.903  31.966   0.811
79567W        W38828  38.061  40.811   0.430
79568W        W38829  28.454  13.215  10.988
79569W        W38830  14.678  29.585  10.982
79570W        W38831  31.954  22.075  12.917
79571W        W38832   6.695  23.117   0.906
79572W        W38833  44.836  36.982   3.213
79573W        W38834  30.511  24.977   0.444
79574W        W38835  40.960  37.441  14.762
79575W        W38836  33.614  42.282   4.646
79576W        W38837  29.641  36.989   1.321
79577W        W38838  29.067   4.291  11.976
79578W        W38839  20.122   2.315   0.339
79579W        W38840  21.691  42.978  14.503
79580W        W38841   2.420  35.535  11.855
79581W        W38842  44.354   1.294  14.446
79582W        W38843  18.667  43.878   3.287
79583W        W38844  41.536  35.951  13.996
79584W        W38845  44.775  26.965   2.400
79585W        W38846  43.919  25.566  12.006
79586W        W38847   9.338  42.399   4.759
79587W        W38848  18.054   2.304  12.886
79588W        W38849  13.154   0.854  14.899
79589W        W38850  44.976  43.270   3.300
79590W        W38851  13.781  35.572   3.180
79591W        W38852  36.858  34.476  11.541
79592W        W38853  28.466  17.735  14.790
79593W        W38854  40.369  43.957  11.371
79594W        W38855  30.071   3.445  12.986
79595W        W38856  41.345  26.990   5.184
79596W        W38857  23.147  27.015   1.304
79597W        W38858  37.545  35.537   3.199
79598W        W38859  24.543   0.302   1.284
79599W        W38860  20.137   7.267  12.411
79600W        W38861  38.946   7.794  12.522
79601W        W38862  36.970  28.987  12.910
79602W        W38863  30.637   1.976   0.730
79603W        W38864  22.633  41.422  10.981
79604W        W38865  26.076  44.778  12.416
79605W        W38866  34.910   0.937  13.858
79606W        W38867  15.245   4.839  14.308
79607W        W38868  28.000  33.044  14.833
79608W        W38869  16.298  38.819  14.900
79609W        W38870   5.783  27.027  10.939
79610W        W38871  40.968  12.712  13.008
79611W        W38872  27.158  38.409   3.795
79612W        W38873  15.591   1.448  10.573
79613W        W38874  25.218   9.199  13.876
79614W        W38875  34.993  27.642  14.025
79615W        W38876  40.417  15.672  12.450
79616W        W38877  21.238  36.591   1.392
79617W        W38878   9.393  41.402  14.333
79618W        W38879  20.568  37.077  11.902
79619W        W38880   0.422  20.580  12.001
79620W        W38881  40.336  18.130  11.932
79621W        W38882  17.181  40.385  13.989
79622W        W38883  21.095  33.073  13.061
79623W        W38884   9.712  22.556   4.241
79624W        W38885   1.451  41.384  12.878
79625W        W38886   9.706   6.839  11.016
79626W        W38887  17.677  19.591  12.878
79627W        W38888  36.867   4.710   0.386
79628W        W38889  17.758   4.332   2.842
79629W        W38890  43.992   5.737   4.211
79630W        W38891  34.530  39.542   1.244
79631W        W38892  11.332  44.937  14.834
79632W        W38893  41.431  17.297  12.065
79633W        W38894   1.892   1.885   4.619
79634W        W38895   2.407   3.317  13.039
79635W        W38896  35.945  40.338  11.988
79636W        W38897  11.827  36.941   4.252
79637W        W38898  26.572  27.524   1.337
79638W        W38899  28.942   5.743   0.428
79639W        W38900  18.107  20.763  13.481
79640W        W38901  39.059  25.517   3.283
79641W        W38902  26.094  14.236   1.916
79642W        W38903  39.430  34.496  11.934
79643W        W38904  22.619   7.265   0.881
79644W        W38905   1.959  32.997   1.733
79645W        W38906   3.714  36.581   0.398
79646W        W38907   4.229  27.109  12.517
79647W        W38908  26.693   8.714  12.403
79648W        W38909  10.779  31.425   3.642
79649W        W38910   1.355  22.116   1.280
79650W        W38911   6.845  10.268  13.879
79651W        W38912  30.050  41.963   1.707
79652W        W38913   3.268  21.730   0.362
79653W        W38914  26.677   4.897   1.280
79654W        W38915  29.502  36.887   0.848
79655W        W38916  37.485  14.219  12.555
79656W        W38917  24.558   1.732   0.813
79657W        W38918   4.795  44.268   2.832
79658W        W38919  31.527  14.662  11.596
79659W        W38920  33.116   2.828  10.631
79660W        W38921   5.772   9.706   4.688
79661W        W38922  39.424  41.905   0.446
79662W        W38923   2.265  40.368  14.911
79663W        W38924  40.000  24.177   0.402
79664W        W38925  37.353   9.746   1.897
79665W        W38926  15.680  32.886  11.458
79666W        W38927  26.638  41.879   1.385
79667W        W38928  19.121  35.969   1.923
79668W        W38929  18.179  29.623  14.456
79669W        W38930  25.665  16.648   4.348
79670W        W38931  41.958   3.901   2.680
79671W        W38932  18.575  16.643   4.647
79672W        W38933  44.394  17.200  14.322
79673W        W38934   9.180  34.930   4.299
79674W        W38935  24.561   1.351   3.861
79675W        W38936  16.716   5.213  11.021
79676W        W38937   6.838  24.585   1.849
79677W        W38938  39.983  29.515  12.570
79678W        W38939  21.632  34.879  11.919
79679W        W38940  28.039  11.664  10.099
79680W        W38941  34.984  14.297  12.341
79681W        W38942   9.653  36.012  14.379
79682W        W38943  10.689  14.761  11.405
79683W        W38944  41.029  25.993   9.997
79684W        W38945  26.166   4.754  12.400
79685W        W38946  20.173  40.850   0.736
79686W        W38947  30.536  35.005  14.014
79687W        W38948  28.037  22.151   3.278
79688W        W38949  37.554  14.592   3.787
79689W        W38950   9.876   6.372   0.369
79690W        W38951  41.428  23.014  14.909
79691W        W38952  34.987   4.869  12.550
79692W        W38953   6.808  31.985   1.864
79693W        W38954  11.269  19.652   0.778
79694W        W38955  24.502  34.897  12.047
79695W        W38956  39.370   3.382   2.719
79696W        W38957  33.907  12.740   0.907
79697W        W38958   9.331  26.463   4.349
79698W        W38959  27.646  35.549  12.931
79699W        W38960  32.575  29.000  10.119
79700W        W38961  20.034  11.738  11.024
79701W        W38962   7.888  11.768   1.301
79702W        W38963   7.891  14.741  13.948
79703W        W38964  22.190   6.863   1.808
79704W        W38965   9.280  10.373   2.856
79705W        W38966   1.878  33.417  13.518
79706W        W38967  15.197  14.248   0.777
79707W        W38968   0.981  36.846  11.607
79708W        W38969  15.122  27.040   2.707
79709W        W38970  20.686   6.771   3.266
79710W        W38971  37.547  41.385  11.112
79711W        W38972   7.418  12.794  14.310
79712W        W38973   0.462  13.721  14.868
79713W        W38974  21.688  44.792  13.540
79714W        W38975   2.243  27.568  14.804
79715W        W38976  42.956  20.764   3.806
79716W        W38977   2.866  30.920  12.574
79717W        W38978  15.763  22.075   2.732
79718W        W38979   4.897  42.898  11.507
79719W        W38980  34.529  39.560   3.238
79720W        W38981  26.542  29.992   3.284
79721W        W38982  34.479   7.853   0.796
79722W        W38983  29.495  28.035  11.432
79723W        W38984  42.980  30.916  14.985
79724W        W38985  20.640  33.525  12.870
79725W        W38986  10.271  12.224  14.791
79726W        W38987   9.252   8.827   2.794
79727W        W38988  33.958  38.445  10.584
79728W        W38989  15.698   9.859   4.289
79729W        W38990  28.061  33.962  14.859
79730W        W38991  11.165  33.895   2.236
79731W        W38992  14.272   1.327   1.350
79732W        W38993  19.264  16.185   3.351
79733W        W38994  25.574  37.383  12.568
79734W        W38995  44.847  36.096  13.920
79735W        W38996  29.603   2.859   2.399
79736W        W38997  25.113  22.671  14.454
79737W        W38998  23.082  16.720  12.848
79738W        W38999  20.626  41.482  11.071
79739W        W39000  14.686   1.897  10.915
79740W        W39001  36.996   5.327   1.847
79741W        W39002  24.168   9.346   0.893
79742W        W39003  32.479   4.398  14.343
79743W        W39004   8.182  22.720   2.867
79744W        W39005   1.344  37.434   4.796
79745W        W39006  42.786  11.754  11.426
79746W        W39007  23.629  19.242  12.854
79747W        W39008  42.306   5.286   3.832
79748W        W39009  43.400  28.476  14.014
79749W        W39010  26.607  43.475  12.826
79750W        W39011  22.503  26.681  12.033
79751W        W39012  22.707  10.808   0.295
79752W        W39013   0.937  12.269   2.204
79753W        W39014  43.934  42.886  11.972
79754W        W39015  19.563   1.963   0.829
79755W        W39016  19.116  19.048   1.422
79756W        W39017   6.844  10.325   0.445
79757W        W39018  13.177  24.689  12.364
79758W        W39019  13.706  35.527  10.542
79759W        W39020  38.905  31.426   4.323
79760W        W39021   5.387   1.775   3.700
79761W        W39022  42.987  34.076  13.424
79762W        W39023  15.271  32.422  10.888
79763W        W39024  19.632  35.417   0.476
79764W        W39025  43.935  39.877   3.306
79765W        W39026   3.837  41.808  14.409
79766W        W39027  34.012  28.938   2.196
79767W        W39028  43.352  43.478   2.696
79768W        W39029  39.878  20.267   2.757
79769W        W39030  30.467  10.234   9.966
79770W        W39031  18.189  38.415  14.437
79771W        W39032  30.977   0.436  13.970
79772W        W39033  31.525  42.901   2.213
79773W        W39034  25.121  19.279  14.380
79774W        W39035  19.745   3.337   2.413
79775W        W39036  43.986  29.038  12.526
79776W        W39037  31.925  38.964  13.891
79777W        W39038  25.098  41.955  11.403
79778W        W39039  10.167  25.537   0.905
79779W        W39040  44.829  38.466  11.378
79780W        W39041  20.705   2.459  13.921
79781W        W39042   1.248   9.379   2.230
79782W        W39043   6.256  13.662   1.357
79783W        W39044  16.581  15.803   4.163
79784W        W39045  19.086  38.923   4.309
79785W        W39046   6.250  28.111  14.760
79786W        W39047   9.838  34.042  13.979
79787W        W39048  30.063  27.530   0.307
79788W        W39049  39.341  26.187  13.338
79789W        W39050   8.241  11.628   1.221
79790W        W39051   0.419  42.880   3.660
79791W        W39052   3.258  37.532   2.893
79792W        W39053   9.164  34.962  14.812
79793W        W39054   7.324  44.422  13.405
79794W        W39055  15.261   1.967   4.786
79795W        W39056   9.281   6.731   5.315
79796W        W39057  29.004  33.578   3.822
79797W        W39058  10.151   1.807   0.373
79798W        W39059  39.368  22.097  13.406
79799W        W39060  19.773   0.868  11.567
79800W        W39061  27.185  40.476   4.735
79801W        W39062  16.104  14.757  13.791
79802W        W39063   5.417  40.375  10.979
79803W        W39064  38.072  40.821  13.987
79804W        W39065  43.511  23.135  13.916
79805W        W39066  30.937  29.632   4.329
79806W        W39067  18.254  24.053   2.348
79807W        W39068  14.602  14.689   1.331
79808W        W39069  11.306  34.929   0.792
79809W        W39070  23.076   5.724   2.695
79810W        W39071  40.949  14.609   0.253
79811W        W39072  12.285  18.734  11.416
79812W        W39073  13.638  16.600   0.291
79813W        W39074  40.909  39.928  12.880
79814W        W39075  11.698  26.661   5.114
79815W        W39076  42.391  28.501   3.807
79816W        W39077   4.795   6.272  14.275
79817W        W39078   8.249  34.942  14.865
79818W        W39079  18.737  16.084   2.353
79819W        W39080  33.113  23.103   3.767
79820W        W39081  22.695   0.915   5.270
79821W        W39082   7.260  25.968   2.702
79822W        W39083   0.429   3.227  11.910
79823W        W39084  14.280  31.488   1.376
79824W        W39085  30.031  11.179  13.307
79825W        W39086  40.405  21.543  11.856
79826W        W39087  36.898   8.335  10.913
79827W        W39088  17.582  16.619  14.346
79828W        W39089  16.568  17.792   2.208
79829W        W39090  40.377  36.953   3.859
79830W        W39091   2.287  31.130   0.293
79831W        W39092  16.276  28.180  11.982
79832W        W39093  24.180  14.139   5.153
79833W        W39094   9.358  32.602   1.363
79834W        W39095   0.925  26.526  11.384
79835W        W39096  19.070  17.773   1.338
79836W        W39097   9.261  29.633   0.289
79837W        W39098  23.985   7.841  14.781
79838W        W39099  34.085  36.937   0.854
79839W        W39100  26.644   6.405  13.872
79840W        W39101  23.025  37.496  14.325
79841W        W39102  22.574  25.041  13.410
79842W        W39103  29.153  27.129  12.926
79843W        W39104  19.590  38.367   0.470
79844W        W39105  37.424  22.009  10.623
79845W        W39106  35.899  37.053   4.310
79846W        W39107  17.716  38.567  13.474
79847W        W39108  44.798  18.192   4.313
79848W        W39109  44.404  24.701  13.870
79849W        W39110  12.771  31.451  14.028
79850W        W39111  22.698   3.360   0.957
79851W        W39112   1.756  11.252   3.641
79852W        W39113   7.274  39.967   2.230
79853W        W39114   1.860  24.117   2.413
79854W        W39115  35.894  28.450  11.016
79855W        W39116  15.647  19.563  13.042
79856W        W39117  16.270  14.817  14.480
79857W        W39118   7.848  15.316  12.961
79858W        W39119  15.114  22.164  11.513
79859W        W39120   8.673  18.085   2.395
79860W        W39121  35.524  22.629   1.765
79861W        W39122  13.210   7.360   5.306
79862W        W39123   0.980  37.884   0.393
79863W        W39124  42.777  34.953   2.380
79864W        W39125  42.018  20.156   4.806
79865W        W39126   9.651  44.754   3.766
79866W        W39127  30.559  35.471   2.811
79867W        W39128  33.887  34.388   4.723
79868W        W39129  14.157  39.051  14.492
79869W        W39130  37.574  11.702  14.801
79870W        W39131  42.775  38.033  13.805
79871W        W39132   7.382  40.965  11.387
79872W        W39133  28.022  33.893  11.072
79873W        W39134  38.466  12.309   3.357
79874W        W39135   7.286   1.786   3.702
79875W        W39136   6.709  13.685   4.257
79876W        W39137  36.014  44.972   1.812
79877W        W39138   6.229   3.241   3.823
79878W        W39139  18.726   2.780   4.829
79879W        W39140  38.440   9.658   3.809
79880W        W39141  33.051  14.242  11.522
79881W        W39142  18.782  18.732  13.498
79882W        W39143  27.054  32.029  14.009
79883W        W39144  43.293   8.808   4.714
79884W        W39145  43.955  10.281  13.022
79885W        W39146  15.657  44.899   2.865
79886W        W39147   4.902   7.802  11.016
79887W        W39148   7.216   5.234  12.860
79888W        W39149   2.741  15.153  14.870
79889W        W39150  34.546  36.938  14.969
79890W        W39151  40.034   2.784   4.245
79891W        W39152  32.935   3.273  14.991
79892W        W39153  10.645  20.739  14.012
79893W        W39154  39.833  40.901   4.617
79894W        W39155  37.053  44.320   4.128
79895W        W39156  35.364  38.063  11.459
79896W        W39157   7.844  30.111  12.957
79897W        W39158  26.001  20.557   1.294
79898W        W39159  11.170  26.590   1.724
79899W        W39160  16.789  32.987   2.669
79900W        W39161  34.885  44.326  12.895
79901W        W39162  14.317  21.124   4.126
79902W        W39163  16.145  13.201  10.888
79903W        W39164  41.994  11.831  12.497
79904W        W39165  36.559  20.236  10.460
79905W        W39166  25.219  17.696   1.433
79906W        W39167   8.243  14.730  14.360
79907W        W39168  10.795   1.800  14.883
79908W        W39169  40.432  29.138   2.301
79909W        W39170  28.119  17.281  13.952
79910W        W39171  26.634  29.442  14.377
79911W        W39172   5.913  11.822  13.031
79912W        W39173  24.010  19.122   3.210
79913W        W39174   0.832  37.570  14.792
79914W        W39175  22.119  21.724   3.810
79915W        W39176   6.316  15.726  14.888
79916W        W39177  28.467  17.118   2.199
79917W        W39178   8.894  30.044  13.311
79918W        W39179  41.334  40.480   4.200
79919W        W39180  32.957  26.123  11.979
79920W        W39181  26.456  12.808   4.786
79921W        W39182  11.799  40.955  11.965
79922W        W39183  42.887  29.014   1.305
79923W        W39184  38.499  28.667  14.381
79924W        W39185  22.692  16.313  12.042
79925W        W39186  37.919  27.047  12.440
79926W        W39187  43.355  44.490  10.997
79927W        W39188   0.914  27.574   1.421
79928W        W39189   8.369   8.318   5.117
79929W        W39190  10.867  35.385   3.273
79930W        W39191  26.055   5.890  13.463
79931W        W39192   4.917  21.171   4.273
79932W        W39193   1.791  40.971  14.292
79933W        W39194  24.622  38.856  11.485
79934W        W39195  23.502  19.277   4.809
79935W        W39196  25.545  19.763  11.450
79936W        W39197  43.298  17.694  13.435
79937W        W39198   0.900   1.781   1.922
79938W        W39199  25.665  37.999   4.253
79939W        W39200   2.738   2.939   0.859
79940W        W39201   6.293   9.232   3.776
79941W        W39202   6.818  10.678  11.878
79942W        W39203   6.869   7.296   4.354
79943W        W39204   4.380  43.900   0.329
79944W        W39205  23.235   0.952   3.365
79945W        W39206  41.524  42.345   2.313
79946W        W39207  24.084  18.777   1.770
79947W        W39208  30.532  33.545   2.368
79948W        W39209  18.123  31.938  11.043
79949W        W39210   1.964  36.579   3.785
79950W        W39211  31.561  21.656   1.329
79951W        W39212   3.904  37.934  12.410
79952W        W39213   2.893  29.639  11.091
79953W        W39214  22.557  37.341   4.309
79954W        W39215  13.700  43.488   2.798
79955W        W39216  13.688  10.837   1.808
79956W        W39217  22.999  43.910  10.975
79957W        W39218  28.992   8.168  14.341
79958W        W39219  12.273  35.468   4.808
79959W        W39220   5.243  39.339  14.379
79960W        W39221  40.909  22.011  14.831
79961W        W39222  25.527   6.205  12.927
79962W        W39223  33.976  25.185   0.954
79963W        W39224  39.035  16.185   1.249
79964W        W39225  26.652  15.590  14.992
79965W        W39226   7.776   4.846   3.226
79966W        W39227  38.028   8.255  12.495
79967W        W39228  36.918  18.611   2.900
79968W        W39229   7.860  12.185   2.729
79969W        W39230  16.783   2.291   2.314
79970W        W39231  39.467  14.801   0.295
79971W        W39232  31.565  35.563   0.257
79972W        W39233  44.819  38.408   1.287
79973W        W39234  28.622  37.479   0.878
79974W        W39235   6.748  31.939   5.213
79975W        W39236  40.507  14.252   1.784
79976W        W39237   2.951  11.268   2.322
79977W        W39238  37.457  20.611  14.441
79978W        W39239  15.222  13.244  10.608
79979W        W39240  32.591   3.801  12.868
79980W        W39241  10.169  19.117   1.320
79981W        W39242  22.586  21.173   1.407
79982W        W39243   5.355   6.317   3.222
79983W        W39244  35.951  42.313   3.175
79984W        W39245   1.359  26.668  12.494
79985W        W39246  26.566  33.966   4.792
79986W        W39247  29.941  31.969  11.577
79987W        W39248   6.275  25.701   3.182
79988W        W39249   8.388  32.537   3.774
79989W        W39250  13.321  35.601  12.963
79990W        W39251  27.663  30.451   0.807
79991W        W39252  35.971  14.098  13.960
79992W        W39253  14.283  35.079  11.469
79993W        W39254   3.295  14.190  13.994
79994W        W39255  10.867  40.849   0.335
79995W        W39256  14.739  29.034   3.355
79996W        W39257  23.505  35.877  13.843
79997W        W39258  39.489  27.555  12.069
79998W        W39259   1.798  13.828  12.396
79999W        W39260  38.890   3.372  12.833
80000W        W39261  17.780   8.838  11.515
80001W        W39262   0.866  13.293  14.380
80002W        W39263  35.890   2.319  11.552
80003W        W39264  43.506   8.205  12.917
80004W        W39265  25.110   0.894  11.057
80005W        W39266  38.936  28.563  13.348
80006W        W39267  35.013  44.352   2.256
80007W        W39268  33.505   8.406   0.340
80008W        W39269   0.768  20.523  13.324
80009W        W39270  16.771   5.408   0.374
80010W        W39271  29.546  27.079  12.871
80011W        W39272  40.869   3.257  10.419
80012W        W39273  32.078   3.450   2.339
80013W        W39274  25.487  42.301  12.375
80014W        W39275  25.008  29.626   4.830
80015W        W39276  33.922  25.045  12.853
80016W        W39277  20.643  33.517  14.412
80017W        W39278  12.768  20.609  10.998
80018W        W39279  23.205   5.240  11.427
80019W        W39280  13.745  28.470   4.667
80020W        W39281  40.888   8.711  13.507
80021W        W39282  34.078   7.299   1.790
80022W        W39283   2.284  40.026   9.949
80023W        W39284   9.155  30.421  10.498
80024W        W39285  44.952  15.122   0.296
80025W        W39286   5.870  40.477   1.878
80026W        W39287  38.368   6.359  12.880
80027W        W39288  19.152  20.073   0.372
80028W        W39289  32.398  39.898   4.701
80029W        W39290  22.636   6.383   1.927
80030W        W39291  41.442  27.080  12.085
80031W        W39292   5.238  23.565   3.656
80032W        W39293   6.824  44.917  13.366
80033W        W39294  16.209   1.301   4.212
80034W        W39295  33.396  24.176  10.482
80035W        W39296   8.314  11.694   0.330
80036W        W39297  30.491  23.711  13.983
80037W        W39298  23.067  35.089  13.039
80038W        W39299   5.917  17.621   1.858
80039W        W39300  19.686   8.321   2.680
80040W        W39301  30.005  39.547  14.814
80041W        W39302   4.239  19.099   1.719
80042W        W39303  32.552  44.449  13.793
80043W        W39304  23.606  27.147   2.856
80044W        W39305  36.068  27.557  11.451
80045W        W39306  11.758  24.206  13.413
80046W        W39307   4.719  25.693   1.235
80047W        W39308  42.401  28.937  11.582
80048W        W39309  18.607  34.027   1.839
80049W        W39310  26.485  13.134   2.419
80050W        W39311  42.464  28.669   3.168
80051W        W39312  37.363   0.882  13.356
80052W        W39313   7.266  35.383  14.022
80053W        W39314  11.742   6.296   0.958
80054W        W39315   5.402  44.308  13.307
80055W        W39316   1.322   8.690   0.442
80056W        W39317  24.701  32.076  11.113
80057W        W39318  15.284   7.890  14.016
80058W        W39319  25.710  13.251   3.834
80059W        W39320  10.860  35.864   4.350
80060W        W39321  30.612  34.493  11.611
80061W        W39322  40.529   7.907   0.786
80062W        W39323  22.502   4.239  10.465
80063W        W39324  16.707  30.440  11.581
80064W        W39325  23.685  12.721  14.906
80065W        W39326  13.739  39.951   2.773
80066W        W39327  34.890   0.483   1.848
80067W        W39328   2.428  11.371   2.190
80068W        W39329   0.877  12.835   0.394
80069W        W39330  18.791  22.189  14.353
80070W        W39331   6.787  13.718   3.635
80071W        W39332   8.738   4.923   1.316
80072W        W39333  23.086   2.387  13.015
80073W        W39334  25.148  43.295   3.294
80074W        W39335  26.701  30.426   3.697
80075W        W39336  28.548  33.074  14.904
80076W        W39337  16.581  32.588   4.346
80077W        W39338  10.276  42.998   5.096
80078W        W39339  41.523   1.931   2.360
80079W        W39340  13.686   8.779  14.919
80080W        W39341  35.421  36.902  12.348
80081W        W39342  31.463  40.476   1.782
80082W        W39343   9.850  27.020  10.442
80083W        W39344  11.719  28.048  12.077
80084W        W39345  12.839  11.648   0.301
80085W        W39346  38.466   3.379   2.267
80086W        W39347  13.735  10.751  10.914
80087W        W39348  26.677   0.862   0.828
80088W        W39349  42.811  13.675  12.571
80089W        W39350  22.555  31.482  12.527
80090W        W39351  25.576  31.936  10.565
80091W        W39352  25.603  22.668  12.392
80092W        W39353  11.752  38.875   1.739
80093W        W39354  36.506  39.913  12.871
80094W        W39355  15.708  42.022   0.938
80095W        W39356  26.200   0.269   3.199
80096W        W39357   5.844  23.165   1.829
80097W        W39358  44.421   4.348   2.362
80098W        W39359  43.889  20.099   2.854
80099W        W39360   5.207  34.456  13.872
80100W        W39361   2.932  43.849  14.393
80101W        W39362   8.873  17.572   0.873
80102W        W39363  27.502  40.490   0.439
80103W        W39364  13.282  43.901   2.263
80104W        W39365  29.527  27.160  13.511
80105W        W39366  23.025  36.945  14.428
80106W        W39367  33.992  34.054   3.232
80107W        W39368  16.267  34.467   4.747
80108W        W39369  37.382  20.131  10.422
80109W        W39370  38.520  10.323  14.841
80110W        W39371  28.565  23.649  13.970
80111W        W39372  42.492  38.349  11.029
80112W        W39373   7.359  39.319   0.483
80113W        W39374  24.125  40.376   4.779
80114W        W39375  24.171  27.608   4.132
80115W        W39376  26.035  18.753   4.750
80116W        W39377  22.121  10.273   0.932
80117W        W39378  36.086  23.690   3.162
80118W        W39379   7.256  12.840  12.829
80119W        W39380  40.461  21.190  14.798
80120W        W39381  31.592   0.356  13.806
80121W        W39382   3.335   1.292   3.831
80122W        W39383  43.785  16.579   1.406
80123W        W39384  44.287  28.551   0.752
80124W        W39385   4.257  11.703   1.446
80125W        W39386  36.090  18.240  13.438
80126W        W39387  22.711   0.811   0.432
80127W        W39388  18.752  44.809  11.458
80128W        W39389  26.115  15.314  12.022
80129W        W39390  22.566  23.595   1.265
80130W        W39391  26.667  15.812   3.279
80131W        W39392  32.967  44.977  11.879
80132W        W39393   9.236  16.141   1.374
80133W        W39394  42.393  22.135  10.472
80134W        W39395  27.063  34.031  10.947
80135W        W39396  41.929  40.486  12.372
80136W        W39397  29.945  17.145   1.335
80137W        W39398  41.013  13.803   2.841
80138W        W39399   3.838  20.611   3.653
80139W        W39400  43.355  22.226   1.362
80140W        W39401  20.593  17.717   2.298
80141W        W39402  15.129  36.590   2.825
80142W        W39403  19.741  18.223   9.966
80143W        W39404  34.090  38.971  11.042
80144W        W39405   3.827  35.059   0.963
80145W        W39406   5.418  29.925  11.025
80146W        W39407  20.538   0.758   0.309
80147W        W39408  25.197  25.504   2.318
80148W        W39409  43.288  21.539  12.499
80149W        W39410  41.995  33.991   3.866
80150W        W39411  39.368  23.062   1.218
80151W        W39412  31.035  16.636  13.415
80152W        W39413  15.581  17.639  11.432
80153W        W39414   1.811  35.103  13.447
80154W        W39415   3.413  25.076  11.545
80155W        W39416   0.890  44.470   2.226
80156W        W39417  42.976  40.046   3.739
80157W        W39418  40.439  26.099  13.916
80158W        W39419  18.263  34.101   1.280
80159W        W39420   0.954  23.730  13.384
80160W        W39421  39.474  36.985  13.414
80161W        W39422  14.194   9.883  12.461
80162W        W39423  39.059   6.295   0.349
80163W        W39424   2.368  39.324   1.369
80164W        W39425  31.578   3.923  11.876
80165W        W39426  36.590   6.885  14.852
80166W        W39427   6.910   4.931  13.488
80167W        W39428  17.686  35.432   3.336
80168W        W39429  14.795  30.048   1.795
80169W        W39430   7.296  37.878   3.181
80170W        W39431  14.109  15.709   0.824
80171W        W39432   5.339  16.200   4.141
80172W        W39433  10.225  39.856   4.342
80173W        W39434  14.251  43.491  11.891
80174W        W39435   7.753  21.022   1.270
80175W        W39436   7.259  23.653   1.364
80176W        W39437  42.818  10.187   3.352
80177W        W39438  35.465  17.117  14.317
80178W        W39439  23.231  11.630  14.952
80179W        W39440  38.850  32.043  12.344
80180W        W39441  30.011   4.267  14.989
80181W        W39442   3.844  31.070  14.788
80182W        W39443   5.689   7.232   1.347
80183W        W39444  39.829  31.133  12.362
80184W        W39445  16.079  29.094   1.268
80185W        W39446  28.114  15.581   0.916
80186W        W39447   6.901  10.634   4.615
80187W        W39448  34.027  41.951  10.410
80188W        W39449  17.179  19.187   3.803
80189W        W39450   9.291  13.321  13.384
80190W        W39451  40.420  17.180  12.833
80191W        W39452   3.796  27.554   2.678
80192W        W39453  31.470   6.268   1.230
80193W        W39454  26.054  37.894  11.563
80194W        W39455  31.982  37.559  12.086
80195W        W39456  41.876  40.349   1.832
80196W        W39457  10.652   8.357   9.476
80197W        W39458  37.579  37.866  14.022
80198W        W39459   4.406  43.813  12.513
80199W        W39460  21.262   4.856   0.949
80200W        W39461  29.492  15.813   4.727
80201W        W39462  20.106   7.764  14.888
80202W        W39463  41.336  27.461  14.971
80203W        W39464  20.149  20.198   4.213
80204W        W39465  12.327   3.411  14.872
80205W        W39466  30.568  40.897  13.011
80206W        W39467  29.474  31.627   4.724
80207W        W39468   9.258   2.851   0.803
80208W        W39469  33.073  26.488  11.888
80209W        W39470   3.422  14.690   4.717
80210W        W39471   2.278  21.607   2.300
80211W        W39472  34.930   5.320  10.156
80212W        W39473   5.886   7.804   0.842
80213W        W39474   6.923   8.786   3.672
80214W        W39475   4.322   7.693   3.800
80215W        W39476  37.960  33.921  10.445
80216W        W39477  32.047  27.644   4.834
80217W        W39478  12.632  31.534  10.437
80218W        W39479  23.060  34.048  10.611
80219W        W39480  10.668  20.691  13.487
80220W        W39481  32.541   4.319   3.683
80221W        W39482  11.223   2.912   0.303
80222W        W39483  23.056   7.183  11.855
80223W        W39484  26.952  15.818   4.170
80224W        W39485  27.115  35.913   4.806
80225W        W39486  24.213  34.489  13.821
80226W        W39487  22.127   4.776   1.267
80227W        W39488   3.332  22.083   4.309
80228W        W39489  27.141  36.951   1.799
80229W        W39490  33.590  22.578   3.736
80230W        W39491   9.643  41.409   2.784
80231W        W39492  20.063  41.362   4.827
80232W        W39493   1.248  16.221  11.060
80233W        W39494  14.283  38.509  14.811
80234W        W39495  15.669  20.555   2.866
80235W        W39496  21.167   3.369  14.971
80236W        W39497   6.779  34.505   2.820
80237W        W39498  25.109   4.320  14.332
80238W        W39499  23.506  17.083  14.889
80239W        W39500  12.721   5.416   1.794
80240W        W39501  19.109  27.499   4.131
80241W        W39502   5.230  13.187   0.920
80242W        W39503  44.390  42.492  11.909
80243W        W39504  25.678  44.431  13.508
80244W        W39505   8.177   2.455   3.340
80245W        W39506  21.605  19.779  14.992
80246W        W39507  16.247  16.576  11.912
80247W        W39508   7.405  29.997   1.713
80248W        W39509   6.268  14.156  11.546
80249W        W39510  43.323   8.705   0.332
80250W        W39511  17.647  26.152  12.034
80251W        W39512  32.547   4.248   1.372
80252W        W39513   6.706  35.972   3.329
80253W        W39514   1.775  27.609  12.824
80254W        W39515   6.422  25.087   1.746
80255W        W39516  19.769  28.037  14.921
80256W        W39517   3.779  19.704   3.282
80257W        W39518  43.277   6.273   4.153
80258W        W39519  29.949  32.118   4.630
80259W        W39520  43.769  18.658  14.963
80260W        W39521  10.267  23.103  14.370
80261W        W39522  24.516   9.149  12.575
80262W        W39523  32.041  43.915  13.380
80263W        W39524  10.166  44.978  10.473
80264W        W39525  28.551  42.336   2.226
80265W        W39526   3.433   0.322  13.369
80266W        W39527   1.296  27.000  14.396
80267W        W39528  11.250   5.694  13.420
80268W        W39529  17.676   8.343   1.916
80269W        W39530   1.733  39.040   1.259
80270W        W39531  30.527   4.301  13.337
80271W        W39532  29.081  10.202  14.926
80272W        W39533  11.158  30.159   4.691
80273W        W39534  43.399  34.906  11.417
80274W        W39535  29.542  32.428   1.259
80275W        W39536  37.380  22.574   1.884
80276W        W39537  34.447  14.283   2.874
80277W        W39538  22.732  25.119  12.566
80278W        W39539  21.676   9.380   4.756
80279W        W39540  40.374  37.560  12.459
80280W        W39541  10.848  28.017   0.425
80281W        W39542  40.364  15.093  12.448
80282W        W39543  19.180   7.827   2.268
80283W        W39544  13.787  42.301  12.867
80284W        W39545   0.848  43.502   1.812
80285W        W39546  28.501  40.007   1.254
80286W        W39547  16.759   9.166  13.948
80287W        W39548  36.094  18.149   1.872
80288W        W39549   3.426  42.017   4.158
80289W        W39550  18.091  41.027  12.512
80290W        W39551  12.130  13.156   4.675
80291W        W39552   3.908  37.965   0.291
80292W        W39553  36.401  18.563  13.450
80293W        W39554  38.407  13.151  12.908
80294W        W39555  36.370  39.921   3.649
80295W        W39556  30.924  29.171  13.515
80296W        W39557   4.739  17.174  10.567
80297W        W39558  30.436  36.037   0.391
80298W        W39559  13.648  42.943   2.834
80299W        W39560   7.747  36.025   0.866
80300W        W39561  27.469  32.496   0.407
80301W        W39562  22.594   7.911   3.203
80302W        W39563  40.046  40.956   4.165
80303W        W39564  26.048  40.459  12.507
80304W        W39565  18.200  12.299   1.864
80305W        W39566  20.046  22.638  11.891
80306W        W39567  30.453  20.265   2.332
80307W        W39568  27.000  33.505   0.727
80308W        W39569  33.398   1.421  13.337
80309W        W39570   2.403  28.623   0.360
80310W        W39571   2.782   0.819   4.614
80311W        W39572  10.666  24.068  12.846
80312W        W39573   7.398   8.176  14.806
80313W        W39574  20.627   0.879   4.835
80314W        W39575  15.200   3.935   3.364
80315W        W39576  30.648  25.505  12.848
80316W        W39577  31.910  36.031  13.464
80317W        W39578  38.336  13.232  10.420
80318W        W39579  44.786  31.101   3.381
80319W        W39580  13.145  10.301  10.104
80320W        W39581  20.631   8.381   1.736
80321W        W39582  39.828  20.713   0.432
80322W        W39583  10.705   0.447  10.509
80323W        W39584   7.188  11.767  13.531
80324W        W39585  42.376   9.255   4.292
80325W        W39586  15.292  29.086  14.851
80326W        W39587   0.988  21.186   4.173
80327W        W39588  23.667  32.460   3.659
80328W        W39589  15.767  42.341  12.552
80329W        W39590  18.708  24.999   2.294
80330W        W39591  29.542  17.679   2.340
80331W        W39592   4.265  16.613  12.430
80332W        W39593  36.032   2.343  12.362
80333W        W39594  28.585  32.970   0.792
80334W        W39595  43.994  18.135  11.399
80335W        W39596  14.745  33.108   4.210
80336W        W39597  30.003  24.500  14.287
80337W        W39598  38.996  28.087   3.647
80338W        W39599  26.190  22.082  13.544
80339W        W39600  13.150  24.153   2.730
80340W        W39601  13.662  35.050   0.356
80341W        W39602  36.383  44.429   3.840
80342W        W39603  20.181  20.121  14.376
80343W        W39604  19.637  16.610   1.772
80344W        W39605   3.256   8.377  11.373
80345W        W39606   6.236  20.158  11.906
80346W        W39607  17.128  23.026   3.224
80347W        W39608  16.681  26.034  11.452
80348W        W39609  32.001  30.500   3.301
80349W        W39610  40.914  30.608  14.982
80350W        W39611  21.703  38.549  11.451
80351W        W39612  24.579  44.375   2.694
80352W        W39613  23.993   1.290  11.005
80353W        W39614   1.297  19.733  12.532
80354W        W39615   0.912  34.572  12.849
80355W        W39616   1.472  23.146   0.833
80356W        W39617   1.940   6.376   4.161
80357W        W39618  44.312  16.185  14.814
80358W        W39619  34.390  21.023   4.329
80359W        W39620   5.738  17.570   2.893
80360W        W39621  44.409  24.066   9.580
80361W        W39622  14.270  17.217  12.885
80362W        W39623  38.824  16.088  12.550
80363W        W39624  22.640  24.631   1.424
80364W        W39625   5.752   3.313   1.715
80365W        W39626  28.947   7.907   0.938
80366W        W39627  31.914  14.640  12.464
80367W        W39628   1.237  18.764   3.854
80368W        W39629  12.749  27.537  14.772
80369W        W39630  22.503  29.498   3.265
80370W        W39631  24.585  14.694  11.881
80371W        W39632   9.802   9.265   0.324
80372W        W39633   4.922  19.747   0.333
80373W        W39634   0.765   6.840   4.180
80374W        W39635  38.343  39.516  11.578
80375W        W39636  37.035  35.507   2.903
80376W        W39637  22.213   4.225  10.480
80377W        W39638  24.158  44.384  11.456
80378W        W39639   0.417  16.569   4.321
80379W        W39640  41.303  40.872  12.443
80380W        W39641  38.558   3.364  14.023
80381W        W39642   6.904  36.450  10.929
80382W        W39643  40.816  30.445   2.799
80383W        W39644  38.958  12.324  12.865
80384W        W39645  34.023  16.686   0.385
80385W        W39646  24.611  34.105   1.284
80386W        W39647  14.687  27.556  14.021
80387W        W39648  38.874  11.333   0.967
80388W        W39649  18.765  25.554   3.146
80389W        W39650  34.520  13.310   3.319
80390W        W39651   7.682   7.770  11.886
80391W        W39652   1.801  10.345  12.013
80392W        W39653  14.235  21.040   1.887
80393W        W39654   2.350  11.737   3.235
80394W        W39655  26.465  30.543  12.384
80395W        W39656  35.419   1.267   3.630
80396W        W39657  28.034  26.963  10.930
80397W        W39658  21.138   4.771   1.850
80398W        W39659  25.085  37.881  11.059
80399W        W39660   3.935  17.626   0.309
80400W        W39661   0.928  43.372   2.849
80401W        W39662  13.328  20.262   1.406
80402W        W39663  43.463  27.110   1.355
80403W        W39664  20.738  38.493   0.409
80404W        W39665  10.240  19.535   2.873
80405W        W39666   6.384  21.218  13.435
80406W        W39667   0.376  39.946   4.208
80407W        W39668  23.011  16.287  13.969
80408W        W39669  24.159  14.212   2.378
80409W        W39670  42.922  26.071  13.052
80410W        W39671  39.497   6.806   1.432
80411W        W39672  24.586  27.193   1.781
80412W        W39673  23.240  23.663  12.386
80413W        W39674  37.872  23.178  11.500
80414W        W39675  11.234   8.261   3.154
80415W        W39676  26.128   3.811  11.914
80416W        W39677   4.762  30.986   0.858
80417W        W39678  11.132   2.821  13.012
80418W        W39679  31.134  16.087   3.732
80419W        W39680  19.556  23.662   2.735
80420W        W39681  33.912  23.111   4.277
80421W        W39682  23.551  33.570  12.470
80422W        W39683   7.901  21.104   3.868
80423W        W39684  41.825  10.750   0.251
80424W        W39685  44.880  17.115  13.425
80425W        W39686  43.439  10.162  12.884
80426W        W39687  43.814  15.706   0.927
80427W        W39688  29.150  21.564   3.183
80428W        W39689  44.856  28.642  12.410
80429W        W39690  30.993  35.563   3.831
80430W        W39691   2.937  30.149  11.111
80431W        W39692  42.434  16.086   3.153
80432W        W39693  31.004  28.051   4.659
80433W        W39694  43.436   2.448   4.800
80434W        W39695  44.772   2.435  11.489
80435W        W39696   7.417   7.342   1.923
80436W        W39697  27.082   9.282  10.513
80437W        W39698  10.379  36.995  11.534
80438W        W39699   1.915  31.146  11.855
80439W        W39700   2.302   2.446   1.837
80440W        W39701  38.915  42.525   3.371
80441W        W39702  28.938  16.249   1.250
80442W        W39703  27.466  27.054  14.498
80443W        W39704   1.367  24.220  10.472
80444W        W39705  27.594  35.559   1.278
80445W        W39706  18.256  43.389   2.782
80446W        W39707  40.325   1.953   9.926
80447W        W39708  37.340   8.671   3.790
80448W        W39709  34.067  35.477   1.920
80449W        W39710  36.503   0.760   0.314
80450W        W39711   0.823  38.932  10.104
80451W        W39712   8.361  10.652   2.722
80452W        W39713  35.943   0.970  14.030
80453W        W39714  34.570  12.162   2.898
80454W        W39715  36.429  31.130   1.316
80455W        W39716  39.978  41.906  11.087
80456W        W39717  36.527  30.446  12.479
80457W        W39718   8.824   4.376  14.897
80458W        W39719  33.969  38.864  14.914
80459W        W39720  10.228  15.292   4.699
80460W        W39721   4.773  26.174   1.428
80461W        W39722  44.771  23.568   1.301
80462W        W39723   5.892  22.651  12.513
80463W        W39724  33.393   4.390   3.194
80464W        W39725  18.078  12.773  13.382
80465W        W39726   7.356  31.429  13.461
80466W        W39727   7.685  18.289  13.423
80467W        W39728  33.069  19.721  13.896
80468W        W39729  28.635  33.969   4.274
80469W        W39730   7.392  36.923   4.709
80470W        W39731  28.115  41.333   2.274
80471W        W39732  25.105  10.753  13.455
80472W        W39733  44.265  12.650  14.765
80473W        W39734  12.192  32.561  10.612
80474W        W39735   7.780  31.018  12.522
80475W        W39736  12.217   6.731   0.861
80476W        W39737  43.305  23.130   2.676
80477W        W39738  31.641  28.446  13.796
80478W        W39739   5.338  39.518  12.072
80479W        W39740  41.800  23.537   0.360
80480W        W39741  31.469  23.543  11.416
80481W        W39742   2.260   5.752  14.418
80482W        W39743  40.000  24.557   2.351
80483W        W39744  21.646  30.464   4.755
80484W        W39745  44.844  33.927   2.794
80485W        W39746  26.980  29.120  12.937
80486W        W39747  16.653  23.688   4.717
80487W        W39748  23.185   7.820  12.434
80488W        W39749  37.396  39.857   2.868
80489W        W39750  37.498  28.547  11.901
80490W        W39751   1.950  38.853  10.642
80491W        W39752   0.949  12.322  11.010
80492W        W39753  27.623  36.499  14.952
80493W        W39754  44.917   0.772  10.907
80494W        W39755  43.516  43.907   3.346
80495W        W39756  16.186  43.345   1.717
80496W        W39757   7.867  10.158   3.161
80497W        W39758   5.777  13.350  12.430
80498W        W39759  30.420  43.894   0.767
80499W        W39760   0.274  11.711   1.734
80500W        W39761  37.916  18.093   3.677
80501W        W39762  32.974  40.014   2.217
80502W        W39763  23.563  16.645  13.504
80503W        W39764   9.392   3.881  13.506
80504W        W39765  41.533  43.874   4.676
80505W        W39766   5.380  23.051  10.993
80506W        W39767  39.493  30.145   3.170
80507W        W39768  43.315  37.572   2.280
80508W        W39769   7.753  38.493  10.441
80509W        W39770  34.525  24.214  14.384
80510W        W39771   2.448  31.528   0.870
80511W        W39772   3.354  26.127  14.809
80512W        W39773  11.237  17.172   4.281
80513W        W39774  28.459  23.048  11.941
80514W        W39775  30.494  35.440   3.293
80515W        W39776   1.290  39.831  14.836
80516W        W39777  11.183   5.289   9.447
80517W        W39778   5.928  33.063  14.421
80518W        W39779   9.172  14.336   3.155
80519W        W39780  14.143  41.815   2.757
80520W        W39781  33.016  37.546  13.036
80521W        W39782  20.083  33.585   0.406
80522W        W39783   1.303  37.058  14.862
80523W        W39784  23.531  23.081   0.938
80524W        W39785   7.393  36.473   1.272
80525W        W39786   4.810  26.531  11.948
80526W        W39787  23.024   8.305  12.373
80527W        W39788   4.217   2.467   4.648
80528W        W39789  37.021   7.699   2.747
80529W        W39790  14.124  11.760  12.830
80530W        W39791  20.221  27.990   1.909
80531W        W39792  34.899  15.699   2.903
80532W        W39793  35.491   4.435   4.276
80533W        W39794  40.957  18.746  10.599
80534W        W39795  44.785  30.010  12.084
80535W        W39796   4.442  23.133   2.806
80536W        W39797  10.733   6.246  12.957
80537W        W39798  32.459  32.597   1.919
80538W        W39799  11.810   1.825  13.848
80539W        W39800   8.402  32.892   3.760
80540W        W39801  13.267  21.023   1.212
80541W        W39802  15.583  32.510   1.313
80542W        W39803   5.863   2.883   1.374
80543W        W39804  34.559  15.169   4.830
80544W        W39805  20.677  21.639   9.949
80545W        W39806  22.595  14.163  13.842
80546W        W39807  31.052  36.537   1.717
80547W        W39808  15.116   2.422   4.185
80548W        W39809  17.246  44.846  11.447
80549W        W39810  24.151   5.715   4.834
80550W        W39811  29.612  42.527   0.834
80551W        W39812  42.491  41.427   3.755
80552W        W39813  24.223  24.074  14.900
80553W        W39814  28.553  31.581   3.291
80554W        W39815  32.435  40.490  14.393
80555W        W39816   3.283   4.391   2.246
80556W        W39817  43.512  18.256   3.254
80557W        W39818  19.111   8.404   0.359
80558W        W39819  37.946   0.969   0.359
80559W        W39820  31.544  16.307   0.836
80560W        W39821  41.323  31.523  12.084
80561W        W39822  25.681  32.508  11.050
80562W        W39823  19.121  16.202  14.793
80563W        W39824  31.628   1.966   4.131
80564W        W39825  17.300  18.055   1.836
80565W        W39826  40.849   0.906   0.315
80566W        W39827  25.220  26.651   4.303
80567W        W39828   7.183  28.470   1.329
80568W        W39829  13.251  14.682  11.945
80569W        W39830  27.663  44.499   0.422
80570W        W39831   3.757  11.676   4.333
80571W        W39832   4.343  12.200  10.645
80572W        W39833  19.722  34.897   2.850
80573W        W39834   8.825  18.721  13.337
80574W        W39835  27.561  41.022  14.870
80575W        W39836  20.152  18.251  10.936
80576W        W39837  17.212   6.237  14.430
80577W        W39838   3.888  34.454  13.343
80578W        W39839  14.257  18.726  12.019
80579W        W39840  20.159  30.119   2.692
80580W        W39841  14.181  44.883   4.179
80581W        W39842  10.772  20.755   3.323
80582W        W39843   2.960  16.645   3.372
80583W        W39844  18.141  11.315   0.292
80584W        W39845  29.535  11.670  11.986
80585W        W39846  31.959  43.915  10.150
80586W        W39847  41.305  26.543   3.327
80587W        W39848  21.619  44.323  14.311
80588W        W39849  33.465  12.149  11.382
80589W        W39850   5.355  27.961  11.061
80590W        W39851  21.642  42.470  11.476
80591W        W39852   4.208  21.744  13.005
80592W        W39853  23.559  15.688   0.828
80593W        W39854  23.589  17.780   0.481
80594W        W39855  41.483  10.723   4.620
80595W        W39856  28.172  24.155  12.867
80596W        W39857  17.158  18.654  11.473
80597W        W39858  20.047  17.679  11.506
80598W        W39859  39.991  40.863   0.320
80599W        W39860  18.624  44.858  13.474
80600W        W39861  13.141  31.609  10.453
80601W        W39862   9.366   5.398   3.295
80602W        W39863  28.110  23.646   2.313
80603W        W39864  32.900  17.721  12.383
80604W        W39865   2.295  12.738  14.417
80605W        W39866  43.770   1.960  10.558
80606W        W39867  44.304   0.259   3.326
80607W        W39868  32.404  11.236   2.711
80608W        W39869  31.529  15.762  11.552
80609W        W39870  28.472  38.953  13.880
80610W        W39871  40.364  25.027  13.373
80611W        W39872  36.846  12.653   2.878
80612W        W39873  34.579  13.712   0.796
80613W        W39874  42.818   9.768   0.404
80614W        W39875  35.989  11.194   1.293
80615W        W39876  20.214  15.085  11.599
80616W        W39877  43.774  40.855   2.365
80617W        W39878  35.068  10.147   2.704
80618W        W39879  29.041   4.207  12.955
80619W        W39880  41.896   5.389  10.443
80620W        W39881  32.557  39.424   3.377
80621W        W39882  14.612   3.263   3.793
80622W        W39883  22.218   5.778  14.982
80623W        W39884  35.099  40.881  11.481
80624W        W39885  37.575   2.789   3.163
80625W        W39886  18.290  21.689  12.092
80626W        W39887  35.577  15.747  12.432
80627W        W39888  44.423  33.114  12.484
80628W        W39889  41.304   5.688  13.919
80629W        W39890   7.262  34.911   1.312
80630W        W39891  22.029   1.325   4.326
80631W        W39892   0.959   1.296   1.922
80632W        W39893  32.472   7.283   4.784
80633W        W39894  36.405  39.043   4.677
80634W        W39895  28.149  33.958  13.846
80635W        W39896   4.750  11.681  14.498
80636W        W39897   5.836  28.071   2.793
80637W        W39898  34.989   7.765  12.081
80638W        W39899  12.700  11.178   4.147
80639W        W39900  35.434   5.900  14.451
80640W        W39901  35.555   9.846   1.835
80641W        W39902   9.207   6.254   3.662
80642W        W39903   8.848  34.016   2.412
80643W        W39904   4.393  28.956  11.528
80644W        W39905  33.409  17.167  12.514
80645W        W39906   2.297  13.333  14.431
80646W        W39907  29.948  28.138   1.845
80647W        W39908  14.191  31.125  10.526
80648W        W39909   1.825  22.607  12.033
80649W        W39910  28.123   3.750  11.481
80650W        W39911  26.653  22.742   1.797
80651W        W39912  42.007   8.865   0.967
80652W        W39913  30.497  40.000  14.482
80653W        W39914   4.894  18.179   2.796
80654W        W39915  43.769  39.057   1.777
80655W        W39916  10.843  34.434  12.903
80656W        W39917  15.099   5.928  14.953
80657W        W39918   4.279  17.175  13.478
80658W        W39919  15.327   3.336   3.702
80659W        W39920  16.168  25.125  13.021
80660W        W39921   6.342  29.094  11.970
80661W        W39922  35.381  39.969   2.747
80662W        W39923  18.056  27.097   4.179
80663W        W39924  34.522  34.881   1.264
80664W        W39925  20.124  35.080  12.991
80665W        W39926   1.913  27.494   4.324
80666W        W39927  19.597  24.539  12.966
80667W        W39928  41.458  11.851  11.055
80668W        W39929  13.147   1.840  12.442
80669W        W39930  20.738  38.472   4.724
80670W        W39931  29.174  15.725  10.142
80671W        W39932  12.304   5.903  13.373
80672W        W39933  15.729   9.650  10.998
80673W        W39934  13.667  38.958   2.854
80674W        W39935  40.467  15.817   1.430
80675W        W39936  43.472  27.991  12.043
80676W        W39937  14.637   5.197  14.775
80677W        W39938  43.895  34.381  13.882
80678W        W39939   9.667  32.122   4.782
80679W        W39940  14.307  24.478  13.830
80680W        W39941  23.585  13.246   0.747
80681W        W39942  30.539  34.917   3.737
80682W        W39943  17.220  22.059  13.404
80683W        W39944  42.784   2.230  11.479
80684W        W39945   0.348  14.681  13.813
80685W        W39946  18.120  33.999  14.906
80686W        W39947  26.631  38.855   2.396
80687W        W39948  26.469  12.330  14.396
80688W        W39949  20.612  39.909  10.903
80689W        W39950  29.445   3.230   1.795
80690W        W39951  22.073  42.355   3.191
80691W        W39952   8.866  20.243   1.250
80692W        W39953  40.878  41.957  12.090
80693W        W39954  41.993  24.629   4.812
80694W        W39955  31.586  34.590   2.777
80695W        W39956  38.542  10.647  12.837
80696W        W39957   1.834  20.609  14.886
80697W        W39958   7.256   3.859   5.182
80698W        W39959  21.234   9.800   3.326
80699W        W39960  39.849   1.814  10.888
80700W        W39961  16.254  37.448  12.391
80701W        W39962  16.228  28.681   4.745
80702W        W39963   3.866  31.045   3.308
80703W        W39964  43.955   0.437  14.410
80704W        W39965  33.485  20.735  11.579
80705W        W39966   4.749  43.468   0.742
80706W        W39967  41.961  34.873  14.860
80707W        W39968  26.465  18.251  11.582
80708W        W39969  40.375  26.129  14.889
80709W        W39970  37.003   5.258   0.351
80710W        W39971   4.733  31.583  13.983
80711W        W39972   8.665  41.521  14.403
80712W        W39973  23.238   7.719   2.677
80713W        W39974  28.989   3.790   3.234
80714W        W39975   9.194  23.619   4.606
80715W        W39976  12.713  19.668  10.516
80716W        W39977  30.007  30.987   4.741
80717W        W39978   5.251   6.202  12.370
80718W        W39979  29.009  19.166   0.329
80719W        W39980   4.910  28.040  13.968
80720W        W39981  11.335   9.760  14.878
80721W        W39982  18.232  36.993   0.813
80722W        W39983  33.402  43.950   4.282
80723W        W39984   9.866  14.745   3.212
80724W        W39985  30.122  22.010   2.746
80725W        W39986  21.744  38.890  12.849
80726W        W39987  43.500  42.458   3.805
80727W        W39988   0.438  15.219   3.635
80728W        W39989   1.913   7.850   3.242
80729W        W39990  14.722  38.015   3.814
80730W        W39991  34.577  33.511  11.461
80731W        W39992  32.076  36.915  13.459
80732W        W39993   5.294  27.978  12.349
80733W        W39994  15.740  29.932   0.931
80734W        W39995  27.066   7.264  13.983
80735W        W39996  17.721  13.826  11.911
80736W        W39997  28.514  10.141   0.414
80737W        W39998  39.925   3.857   0.844
80738W        W39999  34.591  43.960  13.369
80739W        W40000  10.807  31.568   2.265
80740W        W40001  40.873  24.996   3.257
80741W        W40002  39.819  36.862  13.526
80742W        W40003  40.425  41.932   3.242
80743W        W40004  17.798   0.428  11.024
80744W        W40005  26.584  15.316   4.806
80745W        W40006  11.218  24.562   2.363
80746W        W40007  33.603  35.548  11.391
80747W        W40008  44.321  44.338  14.501
80748W        W40009  20.563   8.704  13.975
80749W        W40010  24.185  30.996  13.912
80750W        W40011  15.211  14.731   0.796
80751W        W40012   5.860   0.878  10.469
80752W        W40013  41.445  32.510  10.994
80753W        W40014  30.134  26.579   3.723
80754W        W40015  15.601  29.600   2.852
80755W        W40016  35.918  39.369   1.387
80756W        W40017   4.329  13.183  10.409
80757W        W40018   8.789  27.171   0.797
80758W        W40019  21.551  43.936   3.206
80759W        W40020  33.977  32.018  14.801
80760W        W40021  12.675   5.857  11.983
80761W        W40022  43.373  15.765   4.826
80762W        W40023  44.865   7.689  14.843
80763W        W40024   0.374  32.400   1.901
80764W        W40025   5.251  39.315   2.769
80765W        W40026   6.220   8.750   0.885
80766W        W40027  25.475  11.253   2.197
80767W        W40028  18.678   0.805  10.995
80768W        W40029  24.612  15.145  11.561
80769W        W40030   5.362  16.706  10.607
80770W        W40031  18.206  20.148  13.527
80771W        W40032  28.956   5.311  14.377
80772W        W40033  34.453  17.147   3.773
80773W        W40034  41.328  35.858  13.043
80774W        W40035  43.506  29.458  11.383
80775W        W40036  27.484  23.515  14.846
80776W        W40037   5.926  31.950   0.318
80777W        W40038   2.426  43.405   1.214
80778W        W40039  44.406   3.220  12.089
80779W        W40040  17.092  17.775  14.921
80780W        W40041   8.338  40.978  13.321
80781W        W40042  22.536  44.832   3.718
80782W        W40043  36.853  40.967   3.665
80783W        W40044  14.135   3.382  11.504
80784W        W40045   3.873   1.844   0.727
80785W        W40046  10.289  12.159   1.338
80786W        W40047  39.434  11.698  13.495
80787W        W40048  39.912  27.487  14.905
80788W        W40049  30.073  18.743  10.409
80789W        W40050  17.780  24.587  12.086
80790W        W40051  33.075  42.408   1.252
80791W        W40052  32.597  10.714  14.971
80792W        W40053  34.484  20.600  10.427
80793W        W40054  19.739  10.721   0.802
80794W        W40055  13.160  15.816   4.178
80795W        W40056   7.298  42.357   3.844
80796W        W40057  28.061  42.918   3.199
80797W        W40058  31.422   2.941   1.920
80798W        W40059  41.425   5.245   3.629
80799W        W40060   1.791   0.853  13.341
80800W        W40061  29.615   1.944  14.860
80801W        W40062  32.435   9.740  14.415
80802W        W40063  31.103  21.700   1.767
80803W        W40064  30.419   3.837   4.115
80804W        W40065   5.789  32.897   4.722
80805W        W40066  24.078  22.695  14.002
80806W        W40067  40.964  38.912   4.251
80807W        W40068  32.407  27.628   4.786
80808W        W40069  39.978   9.262   3.771
80809W        W40070  23.195  15.196  12.029
80810W        W40071  25.018  41.438   2.892
80811W        W40072  13.656  44.429  11.882
80812W        W40073  36.577  29.146  11.583
80813W        W40074   6.408  27.612   3.710
80814W        W40075  11.631  35.092   3.741
80815W        W40076   7.200  27.950  14.828
80816W        W40077  38.895  34.595   4.751
80817W        W40078  34.909  32.901  14.322
80818W        W40079  20.267   4.866  14.831
80819W        W40080  37.883  29.602  11.127
80820W        W40081  44.779  40.322   4.710
80821W        W40082  22.091  17.579   1.718
80822W        W40083  28.985  30.652  14.885
80823W        W40084  38.476  11.724   2.807
80824W        W40085  23.707  21.204   1.770
80825W        W40086   6.760  24.562   4.205
80826W        W40087  14.629  13.789  11.469
80827W        W40088  38.066   8.240   3.303
80828W        W40089  41.985  24.513   0.437
80829W        W40090  23.651  37.010  14.873
80830W        W40091  26.955   7.777   1.365
80831W        W40092  15.206  35.984  10.592
80832W        W40093  41.533   4.339   2.302
80833W        W40094   1.869   1.377   1.278
80834W        W40095   5.740   4.279   2.720
80835W        W40096   2.334  23.090   2.417
80836W        W40097  36.514   0.959  12.578
80837W        W40098   9.657  24.143  10.623
80838W        W40099  28.102  21.701  14.960
80839W        W40100  33.027  26.667   3.310
80840W        W40101   0.896  31.548  14.926
80841W        W40102  21.632   6.912   2.260
80842W        W40103  41.812  16.697  12.444
80843W        W40104  32.564  21.652   2.732
80844W        W40105  43.923  15.293   5.740
80845W        W40106  13.318  26.044  12.340
80846W        W40107  14.741  24.588  12.557
80847W        W40108  31.067  42.855   5.135
80848W        W40109  30.910  33.487   2.346
80849W        W40110  31.584  33.992   0.398
80850W        W40111  15.103  34.416  12.390
80851W        W40112   8.163   3.402  13.536
80852W        W40113  21.631   4.393   1.817
80853W        W40114  11.170  44.860   4.715
80854W        W40115  25.588  19.630   3.868
80855W        W40116  43.908  23.037   4.820
80856W        W40117  20.757   6.783  11.414
80857W        W40118  37.400   7.704  12.992
80858W        W40119  18.738  11.680   1.908
80859W        W40120  26.993  42.990  13.434
80860W        W40121   0.249  42.393   0.285
80861W        W40122  31.121  13.684  14.443
80862W        W40123   0.462  27.521   4.797
80863W        W40124  36.920  21.591   0.857
80864W        W40125   2.877   0.367  12.967
80865W        W40126   7.394  42.874  13.482
80866W        W40127  16.657  12.190   0.437
80867W        W40128  19.754   7.184   1.431
80868W        W40129  25.470  23.121   1.805
80869W        W40130   8.294  34.868  13.358
80870W        W40131  37.576   9.258  11.898
80871W        W40132   1.751  44.819  11.413
80872W        W40133   2.267  26.130  13.471
80873W        W40134  11.164   9.317   2.753
80874W        W40135   4.432  30.125   4.734
80875W        W40136  43.017  36.443   1.294
80876W        W40137   4.259   2.957   2.880
80877W        W40138  41.826  28.532   3.820
80878W        W40139  15.203  40.826  12.882
80879W        W40140  42.411  12.785  13.397
80880W        W40141   2.284  34.423  14.012
80881W        W40142  16.139  41.960   3.376
80882W        W40143   0.945  15.260  12.553
80883W        W40144  37.420   3.393   1.784
80884W        W40145   8.777  16.595  10.499
80885W        W40146  16.230  14.634   0.347
80886W        W40147  15.087   0.276   0.393
80887W        W40148  22.036  11.291   4.285
80888W        W40149   1.754  30.613   4.170
80889W        W40150  42.806   1.454  11.605
80890W        W40151  20.114  12.756  11.576
80891W        W40152   3.786  32.598   0.330
80892W        W40153  40.904  30.095   1.343
80893W        W40154  43.779  18.545  14.504
80894W        W40155  31.617   4.936  12.956
80895W        W40156  29.584  21.253   5.184
80896W        W40157   2.818  37.464  12.497
80897W        W40158  12.199  44.335  12.864
80898W        W40159   4.310  44.388  10.943
80899W        W40160   2.285  15.731   0.760
80900W        W40161  22.673   6.252   3.746
80901W        W40162  36.402  33.118  11.416
80902W        W40163  18.074   5.788   1.865
80903W        W40164  21.097  29.141   9.989
80904W        W40165  30.927  40.336   3.168
80905W        W40166  33.104   7.827   0.385
80906W        W40167  34.529  33.992  12.457
80907W        W40168  39.021  13.793   3.809
80908W        W40169   2.234  40.975  12.340
80909W        W40170  26.652  43.374   1.307
80910W        W40171  26.697  13.673   1.223
80911W        W40172  42.366  12.116  10.454
80912W        W40173  12.151  13.621   0.848
80913W        W40174  19.726  23.715   0.967
80914W        W40175  15.690  28.116  13.414
80915W        W40176  31.469  30.594  10.418
80916W        W40177  20.732  31.561   1.336
80917W        W40178   1.742   6.336  11.914
80918W        W40179  28.164  18.628   4.141
80919W        W40180  28.006  27.168   4.772
80920W        W40181  33.928  28.487  14.468
80921W        W40182   9.306  26.136   2.197
80922W        W40183  31.576  27.645   4.270
80923W        W40184  13.270  25.987   3.208
80924W        W40185  29.080   4.825   1.730
80925W        W40186  35.990  24.621   1.346
80926W        W40187   6.907  35.462  11.388
80927W        W40188  42.289   7.229  11.972
80928W        W40189  12.353   9.240   3.800
80929W        W40190  26.601  18.622   4.126
80930W        W40191  44.774   4.205   1.326
80931W        W40192  11.299  33.562  12.001
80932W        W40193  38.014  20.566  11.921
80933W        W40194  17.162  10.637   1.702
80934W        W40195  17.258   1.752   4.686
80935W        W40196  32.633  15.222   2.286
80936W        W40197  30.939  17.172  10.504
80937W        W40198  43.823  35.977  13.810
80938W        W40199  43.903   0.341   2.698
80939W        W40200   2.742  19.128   2.731
80940W        W40201  30.599  11.814   0.736
80941W        W40202  28.516  39.959  13.336
80942W        W40203   6.873  14.795   0.262
80943W        W40204  25.600  44.754  12.973
80944W        W40205  37.387  19.236   4.290
80945W        W40206   0.862  16.639  14.310
80946W        W40207  21.730   1.307  11.116
80947W        W40208  28.146  15.322  10.115
80948W        W40209  18.073  10.790   1.889
80949W        W40210   5.210  17.114  11.887
80950W        W40211  27.992  15.264   2.341
80951W        W40212   5.895  17.285  11.529
80952W        W40213  14.703  10.867   3.750
80953W        W40214   6.798  10.313  13.495
80954W        W40215  10.237  35.863   1.753
80955W        W40216  44.275  36.997  13.541
80956W        W40217   9.346  18.102   0.458
80957W        W40218   5.199  39.460   1.856
80958W        W40219  24.562   9.308  13.021
80959W        W40220  43.020  30.620   3.724
80960W        W40221  34.503  17.717   4.740
80961W        W40222  38.834   0.947  14.295
80962W        W40223  42.809   0.372   3.371
80963W        W40224  11.738  29.451  11.947
80964W        W40225  35.986  24.623  11.020
80965W        W40226  25.518   7.362  10.092
80966W        W40227   1.393  43.976   1.378
80967W        W40228  12.834   7.405   2.190
80968W        W40229  23.666  10.833  12.872
80969W        W40230  43.423  23.984  13.352
80970W        W40231  31.440   3.310   1.346
80971W        W40232  14.833  22.718   1.265
80972W        W40233  44.941  32.135   4.280
80973W        W40234  25.189  25.504  13.371
80974W        W40235  32.070  13.336  12.518
80975W        W40236  36.926  24.569   4.838
80976W        W40237  30.487  37.859  13.340
80977W        W40238  19.732  38.038  10.441
80978W        W40239  43.883  33.461   0.735
80979W        W40240   0.378  18.129   4.211
80980W        W40241  22.700  14.815   3.647
80981W        W40242  22.009  30.030  14.942
80982W        W40243  27.549  44.881  12.515
80983W        W40244   1.334  21.745   3.216
80984W        W40245   9.269   7.902   0.396
80985W        W40246  31.508  23.724   3.176
80986W        W40247  30.926   3.335   5.315
80987W        W40248  16.193  12.248   0.350
80988W        W40249  26.634  11.293   0.445
80989W        W40250  24.075  41.412   1.398
80990W        W40251  19.186  15.781   0.314
80991W        W40252  34.435  40.836   3.766
80992W        W40253   6.280  40.402   2.322
80993W        W40254  16.107  20.661   0.752
80994W        W40255  32.917  41.468   3.785
80995W        W40256  37.953  13.711  14.972
80996W        W40257  33.477   1.443   0.454
80997W        W40258  35.946  23.505  13.924
80998W        W40259  41.823   9.211   1.743
80999W        W40260  26.691  22.133  13.542
81000W        W40261  25.559   8.812   1.715
81001W        W40262  36.999  12.333   0.812
81002W        W40263  24.714  39.950   3.708
81003W        W40264   4.745  10.716  13.321
81004W        W40265  41.354   4.885  10.434
81005W        W40266   9.265   7.302  14.760
81006W        W40267   1.251   2.438  10.905
81007W        W40268   6.332  25.082  14.429
81008W        W40269   5.286  40.925  14.479
81009W        W40270  25.095  26.049  11.490
81010W        W40271  32.405  18.582  14.848
81011W        W40272  10.362  29.442   1.843
81012W        W40273   6.747  16.243  11.855
81013W        W40274  17.114  23.101  14.292
81014W        W40275  17.188  17.600   2.737
81015W        W40276   6.398   1.478   0.946
81016W        W40277  22.219  21.026   4.817
81017W        W40278  26.507   9.326   1.874
81018W        W40279   6.348  13.645   2.229
81019W        W40280   0.302  33.468   2.891
81020W        W40281  42.324  13.219   0.813
81021W        W40282  36.091  29.073   4.166
81022W        W40283  15.732   4.260  13.947
81023W        W40284  28.126  20.096   2.686
81024W        W40285  24.216   3.261   2.393
81025W        W40286  13.264  17.268   2.266
81026W        W40287   1.425  35.491   3.334
81027W        W40288  29.571  15.744   2.225
81028W        W40289  22.657  30.116  14.326
81029W        W40290  12.616  26.588   3.346
81030W        W40291   8.736  32.455   4.707
81031W        W40292  25.697   4.221  11.583
81032W        W40293   7.334  27.127  12.540
81033W        W40294  29.448  26.132  14.337
81034W        W40295  17.654  26.079   3.295
81035W        W40296  11.704  22.245  14.482
81036W        W40297  42.505  31.007  12.824
81037W        W40298  41.514  32.129   2.278
81038W        W40299  10.312  32.112   3.865
81039W        W40300  10.140  19.167  10.442
81040W        W40301  37.531  44.418   4.184
81041W        W40302  17.303  25.473   2.259
81042W        W40303  40.026  38.007   0.391
81043W        W40304   8.879  19.647  13.434
81044W        W40305   5.390   2.416  11.116
81045W        W40306   9.800  36.470   3.707
81046W        W40307  37.489  20.195   0.420
81047W        W40308  25.599  18.771  10.995
81048W        W40309  33.087  16.699   0.917
81049W        W40310  32.075  15.650  11.473
81050W        W40311  40.005  26.185  13.416
81051W        W40312  23.701  41.494   4.809
81052W        W40313  37.376  23.047   1.236
81053W        W40314   4.389  42.814   3.761
81054W        W40315  25.033  41.489   2.332
81055W        W40316  37.466   4.437  11.950
81056W        W40317  25.169  23.574  11.382
81057W        W40318  40.831  27.688   2.802
81058W        W40319   4.824  33.472   4.697
81059W        W40320  26.980  40.472   3.208
81060W        W40321  29.585  19.065  12.854
81061W        W40322   8.291   6.862   2.787
81062W        W40323   8.841  32.042  14.435
81063W        W40324  21.187  15.205  11.547
81064W        W40325  35.603   3.289  11.593
81065W        W40326  29.092  23.532  11.125
81066W        W40327  36.497  36.543   4.828
81067W        W40328  39.362   6.701  14.765
81068W        W40329  38.851  37.945  13.323
81069W        W40330  23.105  13.637   1.728
81070W        W40331  29.053  13.195   4.744
81071W        W40332   0.977   2.943   3.372
81072W        W40333  33.492  19.093  10.012
81073W        W40334  22.226  15.582  13.387
81074W        W40335   4.441   9.745   3.765
81075W        W40336  18.699  14.116   1.859
81076W        W40337   3.372   1.792   0.379
81077W        W40338  13.149  18.170  13.914
81078W        W40339   6.720  19.130  10.577
81079W        W40340  14.822  22.086   4.662
81080W        W40341  29.542  32.615   0.369
81081W        W40342  23.656  28.172   3.311
81082W        W40343  18.155  22.122   1.916
81083W        W40344   7.868  31.544   4.758
81084W        W40345  20.078  19.548  10.977
81085W        W40346  11.353  25.128   0.443
81086W        W40347  29.641  28.558   1.733
81087W        W40348   1.268   6.350   4.807
81088W        W40349  31.566  18.120   1.268
81089W        W40350  19.049  18.614  13.433
81090W        W40351  34.564  37.951  12.885
81091W        W40352  17.686  36.588   2.335
81092W        W40353  41.790  16.315   0.798
81093W        W40354  33.384  28.466   3.836
81094W        W40355  13.715  32.008  11.906
81095W        W40356  44.006  21.143  10.909
81096W        W40357   1.476  22.189   3.773
81097W        W40358  13.262   1.809  10.916
81098W        W40359  14.129   9.246  10.614
81099W        W40360  14.613  37.978  11.456
81100W        W40361   4.903  11.220   4.667
81101W        W40362  12.822  33.874  14.279
81102W        W40363   6.808  22.627   0.874
81103W        W40364  33.425  14.308   4.295
81104W        W40365  39.543  33.517   0.455
81105W        W40366   4.868   7.851  12.005
81106W        W40367  12.803   5.343   4.754
81107W        W40368  10.209   5.802  11.518
81108W        W40369  27.133  11.289  10.457
81109W        W40370   0.353  29.459   1.332
81110W        W40371  39.438   6.722   4.774
81111W        W40372   2.331  44.453   4.115
81112W        W40373  29.500   7.379   2.711
81113W        W40374  43.863  17.798   3.673
81114W        W40375  33.482  29.598   4.283
81115W        W40376   2.883  26.109   4.747
81116W        W40377  17.135  16.072   1.271
81117W        W40378   6.349   0.869  13.940
81118W        W40379   7.767  42.921  11.572
81119W        W40380   2.314  31.042  12.966
81120W        W40381  20.031  20.257  11.941
81121W        W40382  21.703  31.104   1.297
81122W        W40383   6.280  12.751  14.497
81123W        W40384  41.470  27.090   3.711
81124W        W40385  37.484  18.252  10.900
81125W        W40386   4.714  26.501  10.959
81126W        W40387  32.898  13.612   1.397
81127W        W40388   2.273  18.658   5.096
81128W        W40389   3.781   4.757   9.554
81129W        W40390  41.384  33.957  11.528
81130W        W40391  27.526  28.974  14.354
81131W        W40392  32.082  13.194   0.472
81132W        W40393  23.686  39.832   0.276
81133W        W40394   8.234  13.617   0.880
81134W        W40395  17.198   6.852   2.863
81135W        W40396  11.864  35.066  10.409
81136W        W40397  20.198  23.509  11.862
81137W        W40398  29.134  34.478  10.423
81138W        W40399  17.792  20.079   4.196
81139W        W40400   6.202  13.134  11.538
81140W        W40401   2.414  17.083  11.546
81141W        W40402  42.378  38.903  13.933
81142W        W40403  28.643  34.436  10.927
81143W        W40404  42.521   3.327  12.898
81144W        W40405  26.973  10.207  14.778
81145W        W40406  39.347  19.617  11.956
81146W        W40407   1.366  37.501  12.520
81147W        W40408   5.287  29.999  14.999
81148W        W40409  16.716  22.236  14.812
81149W        W40410  42.423   7.404   1.241
81150W        W40411  40.996   8.896  11.421
81151W        W40412   5.327   8.212  13.885
81152W        W40413  22.046  32.593   2.718
81153W        W40414  35.933  29.556  12.435
81154W        W40415  22.252  32.930  11.035
81155W        W40416  17.255  19.054   2.220
81156W        W40417  27.038  38.824   4.630
81157W        W40418  41.881  34.120   3.377
81158W        W40419  14.337  32.135  12.899
81159W        W40420  44.288  18.280   0.390
81160W        W40421  33.076  14.197   2.863
81161W        W40422   7.873  24.519  14.370
81162W        W40423  21.523  20.148  13.060
81163W        W40424   4.364  20.572  11.495
81164W        W40425  29.509   8.220   1.920
81165W        W40426  21.755  28.523  13.062
81166W        W40427  42.329  11.298   1.290
81167W        W40428  38.523  41.420  10.450
81168W        W40429  19.200  34.545  12.565
81169W        W40430  42.459  16.268  10.951
81170W        W40431  36.441  30.423  11.091
81171W        W40432  38.992   8.711  10.157
81172W        W40433  42.410   3.232   2.395
81173W        W40434  28.535  22.639  14.780
81174W        W40435  40.439  37.855   3.675
81175W        W40436   7.386  15.169   3.837
81176W        W40437   1.824  23.680  10.988
81177W        W40438  30.531  36.500   0.474
81178W        W40439  20.063  10.295   2.731
81179W        W40440  14.227   0.861   5.156
81180W        W40441  31.424  35.904   2.669
81181W        W40442  25.050  28.625  14.864
81182W        W40443  31.454  44.432  13.547
81183W        W40444  10.196  19.246  14.400
81184W        W40445  13.677  19.669   4.343
81185W        W40446  16.199   7.676   1.218
81186W        W40447   1.458  14.242  12.044
81187W        W40448  23.227   5.795   3.267
81188W        W40449  30.076   8.251  11.965
81189W        W40450  32.103  28.506  13.050
81190W        W40451  32.013  11.790  10.970
81191W        W40452  43.797  41.320   3.688
81192W        W40453  41.799  36.940   2.852
81193W        W40454  26.999  39.896   1.836
81194W        W40455   1.441  36.946   3.318
81195W        W40456  39.347  44.914   2.298
81196W        W40457   3.247  40.390  14.934
81197W        W40458   6.824   3.407  10.429
81198W        W40459  21.128  11.857   0.820
81199W        W40460  30.472  39.933  10.421
81200W        W40461   4.212  39.908  12.868
81201W        W40462  29.438  37.537   0.464
81202W        W40463   0.771  20.178   1.243
81203W        W40464   9.179   1.307  13.060
81204W        W40465  21.196  16.808   2.233
81205W        W40466  10.288  32.966   1.279
81206W        W40467   4.210  41.893   0.395
81207W        W40468  13.200  39.380  10.560
81208W        W40469  26.481  21.124  13.350
81209W        W40470  16.270   8.311   2.789
81210W        W40471  44.272   8.272   5.168
81211W        W40472   5.919  43.459  13.964
81212W        W40473  19.193   1.784   0.443
81213W        W40474  11.299  44.979   2.808
81214W        W40475  12.341  26.615  11.453
81215W        W40476  19.234  43.966  11.052
81216W        W40477   8.391  17.236  14.806
81217W        W40478  28.475  44.930  11.481
81218W        W40479  37.981  14.283   1.789
81219W        W40480  11.313   7.687  10.545
81220W        W40481   0.945  42.961   3.334
81221W        W40482  21.624   1.842  11.933
81222W        W40483  17.201  30.063   0.737
81223W        W40484   1.776   8.807  12.091
81224W        W40485  41.886   8.382   2.778
81225W        W40486  23.492   1.803  14.998
81226W        W40487  20.594  28.456   4.700
81227W        W40488  22.650  17.583  13.854
81228W        W40489  38.374  20.053  10.549
81229W        W40490  39.331   3.385   1.778
81230W        W40491  12.687  16.690   4.597
81231W        W40492  11.731  42.296   0.937
81232W        W40493   7.715  10.272  14.013
81233W        W40494  13.816  40.824  11.905
81234W        W40495  26.544  27.146   3.812
81235W        W40496  39.842  35.389   0.753
81236W        W40497  41.855  32.968  13.336
81237W        W40498   0.420   0.841  12.992
81238W        W40499   6.881   5.320   2.377
81239W        W40500  28.532  29.946   2.817
81240W        W40501  20.661  16.254   4.180
81241W        W40502  31.513  19.094  13.502
81242W        W40503   0.877   2.732  10.522
81243W        W40504  29.172  21.167   3.361
81244W        W40505  20.248  40.450   3.692
81245W        W40506  14.747  35.554  14.461
81246W        W40507  20.609  31.088  11.452
81247W        W40508  31.147  24.553  11.393
81248W        W40509   9.234  11.786   4.743
81249W        W40510  18.721  11.639  13.859
81250W        W40511  19.055  23.039  13.031
81251W        W40512  36.056  14.268  13.509
81252W        W40513  13.286  11.637   3.199
81253W        W40514  24.579  16.700  14.016
81254W        W40515  23.533  41.444   0.882
81255W        W40516  31.055  39.053   9.920
81256W        W40517  32.556   3.292   2.240
81257W        W40518  27.089  19.590  12.523
81258W        W40519  34.119  26.131  10.450
81259W        W40520  38.869  24.656   2.841
81260W        W40521   4.276  35.592   4.813
81261W        W40522   0.301   3.397  10.475
81262W        W40523  18.165  44.835  14.790
81263W        W40524  33.954  32.448   2.309
81264W        W40525  40.515  44.924  14.367
81265W        W40526  25.481   5.360  13.391
81266W        W40527  13.111  17.081  12.077
81267W        W40528   7.871  17.644   3.217
81268W        W40529  15.094  44.816  12.543
81269W        W40530  42.886  33.075   2.769
81270W        W40531  21.170  13.176  14.922
81271W        W40532  35.564  28.637  13.821
81272W        W40533  38.518   2.736   0.871
81273W        W40534  44.272   2.882   3.727
81274W        W40535  23.036   4.245  14.814
81275W        W40536  31.543  35.097   4.287
81276W        W40537   0.259  21.518  14.976
81277W        W40538   4.434  22.150  12.359
81278W        W40539   8.847  44.312  14.434
81279W        W40540   9.689  24.175   0.929
81280W        W40541  38.964  35.540   4.821
81281W        W40542   8.853  22.070   0.418
81282W        W40543  34.447  11.233   2.417
81283W        W40544  23.731  37.459  14.902
81284W        W40545   6.183  41.425  12.906
81285W        W40546  26.561  11.331  12.837
81286W        W40547   5.874   5.883   0.461
81287W        W40548  30.522   5.439  13.518
81288W        W40549  12.678  24.155   3.697
81289W        W40550  26.132  43.004  10.938
81290W        W40551  39.391  12.713  11.897
81291W        W40552  43.335  17.649   3.213
81292W        W40553  29.487   1.409   9.924
81293W        W40554  34.613  25.117  14.401
81294W        W40555   3.401   4.287   1.751
81295W        W40556   3.710  19.053  12.860
81296W        W40557   4.851   0.763  14.500
81297W        W40558  30.099  14.636   0.799
81298W        W40559  14.152  38.495  14.458
81299W        W40560  43.991  41.995  11.062
81300W        W40561   4.833  39.424  11.070
81301W        W40562   6.413  31.602   0.335
81302W        W40563  24.605  36.059  14.844
81303W        W40564  40.813  28.601  14.814
81304W        W40565  44.478  31.539   0.476
81305W        W40566   1.848   2.781   4.263
81306W        W40567  11.244  22.225  11.374
81307W        W40568   1.807  33.395  11.396
81308W        W40569  29.112  44.904  11.410
81309W        W40570   8.744  28.105  13.490
81310W        W40571   4.943  40.437  11.958
81311W        W40572  30.101   9.708  12.950
81312W        W40573  16.294  28.574   3.149
81313W        W40574   6.701  21.111  12.355
81314W        W40575  37.030  16.599  12.893
81315W        W40576  11.236  36.920  12.899
81316W        W40577  11.327  44.425   2.836
81317W        W40578  43.803  26.096  12.867
81318W        W40579  35.448  37.480   1.422
81319W        W40580  30.976   4.912  11.571
81320W        W40581  34.507  17.062   0.885
81321W        W40582   1.966  42.021   3.833
81322W        W40583  41.509   2.779  13.459
81323W        W40584  31.088  25.014  10.985
81324W        W40585   9.844   4.289   4.184
81325W        W40586   3.228  27.133  12.407
81326W        W40587  18.686  11.178   0.467
81327W        W40588   3.440  15.724   5.225
81328W        W40589  27.474  33.918   3.339
81329W        W40590  42.929   6.845  13.916
81330W        W40591  19.210  32.965  13.347
81331W        W40592  40.946  43.516   1.770
81332W        W40593  41.376  25.674   0.732
81333W        W40594  20.611  23.984  14.483
81334W        W40595  22.668  44.476  13.433
81335W        W40596  16.277   2.363   1.439
81336W        W40597  29.578  30.435   4.784
81337W        W40598  37.085  22.117  12.034
81338W        W40599  38.996  35.855  10.616
81339W        W40600  32.523  12.206  10.596
81340W        W40601   4.272   2.883  12.955
81341W        W40602   7.307  14.310  11.522
81342W        W40603  27.597  31.589   9.491
81343W        W40604  25.118  31.624   1.387
81344W        W40605  23.600  15.816   1.310
81345W        W40606  42.454  30.644   0.452
81346W        W40607  29.949  41.388  12.924
81347W        W40608   6.894   7.240   2.769
81348W        W40609  13.700  11.717  10.439
81349W        W40610  30.161  12.716  13.862
81350W        W40611  35.568  31.018  13.005
81351W        W40612  26.668  28.135  11.387
81352W        W40613  29.966  37.928   4.616
81353W        W40614  20.582  43.440   3.270
81354W        W40615  15.221  12.751   4.329
81355W        W40616   0.795  33.456   2.806
81356W        W40617  40.407  25.630   1.849
81357W        W40618  38.880  17.130  14.507
81358W        W40619  31.536  31.908   3.251
81359W        W40620  17.106  31.447   1.387
81360W        W40621  15.114   4.744  10.606
81361W        W40622  17.801  19.539  14.776
81362W        W40623  21.052   5.249   0.338
81363W        W40624  24.483  39.473   2.891
81364W        W40625  25.068  38.426   4.309
81365W        W40626  43.509   1.909  12.536
81366W        W40627  25.162   1.331  12.049
81367W        W40628  42.308  26.632   0.453
81368W        W40629  26.092  10.643   4.620
81369W        W40630  27.484   7.337  14.007
81370W        W40631  13.771   1.885  14.982
81371W        W40632  39.897  13.751   1.349
81372W        W40633  21.635  17.131   2.817
81373W        W40634  12.223   0.899   3.210
81374W        W40635  41.970  17.656   2.815
81375W        W40636   2.893  27.001  14.022
81376W        W40637  44.900   2.850  11.549
81377W        W40638  16.149   7.900   2.825
81378W        W40639  36.427  35.521   2.890
81379W        W40640   5.236  40.503   0.453
81380W        W40641  13.638  13.293   1.350
81381W        W40642   6.803   5.721   1.424
81382W        W40643  37.931   9.851   1.834
81383W        W40644  14.181  12.214  11.394
81384W        W40645  33.384  27.072   2.369
81385W        W40646  16.737  20.630  12.966
81386W        W40647  34.537   3.363   1.450
81387W        W40648  28.545   4.737  14.962
81388W        W40649  19.613  27.146   3.169
81389W        W40650   4.906  13.261   0.476
81390W        W40651  40.345  31.433   4.797
81391W        W40652   3.380  42.417   1.239
81392W        W40653   4.380   4.438   1.741
81393W        W40654  27.678  40.416   3.855
81394W        W40655  38.990  12.275   4.319
81395W        W40656   3.370  14.708  14.447
81396W        W40657  42.464  34.868  11.905
81397W        W40658  42.952  23.186  12.049
81398W        W40659   7.899  22.209   3.869
81399W        W40660  17.263  41.879  11.109
81400W        W40661  38.413   4.771   1.317
81401W        W40662  32.581  42.796  14.445
81402W        W40663  36.972  28.628  10.457
81403W        W40664  44.501  44.477   3.196
81404W        W40665  25.033  22.725  10.941
81405W        W40666  34.377   0.414   2.874
81406W        W40667  13.297  32.943  14.351
81407W        W40668  40.897  35.484   4.250
81408W        W40669  12.771  27.461   3.328
81409W        W40670  28.157  10.210  11.520
81410W        W40671  40.421   4.353  13.442
81411W        W40672   2.300   7.779   2.856
81412W        W40673   0.351  43.021  10.492
81413W        W40674  33.431  42.003  10.472
81414W        W40675  27.954   9.855  12.050
81415W        W40676   2.753  28.632   0.860
81416W        W40677   1.731   3.279   3.353
81417W        W40678  27.474  24.145   1.847
81418W        W40679  31.572   2.828  11.086
81419W        W40680  13.844   7.243   1.718
81420W        W40681   3.788  15.192  12.004
81421W        W40682  43.409  27.485  12.063
81422W        W40683   3.747  34.523   0.414
81423W        W40684  15.316  12.676   2.759
81424W        W40685  17.189  39.936  11.559
81425W        W40686  22.144  26.622  13.498
81426W        W40687   6.224  42.448  11.119
81427W        W40688  26.617  25.107  13.508
81428W        W40689  19.658  17.131  11.019
81429W        W40690  23.028  26.198   1.806
81430W        W40691  35.435  14.167   2.808
81431W        W40692  22.720   8.858  12.392
81432W        W40693  18.654  30.036  13.952
81433W        W40694   6.761  21.513  11.102
81434W        W40695  36.978  36.053  10.594
81435W        W40696   7.385  21.711  11.528
81436W        W40697  22.700  41.826   1.905
81437W        W40698   7.840  25.144  10.138
81438W        W40699   7.313  35.027   3.274
81439W        W40700   7.275  18.126   4.741
81440W        W40701  10.708  14.771   4.597
81441W        W40702  21.089   3.349   3.224
81442W        W40703  12.134   9.183  13.934
81443W        W40704  43.795  24.551   2.298
81444W        W40705  30.095   7.708  14.910
81445W        W40706  40.378  33.010   2.217
81446W        W40707  42.470  21.087   4.177
81447W        W40708   7.893   0.492  13.487
81448W        W40709  34.428  13.637   3.801
81449W        W40710   1.900  26.017   4.630
81450W        W40711  22.637  31.121  13.436
81451W        W40712  30.116  29.570  11.055
81452W        W40713  26.575   8.362   1.260
81453W        W40714  25.486  17.263  13.406
81454W        W40715  14.635  19.171  12.372
81455W        W40716  30.916   7.762   4.810
81456W        W40717   0.378  28.634  13.422
81457W        W40718  16.621  42.334   3.247
81458W        W40719  13.731  43.479  13.369
81459W        W40720  11.643  41.311  11.601
81460W        W40721   1.824  24.483   0.866
81461W        W40722  44.805  41.021  13.984
81462W        W40723  13.621  33.887   2.893
81463W        W40724  37.065  25.600   1.431
81464W        W40725   8.729   6.415  12.441
81465W        W40726  38.972  41.826  11.861
81466W        W40727  22.535  34.438   4.647
81467W        W40728  22.251  41.424  13.059
81468W        W40729  17.101  40.036   1.888
81469W        W40730  34.944  28.126   0.892
81470W        W40731   5.895   1.324   4.779
81471W        W40732   7.692  27.501   1.360
81472W        W40733  36.069  31.078  13.842
81473W        W40734  34.004  22.695   3.828
81474W        W40735  15.650  30.573   1.905
81475W        W40736  12.652   5.332   2.749
81476W        W40737   7.413  21.073  14.986
81477W        W40738   2.348   7.733  13.808
81478W        W40739  17.588  40.343  11.094
81479W        W40740  32.929  15.181  11.494
81480W        W40741  10.774  43.500   1.356
81481W        W40742  44.867  30.036   1.215
81482W        W40743   7.330  32.125  14.888
81483W        W40744  35.932  13.166   2.793
81484W        W40745  27.568  15.210   0.880
81485W        W40746   0.465  43.340   1.809
81486W        W40747  18.619  35.501   0.887
81487W        W40748  33.603  43.428   5.188
81488W        W40749  38.863  20.128  14.945
81489W        W40750  11.716   9.651   9.921
81490W        W40751  23.524  13.250  13.897
81491W        W40752  15.824   9.785  13.044
81492W        W40753   4.442  20.710  14.982
81493W        W40754  44.417  44.832   5.245
81494W        W40755  40.028  11.334  13.934
81495W        W40756  11.224  17.791  12.998
81496W        W40757  22.686  18.071   0.757
81497W        W40758  16.646  11.340  10.589
81498W        W40759  31.919  43.460   4.136
81499W        W40760  28.961  20.059   4.287
81500W        W40761   4.277  34.083   1.375
81501W        W40762  19.115  24.205   4.821
81502W        W40763   1.331  34.401   0.342
81503W        W40764  25.581  29.589   2.414
81504W        W40765  23.540   3.913  11.989
81505W        W40766  15.822  39.828   1.302
81506W        W40767  26.490  36.443   0.359
81507W        W40768  40.050   9.380   1.909
81508W        W40769  26.557  20.181  12.034
81509W        W40770   2.951   5.739  11.575
81510W        W40771  24.193  33.918  11.534
81511W        W40772  26.513  26.049   0.783
81512W        W40773  44.761  22.533  13.434
81513W        W40774  24.137  21.694   0.248
81514W        W40775  15.799   6.345   3.242
81515W        W40776  31.136  23.172  11.599
81516W        W40777  36.989  22.525  14.389
81517W        W40778  13.158  33.004  14.931
81518W        W40779  34.866  39.044  14.777
81519W        W40780  10.700  38.943   0.859
81520W        W40781  38.346  11.802  13.891
81521W        W40782  31.901  14.108   2.667
81522W        W40783  14.697  41.830   0.772
81523W        W40784   2.395   3.268  14.421
81524W        W40785   3.843  39.864  11.467
81525W        W40786  40.941  15.769   2.235
81526W        W40787  17.062   7.197   4.755
81527W        W40788  12.174  30.421  14.805
81528W        W40789   7.786  12.824   0.740
81529W        W40790  23.633  20.744   5.603
81530W        W40791  14.636  40.815   3.166
81531W        W40792  38.381  10.303  13.460
81532W        W40793  34.866  32.943   3.870
81533W        W40794  18.711  30.956   4.280
81534W        W40795   1.463  24.664   4.244
81535W        W40796   1.822   9.182   0.272
81536W        W40797  16.311  13.720  12.996
81537W        W40798  41.513  31.481   3.229
81538W        W40799  12.684  32.426  12.523
81539W        W40800  10.198  25.127  13.541
81540W        W40801   0.336  38.019   2.292
81541W        W40802   1.915  14.132   2.886
81542W        W40803  16.646   1.331   4.355
81543W        W40804  13.226   3.365   1.257
81544W        W40805  31.060  33.994  12.429
81545W        W40806   2.331  28.497   4.130
81546W        W40807  44.858  38.842  12.508
81547W        W40808   7.666  44.890  12.468
81548W        W40809  13.629   8.307   2.301
81549W        W40810  34.035  28.068  14.834
81550W        W40811  11.192   1.304   3.304
81551W        W40812  20.083  33.885   2.853
81552W        W40813   0.942   0.295  13.013
81553W        W40814  31.952   3.285   9.924
81554W        W40815  14.213   6.383  11.554
81555W        W40816  42.448  26.976  12.994
81556W        W40817   9.852  11.231  14.333
81557W        W40818  11.206  23.647   4.701
81558W        W40819  39.039  32.579   5.144
81559W        W40820  35.380  12.197   1.401
81560W        W40821  12.717   2.376  14.012
81561W        W40822   9.694  33.430   1.859
81562W        W40823  16.623   3.389  12.922
81563W        W40824  12.729  27.552  14.297
81564W        W40825   8.686  38.885  11.895
81565W        W40826  14.202  20.566  13.838
81566W        W40827   7.251  14.779  12.505
81567W        W40828  13.202  37.352   0.745
81568W        W40829  16.704  11.286   0.340
81569W        W40830  23.668  27.956   1.271
81570W        W40831   7.374  41.328   4.119
81571W        W40832  39.408  40.011  12.466
81572W        W40833  18.291   2.379  11.008
81573W        W40834   2.396   9.793  12.022
81574W        W40835  10.238  36.978  10.589
81575W        W40836  37.501  13.112  12.879
81576W        W40837  30.468  35.858   4.820
81577W        W40838  19.245   2.780  13.545
81578W        W40839   7.264   8.769  11.922
81579W        W40840   5.896  13.644  13.008
81580W        W40841  40.945  34.108  14.800
81581W        W40842   8.800  41.941   2.259
81582W        W40843  27.165   0.248  13.505
81583W        W40844  16.708  35.568  14.832
81584W        W40845  43.011  13.712   0.434
81585W        W40846  34.614  31.089   4.751
81586W        W40847   4.810  31.404   3.279
81587W        W40848   2.859  44.848  14.433
81588W        W40849  26.457  15.322  13.049
81589W        W40850  38.535  38.352   3.848
81590W        W40851  19.704  29.579   3.200
81591W        W40852  22.041   7.297   2.852
81592W        W40853  12.622  26.506  12.998
81593W        W40854  22.233  14.340   2.211
81594W        W40855  15.116  14.297   4.273
81595W        W40856  28.627   6.290   3.634
81596W        W40857   4.848  41.450  11.966
81597W        W40858  31.532  31.574   0.407
81598W        W40859   5.425  24.693   4.831
81599W        W40860   4.904   2.291  14.308
81600W        W40861  21.026   7.371   3.833
81601W        W40862   8.222  22.009  11.935
81602W        W40863  26.588  27.028   0.398
81603W        W40864  12.124   4.418  14.402
81604W        W40865  27.959  29.171  12.485
81605W        W40866  44.885  18.085  11.399
81606W        W40867  11.750  21.086   5.157
81607W        W40868  32.920  31.583   2.347
81608W        W40869  35.067   7.185   2.362
81609W        W40870  16.140  26.096   9.487
81610W        W40871   7.721  13.304  12.881
81611W        W40872  28.579  19.648  12.509
81612W        W40873  11.711  41.835   2.191
81613W        W40874  37.985   8.160   4.138
81614W        W40875   5.781  20.198   4.132
81615W        W40876  36.989  13.298   1.385
81616W        W40877  44.818  41.366  13.339
81617W        W40878   3.315  11.371   9.925
81618W        W40879  34.508   4.430   4.709
81619W        W40880   5.299  41.033   2.374
81620W        W40881   2.885   3.386  11.054
81621W        W40882  10.180  31.021  11.004
81622W        W40883   1.860  37.445  12.512
81623W        W40884  10.183  23.490   1.369
81624W        W40885  42.303  10.142  12.360
81625W        W40886   8.680   9.778   0.277
81626W        W40887  37.567  14.652  11.961
81627W        W40888  18.254  31.469   2.315
81628W        W40889   0.897   2.938   2.264
81629W        W40890  12.623  31.085  12.407
81630W        W40891  12.736   3.892   4.242
81631W        W40892  24.505  38.984  14.513
81632W        W40893  18.599  29.563  10.498
81633W        W40894  22.576  43.361  12.959
81634W        W40895  19.178  21.179   2.179
81635W        W40896  13.183   2.440  11.042
81636W        W40897  25.528  40.890  13.041
81637W        W40898  27.580   3.455  12.082
81638W        W40899  36.843  21.621   3.214
81639W        W40900  29.158   6.708  12.830
81640W        W40901  13.777  44.357   0.439
81641W        W40902  11.350  30.020  13.037
81642W        W40903   0.458  34.408  13.005
81643W        W40904  20.135  21.046   2.817
81644W        W40905  40.385  16.200   2.852
81645W        W40906  42.802   9.876   4.298
81646W        W40907  16.602   9.739  10.572
81647W        W40908  22.652  30.565  10.019
81648W        W40909   4.256  28.479   0.378
81649W        W40910   4.383  16.643   0.956
81650W        W40911  31.910  32.096   3.156
81651W        W40912  20.063  33.420   2.313
81652W        W40913   6.329  36.028   4.807
81653W        W40914  29.515  18.645  12.492
81654W        W40915  31.568  30.029  14.299
81655W        W40916   8.299  42.303   3.371
81656W        W40917  37.499  18.616  14.329
81657W        W40918   1.380   7.790  14.391
81658W        W40919  24.998  32.990   1.254
81659W        W40920  23.693  17.195  12.442
81660W        W40921  16.744  13.744   0.786
81661W        W40922  33.625  31.631   2.191
81662W        W40923  20.610  16.790  11.471
81663W        W40924   4.889   5.892   0.745
81664W        W40925  10.759  22.635   9.956
81665W        W40926   7.821  38.374   1.375
81666W        W40927  43.325  22.665  14.430
81667W        W40928  21.653   4.431  10.956
81668W        W40929  38.901  16.667   3.272
81669W        W40930  23.645   4.291  13.911
81670W        W40931  12.630  21.706  11.557
81671W        W40932   2.865  35.081  10.638
81672W        W40933   5.860  13.271   2.899
81673W        W40934  24.563  43.507   3.292
81674W        W40935   3.908  24.651   2.399
81675W        W40936   7.232  29.580   2.664
81676W        W40937  36.911   2.967   3.704
81677W        W40938  35.435  11.190   3.762
81678W        W40939  18.057   2.947  12.048
81679W        W40940   5.434  13.612  12.848
81680W        W40941  13.728  31.906   2.786
81681W        W40942   6.857  44.980   2.673
81682W        W40943  42.883  31.035  12.577
81683W        W40944   1.346  16.223   1.788
81684W        W40945   9.294  17.187   1.263
81685W        W40946  27.165  13.143  13.470
81686W        W40947  39.432  34.402  14.484
81687W        W40948   2.454   2.424  10.576
81688W        W40949  35.417   4.220  11.921
81689W        W40950  37.420  42.029   4.668
81690W        W40951  32.509  39.413  14.852
81691W        W40952  26.574   4.322   3.147
81692W        W40953  10.302  36.554   2.326
81693W        W40954  38.414  32.517  14.393
81694W        W40955  29.559  15.634  12.969
81695W        W40956  13.275  35.513   1.295
81696W        W40957   5.264  42.399   2.255
81697W        W40958  28.082   2.923   1.839
81698W        W40959   0.390  17.692  10.587
81699W        W40960  12.153  25.039  14.462
81700W        W40961  12.278  44.421  11.585
81701W        W40962   3.913  29.448  10.450
81702W        W40963  40.933  19.110  11.459
81703W        W40964  31.482   3.434  10.560
81704W        W40965  18.622   1.739  13.852
81705W        W40966   4.750  36.486   0.760
81706W        W40967  12.273  25.009  13.033
81707W        W40968  36.574   0.439  10.888
81708W        W40969  25.616  38.046   3.859
81709W        W40970  40.865   0.357   4.607
81710W        W40971  20.678  17.062  11.610
81711W        W40972  13.312  38.491   4.156
81712W        W40973  44.787  18.105   2.770
81713W        W40974  43.372   4.777   0.925
81714W        W40975  29.550   3.223  12.903
81715W        W40976   9.740   0.298  10.603
81716W        W40977  23.533  34.581   2.773
81717W        W40978  12.315  31.576   1.381
81718W        W40979   0.955  11.837   2.857
81719W        W40980  13.179   4.306   4.335
81720W        W40981  14.158  40.982  12.557
81721W        W40982  39.049   7.835   4.777
81722W        W40983  42.507  24.990  12.948
81723W        W40984  11.279   3.353   4.162
81724W        W40985  36.404  14.710   4.622
81725W        W40986  37.071  43.977  12.949
81726W        W40987   3.752  25.070  12.536
81727W        W40988  35.942   4.721   0.807
81728W        W40989  26.039  27.457  11.455
81729W        W40990   5.253   5.373   3.243
81730W        W40991  29.461  39.541  12.469
81731W        W40992  18.747  23.199  14.510
81732W        W40993  28.531  11.303   2.703
81733W        W40994  27.180  11.757   3.206
81734W        W40995   0.286   1.441  14.881
81735W        W40996  26.576  13.777   3.342
81736W        W40997  38.043  42.881   1.721
81737W        W40998  42.889  39.038   0.781
81738W        W40999  32.113   1.813   4.694
81739W        W41000   7.761  17.284   3.383
81740W        W41001  39.380  20.641  11.536
81741W        W41002  17.601  38.509   2.831
81742W        W41003  39.852   4.813  12.033
81743W        W41004  11.773  39.836   4.190
81744W        W41005  36.356  41.031  13.845
81745W        W41006   8.269   0.344   4.717
81746W        W41007   8.312  26.457  10.953
81747W        W41008  36.949   3.232   2.360
81748W        W41009  25.665  44.455   5.096
81749W        W41010   5.879  26.587  12.048
81750W        W41011  19.130  26.025   2.772
81751W        W41012  30.576  13.760   2.208
81752W        W41013   6.387   3.737  11.106
81753W        W41014  23.678  12.725  12.400
81754W        W41015  28.618  37.003   2.237
81755W        W41016   9.253  39.346  11.587
81756W        W41017   3.434   7.244  11.539
81757W        W41018  25.596  29.125   5.638
81758W        W41019  41.415   9.887  14.852
81759W        W41020  14.309  44.833  11.507
81760W        W41021  39.970  30.637  13.017
81761W        W41022  10.261  13.783  13.840
81762W        W41023  36.958   5.317  12.468
81763W        W41024  40.476   8.827  12.406
81764W        W41025   4.922  13.187  13.431
81765W        W41026  22.649  25.170  11.462
81766W        W41027  35.951   2.823  10.972
81767W        W41028  26.116   6.796  12.362
81768W        W41029  26.559  30.552   0.791
81769W        W41030   3.829  26.628   2.773
81770W        W41031   6.897  12.310   3.280
81771W        W41032   5.848  40.471   0.388
81772W        W41033   1.892   0.921   3.641
81773W        W41034   3.377  18.614   1.291
81774W        W41035  12.232  24.108   0.899
81775W        W41036  18.073  41.799  10.566
81776W        W41037  40.424   8.305   1.786
81777W        W41038  37.832  19.097   4.204
81778W        W41039  42.932  14.598   1.339
81779W        W41040  20.550  16.298   0.476
81780W        W41041   4.859  24.026  10.539
81781W        W41042  36.429  27.011  13.968
81782W        W41043  12.253   4.893  13.980
81783W        W41044   8.315  40.803   4.707
81784W        W41045  39.359  31.442   0.338
81785W        W41046   0.426  33.061   3.658
81786W        W41047  26.576  11.272  11.017
81787W        W41048  32.579  43.358  11.589
81788W        W41049  32.420  29.970  14.337
81789W        W41050  41.440  18.147   3.309
81790W        W41051  31.626  27.942   0.277
81791W        W41052  29.667  39.825  14.021
81792W        W41053   9.712   6.298  12.540
81793W        W41054   2.896   4.331  12.873
81794W        W41055  31.018  23.147  14.931
81795W        W41056  29.009   9.865  11.947
81796W        W41057  16.280  35.400  11.982
81797W        W41058  14.163   3.759  14.442
81798W        W41059   7.400  10.380  13.370
81799W        W41060  35.366  36.853  13.518
81800W        W41061  34.045  19.090  14.497
81801W        W41062  11.758  12.616  14.847
81802W        W41063  20.168  16.811   5.098
81803W        W41064  33.018  13.752   2.398
81804W        W41065  17.667   2.439  13.484
81805W        W41066  34.932   5.200   3.748
81806W        W41067   6.689   1.451   1.321
81807W        W41068  36.434  20.086   4.651
81808W        W41069  31.973   4.774   0.956
81809W        W41070   1.473   6.777   1.894
81810W        W41071  43.992  25.008   4.772
81811W        W41072   0.940  30.480  10.895
81812W        W41073  25.533  14.765  11.531
81813W        W41074  43.499  43.382   3.252
81814W        W41075  37.970  15.803  11.418
81815W        W41076   4.262  23.132  14.963
81816W        W41077  38.022   6.258   3.369
81817W        W41078   2.342  31.477  13.940
81818W        W41079  33.393  36.077   1.922
81819W        W41080  44.867   3.859   4.312
81820W        W41081   7.177   6.828  11.962
81821W        W41082   2.904  14.331   2.706
81822W        W41083  28.627  31.629  12.843
81823W        W41084   9.841  18.773  11.380
81824W        W41085  25.086  24.167  10.917
81825W        W41086  10.810  29.535   3.739
81826W        W41087  32.071  42.798  10.020
81827W        W41088  39.982  15.287   2.327
81828W        W41089  12.156  25.532  12.348
81829W        W41090  18.237   6.860   3.193
81830W        W41091  36.353  22.193   4.285
81831W        W41092  43.890   3.459   2.748
81832W        W41093  15.248   4.245   4.692
81833W        W41094  41.880  27.120  12.043
81834W        W41095  39.908  11.710   4.308
81835W        W41096  12.705  18.548   0.816
81836W        W41097  37.420  22.080   0.900
81837W        W41098  33.533  21.643  10.140
81838W        W41099  43.896  30.561   0.747
81839W        W41100  12.336  41.392   2.878
81840W        W41101  44.330  37.006   3.347
81841W        W41102  33.602  41.499   4.272
81842W        W41103  35.025  35.456   2.353
81843W        W41104   1.904  44.317   0.766
81844W        W41105  12.313   4.821  14.438
81845W        W41106   2.337  42.914  13.974
81846W        W41107  32.023  38.489  11.509
81847W        W41108   9.301  33.921  11.503
81848W        W41109   1.413  33.981  14.823
81849W        W41110  35.380  32.606  14.363
81850W        W41111  26.061  10.739  11.486
81851W        W41112  43.311  15.138   3.263
81852W        W41113  34.438   7.695  12.930
81853W        W41114  38.019  29.048   1.881
81854W        W41115   4.254   9.273  14.364
81855W        W41116  34.019   3.216  12.468
81856W        W41117  28.587  25.182   3.156
81857W        W41118  14.626  21.690  12.989
81858W        W41119  44.457  40.478  12.053
81859W        W41120  23.132  42.348  12.903
81860W        W41121  14.109  12.258   3.788
81861W        W41122  23.662   4.891   9.927
81862W        W41123  25.642  21.756  11.054
81863W        W41124  23.168  26.522   1.889
81864W        W41125  26.188  39.525   4.189
81865W        W41126   8.351   9.373   2.849
81866W        W41127   2.897  43.271   0.862
81867W        W41128   2.364  31.643   1.326
81868W        W41129  37.031  27.145   2.830
81869W        W41130  36.519  31.979  14.766
81870W        W41131  14.778  29.176   2.191
81871W        W41132  23.171  18.616  12.997
81872W        W41133   6.230  28.051   5.277
81873W        W41134  20.658  32.915   2.687
81874W        W41135  29.534  22.734   0.755
81875W        W41136  40.863  19.703  14.781
81876W        W41137  36.850  22.085  14.478
81877W        W41138  28.017  44.843   3.746
81878W        W41139  15.231  25.656   9.645
81879W        W41140  40.471   6.788   4.781
81880W        W41141  41.380  35.568  12.489
81881W        W41142  25.072  30.985   2.200
81882W        W41143  41.374  23.235   4.265
81883W        W41144  32.441   8.720   1.748
81884W        W41145  11.642  26.966  12.081
81885W        W41146  26.136  14.154  12.978
81886W        W41147  19.073  23.237   1.707
81887W        W41148  35.554  14.677   3.387
81888W        W41149  25.548  34.476  13.983
81889W        W41150  13.638  34.579   3.221
81890W        W41151   6.916  32.615  12.869
81891W        W41152  42.343  14.792   0.432
81892W        W41153  40.940  19.056  13.504
81893W        W41154  43.421  11.763   4.138
81894W        W41155   0.397   8.403   2.242
81895W        W41156  17.267   0.856  10.489
81896W        W41157  20.180  40.483   3.173
81897W        W41158  38.066  25.199  11.919
81898W        W41159  37.056  19.708  14.464
81899W        W41160  44.409  14.681   3.855
81900W        W41161  43.448  15.129   2.229
81901W        W41162  44.961  25.162   2.357
81902W        W41163  19.675  15.215   2.367
81903W        W41164  15.129  36.438   3.207
81904W        W41165  40.479  33.510   3.208
81905W        W41166  39.894   7.261  13.842
81906W        W41167  30.917   0.418  14.965
81907W        W41168  29.125  33.131  14.333
81908W        W41169  41.873   5.808  14.405
81909W        W41170  34.870  16.796  12.954
81910W        W41171  31.947  43.490   4.715
81911W        W41172  25.595  32.999   0.780
81912W        W41173   1.748  14.308   1.407
81913W        W41174   0.274  36.868  13.849
81914W        W41175  22.174  43.286   1.374
81915W        W41176  34.421  33.941   4.216
81916W        W41177  23.121  24.187  12.034
81917W        W41178  42.447  15.809  10.525
81918W        W41179  41.317  18.557   4.835
81919W        W41180  36.938  15.630   2.825
81920W        W41181  22.725  34.113   3.185
81921W        W41182   4.780   5.353   2.860
81922W        W41183   1.338  40.985  11.059
81923W        W41184  11.749   6.357  13.955
81924W        W41185  38.519   6.332   0.887
81925W        W41186  13.711  38.892  11.109
81926W        W41187  14.164  35.521   1.879
81927W        W41188  13.720  43.467  11.968
81928W        W41189   1.446  28.452  11.516
81929W        W41190  11.202  14.127  11.584
81930W        W41191  17.177  12.327  10.630
81931W        W41192  37.979  40.891  11.859
81932W        W41193  30.028  13.613  10.895
81933W        W41194   6.242   9.295  10.635
81934W        W41195  28.017  41.913  12.828
81935W        W41196   4.362  21.227  12.832
81936W        W41197  40.336  44.382  10.609
81937W        W41198  22.101   7.806   0.761
81938W        W41199  12.643   1.946  11.000
81939W        W41200  25.557  37.512   2.192
81940W        W41201  44.357  16.100  13.981
81941W        W41202  21.724  27.455  12.840
81942W        W41203  22.101   2.842   0.738
81943W        W41204  33.893  14.131   4.681
81944W        W41205  23.158  37.872   2.791
81945W        W41206  36.566  23.990  14.959
81946W        W41207  14.095  19.091  14.013
81947W        W41208   7.260   6.762  10.984
81948W        W41209  20.557  38.524   2.845
81949W        W41210  27.584  33.131   0.965
81950W        W41211  12.650   1.326  14.381
81951W        W41212  16.723  19.588   4.224
81952W        W41213  11.803  36.582  12.835
81953W        W41214  17.137  34.500   3.293
81954W        W41215   1.809  14.282   3.657
81955W        W41216  12.620   6.851   1.735
81956W        W41217  29.999  35.475  11.039
81957W        W41218  28.938   6.420   0.477
81958W        W41219  34.974   6.209   1.918
81959W        W41220  21.253  43.858   2.685
81960W        W41221  13.820  33.918   3.267
81961W        W41222  24.116  21.023   2.406
81962W        W41223  42.287  26.203  11.957
81963W        W41224  36.945  17.149   3.871
81964W        W41225  19.141  30.126   0.935
81965W        W41226  20.137   6.777  14.912
81966W        W41227  31.035  39.923   2.768
81967W        W41228  33.428  36.928   1.831
81968W        W41229  38.363  25.119  11.105
81969W        W41230  44.498  24.194   0.372
81970W        W41231  34.072  21.600  10.902
81971W        W41232  21.047   4.308  14.455
81972W        W41233  24.115  19.253  12.991
81973W        W41234   0.750  37.044  10.115
81974W        W41235  22.721   9.361   4.836
81975W        W41236   2.881  26.596  14.418
81976W        W41237  33.518  23.060  14.008
81977W        W41238  43.380  43.820   1.319
81978W        W41239   8.829  39.361  14.379
81979W        W41240  43.295  43.940   0.904
81980W        W41241  30.060  36.432  11.118
81981W        W41242  13.172  43.308   0.935
81982W        W41243  38.516   4.818   3.726
81983W        W41244  30.528  13.726   0.848
81984W        W41245   9.694   9.298  14.389
81985W        W41246   4.355  11.769   2.389
81986W        W41247  15.598   7.906   1.739
81987W        W41248  27.999   8.663  10.108
81988W        W41249  13.346  36.404   2.744
81989W        W41250  31.409  13.811   4.351
81990W        W41251  15.786   6.729   5.089
81991W        W41252  22.615  36.072   5.143
81992W        W41253  40.876   3.288   0.382
81993W        W41254  13.734  31.067  11.126
81994W        W41255  31.059  35.957  11.034
81995W        W41256   0.248  24.690   1.755
81996W        W41257  36.520  21.711   1.428
81997W        W41258  25.979  27.009  11.562
81998W        W41259  24.678  32.134  10.605
81999W        W41260  27.465  19.732   3.789
82000W        W41261  21.110   6.821   0.921
82001W        W41262  22.055  33.461   0.883
82002W        W41263  17.702  11.200  12.371
82003W        W41264  13.258  41.989   2.311
82004W        W41265  35.555  18.578   1.889
82005W        W41266   3.407  37.348  12.473
82006W        W41267  13.611   6.202  12.418
82007W        W41268  18.582   8.320  13.340
82008W        W41269  20.627  13.263  10.507
82009W        W41270  17.708  39.939  12.475
82010W        W41271  17.202  16.273   2.309
82011W        W41272   5.728  18.059  14.887
82012W        W41273  12.173  13.105  14.016
82013W        W41274  35.459  38.064   4.166
82014W        W41275  32.122  23.661   0.434
82015W        W41276  38.946  15.147  11.405
82016W        W41277  27.562  26.650  11.489
82017W        W41278  33.543  31.618  11.527
82018W        W41279  24.134  40.037   1.237
82019W        W41280   5.815   1.959   4.212
82020W        W41281  20.218  29.117   1.841
82021W        W41282  11.725  38.526  13.440
82022W        W41283  12.833  39.353   4.716
82023W        W41284  26.488  24.057  12.872
82024W        W41285  11.366   9.790  12.411
82025W        W41286  30.061  44.466   1.349
82026W        W41287  40.944  25.477  13.813
82027W        W41288  17.191  43.795   3.824
82028W        W41289  34.938   9.228   1.857
82029W        W41290   0.748  43.942   4.604
82030W        W41291  44.335  34.050   1.883
82031W        W41292  41.386  20.074  14.913
82032W        W41293  22.179  24.586  13.056
82033W        W41294  31.069  38.972   0.935
82034W        W41295  26.142  22.681   1.429
82035W        W41296  21.547   3.287   1.798
82036W        W41297   4.267  30.975  14.981
82037W        W41298  33.407  18.679  11.532
82038W        W41299  28.062  42.960   1.445
82039W        W41300  18.274  35.861   2.211
82040W        W41301  17.160   8.345   2.280
82041W        W41302  27.460  34.976   3.172
82042W        W41303   5.386  37.039   2.768
82043W        W41304  39.040  22.085  13.367
82044W        W41305  22.015   1.335  11.603
82045W        W41306  41.490  38.064  14.447
82046W        W41307  31.417  25.620   0.348
82047W        W41308   1.264   3.225  13.862
82048W        W41309  35.445  17.271   0.802
82049W        W41310  37.430   3.915   4.267
82050W        W41311   6.257   7.899  14.286
82051W        W41312   6.244  19.237  11.978
82052W        W41313  36.532  20.117   1.794
82053W        W41314  13.667  35.031   1.218
82054W        W41315  26.957  10.368  10.459
82055W        W41316  14.106  11.727   0.728
82056W        W41317   3.309  33.916  12.943
82057W        W41318  13.829   1.346   3.237
82058W        W41319  14.252   1.377   2.263
82059W        W41320  38.562   1.277  11.600
82060W        W41321  22.520   9.852  13.958
82061W        W41322  12.816   7.851  14.418
82062W        W41323  14.303  27.525  14.014
82063W        W41324   5.825  24.501  10.410
82064W        W41325  37.024   0.757  11.569
82065W        W41326  35.068  34.901   2.198
82066W        W41327  38.034   9.655   5.708
82067W        W41328  24.197  42.522   0.372
82068W        W41329  14.761  20.649  14.375
82069W        W41330  41.921  34.378   3.865
82070W        W41331   8.690  17.136   0.296
82071W        W41332  38.389   9.354   4.289
82072W        W41333  44.367  18.680  11.538
82073W        W41334   0.856  33.525   1.814
82074W        W41335   9.713  13.693   2.361
82075W        W41336   8.170  43.949  13.909
82076W        W41337  38.527  11.769   1.778
82077W        W41338  43.349   2.762  13.421
82078W        W41339   4.287  19.042   2.775
82079W        W41340  30.473   1.831   3.837
82080W        W41341   0.349  30.081   1.308
82081W        W41342  32.085   5.326  12.926
82082W        W41343  41.886  29.649   1.858
82083W        W41344  24.976  12.727   4.750
82084W        W41345  15.122   4.717   1.347
82085W        W41346  39.439   8.198  10.597
82086W        W41347  19.180  28.519  10.893
82087W        W41348  38.531  10.382  10.634
82088W        W41349  12.768  42.914   4.343
82089W        W41350  10.327  41.029  11.074
82090W        W41351  23.633   7.304  10.503
82091W        W41352  39.364  23.615  12.854
82092W        W41353  36.848  19.582  11.406
82093W        W41354  41.328   1.361  13.450
82094W        W41355  18.697  23.226  11.546
82095W        W41356  11.160  19.107  11.509
82096W        W41357  35.504   1.804   1.848
82097W        W41358  27.995  22.591  13.533
82098W        W41359  37.424  37.950  10.575
82099W        W41360  22.009  34.391  12.456
82100W        W41361  32.506  40.352   0.870
82101W        W41362  10.864  17.144  12.080
82102W        W41363  28.985  30.056   2.347
82103W        W41364   0.953   3.217  10.050
82104W        W41365  23.654  18.106   0.764
82105W        W41366  28.584  33.946  10.622
82106W        W41367  25.184  27.986   4.706
82107W        W41368   7.875   2.447   0.768
82108W        W41369  37.534   5.382  10.637
82109W        W41370  27.072   4.877   0.387
82110W        W41371  15.237  24.593   2.813
82111W        W41372   7.863  19.541  10.925
82112W        W41373   7.848  12.257   2.281
82113W        W41374  34.104  15.645  10.891
82114W        W41375   7.802   7.189   0.868
82115W        W41376  29.170  26.188   1.839
82116W        W41377  16.639  15.823  12.985
82117W        W41378  38.550  31.627   1.859
82118W        W41379  13.302   0.864   4.684
82119W        W41380  43.928  27.584  11.035
82120W        W41381  10.654   8.272   0.824
82121W        W41382  35.079  29.131   9.926
82122W        W41383  32.550  25.695   1.343
82123W        W41384   8.758  17.288  12.513
82124W        W41385  15.733   1.428  14.445
82125W        W41386  20.709  34.574   0.928
82126W        W41387  39.953  27.519  13.446
82127W        W41388  19.534  38.980  10.550
82128W        W41389  38.421  33.053  13.414
82129W        W41390  14.292   6.845   2.396
82130W        W41391  31.928  17.701  11.987
82131W        W41392   9.803  28.605   3.788
82132W        W41393   3.262  10.874   0.357
82133W        W41394  40.437  37.028  13.007
82134W        W41395  22.225  17.688   2.283
82135W        W41396  40.038  21.121   1.359
82136W        W41397  44.385  14.820   0.812
82137W        W41398   8.768   6.710   3.340
82138W        W41399  34.607  44.980  14.353
82139W        W41400  13.243  39.813  13.371
82140W        W41401  37.969   2.426  12.527
82141W        W41402   9.306  37.941   2.356
82142W        W41403   7.251   0.821   3.678
82143W        W41404  40.044  36.574  11.878
82144W        W41405  20.560  32.609  14.331
82145W        W41406  30.150  21.032  11.971
82146W        W41407   0.836   5.813  13.376
82147W        W41408  17.191  16.629  13.957
82148W        W41409  29.944  28.528  12.985
82149W        W41410   3.946  27.998  11.048
82150W        W41411  31.526  22.597   2.662
82151W        W41412  36.054   2.894   0.766
82152W        W41413   7.676  20.054  14.973
82153W        W41414  39.502   7.802   4.294
82154W        W41415   8.878   2.871   0.394
82155W        W41416  38.035  22.520  14.298
82156W        W41417   9.382  32.082  12.829
82157W        W41418  44.400  20.571   4.261
82158W        W41419  43.507  34.379  11.092
82159W        W41420  40.438  25.668   2.765
82160W        W41421  21.706  26.061   4.632
82161W        W41422  30.493  27.098   2.813
82162W        W41423  25.609  35.425   0.270
82163W        W41424   9.290   9.211  13.956
82164W        W41425  13.815  27.014  10.926
82165W        W41426  12.649  23.229  11.889
82166W        W41427  21.099  14.132   0.473
82167W        W41428  43.765  28.490  10.009
82168W        W41429   7.378  18.189   0.878
82169W        W41430  28.959  25.692   0.369
82170W        W41431  40.517  28.669   2.243
82171W        W41432  21.133  17.218   2.214
82172W        W41433   0.913  25.091  10.448
82173W        W41434  36.846  39.042  11.950
82174W        W41435  32.899   5.203   2.210
82175W        W41436  42.492   0.399  10.889
82176W        W41437   9.753  36.492  10.459
82177W        W41438   6.769   8.236  12.543
82178W        W41439  22.723  43.976  10.608
82179W        W41440  44.346  43.377   0.876
82180W        W41441   5.858  19.742   0.878
82181W        W41442  23.005  40.397   3.845
82182W        W41443  39.944  29.171  13.437
82183W        W41444  43.319  26.103  10.918
82184W        W41445  36.869  26.980  12.397
82185W        W41446  33.622  40.844   3.791
82186W        W41447  28.118  42.439  13.506
82187W        W41448  28.023  21.591  13.980
82188W        W41449   4.906  19.059  11.931
82189W        W41450   2.775   7.670   4.690
82190W        W41451  29.665  24.100   0.778
82191W        W41452   6.775   0.398   3.711
82192W        W41453  11.669   3.276   3.763
82193W        W41454  41.908  28.946  14.391
82194W        W41455  21.570   0.399  12.078
82195W        W41456   3.806  28.932   2.350
82196W        W41457  32.910  33.586   2.374
82197W        W41458  10.635  10.328   2.227
82198W        W41459  39.358  30.584   0.922
82199W        W41460  17.564  37.516   0.774
82200W        W41461   7.229  17.667  10.420
82201W        W41462  10.376  40.869  12.507
82202W        W41463  37.886  41.463   4.186
82203W        W41464   6.329  27.099  14.993
82204W        W41465  20.122   0.422  11.941
82205W        W41466  28.520  43.389   1.813
82206W        W41467   3.448  22.038   2.292
82207W        W41468  19.545  22.083   3.662
82208W        W41469  12.738  29.543  11.590
82209W        W41470  20.678   3.735   3.289
82210W        W41471   4.287  34.588  14.927
82211W        W41472   5.291  18.735  14.825
82212W        W41473   9.355  33.126   2.295
82213W        W41474  39.539  26.062   3.268
82214W        W41475  30.631  27.029  13.063
82215W        W41476  37.422  31.977   0.921
82216W        W41477  32.540  24.666   3.694
82217W        W41478   0.763  17.556   0.732
82218W        W41479  43.887  27.183   4.289
82219W        W41480  19.138  21.193  10.913
82220W        W41481  24.670  16.235  10.619
82221W        W41482   8.729  18.109  12.094
82222W        W41483  31.936  22.648   2.419
82223W        W41484  31.457  34.369   4.132
82224W        W41485  35.948  30.556   1.710
82225W        W41486  26.588  43.334   3.186
82226W        W41487  17.573   0.903  14.001
82227W        W41488  32.957  37.875  12.979
82228W        W41489   4.901  38.050   4.256
82229W        W41490  31.101  34.613   0.891
82230W        W41491  38.481  33.921   4.191
82231W        W41492  32.118  27.650  11.075
82232W        W41493   9.352  38.068   2.877
82233W        W41494   2.466  37.530   0.784
82234W        W41495  38.521   7.182  13.428
82235W        W41496  39.014  32.449  10.127
82236W        W41497  17.669  34.481   4.771
82237W        W41498  36.513  20.271  13.510
82238W        W41499  12.227  11.737  12.505
82239W        W41500   1.964   7.847  14.826
82240W        W41501  32.464  32.040   3.329
82241W        W41502  29.615  18.180   0.387
82242W        W41503  15.653   8.797   3.815
82243W        W41504  33.931   5.765   3.367
82244W        W41505  29.611  12.207  11.483
82245W        W41506  23.186  31.912  12.049
82246W        W41507  31.409  30.065  12.409
82247W        W41508  20.132   3.783   3.692
82248W        W41509  36.449  23.631   3.658
82249W        W41510  41.313   0.850   3.220
82250W        W41511  36.348  22.043   4.627
82251W        W41512  43.424   3.855  14.001
82252W        W41513  42.451  33.479   3.642
82253W        W41514  15.754   7.894  14.316
82254W        W41515  33.513  22.716   0.305
82255W        W41516  40.006  25.631  11.986
82256W        W41517  14.310  10.774  13.547
82257W        W41518  13.776  36.024   2.244
82258W        W41519  33.578  34.424  14.030
82259W        W41520   1.290   7.332   3.341
82260W        W41521  30.087  34.434   4.313
82261W        W41522  24.054   4.401  14.969
82262W        W41523  23.120  23.195  11.463
82263W        W41524  13.255  14.617   0.747
82264W        W41525  36.986  34.569   4.675
82265W        W41526  29.080  38.891   1.347
82266W        W41527  24.121  33.919  11.066
82267W        W41528  27.626   2.267   1.325
82268W        W41529  19.197  17.122  14.906
82269W        W41530  43.990  42.482  14.011
82270W        W41531  29.653  40.856  12.520
82271W        W41532   8.746  23.713  11.074
82272W        W41533  44.407  30.945  10.607
82273W        W41534  22.007  34.060  13.376
82274W        W41535   6.339  35.452   2.737
82275W        W41536   9.389  17.295  10.582
82276W        W41537  36.883  15.599  12.861
82277W        W41538  13.705  43.335  12.956
82278W        W41539  40.837   0.826   3.761
82279W        W41540  11.198  43.376   1.428
82280W        W41541  28.133  39.521   2.324
82281W        W41542  10.842   5.201   0.445
82282W        W41543  22.729  17.601   4.624
82283W        W41544  23.726   7.695  10.889
82284W        W41545  28.459  22.532   1.228
82285W        W41546  38.912  34.455   2.897
82286W        W41547  41.999   8.815  12.079
82287W        W41548  17.191  23.630   1.833
82288W        W41549  40.011   1.925   2.798
82289W        W41550  23.219  44.415  12.396
82290W        W41551  10.279  30.955   0.314
82291W        W41552   0.278  38.869   4.351
82292W        W41553  16.212  34.506  13.432
82293W        W41554  17.154   4.230  11.124
82294W        W41555  24.228   6.223   3.781
82295W        W41556   3.754  35.520  13.347
82296W        W41557  35.451  12.740  14.873
82297W        W41558  35.878  44.383   2.259
82298W        W41559  23.241  32.521  10.552
82299W        W41560   6.291  34.562   3.728
82300W        W41561  34.435  41.403  13.412
82301W        W41562  41.812  40.377  14.915
82302W        W41563  39.376  40.942   1.354
82303W        W41564  35.968   2.294   2.862
82304W        W41565  24.158   1.344  14.362
82305W        W41566   0.322  33.615   3.166
82306W        W41567  17.125   8.284  10.010
82307W        W41568  23.574  42.996  11.022
82308W        W41569  36.876  37.062  13.870
82309W        W41570   5.352  39.895   3.675
82310W        W41571  24.140  36.972  11.560
82311W        W41572  42.925  40.359  11.902
82312W        W41573  43.488  15.084  10.970
82313W        W41574   5.716  17.125  13.048
82314W        W41575  17.627  18.207  12.351
82315W        W41576  26.199  38.946  12.075
82316W        W41577  26.964  16.257   3.844
82317W        W41578  15.723   5.854   1.298
82318W        W41579  13.840  10.204  14.847
82319W        W41580  36.432   1.465   1.722
82320W        W41581  36.362  39.425  11.880
82321W        W41582   8.800   0.348   1.220
82322W        W41583   2.410  17.083  14.422
82323W        W41584  32.915  21.628  10.492
82324W        W41585  32.586   0.840   2.192
82325W        W41586  32.535  41.893  14.423
82326W        W41587   9.876  20.565   4.304
82327W        W41588  36.443  39.376  12.514
82328W        W41589   1.938  35.100   2.843
82329W        W41590  18.633   5.815  14.025
82330W        W41591  17.152   7.373  12.487
82331W        W41592  20.212  39.931   4.778
82332W        W41593   1.420  27.951   2.204
82333W        W41594   7.874  44.755   4.329
82334W        W41595  11.354  43.342  12.882
82335W        W41596  26.595  15.695   1.902
82336W        W41597  37.356  38.519  14.507
82337W        W41598  11.243  17.175  12.917
82338W        W41599  13.278  29.629  13.387
82339W        W41600  29.580  16.568  10.891
82340W        W41601  40.540   6.365  13.408
82341W        W41602  34.600   5.375   4.679
82342W        W41603  13.684  30.610   4.683
82343W        W41604  42.482  36.371  13.008
82344W        W41605  44.804  27.559   4.775
82345W        W41606   7.902  27.512  13.873
82346W        W41607  35.903   7.368  12.487
82347W        W41608  17.214  10.307   2.202
82348W        W41609  13.130  27.010  11.056
82349W        W41610  22.587  30.094  14.813
82350W        W41611   3.823  30.926  11.992
82351W        W41612  43.479   6.253  11.417
82352W        W41613   5.840  19.064   4.721
82353W        W41614  16.221  37.537  14.383
82354W        W41615  21.600  44.429   4.677
82355W        W41616  14.315  23.581  14.434
82356W        W41617   9.280  42.911   3.819
82357W        W41618  10.138  44.830   3.870
82358W        W41619  27.015   8.355  10.427
82359W        W41620  41.025  16.215   2.721
82360W        W41621  35.959  27.570   2.280
82361W        W41622   2.470  18.751  14.805
82362W        W41623  40.399   3.310  13.414
82363W        W41624  29.470  41.369  13.045
82364W        W41625  39.936  18.559  11.516
82365W        W41626  36.983  36.475  12.919
82366W        W41627  33.121  37.503  14.503
82367W        W41628  42.951  44.403   4.167
82368W        W41629   5.808  33.591  12.864
82369W        W41630   9.293   5.780  13.990
82370W        W41631  20.751  29.985   4.306
82371W        W41632  10.740  38.360   0.882
82372W        W41633  42.918  13.217   1.763
82373W        W41634  16.095  17.278   2.238
82374W        W41635  44.334   1.328  14.855
82375W        W41636  36.507   8.804  14.002
82376W        W41637  38.039  27.454  13.462
82377W        W41638   9.158   4.886  14.349
82378W        W41639  10.341   1.855   0.916
82379W        W41640   6.231  41.391   1.777
82380W        W41641  42.990  29.651  11.980
82381W        W41642   6.263  30.563   1.301
82382W        W41643  44.302  12.152   1.903
82383W        W41644  13.134  38.391   2.350
82384W        W41645  11.128  28.960  14.514
82385W        W41646   0.311  13.137   2.400
82386W        W41647  22.659  42.966  12.841
82387W        W41648  35.966  21.245  10.605
82388W        W41649   5.396  26.660   0.792
82389W        W41650  35.494  13.752   1.231
82390W        W41651   2.334  28.996   2.891
82391W        W41652   4.232  18.612  14.407
82392W        W41653   7.704  20.555   0.451
82393W        W41654  44.865  42.829  12.002
82394W        W41655  23.531   9.678   0.768
82395W        W41656  15.734  19.045   1.799
82396W        W41657  34.595  17.661  12.957
82397W        W41658   0.779  14.169  10.105
82398W        W41659  37.525   5.758   1.430
82399W        W41660  16.259  23.598  14.811
82400W        W41661   3.427  16.810   1.754
82401W        W41662  20.273  29.658   3.739
82402W        W41663  17.764  19.758  14.398
82403W        W41664  28.462  24.702   2.867
82404W        W41665  17.080  13.170   2.244
82405W        W41666  36.475  40.050  11.966
82406W        W41667   5.705  27.514  12.490
82407W        W41668  29.117  10.857   3.322
82408W        W41669   4.768   5.815   3.163
82409W        W41670  25.026   4.420  11.055
82410W        W41671  30.056  44.766   1.807
82411W        W41672  40.531  42.943  10.532
82412W        W41673   8.855   1.240   1.694
82413W        W41674  26.611  39.473   3.224
82414W        W41675  29.629  17.655   4.197
82415W        W41676  25.605  31.552   2.730
82416W        W41677   2.812  20.138   1.325
82417W        W41678   4.445   7.170  13.375
82418W        W41679  36.901  14.680  14.384
82419W        W41680  10.823  38.056  12.440
82420W        W41681   5.894  31.995   4.788
82421W        W41682  11.263  23.083  14.372
82422W        W41683  18.620  39.369   4.762
82423W        W41684  16.741  20.661   2.185
82424W        W41685  34.597  28.642  12.498
82425W        W41686  23.559  26.685   0.741
82426W        W41687  28.151   6.293   3.339
82427W        W41688  40.902  38.938   1.732
82428W        W41689  35.052  34.606   1.417
82429W        W41690  13.185  28.489  14.863
82430W        W41691  30.560  40.435  12.095
82431W        W41692  19.570  10.369   1.400
82432W        W41693  16.649  16.086  10.424
82433W        W41694  34.877  37.483  12.357
82434W        W41695  21.635  28.521  13.847
82435W        W41696  40.837  37.412   4.307
82436W        W41697  15.604  12.747  11.395
82437W        W41698   7.747   9.751   2.285
82438W        W41699   1.351  35.560  12.387
82439W        W41700  37.515  27.187   5.271
82440W        W41701  37.986  39.419   1.878
82441W        W41702  30.093  19.092   3.771
82442W        W41703  34.002  38.438   4.285
82443W        W41704  43.501  42.420   0.954
82444W        W41705  40.017  33.394   1.896
82445W        W41706  39.945  37.850   1.241
82446W        W41707  13.215  11.729  13.320
82447W        W41708  39.963  44.465  13.507
82448W        W41709  16.599  35.994   4.290
82449W        W41710   8.787  42.506  12.051
82450W        W41711  16.171  18.265  11.466
82451W        W41712  28.095  29.549  13.886
82452W        W41713  15.798  10.201  12.072
82453W        W41714   5.787  20.199  11.603
82454W        W41715  27.127   5.429   0.312
82455W        W41716  10.759  42.955   0.930
82456W        W41717   6.299  26.163  10.921
82457W        W41718   8.885  24.709  14.829
82458W        W41719   0.880   1.774  12.922
82459W        W41720  41.906  20.718   3.833
82460W        W41721  35.083  15.800  12.502
82461W        W41722  12.345  39.361  14.460
82462W        W41723  36.974   0.430   0.947
82463W        W41724  41.294   8.859   3.741
82464W        W41725   6.219  40.488  11.954
82465W        W41726   6.287   6.858   2.783
82466W        W41727   5.211  28.453   2.277
82467W        W41728  27.946  39.909   1.329
82468W        W41729   5.916  15.252  10.575
82469W        W41730  12.229   1.288  14.440
82470W        W41731  15.615  18.201   3.208
82471W        W41732  33.452  12.218  11.989
82472W        W41733  10.718  14.281  12.408
82473W        W41734  17.112  23.731   3.173
82474W        W41735  13.738  28.539  10.530
82475W        W41736  12.752  30.600  13.389
82476W        W41737  32.017  34.609  10.109
82477W        W41738  19.600   5.811  13.834
82478W        W41739  42.306  20.613  11.085
82479W        W41740  35.569  17.662   0.837
82480W        W41741  42.986  22.015   1.698
82481W        W41742  19.579  18.112  12.381
82482W        W41743  40.040  31.991   0.871
82483W        W41744  40.015  34.875   2.702
82484W        W41745  25.670   9.829  14.821
82485W        W41746  18.563  30.489   1.814
82486W        W41747  39.416  27.156   1.266
82487W        W41748  17.194  15.136   2.178
82488W        W41749   2.940   4.321  12.086
82489W        W41750   9.726  16.282   0.905
82490W        W41751  16.199   0.258   3.690
82491W        W41752   6.751  14.609   1.371
82492W        W41753  27.632   0.326   5.259
82493W        W41754  27.659   3.371  13.809
82494W        W41755  17.793  35.439  11.989
82495W        W41756  31.145   8.759   1.329
82496W        W41757  26.601  37.051   1.695
82497W        W41758  32.521   8.186   1.359
82498W        W41759  12.706  29.553   1.727
82499W        W41760  39.005  23.579   3.648
82500W        W41761  16.807  33.431   3.710
82501W        W41762  17.589  10.375  12.351
82502W        W41763  43.888  26.542   5.792
82503W        W41764   0.783  36.039  13.915
82504W        W41765   9.388  27.135   1.353
82505W        W41766   4.754  39.348   3.147
82506W        W41767  22.177  44.011   1.713
82507W        W41768  40.006  12.728   3.244
82508W        W41769   1.471  11.784  14.879
82509W        W41770  33.011  12.199  14.434
82510W        W41771  33.941  37.948   1.220
82511W        W41772  20.147  26.164  13.904
82512W        W41773  22.721  30.630   1.312
82513W        W41774  39.882  33.624  11.052
82514W        W41775  29.130  32.955  12.065
82515W        W41776  29.602  30.462   3.811
82516W        W41777   0.892   2.435  12.528
82517W        W41778   7.775  24.984  12.018
82518W        W41779  13.257  34.402   1.446
82519W        W41780  32.459  31.410   0.851
82520W        W41781  28.016  21.584   3.303
82521W        W41782  12.184   3.241   2.666
82522W        W41783  21.596   9.668   1.337
82523W        W41784  36.060  11.674   3.317
82524W        W41785  27.015  42.487   0.431
82525W        W41786   8.406  26.114   3.687
82526W        W41787  18.101   7.230   4.663
82527W        W41788  33.626  21.696  11.403
82528W        W41789  41.891  42.492  12.532
82529W        W41790   2.332  10.300  14.866
82530W        W41791  44.963  28.952  11.474
82531W        W41792  10.339  29.084  10.111
82532W        W41793  33.059   1.408   3.671
82533W        W41794   5.831  36.926  11.018
82534W        W41795  22.569  32.509  11.019
82535W        W41796  26.584   8.355  10.420
82536W        W41797  41.887   3.367  13.909
82537W        W41798   1.878  36.418   4.780
82538W        W41799   2.950   7.398   2.732
82539W        W41800  31.130   7.825  14.847
82540W        W41801  29.473  24.652  11.426
82541W        W41802   7.381  43.962  10.547
82542W        W41803  19.576  20.576   2.892
82543W        W41804  30.923  32.946   4.827
82544W        W41805   9.202  37.953   4.331
82545W        W41806   7.267   4.383  12.461
82546W        W41807   0.805  21.131  13.982
82547W        W41808  33.121  29.528   0.897
82548W        W41809  10.639   9.728  13.439
82549W        W41810   7.366  23.217   1.820
82550W        W41811  25.658  10.690   1.429
82551W        W41812  23.556  34.380   0.375
82552W        W41813  24.492  42.393  11.515
82553W        W41814   2.851  19.136  12.040
82554W        W41815  14.661  14.227  14.030
82555W        W41816  14.151  32.464   4.299
82556W        W41817   3.888  17.191  14.946
82557W        W41818  10.251  42.323  10.060
82558W        W41819  17.753  17.240   1.373
82559W        W41820  40.880   0.379  12.025
82560W        W41821  25.202  21.604  10.557
82561W        W41822  17.585   0.848  13.363
82562W        W41823  32.083  41.041   1.919
82563W        W41824  35.370  39.841   0.950
82564W        W41825  24.533  40.476   1.909
82565W        W41826  27.069  19.120   1.236
82566W        W41827  17.636  11.786  12.404
82567W        W41828  37.364  33.032  10.969
82568W        W41829  22.688   6.371   5.302
82569W        W41830  16.309  28.977  10.476
82570W        W41831  34.399  13.604   3.272
82571W        W41832   3.928  20.099   4.353
82572W        W41833   6.293  31.108   2.819
82573W        W41834  31.636  17.178   2.256
82574W        W41835  30.439   0.348  10.491
82575W        W41836   7.741   0.945  14.502
82576W        W41837  16.608  31.028   1.799
82577W        W41838   1.452  40.903   4.115
82578W        W41839  18.050  43.844   0.862
82579W        W41840  43.812  30.016   0.305
82580W        W41841   1.887  24.193   1.398
82581W        W41842  13.232  44.801  12.061
82582W        W41843  26.565  29.975   1.908
82583W        W41844  33.999  13.307   0.469
82584W        W41845  14.242  44.435   3.727
82585W        W41846  12.742  22.199  11.927
82586W        W41847  31.896  22.739   0.799
82587W        W41848  30.470  29.005  12.553
82588W        W41849  20.150   7.350   1.427
82589W        W41850  39.396  32.419   1.358
82590W        W41851  19.691   6.423  14.396
82591W        W41852   6.376  36.459  10.987
82592W        W41853  26.017  33.939  13.504
82593W        W41854  36.585  31.944  14.402
82594W        W41855   1.783   0.823   1.445
82595W        W41856  44.817  38.036   1.448
82596W        W41857  33.544  16.810   2.894
82597W        W41858   5.915  42.999   2.752
82598W        W41859  30.435  34.526   4.236
82599W        W41860  36.412  42.836  13.944
82600W        W41861  26.512  21.129  14.360
82601W        W41862   4.438   2.734  11.072
82602W        W41863  34.018  11.682  13.853
82603W        W41864  20.527  14.205  11.606
82604W        W41865  12.857  11.686   1.290
82605W        W41866  35.959   1.882  13.524
82606W        W41867   3.369   6.861  12.059
82607W        W41868  28.947  44.402   1.414
82608W        W41869  29.504  43.021  10.095
82609W        W41870  37.832  36.572  11.113
82610W        W41871   7.224  40.024   4.701
82611W        W41872  33.003  12.775  12.915
82612W        W41873  26.520  40.014   9.971
82613W        W41874  31.424   9.802  11.542
82614W        W41875  30.116  25.484  10.619
82615W        W41876  13.239  19.757  13.307
82616W        W41877  26.043  29.551   5.091
82617W        W41878  40.831  27.500   1.903
82618W        W41879   3.275  31.648  12.846
82619W        W41880   6.380  23.575   3.255
82620W        W41881  40.440  17.255  14.021
82621W        W41882  36.424  44.421   1.878
82622W        W41883  38.889  40.872  13.318
82623W        W41884  27.487  43.465   3.726
82624W        W41885   7.686  27.560   2.283
82625W        W41886   2.377  26.632   5.317
82626W        W41887  17.248  26.475   0.958
82627W        W41888  27.139  32.926   4.185
82628W        W41889  13.243  19.133   0.830
82629W        W41890  31.456  29.174  14.003
82630W        W41891  34.571   7.893   3.349
82631W        W41892  19.649  38.068   0.418
82632W        W41893   2.227  19.698  14.903
82633W        W41894  31.595   0.810  11.407
82634W        W41895  14.215  20.645   4.610
82635W        W41896  27.075  34.563   5.133
82636W        W41897  23.984  19.538   4.192
82637W        W41898   1.886  42.978  13.901
82638W        W41899  23.541   8.221  10.434
82639W        W41900  28.599  25.528  13.533
82640W        W41901   3.223  30.605  10.888
82641W        W41902  28.978  42.281   0.875
82642W        W41903  27.658  21.676   0.312
82643W        W41904   5.432  16.806   4.805
82644W        W41905  30.046  38.545  13.532
82645W        W41906   9.731  32.507  12.339
82646W        W41907  33.892   7.226  10.483
82647W        W41908  22.538  40.829  11.610
82648W        W41909   2.336  27.185  14.446
82649W        W41910  16.290  42.863   2.715
82650W        W41911   1.949  43.934  11.072
82651W        W41912  35.466  24.029  11.581
82652W        W41913  38.870  22.235   0.405
82653W        W41914  22.747  17.080  12.925
82654W        W41915  21.233  42.784  10.995
82655W        W41916  15.255  25.994  10.062
82656W        W41917  10.262  14.240  11.980
82657W        W41918  30.050  10.182   1.876
82658W        W41919   6.346  19.647   0.870
82659W        W41920  29.125  17.067  13.931
82660W        W41921  22.565  29.122  12.526
82661W        W41922   3.292  16.158   2.331
82662W        W41923  38.948  23.579   0.953
82663W        W41924  22.190  17.276   4.336
82664W        W41925  35.456  42.854   5.134
82665W        W41926   8.181  35.927   4.798
82666W        W41927  25.481  11.138   3.752
82667W        W41928  15.173  13.346  11.121
82668W        W41929  32.063  38.950   2.778
82669W        W41930   9.356  44.908  14.416
82670W        W41931   4.931  27.471   3.362
82671W        W41932  27.477  26.567   1.389
82672W        W41933   7.362   8.714   0.255
82673W        W41934  18.076  28.524   3.777
82674W        W41935  32.995  40.497  14.382
82675W        W41936  21.601  16.163   4.667
82676W        W41937  28.592  37.051   0.956
82677W        W41938   2.397  26.096  14.803
82678W        W41939  25.713  37.910   2.888
82679W        W41940  43.926  35.064   5.124
82680W        W41941   8.180  39.848  14.801
82681W        W41942  36.862   7.717   5.108
82682W        W41943   9.367  29.117  13.969
82683W        W41944  28.480  34.068   0.734
82684W        W41945  39.474  20.635   4.732
82685W        W41946  32.428  34.895   2.222
82686W        W41947  24.230  27.147  14.918
82687W        W41948  26.600  29.510   1.835
82688W        W41949  37.851  40.983   1.790
82689W        W41950  35.043  20.252   0.803
82690W        W41951   8.162  24.226  13.540
82691W        W41952  22.729  40.838   3.382
82692W        W41953  13.113  28.945  10.071
82693W        W41954  40.390  33.591   5.601
82694W        W41955  15.228  11.862  12.488
82695W        W41956  30.491  17.566   4.608
82696W        W41957  28.165   5.746   1.351
82697W        W41958  34.877  24.562  10.888
82698W        W41959  24.150   0.902   1.227
82699W        W41960  11.135  14.627  13.935
82700W        W41961  36.885   6.381  10.416
82701W        W41962  20.740  14.165  10.952
82702W        W41963  16.665  29.937  12.467
82703W        W41964  12.122  33.937   2.219
82704W        W41965  44.909  42.291  13.045
82705W        W41966  22.226  40.825  14.997
82706W        W41967   6.737  22.564  13.999
82707W        W41968  18.277   6.918  10.411
82708W        W41969  17.716   6.887  13.356
82709W        W41970   4.925   0.408  14.380
82710W        W41971  26.616   6.347   0.915
82711W        W41972   8.780  16.083  11.598
82712W        W41973  40.873  15.592  10.054
82713W        W41974  18.585   6.323   2.845
82714W        W41975   7.737  20.057   2.858
82715W        W41976  44.911  42.962  14.869
82716W        W41977  18.050  23.718  13.802
82717W        W41978  42.493  23.163  14.450
82718W        W41979  27.505  43.942   0.457
82719W        W41980  40.369  20.761   3.226
82720W        W41981  11.823   4.219   4.815
82721W        W41982  20.150   6.227  13.019
82722W        W41983   6.242   7.197   3.237
82723W        W41984  33.898  11.155   3.807
82724W        W41985  14.233   2.391  11.875
82725W        W41986  22.060   3.460  14.943
82726W        W41987  33.426   1.766  10.067
82727W        W41988  35.020  18.706  14.443
82728W        W41989  19.263  20.738   2.775
82729W        W41990  42.014   0.945   0.424
82730W        W41991  37.065  44.810   0.465
82731W        W41992   5.279  42.369  12.038
82732W        W41993  17.657   0.319   3.199
82733W        W41994  27.951  39.929   1.891
82734W        W41995   4.794  42.978   2.875
82735W        W41996  19.617  37.086  13.047
82736W        W41997  29.497  43.272   0.856
82737W        W41998  30.473  43.845  14.343
82738W        W41999  16.306   1.926  10.913
82739W        W42000  32.981  24.211  13.030
82740W        W42001   7.205  30.585  11.481
82741W        W42002  11.203  15.189  10.603
82742W        W42003  28.041  17.623  12.072
82743W        W42004  12.265  39.355  12.902
82744W        W42005  19.189  25.111   2.364
82745W        W42006  10.237  13.213   0.763
82746W        W42007  34.075  27.668   0.375
82747W        W42008  37.020  26.653  11.129
82748W        W42009   7.860  32.415  14.446
82749W        W42010  22.049  15.137   3.355
82750W        W42011  23.076  31.903   3.180
82751W        W42012  38.456  34.547   1.403
82752W        W42013  18.235  31.472  14.322
82753W        W42014  42.284  22.125   5.734
82754W        W42015  35.868   0.953   2.717
82755W        W42016  35.896  41.889   1.771
82756W        W42017  17.588  29.660   3.720
82757W        W42018  33.423   8.888  13.506
82758W        W42019  14.162  41.510  13.427
82759W        W42020  25.635   9.654  11.055
82760W        W42021  29.560  17.694  14.878
82761W        W42022  12.634  40.452  10.910
82762W        W42023  12.748  14.828  14.322
82763W        W42024  28.100  14.315  14.289
82764W        W42025  27.531  16.081   0.748
82765W        W42026  13.262  29.666   0.483
82766W        W42027   2.281  16.299   4.128
82767W        W42028  42.801  30.991   5.146
82768W        W42029  32.440  38.510   2.181
82769W        W42030   4.857  28.516  13.528
82770W        W42031  16.582   1.753   2.670
82771W        W42032  36.352  10.707  13.053
82772W        W42033  43.313  39.009   1.390
82773W        W42034  37.389  38.965  13.911
82774W        W42035  17.800  20.200   2.713
82775W        W42036   5.334  25.086   2.837
82776W        W42037  40.492  14.219  13.530
82777W        W42038  27.017  32.984  12.886
82778W        W42039   4.766  26.041  10.071
82779W        W42040  34.481  18.653  13.414
82780W        W42041  19.073   9.372  12.479
82781W        W42042  11.214  14.198   3.337
82782W        W42043  42.027   8.321  12.969
82783W        W42044  44.435  43.010   1.411
82784W        W42045  17.800  24.223  12.379
82785W        W42046  43.387  29.456  10.130
82786W        W42047  20.669  17.756   0.920
82787W        W42048  36.568  26.687  12.374
82788W        W42049  23.224   8.396   4.739
82789W        W42050  38.997  28.020  13.886
82790W        W42051  34.540  25.993  12.020
82791W        W42052  35.086  27.450  11.915
82792W        W42053  44.325  10.198  12.825
82793W        W42054   9.294  10.298  14.356
82794W        W42055  27.062  35.859   0.885
82795W        W42056  24.578  13.325   2.353
82796W        W42057  31.021  12.818  14.874
82797W        W42058  35.084  10.370  12.965
82798W        W42059  12.333  39.977   1.242
82799W        W42060   9.264  40.868   2.690
82800W        W42061  38.898   2.844   0.894
82801W        W42062  28.945  44.771  12.938
82802W        W42063  26.630  33.912   1.909
82803W        W42064   3.302  30.118  12.055
82804W        W42065  37.478  26.687   4.802
82805W        W42066  37.839   8.873   1.789
82806W        W42067   9.221  17.232  14.338
82807W        W42068  20.658  29.512   0.392
82808W        W42069  20.686   1.770   3.198
82809W        W42070  17.737  40.536   1.246
82810W        W42071   2.862  12.228  10.990
82811W        W42072  14.679  15.641  14.953
82812W        W42073  22.080   0.386   4.831
82813W        W42074  14.232  27.082   5.164
82814W        W42075  16.110  32.937  12.827
82815W        W42076  29.567  42.996  10.917
82816W        W42077  31.056   9.264  13.381
82817W        W42078  31.481  38.819   1.267
82818W        W42079  34.420  39.062  13.913
82819W        W42080   7.679  24.146   5.278
82820W        W42081  40.348  19.114   2.680
82821W        W42082  42.330   3.915   4.307
82822W        W42083  30.537  38.397  14.019
82823W        W42084   0.921   1.315  13.397
82824W        W42085  44.490   8.896   0.387
82825W        W42086   9.155  30.044   3.326
82826W        W42087   6.185  35.077   4.153
82827W        W42088   3.302   3.241  11.080
82828W        W42089  33.494  40.311   1.696
82829W        W42090  26.478   9.253   0.944
82830W        W42091  17.188  16.072   2.683
82831W        W42092  31.541  25.144  13.966
82832W        W42093  26.685   4.916   0.330
82833W        W42094  34.994  14.797   0.450
82834W        W42095  28.172  26.185   0.346
82835W        W42096  43.766  22.710   0.330
82836W        W42097   2.267   7.190  10.930
82837W        W42098  31.515   6.366   2.678
82838W        W42099  44.292   9.286  13.410
82839W        W42100  32.013   0.850  12.515
82840W        W42101  17.673  31.953  11.986
82841W        W42102  32.142  26.523   4.294
82842W        W42103   7.751  26.102   4.800
82843W        W42104  23.149  16.651   3.661
82844W        W42105  31.137   6.302   4.641
82845W        W42106   8.375  10.847   0.330
82846W        W42107   5.249  28.457  13.804
82847W        W42108  33.881   9.888   1.857
82848W        W42109  39.478  35.933   0.381
82849W        W42110  17.063  28.161  12.916
82850W        W42111  30.994  17.121   4.726
82851W        W42112  17.573  22.555  13.879
82852W        W42113   6.288  17.218   1.695
82853W        W42114   8.789   4.877   4.719
82854W        W42115  36.999  26.584  13.488
82855W        W42116  25.569  34.962  10.919
82856W        W42117  38.327  38.949  10.040
82857W        W42118  12.186  36.048   2.847
82858W        W42119  27.660  40.993  13.463
82859W        W42120   8.185  32.621   4.721
82860W        W42121  43.324  41.438  12.095
82861W        W42122  22.066  43.872   0.247
82862W        W42123   8.170  28.012  14.409
82863W        W42124   7.799  13.619   0.871
82864W        W42125  19.039  32.633  12.976
82865W        W42126  13.145  23.059  12.845
82866W        W42127   9.284  34.499   4.743
82867W        W42128   3.904  12.623   2.675
82868W        W42129  34.391  41.513   1.426
82869W        W42130   7.765  30.023  13.501
82870W        W42131  19.609  33.885   2.292
82871W        W42132  18.228   1.252   4.726
82872W        W42133  21.694  19.742  13.375
82873W        W42134  18.752  40.381  12.475
82874W        W42135  22.669  31.122   3.796
82875W        W42136  42.526  11.763  10.558
82876W        W42137  26.487   6.247  13.535
82877W        W42138   2.385  20.676  11.098
82878W        W42139  38.074   9.339   1.856
82879W        W42140  40.954  29.558   2.713
82880W        W42141   9.183  31.004   3.832
82881W        W42142  18.725  35.897  10.909
82882W        W42143  35.493   2.365   4.769
82883W        W42144  40.954  25.168   0.251
82884W        W42145   9.166  36.501  10.442
82885W        W42146  30.486  22.598  13.529
82886W        W42147  25.531  13.752   2.801
82887W        W42148   8.785  28.086   3.258
82888W        W42149   8.685  13.783  14.932
82889W        W42150  11.234   9.304   1.417
82890W        W42151  30.165  24.070   0.729
82891W        W42152  34.528  17.757   1.839
82892W        W42153  39.021  13.296   0.780
82893W        W42154  20.557  27.077   0.791
82894W        W42155  40.307   7.415   3.810
82895W        W42156   1.469  40.374  14.486
82896W        W42157  21.099  21.069   0.446
82897W        W42158   3.879  13.736   0.409
82898W        W42159  36.041  24.179   1.749
82899W        W42160  37.072  23.558   1.854
82900W        W42161  10.316  41.429  14.896
82901W        W42162  15.608  43.328   3.770
82902W        W42163  18.126   2.284   0.778
82903W        W42164   3.227  19.591   0.312
82904W        W42165  21.173  35.053   3.735
82905W        W42166  40.859  13.141  14.341
82906W        W42167  11.650  14.628  14.358
82907W        W42168  41.534  10.682  12.351
82908W        W42169  23.004  42.366  10.441
82909W        W42170   3.380  29.102  14.389
82910W        W42171  22.513  44.396  12.502
82911W        W42172  14.828  31.054  11.089
82912W        W42173  36.072  30.465   0.390
82913W        W42174  14.128  36.515   4.797
82914W        W42175  11.303  36.980   2.878
82915W        W42176  41.789  44.371  13.548
82916W        W42177   8.275   9.205   1.920
82917W        W42178   2.890   9.863  12.471
82918W        W42179  25.547  11.788   0.331
82919W        W42180  33.887  29.003  11.426
82920W        W42181  37.062  43.008   1.311
82921W        W42182  10.235   1.822  11.094
82922W        W42183  36.881  17.087   2.764
82923W        W42184   9.656  32.092   1.866
82924W        W42185  20.254  18.736   2.824
82925W        W42186  11.763  39.996  12.960
82926W        W42187  38.836  35.003  14.300
82927W        W42188  23.545  29.108   0.277
82928W        W42189  37.408   0.823  11.888
82929W        W42190  30.418   4.758   1.860
82930W        W42191  38.057  12.322   1.873
82931W        W42192  11.831  39.330   1.270
82932W        W42193   2.787   4.837  11.511
82933W        W42194  18.283  20.081  14.768
82934W        W42195  27.119  28.462   0.272
82935W        W42196  36.029   6.791   9.440
82936W        W42197  42.298   7.261  12.490
82937W        W42198  12.850  33.060  13.975
82938W        W42199  36.984  25.160  12.576
82939W        W42200  25.172   0.961   2.800
82940W        W42201  20.765  22.664  10.051
82941W        W42202  28.183  10.158   4.702
82942W        W42203  37.523  42.397  11.899
82943W        W42204   3.808  30.013   1.720
82944W        W42205  12.726  28.523   3.147
82945W        W42206  43.789  11.301  11.573
82946W        W42207   8.872  23.662  13.485
82947W        W42208  37.057  24.178   4.132
82948W        W42209   3.758  40.456   2.867
82949W        W42210   6.378  19.731   2.387
82950W        W42211  18.588  10.148   4.640
82951W        W42212  22.064  30.917  14.896
82952W        W42213   3.826  36.420  13.945
82953W        W42214  14.334  14.834   1.370
82954W        W42215  42.439  22.213  14.385
82955W        W42216  27.570   1.483   0.815
82956W        W42217   3.456  37.932   1.789
82957W        W42218  25.571  40.004   3.739
82958W        W42219  29.483  17.209  13.948
82959W        W42220  17.762   2.873  13.983
82960W        W42221   2.397  18.082   2.213
82961W        W42222  23.583  22.520   4.788
82962W        W42223  35.890  37.917  12.482
82963W        W42224  37.938  30.036   3.371
82964W        W42225  23.053   4.265  12.529
82965W        W42226  15.259  30.118  14.763
82966W        W42227  11.867  35.094   1.744
82967W        W42228  11.208  29.495  10.619
82968W        W42229  44.388  38.010  14.380
82969W        W42230  31.525  38.829  10.491
82970W        W42231  39.036  44.889  11.126
82971W        W42232  26.458  26.615   2.416
82972W        W42233   6.373  36.041   0.929
82973W        W42234  10.862  19.090   4.767
82974W        W42235  34.404   8.836  12.448
82975W        W42236  33.425   0.872   2.415
82976W        W42237  40.356  27.106  11.951
82977W        W42238  19.570  15.733  12.094
82978W        W42239  43.472  27.470   1.435
82979W        W42240   1.929  28.131  11.446
82980W        W42241  44.855  14.222   0.479
82981W        W42242  23.230  32.484  10.919
82982W        W42243   3.845  27.595   1.265
82983W        W42244  16.635  12.735  14.316
82984W        W42245  33.889  43.504  10.626
82985W        W42246  22.197  11.693  12.369
82986W        W42247  42.965   1.976   4.719
82987W        W42248  17.717  39.384   0.778
82988W        W42249  19.778  28.527   0.267
82989W        W42250  44.778   6.880  13.535
82990W        W42251  13.634  42.500   0.406
82991W        W42252  37.076  29.581   1.317
82992W        W42253  28.981  10.790  14.458
82993W        W42254  29.642  13.778   2.878
82994W        W42255  11.722  39.853  10.601
82995W        W42256   2.328  14.096  13.910
82996W        W42257  31.028  11.743  12.438
82997W        W42258   9.184   4.263   0.781
82998W        W42259  15.314  20.708   0.946
82999W        W42260  17.790   9.690   4.724
83000W        W42261  41.481  37.386   0.885
83001W        W42262  17.145  38.901  10.140
83002W        W42263  22.656  39.886  14.407
83003W        W42264  22.079  27.111  13.471
83004W        W42265  32.414  17.073  12.887
83005W        W42266  16.688  19.710  13.462
83006W        W42267  40.829  31.509  13.824
83007W        W42268  10.653  41.920  13.353
83008W        W42269  29.044  35.002  13.355
83009W        W42270   3.934   3.822  11.608
83010W        W42271   1.258  11.839   4.214
83011W        W42272  12.729  23.707   1.697
83012W        W42273  10.207  41.381   4.652
83013W        W42274  29.080  21.639  13.912
83014W        W42275  14.815  30.951  13.532
83015W        W42276  32.132  30.968  11.549
83016W        W42277  15.733   0.808   3.662
83017W        W42278  14.235   6.705  14.809
83018W        W42279  32.950  11.798   1.825
83019W        W42280  19.728  18.549   1.259
83020W        W42281  19.256  22.019  10.519
83021W        W42282  35.028  23.182   1.801
83022W        W42283  24.670   2.847   5.777
83023W        W42284  43.859  41.013   1.282
83024W        W42285  20.094  41.489  12.429
83025W        W42286   8.328  43.782   1.297
83026W        W42287  35.370  25.586  11.510
83027W        W42288  20.241  44.271   2.737
83028W        W42289  38.542  19.768  10.538
83029W        W42290   6.198  16.586   1.853
83030W        W42291   8.801  39.910  14.359
83031W        W42292  17.082  29.437   0.917
83032W        W42293  43.961  32.895  10.540
83033W        W42294   2.723  10.187  11.101
83034W        W42295  36.351  26.209   4.782
83035W        W42296  39.983  36.022  12.849
83036W        W42297  18.743  41.473   3.814
83037W        W42298  14.782  15.587   3.660
83038W        W42299  21.533  44.763   4.738
83039W        W42300   4.789  27.459   1.260
83040W        W42301  43.300  36.447   4.748
83041W        W42302  17.307   3.825   3.819
83042W        W42303  20.062  18.272   0.268
83043W        W42304   9.657  26.594  10.926
83044W        W42305   9.696  13.110  13.926
83045W        W42306  17.129  43.311  12.867
83046W        W42307  15.812  44.790   3.748
83047W        W42308  28.115  15.216   0.768
83048W        W42309  35.555  32.599   3.375
83049W        W42310  26.030   4.221   3.780
83050W        W42311   0.828  26.530   2.333
83051W        W42312  24.094  20.733   1.797
83052W        W42313  10.216  28.472   3.835
83053W        W42314  43.471  16.291  10.523
83054W        W42315  36.010  42.514  11.052
83055W        W42316   7.779   4.874   3.715
83056W        W42317   3.850   6.259  11.943
83057W        W42318  27.546  12.822   2.768
83058W        W42319  25.653  25.601   4.658
83059W        W42320  18.099  43.011   2.822
83060W        W42321  36.555  35.592  12.056
83061W        W42322  22.067   1.903  14.408
83062W        W42323  23.499  16.226  13.465
83063W        W42324  44.875  28.571   4.785
83064W        W42325  44.486  10.379  14.924
83065W        W42326  18.275   5.303  11.486
83066W        W42327  24.708  13.139  13.528
83067W        W42328  29.561  12.118  12.360
83068W        W42329  31.537  25.053  14.997
83069W        W42330  14.809  31.598   3.253
83070W        W42331  39.356   2.768  11.607
83071W        W42332  32.412   8.210  13.397
83072W        W42333  18.628   2.763   4.261
83073W        W42334  27.453   6.189  11.125
83074W        W42335  32.050  39.475  13.956
83075W        W42336  11.823   8.774   3.684
83076W        W42337  32.499  18.110  13.867
83077W        W42338   5.227   1.755  12.042
83078W        W42339   3.243  26.100  12.468
83079W        W42340   9.774  35.394   4.737
83080W        W42341  38.561   7.227  13.873
83081W        W42342  36.503  25.485   0.446
83082W        W42343  24.617  44.442   3.380
83083W        W42344  24.668  37.880   1.219
83084W        W42345  44.776  26.669  11.867
83085W        W42346   2.434  43.381   2.664
83086W        W42347  18.589  11.368  11.058
83087W        W42348  44.351  36.032  14.422
83088W        W42349   6.216  38.531   3.724
83089W        W42350  41.927  40.531  11.924
83090W        W42351   7.392  36.998  10.961
83091W        W42352  23.617   5.732  10.424
83092W        W42353  34.865   6.790   4.598
83093W        W42354  28.650  27.649   4.118
83094W        W42355   1.749  27.976  10.990
83095W        W42356   1.841   6.321  13.038
83096W        W42357   8.809  37.018  10.966
83097W        W42358  38.848  12.362  14.932
83098W        W42359  25.038   8.659  14.432
83099W        W42360  31.063  32.142  13.308
83100W        W42361  34.529  11.706  14.903
83101W        W42362   2.776  35.388   4.800
83102W        W42363  34.089  39.866  13.864
83103W        W42364  38.929   6.382  11.529
83104W        W42365   6.351  31.520   3.354
83105W        W42366  38.060  31.151   1.309
83106W        W42367  41.413  35.474  13.902
83107W        W42368  34.005  18.086   3.682
83108W        W42369   7.754   4.298   2.357
83109W        W42370  28.608  21.027  10.431
83110W        W42371  44.904   4.872  12.982
83111W        W42372  25.072  33.880  11.406
83112W        W42373  24.645  36.936   3.363
83113W        W42374  27.995  27.580  13.845
83114W        W42375  17.687  23.000   1.873
83115W        W42376  19.537  12.789   0.418
83116W        W42377  11.300   1.951  11.600
83117W        W42378  14.142  40.480   1.288
83118W        W42379  11.720  23.143  11.929
83119W        W42380  41.010  37.474  10.602
83120W        W42381  10.668  12.766  12.362
83121W        W42382   3.908  43.481   1.796
83122W        W42383   0.459  36.432  13.323
83123W        W42384  27.094  26.527   3.183
83124W        W42385  40.863  24.189  14.420
83125W        W42386  30.009  21.119   1.247
83126W        W42387  24.680  33.091   5.656
83127W        W42388  12.763  15.674   1.815
83128W        W42389  15.659  15.725  11.603
83129W        W42390   2.460   1.466   4.720
83130W        W42391  15.242  41.857   1.751
83131W        W42392  21.053  16.234   2.683
83132W        W42393  10.750   6.288   3.339
83133W        W42394  35.914  37.989   3.652
83134W        W42395  27.590   8.367  13.897
83135W        W42396  42.906  25.061   0.258
83136W        W42397  24.557  34.958  10.913
83137W        W42398  17.074  30.606  13.816
83138W        W42399  43.443   2.234   3.830
83139W        W42400  35.431   4.895  14.469
83140W        W42401   6.254  22.663  10.625
83141W        W42402   2.401  12.641  10.156
83142W        W42403  13.342  20.610  12.020
83143W        W42404  20.636  31.947  12.918
83144W        W42405  32.134  29.170  10.418
83145W        W42406  26.097  16.135   2.282
83146W        W42407   1.960  26.626   0.479
83147W        W42408  43.275  10.382  13.870
83148W        W42409   5.246  24.177  12.429
83149W        W42410  16.611  18.786  12.443
83150W        W42411   4.331  28.539   1.704
83151W        W42412  37.005  26.066  12.997
83152W        W42413   0.853   9.845  13.443
83153W        W42414  18.559   1.851   1.236
83154W        W42415  23.677  37.569  11.033
83155W        W42416  19.682  22.060   2.665
83156W        W42417  40.491  40.510  11.521
83157W        W42418  44.943  21.179   3.777
83158W        W42419  30.114  33.572   1.343
83159W        W42420  10.667  21.070   3.829
83160W        W42421  15.195  18.731  11.920
83161W        W42422   3.355  41.854   5.104
83162W        W42423  13.275  32.905  11.396
83163W        W42424  27.083  25.160   2.755
83164W        W42425  17.732   9.837  11.542
83165W        W42426   4.915  36.965   4.789
83166W        W42427  14.788  39.871   3.170
83167W        W42428  30.975  44.411   4.827
83168W        W42429   8.868  42.863  11.986
83169W        W42430   8.386   0.877  14.971
83170W        W42431   0.949  41.443   1.835
83171W        W42432  12.343  18.661   2.862
83172W        W42433   0.278  29.103  13.984
83173W        W42434  25.705  39.026   4.326
83174W        W42435  33.978  44.767   2.748
83175W        W42436  31.135  25.476  11.040
83176W        W42437  32.030  16.710  14.032
83177W        W42438  18.638  44.913   2.689
83178W        W42439  20.101  14.276  12.979
83179W        W42440  16.771  31.647   0.466
83180W        W42441  44.817  42.310  12.396
83181W        W42442  16.176   5.278   1.249
83182W        W42443  22.163  24.228  10.644
83183W        W42444  33.578  18.136  14.999
83184W        W42445  44.967   0.913   2.292
83185W        W42446   2.914  39.064  13.442
83186W        W42447  11.372   3.906   3.806
83187W        W42448  28.933  13.143  12.088
83188W        W42449  37.340  42.361  12.423
83189W        W42450   3.861  41.797   2.900
83190W        W42451  35.067  32.397   2.871
83191W        W42452  42.842  11.160  14.765
83192W        W42453   9.295  41.509   5.117
83193W        W42454   7.668   2.896  13.348
83194W        W42455  17.153  31.148  14.959
83195W        W42456  39.896  42.798   4.228
83196W        W42457  44.364   4.355   3.236
83197W        W42458  38.893   9.303  11.059
83198W        W42459  13.641  33.418  14.399
83199W        W42460  38.419  27.077  13.389
83200W        W42461  40.866  19.099   0.262
83201W        W42462  16.757  17.795   4.146
83202W        W42463  13.837   6.243  13.899
83203W        W42464  19.578   7.749  11.477
83204W        W42465   3.359  37.426  11.124
83205W        W42466  32.397  18.201   0.862
83206W        W42467   8.863  28.627  14.854
83207W        W42468   5.197  24.664  14.964
83208W        W42469  21.756  10.209   0.762
83209W        W42470  14.824   2.877  14.279
83210W        W42471  16.674  17.307   2.254
83211W        W42472  24.552  11.663  11.511
83212W        W42473   1.912   7.797  10.497
83213W        W42474  30.098  24.057   1.263
83214W        W42475   5.765  39.537  13.451
83215W        W42476   3.936  38.978  10.517
83216W        W42477   2.730  22.540  12.021
83217W        W42478  14.270  25.210   3.304
83218W        W42479  22.628   1.451  11.385
83219W        W42480  23.720   9.644  12.378
83220W        W42481  27.483  40.537  13.406
83221W        W42482  23.634  43.382  11.040
83222W        W42483   4.822  23.722   1.821
83223W        W42484  25.057  40.355   3.243
83224W        W42485  21.094  32.503   2.783
83225W        W42486  26.654  40.941   1.776
83226W        W42487   5.373  24.592  11.396
83227W        W42488  14.097  44.796   0.370
83228W        W42489  12.319  18.573  13.311
83229W        W42490  40.394  33.384  10.635
83230W        W42491  31.567  42.414  13.935
83231W        W42492  10.320   1.936  10.553
83232W        W42493  41.840   1.318   0.916
83233W        W42494  34.554  23.704   1.750
83234W        W42495   7.861  16.196   2.261
83235W        W42496  41.824  44.008   1.849
83236W        W42497  23.143  41.326   0.290
83237W        W42498   6.860  39.352  11.102
83238W        W42499  16.122  38.045   4.628
83239W        W42500  44.370   6.699   1.913
83240W        W42501   7.910  38.012   2.203
83241W        W42502   6.705  26.519   0.460
83242W        W42503  41.472  38.395   2.387
83243W        W42504  29.553  43.411  11.575
83244W        W42505  37.071   3.715   3.317
83245W        W42506  26.591   7.863   4.733
83246W        W42507  29.061   1.280   0.849
83247W        W42508  43.961  31.616   0.458
83248W        W42509  25.010   4.230   2.690
83249W        W42510  30.061  27.181  12.545
83250W        W42511   5.761  14.790  10.569
83251W        W42512  33.390  11.164  12.018
83252W        W42513  23.231  30.643   4.642
83253W        W42514   1.391   6.213  14.443
83254W        W42515  23.106  28.140   2.317
83255W        W42516  39.378   3.265  13.351
83256W        W42517  25.659  36.571   4.124
83257W        W42518   6.357  37.062   4.720
83258W        W42519  30.589  14.806   0.380
83259W        W42520  35.090  24.512  14.003
83260W        W42521   9.208  38.062  13.450
83261W        W42522  22.995  31.557  11.974
83262W        W42523   4.798  43.975  10.934
83263W        W42524   8.284  40.899   1.738
83264W        W42525  18.282  38.400   2.753
83265W        W42526  26.971  25.190  10.604
83266W        W42527  39.910  17.694   2.339
83267W        W42528  20.250  33.089  12.926
83268W        W42529  36.041  16.199  12.836
83269W        W42530   0.982  28.080   0.285
83270W        W42531  17.205  19.554   9.920
83271W        W42532  41.399  14.810  12.085
83272W        W42533  22.620  26.487  10.548
83273W        W42534  41.985  33.429  13.924
83274W        W42535  15.697  24.113   3.715
83275W        W42536  36.074  10.145  13.002
83276W        W42537   5.385   9.378   3.379
83277W        W42538  15.206  35.485  12.877
83278W        W42539   4.812   5.876   1.341
83279W        W42540  42.810  24.673   2.697
83280W        W42541  31.958   4.796  12.401
83281W        W42542  42.876   5.913   0.292
83282W        W42543  41.476   8.883  14.317
83283W        W42544  22.577  42.882  10.416
83284W        W42545   2.293   1.892  11.463
83285W        W42546  14.203  39.538  12.505
83286W        W42547  25.106  11.810   2.684
83287W        W42548  35.588  29.635  12.403
83288W        W42549  30.006  21.616   2.261
83289W        W42550  42.386  40.013   4.311
83290W        W42551  38.883  11.803  13.981
83291W        W42552  33.588  39.819   4.159
83292W        W42553   6.849   8.683  10.492
83293W        W42554  10.340   5.736  12.560
83294W        W42555   4.277  42.933   1.377
83295W        W42556  12.708   2.756  13.381
83296W        W42557  40.880  42.032  12.402
83297W        W42558  20.243  10.283   0.469
83298W        W42559  35.403   5.235   4.176
83299W        W42560  39.964  28.081   3.861
83300W        W42561  10.769   8.786   0.470
83301W        W42562   1.860  41.902  13.320
83302W        W42563  34.016  41.006  12.875
83303W        W42564  30.588  22.735  11.572
83304W        W42565  37.912  39.522   0.820
83305W        W42566  26.173  42.343   4.745
83306W        W42567  43.507   6.216   9.921
83307W        W42568  20.743  28.983  12.374
83308W        W42569  19.182  20.121  12.976
83309W        W42570   1.762  28.510   1.290
83310W        W42571   0.360  23.665  12.060
83311W        W42572   5.783  44.848   2.751
83312W        W42573  22.511  32.026   2.299
83313W        W42574  17.145   7.820   1.223
83314W        W42575  13.778  42.401  11.953
83315W        W42576  32.936  32.446   4.217
83316W        W42577  19.595  28.135   2.245
83317W        W42578  34.984  33.091  12.362
83318W        W42579   6.331   0.334   9.952
83319W        W42580  30.964  20.077   4.347
83320W        W42581   4.415  28.680  13.036
83321W        W42582  28.968  30.069  11.077
83322W        W42583  25.574  18.582   0.752
83323W        W42584   2.784  40.372   2.804
83324W        W42585  29.433  15.176  10.628
83325W        W42586  14.217   0.478  10.901
83326W        W42587  14.120  27.060   1.363
83327W        W42588  33.951  22.674  14.870
83328W        W42589  24.515  39.497  11.928
83329W        W42590   4.911  28.559  12.889
83330W        W42591  42.951   6.265   3.742
83331W        W42592  32.928  42.969   2.887
83332W        W42593  16.318  26.523   2.860
83333W        W42594  35.577  30.501  14.324
83334W        W42595   3.802   5.898  11.994
83335W        W42596  31.986  43.921   1.284
83336W        W42597  19.064  20.748   2.223
83337W        W42598  10.865  38.069  14.985
83338W        W42599  17.565  26.023  12.839
83339W        W42600  33.062  43.354   4.613
83340W        W42601   7.300   9.323  12.404
83341W        W42602  33.029  31.526   2.698
83342W        W42603   5.893  14.163  12.000
83343W        W42604   5.805  31.464  11.468
83344W        W42605  18.061  24.663  10.431
83345W        W42606  32.985  11.368   0.759
83346W        W42607  39.993  32.065  14.306
83347W        W42608   8.765  31.966   1.316
83348W        W42609   6.737  33.938  13.892
83349W        W42610   2.763  33.424  13.352
83350W        W42611  30.955  30.453   2.178
83351W        W42612   7.249  42.812   2.731
83352W        W42613   0.880   9.657   1.839
83353W        W42614  24.082   1.337   4.700
83354W        W42615  21.042   0.366   0.268
83355W        W42616  17.259  36.020   2.833
83356W        W42617  16.104   8.337   0.931
83357W        W42618  10.697  20.537   1.845
83358W        W42619  24.065  15.645  10.128
83359W        W42620  22.680  22.125  14.335
83360W        W42621  28.011  36.557  14.934
83361W        W42622  19.137  16.682  13.425
83362W        W42623  10.270  35.925   2.184
83363W        W42624  30.656  43.858   0.459
83364W        W42625  15.272  18.212   4.818
83365W        W42626  20.199  31.926   4.614
83366W        W42627  26.979   3.300   0.369
83367W        W42628  15.147   1.467  12.089
83368W        W42629   5.723  21.732   1.821
83369W        W42630   6.732   1.960   5.268
83370W        W42631   8.377  25.129  10.464
83371W        W42632  17.734  27.187   3.190
83372W        W42633  21.683   3.328   3.374
83373W        W42634  32.123  37.436  14.509
83374W        W42635   8.841  15.817  14.866
83375W        W42636   9.667  40.516  13.471
83376W        W42637   9.676   2.800   4.315
83377W        W42638   1.745   0.263   3.210
83378W        W42639  44.945  22.648   3.805
83379W        W42640  12.653  22.502   3.361
83380W        W42641  13.831  22.530  13.888
83381W        W42642  21.710  35.457   1.834
83382W        W42643  14.731  29.137  13.969
83383W        W42644  32.140  24.653   3.758
83384W        W42645   8.361  16.250   2.336
83385W        W42646  44.382  27.621  10.407
83386W        W42647  41.398  23.099   2.796
83387W        W42648  38.976  10.816  13.396
83388W        W42649  34.553   4.229  14.392
83389W        W42650  24.692   9.843   1.394
83390W        W42651  27.128  32.909  12.352
83391W        W42652   1.836   6.362   3.253
83392W        W42653   4.239   2.942  14.837
83393W        W42654  23.668  15.592  12.005
83394W        W42655  15.214   4.215  13.848
83395W        W42656  14.248  21.513   2.820
83396W        W42657  17.571  35.452   2.188
83397W        W42658  13.210   8.708  14.986
83398W        W42659  21.578  12.351  14.996
83399W        W42660  33.876  18.256  12.917
83400W        W42661  37.477  29.075  11.024
83401W        W42662  41.535   8.709  10.987
83402W        W42663   2.831   7.244   4.714
83403W        W42664  37.337  25.043  13.457
83404W        W42665  38.979  32.020  10.003
83405W        W42666   5.916   4.264  14.333
83406W        W42667  30.003  43.908   0.815
83407W        W42668   6.737  39.532  11.448
83408W        W42669  12.791  17.684  10.928
83409W        W42670  34.870   7.838   1.443
83410W        W42671  31.461  33.451   2.707
83411W        W42672   5.297   1.852   2.704
83412W        W42673  29.922   6.746  12.425
83413W        W42674  25.056  10.743   2.192
83414W        W42675   1.457  18.217  12.437
83415W        W42676   7.181  26.687  12.000
83416W        W42677  30.452  27.053   4.273
83417W        W42678  42.389  28.521  12.344
83418W        W42679  31.474  22.584   4.838
83419W        W42680  34.001  34.482  13.965
83420W        W42681  16.225  37.069  13.991
83421W        W42682  40.798  28.090   5.186
83422W        W42683  43.798  41.440  10.626
83423W        W42684  42.809  12.762  14.397
83424W        W42685  32.538  38.843   3.339
83425W        W42686  39.547  23.660   3.810
83426W        W42687  35.055   4.815   1.919
83427W        W42688  14.744   7.714   4.141
83428W        W42689   2.795   4.402  12.389
83429W        W42690  23.022  32.134   0.937
83430W        W42691   0.896   6.875   3.350
83431W        W42692   2.352  16.810  11.514
83432W        W42693  28.035  16.578   3.199
83433W        W42694  29.542  18.571   0.269
83434W        W42695  28.629   0.364  10.596
83435W        W42696  19.088  19.699   3.853
83436W        W42697  15.155  12.130  11.482
83437W        W42698   5.310   6.769   2.806
83438W        W42699  10.724   0.906  13.446
83439W        W42700  41.963   2.827  14.761
83440W        W42701  11.266  27.969  12.867
83441W        W42702  40.019  20.653   5.264
83442W        W42703  43.010  32.526  12.468
83443W        W42704  15.278   9.298  13.477
83444W        W42705   6.854  29.454  11.573
83445W        W42706  35.102  19.753  14.766
83446W        W42707  27.489  13.191  13.036
83447W        W42708  40.016  13.609  14.923
83448W        W42709  12.765   8.670   1.730
83449W        W42710  26.041  32.405   3.865
83450W        W42711   6.722  31.084   0.334
83451W        W42712   4.780   6.350   2.349
83452W        W42713  27.548  34.987   1.926
83453W        W42714   9.329  22.176  13.926
83454W        W42715  33.528  35.405   3.681
83455W        W42716  18.057  30.021   3.869
83456W        W42717  41.300  11.134  13.375
83457W        W42718   1.890  37.362   0.364
83458W        W42719  13.771  17.794   3.359
83459W        W42720   9.799  13.243   1.391
83460W        W42721   0.272  13.683  11.965
83461W        W42722   1.251  28.679  14.809
83462W        W42723  38.913  18.619  12.538
83463W        W42724   5.322  32.455  13.881
83464W        W42725  10.305  39.961  11.982
83465W        W42726  33.492  22.039   0.302
83466W        W42727  20.128  10.675   0.469
83467W        W42728   5.431  18.774  12.985
83468W        W42729  15.088   3.935  13.431
83469W        W42730  30.131  39.827   2.396
83470W        W42731  31.924   9.889  13.985
83471W        W42732  24.612  40.477  13.454
83472W        W42733   4.270  10.834   4.137
83473W        W42734  24.116  27.539   4.812
83474W        W42735   1.853  28.635   4.124
83475W        W42736  30.937  40.521  10.902
83476W        W42737  27.667  38.058  10.915
83477W        W42738  27.969  37.046   4.714
83478W        W42739   4.878  28.953   2.777
83479W        W42740  43.486  44.971   4.287
83480W        W42741  31.554   1.238   1.422
83481W        W42742   0.832   3.222  12.410
83482W        W42743  24.093  11.204  10.950
83483W        W42744  23.658  34.091   5.278
83484W        W42745   9.748  44.496  14.403
83485W        W42746   8.854   6.206   5.254
83486W        W42747  26.162  11.356   2.331
83487W        W42748   6.809  16.154  12.904
83488W        W42749  29.665  15.310  12.416
83489W        W42750  36.048  16.697   1.427
83490W        W42751  11.348  25.536   3.368
83491W        W42752   8.351  33.399   2.221
83492W        W42753  17.080  21.250   3.331
83493W        W42754   0.433   6.726   4.747
83494W        W42755  40.978  37.489   0.283
83495W        W42756  35.590  40.027   1.273
83496W        W42757  39.432   8.732   3.718
83497W        W42758  18.053  42.408  12.425
83498W        W42759  43.789  13.291  10.943
83499W        W42760  20.527   3.215  13.409
83500W        W42761   8.245  12.742  12.915
83501W        W42762  15.589  40.847  11.081
83502W        W42763   4.283  23.019   2.310
83503W        W42764  36.445  22.650   4.351
83504W        W42765   8.214  23.101  11.379
83505W        W42766  33.105  29.041  12.559
83506W        W42767  13.331  21.147   5.306
83507W        W42768  12.143  37.536   2.358
83508W        W42769  15.272  12.734   3.831
83509W        W42770  23.005  11.756   1.379
83510W        W42771  25.671  12.152   3.285
83511W        W42772  24.988  41.338   1.842
83512W        W42773   3.954  14.746   0.348
83513W        W42774  34.104  40.961  12.403
83514W        W42775   4.346   6.331  10.452
83515W        W42776  24.698  33.390  12.847
83516W        W42777   3.840  12.326  12.988
83517W        W42778  33.479  42.332   3.679
83518W        W42779  41.330  25.502   2.705
83519W        W42780  39.928  40.955  10.896
83520W        W42781  36.492   3.408  12.082
83521W        W42782  28.020  41.969   1.229
83522W        W42783  13.804  22.593  14.417
83523W        W42784   8.264   2.443  12.007
83524W        W42785   9.671  28.078  11.546
83525W        W42786  19.574  11.356  11.951
83526W        W42787  23.619  22.703   4.258
83527W        W42788  35.398  42.847  14.024
83528W        W42789  34.047  37.383  12.004
83529W        W42790  41.822   2.905  14.348
83530W        W42791  42.021  30.976  11.572
83531W        W42792  26.017  40.824   0.303
83532W        W42793  29.169   4.293  14.394
83533W        W42794  36.957   5.278   2.691
83534W        W42795  38.355   9.706  11.972
83535W        W42796  27.983  32.129   2.270
83536W        W42797  36.851   6.290  11.579
83537W        W42798  37.958   6.882   2.178
83538W        W42799  24.141  27.682  13.814
83539W        W42800  21.512  43.395  14.796
83540W        W42801  30.910  29.125   0.401
83541W        W42802   6.859   2.448   1.788
83542W        W42803  31.067  39.933  10.461
83543W        W42804  21.614  13.151  12.364
83544W        W42805   3.714  36.556  10.512
83545W        W42806  17.777  40.491   2.705
83546W        W42807  22.672  23.525   0.780
83547W        W42808  28.095  17.071  11.549
83548W        W42809  13.220  28.518  10.484
83549W        W42810  18.743  22.683   1.774
83550W        W42811   6.809   4.822   0.764
83551W        W42812  21.075   2.758  12.576
83552W        W42813  23.057   4.751  12.434
83553W        W42814  38.486  23.072   4.756
83554W        W42815  40.919  34.931  13.981
83555W        W42816  12.663  32.993   0.420
83556W        W42817  29.442  26.458   1.432
83557W        W42818  16.173  21.199   3.783
83558W        W42819  36.023   8.335  12.873
83559W        W42820   0.460  41.328  13.824
83560W        W42821  19.720  30.998  11.499
83561W        W42822  19.611  11.317   0.841
83562W        W42823  18.750  17.205   4.292
83563W        W42824  39.044  44.481  10.537
83564W        W42825  23.142   5.874   0.291
83565W        W42826  16.748  35.397  12.861
83566W        W42827  20.223  25.491   3.325
83567W        W42828  41.353   9.308  13.838
83568W        W42829   9.720  11.759  11.570
83569W        W42830  26.118  25.467  14.417
83570W        W42831  13.643   2.865  13.419
83571W        W42832  22.605  31.566  13.928
83572W        W42833  11.223  31.463   2.894
83573W        W42834   2.347   3.842  11.438
83574W        W42835  21.021  28.021   1.863
83575W        W42836  12.611   5.699   2.826
83576W        W42837  26.537  33.915  12.439
83577W        W42838   3.769   6.773   1.259
83578W        W42839   0.493  28.126   2.874
83579W        W42840   3.799  21.072  10.065
83580W        W42841  15.615  38.932   0.479
83581W        W42842  43.375  14.633   4.255
83582W        W42843   0.378  26.638   2.864
83583W        W42844   7.397  30.003  14.435
83584W        W42845   2.336  15.619  14.477
83585W        W42846  41.324  32.047   4.655
83586W        W42847  38.963  25.962  14.492
83587W        W42848  28.162  14.243   0.824
83588W        W42849  11.217  38.011  12.050
83589W        W42850  28.611   9.783   3.340
83590W        W42851  34.008  26.524  13.413
83591W        W42852  44.993  42.785   1.741
83592W        W42853   7.859   0.300   1.380
83593W        W42854  16.312  39.063   2.343
83594W        W42855   3.938  26.520   3.275
83595W        W42856  28.061   5.756   4.136
83596W        W42857  23.055  38.354  14.990
83597W        W42858   8.393   7.224  11.874
83598W        W42859  27.603  29.048  13.898
83599W        W42860  33.113  25.495  12.363
83600W        W42861   1.334  40.385   0.788
83601W        W42862  43.361  21.520  14.820
83602W        W42863  30.643  28.527  10.403
83603W        W42864  34.587  18.191  11.503
83604W        W42865   0.301  11.751  11.090
83605W        W42866  32.902  27.012   4.771
83606W        W42867  23.221  41.958   1.872
83607W        W42868   2.434  34.517   1.823
83608W        W42869   1.465  13.175  12.837
83609W        W42870  41.453  16.597  12.868
83610W        W42871  37.480  28.017  13.384
83611W        W42872   2.311   2.342   0.914
83612W        W42873   4.325  11.143   0.265
83613W        W42874  36.861  20.185  13.987
83614W        W42875  22.518  36.449   2.384
83615W        W42876  14.293  30.023  10.953
83616W        W42877   0.944  41.852  11.960
83617W        W42878   1.282   0.354  13.827
83618W        W42879  25.595  25.009  13.494
83619W        W42880  34.109   1.362   1.450
83620W        W42881  16.213  15.118   3.702
83621W        W42882  19.285  29.952  12.546
83622W        W42883  35.572  26.150  11.914
83623W        W42884  34.419  40.397   2.738
83624W        W42885  31.612   0.779  11.923
83625W        W42886   6.886  40.421   2.750
83626W        W42887  30.973  10.834  10.439
83627W        W42888  20.663  44.302  13.928
83628W        W42889   2.258  37.468   4.233
83629W        W42890   4.751  15.585  14.867
83630W        W42891  26.645  42.376  13.365
83631W        W42892  27.505  38.869  14.941
83632W        W42893  28.934  22.039   1.822
83633W        W42894   5.416   2.312  14.775
83634W        W42895  43.484  20.192  12.356
83635W        W42896   8.201  27.565   2.238
83636W        W42897  43.933  21.160   3.703
83637W        W42898  12.689  30.442   1.739
83638W        W42899  20.160   5.743   1.756
83639W        W42900  20.601  29.984  12.872
83640W        W42901  13.652  40.897   2.872
83641W        W42902   6.918   5.338   2.764
83642W        W42903   1.397  24.091  13.966
83643W        W42904   7.751  20.255   4.702
83644W        W42905  30.436  30.030   0.932
83645W        W42906   2.841  20.060  13.898
83646W        W42907   4.257   7.759   1.353
83647W        W42908  23.661  29.522  12.462
83648W        W42909   4.743  23.490  12.353
83649W        W42910  39.460  18.713  14.931
83650W        W42911  42.378  26.199   3.856
83651W        W42912  24.595   6.710  12.509
83652W        W42913   0.452  19.063   3.257
83653W        W42914  27.629  31.544   5.166
83654W        W42915  44.810   4.700   2.210
83655W        W42916   5.412  31.468  13.846
83656W        W42917  14.193  10.649  12.025
83657W        W42918  26.505   3.231  10.635
83658W        W42919  35.929  36.008  13.901
83659W        W42920  16.224   7.813  13.533
83660W        W42921  43.876  39.379  13.319
83661W        W42922  26.471  41.801   3.154
83662W        W42923  38.453  36.412  14.907
83663W        W42924  11.274  26.615  11.911
83664W        W42925  15.221  28.118  14.890
83665W        W42926   9.779   6.240   3.273
83666W        W42927  18.650  38.074  10.457
83667W        W42928  34.471   2.961   1.447
83668W        W42929  16.721  21.109   4.772
83669W        W42930   7.867  20.578   0.965
83670W        W42931  38.384  44.822   3.252
83671W        W42932  14.599  14.708   4.831
83672W        W42933  39.467   9.674   2.836
83673W        W42934  30.062  17.177   0.362
83674W        W42935   5.914   5.812  11.568
83675W        W42936  21.135   0.820  13.042
83676W        W42937  22.549  12.728  10.074
83677W        W42938  31.090  23.168   2.709
83678W        W42939  36.373  38.052  14.332
83679W        W42940   2.308  39.901   0.344
83680W        W42941  19.735  37.420  12.982
83681W        W42942  12.299  36.574   4.314
83682W        W42943  41.534  12.752   0.298
83683W        W42944  14.619  18.648  10.947
83684W        W42945  14.674  30.980  14.456
83685W        W42946  23.734  26.028   0.333
83686W        W42947  13.254   1.341   2.731
83687W        W42948  44.314   2.851   1.855
83688W        W42949  26.677  22.245  11.554
83689W        W42950   6.194  24.638   2.379
83690W        W42951  22.078  20.103   4.307
83691W        W42952  38.386  27.031   2.875
83692W        W42953  13.278   7.371  13.914
83693W        W42954  34.069   0.355   2.190
83694W        W42955  37.888  15.161   3.274
83695W        W42956  12.251  13.121  12.963
83696W        W42957  35.581   3.723   3.638
83697W        W42958  26.963  22.669  10.411
83698W        W42959   9.877  23.614  13.961
83699W        W42960  17.162  14.210   4.698
83700W        W42961   1.762  15.247  14.882
83701W        W42962   1.350  27.950   4.648
83702W        W42963  11.742  31.421  10.625
83703W        W42964   6.233  44.992   2.381
83704W        W42965  17.259  22.185  10.477
83705W        W42966  18.051  11.666   3.825
83706W        W42967  24.636   2.296   1.761
83707W        W42968  20.058   3.788  14.310
83708W        W42969   5.265  41.856   3.649
83709W        W42970  14.766   9.301   1.449
83710W        W42971   1.872   8.385   3.860
83711W        W42972  16.228  10.762  10.518
83712W        W42973  19.207  25.589   1.710
83713W        W42974   2.944  27.988   2.346
83714W        W42975  34.113   4.739  10.532
83715W        W42976  24.590  26.106   4.680
83716W        W42977  36.376  20.703   0.843
83717W        W42978   1.879  16.219  14.318
83718W        W42979  22.615  10.156  10.896
83719W        W42980  12.297   9.883   3.293
83720W        W42981  24.625  30.554   3.260
83721W        W42982  35.960  32.962   0.955
83722W        W42983  39.903  14.263   2.366
83723W        W42984  32.455  41.887   1.816
83724W        W42985  38.467  23.180  14.017
83725W        W42986   3.888  32.394  13.047
83726W        W42987   6.183   2.418   1.727
83727W        W42988  42.786  16.144   0.463
83728W        W42989  14.272  28.111   3.264
83729W        W42990  29.450  44.902   0.866
83730W        W42991  44.852   4.408  10.890
83731W        W42992   6.416  37.050   0.358
83732W        W42993   3.816   5.238   9.999
83733W        W42994  40.395  28.110   3.188
83734W        W42995  22.037  12.316   0.337
83735W        W42996  21.081  22.641  12.967
83736W        W42997   2.952  25.020  10.913
83737W        W42998  28.158  34.027   9.953
83738W        W42999   5.439  19.544  14.301
83739W        W43000  10.808   6.242  11.910
83740W        W43001  35.083  26.185  12.900
83741W        W43002  15.686  23.229   0.867
83742W        W43003   6.309   0.978   3.853
83743W        W43004   4.334  20.739   2.185
83744W        W43005  32.606   5.725  14.448
83745W        W43006  32.439  41.797   2.323
83746W        W43007   9.773   3.899   0.308
83747W        W43008  36.393  14.199   3.257
83748W        W43009  38.973  17.777  11.609
83749W        W43010  24.120   7.381   1.423
83750W        W43011  38.063  44.929   0.899
83751W        W43012   2.256  26.194  12.947
83752W        W43013  22.577  12.768  10.519
83753W        W43014  40.956   7.865   1.236
83754W        W43015   1.263   4.779   4.633
83755W        W43016  33.575   9.702  14.912
83756W        W43017   1.316  12.796  11.099
83757W        W43018  11.635  23.219   2.212
83758W        W43019  18.072  10.182  13.017
83759W        W43020  36.399  28.034   3.232
83760W        W43021   2.841   7.293   4.255
83761W        W43022  40.034  39.056  14.903
83762W        W43023  23.993  43.350   2.679
83763W        W43024   3.238  30.979   2.230
83764W        W43025   7.276  35.945  10.451
83765W        W43026  22.610   8.192   2.196
83766W        W43027  10.845  15.145  10.971
83767W        W43028   2.300  36.889   3.862
83768W        W43029  16.769  40.420   3.304
83769W        W43030  32.424  23.986  11.933
83770W        W43031  12.311   8.734   2.342
83771W        W43032  32.945  27.561   2.290
83772W        W43033  15.775  20.071   3.783
83773W        W43034  22.026  38.972  12.008
83774W        W43035  35.013   3.757  14.945
83775W        W43036  13.218  20.611   3.789
83776W        W43037   6.824  17.223  14.892
83777W        W43038  38.058  34.435  10.150
83778W        W43039  42.856   2.732   1.788
83779W        W43040  33.596  22.252   2.348
83780W        W43041  33.491  38.854  14.323
83781W        W43042  25.509  12.321  12.062
83782W        W43043  29.654  20.533  11.087
83783W        W43044   1.442  18.729  13.040
83784W        W43045  33.440  37.571  12.384
83785W        W43046  42.351  14.179  10.062
83786W        W43047  26.641  30.043  13.902
83787W        W43048   4.215  40.878  10.627
83788W        W43049  36.586  16.794  11.584
83789W        W43050   1.364  15.820   2.338
83790W        W43051  37.989   8.896  14.374
83791W        W43052  20.658  11.658   4.746
83792W        W43053  28.972  14.701   0.399
83793W        W43054  13.241   7.900  11.499
83794W        W43055  43.317  42.992  11.507
83795W        W43056  11.676  37.504  12.884
83796W        W43057  14.334  35.083   0.424
83797W        W43058  21.143  12.280  11.898
83798W        W43059  42.320  38.024  10.931
83799W        W43060  39.935  30.078   2.223
83800W        W43061  38.823   2.794  12.973
83801W        W43062  38.940  43.305   0.415
83802W        W43063  29.660  43.315  12.434
83803W        W43064  40.332   2.235   5.289
83804W        W43065  20.673  13.186   2.710
83805W        W43066  37.342  43.441   4.759
83806W        W43067   5.903  44.975  13.934
83807W        W43068  17.653   3.820  12.874
83808W        W43069  43.335  10.670  12.038
83809W        W43070  41.914  43.787  10.592
83810W        W43071  10.146  36.011  10.964
83811W        W43072   0.751  10.720  14.994
83812W        W43073  21.160  40.931   1.298
83813W        W43074  35.026   4.735   0.287
83814W        W43075  14.113  14.592   3.371
83815W        W43076  26.006  15.585   3.632
83816W        W43077  26.086  13.141   4.335
83817W        W43078  12.854  37.852   2.785
83818W        W43079  39.949  10.221  11.936
83819W        W43080  13.238  32.562  14.998
83820W        W43081  43.987  18.127  12.475
83821W        W43082   2.420  12.685  13.007
83822W        W43083  21.080  43.789   2.360
83823W        W43084  27.975  36.862   2.784
83824W        W43085  39.373  13.650   0.742
83825W        W43086  40.518   9.788  11.087
83826W        W43087   5.289  35.955   3.689
83827W        W43088   7.306  20.588   2.239
83828W        W43089   3.894  11.194  12.522
83829W        W43090  40.497  34.063  10.070
83830W        W43091  10.227  33.939   0.450
83831W        W43092  33.999  34.100  12.064
83832W        W43093  13.701   9.383   3.154
83833W        W43094  20.238   3.386  13.953
83834W        W43095  34.416  16.270  14.852
83835W        W43096  35.476  19.716   2.247
83836W        W43097  36.926  15.108  13.358
83837W        W43098  17.620  20.567   2.346
83838W        W43099   6.747   0.462  14.498
83839W        W43100  37.875  23.534   3.298
83840W        W43101  16.288  23.207   4.646
83841W        W43102  33.094  35.428   3.739
83842W        W43103  27.648   4.798  12.565
83843W        W43104  13.247   4.788  14.420
83844W        W43105  12.290  44.825  11.878
83845W        W43106  18.201   1.786   4.347
83846W        W43107  11.347  40.455  10.905
83847W        W43108  29.031  13.631  14.443
83848W        W43109  36.947  24.083  12.015
83849W        W43110   3.304  23.129  12.984
83850W        W43111  34.432   3.951  12.443
83851W        W43112   7.178  13.333   4.339
83852W        W43113   5.881  21.110   3.361
83853W        W43114   9.683  14.782   2.330
83854W        W43115   1.372  44.784  13.831
83855W        W43116   3.835  25.101   2.355
83856W        W43117   0.305  32.990  13.988
83857W        W43118  36.036  10.823   4.237
83858W        W43119  38.908  29.044  10.457
83859W        W43120  31.500  12.723   2.661
83860W        W43121  22.522  21.147  14.508
83861W        W43122  44.318  20.713   2.881
83862W        W43123  29.070  27.627   3.863
83863W        W43124  35.089  21.212  13.398
83864W        W43125  19.161  25.693  13.349
83865W        W43126  11.278  35.527   1.240
83866W        W43127   7.186  17.150   4.121
83867W        W43128  39.400  33.546  11.409
83868W        W43129  44.940  37.085  12.926
83869W        W43130  28.992  18.751  12.407
83870W        W43131  39.833  32.120  12.859
83871W        W43132  18.591  25.660   1.845
83872W        W43133  15.096  11.705   1.921
83873W        W43134  22.631   3.809  12.419
83874W        W43135  34.107  23.016  12.895
83875W        W43136  41.897  40.362  12.850
83876W        W43137   0.960  43.299   0.295
83877W        W43138   4.252  18.209   2.220
83878W        W43139  26.169  34.450   2.205
83879W        W43140  28.970   5.884  10.435
83880W        W43141  25.660  11.710   4.758
83881W        W43142  44.278  12.784   1.737
83882W        W43143  31.005  42.441  14.931
83883W        W43144  25.652  33.488   0.258
83884W        W43145  15.819  20.646   2.325
83885W        W43146   2.784   4.928  10.436
83886W        W43147  38.392  23.513   2.743
83887W        W43148  37.978  38.355  13.378
83888W        W43149  17.238   9.273  13.364
83889W        W43150  33.431  21.194   9.958
83890W        W43151  20.047  42.894   0.879
83891W        W43152  31.515  27.157  14.479
83892W        W43153   1.776  20.147   1.922
83893W        W43154  11.844  13.627  14.294
83894W        W43155   0.361   1.293   0.863
83895W        W43156  42.375  22.559  12.460
83896W        W43157  29.940  25.607   3.743
83897W        W43158  14.689  21.635  14.786
83898W        W43159   6.321  39.418   4.349
83899W        W43160   7.754   2.838  13.967
83900W        W43161  41.392  40.003  12.352
83901W        W43162  20.106  28.065   2.724
83902W        W43163  16.745  18.702   1.849
83903W        W43164   5.689   5.414   0.447
83904W        W43165   5.237  31.124   0.824
83905W        W43166  38.866  29.522   5.204
83906W        W43167  26.525  35.927   3.765
83907W        W43168  14.100   9.173   9.922
83908W        W43169  38.060  31.069  13.833
83909W        W43170  35.365   4.300  11.071
83910W        W43171  17.595  44.883   3.849
83911W        W43172  20.120  41.031  13.028
83912W        W43173   9.731  11.183  13.421
83913W        W43174  42.008  35.560   2.703
83914W        W43175   2.373  32.402   1.724
83915W        W43176  28.541   6.847  11.612
83916W        W43177  29.520   4.910  14.428
83917W        W43178  31.635  31.065  12.830
83918W        W43179  43.896  37.847   2.317
83919W        W43180   9.178  20.625  14.910
83920W        W43181  31.980  43.453  13.340
83921W        W43182  25.668   7.276  14.416
83922W        W43183  28.121  40.432   0.362
83923W        W43184  33.063  26.639  10.892
83924W        W43185  20.524  20.124  14.285
83925W        W43186  11.334  21.180   3.664
83926W        W43187  10.179  39.982  11.121
83927W        W43188   3.717  20.062  12.451
83928W        W43189  31.906   2.877   2.688
83929W        W43190  37.438  36.396  13.960
83930W        W43191  39.054  24.581   0.333
83931W        W43192  29.510  13.791   4.160
83932W        W43193  28.498  27.196  11.983
83933W        W43194  44.300  34.486  10.044
83934W        W43195  43.824   2.722  12.343
83935W        W43196  34.614  41.310  13.045
83936W        W43197  37.872   1.289  14.784
83937W        W43198  31.044  21.234  11.127
83938W        W43199  28.177  35.491   1.224
83939W        W43200  42.310  20.034  12.505
83940W        W43201  30.986  29.499  12.846
83941W        W43202   9.769  10.734   4.705
83942W        W43203   9.270  29.077   0.753
83943W        W43204  33.531  38.878  12.466
83944W        W43205  16.147  40.972  14.998
83945W        W43206   8.176  20.600   1.907
83946W        W43207   4.728  23.137  14.896
83947W        W43208  32.466  12.789  11.047
83948W        W43209  37.564  24.022  11.060
83949W        W43210   5.934  35.483  14.993
83950W        W43211  21.680  14.255   3.272
83951W        W43212   2.740  28.076   4.205
83952W        W43213  43.021  42.281  12.559
83953W        W43214  22.128  36.483  11.454
83954W        W43215   6.695  43.270  11.445
83955W        W43216  28.941  20.216   0.859
83956W        W43217  43.448  17.632  13.842
83957W        W43218  17.618  38.002   4.711
83958W        W43219  44.914   8.731   2.277
83959W        W43220  32.106  40.352  12.842
83960W        W43221  26.566   2.894   1.793
83961W        W43222  18.163  12.687  10.912
83962W        W43223  19.772   4.386   3.167
83963W        W43224  10.771  44.810   1.800
83964W        W43225   4.877  37.337  11.998
83965W        W43226  20.529  30.972  14.457
83966W        W43227  14.630  32.044  13.058
83967W        W43228  43.891  36.015  11.474
83968W        W43229   1.251  32.610  13.832
83969W        W43230  10.283  30.458   2.374
83970W        W43231  20.672  43.432   1.233
83971W        W43232  21.619  20.622   1.822
83972W        W43233  26.641  22.508  11.883
83973W        W43234  30.976  26.026  12.530
83974W        W43235  19.623  18.659   5.316
83975W        W43236  28.135  11.658   5.273
83976W        W43237  25.503  21.667  14.975
83977W        W43238  37.535  15.255   1.852
83978W        W43239   7.289  27.644  11.414
83979W        W43240  32.900  23.162   4.665
83980W        W43241   4.370   5.829   1.310
83981W        W43242  29.935  14.156  13.332
83982W        W43243  29.647  30.021  12.340
83983W        W43244  21.548  21.168   0.368
83984W        W43245  11.747  42.840  14.879
83985W        W43246  26.009  26.954  13.969
83986W        W43247   2.755  19.176   4.644
83987W        W43248  17.164   9.715  11.391
83988W        W43249  41.830  44.795  12.396
83989W        W43250  11.668  36.441  10.627
83990W        W43251   1.816  32.548  12.390
83991W        W43252   8.191   2.448  14.892
83992W        W43253   5.407  35.022   1.411
83993W        W43254  34.946  35.511  12.833
83994W        W43255  43.791  34.918   1.384
83995W        W43256  14.759   1.787  12.403
83996W        W43257  21.657  12.219   0.903
83997W        W43258  34.607  35.574  11.057
83998W        W43259  14.812  22.694  12.986
83999W        W43260  18.093   9.336   2.699
84000W        W43261   4.910  25.686  12.941
84001W        W43262  36.494   5.802   5.163
84002W        W43263  22.530  15.231   4.333
84003W        W43264  37.874  16.677  10.440
84004W        W43265  16.612  36.577  10.945
84005W        W43266  34.377  25.185   4.152
84006W        W43267  40.436  29.077  12.054
84007W        W43268  18.250  39.375   2.868
84008W        W43269   1.768   8.286  14.952
84009W        W43270   3.836   3.773   4.748
84010W        W43271  36.016  26.669   4.684
84011W        W43272  19.569  32.418   2.687
84012W        W43273  42.336   2.347  11.856
84013W        W43274   3.290  12.617  13.842
84014W        W43275  10.787  39.395   0.423
84015W        W43276  23.612  29.487  12.857
84016W        W43277  13.191   1.791  13.959
84017W        W43278   2.848  20.235   1.782
84018W        W43279  38.999  36.904   0.316
84019W        W43280  23.103  34.957  13.827
84020W        W43281  13.154  11.333  12.556
84021W        W43282  43.967   1.345   2.819
84022W        W43283  40.402  25.606   0.939
84023W        W43284   7.326  14.288  13.428
84024W        W43285  25.028  13.178   0.949
84025W        W43286  38.566  13.172   4.280
84026W        W43287  10.207  19.704   0.417
84027W        W43288  19.045  17.124  11.398
84028W        W43289  16.643  34.932  11.114
84029W        W43290   8.786   9.340  11.045
84030W        W43291   2.334  30.604   2.195
84031W        W43292  20.664  23.009   4.605
84032W        W43293   2.857  25.536  10.469
84033W        W43294  36.929  36.504  10.551
84034W        W43295  40.914  11.262  12.388
84035W        W43296  37.044  42.461  11.573
84036W        W43297  29.484  19.768   2.282
84037W        W43298   9.252  35.923  14.829
84038W        W43299  27.108  21.667  10.498
84039W        W43300  29.565  21.087   4.830
84040W        W43301  19.126  31.069  12.000
84041W        W43302  35.406  14.196  12.376
84042W        W43303  43.358  14.810  14.335
84043W        W43304  16.612  43.915  10.555
84044W        W43305  43.917  10.173  12.085
84045W        W43306  40.388  15.708  11.039
84046W        W43307  29.026  38.001  13.390
84047W        W43308  25.217  43.766  12.951
84048W        W43309  38.492  29.071  13.356
84049W        W43310  26.479  18.715   5.273
84050W        W43311  30.627   4.326  12.877
84051W        W43312  26.103  22.145   3.688
84052W        W43313  22.620   2.854   1.290
84053W        W43314   3.332  10.149   5.147
84054W        W43315  35.552  22.016   0.886
84055W        W43316  22.716  31.508  14.313
84056W        W43317  24.584  22.500  11.935
84057W        W43318  37.336   3.314  14.903
84058W        W43319  44.001  18.664   4.114
84059W        W43320   7.673  11.132  10.566
84060W        W43321  41.362  39.401   4.353
84061W        W43322  11.235  39.346  14.848
84062W        W43323  42.029  14.805   1.849
84063W        W43324  33.004  17.209   0.419
84064W        W43325  27.016  35.566   1.244
84065W        W43326  28.495  32.050   4.615
84066W        W43327  19.284  44.394   2.403
84067W        W43328  11.802  42.957   2.384
84068W        W43329  44.954   1.941  11.981
84069W        W43330   3.952  38.005  11.490
84070W        W43331  30.059  34.434  13.034
84071W        W43332  25.189   0.920   3.283
84072W        W43333  42.323  40.456   4.294
84073W        W43334   7.174   9.374  13.964
84074W        W43335  29.545  33.102  11.548
84075W        W43336  40.806   5.419  10.896
84076W        W43337  11.142  24.991  12.353
84077W        W43338  42.431  29.948  11.996
84078W        W43339  43.974   6.342   4.231
84079W        W43340  21.079   6.716  11.981
84080W        W43341  42.525  41.537   0.834
84081W        W43342   2.918  38.468  12.579
84082W        W43343  27.013  14.299  12.526
84083W        W43344  10.196  11.161  11.532
84084W        W43345  29.603   4.280  14.763
84085W        W43346  25.552  25.181  10.449
84086W        W43347  36.010  16.286   1.227
84087W        W43348  13.600  16.707  13.494
84088W        W43349  16.161   4.386  11.909
84089W        W43350  20.159  31.955   4.181
84090W        W43351  23.576  16.119   4.256
84091W        W43352  21.666   9.289  12.361
84092W        W43353   7.348  39.905  12.412
84093W        W43354  21.255  29.017   4.354
84094W        W43355  10.151   1.780  11.530
84095W        W43356  35.026  39.987  12.536
84096W        W43357   2.311  23.990   1.737
84097W        W43358  12.733  40.335  12.488
84098W        W43359  41.923  28.656  11.443
84099W        W43360  34.948  13.126   4.735
84100W        W43361  15.778  27.683  11.101
84101W        W43362  37.873  32.578   0.879
84102W        W43363  14.117  32.122  13.335
84103W        W43364  38.971  31.142   3.194
84104W        W43365  36.438   5.304  12.829
84105W        W43366  11.717  29.129  10.523
84106W        W43367  19.243  38.832   3.291
84107W        W43368  14.591  21.519  11.946
84108W        W43369  37.052   7.723  13.976
84109W        W43370  15.181  25.503  10.611
84110W        W43371  34.473  30.600   0.349
84111W        W43372  27.061  21.064  11.858
84112W        W43373  34.558   6.253  12.514
84113W        W43374  12.325   1.805   1.363
84114W        W43375  17.172  26.659   0.369
84115W        W43376   3.894  12.666  12.537
84116W        W43377  15.585  32.052  14.304
84117W        W43378   1.785  36.542  12.963
84118W        W43379   4.874  41.358  13.529
84119W        W43380  31.454  17.165   0.894
84120W        W43381  44.985   7.202  11.515
84121W        W43382  11.161  20.579  14.892
84122W        W43383   9.277  25.585   4.285
84123W        W43384  19.072  19.693  11.990
84124W        W43385  37.381  39.373  13.357
84125W        W43386  36.904  33.487  11.570
84126W        W43387  14.609  27.948   0.326
84127W        W43388   3.454  10.744  11.866
84128W        W43389  32.457  17.135   1.290
84129W        W43390  14.709  10.338   2.786
84130W        W43391  43.849  33.581  12.086
84131W        W43392  12.772  38.470  11.447
84132W        W43393  21.083   1.737   0.244
84133W        W43394  39.901  16.244   0.872
84134W        W43395  20.131  26.635  13.809
84135W        W43396  14.643   3.870  14.818
84136W        W43397  19.565  22.226  13.998
84137W        W43398  34.078  10.819  13.023
84138W        W43399   9.652   1.735   4.223
84139W        W43400  39.497  21.513   1.371
84140W        W43401  44.473   6.819  12.464
84141W        W43402  31.592   4.420  11.948
84142W        W43403  29.560  29.061  12.919
84143W        W43404  13.232   0.359  11.026
84144W        W43405  19.601  44.813  11.577
84145W        W43406   0.345   7.239   3.719
84146W        W43407  15.319  35.050   0.385
84147W        W43408  26.134  11.368   0.739
84148W        W43409  39.986   8.736   3.809
84149W        W43410   0.895  32.122  10.442
84150W        W43411  38.396  39.482  11.937
84151W        W43412   4.226  30.940   3.150
84152W        W43413  44.380  40.868   0.955
84153W        W43414  21.592   9.643  13.995
84154W        W43415  26.051   1.904  12.349
84155W        W43416  35.101  36.859  11.922
84156W        W43417  12.242  22.030   0.270
84157W        W43418   8.324  18.093  13.321
84158W        W43419   5.880   2.942   2.366
84159W        W43420  44.416  31.564  12.021
84160W        W43421  39.063   0.458   3.774
84161W        W43422  19.128  42.016  12.397
84162W        W43423  37.407  11.211  13.060
84163W        W43424  16.768  26.693  14.471
84164W        W43425  11.127   2.369  13.986
84165W        W43426   7.416   3.712  12.973
84166W        W43427  21.677  37.998   3.227
84167W        W43428  20.093  20.733  12.392
84168W        W43429  25.123  32.956  10.990
84169W        W43430  16.280  40.303  10.442
84170W        W43431  44.358  23.666   3.655
84171W        W43432  10.306  12.340   4.270
84172W        W43433  31.935  31.458  14.464
84173W        W43434  26.519  42.293  14.017
84174W        W43435  33.611  33.023  13.362
84175W        W43436  27.577  10.159  14.504
84176W        W43437  22.584  14.095  10.061
84177W        W43438  31.077  11.334  12.024
84178W        W43439  15.650  43.391   0.830
84179W        W43440  24.706  22.719   1.434
84180W        W43441  12.336  15.652  11.975
84181W        W43442  29.433  29.561  12.870
84182W        W43443   2.292   6.405  10.514
84183W        W43444  12.785  19.111   3.205
84184W        W43445  28.090  35.049  11.538
84185W        W43446   3.952  29.524  11.395
84186W        W43447   0.752  10.330  13.962
84187W        W43448  12.723  40.501   0.789
84188W        W43449  14.186  14.776   3.870
84189W        W43450   5.357  24.514  10.588
84190W        W43451  27.984   3.291  13.820
84191W        W43452  32.393  28.595   3.664
84192W        W43453  14.334  44.945   4.705
84193W        W43454  28.649  34.932  14.769
84194W        W43455  13.722  21.227  13.915
84195W        W43456  12.163  15.270   1.786
84196W        W43457  42.817  16.169  13.384
84197W        W43458  26.653  30.490   2.859
84198W        W43459  17.737  34.114  13.366
84199W        W43460  36.057  44.766  13.851
84200W        W43461  11.790   1.779  13.371
84201W        W43462  15.673  16.650   2.895
84202W        W43463  18.063  23.584   0.812
84203W        W43464   6.296  36.583  14.921
84204W        W43465  37.579  24.018   3.667
84205W        W43466  34.536  12.620  10.940
84206W        W43467  10.303   0.844  14.297
84207W        W43468  10.635  44.399  11.996
84208W        W43469  20.203   1.841   0.410
84209W        W43470   0.807  24.621  11.604
84210W        W43471  18.604   1.274  13.330
84211W        W43472  37.462   5.384   3.855
84212W        W43473  25.201  17.061   2.395
84213W        W43474   5.374  32.950  11.093
84214W        W43475  40.386   3.301   1.920
84215W        W43476  25.045   4.366  12.968
84216W        W43477  28.581  35.093  11.577
84217W        W43478  33.533  33.593   3.197
84218W        W43479   6.699   4.217   3.754
84219W        W43480  39.389  29.428   1.864
84220W        W43481   4.752  25.526   5.195
84221W        W43482  25.607   9.757  12.053
84222W        W43483  13.782  31.076   2.187
84223W        W43484   8.879  34.484   4.718
84224W        W43485  38.986  31.442  10.903
84225W        W43486   1.853  12.347  12.356
84226W        W43487   4.824  44.457  14.384
84227W        W43488  16.786  27.646   1.355
84228W        W43489  37.345  19.619   4.260
84229W        W43490  44.875  19.041  11.485
84230W        W43491  18.726  25.543   9.996
84231W        W43492  24.003  21.686  14.876
84232W        W43493  25.588  25.587   4.331
84233W        W43494   0.414  38.398  14.479
84234W        W43495  39.459   3.228  10.561
84235W        W43496  33.921  41.443  12.057
84236W        W43497  18.278  39.448  12.519
84237W        W43498  35.872  17.206  11.400
84238W        W43499  41.955  25.678  12.475
84239W        W43500  16.271  28.582  13.035
84240W        W43501   0.922  13.802  11.409
84241W        W43502  26.519  13.126  13.831
84242W        W43503  36.582  18.224  14.975
84243W        W43504  16.075   3.459  12.431
84244W        W43505  34.464  23.622  14.880
84245W        W43506  39.832   2.446  11.485
84246W        W43507  41.403  21.050  14.954
84247W        W43508  44.331  16.583  13.329
84248W        W43509  36.537  35.957  13.796
84249W        W43510  36.422  40.974  14.878
84250W        W43511  43.356   9.824   2.318
84251W        W43512  15.167  23.503  10.638
84252W        W43513  18.287  32.484  11.903
84253W        W43514  43.460  28.562   0.924
84254W        W43515  21.538  17.625  14.321
84255W        W43516  37.954  41.428  13.045
84256W        W43517  36.848  18.768   3.363
84257W        W43518   0.292  10.149  11.422
84258W        W43519  20.564  10.280  13.346
84259W        W43520  36.589  21.049   1.904
84260W        W43521  27.195  21.711   4.175
84261W        W43522  39.857  21.239   1.890
84262W        W43523  19.621  21.040   5.162
84263W        W43524  30.092  33.513  11.563
84264W        W43525  41.409  41.947  10.412
84265W        W43526  34.922  26.143  14.503
84266W        W43527  19.690  33.414  13.833
84267W        W43528   6.334  18.137  10.051
84268W        W43529   2.814  39.056   4.835
84269W        W43530  17.762  30.998  12.375
84270W        W43531  39.886  35.580   1.435
84271W        W43532  10.687  36.397   0.785
84272W        W43533  14.312  16.195  12.439
84273W        W43534  40.054  34.518   1.424
84274W        W43535  13.692  42.991  14.322
84275W        W43536  22.204  28.666   4.231
84276W        W43537  22.659  23.521  11.891
84277W        W43538  23.050  35.495  12.036
84278W        W43539  21.063   7.856   2.387
84279W        W43540  20.174  28.116   0.474
84280W        W43541  17.563  40.456  14.811
84281W        W43542  26.019   6.849   0.764
84282W        W43543  13.111  27.132   9.470
84283W        W43544   8.830   6.381   1.397
84284W        W43545  42.941  18.755  13.034
84285W        W43546  23.656  38.358   3.763
84286W        W43547  20.061  10.183  14.953
84287W        W43548  13.749  20.164   0.884
84288W        W43549  38.875  14.701  14.296
84289W        W43550  17.233   5.364   0.933
84290W        W43551  15.709   9.745  11.899
84291W        W43552   2.889  30.953   4.289
84292W        W43553  27.554  34.390  10.576
84293W        W43554   3.342   2.837   1.871
84294W        W43555  30.451  13.307  14.768
84295W        W43556  29.560  41.005  14.514
84296W        W43557  25.704   7.308   1.346
84297W        W43558  11.199  41.926  13.955
84298W        W43559  15.761  19.552  13.923
84299W        W43560   5.850  10.154   2.895
84300W        W43561   2.380  13.194   2.737
84301W        W43562  37.989  29.022  14.917
84302W        W43563  35.535  13.191  10.995
84303W        W43564  27.027   9.689   3.318
84304W        W43565  36.848  35.917   1.929
84305W        W43566  13.266   7.836   2.269
84306W        W43567  35.507  37.444  11.505
84307W        W43568   8.756  10.199   3.751
84308W        W43569   6.377   3.264   4.722
84309W        W43570  33.019  21.692  14.924
84310W        W43571  28.032  26.057   2.888
84311W        W43572  44.380   4.226  12.550
84312W        W43573  42.873   0.343   2.311
84313W        W43574  40.907   9.212  12.465
84314W        W43575  11.289  43.840  13.864
84315W        W43576   7.755  35.533  12.093
84316W        W43577  15.583  20.236   1.424
84317W        W43578  23.523  17.301   3.148
84318W        W43579  41.412  13.834  10.501
84319W        W43580   1.932  24.164   3.642
84320W        W43581  32.559  21.216   0.871
84321W        W43582  29.425  35.538  12.342
84322W        W43583  31.104  40.309  12.010
84323W        W43584   9.234  22.545  11.382
84324W        W43585  33.450  43.305   3.673
84325W        W43586  33.899  26.522   1.771
84326W        W43587  22.087   4.916  10.510
84327W        W43588  35.394  13.198  13.547
84328W        W43589  11.851  19.768  11.392
84329W        W43590  14.833   3.777  14.483
84330W        W43591  41.991  27.579  10.480
84331W        W43592  22.551  23.181  13.361
84332W        W43593  40.412   5.406   3.638
84333W        W43594  23.188  36.929   1.409
84334W        W43595   6.287   7.739  13.369
84335W        W43596  27.653  38.023  14.912
84336W        W43597   1.241  20.238   1.830
84337W        W43598  19.044  10.842  10.603
84338W        W43599  40.377   6.724   1.784
84339W        W43600  24.015  21.171  14.411
84340W        W43601  26.573   5.856   0.445
84341W        W43602   5.762  39.953  14.928
84342W        W43603  33.070  16.129   1.347
84343W        W43604  27.175   3.816   0.412
84344W        W43605  24.112  12.767  12.491
84345W        W43606  42.340  12.799   2.700
84346W        W43607  26.648  38.870  11.019
84347W        W43608  16.697  15.153  12.954
84348W        W43609  30.561  33.517  12.960
84349W        W43610  26.984   4.927  10.410
84350W        W43611  34.421  18.635   2.377
84351W        W43612  40.036  28.145   1.847
84352W        W43613   8.199  37.011   2.213
84353W        W43614  22.150  12.179   3.263
84354W        W43615  13.192  39.397   4.319
84355W        W43616  40.465  19.132   1.736
84356W        W43617   9.756  32.502   1.912
84357W        W43618   5.435   6.849  14.973
84358W        W43619   5.854  36.855  10.479
84359W        W43620   6.310  22.518   1.288
84360W        W43621   0.844  13.290  13.883
84361W        W43622  38.072  16.274  10.994
84362W        W43623  20.102  20.029  10.974
84363W        W43624  11.676  35.887  13.441
84364W        W43625   9.195  16.139   0.291
84365W        W43626   5.248  23.058  14.853
84366W        W43627   2.770   6.733   3.257
84367W        W43628  29.553  21.756   1.306
84368W        W43629   7.688   5.271  11.928
84369W        W43630  25.675  17.592  12.969
84370W        W43631  38.420  42.505  10.574
84371W        W43632   4.788  30.628   5.118
84372W        W43633  18.200  24.596  13.054
84373W        W43634  36.389   8.218  14.296
84374W        W43635  23.059   8.732   4.193
84375W        W43636  26.701  34.078   4.330
84376W        W43637  32.976  38.032  10.619
84377W        W43638  17.564  33.449   4.202
84378W        W43639   0.334  32.617  12.465
84379W        W43640   9.338  41.870   0.880
84380W        W43641  41.309  35.508   1.782
84381W        W43642   7.731  39.982  13.902
84382W        W43643  10.201   5.299  14.282
84383W        W43644   1.330  31.039  11.455
84384W        W43645  26.561  13.349  11.869
84385W        W43646  25.711  19.154  12.400
84386W        W43647  35.029  36.571  13.441
84387W        W43648   7.785  33.427  12.856
84388W        W43649  15.121  41.971  14.775
84389W        W43650   0.445  24.209  13.372
84390W        W43651  14.731  32.107   3.294
84391W        W43652  41.338  36.895   4.654
84392W        W43653   2.256   5.209  12.884
84393W        W43654  28.985  33.918  13.825
84394W        W43655  44.894   0.293  12.479
84395W        W43656   0.344  10.304  10.505
84396W        W43657  22.202  15.317  10.612
84397W        W43658  39.422  26.672  12.924
84398W        W43659   6.419  40.400   4.186
84399W        W43660  43.507  36.907   3.790
84400W        W43661  24.088  36.419  14.280
84401W        W43662  29.553  22.663   0.433
84402W        W43663  37.452  34.018  12.473
84403W        W43664  19.236   1.243   0.342
84404W        W43665  42.510   3.925  13.037
84405W        W43666  27.044  28.626   1.377
84406W        W43667  34.558  20.152  12.857
84407W        W43668  13.317  38.515   1.280
84408W        W43669  40.372   7.792   3.262
84409W        W43670  16.122   3.725   5.311
84410W        W43671  26.113   0.313  13.880
84411W        W43672  25.209  11.233  12.378
84412W        W43673  34.058  14.698   4.122
84413W        W43674  12.335  27.446   0.882
84414W        W43675  25.557  14.179   4.665
84415W        W43676  25.101   4.942   4.200
84416W        W43677  23.522  13.246  13.048
84417W        W43678  14.645  32.894   1.696
84418W        W43679  39.509  10.260  11.488
84419W        W43680  23.032  20.054   4.121
84420W        W43681  27.139  16.156   0.844
84421W        W43682  31.995   0.973  12.993
84422W        W43683  44.882  43.821  12.573
84423W        W43684  35.948  36.501  10.937
84424W        W43685  10.223  20.153  13.821
84425W        W43686  16.235  27.567  14.496
84426W        W43687  28.494  13.695  11.918
84427W        W43688  43.314  44.311   3.297
84428W        W43689  14.201  23.709  13.039
84429W        W43690  42.427  26.641  10.511
84430W        W43691   8.330   5.711  13.547
84431W        W43692  36.842  14.183   0.864
84432W        W43693  10.346   0.482   2.805
84433W        W43694   5.240   5.216   1.907
84434W        W43695  13.823  40.833  11.509
84435W        W43696  36.457  44.288  14.380
84436W        W43697  42.797  13.237  13.831
84437W        W43698  38.466   7.206  14.798
84438W        W43699  36.993   7.320  13.369
84439W        W43700  34.004  44.472  14.854
84440W        W43701   1.352  43.284   2.774
84441W        W43702  10.161  12.704  12.439
84442W        W43703  14.320   1.781   4.684
84443W        W43704  42.907  13.635  10.899
84444W        W43705   9.669  32.989  14.427
84445W        W43706  22.566  15.774  10.590
84446W        W43707  20.189  40.350   4.316
84447W        W43708  41.326  27.960   4.598
84448W        W43709  39.412  17.729  13.022
84449W        W43710  27.078  42.785   0.901
84450W        W43711  22.081  28.494  14.020
84451W        W43712  35.914  42.926   4.280
84452W        W43713  40.534  38.903   0.762
84453W        W43714  23.025  22.583  10.115
84454W        W43715   4.945   3.422  11.423
84455W        W43716  14.666  37.532  13.040
84456W        W43717  40.817  42.383  10.492
84457W        W43718  38.044  10.271   9.601
84458W        W43719  40.927  43.400  10.403
84459W        W43720   2.935  25.521   4.629
84460W        W43721  26.561  23.550   1.426
84461W        W43722  36.922  27.505  11.529
84462W        W43723  28.979  36.071  14.326
84463W        W43724  43.312  39.905  11.608
84464W        W43725   2.385  19.237  10.887
84465W        W43726  32.016  30.910  14.995
84466W        W43727  40.989  22.105  13.991
84467W        W43728   9.216  12.216  11.612
84468W        W43729  14.201  31.955  14.381
84469W        W43730  32.013  18.128   3.803
84470W        W43731  22.135  31.519   3.834
84471W        W43732  40.977   9.156   2.693
84472W        W43733  29.558   3.740   1.305
84473W        W43734  34.102  19.209  12.925
84474W        W43735  26.012  43.390   3.323
84475W        W43736  26.620  39.382   1.766
84476W        W43737  13.346  22.203   2.894
84477W        W43738  35.499  32.947   3.649
84478W        W43739  31.561  44.821   2.242
84479W        W43740  20.142   4.350   0.394
84480W        W43741   8.380  17.153  11.599
84481W        W43742  14.771  23.011  14.815
84482W        W43743  20.060  28.183  12.020
84483W        W43744   2.252  21.103   0.411
84484W        W43745   0.438  18.706   3.732
84485W        W43746  44.849  38.533   0.745
84486W        W43747  38.506  24.546  11.990
84487W        W43748   3.321   6.821   0.963
84488W        W43749  41.469  15.130  11.958
84489W        W43750  19.153  25.471   3.803
84490W        W43751  18.269  43.503  10.644
84491W        W43752  27.590  14.265  11.080
84492W        W43753  35.110  35.434   0.803
84493W        W43754  13.681  28.008   5.234
84494W        W43755  17.211  40.529  13.009
84495W        W43756  27.041  36.844  13.484
84496W        W43757  28.099  35.002  12.864
84497W        W43758  22.078  27.105  11.027
84498W        W43759  36.470   8.874   9.974
84499W        W43760  28.186  32.636  12.403
84500W        W43761  10.750  10.278  12.851
84501W        W43762  39.520   1.358  13.529
84502W        W43763  41.304  34.496   5.718
84503W        W43764  14.160  29.562   3.709
84504W        W43765  25.096   3.887   2.879
84505W        W43766  35.967  17.151  14.363
84506W        W43767   5.700  31.108   1.776
84507W        W43768   7.305  33.905   3.285
84508W        W43769  25.006  38.065  13.336
84509W        W43770   1.931  14.196  14.353
84510W        W43771  28.047  29.972   2.816
84511W        W43772   2.344  31.546   0.305
84512W        W43773  15.162  12.765  12.370
84513W        W43774  35.442  30.419  13.956
84514W        W43775  32.589  38.357  14.374
84515W        W43776  12.642  33.387   1.263
84516W        W43777  40.039   2.456   3.796
84517W        W43778  17.643  14.589  14.404
84518W        W43779  21.232  28.520   4.334
84519W        W43780   9.865  21.597   4.117
84520W        W43781  34.034  32.391  10.472
84521W        W43782  17.070  34.492  11.855
84522W        W43783  33.472  36.537   3.725
84523W        W43784  37.922   3.955   4.121
84524W        W43785   1.943  21.749   0.857
84525W        W43786  27.661  27.561  14.434
84526W        W43787   1.877  27.195   3.261
84527W        W43788  22.675  26.606  13.430
84528W        W43789   0.901  40.458   3.289
84529W        W43790  25.544  41.422   0.359
84530W        W43791  41.934  30.571   5.249
84531W        W43792   3.739  37.369   2.780
84532W        W43793  18.778   4.448   3.188
84533W        W43794  37.403   2.861  11.430
84534W        W43795   7.865  12.758   0.326
84535W        W43796  30.459  18.760  12.972
84536W        W43797  18.089   2.403   1.718
84537W        W43798  22.559  28.998  10.470
84538W        W43799  34.043  42.345   4.181
84539W        W43800  13.322  35.974   5.144
84540W        W43801  44.421  40.397  13.953
84541W        W43802  42.004  24.073   0.385
84542W        W43803  19.771  19.062  14.957
84543W        W43804  18.601   8.684  10.148
84544W        W43805  28.434   2.421   5.276
84545W        W43806  31.634   3.792  13.313
84546W        W43807  44.899   3.321  11.396
84547W        W43808  11.144  31.498  13.483
84548W        W43809  23.564   9.801  12.011
84549W        W43810  14.155  31.440   0.447
84550W        W43811  22.633   5.732   3.781
84551W        W43812   4.443  24.552   1.216
84552W        W43813  43.286   0.860   4.732
84553W        W43814  27.688   5.857  10.912
84554W        W43815  18.637   6.862  14.855
84555W        W43816  25.062  36.469   2.748
84556W        W43817  10.177  18.239   2.747
84557W        W43818   4.730  37.401  12.484
84558W        W43819  40.468  23.020  12.867
84559W        W43820   3.324  31.482  11.593
84560W        W43821  39.977  40.373  10.527
84561W        W43822  18.759   6.402   0.438
84562W        W43823  27.454  36.550  14.491
84563W        W43824  38.337  12.834   4.115
84564W        W43825  23.223  28.964  13.969
84565W        W43826   3.885  17.565   4.734
84566W        W43827  36.913   2.272  13.810
84567W        W43828  18.611  40.547   3.664
84568W        W43829  34.063  12.313  13.332
84569W        W43830  10.328  38.430   2.881
84570W        W43831  16.687  19.214   4.288
84571W        W43832  21.223  15.761  12.577
84572W        W43833  27.515   7.758  14.390
84573W        W43834  23.147  35.525   0.253
84574W        W43835  34.460  25.997   3.635
84575W        W43836  37.981  24.603   3.848
84576W        W43837  23.022  40.909   1.729
84577W        W43838  19.589  27.665   4.757
84578W        W43839  24.039  21.073  14.798
84579W        W43840  37.000  10.833   3.822
84580W        W43841  24.108  16.714  13.383
84581W        W43842   4.893  18.163   0.880
84582W        W43843  38.334   5.826   1.838
84583W        W43844  28.156   6.874  11.568
84584W        W43845  38.883  42.319  13.799
84585W        W43846   5.362  26.009   0.377
84586W        W43847  19.536   6.870  10.482
84587W        W43848  18.249  34.896   0.448
84588W        W43849  26.183  24.008   2.795
84589W        W43850  16.584  19.641  11.865
84590W        W43851   1.362  43.466  11.926
84591W        W43852  24.018  35.506  10.526
84592W        W43853  29.102   9.678   4.316
84593W        W43854   3.426   8.348  14.977
84594W        W43855   0.375  37.468  11.563
84595W        W43856  35.409   8.694   2.349
84596W        W43857  37.955  20.124  11.880
84597W        W43858  27.465  29.930  10.091
84598W        W43859  29.644   9.695   4.134
84599W        W43860  30.481  29.999   3.313
84600W        W43861   6.326   4.335   0.891
84601W        W43862  18.648  21.118  11.386
84602W        W43863  18.175  21.688   2.773
84603W        W43864  22.529   5.765   3.267
84604W        W43865   1.975  23.183   4.715
84605W        W43866  43.356  26.584   1.308
84606W        W43867  10.229   8.661  11.435
84607W        W43868  41.454   5.366  12.014
84608W        W43869   9.746  10.662  11.889
84609W        W43870  28.013  25.095   2.740
84610W        W43871  30.586  25.006  12.976
84611W        W43872  20.702  34.117  12.423
84612W        W43873  13.157  43.933   0.741
84613W        W43874  39.914  27.053   0.841
84614W        W43875  22.053   0.494   1.342
84615W        W43876  22.223  29.558   0.432
84616W        W43877  26.544  13.123  13.331
84617W        W43878  22.570  13.300   3.854
84618W        W43879  44.918  30.454   1.436
84619W        W43880  42.882   3.874  12.855
84620W        W43881  31.927  31.635   0.805
84621W        W43882  21.521   8.167   1.370
84622W        W43883  24.698  38.841  10.493
84623W        W43884  16.194  42.790   3.847
84624W        W43885  34.071   1.322  12.434
84625W        W43886   1.369  36.851   2.368
84626W        W43887  39.559  11.214  14.931
84627W        W43888  14.719  21.111  14.489
84628W        W43889  29.108  19.136  13.884
84629W        W43890  21.144  44.421   4.146
84630W        W43891  11.804   7.177  14.365
84631W        W43892   1.862  12.640  12.521
84632W        W43893   0.834   6.245   2.857
84633W        W43894  35.932   2.796  14.407
84634W        W43895  15.124  33.577  13.945
84635W        W43896  22.215  23.080  10.574
84636W        W43897  37.917  38.437   0.388
84637W        W43898  17.101  20.199  11.526
84638W        W43899  30.090  22.724  11.407
84639W        W43900  36.065  14.663  13.524
84640W        W43901  17.749  20.153   3.691
84641W        W43902  43.324  22.086   4.221
84642W        W43903  19.774  32.574   1.378
84643W        W43904   2.915   2.858   1.330
84644W        W43905  30.013  44.954  11.518
84645W        W43906  38.560  39.368  10.981
84646W        W43907  31.596  10.233  12.500
84647W        W43908  20.555  23.516   2.352
84648W        W43909  31.020  13.650   3.689
84649W        W43910  34.381  16.280  11.088
84650W        W43911  11.725  33.977   2.819
84651W        W43912  19.605  21.587   2.738
84652W        W43913  11.134   2.962  14.488
84653W        W43914  19.060  24.575  12.525
84654W        W43915   5.218  15.694  14.379
84655W        W43916  41.519   3.428   2.270
84656W        W43917  42.431   3.854  11.003
84657W        W43918  37.026  20.106   2.756
84658W        W43919   2.273   9.729  10.433
84659W        W43920  35.909  40.988  13.520
84660W        W43921   8.183  13.645   4.607
84661W        W43922  38.827  32.926   2.806
84662W        W43923  26.087  36.060   0.795
84663W        W43924  40.980  13.185  12.462
84664W        W43925   9.850   2.957   5.305
84665W        W43926  32.555   3.918   2.196
84666W        W43927  19.741  11.186  14.950
84667W        W43928   2.460   2.805   1.342
84668W        W43929  43.403  40.949  14.467
84669W        W43930   1.945  12.207  14.804
84670W        W43931  44.859   9.240   1.229
84671W        W43932  14.284  38.041   1.921
84672W        W43933  35.085  31.516   0.295
84673W        W43934  19.570   7.864  12.832
84674W        W43935   1.938  14.124  13.455
84675W        W43936  23.174  37.996   3.807
84676W        W43937  15.094  23.240  14.370
84677W        W43938  21.150  27.563   9.948
84678W        W43939   3.395   5.787   2.292
84679W        W43940  18.197  18.142   4.292
84680W        W43941  24.647  23.186   2.727
84681W        W43942  27.096  13.634   0.383
84682W        W43943  44.784  27.632  12.463
84683W        W43944   6.909  13.256  14.430
84684W        W43945   8.801  14.225   4.718
84685W        W43946  17.646  17.229   1.797
84686W        W43947  31.497  17.117   3.731
84687W        W43948  28.654   9.227  11.516
84688W        W43949  37.900  12.761   0.891
84689W        W43950  35.455  16.636   0.771
84690W        W43951   0.849  27.670  11.955
84691W        W43952  29.647   9.748   0.833
84692W        W43953   1.465  30.520  14.503
84693W        W43954  30.569   9.886   4.748
84694W        W43955  27.633   7.833  14.030
84695W        W43956  12.189  37.981   0.267
84696W        W43957  44.754  28.989  10.497
84697W        W43958   7.328  12.724  13.883
84698W        W43959  16.694  19.666   0.872
84699W        W43960  15.735  33.591   3.644
84700W        W43961   0.368  23.514  10.430
84701W        W43962  20.556  43.005  14.862
84702W        W43963   1.951  38.070  14.317
84703W        W43964  39.832  14.120   5.228
84704W        W43965  33.393  40.449   2.820
84705W        W43966   6.194  16.802  10.552
84706W        W43967  14.661  30.003  13.426
84707W        W43968  30.927  24.007  10.561
84708W        W43969   9.831  44.832   2.285
84709W        W43970  20.716   9.320   0.311
84710W        W43971  13.814  34.450   0.818
84711W        W43972   7.700  12.233  10.916
84712W        W43973  19.580  30.027  12.457
84713W        W43974   2.401  31.605   2.820
84714W        W43975  33.395  38.960  11.074
84715W        W43976  40.958  12.741  13.412
84716W        W43977  41.349  44.500   0.967
84717W        W43978  10.336  21.605   2.376
84718W        W43979   2.906   0.785   3.777
84719W        W43980   7.338  18.195  11.049
84720W        W43981  14.719  16.169  10.498
84721W        W43982  15.589   3.426   5.239
84722W        W43983  41.030  39.925  13.500
84723W        W43984  44.372  39.379   2.784
84724W        W43985  41.010  28.076  13.442
84725W        W43986  36.384  31.513  10.413
84726W        W43987   9.679  21.686   3.345
84727W        W43988  16.580  13.257  13.882
84728W        W43989  13.328  42.919   1.806
84729W        W43990  37.918  42.426   4.135
84730W        W43991  23.154  20.590   4.804
84731W        W43992   8.214  26.633   0.917
84732W        W43993  29.148  29.942   2.667
84733W        W43994  44.914  19.609   5.705
84734W        W43995  39.923  36.014   2.794
84735W        W43996  28.180  12.268  10.569
84736W        W43997  33.587  20.217   3.768
84737W        W43998  39.470  37.901  11.868
84738W        W43999  43.019  14.285   2.726
84739W        W44000  11.795  43.917  14.828
84740W        W44001  19.600  16.201   4.142
84741W        W44002  42.484  16.159  11.586
84742W        W44003  44.968  18.174  11.063
84743W        W44004   2.949  22.011   2.902
84744W        W44005  40.517  23.511   0.426
84745W        W44006   8.794  37.582   0.299
84746W        W44007  24.668   3.299  11.068
84747W        W44008  16.155  33.050   4.760
84748W        W44009  13.177  31.956   0.928
84749W        W44010  36.436  17.687   3.384
84750W        W44011  35.580   7.228   5.203
84751W        W44012  11.198  38.465   4.682
84752W        W44013  16.738   4.934   2.271
84753W        W44014  37.416  10.335  11.478
84754W        W44015  37.349   0.434   4.330
84755W        W44016  31.459  25.087  12.975
84756W        W44017  19.181  41.037   3.299
84757W        W44018  41.837  28.137   0.849
84758W        W44019  36.844  18.549  12.497
84759W        W44020  28.082  38.401   4.282
84760W        W44021  12.357   9.691   4.283
84761W        W44022  31.944  36.578   4.234
84762W        W44023  17.213  22.664   3.265
84763W        W44024  33.541  35.935   2.204
84764W        W44025  17.180   2.288  11.968
84765W        W44026  34.019  19.243  11.508
84766W        W44027  31.138  28.462  11.453
84767W        W44028  39.338   9.387  12.933
84768W        W44029   8.805  42.966  11.602
84769W        W44030  33.109  33.891  14.938
84770W        W44031   7.684  44.460   1.917
84771W        W44032  31.430  22.085  14.879
84772W        W44033   5.767  25.518   2.237
84773W        W44034  11.289   3.919   2.384
84774W        W44035  20.040   0.844   1.811
84775W        W44036  21.616  24.517   0.354
84776W        W44037  38.900  17.576  14.458
84777W        W44038  16.696  34.406   4.737
84778W        W44039  26.639  23.112   3.249
84779W        W44040  28.525  13.663  10.996
84780W        W44041  20.036  42.492   1.743
84781W        W44042   1.872  34.505  13.359
84782W        W44043   3.866  32.533   0.827
84783W        W44044  15.657   5.418  12.546
84784W        W44045   5.371  16.212   1.738
84785W        W44046  37.524  11.217  14.983
84786W        W44047  41.508   1.371   2.392
84787W        W44048  18.172  19.137   1.425
84788W        W44049  35.080  30.636  14.835
84789W        W44050  10.778  19.100  12.857
84790W        W44051  35.869   5.850   1.875
84791W        W44052  15.680   3.339  10.893
84792W        W44053  28.064  14.804  11.378
84793W        W44054  33.978   1.756  14.956
84794W        W44055  14.211   1.960   1.357
84795W        W44056   5.262  29.607   2.399
84796W        W44057  35.375  40.409   3.272
84797W        W44058  35.500   0.745  10.991
84798W        W44059  34.576  12.153   0.349
84799W        W44060  23.582  14.770   0.785
84800W        W44061   5.818  39.354  13.854
84801W        W44062  11.764  29.082   3.367
84802W        W44063   1.442  26.033  14.956
84803W        W44064  13.214  41.806   4.615
84804W        W44065  24.020  32.978  14.329
84805W        W44066  17.211  36.458   3.374
84806W        W44067  30.470  30.647   2.311
84807W        W44068   3.948  33.907  10.418
84808W        W44069  17.140   8.327  11.932
84809W        W44070  42.821   3.280  14.487
84810W        W44071  35.918  14.307  11.513
84811W        W44072  43.272   1.416   3.224
84812W        W44073  28.468   1.418   2.714
84813W        W44074   3.724  10.139  14.850
84814W        W44075   0.428  18.593   4.323
84815W        W44076  42.831  12.834   1.344
84816W        W44077   7.224  41.432   4.727
84817W        W44078  22.146   0.310  14.013
84818W        W44079  32.567  44.384   4.791
84819W        W44080  34.530  37.901   2.737
84820W        W44081   7.395  37.345  13.002
84821W        W44082  32.449   0.745  13.984
84822W        W44083  10.647  24.615   4.674
84823W        W44084  14.678   5.735   1.847
84824W        W44085  12.300  22.231  12.410
84825W        W44086  37.575  38.023  14.949
84826W        W44087  19.538  31.429  10.924
84827W        W44088  25.542   5.439   4.258
84828W        W44089   9.673  35.053   3.769
84829W        W44090  44.803  39.966   1.212
84830W        W44091  15.820  24.481   4.767
84831W        W44092   1.926   1.791   0.914
84832W        W44093  21.143  41.874  13.797
84833W        W44094   6.902  34.030   4.714
84834W        W44095  24.568  13.341  10.561
84835W        W44096   2.767  24.485   1.374
84836W        W44097  13.767   8.372  14.018
84837W        W44098  40.448  29.001   2.774
84838W        W44099  30.095   2.271   0.892
84839W        W44100   0.898  15.225   2.266
84840W        W44101  33.597  19.582   1.783
84841W        W44102   1.797  35.421  12.546
84842W        W44103  36.520  10.138  13.875
84843W        W44104   9.377  33.890  13.825
84844W        W44105  28.678  32.486   0.266
84845W        W44106  20.140  14.249  14.987
84846W        W44107   2.829  20.116  13.351
84847W        W44108  18.094  27.148  13.385
84848W        W44109  15.162  25.666   1.443
84849W        W44110  16.303  36.901  11.479
84850W        W44111  33.119  44.371   4.295
84851W        W44112  30.616  19.770   3.773
84852W        W44113  29.962   1.260   5.270
84853W        W44114  16.613  16.148   3.655
84854W        W44115  11.157  11.833  14.969
84855W        W44116  31.518  26.133  13.547
84856W        W44117   5.836  14.594  14.813
84857W        W44118  30.049  10.762   1.329
84858W        W44119   5.739  41.308  11.415
84859W        W44120   7.417  35.999  10.950
84860W        W44121  14.781  13.793   4.350
84861W        W44122   1.789   9.685   0.760
84862W        W44123  14.747  44.371  12.997
84863W        W44124   2.909   8.791   1.924
84864W        W44125   5.217  19.107   4.348
84865W        W44126  29.603   4.830  11.607
84866W        W44127  32.394  12.237   4.348
84867W        W44128  20.199   4.215  10.039
84868W        W44129  19.741  40.483  10.975
84869W        W44130  15.311  26.189  13.808
84870W        W44131  44.278  40.415   0.832
84871W        W44132  24.182   7.313  14.347
84872W        W44133  34.508  14.616  14.336
84873W        W44134  15.707  11.721   5.301
84874W        W44135  40.823  24.178   3.147
84875W        W44136   9.166   5.313   1.327
84876W        W44137   6.369  21.646  10.955
84877W        W44138   5.312   3.308   1.434
84878W        W44139   3.727   8.791   0.294
84879W        W44140   0.921  19.744  10.150
84880W        W44141  34.919  41.796  12.001
84881W        W44142   3.858  28.166  10.036
84882W        W44143  31.464  39.440  14.284
84883W        W44144  14.119  15.737  11.024
84884W        W44145   2.358   8.397   0.748
84885W        W44146  20.144  38.910  13.040
84886W        W44147  42.444  20.526   0.875
84887W        W44148  44.850  15.601  13.960
84888W        W44149   3.890  16.677  11.574
84889W        W44150  44.500  25.513   4.197
84890W        W44151  24.157  25.086   5.264
84891W        W44152   5.787  28.022   0.826
84892W        W44153   3.850  31.909   3.669
84893W        W44154   7.833  36.441  12.505
84894W        W44155  14.179   4.236   0.886
84895W        W44156  35.090   9.820  12.560
84896W        W44157  32.958   6.736   1.832
84897W        W44158  35.559  11.294   1.233
84898W        W44159  34.863  38.482  10.524
84899W        W44160   4.914   9.157   0.769
84900W        W44161  18.174  24.020  10.910
84901W        W44162   8.356  15.159  14.420
84902W        W44163  34.076  12.295  11.425
84903W        W44164  43.420  13.704  13.499
84904W        W44165  24.110  34.613  13.319
84905W        W44166  44.975   5.792   2.388
84906W        W44167   6.788  40.857   1.279
84907W        W44168  40.332  20.160   1.773
84908W        W44169  42.832  27.687  14.819
84909W        W44170  38.931  21.727   2.753
84910W        W44171  42.304  39.907  11.111
84911W        W44172  32.143  34.904  14.348
84912W        W44173  42.320  29.529   3.339
84913W        W44174  34.060  24.112  12.469
84914W        W44175   4.438  15.588  11.519
84915W        W44176  34.472   5.217  13.373
84916W        W44177  40.862  43.349  13.837
84917W        W44178  19.597  38.335  12.055
84918W        W44179   6.800  32.466  10.628
84919W        W44180  37.364  17.086  12.035
84920W        W44181   6.227  29.163  11.056
84921W        W44182  22.566   1.360   2.273
84922W        W44183   2.885   6.905   4.632
84923W        W44184   4.355  22.154   3.804
84924W        W44185  40.323   8.269   0.848
84925W        W44186  22.112  43.870   2.865
84926W        W44187   1.923  17.684  12.944
84927W        W44188  42.473  35.940   0.848
84928W        W44189   5.790  14.629   0.816
84929W        W44190   7.283  33.029  11.988
84930W        W44191  34.537  21.694   3.734
84931W        W44192  13.712  31.896  10.586
84932W        W44193  26.031  21.226  13.444
84933W        W44194  10.297  32.976  14.384
84934W        W44195   1.901  16.589   0.399
84935W        W44196   0.350  17.669  14.298
84936W        W44197  13.757   2.420  12.426
84937W        W44198  26.619   9.852  12.983
84938W        W44199  16.217  14.326  12.509
84939W        W44200  22.192   0.364   4.309
84940W        W44201  21.062   3.281   2.354
84941W        W44202  42.789  18.734   4.135
84942W        W44203  40.900   9.268   2.374
84943W        W44204  25.198   6.904  12.558
84944W        W44205  26.058  33.414  14.406
84945W        W44206   5.705  12.737  14.988
84946W        W44207  38.408  42.456   1.322
84947W        W44208  12.620  19.201  10.902
84948W        W44209  12.649  23.528  12.959
84949W        W44210  10.317   7.844  13.360
84950W        W44211  40.886  28.612   0.935
84951W        W44212  16.294   3.943   9.469
84952W        W44213   3.402  22.548  11.458
84953W        W44214  29.018  26.608  10.003
84954W        W44215   6.199  32.614  12.440
84955W        W44216  35.470   0.803  12.916
84956W        W44217   9.206  20.570  13.035
84957W        W44218  21.138  15.235  11.938
84958W        W44219  38.982  20.249   9.660
84959W        W44220  20.157  10.272   4.288
84960W        W44221  23.146  29.469   0.410
84961W        W44222  43.359  25.012  14.026
84962W        W44223  20.652  30.444   3.259
84963W        W44224  44.353   9.684  12.873
84964W        W44225  11.679  15.317   3.760
84965W        W44226  41.920  36.407   1.778
84966W        W44227  33.546  36.073  13.465
84967W        W44228  10.759  27.152   1.234
84968W        W44229  24.016   2.398  14.863
84969W        W44230  17.668  16.198  13.460
84970W        W44231   3.384   6.717   1.450
84971W        W44232  24.030   2.423  11.864
84972W        W44233   4.921   0.352   9.972
84973W        W44234   2.260  25.191  11.026
84974W        W44235  40.489  24.712   2.199
84975W        W44236  35.484  37.021  10.520
84976W        W44237  41.437  17.120  12.455
84977W        W44238   1.297  43.950  13.387
84978W        W44239  33.567  21.118   3.656
84979W        W44240  34.900   7.279   1.402
84980W        W44241  17.294  44.259   2.217
84981W        W44242  39.406  44.854  13.934
84982W        W44243   8.721  24.004  14.951
84983W        W44244  42.462  13.307  10.553
84984W        W44245   3.814  10.838  13.043
84985W        W44246   7.774  26.656   0.951
84986W        W44247  37.572   4.735   3.841
84987W        W44248   4.390  34.932   1.721
84988W        W44249  24.637  25.096  13.062
84989W        W44250  34.417  30.516   4.633
84990W        W44251   4.876  14.227  11.554
84991W        W44252   0.948  40.335   4.117
84992W        W44253  13.321  43.963   3.209
84993W        W44254  18.059  20.167  11.431
84994W        W44255  16.713  33.051   2.311
84995W        W44256  33.580  27.076  12.355
84996W        W44257  25.568  12.264   4.653
84997W        W44258  34.372  24.117  12.891
84998W        W44259  36.921  24.631  11.025
84999W        W44260  26.622  23.508   1.793
85000W        W44261   2.720  17.235  11.015
85001W        W44262   8.801  35.369  11.955
85002W        W44263   0.865  15.123  10.465
85003W        W44264  17.570  44.854  12.033
85004W        W44265  41.036  10.772   2.674
85005W        W44266  22.599  19.565   0.481
85006W        W44267  28.115  13.602   4.687
85007W        W44268   7.349   0.866   2.313
85008W        W44269   7.880  34.499   4.836
85009W        W44270  36.429   5.762  12.345
85010W        W44271  31.633  28.965  10.997
85011W        W44272   7.374  29.024  13.500
85012W        W44273  43.499  25.153   1.241
85013W        W44274  21.251   5.410  13.442
85014W        W44275   0.345  11.675  13.905
85015W        W44276  17.778  26.461  10.014
85016W        W44277  32.496  37.551   0.924
85017W        W44278  32.591   1.265   0.916
85018W        W44279  12.836  33.434   1.895
85019W        W44280   9.800  40.877   0.779
85020W        W44281  16.787  26.582  12.002
85021W        W44282  21.164   4.375  13.845
85022W        W44283  44.955   5.349  11.487
85023W        W44284  16.635  36.875  14.501
85024W        W44285  23.231  41.516   2.709
85025W        W44286   0.459   3.929  10.495
85026W        W44287  11.165  28.933   1.385
85027W        W44288   9.353  22.726   4.170
85028W        W44289  10.824  22.027   0.470
85029W        W44290   3.816  35.429   3.684
85030W        W44291  35.061  16.210   4.224
85031W        W44292  43.356  26.572  11.591
85032W        W44293  43.777  32.044  12.886
85033W        W44294   6.773  30.586  11.063
85034W        W44295  16.201  18.220  12.022
85035W        W44296  28.946  32.546  11.528
85036W        W44297   5.864  44.825  10.478
85037W        W44298  41.954  32.044  11.576
85038W        W44299  14.791  44.766  10.500
85039W        W44300  38.911  18.719   5.279
85040W        W44301   8.342  16.807   0.295
85041W        W44302  31.108  43.435  14.949
85042W        W44303  11.155  28.453  13.395
85043W        W44304  11.268   5.808  14.928
85044W        W44305  10.749  12.829   4.207
85045W        W44306  43.454  44.900   0.906
85046W        W44307   2.918  42.933  13.485
85047W        W44308  15.214  42.377  10.611
85048W        W44309  12.314  27.570  14.032
85049W        W44310  40.872  19.085   0.783
85050W        W44311  27.690  24.012  12.903
85051W        W44312  12.823   4.858  11.511
85052W        W44313  38.421  20.042   4.345
85053W        W44314  30.137   1.799  11.535
85054W        W44315  27.669  28.498   3.683
85055W        W44316  23.056  27.558  12.552
85056W        W44317  10.681   1.975  14.009
85057W        W44318  39.411  41.955  11.891
85058W        W44319  10.155  39.061   2.786
85059W        W44320  27.606  41.512   4.296
85060W        W44321  14.607  35.901  10.413
85061W        W44322  23.510  36.963  12.384
85062W        W44323  16.203   1.293   0.334
85063W        W44324   0.838  23.668  11.042
85064W        W44325  19.217   4.446   4.823
85065W        W44326  38.861   4.765  10.586
85066W        W44327  34.079  44.893   2.360
85067W        W44328  32.633   7.795   5.258
85068W        W44329  34.937   5.693  13.976
85069W        W44330  27.100  14.667  12.052
85070W        W44331  12.756  35.978  13.986
85071W        W44332  13.707  12.839  12.975
85072W        W44333  26.513   1.473  11.856
85073W        W44334  14.713  11.323   1.805
85074W        W44335  37.435  27.065  14.494
85075W        W44336  21.531  13.758   4.216
85076W        W44337  19.077  20.768   0.929
85077W        W44338  11.804  41.481  14.897
85078W        W44339  16.733  29.125  11.880
85079W        W44340  39.406  16.643  12.429
85080W        W44341  16.216  18.691   2.888
85081W        W44342   5.710   6.291  11.034
85082W        W44343  10.141   9.335  11.588
85083W        W44344  11.163  27.682  10.418
85084W        W44345  42.484  31.471  14.968
85085W        W44346  12.843  39.037   0.285
85086W        W44347   7.770  42.333   0.855
85087W        W44348  43.468  18.675  13.421
85088W        W44349   1.278   9.312   1.758
85089W        W44350  20.162   5.326  11.979
85090W        W44351  21.065  23.219   3.280
85091W        W44352  14.673  26.185   1.752
85092W        W44353   9.700  12.834  13.045
85093W        W44354   7.671   5.721   3.324
85094W        W44355  36.989  10.728  14.858
85095W        W44356  28.535  37.371   2.178
85096W        W44357   1.835   3.869  14.007
85097W        W44358  26.198  14.795  13.019
85098W        W44359  32.551  28.100   0.842
85099W        W44360  25.983  36.581  12.373
85100W        W44361  44.303  20.733  13.823
85101W        W44362   9.365   1.303  14.305
85102W        W44363  25.055  30.435   2.749
85103W        W44364  15.732   4.350  13.337
85104W        W44365  32.513  34.949  12.040
85105W        W44366   2.294  26.042   4.701
85106W        W44367  23.993  33.536  14.944
85107W        W44368  41.977   4.260  13.060
85108W        W44369   7.740  23.702  11.952
85109W        W44370   5.353  26.146  14.029
85110W        W44371  42.959  16.124   2.184
85111W        W44372   9.744  38.969  14.821
85112W        W44373  26.039  30.567   3.241
85113W        W44374  40.911  41.860  11.419
85114W        W44375  43.309  16.195  12.008
85115W        W44376   5.301  13.109  14.462
85116W        W44377   3.298  25.976   3.852
85117W        W44378  31.583  38.067  14.836
85118W        W44379  15.316  18.202  14.873
85119W        W44380   5.413   5.832   0.458
85120W        W44381  38.924  24.026  12.580
85121W        W44382  17.189   0.908   1.866
85122W        W44383   4.933  30.929  12.399
85123W        W44384   3.945  32.588  14.807
85124W        W44385  39.553   7.323   1.422
85125W        W44386  11.857  35.506  14.964
85126W        W44387  21.078  38.965  13.901
85127W        W44388  28.066  35.491  14.015
85128W        W44389  41.397  42.892   0.391
85129W        W44390  43.324  37.437   3.295
85130W        W44391  23.130  44.336   0.916
85131W        W44392   2.785  41.991   1.766
85132W        W44393  34.411  41.908   0.402
85133W        W44394  13.712   2.347  13.930
85134W        W44395  42.018  34.423  14.774
85135W        W44396  23.651   7.355   1.431
85136W        W44397  34.502   5.736   3.172
85137W        W44398  43.353   4.365   0.381
85138W        W44399  12.727   0.796   4.790
85139W        W44400  42.816  26.048   3.732
85140W        W44401  22.660  17.077   3.280
85141W        W44402  41.308  12.647   3.834
85142W        W44403  15.811  39.339   0.767
85143W        W44404  44.300  23.044  11.058
85144W        W44405  27.648  23.145   2.200
85145W        W44406  15.759   3.417   1.243
85146W        W44407  18.251  22.055  13.999
85147W        W44408  41.446  30.004  13.478
85148W        W44409  18.244   5.437  12.034
85149W        W44410   4.347  30.046  12.844
85150W        W44411  34.055  18.097  11.959
85151W        W44412   2.866   1.746  10.569
85152W        W44413  27.079  14.200  11.450
85153W        W44414  34.007   7.179  13.817
85154W        W44415  35.921  19.039   0.736
85155W        W44416  20.057  44.858  12.028
85156W        W44417  22.672  29.121  14.340
85157W        W44418   2.391  25.612   0.399
85158W        W44419   5.880  20.200  14.821
85159W        W44420  14.225  44.976   1.782
85160W        W44421  14.668   8.792  11.455
85161W        W44422  18.289  38.871  12.015
85162W        W44423  26.020  26.000  12.976
85163W        W44424  34.611   6.394  14.275
85164W        W44425   6.355  11.281  12.933
85165W        W44426  41.911  10.879   1.228
85166W        W44427  24.173  16.135   2.281
85167W        W44428  25.551  19.270  12.871
85168W        W44429  26.622   8.886  14.779
85169W        W44430  20.617  39.825  13.891
85170W        W44431  18.279  33.591   1.846
85171W        W44432  23.669  23.629  13.346
85172W        W44433  38.366   3.356   0.875
85173W        W44434   2.829  30.997   2.412
85174W        W44435  15.707  18.739   4.225
85175W        W44436  21.742  38.059   4.634
85176W        W44437  27.570  40.960   2.357
85177W        W44438  10.674   0.918   0.844
85178W        W44439  43.918  27.018   3.386
85179W        W44440  20.593   5.931   1.429
85180W        W44441   8.821   2.809   4.740
85181W        W44442  16.080  33.029  11.485
85182W        W44443  11.171  41.910   0.804
85183W        W44444  28.637   5.404  11.966
85184W        W44445   5.915  35.909   1.220
85185W        W44446   8.188  24.179   0.963
85186W        W44447  30.500  41.519  11.044
85187W        W44448   3.767  42.788  13.472
85188W        W44449  33.421  26.471   0.477
85189W        W44450   3.766  21.138  11.008
85190W        W44451  13.348  33.390  11.082
85191W        W44452  38.505   4.216  11.966
85192W        W44453  15.198   2.397  12.959
85193W        W44454  21.649  42.380  10.479
85194W        W44455   3.240  30.472  13.894
85195W        W44456   9.213  29.091  12.415
85196W        W44457  43.785  23.035  12.398
85197W        W44458  40.942   5.420   3.731
85198W        W44459  41.930   3.350   4.708
85199W        W44460  11.723  21.034  11.374
85200W        W44461   2.913   3.306  12.875
85201W        W44462  16.754  37.453  11.092
85202W        W44463   0.301  38.398  13.928
85203W        W44464  17.160  37.384  14.362
85204W        W44465  18.264  22.126   0.777
85205W        W44466  18.127  21.197   0.452
85206W        W44467  18.052  29.520   3.281
85207W        W44468   5.386  11.667   1.709
85208W        W44469  33.040  24.649  10.607
85209W        W44470  41.354  32.933   4.339
85210W        W44471  17.265  15.211  14.490
85211W        W44472   5.837  17.672   0.309
85212W        W44473  28.465  16.161  11.447
85213W        W44474  29.111   2.936   4.320
85214W        W44475  11.712  25.482  13.356
85215W        W44476   3.927  26.555  14.347
85216W        W44477   0.326   9.801   0.937
85217W        W44478   8.176   0.805   2.383
85218W        W44479  36.440  15.722   1.212
85219W        W44480  23.126   0.877   1.908
85220W        W44481  26.965  27.610  14.761
85221W        W44482   9.665  43.767   0.270
85222W        W44483  13.626  44.485   1.819
85223W        W44484   2.793  40.889   3.741
85224W        W44485  41.882  41.007   1.788
85225W        W44486   0.450   6.377   0.830
85226W        W44487  22.137  34.586  12.030
85227W        W44488  12.128  24.710  12.032
85228W        W44489  19.075  40.811   1.412
85229W        W44490  25.639  44.331   2.321
85230W        W44491  13.158   5.427   9.527
85231W        W44492  27.042  44.340   2.881
85232W        W44493  33.512  18.578  13.504
85233W        W44494  39.418  13.156   3.374
85234W        W44495  36.918  43.423   4.835
85235W        W44496   8.179  33.392   0.948
85236W        W44497  19.138  34.371  11.610
85237W        W44498  24.050  22.128  13.848
85238W        W44499  24.118  20.114  13.799
85239W        W44500  13.333  31.440   4.140
85240W        W44501   4.830  15.088   1.884
85241W        W44502  38.458  36.987  12.056
85242W        W44503  28.060  12.680  11.041
85243W        W44504  17.613  10.848   3.674
85244W        W44505  11.854  44.902   0.773
85245W        W44506   5.332  20.245   2.881
85246W        W44507  19.633   4.715  12.464
85247W        W44508  16.684  33.546  14.763
85248W        W44509  12.610  18.737  12.032
85249W        W44510  39.499   1.384   3.189
85250W        W44511  25.129  39.938   4.154
85251W        W44512   2.875  12.276   2.771
85252W        W44513  12.218   8.191   0.946
85253W        W44514  43.856  44.433  11.087
85254W        W44515   2.928  16.782  13.511
85255W        W44516  19.557  14.593   1.812
85256W        W44517   9.875  42.480  12.959
85257W        W44518   7.840   6.707   3.165
85258W        W44519   7.806  12.758   3.194
85259W        W44520  15.679  38.967   2.842
85260W        W44521  38.003  26.694   4.793
85261W        W44522   3.719   8.250   0.483
85262W        W44523  27.166  21.553  13.330
85263W        W44524  27.116  20.136   1.908
85264W        W44525  23.188  21.658  14.287
85265W        W44526  10.798  39.956   1.835
85266W        W44527  27.183  37.366   4.729
85267W        W44528  26.078  12.305  10.408
85268W        W44529  23.550  20.202  12.565
85269W        W44530   7.871  43.810   4.349
85270W        W44531  34.472  14.170  13.474
85271W        W44532  11.767   1.473  10.424
85272W        W44533  41.491  37.877   2.321
85273W        W44534   2.379   7.313   2.327
85274W        W44535  10.872  20.682  12.848
85275W        W44536  11.742  43.965   4.832
85276W        W44537  41.984   9.741   0.481
85277W        W44538  32.438   5.803   1.854
85278W        W44539  19.268   8.821  10.936
85279W        W44540  29.667  13.701  14.841
85280W        W44541  19.273   1.447   1.859
85281W        W44542  40.405  38.001   3.222
85282W        W44543   8.320  15.676   4.693
85283W        W44544   8.171   0.880   1.326
85284W        W44545  19.700  36.561   1.278
85285W        W44546  41.917   7.410   1.744
85286W        W44547  42.992  14.224  11.451
85287W        W44548  32.966  12.654   1.894
85288W        W44549  39.530  39.461   2.697
85289W        W44550  12.296   5.875   4.266
85290W        W44551  36.448  28.512  14.446
85291W        W44552  20.246  28.488  12.940
85292W        W44553  10.162  43.296  11.463
85293W        W44554  30.646  16.765  13.311
85294W        W44555   1.864  10.635   4.754
85295W        W44556  15.313  29.523  10.941
85296W        W44557  44.326  42.490   1.348
85297W        W44558  36.068  42.914  12.888
85298W        W44559   7.807  39.441  11.122
85299W        W44560  31.540   5.717  11.941
85300W        W44561  37.514  35.410  12.054
85301W        W44562  17.643  30.149  13.380
85302W        W44563  13.286   1.272   3.652
85303W        W44564  29.979  25.139   2.717
85304W        W44565  33.920  43.513  13.339
85305W        W44566  17.589  31.032   1.337
85306W        W44567  40.990  27.446   5.273
85307W        W44568  32.433  32.435  13.967
85308W        W44569  16.567  41.428  14.816
85309W        W44570  42.393  20.726  13.055
85310W        W44571   2.852   3.379  10.420
85311W        W44572  35.505  31.115   3.280
85312W        W44573  25.052  44.402  11.024
85313W        W44574  44.351  24.190  14.318
85314W        W44575   4.378   6.327   2.354
85315W        W44576  19.752  36.406   0.751
85316W        W44577  27.954  43.299   2.792
85317W        W44578  36.905   5.691   4.752
85318W        W44579   3.767  16.246  14.799
85319W        W44580  43.419  30.586   1.773
85320W        W44581  12.291  33.911  14.511
85321W        W44582  35.877  31.474   0.377
85322W        W44583  37.003  16.753   3.766
85323W        W44584  40.438  24.101  12.472
85324W        W44585  36.895   6.376   0.476
85325W        W44586  19.074  24.212  13.063
85326W        W44587  17.169   3.797   3.168
85327W        W44588   9.183   3.284  12.827
85328W        W44589  13.178  28.991   5.279
85329W        W44590   9.249  21.588   0.848
85330W        W44591  31.556  37.436  11.042
85331W        W44592  30.040  18.607   3.263
85332W        W44593  43.909  44.005   1.887
85333W        W44594  44.369  43.902  10.107
85334W        W44595  43.284  22.052  11.488
85335W        W44596  18.625   4.345   3.759
85336W        W44597  20.143  15.246   0.480
85337W        W44598  44.007   7.730  12.872
85338W        W44599  16.163  20.045  10.904
85339W        W44600  40.477  26.495   1.355
85340W        W44601  34.989  25.538  14.780
85341W        W44602  32.419  36.375   0.355
85342W        W44603  22.024  13.334  13.062
85343W        W44604   5.329  11.626  12.354
85344W        W44605  37.047   9.859  13.548
85345W        W44606  40.381  23.651  12.468
85346W        W44607  42.823  16.647  14.489
85347W        W44608  21.170  40.433  10.578
85348W        W44609  24.514  16.782  10.560
85349W        W44610  13.297   9.230   3.668
85350W        W44611  30.049  10.670  11.090
85351W        W44612   9.322  34.043  14.765
85352W        W44613  16.806  34.058   2.837
85353W        W44614   6.874  17.759   0.897
85354W        W44615  29.519  11.648   3.865
85355W        W44616  14.222  21.732   0.296
85356W        W44617  31.090  39.429  14.791
85357W        W44618  41.857  36.875   4.742
85358W        W44619  22.031  38.344   1.884
85359W        W44620  37.834  14.140  11.578
85360W        W44621   3.290  10.224   1.249
85361W        W44622  26.968  41.991   3.319
85362W        W44623  13.201  27.172  10.543
85363W        W44624  26.982  12.258  14.314
85364W        W44625  44.803  34.977   4.829
85365W        W44626  17.272  42.889   1.387
85366W        W44627  40.884   2.376   3.783
85367W        W44628   5.259  26.069  13.355
85368W        W44629  22.191  32.929  13.027
85369W        W44630  23.985  10.332  12.940
85370W        W44631  19.212  30.065   4.324
85371W        W44632  25.477   2.273  12.861
85372W        W44633  17.575  43.416   3.350
85373W        W44634  17.239  41.522  14.325
85374W        W44635   8.736  20.190   0.266
85375W        W44636  10.698  34.060  12.456
85376W        W44637  14.174  26.674  10.470
85377W        W44638  25.208  33.084   2.735
85378W        W44639  19.201  32.110  11.592
85379W        W44640   2.431  34.920  13.900
85380W        W44641  38.882  33.493  10.602
85381W        W44642  44.446   4.249  10.124
85382W        W44643  41.014  11.246  13.002
85383W        W44644   4.354  36.575   4.220
85384W        W44645  18.117  44.304  11.917
85385W        W44646  15.577  22.098   0.875
85386W        W44647  21.560  30.507   4.332
85387W        W44648  19.255  41.522   0.306
85388W        W44649  17.788   2.914  10.593
85389W        W44650   7.872  13.687  12.957
85390W        W44651  11.663  12.673   2.210
85391W        W44652  21.130  11.777  10.643
85392W        W44653  33.593   6.398   3.633
85393W        W44654   9.220  42.500  12.525
85394W        W44655  26.689  32.557   1.287
85395W        W44656  39.013  37.520   2.698
85396W        W44657   2.934   2.270   1.265
85397W        W44658   2.740  43.462  14.832
85398W        W44659  21.644  12.249   0.252
85399W        W44660  16.292  22.158   1.743
85400W        W44661  24.007  31.498  11.476
85401W        W44662  24.011  33.560   0.783
85402W        W44663  28.569  14.755   2.272
85403W        W44664  44.907   6.689   0.791
85404W        W44665  26.058   0.254  14.897
85405W        W44666   5.369  18.201  13.448
85406W        W44667  32.566  29.467  14.970
85407W        W44668  43.310   6.389  12.068
85408W        W44669  14.599  30.023  11.451
85409W        W44670   6.337  29.473   2.276
85410W        W44671  42.998  11.696   3.187
85411W        W44672  13.658  26.549  12.521
85412W        W44673  35.092  35.029  10.607
85413W        W44674   3.313  22.665  12.937
85414W        W44675  15.789  19.606  12.045
85415W        W44676   4.747  26.557  12.358
85416W        W44677   2.396  26.014  13.806
85417W        W44678  11.730  32.948  11.963
85418W        W44679  38.968  22.665  14.307
85419W        W44680  14.644  18.726   3.238
85420W        W44681  16.141  35.013   0.934
85421W        W44682  14.815  35.980  12.956
85422W        W44683   2.748  12.830  11.439
85423W        W44684  25.110  40.351   0.288
85424W        W44685  34.515  43.924   1.789
85425W        W44686   7.821   3.328  12.433
85426W        W44687  11.261  25.620  14.822
85427W        W44688   6.383  36.026   3.170
85428W        W44689   5.355  35.025   2.866
85429W        W44690   5.423  18.686   3.693
85430W        W44691   2.856   9.292   2.342
85431W        W44692  27.546   9.161  11.466
85432W        W44693  32.064   3.321   3.326
85433W        W44694  32.925  34.520  12.080
85434W        W44695   9.209  10.187  12.919
85435W        W44696  26.051  34.489   3.706
85436W        W44697  18.779  30.504   0.922
85437W        W44698  23.043  41.799   2.749
85438W        W44699  34.385  40.922  13.379
85439W        W44700   8.378   9.348  10.920
85440W        W44701  19.240  23.559  14.945
85441W        W44702   3.890  26.503   0.306
85442W        W44703  37.997  25.032   2.300
85443W        W44704  20.653  29.424  12.497
85444W        W44705   7.794   3.372   9.481
85445W        W44706  40.843   8.774  14.846
85446W        W44707  36.482  27.073   0.427
85447W        W44708  16.128  22.667   1.827
85448W        W44709  34.438  33.071   3.159
85449W        W44710  15.253  24.517   3.774
85450W        W44711   9.728  38.551   4.647
85451W        W44712  42.369  30.919   0.317
85452W        W44713  32.006   6.748  11.591
85453W        W44714  24.685  11.162   0.280
85454W        W44715  35.969  19.108  12.885
85455W        W44716   5.874  40.494   2.267
85456W        W44717  44.785   1.896   1.387
85457W        W44718  20.184  27.974  10.136
85458W        W44719  27.007  44.444   1.239
85459W        W44720  23.522  41.966  13.946
85460W        W44721  25.518  23.223  14.819
85461W        W44722  38.450  33.429  12.550
85462W        W44723   8.252  21.684   4.316
85463W        W44724   0.948   9.314  10.110
85464W        W44725  15.105   9.889   2.804
85465W        W44726   4.737  18.751   4.318
85466W        W44727  30.973  22.052   4.731
85467W        W44728  33.958  39.423  12.569
85468W        W44729  18.268  33.985  10.987
85469W        W44730   0.280  32.462  14.411
85470W        W44731  38.385  24.716   4.122
85471W        W44732  35.597  20.222  14.979
85472W        W44733  17.133   4.450   1.364
85473W        W44734  22.681  44.505   2.298
85474W        W44735   2.376  16.300   4.663
85475W        W44736  37.968  42.495  14.285
85476W        W44737  29.554  38.035  12.439
85477W        W44738  34.609  24.147  10.500
85478W        W44739   2.836  41.788  13.391
85479W        W44740  13.314  13.613  13.433
85480W        W44741  27.064  30.505   2.356
85481W        W44742  11.656   3.919   0.359
85482W        W44743  16.167  28.517  14.341
85483W        W44744  24.160   3.244   3.265
85484W        W44745  24.068  35.383   2.698
85485W        W44746  29.627  43.413  13.529
85486W        W44747   6.281  32.414   0.821
85487W        W44748  20.071  36.056   0.263
85488W        W44749   5.427   1.439   2.225
85489W        W44750  27.666   3.311  12.446
85490W        W44751  42.955  20.725  10.904
85491W        W44752  18.776  13.738  13.472
85492W        W44753  39.452  28.624  14.385
85493W        W44754  28.583  37.039   0.477
85494W        W44755   5.278   4.382  13.803
85495W        W44756  31.137  17.767   0.327
85496W        W44757  13.729   8.300  13.510
85497W        W44758   7.721  38.051   1.852
85498W        W44759  24.644  32.547   3.727
85499W        W44760  39.845  32.619  14.917
85500W        W44761   2.810   6.185  13.535
85501W        W44762  36.874  24.134  14.398
85502W        W44763  19.725   8.337  13.381
85503W        W44764  32.889  39.463   4.814
85504W        W44765  18.731  13.819   1.864
85505W        W44766  24.089  11.218  14.888
85506W        W44767  22.219  26.637  10.077
85507W        W44768  34.925  33.881  14.281
85508W        W44769  19.234  38.458   0.777
85509W        W44770   3.824  34.590   4.788
85510W        W44771  16.215  21.530  12.074
85511W        W44772  22.636  11.838  10.544
85512W        W44773  15.673  13.716   1.704
85513W        W44774  36.910   1.274  11.110
85514W        W44775  43.889  27.654   3.246
85515W        W44776  17.207  25.098   5.149
85516W        W44777   9.368   2.852   3.194
85517W        W44778  29.961  43.897  12.984
85518W        W44779  44.292  22.110   2.393
85519W        W44780  18.244  29.044  10.449
85520W        W44781  34.475  35.443   4.170
85521W        W44782   2.893  21.208  10.905
85522W        W44783  41.787  36.043   3.721
85523W        W44784  29.573  18.174  10.436
85524W        W44785  28.000  38.473  12.409
85525W        W44786  15.326  32.484   4.819
85526W        W44787  40.327  37.582  13.408
85527W        W44788  42.376  18.083   5.097
85528W        W44789  20.752  12.346  14.939
85529W        W44790  16.622  44.494  12.370
85530W        W44791  28.657  19.161  11.859
85531W        W44792  38.847  42.478   4.636
85532W        W44793  42.394  27.048  14.450
85533W        W44794  37.459  15.221   0.894
85534W        W44795   0.473   0.747  14.340
85535W        W44796  36.981  24.618   1.423
85536W        W44797   6.915  29.436  12.844
85537W        W44798  38.464  25.037   0.386
85538W        W44799  18.783   3.724   0.919
85539W        W44800  24.078  12.316  11.424
85540W        W44801  23.595   3.245   3.675
85541W        W44802  41.495  17.683   1.325
85542W        W44803  23.996  37.565  12.039
85543W        W44804   8.708  43.362   4.148
85544W        W44805  35.467  25.064  11.937
85545W        W44806  15.136  23.649   1.919
85546W        W44807   2.402  44.414  11.592
85547W        W44808   4.371   0.271  11.058
85548W        W44809  44.891  34.120   3.707
85549W        W44810   8.691   0.261   3.156
85550W        W44811  19.194  14.810   2.709
85551W        W44812  14.294   4.878  11.970
85552W        W44813   8.874  14.105   1.256
85553W        W44814   7.725  16.751   4.765
85554W        W44815   9.836  17.673   1.254
85555W        W44816  33.479  33.991  13.462
85556W        W44817   3.452  41.848   2.819
85557W        W44818  28.512  19.171   3.356
85558W        W44819   4.219  35.006  13.464
85559W        W44820  31.499   8.841   2.227
85560W        W44821  20.044   4.865  11.426
85561W        W44822  36.566  11.210   0.246
85562W        W44823  10.218   6.838   3.833
85563W        W44824  36.584  44.930   4.791
85564W        W44825  22.165   4.752   4.827
85565W        W44826  33.102  16.187   4.767
85566W        W44827  32.458  35.378   4.143
85567W        W44828   9.653  40.407  14.863
85568W        W44829  19.161  21.160  12.529
85569W        W44830  28.510   1.870  14.846
85570W        W44831  29.536   9.248   4.247
85571W        W44832  30.521  15.111  13.394
85572W        W44833  22.661  40.929  12.526
85573W        W44834  11.681  37.865   2.276
85574W        W44835  24.653   5.844   0.824
85575W        W44836  19.276   3.794   3.160
85576W        W44837  35.503  34.399  10.949
85577W        W44838  39.444  24.098   1.376
85578W        W44839   7.836  39.457   0.441
85579W        W44840  29.442  36.888  13.350
85580W        W44841  20.666  40.053   0.419
85581W        W44842   0.310   2.850  14.850
85582W        W44843  26.185  24.104  11.113
85583W        W44844  38.481  30.502   0.401
85584W        W44845  23.686  27.480   1.334
85585W        W44846   1.857  23.622   2.269
85586W        W44847  13.658  24.515   4.123
85587W        W44848  17.615   0.451  13.819
85588W        W44849  29.098  26.955   3.292
85589W        W44850  15.775  18.083   0.940
85590W        W44851  28.976  44.784  13.467
85591W        W44852  32.960  26.180   4.325
85592W        W44853   6.284   9.230   3.169
85593W        W44854   5.402  29.604   0.425
85594W        W44855  11.862  13.345  11.435
85595W        W44856   8.250  32.629  10.546
85596W        W44857   8.707  37.897  13.464
85597W        W44858  20.709  15.716  14.778
85598W        W44859  43.805  11.315  11.896
85599W        W44860  19.685   6.888   3.266
85600W        W44861  37.391  39.966   1.776
85601W        W44862  43.284   4.283  12.040
85602W        W44863  16.811  23.610   3.253
85603W        W44864  36.987  28.474   1.717
85604W        W44865  34.377   1.906   1.426
85605W        W44866  18.778  28.079  14.515
85606W        W44867  18.673  38.861  13.520
85607W        W44868   1.853   7.361   1.829
85608W        W44869   7.333  44.472   0.414
85609W        W44870  12.681   7.886   0.247
85610W        W44871   8.700  39.045  12.997
85611W        W44872  11.781  35.872   3.374
85612W        W44873  12.157  35.894  14.494
85613W        W44874  26.967  39.440  14.029
85614W        W44875  23.598  23.586  13.909
85615W        W44876  18.053  28.035  13.484
85616W        W44877  12.806  15.192   0.344
85617W        W44878  33.065  19.750   3.842
85618W        W44879  15.602  43.380  10.619
85619W        W44880   7.274  44.943  12.058
85620W        W44881   1.840  41.301  12.546
85621W        W44882  20.562  21.253  13.427
85622W        W44883  34.511  33.942  12.981
85623W        W44884  19.614  43.447   3.750
85624W        W44885  42.453  27.080  10.990
85625W        W44886  30.544  30.587   4.744
85626W        W44887  25.589   7.893  14.468
85627W        W44888  18.580  24.982  12.549
85628W        W44889  15.590  14.330  12.440
85629W        W44890  30.622  27.982   2.292
85630W        W44891  27.662   9.187   3.368
85631W        W44892  36.448  23.103  10.919
85632W        W44893  13.143  29.145  12.971
85633W        W44894  33.412  20.687   1.723
85634W        W44895  28.475  22.064  11.487
85635W        W44896   5.824  20.214   0.424
85636W        W44897   5.794  44.333  11.416
85637W        W44898  44.469  41.315  12.352
85638W        W44899  41.433  18.209  10.033
85639W        W44900  25.983  30.468   0.961
85640W        W44901  28.653  29.000   0.273
85641W        W44902  18.126  37.869  14.786
85642W        W44903  14.704   9.802  10.534
85643W        W44904  34.376  38.385  11.975
85644W        W44905  40.949  34.074   5.682
85645W        W44906  32.397  29.447   2.871
85646W        W44907  14.618  37.857   1.710
85647W        W44908  38.951  32.137  13.374
85648W        W44909  13.268  16.741   1.320
85649W        W44910   2.790  18.271   2.352
85650W        W44911  10.232  43.842  12.364
85651W        W44912  24.698   6.247   3.661
85652W        W44913  26.602  21.660   2.207
85653W        W44914   1.240  19.123  14.923
85654W        W44915  28.587  13.679   4.294
85655W        W44916  31.093  30.118   3.303
85656W        W44917  38.468   6.182   3.848
85657W        W44918   2.816  44.368  14.335
85658W        W44919  23.713  26.150   3.359
85659W        W44920  31.944  26.584  13.409
85660W        W44921  41.024  32.584  12.086
85661W        W44922   3.242  13.115   0.359
85662W        W44923  23.639  23.545   4.191
85663W        W44924  14.233  26.597   1.424
85664W        W44925   9.849  33.510  10.446
85665W        W44926  15.238  38.912   2.375
85666W        W44927  30.465   2.453   2.715
85667W        W44928  41.946  43.355   2.822
85668W        W44929   0.832   8.363   3.343
85669W        W44930  22.642  39.917  10.078
85670W        W44931  37.490  16.240  12.093
85671W        W44932   4.293  43.872  14.349
85672W        W44933   2.254  23.053  11.013
85673W        W44934  17.566  25.578   0.899
85674W        W44935  24.216  21.201   1.822
85675W        W44936  11.189   2.904   2.748
85676W        W44937  16.112  33.081   4.245
85677W        W44938  30.937  29.091   4.118
85678W        W44939  28.058  37.374  14.809
85679W        W44940  40.906  15.213   0.423
85680W        W44941  13.237  22.655  13.547
85681W        W44942  43.336  28.636  14.835
85682W        W44943  18.746  39.970   0.825
85683W        W44944  44.415  10.310  10.490
85684W        W44945  38.831  38.568  12.541
85685W        W44946  21.536  13.133   2.394
85686W        W44947  41.814  22.515   4.205
85687W        W44948  44.502   8.707  12.965
85688W        W44949  29.534  32.040   4.713
85689W        W44950  14.830  29.649  13.457
85690W        W44951  34.995   0.805  10.455
85691W        W44952   2.271  27.023  11.979
85692W        W44953  23.083  43.828   1.305
85693W        W44954  31.489   6.414  14.488
85694W        W44955  31.474  26.058   0.406
85695W        W44956  24.081  43.419   1.903
85696W        W44957   4.718  19.157   1.253
85697W        W44958  19.657  19.142   3.240
85698W        W44959  16.075   6.850  12.485
85699W        W44960  18.712  11.320  14.403
85700W        W44961  16.715  43.299   0.403
85701W        W44962  41.012   1.450   2.863
85702W        W44963  31.916  23.023  11.931
85703W        W44964  34.370  14.112   3.261
85704W        W44965  23.233  17.674  13.961
85705W        W44966  10.235  28.176  12.943
85706W        W44967   5.819  43.896   3.153
85707W        W44968  24.023   6.189   5.312
85708W        W44969  32.003  42.789   1.318
85709W        W44970  32.547   6.764  10.979
85710W        W44971   5.803   9.694   0.341
85711W        W44972  16.132   9.266   1.290
85712W        W44973  14.649  28.641   0.433
85713W        W44974  24.206  21.174  10.122
85714W        W44975  11.736  12.686   1.392
85715W        W44976  44.273  33.466  10.622
85716W        W44977   5.763  31.497   0.252
85717W        W44978   5.303  43.371  11.122
85718W        W44979  36.380  21.641  14.951
85719W        W44980   2.236  42.810  11.922
85720W        W44981  44.424  35.993  10.413
85721W        W44982  19.127  11.162  12.579
85722W        W44983  16.800   5.196  14.793
85723W        W44984   7.326   0.786  10.587
85724W        W44985  30.039  28.531   2.879
85725W        W44986   8.345   4.354  11.930
85726W        W44987  34.895  39.045   3.311
85727W        W44988   8.692  11.329  13.961
85728W        W44989   7.254   5.885   2.786
85729W        W44990  10.633  23.144   2.232
85730W        W44991  19.212  42.794  13.507
85731W        W44992  38.050   2.904  12.388
85732W        W44993  25.646  20.759  11.597
85733W        W44994  43.017  22.092   0.266
85734W        W44995   7.909  24.030  14.441
85735W        W44996  38.999  42.821   4.332
85736W        W44997  42.512  41.868   4.327
85737W        W44998  38.017  17.128  13.373
85738W        W44999  17.281  31.092  11.561
85739W        W45000  25.581  43.341   4.197
85740W        W45001  28.937   0.963   4.617
85741W        W45002  12.163   0.794  14.430
85742W        W45003  32.102  34.998   4.792
85743W        W45004  10.774  16.768  14.857
85744W        W45005  34.940   2.766   4.625
85745W        W45006   6.717  12.322  10.515
85746W        W45007  13.297   8.243  10.405
85747W        W45008  35.031   0.386   4.133
85748W        W45009  15.234   5.424   0.912
85749W        W45010  25.479  23.139   2.702
85750W        W45011  36.428  11.682   2.814
85751W        W45012  39.850  19.674  11.601
85752W        W45013  44.827  36.403  12.931
85753W        W45014  43.799  31.531  10.594
85754W        W45015  31.953  44.898  14.358
85755W        W45016  37.985  42.416  11.885
85756W        W45017  28.020  24.018  14.805
85757W        W45018  10.737  37.854  11.080
85758W        W45019  19.049   0.829  14.794
85759W        W45020   8.277  19.670   4.289
85760W        W45021  36.580  42.444  11.013
85761W        W45022  36.068  28.496   3.145
85762W        W45023  21.208  10.648   2.748
85763W        W45024   4.285  31.410   2.752
85764W        W45025  44.946  35.413  14.841
85765W        W45026  41.490   8.322  10.638
85766W        W45027  34.923  23.986   1.381
85767W        W45028  16.233   2.907   3.821
85768W        W45029  17.190  31.980  11.497
85769W        W45030   4.717  20.271  11.976
85770W        W45031   4.299  18.069  10.978
85771W        W45032  13.615  21.134  10.420
85772W        W45033  31.079  42.495  10.412
85773W        W45034   9.305   1.924   0.772
85774W        W45035  23.224   8.843  13.856
85775W        W45036  44.357  33.067  12.008
85776W        W45037  22.048  28.528   0.336
85777W        W45038  23.560  10.357   1.833
85778W        W45039  24.209   4.241   4.765
85779W        W45040  27.516  15.598  14.828
85780W        W45041   9.181  37.008   0.903
85781W        W45042   4.913  18.254  10.555
85782W        W45043  34.500  39.536  10.546
85783W        W45044  31.988  36.006  10.534
85784W        W45045  33.102  38.502  13.545
85785W        W45046   6.878  36.504  13.485
85786W        W45047  16.736  44.885  12.000
85787W        W45048  40.516  42.318  12.419
85788W        W45049   8.716  27.034   1.837
85789W        W45050  40.401  21.521   1.402
85790W        W45051  41.293  42.860  14.384
85791W        W45052  44.499  44.462   4.169
85792W        W45053   2.469  19.163  13.428
85793W        W45054  40.028  17.737  13.449
85794W        W45055  44.940  20.621   4.755
85795W        W45056  13.656  13.605  12.432
85796W        W45057   6.683  32.607   4.598
85797W        W45058   2.764  29.140   4.144
85798W        W45059  30.082  27.133   1.409
85799W        W45060  40.499  39.972   3.697
85800W        W45061  43.015  23.200  10.022
85801W        W45062  36.013  15.696  12.504
85802W        W45063   4.762  30.110  11.911
85803W        W45064  19.584  39.887   1.293
85804W        W45065  19.131  17.287   0.477
85805W        W45066  32.505  26.019  14.293
85806W        W45067  23.025  42.377  12.538
85807W        W45068   6.822  37.541   4.185
85808W        W45069  27.108  28.515  12.359
85809W        W45070  26.026  27.113  11.003
85810W        W45071  40.424  17.131  13.343
85811W        W45072   3.229   9.214  12.880
85812W        W45073  37.861  10.199   2.726
85813W        W45074  33.557   3.299   4.711
85814W        W45075  13.825  28.109  14.905
85815W        W45076  20.233  30.547  14.341
85816W        W45077  23.542  12.625   0.376
85817W        W45078   4.788  29.670   0.736
85818W        W45079  39.366   0.281   2.378
85819W        W45080  17.602   7.742   2.859
85820W        W45081  23.110   8.712   2.199
85821W        W45082  43.449  31.068  11.393
85822W        W45083  11.256  32.545   0.481
85823W        W45084  12.855   5.780  14.496
85824W        W45085  35.464   5.841   2.222
85825W        W45086  15.749   4.334  14.891
85826W        W45087  21.654   1.361   0.753
85827W        W45088  38.922  20.745   3.834
85828W        W45089   8.739  29.971  12.489
85829W        W45090  35.536  16.668  11.388
85830W        W45091  21.126   5.405   4.190
85831W        W45092  25.997  29.425  10.927
85832W        W45093  28.141  31.503  13.369
85833W        W45094  42.341  14.693   3.258
85834W        W45095  44.472  19.778   1.792
85835W        W45096  32.990   5.824   3.666
85836W        W45097   4.221   9.777  12.521
85837W        W45098   5.256   8.214  11.870
85838W        W45099  40.537  32.039   2.294
85839W        W45100  27.680  14.264  11.956
85840W        W45101  12.124  16.699  14.277
85841W        W45102  18.755  37.369   4.170
85842W        W45103  24.147   3.330  14.328
85843W        W45104  16.802   1.947   0.375
85844W        W45105   9.186  31.635  12.543
85845W        W45106  34.419  33.505  13.397
85846W        W45107   7.676  33.924  13.943
85847W        W45108  30.596  20.731  10.508
85848W        W45109  40.038  37.067   0.879
85849W        W45110  30.079  21.692  11.966
85850W        W45111  41.879  13.680  14.289
85851W        W45112  44.894  30.000   2.875
85852W        W45113  16.684  30.977  10.526
85853W        W45114  12.676  24.677   1.240
85854W        W45115  14.121  22.050  10.025
85855W        W45116  30.658  42.419  13.923
85856W        W45117  23.023  15.792  10.895
85857W        W45118   0.302   9.652   4.814
85858W        W45119  27.147  38.476  14.401
85859W        W45120  35.585   2.913   3.306
85860W        W45121   0.769   9.364  14.360
85861W        W45122  13.322  37.374  11.992
85862W        W45123  16.286   2.430  13.385
85863W        W45124   2.301   9.161   2.862
85864W        W45125  20.655  31.533   4.168
85865W        W45126   2.935   0.880   2.871
85866W        W45127  35.501  42.310   3.252
85867W        W45128   3.233   3.784  11.489
85868W        W45129  25.192  22.118   3.762
85869W        W45130  30.609   2.456   5.317
85870W        W45131  21.742   8.792  10.421
85871W        W45132  33.121  15.630  14.774
85872W        W45133  39.949  21.263   4.798
85873W        W45134  36.841  42.394  13.838
85874W        W45135  14.178  18.588   0.903
85875W        W45136  20.623  14.776  11.002
85876W        W45137  10.685  32.041   1.215
85877W        W45138  31.581  23.228  14.357
85878W        W45139  44.999   7.806  11.937
85879W        W45140  10.170  43.504  10.497
85880W        W45141  36.555  32.032  13.499
85881W        W45142   5.203   7.714   3.359
85882W        W45143   5.337  15.670   0.390
85883W        W45144  32.052  24.194   1.439
85884W        W45145  40.434  30.605   2.339
85885W        W45146  14.835  43.913  14.316
85886W        W45147   7.748  19.101   0.263
85887W        W45148  29.656  41.965  14.279
85888W        W45149  21.075  32.946  14.461
85889W        W45150  38.324  43.961   0.920
85890W        W45151  42.961  39.430   0.756
85891W        W45152  44.761   8.342  11.611
85892W        W45153  28.436  34.612  12.023
85893W        W45154   5.318  17.127   2.882
85894W        W45155  20.085  30.066   1.901
85895W        W45156  33.978   0.414  12.386
85896W        W45157  36.085  18.709   0.898
85897W        W45158  41.505  37.411  10.541
85898W        W45159   6.691  10.842   3.856
85899W        W45160  40.394   2.723   3.644
85900W        W45161   9.181  35.993  11.393
85901W        W45162  22.662  24.057   2.794
85902W        W45163  13.845  35.008  12.995
85903W        W45164  30.631   2.378   4.691
85904W        W45165  35.051  30.611  13.838
85905W        W45166  35.030  38.833   9.926
85906W        W45167   8.199  13.185   0.407
85907W        W45168   8.755  17.172  11.443
85908W        W45169  35.547  17.160  11.999
85909W        W45170  27.188  32.886   4.723
85910W        W45171  35.900  15.776   3.168
85911W        W45172  21.059  24.689  10.982
85912W        W45173  34.431  17.288  11.922
85913W        W45174  28.093  12.856   4.317
85914W        W45175  26.682  14.733   3.297
85915W        W45176  31.409   4.277  11.512
85916W        W45177  14.634   7.292  14.809
85917W        W45178   8.263  29.009   4.671
85918W        W45179  12.789  41.448  14.461
85919W        W45180  23.706  42.405   1.816
85920W        W45181  14.832  41.865  11.082
85921W        W45182  18.790  36.524  12.513
85922W        W45183   1.751  22.099   1.927
85923W        W45184  41.525  36.593   0.811
85924W        W45185  27.527  42.403  13.838
85925W        W45186  43.770  28.460  12.949
85926W        W45187  40.444  30.416   1.213
85927W        W45188  32.017  13.107   2.282
85928W        W45189   8.770  37.992   1.329
85929W        W45190  43.926   8.313  14.418
85930W        W45191  15.150   7.329   0.828
85931W        W45192  19.596  35.988  12.343
85932W        W45193  37.883  41.019   4.682
85933W        W45194   0.858  29.505  11.891
85934W        W45195  21.114  23.079  10.960
85935W        W45196  19.686  41.846  12.544
85936W        W45197  42.876  42.491  10.477
85937W        W45198  22.082   7.272   3.839
85938W        W45199  33.517  34.057  11.939
85939W        W45200  37.002  16.718  10.544
85940W        W45201  38.527  22.031   1.348
85941W        W45202  30.650   5.383   3.862
85942W        W45203  10.721   0.303  13.338
85943W        W45204  41.862   9.241  12.903
85944W        W45205  42.305  32.546   1.351
85945W        W45206  39.510  14.237  12.941
85946W        W45207  11.639  20.263   0.745
85947W        W45208  40.996  31.995  12.467
85948W        W45209  27.078  35.455   1.754
85949W        W45210   5.338  27.149  12.026
85950W        W45211  32.576  20.630  11.126
85951W        W45212  30.647   3.411  12.929
85952W        W45213   8.201  14.166   0.482
85953W        W45214  31.899  32.917  11.508
85954W        W45215  13.646   4.899   0.264
85955W        W45216  34.910  41.388   9.997
85956W        W45217  34.093   9.777   5.193
85957W        W45218   6.835  27.599  14.834
85958W        W45219  11.233  31.081   1.742
85959W        W45220  16.212  25.102  13.445
85960W        W45221  11.336   1.866  10.589
85961W        W45222  24.632  35.380  10.408
85962W        W45223  17.602  41.348  10.447
85963W        W45224  35.362  31.621  11.531
85964W        W45225  20.606  25.048   4.712
85965W        W45226  19.275  11.750   0.247
85966W        W45227   3.890  36.011   4.354
85967W        W45228  42.858  40.023  13.915
85968W        W45229  40.040  26.040   2.393
85969W        W45230   8.802   9.155  11.860
85970W        W45231  19.679  34.392   4.318
85971W        W45232   7.752   7.901   1.716
85972W        W45233  19.164  34.448  10.461
85973W        W45234  18.750  12.675  10.961
85974W        W45235  15.696  23.698   2.862
85975W        W45236  24.722  12.733   3.813
85976W        W45237   1.833  26.168   0.734
85977W        W45238  44.910  43.504   2.380
85978W        W45239  14.330  29.146   4.717
85979W        W45240  21.538  11.675   4.631
85980W        W45241   2.911  29.051  14.816
85981W        W45242  27.530  21.207  14.956
85982W        W45243  28.957  41.302   1.761
85983W        W45244  30.640   5.212   4.338
85984W        W45245  37.406  14.589  14.799
85985W        W45246  18.739   6.695   1.377
85986W        W45247  13.324   5.221   2.386
85987W        W45248  33.015   6.268   5.657
85988W        W45249   1.892  40.021  11.106
85989W        W45250  39.545  17.692   0.298
85990W        W45251   4.449   5.399  11.481
85991W        W45252  33.018  31.977  11.998
85992W        W45253  26.477  14.611  11.118
85993W        W45254  31.973  32.004   4.714
85994W        W45255  20.100  40.807  13.810
85995W        W45256  29.972  19.071  13.977
85996W        W45257  10.646  43.368   2.720
85997W        W45258   5.852  36.889   4.183
85998W        W45259  11.143   4.893  10.910
85999W        W45260  40.043  11.280  11.397
86000W        W45261  21.717   6.232   0.749
86001W        W45262  13.831  31.943   1.329
86002W        W45263  20.742  29.511   4.125
86003W        W45264  37.990   2.776  11.100
86004W        W45265  10.263  34.907   3.369
86005W        W45266  21.744   1.747  12.463
86006W        W45267   2.240   0.905  10.080
86007W        W45268   4.294  11.250  11.523
86008W        W45269  23.731  17.702   0.799
86009W        W45270   9.699  37.534   3.272
86010W        W45271  28.966  23.106  12.851
86011W        W45272  34.485  29.171   4.213
86012W        W45273  36.454   8.206  13.992
86013W        W45274  39.317  32.053  11.470
86014W        W45275  32.125  31.511   1.436
86015W        W45276  32.593   0.955  10.452
86016W        W45277   3.876  18.172   3.267
86017W        W45278  20.550  23.198   5.610
86018W        W45279   5.418  18.225   2.188
86019W        W45280  37.981   2.775   1.759
86020W        W45281  24.138  15.231   0.901
86021W        W45282  37.385   7.872   3.200
86022W        W45283   7.180   1.253  11.420
86023W        W45284  20.639  31.960   2.180
86024W        W45285  26.491   7.379   0.754
86025W        W45286   7.376  36.404  13.521
86026W        W45287   0.383  35.470   4.120
86027W        W45288  10.874  38.550   4.113
86028W        W45289   7.867  30.041  10.911
86029W        W45290   0.488   1.888  14.429
86030W        W45291  36.446  22.061   2.718
86031W        W45292   6.230  18.282   4.666
86032W        W45293  42.894  29.957   1.219
86033W        W45294  30.474   0.874  10.535
86034W        W45295  43.908  32.104   1.339
86035W        W45296   9.661  35.481   1.787
86036W        W45297   1.281   9.817  11.013
86037W        W45298  42.847  21.126  12.009
86038W        W45299   3.268  43.947  13.951
86039W        W45300  23.984  42.949   4.290
86040W        W45301  22.709  39.331   4.663
86041W        W45302  22.628   4.860   1.436
86042W        W45303   1.819  22.515  12.535
86043W        W45304  16.184  42.835  12.982
86044W        W45305  38.547  40.917  14.465
86045W        W45306  36.065  12.222   4.326
86046W        W45307   3.834  25.524  13.454
86047W        W45308  13.645  17.758   1.279
86048W        W45309  37.065  17.697   3.760
86049W        W45310  40.542  19.556   4.325
86050W        W45311  28.105   5.879  12.992
86051W        W45312  22.111  21.591  13.523
86052W        W45313  41.377  18.599  12.995
86053W        W45314  41.299   6.369  10.495
86054W        W45315  28.446   7.673   4.769
86055W        W45316   2.728  33.927  11.401
86056W        W45317  14.747  25.068   4.701
86057W        W45318  14.206  38.834   0.443
86058W        W45319  19.272   6.236  11.519
86059W        W45320  38.518  21.114  12.468
86060W        W45321  23.649  10.844   0.476
86061W        W45322  41.359  18.282   0.255
86062W        W45323   4.240  34.388  11.377
86063W        W45324  36.382  19.264   4.159
86064W        W45325  17.111  15.306  10.113
86065W        W45326  17.709  43.459   2.898
86066W        W45327   4.260  27.009   0.275
86067W        W45328   1.398  30.627  12.972
86068W        W45329  35.406  26.162   3.286
86069W        W45330  12.119  23.088  12.997
86070W        W45331  42.901  29.983  12.075
86071W        W45332  29.032  18.076   1.368
86072W        W45333   7.274  40.921  11.118
86073W        W45334  44.441  20.683   1.744
86074W        W45335   1.933  11.308  11.445
86075W        W45336  27.649  23.111   0.393
86076W        W45337   8.179   2.463   2.822
86077W        W45338  16.809  41.442   3.240
86078W        W45339  26.132  42.950   3.292
86079W        W45340  18.578  39.377   2.827
86080W        W45341  31.461  20.688  12.575
86081W        W45342  29.608  14.606   3.816
86082W        W45343  11.155  32.430   0.956
86083W        W45344  44.361  15.629   3.208
86084W        W45345  40.801  14.200   0.797
86085W        W45346  10.685   9.647  12.441
86086W        W45347   0.379  12.123  11.530
86087W        W45348  20.173   0.947  10.520
86088W        W45349  39.458  18.555   4.262
86089W        W45350  27.186  20.059   3.363
86090W        W45351   6.423  10.758  13.015
86091W        W45352  22.590  43.495  11.458
86092W        W45353  18.140  33.054  13.399
86093W        W45354   1.378  42.824  10.464
86094W        W45355  21.546  28.442   2.762
86095W        W45356  34.986  19.098   0.787
86096W        W45357  22.196  43.506  13.416
86097W        W45358   7.829  15.759  14.989
86098W        W45359  35.966   3.374   3.252
86099W        W45360   9.810  38.041  12.501
86100W        W45361  28.046   1.732  13.360
86101W        W45362   2.229  23.081  13.982
86102W        W45363  34.064  13.302   3.298
86103W        W45364  44.438  28.074   4.751
86104W        W45365  21.748  13.615  10.988
86105W        W45366  24.558  19.544  13.820
86106W        W45367  36.880  29.546   2.184
86107W        W45368  17.088   6.402   2.418
86108W        W45369  32.428  29.498  12.382
86109W        W45370  31.065  43.867   3.337
86110W        W45371  44.992  21.526  10.639
86111W        W45372  23.089  44.399   1.796
86112W        W45373  22.657   2.802  11.397
86113W        W45374  21.030   0.876  10.978
86114W        W45375   1.776  21.207  14.372
86115W        W45376   3.764  42.386   3.227
86116W        W45377  14.738  39.057  14.887
86117W        W45378   3.786   2.949  12.914
86118W        W45379  32.463  10.353   1.237
86119W        W45380   3.227  23.161   0.382
86120W        W45381  16.796  30.936   0.371
86121W        W45382  13.201  31.019   1.399
86122W        W45383   3.391   4.216  10.004
86123W        W45384  15.281  18.701   3.194
86124W        W45385   8.163  21.226   4.719
86125W        W45386  30.509  34.971  13.036
86126W        W45387  19.664  13.724  10.641
86127W        W45388  38.474  27.125  12.019
86128W        W45389  43.867   7.406  12.459
86129W        W45390  30.946  44.310  12.522
86130W        W45391  36.870  30.136  12.077
86131W        W45392  25.111  21.545   4.636
86132W        W45393  40.390  41.478   4.703
86133W        W45394  13.795  27.001  11.901
86134W        W45395  42.399  22.182  11.577
86135W        W45396   6.745  36.020  12.512
86136W        W45397  13.291  14.201   2.251
86137W        W45398  36.884  24.598   0.313
86138W        W45399  26.153  19.768  14.390
86139W        W45400  33.974  14.753  10.422
86140W        W45401  16.571  33.399   4.705
86141W        W45402  40.803  39.955   0.928
86142W        W45403  37.512  40.423   0.872
86143W        W45404  42.373  18.188  11.527
86144W        W45405  43.318  39.015  13.467
86145W        W45406  27.082  23.687  13.878
86146W        W45407  18.695  39.819  11.989
86147W        W45408  27.455  14.698   2.349
86148W        W45409   4.704  35.026   0.739
86149W        W45410  13.293   3.234   2.335
86150W        W45411  42.813  30.165  11.554
86151W        W45412  12.124  11.827  14.803
86152W        W45413  40.542  22.207   4.248
86153W        W45414  40.803  12.240   1.400
86154W        W45415  38.480  41.835  11.945
86155W        W45416  29.585  33.042  12.858
86156W        W45417  44.360  17.161  12.909
86157W        W45418  33.081  18.739   3.354
86158W        W45419  17.231   2.391   2.676
86159W        W45420  36.537  23.666   2.758
86160W        W45421  35.987  43.869  12.521
86161W        W45422  42.955   3.295  10.485
86162W        W45423  20.227  26.692  14.326
86163W        W45424  27.101  39.883   4.695
86164W        W45425  33.497  18.146  12.345
86165W        W45426  44.844  25.205   2.901
86166W        W45427   9.216   0.333  13.872
86167W        W45428  14.284   9.380   3.272
86168W        W45429   2.410  34.371  13.338
86169W        W45430  38.879   2.756  12.358
86170W        W45431  35.545  31.950  14.918
86171W        W45432  22.248  22.544  12.049
86172W        W45433  24.688  27.484   3.255
86173W        W45434  22.514  19.706   4.728
86174W        W45435  31.647  10.823  12.531
86175W        W45436  37.419  12.162  11.980
86176W        W45437   0.773  34.107   4.287
86177W        W45438   5.784  34.987   2.662
86178W        W45439  41.799  20.084   3.386
86179W        W45440  31.126   7.376   0.459
86180W        W45441   9.160  43.496  14.789
86181W        W45442  33.960  30.519  12.528
86182W        W45443  22.567  38.427   2.398
86183W        W45444   7.369   5.361  13.547
86184W        W45445   5.801  42.362   2.212
86185W        W45446  42.461   0.329   4.162
86186W        W45447   1.467  17.288   1.808
86187W        W45448  37.986   7.265   2.337
86188W        W45449  44.425   8.839   2.845
86189W        W45450  25.634  35.572   4.807
86190W        W45451   2.374   3.773   0.883
86191W        W45452  41.895  42.999  10.913
86192W        W45453  32.503  40.821   3.677
86193W        W45454  32.952  32.556   1.236
86194W        W45455  39.027  37.575  13.890
86195W        W45456  38.444   7.380   2.816
86196W        W45457  36.872  31.428   3.241
86197W        W45458   4.870  12.227   1.268
86198W        W45459   5.438  12.810  13.925
86199W        W45460  32.443   8.287   4.140
86200W        W45461  11.200   4.325  12.835
86201W        W45462  25.050  41.428   0.860
86202W        W45463  36.016   1.365  12.474
86203W        W45464   8.727  35.047   0.311
86204W        W45465   1.958  42.880  11.948
86205W        W45466  36.093  39.335   3.721
86206W        W45467  43.403  37.842   2.255
86207W        W45468   1.837  29.563  11.995
86208W        W45469  11.257  36.978  10.437
86209W        W45470  31.504  11.655   0.446
86210W        W45471  15.203  24.015   2.688
86211W        W45472  23.102  37.834  14.909
86212W        W45473  41.483  34.402   2.698
86213W        W45474   5.319  11.262   1.350
86214W        W45475  19.074  23.560   0.260
86215W        W45476  31.457  18.252  10.438
86216W        W45477  14.684  23.705  14.813
86217W        W45478  31.534  15.732   3.693
86218W        W45479  20.194  34.482  12.981
86219W        W45480  25.649  23.510  13.500
86220W        W45481  18.121  39.444  13.058
86221W        W45482  23.186  16.667  14.407
86222W        W45483  38.534   3.759   1.787
86223W        W45484   3.396  17.269  13.810
86224W        W45485  13.165   1.436  12.829
86225W        W45486  12.187   8.763   2.857
86226W        W45487   7.690  33.478   3.343
86227W        W45488  20.247  28.587   1.935
86228W        W45489  29.567  43.971  13.827
86229W        W45490  43.768   6.375   4.727
86230W        W45491  32.984  24.220  14.386
86231W        W45492  13.810  22.575  11.962
86232W        W45493  10.718   3.927   1.740
86233W        W45494  28.044  34.022   1.711
86234W        W45495  10.757   6.698  11.395
86235W        W45496   5.378  32.489  14.492
86236W        W45497   8.785  35.860   3.368
86237W        W45498  17.286  16.644  11.475
86238W        W45499  42.926   6.872   4.810
86239W        W45500   2.339  30.935   2.280
86240W        W45501  41.942  20.161   2.863
86241W        W45502   0.854  37.041   4.768
86242W        W45503   6.726  25.068  11.597
86243W        W45504  17.672  37.543  11.552
86244W        W45505   2.262   2.353  11.084
86245W        W45506   8.214  10.380  11.425
86246W        W45507   3.736   5.422   3.262
86247W        W45508  24.985   3.362  13.880
86248W        W45509  40.431  35.066  14.303
86249W        W45510  22.507  28.109  14.356
86250W        W45511  27.504  27.979   2.184
86251W        W45512  14.207  14.740  13.842
86252W        W45513   7.850  25.624   1.705
86253W        W45514  18.628  42.945  11.476
86254W        W45515  36.092  44.425   3.674
86255W        W45516  21.610  16.281  11.126
86256W        W45517  25.986  16.586   2.727
86257W        W45518  44.000   5.844  13.340
86258W        W45519  41.830  30.080  11.890
86259W        W45520  24.078  11.240   0.962
86260W        W45521   7.859  24.196  11.883
86261W        W45522  33.055   9.756  14.370
86262W        W45523  43.861  10.353   0.940
86263W        W45524  12.617  41.335   4.205
86264W        W45525  23.111  33.898  14.915
86265W        W45526  29.631  24.173   5.288
86266W        W45527  13.334  44.967   0.251
86267W        W45528  36.081  22.661  12.878
86268W        W45529  15.805  29.571   1.757
86269W        W45530  22.633  22.560   5.097
86270W        W45531   1.390   0.399   1.840
86271W        W45532  31.043  21.630  10.986
86272W        W45533  16.075  22.088  11.008
86273W        W45534  28.032  36.067   0.299
86274W        W45535  16.254  44.932   1.879
86275W        W45536  38.889  43.912   3.686
86276W        W45537   9.313   3.326   3.251
86277W        W45538   4.267  29.537  12.425
86278W        W45539  16.805  19.661  11.551
86279W        W45540  44.870  17.724  12.899
86280W        W45541  15.101  16.725  14.461
86281W        W45542  16.752  34.593  11.869
86282W        W45543  21.704  10.690  11.897
86283W        W45544  14.294  13.264  10.606
86284W        W45545  25.101  26.131  13.388
86285W        W45546  22.038  17.624   2.849
86286W        W45547  26.548   1.810  12.473
86287W        W45548  39.523  35.460  13.509
86288W        W45549  30.591  18.755  11.106
86289W        W45550  39.429  22.529   0.810
86290W        W45551  23.659  14.772  13.382
86291W        W45552   6.694  26.650  13.412
86292W        W45553   4.359  16.811   2.736
86293W        W45554  37.540  11.191   3.200
86294W        W45555  10.370  37.361   4.704
86295W        W45556  10.232  14.307   1.905
86296W        W45557   9.318  36.476  14.903
86297W        W45558  43.360  31.971   1.697
86298W        W45559   7.404  38.361   2.839
86299W        W45560  25.619  18.195   4.257
86300W        W45561  11.804  42.520  10.461
86301W        W45562   0.449   4.809   4.827
86302W        W45563  42.019  29.500  13.990
86303W        W45564   8.217  16.580  12.425
86304W        W45565  30.630  42.961   4.209
86305W        W45566  20.742  41.960   0.851
86306W        W45567   6.390  35.545   3.743
86307W        W45568  20.085  16.645   1.383
86308W        W45569  21.564  30.478   1.356
86309W        W45570   5.847   3.948   0.883
86310W        W45571  14.826  28.027  14.501
86311W        W45572  30.941   0.901  10.542
86312W        W45573  16.295  14.737   2.793
86313W        W45574  43.294  39.002  13.834
86314W        W45575  30.583  26.155   0.442
86315W        W45576  30.587  40.371   2.256
86316W        W45577  10.766  23.615  13.008
86317W        W45578  17.141   1.392  14.868
86318W        W45579  40.433   9.849  13.472
86319W        W45580  10.359  27.071   4.147
86320W        W45581  15.192  21.609   4.691
86321W        W45582   2.948  44.823   4.828
86322W        W45583  16.119  20.729  11.975
86323W        W45584  40.865  37.982  12.846
86324W        W45585  15.588   9.268   1.434
86325W        W45586  29.005  43.002   2.810
86326W        W45587   9.756  36.006  13.474
86327W        W45588  30.614  42.302  13.053
86328W        W45589  11.820  38.374   0.323
86329W        W45590   9.341  24.007  12.554
86330W        W45591   0.785   6.326   4.203
86331W        W45592  37.905  36.554   4.313
86332W        W45593  34.465  22.722   1.715
86333W        W45594  16.135  24.220  12.018
86334W        W45595   4.933  23.147   2.268
86335W        W45596  24.027  13.216   0.754
86336W        W45597  12.299  17.115   4.320
86337W        W45598  10.220  12.804   4.134
86338W        W45599  23.191  27.575   0.455
86339W        W45600  11.252   6.244  13.893
86340W        W45601   2.381  41.305  13.436
86341W        W45602  20.744  37.038   0.360
86342W        W45603  19.184   6.252  14.869
86343W        W45604   7.677  15.328   3.773
86344W        W45605  19.091  36.504  14.925
86345W        W45606  13.135  36.869  12.510
86346W        W45607  11.201  44.984   0.246
86347W        W45608   5.436   4.379   2.182
86348W        W45609  17.603  13.683   3.262
86349W        W45610  36.475  43.463   0.817
86350W        W45611  35.519  39.050   3.355
86351W        W45612  19.660  38.982   4.795
86352W        W45613  42.366   1.442  14.010
86353W        W45614   8.802  24.168   2.814
86354W        W45615   7.708  29.549  11.553
86355W        W45616  20.688  36.925   3.632
86356W        W45617  25.189  35.088   3.186
86357W        W45618  32.505  27.175  12.578
86358W        W45619  10.157   7.668   3.181
86359W        W45620  40.994   8.406   3.386
86360W        W45621  15.655  19.594   3.354
86361W        W45622   5.919  39.887   1.448
86362W        W45623  26.083   4.923  14.515
86363W        W45624  23.516  36.501  11.467
86364W        W45625  33.032  40.049   3.719
86365W        W45626  18.225  20.727  10.952
86366W        W45627  21.263  44.804   4.218
86367W        W45628  37.967  43.916  10.898
86368W        W45629  13.698   1.284  10.573
86369W        W45630  11.263  20.037   2.720
86370W        W45631  41.798   1.792   4.622
86371W        W45632  39.510   2.286   1.752
86372W        W45633  13.154  41.884   4.176
86373W        W45634  17.721  34.954  11.493
86374W        W45635  27.054   5.816  11.572
86375W        W45636   0.446  39.466  10.907
86376W        W45637   8.778  38.011   1.790
86377W        W45638  28.006  35.024  13.989
86378W        W45639  20.634  14.304  13.790
86379W        W45640  37.417  13.224   1.764
86380W        W45641  16.096  16.772  10.478
86381W        W45642  20.600   9.643  14.364
86382W        W45643  18.763  15.671  11.060
86383W        W45644  24.142  15.586   2.299
86384W        W45645   4.790  39.028   5.153
86385W        W45646  12.641   4.315  12.061
86386W        W45647   0.766   4.430  13.443
86387W        W45648  42.933  41.345   1.315
86388W        W45649  31.428  38.480   1.722
86389W        W45650  14.148   9.160  12.930
86390W        W45651  10.778  30.148  10.618
86391W        W45652  29.525  32.624  12.834
86392W        W45653  24.704  34.438   0.827
86393W        W45654  31.455  37.364   1.732
86394W        W45655  17.788  15.236  13.864
86395W        W45656  13.846   3.818   1.214
86396W        W45657  20.749   6.788  13.422
86397W        W45658  27.979  12.739  12.040
86398W        W45659  40.477  24.659  14.890
86399W        W45660   6.763  23.518   3.298
86400W        W45661  24.596  12.846  10.978
86401W        W45662  12.243  39.898  10.958
86402W        W45663  23.662  37.377  11.577
86403W        W45664  30.989  22.074   1.248
86404W        W45665  41.533  34.066  13.942
86405W        W45666   8.719  27.192   2.822
86406W        W45667   1.367  21.612   3.778
86407W        W45668   2.335   7.210  14.956
86408W        W45669  43.479  32.594  12.405
86409W        W45670  18.288  38.563   3.826
86410W        W45671  17.708  13.806   3.755
86411W        W45672  13.167  15.659  14.949
86412W        W45673  24.602  27.986  13.338
86413W        W45674  16.738   3.764  14.887
86414W        W45675  35.025  33.035  10.897
86415W        W45676  22.689  25.196   1.883
86416W        W45677  37.455   4.708  11.966
86417W        W45678  19.535  29.108  10.082
86418W        W45679   1.354  28.941   1.912
86419W        W45680  25.688  30.432  14.291
86420W        W45681  26.568  30.601  11.932
86421W        W45682  41.326  21.099   9.952
86422W        W45683   6.298  25.521   3.633
86423W        W45684   6.911  35.090  12.524
86424W        W45685  38.886  21.601   5.271
86425W        W45686  41.475  35.376  11.061
86426W        W45687  20.753  35.901   1.213
86427W        W45688  11.172  31.050  11.954
86428W        W45689  28.627  32.598   3.380
86429W        W45690  25.139  16.176  14.946
86430W        W45691   0.926   5.849  13.852
86431W        W45692  30.464  33.561  10.996
86432W        W45693  34.921  39.372   3.265
86433W        W45694  14.176  12.626  12.557
86434W        W45695  44.790  30.590   3.753
86435W        W45696  24.022  34.110   5.219
86436W        W45697  22.635  20.101   1.292
86437W        W45698  22.191  43.452  14.941
86438W        W45699  40.987  29.494  11.460
86439W        W45700  27.570  13.157   4.168
86440W        W45701  33.063  28.980  14.815
86441W        W45702  44.301  29.174   2.717
86442W        W45703   8.684  13.709   4.341
86443W        W45704   1.890   7.676  14.412
86444W        W45705  22.221   3.323  10.958
86445W        W45706   7.858   0.897   2.735
86446W        W45707  10.305  34.609   0.799
86447W        W45708  19.225  14.657  10.964
86448W        W45709  25.038  40.523  11.549
86449W        W45710  40.314  33.093   1.268
86450W        W45711   9.871  15.128   0.288
86451W        W45712  44.398  23.221  14.302
86452W        W45713  20.592  42.917   3.231
86453W        W45714   7.850  35.485   2.667
86454W        W45715  41.432   2.928   4.800
86455W        W45716   9.676   1.349   4.803
86456W        W45717   0.425   1.428   1.249
86457W        W45718  13.121  12.320  13.487
86458W        W45719  15.112  39.424   2.780
86459W        W45720  21.147  41.357   4.711
86460W        W45721  14.705  11.342  12.860
86461W        W45722  22.649  16.765  12.485
86462W        W45723  36.399  44.357   2.321
86463W        W45724  37.058  42.813   4.249
86464W        W45725   2.436  39.029  13.338
86465W        W45726  16.643  43.986  13.499
86466W        W45727  11.862  24.041  10.947
86467W        W45728  44.416  13.265  10.412
86468W        W45729   9.353  35.471   4.153
86469W        W45730  29.498   4.323  12.896
86470W        W45731  20.660  17.580  11.108
86471W        W45732  35.103  28.468  11.478
86472W        W45733  38.892  21.626  14.859
86473W        W45734  40.480  42.010   3.731
86474W        W45735  31.549  25.489  13.877
86475W        W45736  42.502  40.983  10.562
86476W        W45737  42.331  10.165  14.778
86477W        W45738  31.606  23.597   1.772
86478W        W45739  42.307   2.866  13.804
86479W        W45740   2.957  21.720   2.750
86480W        W45741  29.006  22.712   3.714
86481W        W45742  21.518  25.217   3.151
86482W        W45743  42.418   5.425  11.994
86483W        W45744  21.104  23.172   0.454
86484W        W45745  26.504  24.009  11.611
86485W        W45746  23.610  23.180  11.503
86486W        W45747  23.537   0.975  13.369
86487W        W45748   4.348  26.624   4.805
86488W        W45749  31.931   5.812  10.058
86489W        W45750   9.366   5.296  14.950
86490W        W45751  29.040  29.546   2.722
86491W        W45752  17.117  13.767  11.583
86492W        W45753  19.163  28.082   0.905
86493W        W45754  26.567  21.203  11.497
86494W        W45755  28.953  40.852   2.891
86495W        W45756  26.196  18.576   3.792
86496W        W45757  38.831  29.043  12.491
86497W        W45758  11.264   6.717   0.951
86498W        W45759  34.913   9.163  12.387
86499W        W45760  38.348  10.753   3.194
86500W        W45761   8.816  34.502   2.886
86501W        W45762  36.906  11.237   4.624
86502W        W45763  41.402  13.605  12.448
86503W        W45764  36.395  44.914  13.533
86504W        W45765  39.921  23.523   0.857
86505W        W45766  34.882  22.608   4.135
86506W        W45767  29.522  42.997   3.699
86507W        W45768  42.852   9.260   1.403
86508W        W45769   5.834   4.326   0.761
86509W        W45770  30.046   2.268  14.779
86510W        W45771   3.386  15.683  14.904
86511W        W45772  22.656  24.603   3.330
86512W        W45773  22.080  38.883   2.704
86513W        W45774  20.250   8.767   3.260
86514W        W45775  14.295   6.876  10.594
86515W        W45776  35.504  27.149   3.360
86516W        W45777  12.260   7.715  11.109
86517W        W45778  23.670  11.270  11.888
86518W        W45779  11.160  27.679  12.414
86519W        W45780   4.221   9.657  11.575
86520W        W45781  14.263  31.999   2.877
86521W        W45782  27.543   6.702  11.126
86522W        W45783  42.814  30.084   4.255
86523W        W45784  28.010  18.110  11.088
86524W        W45785  11.240   5.823   0.300
86525W        W45786  20.029   5.772  12.003
86526W        W45787  21.182  41.834   3.721
86527W        W45788  17.664  13.739   2.708
86528W        W45789   4.250  11.244  13.821
86529W        W45790  23.653  15.755   3.704
86530W        W45791  39.020  12.162   0.446
86531W        W45792   1.862  26.592  12.057
86532W        W45793  10.664  42.944  11.084
86533W        W45794  21.261   6.249   0.803
86534W        W45795  32.966  39.366   2.206
86535W        W45796   3.795  12.267  14.325
86536W        W45797  13.644  24.607   1.885
86537W        W45798  30.633  43.439  12.407
86538W        W45799   3.800  21.544  11.947
86539W        W45800   4.759  19.550   1.402
86540W        W45801  40.024  42.788   3.350
86541W        W45802  35.359  21.128   4.660
86542W        W45803  31.951  29.646  11.428
86543W        W45804   0.923   0.778   0.469
86544W        W45805  11.161  21.051   1.750
86545W        W45806  44.480  22.504  11.071
86546W        W45807  11.709   1.403   4.838
86547W        W45808  36.459   5.924   4.192
86548W        W45809   1.754  37.551  11.551
86549W        W45810  37.574  19.114  11.504
86550W        W45811  29.152  38.515  10.457
86551W        W45812  43.938   1.469   0.854
86552W        W45813  27.189  40.373  13.332
86553W        W45814  10.335  44.359   0.336
86554W        W45815   0.898  12.253  14.492
86555W        W45816   3.739  27.576  12.863
86556W        W45817  31.076  23.192  13.844
86557W        W45818  21.677   9.244   1.857
86558W        W45819  23.621  38.023  12.898
86559W        W45820  35.953  15.716  13.953
86560W        W45821  15.684  39.943   1.896
86561W        W45822  37.931  13.297   3.780
86562W        W45823  40.496  38.042  11.862
86563W        W45824  35.575   1.803   0.396
86564W        W45825  22.743  30.038   3.297
86565W        W45826   8.298  28.456  14.366
86566W        W45827   9.828  11.780  11.880
86567W        W45828  43.929  18.220  13.058
86568W        W45829  34.073  36.064  11.958
86569W        W45830  15.111  33.920  12.551
86570W        W45831  41.313   2.753  12.468
86571W        W45832  17.186   4.732  12.545
86572W        W45833   8.897   4.386  13.530
86573W        W45834  38.338  44.354   1.885
86574W        W45835  10.375  43.443  12.529
86575W        W45836   1.946   6.895  10.558
86576W        W45837  19.681   4.854  11.020
86577W        W45838  34.570  10.755  13.030
86578W        W45839  41.304  16.215   3.821
86579W        W45840  37.413  12.168  14.412
86580W        W45841  37.405  34.035  12.077
86581W        W45842  30.144  12.628  10.641
86582W        W45843  22.719  31.525   4.664
86583W        W45844   1.336  36.508  11.397
86584W        W45845   5.281  35.581   0.269
86585W        W45846  25.654  38.365  10.630
86586W        W45847  19.623  32.895   3.853
86587W        W45848  25.524  44.830   2.679
86588W        W45849  41.489  28.134   4.159
86589W        W45850  43.780  10.203  10.440
86590W        W45851  44.293  20.181  12.523
86591W        W45852   7.401  11.786  10.409
86592W        W45853  36.081   6.822   0.815
86593W        W45854  26.486  23.545  14.807
86594W        W45855  21.755  31.035  10.511
86595W        W45856  33.888  43.304   2.345
86596W        W45857  23.579  41.536  12.049
86597W        W45858  39.521  40.397  11.541
86598W        W45859  19.116   3.249   2.816
86599W        W45860  18.549   8.804  13.364
86600W        W45861   8.314  28.113  13.835
86601W        W45862  12.830  26.180   1.221
86602W        W45863   4.332  27.033  11.587
86603W        W45864  44.404  24.105   2.354
86604W        W45865  40.046  26.667  14.315
86605W        W45866  39.342  13.767  14.794
86606W        W45867  37.016   6.825  14.340
86607W        W45868  23.116  19.689  11.019
86608W        W45869  22.536  35.894   1.768
86609W        W45870  22.218   6.842  12.855
86610W        W45871   1.960   9.332   4.275
86611W        W45872  33.947  12.318   1.213
86612W        W45873  41.438   0.963  10.512
86613W        W45874   5.786  36.475  12.060
86614W        W45875  26.597  15.252   4.323
86615W        W45876   3.356   1.465   1.266
86616W        W45877  10.673   8.302   0.300
86617W        W45878  13.617  42.877   3.758
86618W        W45879  26.480   4.858   5.285
86619W        W45880  43.889  24.486  14.389
86620W        W45881  19.265  27.616  12.012
86621W        W45882  40.807  17.148  14.004
86622W        W45883  12.289  35.482  10.454
86623W        W45884  14.152  10.305  13.051
86624W        W45885  21.574  16.690  10.953
86625W        W45886  28.658  30.943  12.512
86626W        W45887  36.920   4.854  10.548
86627W        W45888  29.552  17.076  11.127
86628W        W45889  23.723  42.382  12.020
86629W        W45890  44.807  40.395   0.466
86630W        W45891  11.864  38.563   3.740
86631W        W45892  16.589   5.432  12.051
86632W        W45893  34.086  11.766   3.870
86633W        W45894   0.900  25.631  11.478
86634W        W45895  42.957  44.877  14.936
86635W        W45896  34.059  28.127  10.920
86636W        W45897  12.178   4.806   2.822
86637W        W45898   8.276  19.776   3.326
86638W        W45899   2.740  39.825  14.977
86639W        W45900  16.136   7.724  11.519
86640W        W45901  25.662  29.924   2.330
86641W        W45902  42.444  38.919  13.318
86642W        W45903   9.691  42.318   0.257
86643W        W45904  27.550   4.222  13.060
86644W        W45905  37.511  38.504   3.243
86645W        W45906  25.053   3.746   4.143
86646W        W45907  21.569  21.748   1.912
86647W        W45908  37.951  21.734   2.306
86648W        W45909  35.521  30.963   4.241
86649W        W45910  21.121   8.820  11.104
86650W        W45911  12.214   6.410  14.002
86651W        W45912  20.561  35.915   3.279
86652W        W45913  33.402  28.016   0.945
86653W        W45914  35.878  28.057  14.514
86654W        W45915  33.975   2.897  13.010
86655W        W45916  13.735   0.872  14.516
86656W        W45917  19.609   1.302   3.279
86657W        W45918   6.264   8.807  10.008
86658W        W45919   8.228  13.163   3.824
86659W        W45920  30.650  27.523  13.058
86660W        W45921  26.517   2.844  13.987
86661W        W45922  30.581  25.175   1.917
86662W        W45923   2.432  19.551   1.419
86663W        W45924  33.985  27.502   2.773
86664W        W45925   5.782  20.141  12.453
86665W        W45926  39.349  22.677  12.928
86666W        W45927  44.475   5.244   1.817
86667W        W45928   7.750   4.217   5.306
86668W        W45929  28.492  23.623  13.062
86669W        W45930  34.605  16.684  14.849
86670W        W45931   4.418  30.114  12.045
86671W        W45932  35.890  21.586   4.789
86672W        W45933  10.201   3.877   3.260
86673W        W45934  14.751  37.873  13.018
86674W        W45935   0.889  40.884   1.829
86675W        W45936  14.612  19.551  13.417
86676W        W45937  26.141  37.936   1.754
86677W        W45938  20.553  27.102   3.194
86678W        W45939  17.254  22.517   2.683
86679W        W45940   5.302  11.791  14.407
86680W        W45941  12.793  10.376  14.325
86681W        W45942  16.183   9.150   4.305
86682W        W45943  26.008  25.203  11.522
86683W        W45944   2.361  44.932   2.680
86684W        W45945  12.318  29.606   1.894
86685W        W45946  35.025  13.803  14.441
86686W        W45947  23.191   2.901  13.464
86687W        W45948  37.524  28.497  13.344
86688W        W45949  20.766  11.325  12.503
86689W        W45950  30.058  13.316   0.257
86690W        W45951   6.711   2.277  10.565
86691W        W45952  43.285  11.231   2.337
86692W        W45953   2.938  21.647   1.792
86693W        W45954  13.612  20.608  12.504
86694W        W45955   7.293   4.313  12.081
86695W        W45956   8.204  32.549  11.528
86696W        W45957  13.677  43.862   2.314
86697W        W45958  42.342   7.234  10.534
86698W        W45959  40.340   5.431   1.306
86699W        W45960   7.752   2.907   0.914
86700W        W45961  10.636  37.337   3.150
86701W        W45962   2.895  32.531   3.356
86702W        W45963  37.579  22.056  14.982
86703W        W45964  29.556  20.700  11.454
86704W        W45965  30.493  41.359   4.159
86705W        W45966  44.826  16.226   4.303
86706W        W45967  16.212  17.707   4.622
86707W        W45968  30.107  10.669   1.841
86708W        W45969  19.611  19.062   2.181
86709W        W45970  29.047  27.141  10.630
86710W        W45971  42.969  20.684   2.187
86711W        W45972  31.624  13.123  14.802
86712W        W45973  24.190  24.984   1.220
86713W        W45974  26.571  35.078   2.357
86714W        W45975  33.442  41.445  12.826
86715W        W45976   4.795  24.563  14.949
86716W        W45977  33.437  44.005  14.906
86717W        W45978  29.082  26.511   4.797
86718W        W45979   7.732  18.073  12.837
86719W        W45980  11.771   2.954  11.059
86720W        W45981  29.449  37.438  10.989
86721W        W45982   4.904   2.286   3.689
86722W        W45983  36.364  23.227   4.752
86723W        W45984  28.461   5.918   3.362
86724W        W45985  14.313  36.505   1.264
86725W        W45986  35.039   5.194   4.788
86726W        W45987   5.381  33.950   0.244
86727W        W45988  43.277   0.860  13.355
86728W        W45989   9.203  13.775   0.967
86729W        W45990  11.163   7.876   3.684
86730W        W45991  36.079  27.525  12.479
86731W        W45992  42.492   6.914   2.726
86732W        W45993  22.080  24.712  11.112
86733W        W45994  12.795  32.553   3.709
86734W        W45995  19.179  36.996   3.707
86735W        W45996  17.086  18.776  13.486
86736W        W45997  39.392  12.305   1.256
86737W        W45998   8.809  15.731   3.645
86738W        W45999  10.309  12.842   2.729
86739W        W46000  18.619  20.536   2.692
86740W        W46001  35.857  43.786  11.052
86741W        W46002   8.306  35.070  10.601
86742W        W46003  36.448  33.918  14.829
86743W        W46004  37.454  31.975   3.837
86744W        W46005   3.340  28.504  14.390
86745W        W46006  16.129   6.243   0.288
86746W        W46007  40.434  35.008   0.311
86747W        W46008  30.126  19.767   4.629
86748W        W46009  43.928   6.407  10.640
86749W        W46010   5.267  12.282  11.064
86750W        W46011  34.409  10.855   3.809
86751W        W46012  26.635  33.385   0.733
86752W        W46013  36.047  42.022   3.190
86753W        W46014  41.471  40.355  12.519
86754W        W46015  39.925  20.721   1.700
86755W        W46016  30.973  37.896  14.006
86756W        W46017   6.303  42.376   2.665
86757W        W46018  37.436  11.717  11.533
86758W        W46019  26.573  17.184   4.678
86759W        W46020  34.959  22.622   3.317
86760W        W46021  22.118  36.379  14.895
86761W        W46022  29.529  19.221  11.499
86762W        W46023   5.283  39.913   2.895
86763W        W46024  27.654   5.722   4.157
86764W        W46025  40.048  31.942   4.141
86765W        W46026  33.919  22.139   4.804
86766W        W46027  16.111  15.193  13.951
86767W        W46028   5.199  12.304   0.782
86768W        W46029   0.482   2.842   0.917
86769W        W46030  14.698  42.432   0.462
86770W        W46031  14.336  38.069   0.478
86771W        W46032  37.477  12.824  11.862
86772W        W46033  13.309  35.997  10.952
86773W        W46034  43.386  41.511  12.469
86774W        W46035   1.388  38.925   1.359
86775W        W46036  40.509   0.429  14.022
86776W        W46037  21.123  12.116   2.355
86777W        W46038  39.932  37.450  12.842
86778W        W46039  38.475  26.551   2.827
86779W        W46040  39.869   7.362   0.747
86780W        W46041  39.500  24.697  12.947
86781W        W46042  28.171  43.337  11.431
86782W        W46043   3.894  30.501  10.126
86783W        W46044  25.546  35.003  11.890
86784W        W46045  12.158  19.636  12.077
86785W        W46046  36.354  30.503   3.367
86786W        W46047  14.148  38.504   0.760
86787W        W46048   2.883  25.095   0.250
86788W        W46049  12.356   9.835  12.877
86789W        W46050  38.049   8.374   1.414
86790W        W46051  17.688   7.219   2.766
86791W        W46052  44.808  38.344   2.290
86792W        W46053  14.232  37.031   2.236
86793W        W46054  24.506  37.541  10.580
86794W        W46055  24.607  13.826   1.347
86795W        W46056   4.787  21.538   1.226
86796W        W46057   6.252  12.219   4.605
86797W        W46058   6.730  22.559   4.313
86798W        W46059  31.548  19.204   3.776
86799W        W46060  13.771  34.048  14.924
86800W        W46061  30.480  37.394  14.933
86801W        W46062  41.943  38.988  11.098
86802W        W46063  41.017   1.909  14.813
86803W        W46064  39.507  41.906  14.032
86804W        W46065  37.344  34.043   2.673
86805W        W46066  19.052  15.203   1.446
86806W        W46067  24.592  39.339   3.164
86807W        W46068  22.207  14.660   3.241
86808W        W46069   8.295  40.046  10.934
86809W        W46070  42.284  13.845   1.263
86810W        W46071  29.075   5.398  13.871
86811W        W46072  36.533  24.050  10.502
86812W        W46073  16.613   1.947  14.450
86813W        W46074   3.454  20.637   0.363
86814W        W46075   8.350  39.963   1.384
86815W        W46076   6.805  29.920  12.361
86816W        W46077  30.990  41.907   0.276
86817W        W46078  31.538  37.377   5.156
86818W        W46079  17.066  11.288  13.430
86819W        W46080  36.035   1.855   1.900
86820W        W46081   9.330  23.060  12.359
86821W        W46082   1.256  16.568   3.221
86822W        W46083  23.585   2.855   2.188
86823W        W46084  25.151  27.573   2.332
86824W        W46085  37.964  22.509   2.250
86825W        W46086   3.803  18.125  11.397
86826W        W46087  24.007  11.244  10.623
86827W        W46088  30.023   2.353   1.226
86828W        W46089  19.086   2.460   3.296
86829W        W46090  24.209  16.680   2.815
86830W        W46091  14.644  20.546   3.802
86831W        W46092  12.131  29.165   3.701
86832W        W46093  37.024   6.201   3.787
86833W        W46094  16.270  14.293  13.513
86834W        W46095  40.894  33.529  10.523
86835W        W46096  19.775  35.010  11.559
86836W        W46097   7.290   8.208  12.532
86837W        W46098  10.202   4.896   4.355
86838W        W46099   8.842  25.500  11.070
86839W        W46100  34.120  36.514   3.190
86840W        W46101   4.365   0.866  11.995
86841W        W46102  21.544  10.876   1.867
86842W        W46103  40.825  37.962  11.012
86843W        W46104  29.630  24.702   2.888
86844W        W46105  44.285  13.301   5.109
86845W        W46106  17.245  20.188  14.400
86846W        W46107   0.373   8.398  13.433
86847W        W46108   2.870  13.622   3.291
86848W        W46109  12.619   3.397  11.071
86849W        W46110   7.193  30.095   2.830
86850W        W46111   1.240  21.060  12.081
86851W        W46112   6.913  39.845   0.942
86852W        W46113  40.458   7.399  11.420
86853W        W46114   7.258   2.439   0.958
86854W        W46115  16.801   8.300  11.425
86855W        W46116  30.474  38.441   3.722
86856W        W46117  22.221  39.476   3.372
86857W        W46118  34.982   5.718  13.450
86858W        W46119  18.602  20.037  11.990
86859W        W46120  32.610  23.142  11.868
86860W        W46121   4.839   3.239   3.301
86861W        W46122   9.727   4.794   5.176
86862W        W46123  25.087  20.675  10.436
86863W        W46124   3.410  43.892   0.289
86864W        W46125  35.403  33.622   3.724
86865W        W46126  18.606   6.811  13.523
86866W        W46127  16.101  15.637  11.940
86867W        W46128  16.190  43.455  14.807
86868W        W46129  13.823   6.224   0.881
86869W        W46130   6.362  35.002  12.412
86870W        W46131   6.347   7.402   1.731
86871W        W46132  35.552  19.048  12.549
86872W        W46133   3.423  42.898  11.016
86873W        W46134   9.324  20.695  10.597
86874W        W46135  25.086   1.249   0.817
86875W        W46136   9.674  44.356   0.392
86876W        W46137  10.167  13.629  11.911
86877W        W46138  37.955  36.423  13.462
86878W        W46139  42.313   8.776  11.556
86879W        W46140  41.509  37.907   2.780
86880W        W46141   1.801   0.761  13.861
86881W        W46142  25.210  15.577   0.751
86882W        W46143  42.878  13.333   2.309
86883W        W46144  22.573  23.679  10.121
86884W        W46145  15.084   8.886  13.376
86885W        W46146  36.061  25.066   0.965
86886W        W46147   5.192  12.133   4.790
86887W        W46148   4.311   7.698  13.961
86888W        W46149  37.936  21.717  12.044
86889W        W46150  14.656  24.562  14.990
86890W        W46151  33.497  29.455  10.543
86891W        W46152  20.158  34.560   4.231
86892W        W46153   2.772  38.860  14.014
86893W        W46154  30.133  16.293   3.768
86894W        W46155  38.354  35.109   1.802
86895W        W46156  37.835  38.344   4.672
86896W        W46157  36.972  37.935   0.803
86897W        W46158   9.661  30.916  13.794
86898W        W46159   0.959  28.027  14.810
86899W        W46160  31.902  17.576   5.248
86900W        W46161  21.107   2.782   1.437
86901W        W46162  44.857  42.883   2.677
86902W        W46163  24.021   7.255   4.803
86903W        W46164  36.533  18.563   1.802
86904W        W46165  28.077  34.915   4.702
86905W        W46166   8.319  14.687   4.280
86906W        W46167   7.714  35.389  11.106
86907W        W46168   6.267  12.788  11.593
86908W        W46169  36.542  23.539  12.498
86909W        W46170  28.540  43.980   3.369
86910W        W46171  24.162  18.184   3.657
86911W        W46172   5.294  26.551   1.760
86912W        W46173  36.012  40.844   4.767
86913W        W46174   0.436  39.887  12.955
86914W        W46175  36.076  36.359  12.395
86915W        W46176  30.489  22.087   3.162
86916W        W46177  36.899   3.810   0.925
86917W        W46178   4.223   9.163  12.830
86918W        W46179   2.352  23.142   1.382
86919W        W46180   1.931  35.086  12.945
86920W        W46181  44.963  32.997  14.376
86921W        W46182   1.767  43.348   4.618
86922W        W46183  29.669  19.177   0.894
86923W        W46184   7.280  29.613  13.387
86924W        W46185   4.260   4.391  12.969
86925W        W46186  38.479  35.385   2.798
86926W        W46187   5.752   2.414  14.806
86927W        W46188  41.302   1.860   4.348
86928W        W46189  33.465   9.786   0.462
86929W        W46190  38.493  35.521   4.813
86930W        W46191  37.386   5.926  12.012
86931W        W46192  28.600  29.655  10.602
86932W        W46193  19.256  41.886  10.503
86933W        W46194  26.597  20.762  12.999
86934W        W46195  29.134   1.391  10.418
86935W        W46196  12.192  16.294  11.907
86936W        W46197  33.532   3.948   4.660
86937W        W46198   0.353   0.379  13.996
86938W        W46199  28.637  25.674  12.492
86939W        W46200  43.878  11.858   4.147
86940W        W46201  13.128  39.981   0.274
86941W        W46202  38.954   3.451  14.031
86942W        W46203  22.610  17.573  12.385
86943W        W46204  44.388  15.586   1.281
86944W        W46205  14.290  28.153  14.318
86945W        W46206  22.666  26.997   0.290
86946W        W46207  20.560   9.766  13.532
86947W        W46208   2.375  37.523   4.709
86948W        W46209  31.984   7.668  14.504
86949W        W46210  41.518  30.429   2.332
86950W        W46211  11.854  32.092  11.873
86951W        W46212  32.404  13.327  12.390
86952W        W46213  25.504  24.077  13.364
86953W        W46214  25.186  25.016   1.290
86954W        W46215  15.622   9.161   3.700
86955W        W46216   6.709  30.146   0.408
86956W        W46217  37.833  21.120  10.594
86957W        W46218  39.556   0.326  10.917
86958W        W46219  41.461  22.209   5.172
86959W        W46220   7.226  30.952  12.050
86960W        W46221  44.275  33.045   4.289
86961W        W46222   4.257   0.914   0.319
86962W        W46223  33.063  39.856  14.974
86963W        W46224   7.307  43.765  13.459
86964W        W46225  15.191  29.666   2.358
86965W        W46226  42.400  37.416  12.486
86966W        W46227  34.368  44.950   2.795
86967W        W46228  15.683  41.419   3.664
86968W        W46229   0.891  28.062   1.716
86969W        W46230   2.837  24.027  12.445
86970W        W46231  38.986   8.869   0.786
86971W        W46232   6.884  22.072   2.895
86972W        W46233   9.679  10.699   0.345
86973W        W46234  29.625  17.103   5.240
86974W        W46235  19.758  43.348   2.803
86975W        W46236  11.138  29.987  14.506
86976W        W46237  26.994  11.210   2.791
86977W        W46238   7.229  16.290   0.835
86978W        W46239  12.178  30.085  10.895
86979W        W46240  13.263   2.263   1.834
86980W        W46241  38.379  40.367  14.306
86981W        W46242  15.632  14.202  10.457
86982W        W46243  42.890   1.264   3.855
86983W        W46244  36.413  40.868   1.699
86984W        W46245  26.009   4.432   2.716
86985W        W46246  19.755  28.659   4.783
86986W        W46247   5.771  42.929   4.773
86987W        W46248  36.070   9.328   4.742
86988W        W46249  16.721  23.633  14.882
86989W        W46250  40.314   4.810  10.445
86990W        W46251  12.795  33.519   2.861
86991W        W46252  26.121  24.640   2.868
86992W        W46253  37.403  36.956  13.957
86993W        W46254  34.060  37.990   2.791
86994W        W46255  18.078  18.105  13.851
86995W        W46256  27.066  26.206  11.936
86996W        W46257  11.241  27.669   4.611
86997W        W46258  36.907   6.790  10.918
86998W        W46259  22.668  20.667   1.415
86999W        W46260   6.751  39.883  10.610
87000W        W46261  18.705  35.992  13.339
87001W        W46262  30.627  25.035  10.888
87002W        W46263  27.620  37.046  14.995
87003W        W46264  15.723  12.637  12.502
87004W        W46265  17.134  16.566  14.336
87005W        W46266   9.230  16.775  11.451
87006W        W46267   2.867  31.487  10.443
87007W        W46268  41.489  22.632   3.686
87008W        W46269  15.262  29.075  12.946
87009W        W46270  34.529  24.086  11.915
87010W        W46271  11.829  10.839   2.338
87011W        W46272  22.995  20.260  12.006
87012W        W46273  26.601  33.414  10.063
87013W        W46274  19.081  42.975  11.523
87014W        W46275  16.272   0.853   0.949
87015W        W46276  30.931  25.562   0.907
87016W        W46277  33.903   7.696  13.917
87017W        W46278  34.977  13.176  10.469
87018W        W46279   0.746   3.263  10.988
87019W        W46280  30.920  35.489  10.982
87020W        W46281  23.985  14.211  10.542
87021W        W46282  22.505  30.553   5.245
87022W        W46283  26.978  10.181  14.350
87023W        W46284  27.577  29.115   1.251
87024W        W46285   8.245  28.004   2.341
87025W        W46286  12.218   1.418   2.673
87026W        W46287  41.971  14.309  13.482
87027W        W46288   4.939  33.967  10.567
87028W        W46289  16.794   2.854   0.909
87029W        W46290  32.927  13.769  13.861
87030W        W46291   1.852  41.020  11.569
87031W        W46292  41.388   4.762  14.355
87032W        W46293  19.646   6.339  11.861
87033W        W46294  24.169  28.537   4.243
87034W        W46295   2.402   4.248   2.195
87035W        W46296   9.293  42.857  14.919
87036W        W46297  21.150   5.315  13.951
87037W        W46298  20.170  36.911  12.861
87038W        W46299  13.179   6.754  13.018
87039W        W46300  35.468  19.129   3.179
87040W        W46301  22.057  34.528  14.766
87041W        W46302  12.260  20.111   0.726
87042W        W46303  25.591  42.927   4.346
87043W        W46304  19.728  32.610  13.997
87044W        W46305  25.963  40.850  13.474
87045W        W46306   7.879  42.847  13.045
87046W        W46307  36.364  17.684   1.930
87047W        W46308  11.140  39.391   2.721
87048W        W46309  43.475  32.995   3.297
87049W        W46310   6.251  31.141  13.497
87050W        W46311  24.024  34.021   4.638
87051W        W46312  11.356  18.671  13.002
87052W        W46313  17.779  12.817   0.795
87053W        W46314  12.215   6.828   4.712
87054W        W46315  38.959  39.430   0.248
87055W        W46316  30.518  20.138   2.761
87056W        W46317   8.362  28.623   4.322
87057W        W46318  28.084  41.961   0.923
87058W        W46319  16.308  35.889   0.762
87059W        W46320  22.664  41.463   1.364
87060W        W46321  23.594  13.701   4.771
87061W        W46322  14.672  21.172   4.192
87062W        W46323  43.897   3.313  14.975
87063W        W46324  34.548  11.234  12.856
87064W        W46325  40.451  15.643  11.565
87065W        W46326  15.793  20.530  14.967
87066W        W46327  22.009  11.816  10.590
87067W        W46328  11.317  16.792   1.427
87068W        W46329   9.835  10.674   2.409
87069W        W46330   0.271  22.066  10.546
87070W        W46331  31.913   2.736  13.901
87071W        W46332  16.098   4.339   0.763
87072W        W46333  12.284  41.994  10.582
87073W        W46334  22.162  42.027   3.337
87074W        W46335  23.010  13.111   3.160
87075W        W46336  41.371  35.967   5.092
87076W        W46337  19.620   0.359  13.037
87077W        W46338   3.260  31.997  10.581
87078W        W46339  11.702  37.446   1.709
87079W        W46340  28.174  43.516  13.010
87080W        W46341   0.773  18.238  13.486
87081W        W46342  33.949  35.474   2.702
87082W        W46343  34.958  14.246   4.646
87083W        W46344  31.134   2.376   3.152
87084W        W46345   9.214  19.184   1.306
87085W        W46346  36.459  25.043   1.215
87086W        W46347  16.689   7.368  11.409
87087W        W46348  20.104  38.031   3.214
87088W        W46349  13.832  18.655   4.598
87089W        W46350  12.199   3.754   0.916
87090W        W46351  24.687   3.391   1.366
87091W        W46352  38.350  21.205  13.495
87092W        W46353  39.991  37.507  12.084
87093W        W46354  18.051  24.585  13.520
87094W        W46355  17.133  12.852  12.341
87095W        W46356  10.264  22.039   2.750
87096W        W46357  21.215   8.194  10.623
87097W        W46358  25.164  34.607   2.892
87098W        W46359  13.617   5.727  13.902
87099W        W46360  44.492   7.696  11.878
87100W        W46361   6.397   8.785  11.937
87101W        W46362  17.294  13.255   1.697
87102W        W46363  10.696  26.630  13.041
87103W        W46364  43.012  18.586  13.430
87104W        W46365  32.409  10.350  11.918
87105W        W46366  31.617  14.704   4.654
87106W        W46367  27.090  12.629  11.066
87107W        W46368  12.137  17.684   0.276
87108W        W46369   1.462  23.589   4.765
87109W        W46370  41.494   7.208  10.930
87110W        W46371  23.999   1.441  12.066
87111W        W46372  32.587  41.322   5.175
87112W        W46373  21.562   2.789   3.361
87113W        W46374   1.791   8.856  13.953
87114W        W46375  34.923  26.986   3.337
87115W        W46376  43.938  26.079  11.120
87116W        W46377  26.143  25.156  14.409
87117W        W46378   1.763  24.196  11.950
87118W        W46379  35.514  30.598  11.072
87119W        W46380  30.615  38.844  13.057
87120W        W46381  24.498  15.796   4.156
87121W        W46382  12.758   7.248  10.570
87122W        W46383  24.122  29.105  12.887
87123W        W46384  18.286  40.354   2.276
87124W        W46385  13.607  18.067  14.475
87125W        W46386   9.226   7.862  12.073
87126W        W46387  20.676  22.512   3.827
87127W        W46388  29.476  44.301   2.759
87128W        W46389  29.162  14.751   0.879
87129W        W46390  27.549  41.500  12.484
87130W        W46391  39.362  40.877   4.313
87131W        W46392  37.361   4.866  14.017
87132W        W46393  28.044   3.933  13.514
87133W        W46394   0.330   2.254  13.826
87134W        W46395   0.747   7.907  11.971
87135W        W46396  37.073   4.787   4.227
87136W        W46397  28.071   5.250   2.823
87137W        W46398   4.939  24.186  10.899
87138W        W46399  26.203   3.767  13.361
87139W        W46400  19.083  33.887  14.879
87140W        W46401  24.227  44.391  12.868
87141W        W46402  27.603  14.154   0.834
87142W        W46403  40.897   9.798   1.794
87143W        W46404  13.168   3.235   4.810
87144W        W46405  38.910  14.810  12.037
87145W        W46406   0.381  12.352   3.146
87146W        W46407  20.588  20.757   4.787
87147W        W46408  13.200  17.293  11.036
87148W        W46409   9.796   9.206   3.225
87149W        W46410  11.730  40.447   4.729
87150W        W46411  16.280   1.963   3.760
87151W        W46412   3.273  36.411   4.170
87152W        W46413   1.299   1.444  12.916
87153W        W46414  20.118   0.811  13.428
87154W        W46415  24.996  22.657  10.514
87155W        W46416  44.438  15.151   1.736
87156W        W46417   2.855  30.134  14.327
87157W        W46418  15.624  16.722  13.825
87158W        W46419   2.786  16.282   4.643
87159W        W46420  21.206   1.825  14.487
87160W        W46421  17.569   2.376   4.769
87161W        W46422  20.665   7.670  14.856
87162W        W46423  23.055  18.139   4.203
87163W        W46424   2.963  24.724   2.788
87164W        W46425   0.479  33.621   4.666
87165W        W46426  11.216  28.054   4.172
87166W        W46427  22.526   5.783   1.442
87167W        W46428   1.295  29.948  10.523
87168W        W46429  41.034   0.957  12.469
87169W        W46430   1.481  33.395  14.288
87170W        W46431   2.333  23.069   4.752
87171W        W46432  38.928   4.714   2.405
87172W        W46433  35.876   5.225  13.013
87173W        W46434   3.251  34.099  12.516
87174W        W46435  10.675  26.150   0.405
87175W        W46436   9.177  13.225  10.423
87176W        W46437  26.103  37.470   2.855
87177W        W46438  15.683  26.150  12.455
87178W        W46439  29.642  13.150  14.378
87179W        W46440  42.314  16.776   2.703
87180W        W46441  13.169  41.923  13.928
87181W        W46442  42.836  33.604   2.256
87182W        W46443  19.274   2.785  11.086
87183W        W46444  37.071   9.212  14.328
87184W        W46445   8.289  28.611  11.881
87185W        W46446  33.105  32.890   2.845
87186W        W46447  36.457   2.800   1.402
87187W        W46448  29.973   2.816  14.294
87188W        W46449   2.439  41.522   4.719
87189W        W46450  25.109  38.367  13.803
87190W        W46451   9.846   1.915   2.278
87191W        W46452  24.227  36.068  14.302
87192W        W46453  37.402  16.619   4.762
87193W        W46454  17.670  24.149  13.840
87194W        W46455  16.291  18.699   4.651
87195W        W46456   3.795  40.377  14.440
87196W        W46457  41.534  42.939  13.548
87197W        W46458   9.200  16.587   4.659
87198W        W46459  26.156   4.801  10.918
87199W        W46460  44.491  11.342  14.827
87200W        W46461  11.726   8.712  11.518
87201W        W46462  43.373  44.986  14.295
87202W        W46463  36.906  35.883   1.343
87203W        W46464   5.713  24.664   2.808
87204W        W46465   2.953   0.827   4.233
87205W        W46466  30.591  33.959  12.877
87206W        W46467  42.899  43.814   3.871
87207W        W46468  40.366  44.424   4.627
87208W        W46469  30.437  11.348   4.814
87209W        W46470  39.421  32.601   1.799
87210W        W46471  36.001  40.438   0.836
87211W        W46472  38.434   9.652  10.581
87212W        W46473  30.000  22.545  10.890
87213W        W46474  27.191   7.739   2.752
87214W        W46475  19.677  13.190   4.808
87215W        W46476  19.690  33.546  11.496
87216W        W46477   3.433  27.641   1.355
87217W        W46478  16.178  33.402   0.914
87218W        W46479   8.771  22.538  10.573
87219W        W46480  38.915  14.683   1.702
87220W        W46481   8.347   7.716   2.749
87221W        W46482  21.556  28.543  14.376
87222W        W46483  39.470   6.416  10.979
87223W        W46484  15.167  13.749  11.127
87224W        W46485  14.779  14.699   2.833
87225W        W46486  19.283   3.329  10.905
87226W        W46487   1.237  33.899  11.922
87227W        W46488  41.974   8.317  13.335
87228W        W46489  12.765  13.153  10.464
87229W        W46490  36.878   1.324   3.744
87230W        W46491  37.490  10.347   9.576
87231W        W46492  23.174  12.660   2.825
87232W        W46493  29.471  10.168   2.837
87233W        W46494  26.089  33.456   4.280
87234W        W46495  43.311  21.525   2.693
87235W        W46496   5.706  40.476  10.586
87236W        W46497  28.531  31.134   1.930
87237W        W46498  12.811  16.727  12.461
87238W        W46499  17.200   1.257  12.536
87239W        W46500   2.257  39.408  11.117
87240W        W46501  11.226  16.302   4.282
87241W        W46502   6.388  23.584   4.227
87242W        W46503  26.461  18.715  14.808
87243W        W46504  21.072  36.007   3.281
87244W        W46505  13.651  11.709   3.179
87245W        W46506   0.274  38.335   0.884
87246W        W46507  24.718  25.191   1.374
87247W        W46508  34.543  36.527   3.808
87248W        W46509  19.258  16.237  10.109
87249W        W46510   5.297  18.651  11.584
87250W        W46511   5.380  37.559  10.039
87251W        W46512  35.001  16.282   3.737
87252W        W46513   3.776  22.124   1.432
87253W        W46514  39.879  24.495   1.909
87254W        W46515   7.230   1.294   4.307
87255W        W46516   9.314  14.659  12.878
87256W        W46517  17.178  27.083   1.423
87257W        W46518   1.810  21.184   2.680
87258W        W46519   5.207  11.298  10.535
87259W        W46520  18.192  17.201  11.922
87260W        W46521  44.375  19.728   2.760
87261W        W46522  30.432  32.415   2.739
87262W        W46523   5.796  44.382   2.760
87263W        W46524   8.668  14.667   1.346
87264W        W46525   8.745  22.676  14.475
87265W        W46526  34.414   4.711  13.434
87266W        W46527  23.178  25.537   0.338
87267W        W46528   5.754  28.088  12.472
87268W        W46529  23.142  13.733  12.924
87269W        W46530  42.941   5.743   2.759
87270W        W46531   1.369  42.809  12.994
87271W        W46532  25.071  27.478  10.617
87272W        W46533  10.178  35.920  10.558
87273W        W46534  24.659  21.170  13.030
87274W        W46535  30.457   1.925  11.902
87275W        W46536  39.509  26.467  12.411
87276W        W46537  24.177  27.665   1.857
87277W        W46538  29.950  29.932  11.123
87278W        W46539  18.747   7.677   2.838
87279W        W46540   3.291  24.678   3.315
87280W        W46541  41.954  28.623  13.402
87281W        W46542  17.150  23.500  13.939
87282W        W46543  31.041  31.642   0.904
87283W        W46544  21.596   3.293   5.146
87284W        W46545  44.337   5.390   0.417
87285W        W46546  21.217  33.534  14.828
87286W        W46547   4.422  20.698   0.299
87287W        W46548  24.512  17.188   4.824
87288W        W46549   2.411   5.235   3.768
87289W        W46550  25.482  34.368   0.935
87290W        W46551  36.590  36.464   1.448
87291W        W46552  19.654  19.280  11.060
87292W        W46553  30.084  36.432  11.400
87293W        W46554  41.833  30.044  12.546
87294W        W46555  35.557   6.765  12.006
87295W        W46556  42.015  11.183  14.496
87296W        W46557   6.850  24.086  12.864
87297W        W46558  16.152   9.298  14.758
87298W        W46559   3.334  19.133  13.498
87299W        W46560   9.699  10.690  13.054
87300W        W46561  41.810  16.581   3.652
87301W        W46562  18.561  28.170   2.768
87302W        W46563   9.372   1.867   0.462
87303W        W46564   7.229  41.366  14.311
87304W        W46565   4.832  17.094   3.160
87305W        W46566  32.886  39.482  11.045
87306W        W46567  39.034  24.176   1.798
87307W        W46568  20.220  30.050  13.386
87308W        W46569  17.298  10.692  12.355
87309W        W46570  35.542  32.481   1.375
87310W        W46571  36.071   8.370  13.419
87311W        W46572  16.157  20.554   3.260
87312W        W46573   0.295  26.504   1.742
87313W        W46574  28.555  27.595   4.765
87314W        W46575  20.549  33.574  12.348
87315W        W46576  16.173  40.468  13.979
87316W        W46577  23.692  29.475  11.008
87317W        W46578  29.471   9.226   0.848
87318W        W46579  30.119  28.555  14.921
87319W        W46580  30.649  25.133   4.171
87320W        W46581  26.052   3.886  11.603
87321W        W46582  42.029  19.667  10.526
87322W        W46583  40.336  13.751  13.798
87323W        W46584  44.377  17.064   5.227
87324W        W46585  17.598  38.877   9.995
87325W        W46586   1.346  24.533   4.822
87326W        W46587  11.329  12.673  14.418
87327W        W46588   9.287  17.206   0.387
87328W        W46589   3.848   7.361   4.786
87329W        W46590  33.532  33.417   4.290
87330W        W46591  39.922   0.769  12.913
87331W        W46592  39.921  30.562  11.497
87332W        W46593  12.765  26.114   4.330
87333W        W46594  36.498   7.405  15.000
87334W        W46595  22.521  18.053  12.848
87335W        W46596   7.306   0.302   4.189
87336W        W46597   8.218  13.146  12.465
87337W        W46598  16.198   5.813  13.340
87338W        W46599  39.494   5.256   0.471
87339W        W46600  10.725  13.159   1.748
87340W        W46601  16.682  35.555   4.731
87341W        W46602  25.168  42.319   4.132
87342W        W46603  27.183  26.509  14.286
87343W        W46604  44.910  23.662   3.741
87344W        W46605  35.480  36.593  14.852
87345W        W46606  26.194  43.867  11.396
87346W        W46607  39.392  34.611  12.996
87347W        W46608   7.372  41.394  11.986
87348W        W46609  37.010  14.665   1.226
87349W        W46610  25.029   8.272  12.887
87350W        W46611  40.836  44.938   1.900
87351W        W46612  35.403  23.565  12.571
87352W        W46613  10.822  37.979   1.757
87353W        W46614  17.170  10.368   3.853
87354W        W46615  18.156  42.427  13.018
87355W        W46616  11.286  38.376  14.968
87356W        W46617  20.186  35.514   4.612
87357W        W46618   5.229   6.841  12.353
87358W        W46619  18.758  24.087   3.634
87359W        W46620  18.240  39.836  12.838
87360W        W46621  22.591   3.307   5.180
87361W        W46622  31.421   7.771   2.734
87362W        W46623  39.991  36.354   1.756
87363W        W46624  23.733  10.242   4.654
87364W        W46625   5.834   4.221  11.094
87365W        W46626   2.248  34.937   1.731
87366W        W46627  28.492  12.653  12.948
87367W        W46628  15.201  27.690  12.466
87368W        W46629  40.891  13.769  14.808
87369W        W46630   4.725  19.279  12.481
87370W        W46631  37.086  38.967   1.427
87371W        W46632   9.160  27.469   4.119
87372W        W46633  19.565  41.826   4.695
87373W        W46634  21.683   9.840   1.729
87374W        W46635  44.901  40.305  12.033
87375W        W46636  23.137   3.830  13.488
87376W        W46637  41.428  27.979  13.946
87377W        W46638  43.407  24.632  10.430
87378W        W46639  27.101  43.875   3.216
87379W        W46640  39.413  37.081   4.760
87380W        W46641  17.074   7.248  13.003
87381W        W46642  32.568  34.516   2.397
87382W        W46643   3.392  13.630  13.954
87383W        W46644  36.379  26.532   1.902
87384W        W46645  32.534   1.247   1.305
87385W        W46646  42.458  37.581  10.531
87386W        W46647  10.863  34.440  14.480
87387W        W46648  24.012  16.297  11.517
87388W        W46649  20.181  40.540  14.277
87389W        W46650  12.791  20.071  10.634
87390W        W46651  44.273  38.460  14.449
87391W        W46652  26.988  14.794   3.249
87392W        W46653   5.738  23.715  12.067
87393W        W46654   2.350  40.872  13.920
87394W        W46655  14.260  22.080   3.386
87395W        W46656   9.249  42.942   2.862
87396W        W46657  21.549  18.601   5.736
87397W        W46658  44.371  29.161  14.448
87398W        W46659  19.176  34.983  14.009
87399W        W46660  20.046  43.965  12.394
87400W        W46661  28.619  29.639   1.213
87401W        W46662  10.727   7.725   9.477
87402W        W46663   0.384  19.703   1.364
87403W        W46664   5.417   6.361  13.339
87404W        W46665  38.048  37.558   0.828
87405W        W46666  14.645  41.481   0.333
87406W        W46667   0.330  43.946  14.468
87407W        W46668  22.013   9.363   0.855
87408W        W46669  34.608  34.003  14.494
87409W        W46670  27.458   5.377  13.929
87410W        W46671  14.686   1.395   4.117
87411W        W46672  21.042  40.016  13.828
87412W        W46673  26.580  37.555  14.854
87413W        W46674  28.098  27.585   4.259
87414W        W46675  27.595  21.730  11.086
87415W        W46676  20.258  16.182  13.948
87416W        W46677  20.649  38.347  14.994
87417W        W46678  20.168   2.841   3.843
87418W        W46679   7.888   0.905   0.372
87419W        W46680  12.349   7.413   3.655
87420W        W46681   3.429  33.123  13.514
87421W        W46682  17.719  28.001   0.827
87422W        W46683  41.307  15.587  12.577
87423W        W46684  38.875   5.217   1.896
87424W        W46685   3.256  21.543   2.385
87425W        W46686   4.324  13.832  12.396
87426W        W46687   9.367  19.067  10.438
87427W        W46688  44.847  31.569  11.529
87428W        W46689  10.228  31.623  13.360
87429W        W46690  14.105  24.597   3.230
87430W        W46691  43.870  15.261  13.495
87431W        W46692  38.420  42.851  11.118
87432W        W46693  19.080  28.535   0.837
87433W        W46694  19.725  35.472   1.834
87434W        W46695  34.048  22.682  11.923
87435W        W46696  39.921  22.713   0.863
87436W        W46697  15.776  12.315  12.989
87437W        W46698  15.743  40.875   2.418
87438W        W46699  25.166  29.423   4.306
87439W        W46700  24.149  37.553  10.023
87440W        W46701  23.707  35.522   4.662
87441W        W46702  43.915   5.394   2.223
87442W        W46703  30.527  17.603  13.379
87443W        W46704  33.483   4.865  13.504
87444W        W46705  21.562   8.901   1.413
87445W        W46706  19.748  25.989   3.802
87446W        W46707  21.667   1.927   4.239
87447W        W46708  16.270  41.294   0.459
87448W        W46709  31.474  38.849   0.470
87449W        W46710   7.346  12.343  14.331
87450W        W46711  29.463   2.363  10.934
87451W        W46712  24.984  27.010   0.938
87452W        W46713  32.461  27.077  11.598
87453W        W46714  19.648   8.380   9.534
87454W        W46715  12.255  19.280   0.770
87455W        W46716   3.720  36.883  13.420
87456W        W46717  30.982  42.365  14.456
87457W        W46718  17.213  27.108   0.968
87458W        W46719   5.868  43.830   0.273
87459W        W46720   4.801   0.767   3.368
87460W        W46721  40.017   0.963   3.363
87461W        W46722  26.063  27.500   0.253
87462W        W46723  12.706  18.652  12.523
87463W        W46724  39.402  11.273  14.338
87464W        W46725   7.389  20.668   4.668
87465W        W46726  30.115  18.673   1.769
87466W        W46727   1.312   0.343   4.812
87467W        W46728  16.074   7.695   0.334
87468W        W46729  21.201  29.437   0.951
87469W        W46730  25.139  37.484  10.453
87470W        W46731   2.907  38.446  12.048
87471W        W46732  38.470   1.744  12.988
87472W        W46733   2.737  23.515  13.385
87473W        W46734  41.961  17.222  10.544
87474W        W46735  10.791  37.427   3.652
87475W        W46736  15.648   7.189  13.451
87476W        W46737  43.481  31.644   1.865
87477W        W46738  23.101  16.637  13.525
87478W        W46739   7.774   9.348   1.222
87479W        W46740   4.413  26.476   0.749
87480W        W46741  15.609   9.889  10.124
87481W        W46742  30.585  26.519  14.014
87482W        W46743  18.228  12.664  14.991
87483W        W46744  41.519  13.719  14.762
87484W        W46745   1.825  26.471  12.995
87485W        W46746  10.142  13.238  13.472
87486W        W46747  17.129  19.061  10.125
87487W        W46748  41.814  18.083  10.930
87488W        W46749  30.993   5.350   0.769
87489W        W46750  42.998  26.649   0.946
87490W        W46751  29.009  42.449   1.284
87491W        W46752  21.179  14.805  10.547
87492W        W46753   2.354  28.454  14.881
87493W        W46754  37.982  30.056   4.779
87494W        W46755  22.069   5.212   4.719
87495W        W46756  25.182  27.103   3.659
87496W        W46757  39.036  21.239  10.529
87497W        W46758  31.153  36.079   0.905
87498W        W46759  37.065  27.088   1.354
87499W        W46760  42.862  10.264   5.245
87500W        W46761  33.517  25.474  11.500
87501W        W46762  34.104  35.913  13.997
87502W        W46763   2.250   6.829   3.690
87503W        W46764  26.102  35.057  14.801
87504W        W46765  40.833  33.612   5.637
87505W        W46766   5.261  12.175  12.561
87506W        W46767   7.242  18.264  13.405
87507W        W46768  14.668  43.470   1.918
87508W        W46769  29.144  44.378   3.265
87509W        W46770  38.363  29.108  13.819
87510W        W46771  28.449  18.609  10.938
87511W        W46772  33.510  28.606  10.547
87512W        W46773   9.666   9.183   0.840
87513W        W46774   1.806   5.735  11.580
87514W        W46775  36.923  18.636  11.962
87515W        W46776  42.782   3.439   2.690
87516W        W46777   2.861   6.828  14.882
87517W        W46778  20.753  16.106  12.049
87518W        W46779   0.888  34.106  14.902
87519W        W46780  37.505  37.540  10.612
87520W        W46781  43.494   1.787  14.497
87521W        W46782   6.256  19.177   0.345
87522W        W46783   8.745  23.531   2.768
87523W        W46784  33.441  26.092  13.433
87524W        W46785  44.882  13.812   4.693
87525W        W46786  13.658  13.626   2.226
87526W        W46787  10.318   2.925  12.006
87527W        W46788  34.868   8.374  14.286
87528W        W46789  21.137  17.743  12.866
87529W        W46790  10.743  30.535  13.040
87530W        W46791  10.754  22.624   2.356
87531W        W46792  20.253  24.067   2.268
87532W        W46793  40.052  38.407  11.468
87533W        W46794  26.181  40.879   1.918
87534W        W46795   8.814  17.096   1.731
87535W        W46796  34.475  19.662   2.296
87536W        W46797   2.448   4.942  14.435
87537W        W46798  44.853  10.828   2.768
87538W        W46799   8.741  31.439   1.359
87539W        W46800  23.729  22.095   3.230
87540W        W46801  42.441  39.057  10.105
87541W        W46802  17.148  33.439   0.441
87542W        W46803  43.488  41.443   3.658
87543W        W46804  25.089  42.800  14.776
87544W        W46805  32.487  32.968  12.351
87545W        W46806  32.571  22.634   4.145
87546W        W46807   9.742   3.350   3.697
87547W        W46808   8.295   2.251  13.467
87548W        W46809  36.395  20.624   4.155
87549W        W46810  15.216  30.460  12.061
87550W        W46811   7.206   6.887   5.198
87551W        W46812  40.941  13.735  12.416
87552W        W46813  36.561  31.132   3.175
87553W        W46814  44.360  36.980  11.511
87554W        W46815  33.481  38.413  11.605
87555W        W46816  19.652  14.297  10.441
87556W        W46817   8.331  13.176   3.255
87557W        W46818  23.543   0.765  11.965
87558W        W46819  21.123  26.081  12.071
87559W        W46820  14.592   0.958  10.436
87560W        W46821  22.672  11.199   2.219
87561W        W46822  28.987  19.608  10.951
87562W        W46823  36.090  40.436  12.553
87563W        W46824  42.284  30.046  10.973
87564W        W46825  20.623  10.658   4.297
87565W        W46826  31.505  23.669   3.869
87566W        W46827  10.278  23.080  12.003
87567W        W46828  27.066  44.380  10.405
87568W        W46829  42.412   1.949  14.503
87569W        W46830  31.629   9.770   9.636
87570W        W46831  30.449  17.665   2.678
87571W        W46832  39.317  20.182  14.392
87572W        W46833  32.083  10.205  12.875
87573W        W46834  11.331  36.460  10.486
87574W        W46835  42.429   0.777  10.544
87575W        W46836  29.036  24.047  13.455
87576W        W46837   6.361  20.135   2.304
87577W        W46838  39.559  21.130   1.805
87578W        W46839  26.543  36.460   3.275
87579W        W46840  30.438  16.168   0.949
87580W        W46841  21.051  19.709   0.777
87581W        W46842  12.300  20.565   4.708
87582W        W46843  29.656   4.288   4.728
87583W        W46844  31.485  19.112   1.744
87584W        W46845  23.576  41.873  10.546
87585W        W46846   4.762  24.508  11.111
87586W        W46847  37.550  20.565   2.821
87587W        W46848  22.073   6.793   2.678
87588W        W46849  29.482  40.892  11.101
87589W        W46850  31.087  26.118  14.457
87590W        W46851  33.449  23.553   4.321
87591W        W46852  18.088  26.190  13.794
87592W        W46853  29.127   4.738  12.566
87593W        W46854  21.569  24.640  13.914
87594W        W46855  25.500  30.005  13.523
87595W        W46856   0.326  16.715  14.847
87596W        W46857   7.898  34.572  11.945
87597W        W46858   0.978  15.269   0.289
87598W        W46859  35.070  13.665   2.834
87599W        W46860   0.866  27.192   0.738
87600W        W46861  27.140  14.171   2.791
87601W        W46862  42.023   7.792  14.398
87602W        W46863  27.961  26.696  10.980
87603W        W46864  20.201  34.103   4.614
87604W        W46865  13.809  36.463   1.447
87605W        W46866   7.380  20.673  11.559
87606W        W46867  40.306  18.126   3.660
87607W        W46868  39.339  32.479   4.796
87608W        W46869  42.400  18.736   1.739
87609W        W46870  28.577  28.597   4.165
87610W        W46871  35.865  17.080  11.972
87611W        W46872  32.591  28.153   1.325
87612W        W46873  27.493  40.000  13.959
87613W        W46874  13.796  33.107  11.447
87614W        W46875  14.823   9.825  13.506
87615W        W46876  44.943  44.313  13.860
87616W        W46877  29.468   8.299   4.294
87617W        W46878  43.424   6.847  14.859
87618W        W46879   0.350  30.594  12.001
87619W        W46880  32.576   7.732   2.701
87620W        W46881  36.926  36.591   3.277
87621W        W46882   8.357  36.518   4.331
87622W        W46883  36.528  21.117  12.542
87623W        W46884  29.090  41.931  10.547
87624W        W46885  13.230  37.495   9.951
87625W        W46886  32.984  44.476  12.830
87626W        W46887  22.234  19.695   0.294
87627W        W46888  19.608  42.949   1.381
87628W        W46889  32.996   2.901   3.305
87629W        W46890   8.734   7.738   0.895
87630W        W46891  30.632  28.941   1.311
87631W        W46892   0.385  12.759  13.059
87632W        W46893  13.219   7.692  11.128
87633W        W46894   2.309  26.129   3.204
87634W        W46895   1.462  26.000  11.495
87635W        W46896  13.623  43.772  12.579
87636W        W46897  13.637  12.230  11.048
87637W        W46898   1.326  13.764   0.829
87638W        W46899  39.366  34.447   3.351
87639W        W46900  10.754   0.908   3.678
87640W        W46901  29.111  30.444   3.248
87641W        W46902  41.431   7.253  13.349
87642W        W46903  30.637   5.924   3.357
87643W        W46904  41.909  14.213  11.606
87644W        W46905  12.117  36.446  14.875
87645W        W46906  17.155  26.621  13.042
87646W        W46907  36.391  18.652   2.208
87647W        W46908  15.723  12.705   0.431
87648W        W46909  44.958  28.936  14.933
87649W        W46910  15.645  23.237   4.692
87650W        W46911  31.919  35.902   3.361
87651W        W46912   2.374  17.104   3.264
87652W        W46913   9.179  22.077  10.421
87653W        W46914  20.175   7.185  12.927
87654W        W46915  44.359  26.990   5.314
87655W        W46916  44.800  19.189   1.772
87656W        W46917  27.634  14.717   2.758
87657W        W46918  32.541  33.466   0.468
87658W        W46919  28.662   5.706  11.544
87659W        W46920  28.601   9.703  11.578
87660W        W46921  14.641  21.121   3.811
87661W        W46922  12.833  13.672   4.774
87662W        W46923  34.558   0.450   3.801
87663W        W46924  14.832  41.515   5.247
87664W        W46925  13.669  16.590  10.512
87665W        W46926  15.694   1.920   1.771
87666W        W46927  11.264  24.706  11.538
87667W        W46928  29.154  31.558  10.909
87668W        W46929  44.503  41.324  10.479
87669W        W46930  23.145   0.463  13.366
87670W        W46931  36.017  26.676  12.959
87671W        W46932  31.420   3.411   2.267
87672W        W46933   3.361   9.205   0.863
87673W        W46934   0.423  23.012  13.546
87674W        W46935  10.658  26.989  11.897
87675W        W46936   2.300   5.913   1.696
87676W        W46937  30.007   6.814  13.328
87677W        W46938  24.025  16.732   3.155
87678W        W46939  32.508   7.277  13.386
87679W        W46940  26.041   2.869   0.262
87680W        W46941  21.746  33.567  11.599
87681W        W46942  32.040  19.627   2.675
87682W        W46943  37.350  30.114  12.911
87683W        W46944  14.311  23.084   3.661
87684W        W46945  12.155  26.681   0.262
87685W        W46946  26.180   8.228  13.388
87686W        W46947  29.991  39.323   4.597
87687W        W46948   0.302  27.462   2.349
87688W        W46949  42.897  20.137   3.629
87689W        W46950   1.898  25.979  11.968
87690W        W46951   7.671   1.779   3.179
87691W        W46952  39.442   4.859  14.884
87692W        W46953  41.788  14.756   0.369
87693W        W46954  10.703  32.949   4.668
87694W        W46955  41.426   3.790  12.532
87695W        W46956  40.520  43.007   4.828
87696W        W46957  12.697  44.336  11.486
87697W        W46958  24.149   9.880   2.219
87698W        W46959  19.267  39.844   2.328
87699W        W46960   1.414  31.433  11.914
87700W        W46961  29.570  37.908   0.388
87701W        W46962  21.654  39.528  12.850
87702W        W46963  28.478   5.236   1.267
87703W        W46964  40.307  35.043  14.894
87704W        W46965   3.867  35.904  13.445
87705W        W46966  11.351   3.265   0.859
87706W        W46967  24.037  28.660  11.477
87707W        W46968  29.108  28.043   3.249
87708W        W46969  40.420  13.604   1.229
87709W        W46970  14.801  33.548   3.243
87710W        W46971  14.646  12.758  11.999
87711W        W46972  25.055  37.552  11.493
87712W        W46973  10.858   8.162  11.866
87713W        W46974   3.329   6.232   1.709
87714W        W46975  41.004  30.559  13.929
87715W        W46976  18.770  34.542   4.115
87716W        W46977   7.866  43.776   0.887
87717W        W46978   2.395  43.990   0.334
87718W        W46979  36.871  37.400   0.897
87719W        W46980   0.948   4.272   4.698
87720W        W46981  24.995  21.060  13.903
87721W        W46982   1.344   1.955  11.402
87722W        W46983   6.291  15.266  10.995
87723W        W46984  12.134  35.099  11.484
87724W        W46985  37.030   6.194  12.456
87725W        W46986   7.229  24.035  13.003
87726W        W46987  18.606   2.343   0.939
87727W        W46988  37.079  33.590  13.801
87728W        W46989  16.174  18.173  13.854
87729W        W46990   8.315  32.406  13.350
87730W        W46991  24.709   9.791   3.288
87731W        W46992   1.896  34.517   1.931
87732W        W46993  41.976  20.599  11.509
87733W        W46994  11.750  30.105  13.842
87734W        W46995  29.162  38.507  14.843
87735W        W46996  22.689  43.407   3.773
87736W        W46997  11.829  43.927  12.087
87737W        W46998  13.843  41.511   3.212
87738W        W46999  39.506  29.135   3.230
87739W        W47000   8.284  24.073   0.400
87740W        W47001   1.369  29.966  13.824
87741W        W47002   2.395   2.866  12.967
87742W        W47003  36.456  26.995  14.853
87743W        W47004  23.214  30.078  13.843
87744W        W47005  19.275  10.216   0.283
87745W        W47006  29.443   8.248  11.592
87746W        W47007  30.100  29.622  11.866
87747W        W47008  17.607  22.669  11.399
87748W        W47009  31.404  17.802  14.405
87749W        W47010  23.635   3.738   2.198
87750W        W47011  10.828  19.085  13.964
87751W        W47012  34.028  19.610   1.299
87752W        W47013  15.330   7.245   2.355
87753W        W47014  15.732  18.052   1.211
87754W        W47015   6.186  43.384  10.462
87755W        W47016  18.597  23.075   3.275
87756W        W47017  16.296  12.271  11.398
87757W        W47018  40.844  17.266   3.345
87758W        W47019  28.002  40.802   1.259
87759W        W47020  27.550   6.401  13.493
87760W        W47021   2.462  17.579   2.859
87761W        W47022  27.662  24.681   4.170
87762W        W47023  42.522  27.140   1.789
87763W        W47024  32.050  36.980  10.520
87764W        W47025  42.358  35.034  13.960
87765W        W47026  39.492   6.858   0.730
87766W        W47027  37.346  25.169   4.757
87767W        W47028  11.859   1.472   0.294
87768W        W47029  43.903  23.605   3.183
87769W        W47030  40.000  18.678   3.641
87770W        W47031  40.940   0.270   2.355
87771W        W47032  25.974  44.351  12.057
87772W        W47033  18.095  43.421   3.649
87773W        W47034   9.375  44.359  13.060
87774W        W47035  17.701   0.760  12.000
87775W        W47036  26.058  23.116   0.868
87776W        W47037  39.525  33.965  11.534
87777W        W47038  32.618  20.158   3.780
87778W        W47039  21.156  25.481  14.279
87779W        W47040  42.364  10.788  14.444
87780W        W47041  32.542  10.772   0.830
87781W        W47042  29.636   0.381   0.432
87782W        W47043  44.924   4.751  11.475
87783W        W47044  24.499  37.430   4.343
87784W        W47045  30.534  24.130  10.436
87785W        W47046  41.373  41.829  14.992
87786W        W47047   5.757  24.202   2.318
87787W        W47048  21.254  18.155   4.289
87788W        W47049  36.452  19.724  13.467
87789W        W47050  10.243  36.027  11.970
87790W        W47051   2.863   3.443  11.568
87791W        W47052  18.296   3.803   2.406
87792W        W47053  17.122  44.423  10.941
87793W        W47054  18.087   7.665  10.889
87794W        W47055  43.363  39.963   0.338
87795W        W47056  35.868  29.041   4.643
87796W        W47057  44.480   3.237  13.927
87797W        W47058  12.797  27.135  12.515
87798W        W47059  16.729  44.492  14.383
87799W        W47060  24.087   7.909   0.877
87800W        W47061  43.381   3.814  10.538
87801W        W47062   0.957  33.605   3.319
87802W        W47063  40.341  30.050  12.056
87803W        W47064   0.799  10.247   2.834
87804W        W47065   7.311   5.302   9.967
87805W        W47066  41.934   6.883  12.459
87806W        W47067  42.846   9.880  13.348
87807W        W47068  19.563  35.395   2.889
87808W        W47069  24.074   9.167   3.861
87809W        W47070  37.851   9.188  13.911
87810W        W47071  27.052  35.022   4.772
87811W        W47072  15.164  38.370  13.938
87812W        W47073   6.764  26.078   1.935
87813W        W47074   3.374  18.751   3.750
87814W        W47075  31.127  29.110  12.844
87815W        W47076  40.388  12.321   2.735
87816W        W47077  39.506  20.580  10.493
87817W        W47078  30.621   6.380   1.776
87818W        W47079  42.865  15.766   4.154
87819W        W47080  33.510  17.108   5.306
87820W        W47081  36.050  26.613  12.043
87821W        W47082  17.645  42.948   0.341
87822W        W47083   5.341  38.973  14.826
87823W        W47084  24.127  39.036   3.209
87824W        W47085  10.713  43.273   3.729
87825W        W47086  43.447  16.805  13.407
87826W        W47087  34.406  44.321   2.826
87827W        W47088  11.260  10.348  12.936
87828W        W47089   1.340  16.625  14.897
87829W        W47090   5.830   9.174   1.933
87830W        W47091  27.541  42.348   3.319
87831W        W47092   6.283  31.133  14.015
87832W        W47093  31.044  18.589  10.459
87833W        W47094   0.314   5.785   4.741
87834W        W47095   0.968  42.928   0.954
87835W        W47096  14.155  22.634   2.756
87836W        W47097  31.113  33.918   2.257
87837W        W47098  12.854  36.872   2.730
87838W        W47099  18.743  37.424   9.939
87839W        W47100  21.166   7.908   2.870
87840W        W47101  14.678  17.763   4.245
87841W        W47102  43.957  41.380  12.529
87842W        W47103  37.055  44.352   4.702
87843W        W47104  20.076   0.858   3.155
87844W        W47105  27.123  22.610  14.298
87845W        W47106  11.722   7.730   1.874
87846W        W47107   8.291  37.339   1.280
87847W        W47108  10.224   7.799   2.704
87848W        W47109  22.730  27.507   1.241
87849W        W47110  38.071  28.475  12.497
87850W        W47111   1.301  28.475  13.009
87851W        W47112   4.399  10.348  13.407
87852W        W47113  26.091   2.819  13.990
87853W        W47114  21.579   0.283   2.715
87854W        W47115  31.127   6.202   5.231
87855W        W47116  26.592  39.857  11.986
87856W        W47117  38.353  18.190  10.950
87857W        W47118  42.514   4.415   2.246
87858W        W47119  42.441  13.209  14.278
87859W        W47120  20.220   2.261   3.328
87860W        W47121  19.653  44.472   0.852
87861W        W47122   4.261  12.321   3.256
87862W        W47123   0.894  16.638   3.200
87863W        W47124   3.717  26.544   1.795
87864W        W47125   1.877  15.674  11.872
87865W        W47126  16.735  35.473   4.207
87866W        W47127  28.038   3.759  13.813
87867W        W47128   8.301   9.157  12.496
87868W        W47129   5.386  44.263  12.051
87869W        W47130   6.251  33.578   3.362
87870W        W47131  34.976   3.838  10.986
87871W        W47132  30.432   5.291  12.513
87872W        W47133  44.822  19.149   0.947
87873W        W47134  22.038   2.382  14.917
87874W        W47135  11.758  17.166   0.454
87875W        W47136  13.339   6.190  11.480
87876W        W47137  12.235  18.780  12.848
87877W        W47138  25.113  11.271   0.302
87878W        W47139  16.615   2.457  14.488
87879W        W47140  37.020  43.952   4.767
87880W        W47141  14.781  41.899   4.139
87881W        W47142  41.462  28.144   0.904
87882W        W47143  33.919   7.837  13.458
87883W        W47144   4.306  18.728   4.117
87884W        W47145  35.585  30.516   0.905
87885W        W47146  28.959  31.481  13.314
87886W        W47147  10.805  19.152   1.315
87887W        W47148  37.968  40.461   0.779
87888W        W47149  21.076  35.384  10.478
87889W        W47150  29.090  10.734  12.527
87890W        W47151   7.735  12.127  12.429
87891W        W47152   6.840   1.389   0.405
87892W        W47153   3.766   7.670   2.324
87893W        W47154  27.079  32.422   3.706
87894W        W47155  15.314  38.845   1.807
87895W        W47156  16.698  29.027   0.901
87896W        W47157  34.413   9.356  13.516
87897W        W47158   2.752   0.272  11.008
87898W        W47159  18.617  42.992   4.779
87899W        W47160   5.789  29.172   2.345
87900W        W47161  28.535  42.777   0.269
87901W        W47162   6.846  26.034   2.315
87902W        W47163  31.632   0.872  12.427
87903W        W47164  17.122  17.746  14.514
87904W        W47165  37.451  25.129  13.994
87905W        W47166  31.449  26.570  10.435
87906W        W47167  28.532  13.127   2.374
87907W        W47168  35.064   8.831   0.291
87908W        W47169  15.216   9.191  10.887
87909W        W47170  15.123  17.768   0.909
87910W        W47171  24.168  31.456   4.728
87911W        W47172  16.295  40.842  11.458
87912W        W47173  39.410  39.333  10.623
87913W        W47174   4.904  36.478  10.404
87914W        W47175  35.444  13.178  14.320
87915W        W47176  15.132  14.103   1.802
87916W        W47177  24.500   8.780  11.413
87917W        W47178  40.342  20.085  13.540
87918W        W47179  28.089  23.991   3.728
87919W        W47180  41.313  39.963  10.550
87920W        W47181  44.782  30.453  12.090
87921W        W47182  37.449  43.326  13.316
87922W        W47183  35.083  31.931  12.017
87923W        W47184  30.977  30.007   1.366
87924W        W47185  18.168  33.963   3.332
87925W        W47186  10.712  23.220  11.434
87926W        W47187   0.933  14.679   0.474
87927W        W47188  24.636  15.265   4.199
87928W        W47189  35.386  43.943   1.383
87929W        W47190  42.347  19.057  14.018
87930W        W47191   6.208  35.963  11.573
87931W        W47192  23.733   4.900   3.823
87932W        W47193   2.862   7.889   2.681
87933W        W47194  40.416  38.400   0.838
87934W        W47195   6.786  35.058   0.788
87935W        W47196   2.793  37.414   2.761
87936W        W47197  12.232  15.313   4.637
87937W        W47198   4.402  29.974   3.723
87938W        W47199  41.499  23.991   5.083
87939W        W47200   7.815  24.000   3.867
87940W        W47201  37.421  36.436   0.356
87941W        W47202  22.705  13.278   4.276
87942W        W47203   1.776  12.777   2.751
87943W        W47204  27.584  18.097  11.408
87944W        W47205   0.326   4.847  11.438
87945W        W47206   3.752  40.504  12.945
87946W        W47207  35.026   2.394   3.666
87947W        W47208  29.971   1.271  12.494
87948W        W47209  37.392  42.460   0.269
87949W        W47210  13.171  16.084   0.352
87950W        W47211  24.136  36.894  12.501
87951W        W47212  30.091  12.211   4.782
87952W        W47213  34.374  20.038  11.568
87953W        W47214  34.869  35.904  14.945
87954W        W47215  17.209  35.032   1.214
87955W        W47216  40.318  39.394   3.309
87956W        W47217  42.956  42.317   3.794
87957W        W47218  39.534  27.990   3.644
87958W        W47219   9.795  31.402  12.971
87959W        W47220  30.101  26.606   4.290
87960W        W47221  31.415   3.900   2.393
87961W        W47222  17.177  39.817   0.903
87962W        W47223  44.267   9.721  11.985
87963W        W47224   9.242  27.518  11.041
87964W        W47225  30.522  38.447   2.827
87965W        W47226  18.645  13.232  12.558
87966W        W47227  27.553  31.527  11.946
87967W        W47228  26.034  33.540  13.815
87968W        W47229  22.577   8.269   1.262
87969W        W47230  30.118   1.302  14.981
87970W        W47231   2.762  17.761   4.335
87971W        W47232  21.645  35.852  14.439
87972W        W47233  12.260   5.228   1.342
87973W        W47234  44.324  43.915   3.722
87974W        W47235   8.666  31.478  13.937
87975W        W47236  33.529  17.144   4.342
87976W        W47237  19.650  36.480   4.173
87977W        W47238   2.826  19.771  11.550
87978W        W47239  19.244  25.502  11.938
87979W        W47240  35.995  20.238  12.378
87980W        W47241  21.753  14.258  14.508
87981W        W47242  23.730   8.312   4.159
87982W        W47243   9.724   3.746   1.932
87983W        W47244  43.398  38.882   1.748
87984W        W47245   2.330  30.991  11.919
87985W        W47246  16.275  37.063  11.100
87986W        W47247  36.370  31.588   4.650
87987W        W47248  23.233  42.426   2.360
87988W        W47249  39.506  12.752   1.342
87989W        W47250   4.416  36.904   3.368
87990W        W47251  15.157   7.753   2.409
87991W        W47252  44.474   1.862   1.802
87992W        W47253  31.153  22.550  10.511
87993W        W47254  44.813  11.690   2.796
87994W        W47255  31.644  44.498  11.483
87995W        W47256   7.242  19.750  10.541
87996W        W47257  12.148  12.645  12.888
87997W        W47258  43.984  39.897  13.862
87998W        W47259  44.476  17.169  14.919
87999W        W47260  19.057  12.803   3.248
88000W        W47261  33.385  44.985   5.292
88001W        W47262  21.181  35.978   4.605
88002W        W47263  29.568  24.718  13.795
88003W        W47264  11.697  37.414  14.514
88004W        W47265  15.749  23.118   1.826
88005W        W47266   2.828  24.714  12.999
88006W        W47267  27.014  38.008  11.090
88007W        W47268  13.683  34.411  14.834
88008W        W47269  37.433   3.736  14.327
88009W        W47270  38.324  39.877  14.935
88010W        W47271  19.235  21.539   3.800
88011W        W47272  38.974  30.047  14.394
88012W        W47273  12.612  31.567  11.506
88013W        W47274  23.628   5.807   3.869
88014W        W47275  25.600  33.959  13.518
88015W        W47276  15.594  35.451  14.346
88016W        W47277  19.744  42.889  13.416
88017W        W47278  24.498  34.381   0.437
88018W        W47279   0.784   3.353  10.542
88019W        W47280  34.457  21.532   0.460
88020W        W47281  14.265   4.339   0.314
88021W        W47282   9.736  19.104   3.712
88022W        W47283  36.437  25.144   0.853
88023W        W47284  25.134  24.974  10.955
88024W        W47285   3.951  15.749   4.340
88025W        W47286  22.693  16.074  14.347
88026W        W47287   5.932  20.213  11.092
88027W        W47288  12.704  21.127  14.285
88028W        W47289  22.039  17.245  14.777
88029W        W47290  43.807   6.302  12.379
88030W        W47291  40.397  20.545  13.807
88031W        W47292  30.592  26.988   1.315
88032W        W47293  17.193   9.750   2.672
88033W        W47294  31.531  17.205   2.877
88034W        W47295  25.964   2.302  13.870
88035W        W47296  22.711  15.689  14.308
88036W        W47297  29.971  19.087  13.532
88037W        W47298  32.393  29.500   4.724
88038W        W47299  23.675   6.248   4.325
88039W        W47300  17.077  37.500   3.849
88040W        W47301   8.352  35.372  13.423
88041W        W47302  15.226  12.161   0.384
88042W        W47303   8.195   2.785  12.092
88043W        W47304  18.670  18.050  10.631
88044W        W47305  15.721  17.286   4.302
88045W        W47306  43.976  33.406   4.769
88046W        W47307  38.329  22.573   4.278
88047W        W47308  12.293  33.005  12.357
88048W        W47309  30.000  20.052  14.937
88049W        W47310  23.197   3.849  12.444
88050W        W47311   0.311   0.810   3.218
88051W        W47312  39.046  10.256   2.819
88052W        W47313  39.878   6.374  12.069
88053W        W47314  17.672   9.183   5.723
88054W        W47315  20.110  16.734  13.888
88055W        W47316  34.551  27.652   4.345
88056W        W47317  32.936  23.616  13.838
88057W        W47318  42.472  31.114   3.289
88058W        W47319  42.788   7.725   4.196
88059W        W47320  38.549  28.597  11.083
88060W        W47321  18.610  42.475  11.567
88061W        W47322   2.347   4.229  13.320
88062W        W47323  14.279  30.420   2.284
88063W        W47324  28.474  22.020   2.348
88064W        W47325  32.532  35.026  14.323
88065W        W47326   9.375  17.577   3.813
88066W        W47327  13.214  36.976  11.909
88067W        W47328   7.668  31.517   0.828
88068W        W47329  43.836  43.996  12.935
88069W        W47330  34.424  36.054   0.471
88070W        W47331  31.078  26.143   4.648
88071W        W47332  20.099  21.086   1.914
88072W        W47333  29.614  29.647   4.659
88073W        W47334  33.100  21.747  11.871
88074W        W47335  32.018  29.495   3.327
88075W        W47336  28.556  26.674   3.860
88076W        W47337  15.275   5.928  11.979
88077W        W47338  15.793  31.550  14.940
88078W        W47339  10.725  31.456   0.269
88079W        W47340   2.304   9.863   3.656
88080W        W47341  31.426  29.558  13.406
88081W        W47342  20.181  31.123  11.081
88082W        W47343  22.061   7.217  12.494
88083W        W47344  42.396  40.446  12.038
88084W        W47345   6.721  28.031   3.863
88085W        W47346  25.623  43.344   2.857
88086W        W47347  31.646  20.046   3.186
88087W        W47348   5.774  13.165  14.468
88088W        W47349   6.247  10.289  11.515
88089W        W47350  42.371  18.203  13.380
88090W        W47351  20.641  43.378  14.324
88091W        W47352  37.017   1.799   4.192
88092W        W47353  30.908   3.299  14.814
88093W        W47354  41.930  35.919   1.785
88094W        W47355  16.224   7.738  14.934
88095W        W47356  26.998  40.548  11.459
88096W        W47357   8.174  20.217   2.663
88097W        W47358  12.622  29.107  11.566
88098W        W47359   1.855  20.152   0.819
88099W        W47360   5.425   5.323   1.376
88100W        W47361  32.012  37.517  14.938
88101W        W47362  19.723   9.690   3.826
88102W        W47363   3.907  36.461   4.632
88103W        W47364  32.127  23.035  11.003
88104W        W47365  31.042  40.331   0.821
88105W        W47366  34.903  19.741   1.363
88106W        W47367   4.892  38.462   2.700
88107W        W47368  30.917  20.761  10.498
88108W        W47369  23.708  35.497   0.960
88109W        W47370   3.757   1.300   0.843
88110W        W47371   3.444  32.939   4.803
88111W        W47372   7.404  17.692   2.299
88112W        W47373  39.928  43.350   0.297
88113W        W47374  31.475   9.765  11.110
88114W        W47375  19.201  34.996   2.712
88115W        W47376   1.479  42.888  11.447
88116W        W47377  22.078  17.253  11.407
88117W        W47378   8.379  27.562  12.387
88118W        W47379  21.699  37.465   4.823
88119W        W47380  13.714  13.145   0.450
88120W        W47381  35.067   3.409  13.342
88121W        W47382  15.210  18.294   2.818
88122W        W47383  43.487  14.704  13.442
88123W        W47384  15.231  14.214   2.817
88124W        W47385   1.421  19.252   2.203
88125W        W47386   1.790  30.466   0.401
88126W        W47387  20.619  29.007   2.385
88127W        W47388  10.141  37.446  10.583
88128W        W47389  40.985  29.603   0.746
88129W        W47390   4.728  26.175  12.833
88130W        W47391  35.449   4.914   1.416
88131W        W47392  27.050  20.150  12.362
88132W        W47393  23.139  26.182   0.367
88133W        W47394   1.918  32.488   0.866
88134W        W47395  19.608  39.325  12.349
88135W        W47396  41.826  33.541  13.465
88136W        W47397  15.239   3.326  14.492
88137W        W47398   5.928   6.308  11.967
88138W        W47399  43.941  12.723  11.481
88139W        W47400  44.960  20.648  14.452
88140W        W47401   0.815  27.554   2.743
88141W        W47402   2.814   6.376   1.434
88142W        W47403   5.765  40.417   0.849
88143W        W47404   9.680   2.825  11.568
88144W        W47405  21.151  42.933   2.818
88145W        W47406  37.576  10.283  11.120
88146W        W47407  30.523  28.171  14.969
88147W        W47408  37.906  43.941  10.588
88148W        W47409  42.419  26.482   2.265
88149W        W47410  16.618   6.366   0.435
88150W        W47411  18.055  19.127   3.163
88151W        W47412   2.918  30.061  14.018
88152W        W47413   1.791  43.362  13.449
88153W        W47414  36.575  16.204  14.805
88154W        W47415  20.100  36.481   2.339
88155W        W47416  27.023  17.759   3.730
88156W        W47417  27.002   3.433  13.454
88157W        W47418  20.534  21.093  13.917
88158W        W47419  24.691  22.033   1.750
88159W        W47420  25.219  17.269  14.479
88160W        W47421   2.390  20.204   1.211
88161W        W47422  24.652  18.569   0.940
88162W        W47423  17.695   8.714   1.379
88163W        W47424   5.780  21.753   0.363
88164W        W47425  15.209  42.409   2.359
88165W        W47426   5.406  19.244   1.731
88166W        W47427   1.771  14.096  10.616
88167W        W47428  18.739  41.955  11.091
88168W        W47429  35.911   4.833   1.245
88169W        W47430   9.833  28.630   0.333
88170W        W47431  18.213  42.500  10.940
88171W        W47432   2.466  39.983   2.321
88172W        W47433  34.609  27.544   2.404
88173W        W47434  18.711  44.315   5.200
88174W        W47435  30.481  23.643  11.063
88175W        W47436  12.628   6.202  13.964
88176W        W47437   9.667   2.314  12.380
88177W        W47438  36.390  39.531  12.901
88178W        W47439   5.697  15.684   0.831
88179W        W47440  20.550  41.408   3.666
88180W        W47441   8.745  31.536   1.745
88181W        W47442  18.076  42.951   3.358
88182W        W47443  23.046  43.459   1.744
88183W        W47444   9.882  42.307   4.183
88184W        W47445   9.703  35.025   2.203
88185W        W47446  10.870  14.778   0.451
88186W        W47447   0.855  41.803  14.918
88187W        W47448  42.967   2.413  14.885
88188W        W47449  20.147  44.865   3.290
88189W        W47450  44.341  16.294  12.064
88190W        W47451  34.079  36.073  10.917
88191W        W47452  26.167   3.738   3.251
88192W        W47453  39.906  41.843   2.712
88193W        W47454  37.898  15.145  10.989
88194W        W47455  24.557  31.004   0.393
88195W        W47456  12.189  18.679   4.715
88196W        W47457  44.359   2.895   2.841
88197W        W47458  14.232   0.391   0.301
88198W        W47459  13.714  15.675   4.608
88199W        W47460  32.556  12.839   0.263
88200W        W47461  15.148  23.053  10.544
88201W        W47462  23.643  13.737   3.265
88202W        W47463   7.803  36.404   3.178
88203W        W47464  32.494  43.913  12.033
88204W        W47465  12.637   2.301   2.187
88205W        W47466   4.377   8.285  12.071
88206W        W47467   1.969  19.772   2.806
88207W        W47468   8.780  32.528   0.843
88208W        W47469  40.456  24.006   9.507
88209W        W47470  22.714  18.148  11.876
88210W        W47471  24.031  13.345   1.806
88211W        W47472   9.687  38.459  10.581
88212W        W47473  33.895   4.752  13.906
88213W        W47474   8.179  21.017   2.677
88214W        W47475  23.676  35.860  11.007
88215W        W47476  17.099  35.443  14.343
88216W        W47477  30.036  32.467  13.426
88217W        W47478  18.238  28.440   4.800
88218W        W47479  38.328   3.897   2.214
88219W        W47480  44.322  43.514   5.109
88220W        W47481  34.428  38.417   2.404
88221W        W47482   2.287  41.523  14.410
88222W        W47483  23.632  43.867   1.851
88223W        W47484  42.443  33.586  10.953
88224W        W47485  30.148  44.296   0.456
88225W        W47486  32.553  22.127   4.352
88226W        W47487  16.122  16.700   0.738
88227W        W47488  12.142   1.397  13.333
88228W        W47489  42.505  39.862   4.707
88229W        W47490  12.640  24.507  13.353
88230W        W47491  36.410  30.527   1.890
88231W        W47492  36.410  37.422  14.451
88232W        W47493  17.698  44.825   2.888
88233W        W47494  36.097  13.824  14.935
88234W        W47495  35.044  31.029   3.790
88235W        W47496   5.737  18.604  10.522
88236W        W47497  13.116   7.872  13.515
88237W        W47498  24.027   3.378  14.948
88238W        W47499  14.672  12.315  14.391
88239W        W47500  35.538   0.850   1.369
88240W        W47501  14.258  24.977  14.506
88241W        W47502  30.155  11.812  12.395
88242W        W47503   0.941  35.028  13.524
88243W        W47504  11.136  25.639  13.319
88244W        W47505  35.005  14.655   2.247
88245W        W47506   0.490   7.882   3.322
88246W        W47507  22.214   1.901  13.003
88247W        W47508  31.642  23.516   1.269
88248W        W47509  23.034   6.888   3.326
88249W        W47510  29.088  41.325   0.287
88250W        W47511  37.030  26.111  11.929
88251W        W47512  34.588  25.547   4.795
88252W        W47513   3.932  22.645  13.022
88253W        W47514   7.896  10.827   0.733
88254W        W47515  41.039   5.288  10.472
88255W        W47516   8.784  36.076   2.323
88256W        W47517  37.463  17.581  12.471
88257W        W47518  36.008  42.419  12.360
88258W        W47519  15.724  32.394  13.924
88259W        W47520  39.403  24.712  10.584
88260W        W47521  41.414  33.431   5.638
88261W        W47522  36.965  41.535  11.995
88262W        W47523  40.914  19.096  11.989
88263W        W47524  22.555  29.944   2.787
88264W        W47525   5.356  10.778   2.403
88265W        W47526   7.793  12.653  13.467
88266W        W47527  21.137  27.022   2.750
88267W        W47528  26.998  43.382   2.850
88268W        W47529  42.925  32.004   2.238
88269W        W47530  41.391  11.178   4.134
88270W        W47531  26.461   5.294   1.877
88271W        W47532  35.991   3.347   3.735
88272W        W47533  13.200  10.233  14.773
88273W        W47534  10.311  31.571   2.875
88274W        W47535   3.354  37.976  12.370
88275W        W47536  13.282  13.266   2.842
88276W        W47537  44.770   5.238   2.256
88277W        W47538  15.595  23.068  12.580
88278W        W47539   4.267  33.510  10.505
88279W        W47540  44.004  29.568   2.682
88280W        W47541  17.672  15.818  14.389
88281W        W47542  17.276  29.553  14.012
88282W        W47543   3.368  11.861   5.235
88283W        W47544   2.345  31.030  14.365
88284W        W47545  30.097  25.479   2.687
88285W        W47546   7.751  22.057  14.410
88286W        W47547  32.072  44.800   4.285
88287W        W47548   8.402  34.453  14.806
88288W        W47549  37.930  34.478  10.614
88289W        W47550   1.759   0.980   2.669
88290W        W47551  17.781  13.808  12.577
88291W        W47552  12.691  11.190   1.703
88292W        W47553  41.464  25.154  13.001
88293W        W47554  39.982  12.620  13.839
88294W        W47555  23.176   2.406  11.394
88295W        W47556  35.998   5.328  13.515
88296W        W47557  13.154   2.449   3.207
88297W        W47558  38.836  16.688   2.685
88298W        W47559  12.752  19.620   1.277
88299W        W47560  33.576  30.964   2.805
88300W        W47561  24.677  43.273  11.991
88301W        W47562  19.658  31.900  10.103
88302W        W47563  33.061  22.170   3.289
88303W        W47564  41.484  17.166   1.312
88304W        W47565   3.285   1.962   1.229
88305W        W47566  34.547  41.398  12.447
88306W        W47567  43.421  42.488   4.635
88307W        W47568   9.775  14.278  13.402
88308W        W47569  42.324  35.517  11.950
88309W        W47570  38.027  28.176  14.366
88310W        W47571  42.829   3.442  13.502
88311W        W47572  14.754  21.197  14.901
88312W        W47573  41.418   2.754   0.328
88313W        W47574  10.272  31.502  11.892
88314W        W47575  19.250  32.532  11.930
88315W        W47576  16.674  17.570  14.408
88316W        W47577  23.214  42.836  13.312
88317W        W47578   6.816  19.075  12.053
88318W        W47579  25.153   9.348   2.298
88319W        W47580  14.641  15.649  12.418
88320W        W47581  21.685  30.984  11.450
88321W        W47582   6.731   2.813  10.999
88322W        W47583  38.820  28.000  14.466
88323W        W47584  33.073  30.619  14.437
88324W        W47585   5.319   4.724  10.554
88325W        W47586  18.693  12.640   3.831
88326W        W47587  28.484  36.864  12.883
88327W        W47588  31.059  12.645  11.456
88328W        W47589  42.432  26.659  14.490
88329W        W47590  43.317  44.994  13.836
88330W        W47591   0.345   4.439  13.818
88331W        W47592  15.278  37.047  12.569
88332W        W47593  11.863  32.636  13.014
88333W        W47594  41.498  31.036   0.953
88334W        W47595   9.286  13.823  11.537
88335W        W47596  24.143  37.384   0.455
88336W        W47597  18.200   8.407  12.861
88337W        W47598  10.213   8.337  12.387
88338W        W47599  36.527   8.796  13.490
88339W        W47600   4.233  41.335  14.368
88340W        W47601   9.265  31.994  11.964
88341W        W47602  22.674  24.030   2.210
88342W        W47603  22.618  25.488   0.852
88343W        W47604   6.681  37.020   2.407
88344W        W47605   3.447  35.048   2.340
88345W        W47606  25.050   2.231   0.730
88346W        W47607  22.175  44.375   2.353
88347W        W47608  37.990  30.041   2.662
88348W        W47609  31.573   6.702   3.806
88349W        W47610   2.894   9.351   3.686
88350W        W47611  20.676  44.471  10.441
88351W        W47612   2.790  14.271   2.325
88352W        W47613  22.019  27.941  10.550
88353W        W47614  39.894  11.242   4.598
88354W        W47615  38.042  25.197   5.099
88355W        W47616  10.155   4.846   2.865
88356W        W47617  22.515   9.761  10.044
88357W        W47618   2.352  38.924  14.956
88358W        W47619  26.959  38.382  10.510
88359W        W47620  11.648  34.524   3.723
88360W        W47621  41.845  27.502  13.314
88361W        W47622   4.240  15.756   2.751
88362W        W47623  10.359  15.199   4.350
88363W        W47624  27.681   9.659   1.440
88364W        W47625  44.276  36.531  13.819
88365W        W47626  26.669  14.800   0.372
88366W        W47627   7.743  21.043   4.682
88367W        W47628  27.081  34.605  10.550
88368W        W47629  12.773  22.055   3.639
88369W        W47630  36.863  27.147  13.379
88370W        W47631  18.576  33.049  10.901
88371W        W47632   4.817  21.641  10.462
88372W        W47633  28.437  16.747   1.774
88373W        W47634  27.983   9.646   1.811
88374W        W47635  37.969  13.611  14.489
88375W        W47636  10.302  40.341  13.952
88376W        W47637  38.459   5.393   4.126
88377W        W47638  39.412  18.064  12.076
88378W        W47639  41.524  10.780  13.536
88379W        W47640  11.236  26.078   3.345
88380W        W47641  14.322  22.032  12.437
88381W        W47642  31.979  25.215   0.318
88382W        W47643  43.863  28.595   1.376
88383W        W47644   0.849  38.392   0.791
88384W        W47645  19.580  35.451   3.218
88385W        W47646  36.416  35.444   3.348
88386W        W47647  21.124  15.785   1.905
88387W        W47648  36.352  42.903  11.445
88388W        W47649  21.538  23.683   3.192
88389W        W47650  16.207  35.455   4.215
88390W        W47651  24.994  32.983  14.827
88391W        W47652   7.843  16.244   4.640
88392W        W47653  32.489  22.217  13.426
88393W        W47654  30.993  18.654  11.876
88394W        W47655  44.858   7.777  10.521
88395W        W47656  34.995  35.414   2.727
88396W        W47657  19.673   6.703   9.556
88397W        W47658  43.270  31.417   1.384
88398W        W47659  24.200  17.228   3.339
88399W        W47660  15.675  21.208  13.944
88400W        W47661  13.635   1.330   1.443
88401W        W47662   6.263  10.221   9.981
88402W        W47663   1.816   3.747  14.403
88403W        W47664  13.243  14.139  14.804
88404W        W47665  29.498  23.035   4.269
88405W        W47666   3.409  13.687   4.677
88406W        W47667  38.980  34.451  10.599
88407W        W47668  29.516  41.511  12.515
88408W        W47669  19.243   0.343   3.348
88409W        W47670   0.387  10.805   1.332
88410W        W47671   4.752   7.740   0.413
88411W        W47672  32.412  22.707   2.835
88412W        W47673   3.849  25.991   4.811
88413W        W47674  34.023  37.866   3.272
88414W        W47675  40.400  43.922   4.837
88415W        W47676   8.181  14.146   1.431
88416W        W47677  32.587  36.548  11.063
88417W        W47678  33.611  33.944   0.862
88418W        W47679  25.614  22.609   2.709
88419W        W47680  40.426  25.080  13.038
88420W        W47681   0.396  41.030  14.500
88421W        W47682   1.798  38.453  10.892
88422W        W47683  35.945  11.680  12.476
88423W        W47684   6.424  42.326  12.033
88424W        W47685  43.019  44.923  10.990
88425W        W47686  42.777  16.761  13.461
88426W        W47687  33.104  43.459   1.394
88427W        W47688  40.309  39.022  12.546
88428W        W47689  16.224  30.920  13.455
88429W        W47690  32.119  20.168  14.999
88430W        W47691  19.125  12.694   2.791
88431W        W47692  12.139  40.821  10.604
88432W        W47693  30.027  37.536  12.873
88433W        W47694  28.042  13.291  12.036
88434W        W47695   8.734  13.654  13.008
88435W        W47696   0.249   0.417  12.960
88436W        W47697  21.211  38.329   3.377
88437W        W47698  14.792  39.820   0.449
88438W        W47699  26.157  43.017   3.657
88439W        W47700  25.217   8.359   0.380
88440W        W47701  21.615  14.733   3.354
88441W        W47702   9.199  21.753   2.697
88442W        W47703  30.588  14.687   4.257
88443W        W47704  12.768  12.715  12.921
88444W        W47705  40.806   1.270  10.502
88445W        W47706  43.516  23.000   1.865
88446W        W47707  29.089  37.352   2.386
88447W        W47708  18.574  35.422  12.935
88448W        W47709  37.440   8.857   1.276
88449W        W47710  31.535  32.525  14.437
88450W        W47711   4.727  18.696  14.933
88451W        W47712  34.579  37.031  13.980
88452W        W47713   9.356  26.131  14.384
88453W        W47714  27.128  27.967   1.404
88454W        W47715  42.826   5.850  14.409
88455W        W47716  44.384  23.625  11.526
88456W        W47717  35.550  17.291  10.592
88457W        W47718  24.547  35.483  11.863
88458W        W47719  26.074  27.193  12.445
88459W        W47720  17.236  36.041  12.085
88460W        W47721   5.377  16.597   3.328
88461W        W47722  24.558   1.796   9.616
88462W        W47723  37.964  27.481  12.435
88463W        W47724  39.331   8.853   2.861
88464W        W47725   2.383  17.669  11.597
88465W        W47726   8.749  42.504   0.754
88466W        W47727  24.184   1.921   9.487
88467W        W47728   4.369  38.899   1.285
88468W        W47729  26.000   5.315   2.789
88469W        W47730  25.208  37.882  12.946
88470W        W47731  34.418  30.480   0.832
88471W        W47732   2.919  30.444   0.834
88472W        W47733  17.603  18.688  11.968
88473W        W47734  24.680  13.702  14.866
88474W        W47735  42.803  32.579  13.508
88475W        W47736  12.149  35.528  11.525
88476W        W47737  14.293  13.266   3.808
88477W        W47738  19.696  27.571   3.225
88478W        W47739  41.842  42.520   0.267
88479W        W47740  36.543  15.718   4.756
88480W        W47741  25.504  10.335  10.146
88481W        W47742   1.902  14.729   3.152
88482W        W47743  32.502   1.461  12.894
88483W        W47744  44.944  37.961   9.576
88484W        W47745  33.964   6.804   2.196
88485W        W47746  33.467  22.061   1.932
88486W        W47747   2.735  22.182  11.916
88487W        W47748  17.792   6.371  14.816
88488W        W47749  13.823   8.383  12.032
88489W        W47750  43.927  18.202   1.821
88490W        W47751  18.199   6.338  13.005
88491W        W47752  28.089  41.914  12.376
88492W        W47753  33.399   8.815  12.978
88493W        W47754  42.858  42.994  12.404
88494W        W47755  24.175  12.773  11.456
88495W        W47756  13.184   0.449  14.424
88496W        W47757  43.896  27.065   0.269
88497W        W47758  15.272  37.447  13.337
88498W        W47759  32.082  27.997   0.283
88499W        W47760  12.846  42.319   4.735
88500W        W47761   2.339  42.006  13.328
88501W        W47762   1.305  19.239  12.949
88502W        W47763  27.617   3.293   0.466
88503W        W47764  40.011  16.137   1.911
88504W        W47765   1.420  30.451  11.539
88505W        W47766  43.922  37.520   1.336
88506W        W47767  17.114  25.134   2.290
88507W        W47768  25.202  23.130   0.433
88508W        W47769  34.907  25.031  13.817
88509W        W47770  19.592  28.496   3.163
88510W        W47771  31.918   4.292   4.823
88511W        W47772  37.570  20.199   2.299
88512W        W47773   2.257  12.794   1.424
88513W        W47774  10.671  25.060  12.012
88514W        W47775   3.807  12.851  14.446
88515W        W47776  24.623   6.783  13.030
88516W        W47777  11.755  23.734   2.269
88517W        W47778  14.099  39.924   4.738
88518W        W47779  11.810  22.103   3.257
88519W        W47780  14.277   3.247  13.026
88520W        W47781  39.017  37.552   2.328
88521W        W47782  40.022  14.646   2.402
88522W        W47783  17.246  41.297   5.291
88523W        W47784   0.273  38.940   4.639
88524W        W47785  22.632  18.748   5.222
88525W        W47786  32.548  20.585  14.904
88526W        W47787  38.434   8.669   3.292
88527W        W47788  30.581   6.313  14.382
88528W        W47789   7.301  41.811  10.627
88529W        W47790  32.103   4.307  14.356
88530W        W47791  24.547   9.691   0.763
88531W        W47792  10.862  32.585   1.894
88532W        W47793   5.704  15.637  12.437
88533W        W47794   9.881  10.871  13.995
88534W        W47795  22.694  32.985  11.917
88535W        W47796  30.006  42.871   0.911
88536W        W47797  39.003  22.236   5.119
88537W        W47798  18.667  26.156   3.811
88538W        W47799  34.398   6.276   4.814
88539W        W47800   3.835  13.657   2.767
88540W        W47801   5.878  10.374   4.729
88541W        W47802  15.612  38.504  13.399
88542W        W47803  18.626  33.977  10.406
88543W        W47804  27.661  18.647  10.465
88544W        W47805  26.061  42.847  11.553
88545W        W47806  40.971   1.942  12.004
88546W        W47807  34.001  38.534  12.511
88547W        W47808  37.427   6.393  10.964
88548W        W47809  42.310  21.587   0.878
88549W        W47810   7.796   1.822  10.087
88550W        W47811  20.649   9.205   4.737
88551W        W47812  12.803  28.985  10.494
88552W        W47813  18.746   1.481  14.299
88553W        W47814   9.677  22.040  10.920
88554W        W47815  40.991  27.180  12.826
88555W        W47816  34.000   7.883   4.287
88556W        W47817  28.115   3.721   0.923
88557W        W47818   1.344   7.883   3.204
88558W        W47819   3.439  16.623  13.426
88559W        W47820   7.280  42.324   0.342
88560W        W47821  21.649  38.358  10.639
88561W        W47822  16.615   0.386   1.777
88562W        W47823  28.953  30.464   1.906
88563W        W47824  14.688   9.804   2.707
88564W        W47825  35.081  44.311  11.998
88565W        W47826  27.586  20.170   1.306
88566W        W47827  25.636  42.905  10.425
88567W        W47828  21.604  44.363  10.121
88568W        W47829  41.874  44.794  13.819
88569W        W47830   0.850  19.235   0.819
88570W        W47831  42.798   7.365   0.301
88571W        W47832  38.896  40.808   3.287
88572W        W47833   5.361  27.142  13.980
88573W        W47834  32.985   7.814  12.394
88574W        W47835  41.033   0.792  14.025
88575W        W47836   7.186  16.651   3.287
88576W        W47837  44.386   2.757   4.178
88577W        W47838  39.960  25.604   1.236
88578W        W47839  18.137  26.469  14.450
88579W        W47840  29.431   4.303   0.893
88580W        W47841  23.625  20.720   1.297
88581W        W47842  16.185  16.639  11.575
88582W        W47843   5.234  13.793  11.606
88583W        W47844  18.719  43.288   3.383
88584W        W47845  24.032  17.601   4.802
88585W        W47846  20.573  34.497  11.508
88586W        W47847  38.543  12.629   3.708
88587W        W47848  37.950  36.455   3.669
88588W        W47849   1.275  34.610  12.968
88589W        W47850  28.594  27.169  12.498
88590W        W47851  32.971   2.234   0.888
88591W        W47852  32.559  15.733   0.360
88592W        W47853   8.224  38.557  14.882
88593W        W47854  30.618  41.823   4.682
88594W        W47855  13.250   3.410   0.846
88595W        W47856  17.758  23.545  14.022
88596W        W47857  24.077  21.566   0.960
88597W        W47858  42.284   7.682  10.981
88598W        W47859   8.229  23.664  12.558
88599W        W47860   5.880  18.635  13.347
88600W        W47861  33.446  41.821  11.545
88601W        W47862  36.095  16.799   0.343
88602W        W47863   0.340  34.065  13.860
88603W        W47864  32.947   4.251  10.576
88604W        W47865  11.190  44.001  10.938
88605W        W47866  42.515  36.531   2.715
88606W        W47867   6.270   3.329   2.252
88607W        W47868  35.920  22.735   3.324
88608W        W47869   4.373  11.727  11.068
88609W        W47870  25.523   5.196   1.224
88610W        W47871   0.955  21.250  10.061
88611W        W47872  15.286  30.640  14.329
88612W        W47873  23.166  44.321   3.334
88613W        W47874  17.188  32.519  11.899
88614W        W47875  12.658  16.705   2.346
88615W        W47876  29.664  31.103  10.428
88616W        W47877  36.587  31.055  11.035
88617W        W47878  25.106  11.136  13.061
88618W        W47879  16.121  31.555   4.610
88619W        W47880  38.346  25.097  12.535
88620W        W47881   6.788   0.863   3.324
88621W        W47882  16.636  37.408   0.336
88622W        W47883  21.552  40.353  12.911
88623W        W47884  25.058  15.136  13.499
88624W        W47885  35.560   7.286  13.507
88625W        W47886  40.800  33.098   0.859
88626W        W47887  14.814  34.075   3.379
88627W        W47888  31.441  14.310  13.426
88628W        W47889   3.826   6.785   2.272
88629W        W47890  10.782   9.215  14.479
88630W        W47891  16.293  23.527  12.531
88631W        W47892  12.700  40.514   1.255
88632W        W47893  12.300  36.841   2.324
88633W        W47894  20.582  25.161  13.309
88634W        W47895  23.503  20.068  14.990
88635W        W47896  24.624   3.880  13.970
88636W        W47897  24.696  36.416  12.834
88637W        W47898  39.405   4.249   0.759
88638W        W47899  15.820  27.663  13.349
88639W        W47900  37.384  41.376  13.807
88640W        W47901   9.789  35.375   3.354
88641W        W47902  11.636   8.861   3.330
88642W        W47903  21.189  24.499  12.436
88643W        W47904  12.711  38.062  13.791
88644W        W47905  24.021  41.370   1.931
88645W        W47906   9.353  15.263   3.848
88646W        W47907  35.014   4.342   2.851
88647W        W47908  12.821  23.634  12.044
88648W        W47909  44.315   7.713   2.711
88649W        W47910   3.285  34.980   5.315
88650W        W47911  32.004  18.293   2.696
88651W        W47912  21.590  19.211  11.566
88652W        W47913  20.246   2.873  13.018
88653W        W47914   5.722  27.082   4.146
88654W        W47915  35.052  43.784   0.353
88655W        W47916  24.996  25.110  14.405
88656W        W47917  13.656  29.172  13.937
88657W        W47918  18.754  12.118  11.482
88658W        W47919  17.747   7.818   3.314
88659W        W47920   9.651  41.321   4.779
88660W        W47921  31.547   2.441   3.236
88661W        W47922  33.611  40.912  13.793
88662W        W47923  28.180  28.067   1.351
88663W        W47924  28.180   2.422   1.279
88664W        W47925   8.283  40.858  12.380
88665W        W47926  33.972  25.490   3.805
88666W        W47927  38.909  44.779   1.328
88667W        W47928  29.131  42.837  12.909
88668W        W47929  19.780  23.673   0.336
88669W        W47930  41.483  34.579  11.506
88670W        W47931  14.285  28.931   1.836
88671W        W47932   8.242  10.220  10.419
88672W        W47933  12.256  16.766  10.897
88673W        W47934  37.878  42.820   0.824
88674W        W47935  40.431  44.946   4.801
88675W        W47936   9.890  24.994  12.461
88676W        W47937  31.522  26.569  12.377
88677W        W47938  10.862  34.434   3.819
88678W        W47939  20.239   6.203   0.359
88679W        W47940  32.523  26.700   4.164
88680W        W47941  42.325  14.733  13.354
88681W        W47942  40.548  25.697  14.982
88682W        W47943   8.772  39.029  10.505
88683W        W47944  38.535  38.360  12.031
88684W        W47945  32.435  19.588   1.318
88685W        W47946  44.928   0.312  12.933
88686W        W47947   8.342  26.155   2.373
88687W        W47948   3.334   7.722   2.191
88688W        W47949   0.921  34.466  10.018
88689W        W47950  44.443  28.633   2.881
88690W        W47951  42.033  41.368  10.053
88691W        W47952  23.567  44.952  10.642
88692W        W47953  17.163  14.249  13.504
88693W        W47954  37.358   3.931   4.704
88694W        W47955   2.241  27.145   4.285
88695W        W47956   7.312  29.003  14.988
88696W        W47957  40.045   9.693  14.342
88697W        W47958   4.816   6.722  12.449
88698W        W47959  36.439  32.469  12.933
88699W        W47960   9.264  39.059   4.801
88700W        W47961  44.900   5.325   3.214
88701W        W47962  32.483  21.240  14.935
88702W        W47963  37.080  21.699   4.611
88703W        W47964  41.356  16.632  12.509
88704W        W47965   3.811  16.266  12.921
88705W        W47966  30.619   4.342   0.337
88706W        W47967  19.569   0.799   1.917
88707W        W47968  17.306  31.929  14.996
88708W        W47969  26.146   5.911  12.515
88709W        W47970   9.277  13.708   3.842
88710W        W47971  16.761  33.614  11.568
88711W        W47972  23.505  25.638  14.764
88712W        W47973  27.978   0.420  13.817
88713W        W47974   4.932   8.406  10.971
88714W        W47975  14.201  28.671   4.248
88715W        W47976  32.952  43.286   3.291
88716W        W47977  26.644  11.706   2.745
88717W        W47978  40.852  14.231  14.404
88718W        W47979  15.154  35.507   1.861
88719W        W47980  27.590  22.019  12.445
88720W        W47981   6.286  22.240   4.323
88721W        W47982  27.192   4.869  11.468
88722W        W47983  35.910   7.331  14.781
88723W        W47984  10.848  20.163  10.506
88724W        W47985  34.989  20.545  14.345
88725W        W47986  39.820  19.278  13.419
88726W        W47987  21.718   5.302   3.800
88727W        W47988  36.548  14.141  14.332
88728W        W47989  31.134  14.281   1.730
88729W        W47990  24.580  24.568  12.508
88730W        W47991  31.469   9.813   1.899
88731W        W47992   8.220   5.841  14.785
88732W        W47993  32.513  21.719   1.850
88733W        W47994   5.881  20.247   2.353
88734W        W47995  25.643  33.009   1.236
88735W        W47996  35.062   6.793   3.676
88736W        W47997  12.831  43.492  11.040
88737W        W47998  44.811  40.832  12.365
88738W        W47999   3.934  34.534  12.925
88739W        W48000  30.427   7.373  14.317
88740W        W48001  41.024  39.881  11.103
88741W        W48002   1.966  42.832  13.045
88742W        W48003   2.421  33.568  13.057
88743W        W48004  11.229  16.737   4.662
88744W        W48005  42.822  23.034  14.912
88745W        W48006  38.974  12.654  13.837
88746W        W48007  23.004  22.157   2.706
88747W        W48008   0.283  14.251  14.394
88748W        W48009   9.376  24.087   1.296
88749W        W48010  28.182  18.297   0.387
88750W        W48011  42.814  44.888   4.739
88751W        W48012  26.955  17.185  12.370
88752W        W48013  22.726   4.428   2.321
88753W        W48014  12.679   2.347  10.914
88754W        W48015  19.077  12.136  13.493
88755W        W48016   1.248   6.923  13.867
88756W        W48017  34.535  32.611  10.471
88757W        W48018  12.664  38.962  10.954
88758W        W48019  26.564  34.581  12.392
88759W        W48020  36.480  28.053   1.334
88760W        W48021  18.709  14.714  10.605
88761W        W48022  43.271  38.499  12.405
88762W        W48023  24.541  10.729  13.971
88763W        W48024  10.255  35.466   4.131
88764W        W48025  24.206  24.011  14.006
88765W        W48026  30.450  37.490   3.372
88766W        W48027  28.565   3.778  14.993
88767W        W48028   9.861  16.287   3.795
88768W        W48029  33.058  42.832  12.827
88769W        W48030  28.491  33.496   3.197
88770W        W48031  14.282  11.370  11.973
88771W        W48032  26.021  39.014   1.833
88772W        W48033   0.947  28.596  12.424
88773W        W48034  25.508  35.061  14.793
88774W        W48035  14.217  18.137   3.748
88775W        W48036  30.128  37.045   3.196
88776W        W48037  39.826  17.232  13.828
88777W        W48038   1.350  10.872   1.851
88778W        W48039  30.460  20.231  11.506
88779W        W48040  44.875  13.175  13.377
88780W        W48041   7.851  32.419   2.757
88781W        W48042   4.278   8.278  11.386
88782W        W48043  18.586  29.643   3.692
88783W        W48044  17.152   2.851  10.583
88784W        W48045  42.298  15.325  12.526
88785W        W48046  26.117  28.068  14.004
88786W        W48047   2.233  38.034   1.331
88787W        W48048  29.071  31.899  11.019
88788W        W48049  43.840  40.346   4.326
88789W        W48050  20.033  35.397  11.547
88790W        W48051  43.317  44.820   4.711
88791W        W48052   9.247  20.094  12.549
88792W        W48053  42.844  27.123  14.893
88793W        W48054   2.899   7.321  12.407
88794W        W48055  43.490  22.204  14.308
88795W        W48056   7.367  23.714   0.330
88796W        W48057  18.128  33.417  11.423
88797W        W48058  30.955  30.137  11.562
88798W        W48059  35.475  13.240   4.195
88799W        W48060   3.721   0.422  14.371
88800W        W48061  21.097   3.416   3.832
88801W        W48062  33.598  44.912  13.498
88802W        W48063   9.665   8.363  13.372
88803W        W48064  41.454  10.878   0.384
88804W        W48065   1.734  31.115  11.541
88805W        W48066  28.601  11.839   4.638
88806W        W48067   1.290  15.151   2.230
88807W        W48068  18.132   9.375  13.064
88808W        W48069   8.194  30.969  14.788
88809W        W48070  10.652  35.401   1.265
88810W        W48071   7.844  41.448   0.744
88811W        W48072  41.981  34.935   0.334
88812W        W48073  36.433  10.743   2.208
88813W        W48074  17.614  22.593   5.126
88814W        W48075  16.753  31.480   3.284
88815W        W48076   6.813  32.141   4.805
88816W        W48077   5.435   1.351  10.605
88817W        W48078  40.375   9.288  14.982
88818W        W48079  12.185  10.744  14.282
88819W        W48080  19.676  34.107   2.724
88820W        W48081  42.821  19.766   4.348
88821W        W48082  22.732   8.222  11.856
88822W        W48083   1.925  25.692  13.960
88823W        W48084  27.046  21.101   4.669
88824W        W48085  30.538  12.705   3.750
88825W        W48086  12.264  35.032   3.643
88826W        W48087   6.719  34.104  11.454
88827W        W48088   5.300  17.800  12.975
88828W        W48089   6.209  16.752   1.234
88829W        W48090  18.780  42.899  11.962
88830W        W48091  20.577   8.796   1.789
88831W        W48092  14.320  21.215   0.439
88832W        W48093  10.760   5.295  14.334
88833W        W48094  12.246  11.318   3.634
88834W        W48095  41.000  24.113  13.972
88835W        W48096  35.900  35.941   4.630
88836W        W48097  37.366   4.318   3.684
88837W        W48098   0.963   2.340   4.321
88838W        W48099  36.002   4.283  12.448
88839W        W48100  32.908  18.182  10.542
88840W        W48101  31.092  18.195  11.414
88841W        W48102  11.339  32.594   4.825
88842W        W48103   6.827  14.828   2.898
88843W        W48104  10.633  24.068   0.268
88844W        W48105  43.798  27.538  14.897
88845W        W48106  27.039  17.655   2.419
88846W        W48107  29.430   4.224  11.435
88847W        W48108   0.332  40.444   2.211
88848W        W48109  42.471  38.543   9.499
88849W        W48110  35.522  15.152  10.895
88850W        W48111  22.228  19.644   3.668
88851W        W48112   0.458  41.392   1.374
88852W        W48113  16.738  14.683   1.888
88853W        W48114   3.850   2.329  10.612
88854W        W48115   1.831  23.650   4.257
88855W        W48116  15.303  35.029  12.419
88856W        W48117   6.256  38.412   3.229
88857W        W48118  24.082  36.859   3.867
88858W        W48119  23.704  35.105  10.468
88859W        W48120  19.238  26.130  12.059
88860W        W48121  42.994   1.376   4.699
88861W        W48122   6.400  41.371  10.939
88862W        W48123  26.583  31.444   2.275
88863W        W48124  30.007  11.828   1.749
88864W        W48125   7.728   0.951   0.884
88865W        W48126  24.134  16.238   2.751
88866W        W48127  29.628  18.244   3.274
88867W        W48128  20.630   7.179  12.576
88868W        W48129   8.880  23.170  12.408
88869W        W48130  24.590  32.126  12.827
88870W        W48131  16.697   4.794   0.439
88871W        W48132  19.577   0.464   1.250
88872W        W48133   3.908  13.599   4.254
88873W        W48134  23.554   9.717  12.968
88874W        W48135  11.251  39.527  10.591
88875W        W48136  39.406  15.277  14.498
88876W        W48137  42.022  21.518  11.391
88877W        W48138  17.784  20.218   1.718
88878W        W48139   2.826  31.994   3.268
88879W        W48140   8.816  12.270  13.403
88880W        W48141  29.996   1.940   4.214
88881W        W48142  41.859  23.004  10.917
88882W        W48143  21.210  22.607   3.718
88883W        W48144  11.826  28.670  14.445
88884W        W48145  17.298  15.777   3.359
88885W        W48146  31.947  20.580  12.442
88886W        W48147   4.447  42.383   1.308
88887W        W48148  28.625  20.182  14.431
88888W        W48149  21.040   5.249  11.063
88889W        W48150  18.157  11.663   0.481
88890W        W48151  38.443   5.818  11.075
88891W        W48152  15.104  39.523   4.251
88892W        W48153   2.879  22.659   0.849
88893W        W48154   2.873  42.434  14.920
88894W        W48155   5.829  34.863   1.699
88895W        W48156  13.689   0.959  13.478
88896W        W48157  28.157   6.301  13.449
88897W        W48158   4.259   7.341   3.283
88898W        W48159  26.566  12.282  11.009
88899W        W48160  23.614  26.058   4.653
88900W        W48161  27.167  32.915   2.247
88901W        W48162  21.520  21.055  11.472
88902W        W48163  42.308   0.400   3.673
88903W        W48164  36.932  38.473   1.745
88904W        W48165  26.500   0.961  13.405
88905W        W48166  19.739  22.566   3.176
88906W        W48167  34.004  18.586  10.520
88907W        W48168   6.302  26.635  13.003
88908W        W48169  25.618   2.394   4.600
88909W        W48170   0.311  24.696   5.086
88910W        W48171  24.016  17.570   0.811
88911W        W48172  35.099   1.480  12.072
88912W        W48173  12.749   7.271  14.307
88913W        W48174   2.342  24.513  12.578
88914W        W48175  37.871  42.988  10.450
88915W        W48176  16.151  25.105   0.734
88916W        W48177  32.417  18.148  12.934
88917W        W48178  35.981   5.203  12.519
88918W        W48179  10.218  31.634  11.413
88919W        W48180  23.673   8.383   2.693
88920W        W48181  27.669  28.019  13.965
88921W        W48182   3.218  15.711  13.839
88922W        W48183   9.255   3.939   3.806
88923W        W48184  31.027  42.316   4.768
88924W        W48185  20.229  25.535   3.851
88925W        W48186  30.432  10.335   4.181
88926W        W48187  15.208  35.405   2.344
88927W        W48188  27.062   1.337   3.842
88928W        W48189  19.645  43.867  14.462
88929W        W48190  10.799  15.309   2.771
88930W        W48191   4.786   3.816  11.525
88931W        W48192  26.055   8.195   1.250
88932W        W48193   5.195  27.094   0.913
88933W        W48194   1.817  38.963  14.352
88934W        W48195  24.997   6.757  14.959
88935W        W48196  20.222  35.424  15.000
88936W        W48197  28.527   4.759  13.935
88937W        W48198  21.111   7.895   4.259
88938W        W48199  31.090  31.903  11.123
88939W        W48200  14.335  36.872   1.419
88940W        W48201   7.823  17.270  14.406
88941W        W48202  42.516   8.172  13.798
88942W        W48203  44.303  17.771  12.903
88943W        W48204   6.291   4.331  10.539
88944W        W48205  40.526   5.356   4.205
88945W        W48206   4.700  20.642   3.769
88946W        W48207  44.791  24.665   5.597
88947W        W48208  24.060  21.083   3.665
88948W        W48209  31.038  18.676   0.253
88949W        W48210   6.817  38.934   3.213
88950W        W48211  13.781   5.815  14.922
88951W        W48212  34.037   9.208   3.377
88952W        W48213  37.527  31.544   3.869
88953W        W48214  28.453  19.611   2.194
88954W        W48215  17.093  18.076  13.415
88955W        W48216  42.373  20.551   2.330
88956W        W48217  14.322  30.138  12.078
88957W        W48218  32.499  20.118   4.282
88958W        W48219  18.781  23.056   0.906
88959W        W48220   8.871   0.817   0.806
88960W        W48221  32.399  15.238  12.937
88961W        W48222   4.848  43.895   2.778
88962W        W48223  29.457  32.964   1.709
88963W        W48224  21.184   1.833   3.363
88964W        W48225  35.083   8.665   3.268
88965W        W48226  26.018  14.218   4.177
88966W        W48227  31.965   1.845  10.580
88967W        W48228  14.823  17.615  12.075
88968W        W48229  10.688  34.588  13.942
88969W        W48230   9.359   8.250  14.419
88970W        W48231  28.119  22.550   2.228
88971W        W48232  20.547  28.602   3.733
88972W        W48233  37.502   9.756  10.999
88973W        W48234  30.941   8.662  13.011
88974W        W48235  21.561   9.203  13.947
88975W        W48236  13.130  13.246  12.555
88976W        W48237  13.145  24.982  14.764
88977W        W48238   0.313  11.226   0.470
88978W        W48239  31.950  18.125   0.940
88979W        W48240  30.471  16.158  11.421
88980W        W48241  17.118  25.065   0.385
88981W        W48242  26.191  17.780   0.296
88982W        W48243  15.213  37.567   5.272
88983W        W48244  37.880  15.167   4.701
88984W        W48245  33.085  32.425   0.323
88985W        W48246   9.161  11.299   4.694
88986W        W48247  40.849  37.071   4.631
88987W        W48248  29.035   5.771   1.274
88988W        W48249   8.370  11.195  14.932
88989W        W48250  32.129  40.426   5.122
88990W        W48251   6.402   4.423  13.879
88991W        W48252  21.537   8.712  11.994
88992W        W48253   0.763  14.094   2.804
88993W        W48254  12.220   6.706  11.548
88994W        W48255  19.778  35.466   3.647
88995W        W48256  33.544   0.356   1.426
88996W        W48257  19.157  15.151  14.847
88997W        W48258  28.502  33.466   2.312
88998W        W48259  15.315  34.567   1.770
88999W        W48260  24.041  30.050   4.638
89000W        W48261  33.965   2.746   2.400
89001W        W48262   0.409   1.908  11.049
89002W        W48263  26.011  21.202   0.440
89003W        W48264  32.937  29.015  14.389
89004W        W48265  20.070  42.845   3.826
89005W        W48266  39.866  21.612  13.460
89006W        W48267   9.362  17.213   1.819
89007W        W48268  17.651  36.917   4.198
89008W        W48269   0.402   8.233  12.413
89009W        W48270   9.234  17.596  13.323
89010W        W48271  15.289  37.071  13.014
89011W        W48272  22.580   6.225   1.344
89012W        W48273   8.225   2.468  10.995
89013W        W48274  40.363  32.892  11.516
89014W        W48275  23.498  33.877  12.428
89015W        W48276  10.644  14.224  13.050
89016W        W48277  27.511   7.201  13.505
89017W        W48278  24.116  34.441   4.826
89018W        W48279   9.666   6.276  12.899
89019W        W48280  42.520  32.569  14.784
89020W        W48281  22.568  29.508  11.999
89021W        W48282  38.893  42.421  13.033
89022W        W48283  39.941  38.821  11.995
89023W        W48284  10.211  11.853   0.818
89024W        W48285  17.306  39.414  14.486
89025W        W48286  25.065  39.407   4.662
89026W        W48287  38.041  43.830  13.504
89027W        W48288  13.169   6.874  10.629
89028W        W48289   8.831  43.381  13.416
89029W        W48290  26.692  15.650   1.408
89030W        W48291   5.857   0.964   4.805
89031W        W48292  35.400  25.635   0.349
89032W        W48293   0.275  29.024   2.276
89033W        W48294  22.659   9.376   2.872
89034W        W48295  44.931  40.512   4.234
89035W        W48296  37.339  43.512  14.944
89036W        W48297  42.849   6.393  10.474
89037W        W48298  33.032  13.825  12.028
89038W        W48299  44.856   3.430   4.288
89039W        W48300   6.375  43.388   2.255
89040W        W48301  41.296  33.402  13.950
89041W        W48302  36.564   8.173   0.468
89042W        W48303   5.284  13.647  10.579
89043W        W48304  25.167  16.186   4.614
89044W        W48305  13.607   8.182  14.778
89045W        W48306   8.197  33.875  12.446
89046W        W48307   0.743   8.304  10.943
89047W        W48308  16.708   3.885  11.960
89048W        W48309  14.101  35.854  14.839
89049W        W48310  19.698  22.587   2.225
89050W        W48311  43.869   4.334   3.638
89051W        W48312  32.470  31.470   1.342
89052W        W48313  40.879   9.152   3.202
89053W        W48314  27.182  29.918   0.351
89054W        W48315  20.660  27.587   3.294
89055W        W48316  37.953   7.251   0.257
89056W        W48317  32.448  15.257   4.227
89057W        W48318  34.995  37.986   3.791
89058W        W48319  22.018  38.462  14.325
89059W        W48320  11.154  18.163   4.806
89060W        W48321  31.076  22.664  13.911
89061W        W48322  10.235  35.515   4.713
89062W        W48323  14.645   1.930   0.820
89063W        W48324  32.637  31.019   1.886
89064W        W48325  28.517   8.254   1.236
89065W        W48326  28.548   7.850   2.666
89066W        W48327  31.947  13.738   1.740
89067W        W48328  20.138  32.445   1.747
89068W        W48329  41.519  10.708  14.810
89069W        W48330  44.292  13.670  10.958
89070W        W48331   8.831  13.234  12.905
89071W        W48332  33.390  44.498  10.461
89072W        W48333  27.946  33.978   4.303
89073W        W48334  38.836  30.650   0.961
89074W        W48335  27.595  44.372   0.801
89075W        W48336  15.104   2.819  11.573
89076W        W48337   9.281  21.109  11.442
89077W        W48338  32.422  11.226  12.579
89078W        W48339  39.394   8.180  14.324
89079W        W48340  23.627  29.513   3.736
89080W        W48341  24.629   2.261   5.269
89081W        W48342  22.621  13.796  11.435
89082W        W48343   1.829   3.302   3.708
89083W        W48344  43.903  31.626   3.840
89084W        W48345  24.647  37.887   0.968
89085W        W48346  19.609  44.993   3.767
89086W        W48347  12.173  37.530  10.435
89087W        W48348  44.794  17.106  12.049
89088W        W48349   7.712   7.237  11.416
89089W        W48350  41.465  39.879   4.711
89090W        W48351  21.607  12.175  11.481
89091W        W48352  19.736  38.979   1.923
89092W        W48353  33.000  36.397   3.301
89093W        W48354  28.502  32.473  12.018
89094W        W48355  42.291  13.323  12.077
89095W        W48356   0.764  44.294   4.778
89096W        W48357  22.209  29.110  11.432
89097W        W48358  33.494   8.342   2.699
89098W        W48359  30.622  18.551  12.035
89099W        W48360  35.598  12.648   2.228
89100W        W48361  16.148  27.537  10.452
89101W        W48362  42.303   8.697  14.317
89102W        W48363  19.149  44.857  11.067
89103W        W48364  41.843   3.263  14.356
89104W        W48365  23.576  38.483  11.603
89105W        W48366   4.933  43.921   4.737
89106W        W48367   3.713  25.595  14.912
89107W        W48368  18.598  16.277   4.297
89108W        W48369  15.119  21.066  13.977
89109W        W48370  22.197   4.903  12.916
89110W        W48371   6.877   9.153  14.771
89111W        W48372  11.866   5.347   4.797
89112W        W48373  35.050  30.912   0.926
89113W        W48374  40.331  43.929   1.836
89114W        W48375  20.560  25.182  14.877
89115W        W48376  19.722  25.643   1.883
89116W        W48377  23.677   1.440   4.714
89117W        W48378  19.051  15.674  11.477
89118W        W48379  11.839  38.362   1.862
89119W        W48380  37.902   2.891  10.499
89120W        W48381   7.289   6.378   2.403
89121W        W48382  40.522  13.348   4.759
89122W        W48383  36.887   7.899  12.958
89123W        W48384  15.120  41.006  14.003
89124W        W48385  40.386  37.419  13.026
89125W        W48386  24.082  42.376  12.072
89126W        W48387   6.221  41.529  13.466
89127W        W48388  28.022  43.896   0.766
89128W        W48389  44.345  32.063   5.223
89129W        W48390  31.968  31.134   1.413
89130W        W48391  36.053  20.211   3.380
89131W        W48392  40.964  43.770  12.993
89132W        W48393   1.847  32.568   2.682
89133W        W48394  38.925  20.157  12.491
89134W        W48395  17.701   7.357  12.093
89135W        W48396   0.350  38.037  14.801
89136W        W48397  15.717  33.061   0.271
89137W        W48398  30.502   2.263   3.384
89138W        W48399   5.336  39.355  10.954
89139W        W48400  21.138   9.846   4.290
89140W        W48401  38.344  24.150  14.325
89141W        W48402   6.322   2.790   1.823
89142W        W48403  26.564  37.462   3.739
89143W        W48404  40.951  27.635   0.839
89144W        W48405   9.199  31.606   3.179
89145W        W48406  43.342   3.732   3.333
89146W        W48407   1.822   8.890  14.997
89147W        W48408   5.296  35.393   1.695
89148W        W48409  23.583  40.926  10.584
89149W        W48410  37.453  16.176  11.555
89150W        W48411  29.974  17.235  12.067
89151W        W48412  40.318   8.810   2.371
89152W        W48413  44.902   5.277  12.934
89153W        W48414   6.809  33.605  12.086
89154W        W48415   3.890  36.079   2.353
89155W        W48416   1.302  31.137   0.835
89156W        W48417  15.254  40.440  12.872
89157W        W48418  30.442  33.914  13.386
89158W        W48419  19.734  43.465  12.989
89159W        W48420  42.313   6.744  10.426
89160W        W48421  12.146  42.475   4.760
89161W        W48422  40.798   4.401   3.309
89162W        W48423  30.525   3.253   0.961
89163W        W48424  29.428  44.776  11.400
89164W        W48425  19.683  11.710  14.957
89165W        W48426  26.076  29.642  10.420
89166W        W48427  25.005  31.128   3.696
89167W        W48428  42.003  22.141   2.724
89168W        W48429   5.318  39.318   1.221
89169W        W48430   6.744   1.361  12.015
89170W        W48431   4.287  32.532  13.369
89171W        W48432  16.646  17.094   1.822
89172W        W48433  34.104  33.422   1.844
89173W        W48434  23.513  29.570  12.071
89174W        W48435  40.808  39.534   0.368
89175W        W48436  18.205   0.493  13.415
89176W        W48437  22.126   9.199   3.680
89177W        W48438   5.908  12.759  13.531
89178W        W48439  26.628  20.575   0.854
89179W        W48440  42.001  27.481   1.932
89180W        W48441  16.166  42.405   3.325
89181W        W48442  13.126  44.858   3.146
89182W        W48443  44.308   8.722   4.243
89183W        W48444   9.301  27.456   3.234
89184W        W48445   4.700  22.546  11.485
89185W        W48446  19.550  39.428   4.692
89186W        W48447  12.239  24.523   3.156
89187W        W48448  10.155  42.008   3.335
89188W        W48449   2.464   2.412  13.462
89189W        W48450  16.166  12.722   2.689
89190W        W48451  37.502  43.385  11.974
89191W        W48452  43.964  28.045  11.608
89192W        W48453  34.004  32.028  10.452
89193W        W48454  29.993   1.389  10.533
89194W        W48455  32.109  12.242   5.318
89195W        W48456  18.719  22.147   3.269
89196W        W48457  12.222  27.542  14.779
89197W        W48458   6.387  30.454  11.554
89198W        W48459  38.029   2.425   0.908
89199W        W48460  35.961  17.799  14.847
89200W        W48461  42.358  41.388  12.087
89201W        W48462  34.492  31.493   0.335
89202W        W48463  20.090  18.768  12.885
89203W        W48464  41.824   6.811   3.663
89204W        W48465  21.724  44.000  10.522
89205W        W48466   7.809   1.370   1.764
89206W        W48467   3.295  44.992   2.402
89207W        W48468  25.623   6.819   2.697
89208W        W48469  38.833  44.915  14.397
89209W        W48470  16.206   0.253  14.462
89210W        W48471  20.601  34.911   2.864
89211W        W48472   9.221   3.813  11.024
89212W        W48473  16.574   7.907  11.600
89213W        W48474  38.372  17.287  11.080
89214W        W48475  32.111  28.931   3.374
89215W        W48476  42.977   1.902   4.116
89216W        W48477  44.411   0.845   4.320
89217W        W48478   1.355  42.782   1.739
89218W        W48479  28.150  39.022   3.846
89219W        W48480  18.748  26.592   2.293
89220W        W48481   8.779  30.518   1.840
89221W        W48482   4.828  26.632   3.782
89222W        W48483  38.464  23.658  12.414
89223W        W48484  37.408  44.992   3.644
89224W        W48485  15.794  32.890   3.796
89225W        W48486  21.186  43.339  13.819
89226W        W48487  26.600  35.389   1.875
89227W        W48488   0.764  25.021  13.470
89228W        W48489  44.283  33.442   5.164
89229W        W48490   7.296  36.537   2.661
89230W        W48491  33.921  30.480  12.030
89231W        W48492  27.503   9.292   2.400
89232W        W48493  15.750   4.234   0.255
89233W        W48494  28.672  11.145   3.185
89234W        W48495   4.449  30.517  13.816
89235W        W48496  21.650  39.444  11.905
89236W        W48497  24.126  24.486  11.856
89237W        W48498  37.930  19.542  14.505
89238W        W48499  22.092  18.781   3.209
89239W        W48500  23.699  13.286  14.350
89240W        W48501   0.875  11.664   3.702
89241W        W48502   0.773  28.957  10.625
89242W        W48503  44.970  19.590   3.643
89243W        W48504  43.439  40.406  11.602
89244W        W48505  20.235  24.102   2.826
89245W        W48506  18.069  11.720  13.064
89246W        W48507  32.549   3.724  13.538
89247W        W48508  16.194  15.099   0.903
89248W        W48509  20.127   2.294   4.690
89249W        W48510   7.700  11.804  11.022
89250W        W48511  38.872  39.461  12.514
89251W        W48512  16.130  14.618   4.673
89252W        W48513   8.393  17.224   0.860
89253W        W48514  16.277  10.278  10.146
89254W        W48515  10.666  14.789   3.192
89255W        W48516  41.005   7.682  10.412
89256W        W48517  25.646  12.839  14.939
89257W        W48518  38.936  25.196  12.955
89258W        W48519  12.613  18.706  14.980
89259W        W48520   3.734   2.912   3.677
89260W        W48521  44.345   3.414  10.639
89261W        W48522  42.494  11.843  14.823
89262W        W48523  30.995  44.483  13.917
89263W        W48524  17.151  40.466   0.836
89264W        W48525  21.228  43.947   0.750
89265W        W48526  21.615  38.003   0.380
89266W        W48527  26.529  26.958  13.796
89267W        W48528  37.945  41.904   1.751
89268W        W48529  27.662  19.170  13.544
89269W        W48530  12.208   2.308   0.412
89270W        W48531  16.655  22.666  13.001
89271W        W48532  42.970  39.330   4.648
89272W        W48533  12.814  26.106  11.409
89273W        W48534  41.896  11.816   5.091
89274W        W48535   8.737  42.864   4.322
89275W        W48536  17.062  33.454  11.423
89276W        W48537   3.895  34.924  11.577
89277W        W48538   1.919  17.745  12.543
89278W        W48539  21.746  16.673  13.336
89279W        W48540  36.395  28.129   9.957
89280W        W48541  39.056  12.306   2.336
89281W        W48542   3.355  35.456  13.514
89282W        W48543  20.600  12.841  10.635
89283W        W48544  35.531  15.753   4.675
89284W        W48545  21.207  10.797   1.713
89285W        W48546   0.406  37.563  13.991
89286W        W48547   3.277  17.228  11.970
89287W        W48548  32.508  23.991  12.463
89288W        W48549  26.655   9.366  14.340
89289W        W48550   7.383   8.242   5.313
89290W        W48551  31.478  32.095   2.698
89291W        W48552   9.824   9.168  10.912
89292W        W48553   1.384   7.703   0.729
89293W        W48554   2.344  44.395  11.125
89294W        W48555  40.002  25.058   1.734
89295W        W48556   9.205  15.142   0.863
89296W        W48557  40.427  39.815   0.860
89297W        W48558   4.936   2.825  11.017
89298W        W48559   0.399  17.203   3.183
89299W        W48560  24.647  27.678   0.935
89300W        W48561  17.768  23.235  12.569
89301W        W48562   4.210  35.862  11.072
89302W        W48563  31.084   4.254  12.579
89303W        W48564   0.893  41.490   4.264
89304W        W48565  16.286  39.376  14.507
89305W        W48566   8.864  25.498  12.458
89306W        W48567   8.797  37.068  12.995
89307W        W48568  28.522  24.524  11.888
89308W        W48569  35.042  24.209   2.390
89309W        W48570   8.688  37.509  12.942
89310W        W48571   9.376  27.162  12.974
89311W        W48572  33.525   7.215  10.526
89312W        W48573  16.088  38.828  13.406
89313W        W48574   7.879  34.403  10.101
89314W        W48575  24.188  22.602   0.922
89315W        W48576  43.451  26.064   0.912
89316W        W48577   0.744  19.626  11.936
89317W        W48578  19.101   0.436  11.906
89318W        W48579  36.964  42.934  13.036
89319W        W48580  28.618  23.582   1.250
89320W        W48581  27.070   7.910  11.114
89321W        W48582  40.977  16.644  14.783
89322W        W48583  33.009  34.523  11.023
89323W        W48584   8.691  40.549   3.715
89324W        W48585  39.431   7.888   2.194
89325W        W48586  27.578  34.085  12.959
89326W        W48587  42.394   6.317   0.481
89327W        W48588  38.945  14.618   1.432
89328W        W48589  13.141  26.568   2.268
89329W        W48590  17.572  41.797  11.980
89330W        W48591  19.570   1.260   1.794
89331W        W48592   3.864  33.432  11.887
89332W        W48593  40.407  12.213  13.487
89333W        W48594  39.855  34.921  14.797
89334W        W48595   1.266  20.591  14.024
89335W        W48596   1.480  42.465  14.481
89336W        W48597  19.151  11.682  13.378
89337W        W48598  23.507   5.419  13.994
89338W        W48599   6.758  35.860   2.368
89339W        W48600  31.482  37.470  14.780
89340W        W48601  25.070  16.146  13.353
89341W        W48602   2.945  34.381  13.998
89342W        W48603  23.602  12.803   2.753
89343W        W48604   6.818  27.061  13.052
89344W        W48605  29.938  40.877   0.913
89345W        W48606  22.699  22.549  12.378
89346W        W48607  18.104  20.575   4.149
89347W        W48608  37.974  31.422   4.697
89348W        W48609  34.020   5.248   0.409
89349W        W48610  35.033  19.632  10.145
89350W        W48611  24.051  31.070   3.287
89351W        W48612   1.278  14.690   0.925
89352W        W48613  21.741  20.189   9.993
89353W        W48614  13.194   9.832   2.398
89354W        W48615   9.354  19.651   2.728
89355W        W48616  27.666  23.494   3.322
89356W        W48617   8.166  10.154   1.810
89357W        W48618  17.269  13.133  13.921
89358W        W48619   2.949  34.607   1.877
89359W        W48620  27.940  20.257  11.597
89360W        W48621  22.663   9.349   0.895
89361W        W48622  34.871  32.490  12.395
89362W        W48623  36.965   2.428   1.270
89363W        W48624  44.845  32.076  13.538
89364W        W48625  34.419  31.559   4.206
89365W        W48626  12.360  15.287  12.970
89366W        W48627   7.798  23.567   1.903
89367W        W48628   4.442   5.419  10.452
89368W        W48629  21.062   0.972  10.074
89369W        W48630  44.985  18.216   1.700
89370W        W48631  13.723  26.677   4.329
89371W        W48632   1.337  12.167   4.323
89372W        W48633  40.376  18.551  14.927
89373W        W48634  19.167  32.115   1.288
89374W        W48635  19.589  18.287  10.576
89375W        W48636  24.514  19.139   3.808
89376W        W48637  30.632   7.391   0.328
89377W        W48638  26.048  32.431   1.928
89378W        W48639  32.410   7.902   2.280
89379W        W48640  35.075   4.796  11.075
89380W        W48641   6.714   0.865  14.311
89381W        W48642  19.585  36.936  13.383
89382W        W48643  14.234   0.859  13.337
89383W        W48644  21.152  34.397  11.566
89384W        W48645  33.414  21.141  14.455
89385W        W48646  37.081   9.259   5.182
89386W        W48647  22.549   8.771   2.392
89387W        W48648  26.489  19.249  12.069
89388W        W48649   7.909  42.846  12.013
89389W        W48650  29.617  10.177   4.138
89390W        W48651  21.051   8.751  11.429
89391W        W48652  38.024  42.892   0.292
89392W        W48653   0.755  28.998   3.653
89393W        W48654  37.970  19.721   4.195
89394W        W48655  31.103  29.105   0.901
89395W        W48656  31.636  22.142   0.903
89396W        W48657  24.700  40.907   2.228
89397W        W48658   7.900  44.956  13.948
89398W        W48659  44.294  39.447   1.788
89399W        W48660   0.904  44.476  11.960
89400W        W48661  44.474  14.247  13.486
89401W        W48662  16.598  40.853  10.557
89402W        W48663  22.136  18.119  13.358
89403W        W48664   4.257  39.334  10.534
89404W        W48665  35.069  30.590   5.250
89405W        W48666  42.827  25.033  10.041
89406W        W48667   1.279   2.316  13.448
89407W        W48668  16.307  12.812   1.903
89408W        W48669  42.416  20.560   1.241
89409W        W48670   7.215  16.605  10.947
89410W        W48671  14.139  15.792  10.502
89411W        W48672   1.330  14.194  14.454
89412W        W48673  38.450  26.148   1.389
89413W        W48674  19.276  39.886  13.818
89414W        W48675  37.009  29.073  11.862
89415W        W48676  28.120  18.236   3.375
89416W        W48677  12.319  34.528   2.388
89417W        W48678  33.400  29.926  14.031
89418W        W48679  37.087  14.819   4.175
89419W        W48680  37.484   9.207  13.499
89420W        W48681  16.666  33.484  13.837
89421W        W48682  15.724  12.155  14.396
89422W        W48683   1.461  18.771   2.192
89423W        W48684  17.125   5.800  11.941
89424W        W48685  24.147   9.865   1.845
89425W        W48686  23.497  38.435   3.251
89426W        W48687  41.363  28.552  13.926
89427W        W48688   5.689  14.187  14.998
89428W        W48689  15.772  36.480   1.441
89429W        W48690  33.574  21.063  12.513
89430W        W48691  24.689  41.475  10.551
89431W        W48692  41.868  37.073   5.749
89432W        W48693  38.828   2.451  11.388
89433W        W48694   0.788  16.730   1.881
89434W        W48695  32.396   1.815   3.334
89435W        W48696  34.901  10.814   4.258
89436W        W48697  32.408   8.735  14.490
89437W        W48698  44.972  26.083   4.634
89438W        W48699  28.657  21.236  11.984
89439W        W48700  44.883  38.336  12.990
89440W        W48701  11.769   2.342   0.902
89441W        W48702   7.682  23.180   4.315
89442W        W48703   4.857   8.291   4.163
89443W        W48704  15.323  32.999  14.291
89444W        W48705  10.859  41.043  13.537
89445W        W48706  26.132  39.860   0.729
89446W        W48707  19.701   4.900  13.339
89447W        W48708   7.239  11.350   4.771
89448W        W48709  30.151   4.327  13.975
89449W        W48710  28.568  16.121   4.149
89450W        W48711  35.859  23.150  12.371
89451W        W48712  22.122   4.421   1.276
89452W        W48713  35.927  27.600  11.123
89453W        W48714  37.889  10.375  11.102
89454W        W48715  26.622  27.569   3.376
89455W        W48716  40.440  25.470  12.044
89456W        W48717  22.184  23.692   0.793
89457W        W48718  41.468   6.818   4.127
89458W        W48719  27.099   8.245   1.931
89459W        W48720  19.233  27.633   0.311
89460W        W48721  19.772  43.396   0.955
89461W        W48722  32.583  31.586  11.987
89462W        W48723  28.576   3.802  12.932
89463W        W48724   2.408   1.432  10.909
89464W        W48725  44.394  41.464   3.251
89465W        W48726  44.389  25.524   2.781
89466W        W48727   0.766  16.089  11.427
89467W        W48728  10.840  23.065  12.876
89468W        W48729  30.945   4.245   3.317
89469W        W48730   3.804  35.368   2.728
89470W        W48731  13.772   7.265   1.333
89471W        W48732  28.186  38.431   3.292
89472W        W48733  14.727  38.892  13.867
89473W        W48734  34.570  16.779   3.277
89474W        W48735  40.890  22.503   1.818
89475W        W48736  11.199  43.358  13.820
89476W        W48737   8.886  21.063   2.716
89477W        W48738   5.274  13.313   3.324
89478W        W48739  14.232  24.224  11.966
89479W        W48740   5.701  16.735   0.414
89480W        W48741  10.173  17.162   4.786
89481W        W48742  35.027   1.324   2.884
89482W        W48743  38.473  32.595   3.230
89483W        W48744  35.904  20.756  14.814
89484W        W48745   1.460   5.769   3.193
89485W        W48746   9.716   5.238   1.865
89486W        W48747  17.205  27.178  14.427
89487W        W48748  18.698   8.742  12.984
89488W        W48749   1.251  21.599  12.471
89489W        W48750  37.436   1.368  11.070
89490W        W48751  41.420  20.759   2.318
89491W        W48752   4.825  25.086  13.019
89492W        W48753  30.021  14.315  12.453
89493W        W48754   7.241  21.564  11.873
89494W        W48755  31.443  37.336  13.960
89495W        W48756  35.061  44.990  14.796
89496W        W48757  13.840  39.947   1.763
89497W        W48758  10.160  10.347  13.313
89498W        W48759  12.677  38.405   4.162
89499W        W48760   9.151  10.374   2.413
89500W        W48761  43.449  38.888   3.692
89501W        W48762  43.841  12.116  14.333
89502W        W48763  30.638  23.005  12.955
89503W        W48764   2.798  34.502   2.728
89504W        W48765  26.514  22.134   4.780
89505W        W48766   7.245  32.058  12.006
89506W        W48767  26.957  40.513   4.218
89507W        W48768   7.243  21.093  13.800
89508W        W48769  44.342  15.741  14.450
89509W        W48770  43.013  22.656  11.870
89510W        W48771  12.714  35.956   1.450
89511W        W48772  28.074  11.788   3.250
89512W        W48773  41.999  31.909  13.398
89513W        W48774  25.123  22.564   0.858
89514W        W48775   9.240  16.206  11.590
89515W        W48776  13.279  35.485   4.136
89516W        W48777   8.869  40.372   0.429
89517W        W48778  36.357  28.975   2.841
89518W        W48779  23.698   3.224  11.015
89519W        W48780  24.030  19.661  11.541
89520W        W48781  34.057  28.564   0.359
89521W        W48782  41.839  43.925   0.428
89522W        W48783  44.426  25.603   4.670
89523W        W48784   2.407  24.136   4.697
89524W        W48785  14.819  42.309   4.648
89525W        W48786  19.672  42.832  13.969
89526W        W48787  38.510  44.378  14.465
89527W        W48788  42.391  18.260   2.808
89528W        W48789  35.489   7.883   1.748
89529W        W48790  40.990  43.002   0.792
89530W        W48791   2.423  14.707   1.695
89531W        W48792  13.119   8.712   9.982
89532W        W48793  11.365  33.066  13.978
89533W        W48794  24.030  29.989  13.529
89534W        W48795  34.960  19.586   2.225
89535W        W48796  33.494  35.430  11.004
89536W        W48797  13.675  42.497  13.984
89537W        W48798  23.095   4.773  13.051
89538W        W48799  21.032  35.979  11.079
89539W        W48800  39.477  37.339   0.379
89540W        W48801  22.648  24.685  11.411
89541W        W48802  36.998  22.570   4.723
89542W        W48803   5.406  28.932  12.853
89543W        W48804  29.512  16.736  10.535
89544W        W48805  23.997  40.532  13.413
89545W        W48806  29.965  12.248   3.667
89546W        W48807   4.398   7.319   3.731
89547W        W48808   9.723  20.192  12.457
89548W        W48809  13.825  18.061   0.911
89549W        W48810  28.963  26.131   0.866
89550W        W48811  30.940   9.729   5.774
89551W        W48812  30.534  35.444   0.266
89552W        W48813  34.933  14.099  10.481
89553W        W48814  32.508  31.592   4.208
89554W        W48815  25.197   9.348  13.455
89555W        W48816  28.990  44.858   0.796
89556W        W48817  35.589  26.478   2.244
89557W        W48818   3.307  18.123  14.829
89558W        W48819  22.044  26.960  12.885
89559W        W48820  23.663   8.219   1.426
89560W        W48821  19.605  38.975  13.960
89561W        W48822   2.231   8.782   2.689
89562W        W48823  10.289  41.899   3.802
89563W        W48824  14.240  20.091   1.311
89564W        W48825  23.553  44.841   3.659
89565W        W48826  41.834   2.855  13.361
89566W        W48827  41.383  16.713   1.717
89567W        W48828  17.220  33.997   3.657
89568W        W48829  34.524  44.965  13.013
89569W        W48830  36.907   1.261   1.774
89570W        W48831   9.329  40.545  14.019
89571W        W48832   9.718   3.422  14.909
89572W        W48833   1.414  25.651  12.860
89573W        W48834  14.202  43.329   0.341
89574W        W48835  10.825  40.340  12.367
89575W        W48836  32.026  43.972  13.864
89576W        W48837   9.773  30.495   0.403
89577W        W48838  39.520  28.978  10.987
89578W        W48839  23.534   1.905   3.193
89579W        W48840   2.228  12.116  10.916
89580W        W48841  13.257   7.793  14.357
89581W        W48842   0.361  24.659  11.128
89582W        W48843  42.444  20.229  13.433
89583W        W48844  17.106   1.960  14.794
89584W        W48845  32.416  30.087   4.350
89585W        W48846   4.889  35.451  10.573
89586W        W48847   2.402  41.366  10.441
89587W        W48848  17.797  18.673  14.458
89588W        W48849  22.710  20.059   2.185
89589W        W48850   7.741  14.796   2.333
89590W        W48851  43.792  39.012   3.299
89591W        W48852  18.629  35.442  11.018
89592W        W48853   6.318  29.447   2.750
89593W        W48854  30.441  30.152  10.486
89594W        W48855  11.863  28.184  11.011
89595W        W48856  34.020   2.408   0.340
89596W        W48857  11.685  16.659  14.316
89597W        W48858   0.399  29.015   3.757
89598W        W48859  15.806  40.397  13.927
89599W        W48860   4.804   1.736   9.980
89600W        W48861   9.378  11.786  13.368
89601W        W48862  22.712  43.978   3.649
89602W        W48863  19.567  35.409   4.838
89603W        W48864  34.094  38.425  14.456
89604W        W48865  19.092  25.561  10.480
89605W        W48866  25.046  31.484   5.198
89606W        W48867  34.084   0.888   2.380
89607W        W48868  21.698   1.445   4.237
89608W        W48869  36.004  31.618  11.882
89609W        W48870  24.522  35.393   4.820
89610W        W48871  19.702   6.856  13.376
89611W        W48872  32.078  24.986  10.097
89612W        W48873  35.915   0.776  14.443
89613W        W48874  38.505  32.556   0.259
89614W        W48875  20.565  21.131   2.735
89615W        W48876  24.069  38.447  11.038
89616W        W48877   1.854  13.706   0.428
89617W        W48878  27.095   0.474  14.990
89618W        W48879  29.541  28.614   4.351
89619W        W48880   4.386  29.059   4.132
89620W        W48881   1.411  39.047  11.905
89621W        W48882  44.909  40.048  11.459
89622W        W48883   9.263  11.662   2.255
89623W        W48884  34.101  40.503  10.615
89624W        W48885  29.591  39.549   2.869
89625W        W48886  37.538  10.731   2.241
89626W        W48887  42.937  39.332   3.150
89627W        W48888  13.188  21.695  11.085
89628W        W48889  15.751  18.545  11.541
89629W        W48890  25.176  33.419  12.870
89630W        W48891  37.434  32.598  11.531
89631W        W48892  21.729   2.393   1.771
89632W        W48893  18.732  36.965   4.693
89633W        W48894  36.856  19.610   3.726
89634W        W48895  15.809   8.211  11.602
89635W        W48896  30.056  13.702  13.342
89636W        W48897   5.338  37.839   4.158
89637W        W48898  18.054  37.837   3.733
89638W        W48899   0.313  36.374   1.407
89639W        W48900  18.184  14.703  14.029
89640W        W48901  42.324   7.758  14.793
89641W        W48902  36.847  23.635   2.191
89642W        W48903  27.133  37.055   3.268
89643W        W48904  17.204  23.583  14.443
89644W        W48905  10.859  22.652   3.329
89645W        W48906  25.147  44.794  10.920
89646W        W48907  32.565  37.999  12.350
89647W        W48908  16.612   7.677  12.855
89648W        W48909  22.597   9.187  12.027
89649W        W48910  21.572  33.011   4.621
89650W        W48911  39.503  35.057   4.330
89651W        W48912  11.278   7.242   2.787
89652W        W48913  31.967  36.066   3.644
89653W        W48914  12.139  24.658  10.965
89654W        W48915   9.372  23.099   2.281
89655W        W48916   9.757  37.834  10.430
89656W        W48917   3.792  32.522  12.559
89657W        W48918  22.248  10.659  10.621
89658W        W48919   6.873   6.348  14.353
89659W        W48920  32.135  40.512   3.328
89660W        W48921  41.533   5.887   2.317
89661W        W48922   2.936  42.452  13.535
89662W        W48923  34.449  14.618  11.961
89663W        W48924  11.712  20.232   3.366
89664W        W48925  23.081  13.680  11.960
89665W        W48926  37.952   9.275   0.247
89666W        W48927   9.815  43.340   1.290
89667W        W48928  29.587  14.152  13.985
89668W        W48929  10.334  18.740   4.827
89669W        W48930  32.085   6.702  11.054
89670W        W48931   2.787  32.529  12.841
89671W        W48932  22.180  37.942   0.355
89672W        W48933  29.646  42.856   2.302
89673W        W48934   4.445  14.654   4.306
89674W        W48935  32.107   5.863  14.428
89675W        W48936  39.466  42.389   0.371
89676W        W48937  32.467   2.762   1.696
89677W        W48938  22.205   0.849  12.886
89678W        W48939  34.374   7.816  12.344
89679W        W48940  25.199  21.706  14.318
89680W        W48941  27.976   6.913  11.098
89681W        W48942  43.935  17.120   0.430
89682W        W48943  41.467   2.964   0.888
89683W        W48944  41.471  36.494  10.471
89684W        W48945  30.509   4.247  13.923
89685W        W48946  35.033  21.056   4.151
89686W        W48947  37.404  33.123   1.317
89687W        W48948   4.758  18.707  13.521
89688W        W48949  13.694  37.564  14.846
89689W        W48950   0.297  36.558  11.588
89690W        W48951  18.721  19.650   3.755
89691W        W48952   4.865  44.968  12.473
89692W        W48953  19.144   3.224   4.736
89693W        W48954  43.998  17.607  12.350
89694W        W48955  41.324   3.712  13.989
89695W        W48956  18.231  22.532  11.372
89696W        W48957   4.733  28.999  11.059
89697W        W48958  40.930  32.450   4.148
89698W        W48959   4.270   4.292   3.292
89699W        W48960  18.629  41.291   1.890
89700W        W48961  24.136  35.045   0.393
89701W        W48962  27.609  15.092   1.211
89702W        W48963  13.744   3.832   2.902
89703W        W48964  12.636  24.652   2.745
89704W        W48965  21.078  42.454  12.567
89705W        W48966   0.904  19.638   3.714
89706W        W48967   4.893   1.399   2.407
89707W        W48968  25.599  27.626  10.948
89708W        W48969  34.486  36.529   2.275
89709W        W48970  43.459  41.500  10.575
89710W        W48971  25.656  12.753   1.839
89711W        W48972  22.146  38.831   3.668
89712W        W48973  24.018  15.787  12.878
89713W        W48974  13.344  13.800  11.905
89714W        W48975  30.570  24.181  12.353
89715W        W48976  41.364   9.328   2.809
89716W        W48977  18.157  44.894  13.872
89717W        W48978  34.072   7.273  12.937
89718W        W48979  38.466  44.343   1.257
89719W        W48980   8.304   4.450   0.939
89720W        W48981   0.838  33.907  10.571
89721W        W48982  42.883  43.804   0.730
89722W        W48983  14.102  41.402  10.161
89723W        W48984  42.804  24.677   0.962
89724W        W48985  22.535  11.697  11.907
89725W        W48986   1.405  16.273   2.747
89726W        W48987  32.079  39.546   4.273
89727W        W48988  31.479  42.309   3.729
89728W        W48989  34.871  23.554   3.653
89729W        W48990  40.799   1.879  11.411
89730W        W48991   4.227  22.044  14.997
89731W        W48992   3.884  15.328  14.990
89732W        W48993  16.244  12.200   4.290
89733W        W48994  18.734  44.903  10.447
89734W        W48995   1.788  38.416   4.702
89735W        W48996  30.093   1.932  12.480
89736W        W48997  39.810  28.990  10.924
89737W        W48998  29.572  11.770   4.184
89738W        W48999   2.297  42.339   3.278
89739W        W49000  24.210   4.319   1.883
89740W        W49001  32.577  10.830   3.269
89741W        W49002  25.215  40.351  12.925
89742W        W49003  21.523  44.786  11.382
89743W        W49004  12.690  37.877   2.321
89744W        W49005  10.276  42.470   4.772
89745W        W49006  17.262   8.834   2.355
89746W        W49007  28.536  32.937   2.783
89747W        W49008   9.318  26.482   1.348
89748W        W49009  22.723  13.323   2.339
89749W        W49010  37.562  32.620  14.327
89750W        W49011  39.851  37.433   0.387
89751W        W49012  37.901  42.406   1.738
89752W        W49013  26.508  10.729   2.293
89753W        W49014  34.468  18.056   1.421
89754W        W49015   7.214   5.362   4.646
89755W        W49016   4.888   3.275   0.261
89756W        W49017  33.942  33.462   3.644
89757W        W49018  34.468   3.891  14.320
89758W        W49019   8.231  43.816   0.350
89759W        W49020  40.423  22.175  13.447
89760W        W49021  12.173   9.173   2.733
89761W        W49022  20.567   1.239   2.211
89762W        W49023   7.380  39.913  14.809
89763W        W49024  20.262  39.543   2.284
89764W        W49025  44.473  22.568  11.412
89765W        W49026  42.847  35.448  12.870
89766W        W49027  44.892  22.169  13.053
89767W        W49028  18.785   0.307  13.496
89768W        W49029  36.537  16.234   4.248
89769W        W49030  21.662  34.588   0.333
89770W        W49031  43.278   6.819   2.767
89771W        W49032  15.699  25.625   3.785
89772W        W49033  35.603   6.828  12.542
89773W        W49034   3.730  40.982  11.981
89774W        W49035  44.841  26.011  12.561
89775W        W49036  30.157  32.519  11.598
89776W        W49037  30.580  31.462  13.907
89777W        W49038  39.905  14.711  14.986
89778W        W49039  16.195  38.342  13.885
89779W        W49040   5.773  26.996  13.332
89780W        W49041   3.265  42.459  12.846
89781W        W49042   0.303  36.559  13.015
89782W        W49043  35.097  26.487   5.187
89783W        W49044  38.875  29.998   2.711
89784W        W49045  26.026  27.037   2.703
89785W        W49046  20.227  14.814  11.556
89786W        W49047  17.144  37.053   3.771
89787W        W49048  27.561  41.483   2.871
89788W        W49049  10.856  14.196  11.423
89789W        W49050  39.041   2.382  12.463
89790W        W49051  35.461  41.354  11.546
89791W        W49052  21.730  29.507  12.463
89792W        W49053  29.100  21.238  12.455
89793W        W49054  37.018  26.496   2.757
89794W        W49055   0.967   2.440  12.092
89795W        W49056  42.304  31.024   1.707
89796W        W49057  21.516  34.614   4.130
89797W        W49058  34.108   7.898  14.818
89798W        W49059   0.367   4.261   0.807
89799W        W49060   0.450  19.675  14.814
89800W        W49061  15.295  26.561   5.653
89801W        W49062  31.065  15.660  12.369
89802W        W49063  26.992   3.804   3.237
89803W        W49064  40.934   3.265  11.922
89804W        W49065  10.840  31.476  12.548
89805W        W49066  38.519  16.251   3.770
89806W        W49067  37.945  14.705  13.952
89807W        W49068   9.353  36.880   2.358
89808W        W49069   5.196  15.700  10.120
89809W        W49070  42.846  33.070  10.962
89810W        W49071   6.730  14.626   4.244
89811W        W49072   6.313  18.560   4.798
89812W        W49073   3.456  14.695   1.423
89813W        W49074   5.438  40.873  13.928
89814W        W49075  23.517  34.559  14.870
89815W        W49076  13.643  12.803  14.898
89816W        W49077  33.044   1.421   0.292
89817W        W49078  43.409  16.127  14.323
89818W        W49079  31.534  34.964  12.975
89819W        W49080  22.520  27.963   0.453
89820W        W49081  32.561  10.154  12.910
89821W        W49082   8.731  16.171   3.163
89822W        W49083   2.941  40.987   4.806
89823W        W49084  17.094  29.169  12.017
89824W        W49085  43.919  39.397  11.908
89825W        W49086  25.167  36.039   3.357
89826W        W49087   0.916  22.549   2.687
89827W        W49088  37.028  25.205   4.155
89828W        W49089   3.365  22.074   0.380
89829W        W49090  32.617  27.508   3.847
89830W        W49091   1.467  32.971  14.890
89831W        W49092  26.478  10.790  12.418
89832W        W49093  31.578  10.351  11.026
89833W        W49094   7.359  19.760  14.405
89834W        W49095  28.064   6.248  12.433
89835W        W49096  35.426  15.147   3.362
89836W        W49097  35.416   0.760   3.256
89837W        W49098  18.231   5.838  11.534
89838W        W49099  37.980  43.977   4.812
89839W        W49100  35.034  27.592   1.711
89840W        W49101  26.688  34.572   2.281
89841W        W49102  37.996   3.953  12.060
89842W        W49103   4.943  17.220   1.309
89843W        W49104  33.122  44.872  12.457
89844W        W49105  31.926  13.616   4.748
89845W        W49106  39.043  23.628  14.297
89846W        W49107  44.407  43.769   3.215
89847W        W49108  12.180  28.029   4.271
89848W        W49109  31.616  39.375   1.445
89849W        W49110  10.312  28.567   4.217
89850W        W49111  35.970   5.768   4.658
89851W        W49112   8.367  29.957   3.369
89852W        W49113  36.089  37.950  12.910
89853W        W49114  34.044  13.615  11.516
89854W        W49115   1.394  33.103   4.707
89855W        W49116  33.047  41.476  11.870
89856W        W49117  36.527   7.860   1.769
89857W        W49118   2.412  39.828   3.207
89858W        W49119  14.672   8.663  13.978
89859W        W49120  43.442  32.018  10.049
89860W        W49121  34.556   1.242  11.118
89861W        W49122  42.843  44.461  12.398
89862W        W49123  36.569  14.664   3.776
89863W        W49124   3.443  44.927   0.845
89864W        W49125  15.209  33.394   1.434
89865W        W49126  44.369  12.220   4.674
89866W        W49127  40.474  39.929  10.453
89867W        W49128  38.327   7.695   2.194
89868W        W49129  22.040  17.675   4.675
89869W        W49130  22.109  28.957   4.349
89870W        W49131   6.269  29.094  12.454
89871W        W49132   9.837  32.430  11.882
89872W        W49133   0.832  44.366   1.282
89873W        W49134  27.175  42.454  14.889
89874W        W49135   6.850  19.673  10.451
89875W        W49136  29.606   5.844  11.881
89876W        W49137  10.247  34.403   3.805
89877W        W49138   9.811  28.158  12.500
89878W        W49139  11.779   4.814   2.854
89879W        W49140  43.830  13.148  12.883
89880W        W49141  32.482  27.145  11.084
89881W        W49142  20.745  28.484  14.886
89882W        W49143  43.801  32.626  12.910
89883W        W49144  32.607  31.582  11.093
89884W        W49145  43.410  30.612   3.330
89885W        W49146  32.974  43.495  14.799
89886W        W49147  26.630  30.017  11.543
89887W        W49148   4.814  16.146  10.081
89888W        W49149   0.807  29.172   4.152
89889W        W49150   7.885  40.326   0.754
89890W        W49151  33.565  23.578   0.779
89891W        W49152  37.003   6.713  10.414
89892W        W49153  32.597   4.339   4.313
89893W        W49154  40.978   4.866   0.863
89894W        W49155   5.897  28.156  11.101
89895W        W49156   0.882   6.850   2.250
89896W        W49157  20.570  26.572  12.914
89897W        W49158  25.997  24.704   4.180
89898W        W49159  23.086  30.079  10.575
89899W        W49160  20.588  42.512  13.319
89900W        W49161  25.550  25.973   0.928
89901W        W49162  43.293  19.074   2.322
89902W        W49163  31.011   3.762  14.832
89903W        W49164  22.008   6.729   3.731
89904W        W49165   3.780   7.302   0.850
89905W        W49166  22.576  16.109  12.526
89906W        W49167   7.841   6.804  12.343
89907W        W49168  39.051  14.300  11.403
89908W        W49169  35.961  23.993   0.415
89909W        W49170  25.601   8.759   4.665
89910W        W49171  37.496   7.259   1.372
89911W        W49172  26.460  15.764   4.321
89912W        W49173  36.050  42.976   4.740
89913W        W49174  16.588  44.852  14.952
89914W        W49175  21.710  44.443  14.784
89915W        W49176  13.280  35.561  12.095
89916W        W49177  11.817  37.425   1.420
89917W        W49178   0.334  24.585   9.645
89918W        W49179   0.439  33.878   4.196
89919W        W49180  27.137  41.841  14.969
89920W        W49181  20.737  37.478   5.186
89921W        W49182  10.787  24.527   1.358
89922W        W49183  28.065  16.746   1.347
89923W        W49184  41.968  42.501   1.803
89924W        W49185  22.107   5.291  10.578
89925W        W49186  23.078  19.272   3.294
89926W        W49187   0.750   2.307   3.330
89927W        W49188  21.131  14.095   1.704
89928W        W49189   2.229  20.035  14.964
89929W        W49190  36.927  36.566   4.827
89930W        W49191  27.059  34.577   2.278
89931W        W49192   0.780  22.083  14.421
89932W        W49193  20.116  12.792   3.241
89933W        W49194  25.130  12.811   0.734
89934W        W49195  11.757  34.979  12.985
89935W        W49196  25.047  26.170  10.580
89936W        W49197   6.421  26.565  11.482
89937W        W49198  18.653  23.221  14.864
89938W        W49199   2.856  18.276  13.951
89939W        W49200   3.723  23.215   0.396
89940W        W49201   7.213  14.674   4.765
89941W        W49202  24.694  39.361  13.366
89942W        W49203   9.284  35.975   1.242
89943W        W49204  36.068  17.678  13.316
89944W        W49205  13.737  36.038   0.377
89945W        W49206   3.307  29.933  10.581
89946W        W49207  12.624  24.667  10.565
89947W        W49208  37.449  18.250  13.370
89948W        W49209  35.100   7.253  11.092
89949W        W49210  33.921   3.408  11.888
89950W        W49211  24.025   1.860   0.405
89951W        W49212   9.873   0.492  14.020
89952W        W49213  26.633  27.593   2.417
89953W        W49214   7.854   3.850  14.486
89954W        W49215   5.344  31.618  10.442
89955W        W49216  44.984  13.678   3.721
89956W        W49217  16.694  18.292  11.572
89957W        W49218  17.091   8.864  11.478
89958W        W49219  42.842  29.573   1.333
89959W        W49220  39.346  16.794  11.531
89960W        W49221  22.234  28.953  13.421
89961W        W49222   8.205  19.659  14.440
89962W        W49223  14.714   3.277  12.444
89963W        W49224  41.377  38.454  12.465
89964W        W49225  10.245  26.689  13.941
89965W        W49226  10.320   4.786  12.823
89966W        W49227   8.354  39.507  13.977
89967W        W49228  33.454  24.056  12.871
89968W        W49229   6.379  39.053  11.441
89969W        W49230  21.611  29.652   2.341
89970W        W49231   4.436  20.552   0.893
89971W        W49232  39.395  21.623  14.789
89972W        W49233  32.410  35.065   3.776
89973W        W49234  27.159   0.927   2.900
89974W        W49235  18.140  40.335   4.259
89975W        W49236  18.667   2.723  13.830
89976W        W49237  39.470   4.319   2.855
89977W        W49238   1.913  42.424   1.856
89978W        W49239  24.576  16.716  12.543
89979W        W49240  11.733  17.286   2.813
89980W        W49241  35.573  16.727   2.822
89981W        W49242  12.228  37.458   2.790
89982W        W49243  18.052  42.886  13.842
89983W        W49244   6.820  20.616  13.465
89984W        W49245  38.534  40.471  13.993
89985W        W49246  41.305  34.092   3.277
89986W        W49247  41.444  28.107  14.855
89987W        W49248  13.124  31.628   0.353
89988W        W49249  26.521  11.771  14.906
89989W        W49250   6.287  16.208   3.662
89990W        W49251  40.844  37.411  10.971
89991W        W49252  21.620   3.379   0.385
89992W        W49253  29.076  34.515  13.318
89993W        W49254  41.380  23.706  11.557
89994W        W49255  22.520  32.913   2.726
89995W        W49256  41.446  10.173   2.285
89996W        W49257  24.142  22.055  11.951
89997W        W49258   3.819  15.139   0.952
89998W        W49259  23.042  40.807   4.745
89999W        W49260  26.014   3.252   2.226
90000W        W49261   4.292  30.566   3.264
90001W        W49262  25.965  15.225   2.780
90002W        W49263   1.941  20.164  10.443
90003W        W49264  29.468   2.862  10.996
90004W        W49265  12.294  42.405  12.553
90005W        W49266  24.022  32.046   3.321
90006W        W49267  30.518   6.719   0.341
90007W        W49268  41.015  29.920   0.335
90008W        W49269  42.478   7.403  12.969
90009W        W49270   9.336  23.665   3.280
90010W        W49271  25.131  14.201   1.431
90011W        W49272  44.453  13.684   0.267
90012W        W49273  23.565  25.195   4.636
90013W        W49274  24.008  20.133  14.342
90014W        W49275  44.919  15.614   4.701
90015W        W49276  24.975  41.405   0.457
90016W        W49277  42.384  28.678  14.466
90017W        W49278  11.721  28.162  11.455
90018W        W49279  14.282  34.395  12.072
90019W        W49280  36.041  19.266   2.875
90020W        W49281   7.881  32.916   3.186
90021W        W49282  10.876  27.626   3.386
90022W        W49283  43.825  32.947  14.466
90023W        W49284  36.425  18.124  14.395
90024W        W49285  12.156  23.013   1.288
90025W        W49286  39.997  28.186   0.842
90026W        W49287   3.818  25.620  11.545
90027W        W49288  24.662  16.120   4.191
90028W        W49289  12.151  26.079   2.215
90029W        W49290  31.123   1.345   4.661
90030W        W49291  16.790   4.262  11.901
90031W        W49292   3.849  29.495  13.994
90032W        W49293  15.640  17.778  14.862
90033W        W49294   3.786  24.585  10.475
90034W        W49295  41.020  41.346  14.385
90035W        W49296  11.294  21.616   2.311
90036W        W49297  36.964  35.865   4.693
90037W        W49298   7.344  20.700   1.789
90038W        W49299  30.558   5.791  14.960
90039W        W49300  20.176  41.823  14.845
90040W        W49301   3.296   0.888   2.758
90041W        W49302  27.991  10.277  13.842
90042W        W49303  33.561  23.496  14.029
90043W        W49304  36.906   5.251   0.901
90044W        W49305  38.950  43.884   1.273
90045W        W49306  14.329  16.153  14.840
90046W        W49307  15.799   9.209   1.902
90047W        W49308   5.702  33.567  10.564
90048W        W49309  19.052  36.883   4.607
90049W        W49310  10.216  21.742  10.456
90050W        W49311  22.146   1.912  11.427
90051W        W49312  16.297  20.205   2.208
90052W        W49313  34.489  10.199  11.943
90053W        W49314   9.157  25.120   4.215
90054W        W49315  41.933  18.103  13.384
90055W        W49316  16.626  38.044  10.584
90056W        W49317  11.849  18.636   2.216
90057W        W49318  40.944  15.733  12.832
90058W        W49319  26.198   5.804  11.123
90059W        W49320  20.748  22.678   1.826
90060W        W49321  36.395  20.134  11.071
90061W        W49322  32.561  22.518   3.850
90062W        W49323   2.451  13.769  13.873
90063W        W49324  39.427  36.938  10.639
90064W        W49325  31.580   2.443  10.917
90065W        W49326  39.862  43.827  14.462
90066W        W49327   5.856  15.100  11.536
90067W        W49328  21.077  28.557   4.829
90068W        W49329  27.499  13.633   3.223
90069W        W49330  29.601  10.758   1.855
90070W        W49331  35.941  22.621  14.419
90071W        W49332  43.925   7.309   2.400
90072W        W49333  12.234   4.881   2.286
90073W        W49334  19.533  15.747  13.539
90074W        W49335   3.296  28.025  13.852
90075W        W49336  28.091  29.626  13.512
90076W        W49337  18.572  41.947  10.426
90077W        W49338  12.799   8.292   2.816
90078W        W49339  15.175  14.317   3.250
90079W        W49340  33.019  17.121  14.974
90080W        W49341  38.563  20.581  13.936
90081W        W49342  38.933  33.420   2.865
90082W        W49343  19.062  29.435  11.863
90083W        W49344  37.567  22.702   3.347
90084W        W49345   4.822  13.339  12.575
90085W        W49346  16.189  21.197  10.523
90086W        W49347  27.473   1.810  12.860
90087W        W49348  23.724  17.598  12.352
90088W        W49349  22.203   8.316  12.912
90089W        W49350  16.185  37.054   3.147
90090W        W49351  10.705  12.699  10.573
90091W        W49352  38.401  21.258  13.003
90092W        W49353  22.248  29.650   1.363
90093W        W49354  11.205  25.098   2.238
90094W        W49355  38.012  36.878  13.548
90095W        W49356  31.594  10.811   4.196
90096W        W49357  16.702   8.782   0.944
90097W        W49358   9.813  11.334   0.856
90098W        W49359  29.933  24.998  13.452
90099W        W49360   9.222   8.205   4.163
90100W        W49361  10.844   7.370  10.475
90101W        W49362   0.952   4.333  10.909
90102W        W49363  31.512   2.239  13.980
90103W        W49364  33.444  44.875   1.824
90104W        W49365  40.471  40.868  13.352
90105W        W49366  11.621  14.181   3.859
90106W        W49367  29.668   8.190   0.757
90107W        W49368  36.347   9.250   1.380
90108W        W49369   2.455  21.529  14.917
90109W        W49370  44.884  17.737   3.649
90110W        W49371  28.503  11.625  11.604
90111W        W49372  21.153  14.768   3.783
90112W        W49373  22.602  23.230   2.198
90113W        W49374  38.036   8.391  13.797
90114W        W49375  11.694  24.055  10.051
90115W        W49376  31.942  28.160   3.265
90116W        W49377  26.595   6.810   1.824
90117W        W49378   9.361   6.858   0.842
90118W        W49379  29.517  25.103   4.273
90119W        W49380  23.110  14.279   2.784
90120W        W49381  28.982  29.156  12.961
90121W        W49382  31.622  14.150  11.860
90122W        W49383  38.555  13.214   4.801
90123W        W49384  27.094  22.130   4.743
90124W        W49385   9.244  33.391  11.462
90125W        W49386  41.027   8.167   1.838
90126W        W49387  12.816  29.046   1.928
90127W        W49388  40.466  30.594   4.234
90128W        W49389   8.394  21.618  13.896
90129W        W49390  20.698  28.474  13.351
90130W        W49391   1.758  29.101  14.356
90131W        W49392  19.647  17.622  10.061
90132W        W49393  42.825  40.899   4.663
90133W        W49394   5.759   4.744   1.863
90134W        W49395  22.620  17.290   4.148
90135W        W49396  31.628  11.263   3.675
90136W        W49397   1.304  33.884  11.481
90137W        W49398  20.181  13.747   1.358
90138W        W49399  43.359   2.441  10.536
90139W        W49400  38.438  22.611  13.415
90140W        W49401  37.913  41.038  13.411
90141W        W49402  44.798  17.562   1.388
90142W        W49403  42.429  32.410  11.888
90143W        W49404  42.385  41.468  11.462
90144W        W49405  23.591  15.143  12.400
90145W        W49406  42.430  26.651  10.948
90146W        W49407  27.589  42.861   4.686
90147W        W49408  27.546   1.882  14.311
90148W        W49409  36.869   1.241  13.931
90149W        W49410   0.275  39.879  11.065
90150W        W49411  32.465  27.121  12.891
90151W        W49412  19.050  31.586   2.336
90152W        W49413  38.431  11.249   2.305
90153W        W49414  28.645  38.535   3.335
90154W        W49415  21.757   3.305  10.905
90155W        W49416  41.991  32.058   3.768
90156W        W49417   7.418  14.308   0.302
90157W        W49418  14.095  12.769   1.802
90158W        W49419  23.204  17.102  14.801
90159W        W49420  37.928  41.891  12.432
90160W        W49421  40.830  23.070   2.817
90161W        W49422   3.437  23.681  14.021
90162W        W49423  37.878   6.904   1.310
90163W        W49424   1.833  34.537   0.314
90164W        W49425  13.312  35.386  12.544
90165W        W49426  44.873  25.994   1.370
90166W        W49427  11.674  29.477   0.842
90167W        W49428  33.418  17.254  12.889
90168W        W49429   7.836  19.227   3.277
90169W        W49430  20.169  39.037   1.859
90170W        W49431  13.635  19.099  10.421
90171W        W49432  35.856  20.182   4.608
90172W        W49433  17.307  24.531   0.276
90173W        W49434  36.957  33.610  13.407
90174W        W49435  39.903  23.711   1.846
90175W        W49436  35.872   1.966  11.438
90176W        W49437   3.258  18.120   2.771
90177W        W49438  18.053  32.401  10.465
90178W        W49439  42.883  21.624   4.228
90179W        W49440   5.278  17.182  13.926
90180W        W49441   6.740  36.510   3.221
90181W        W49442  18.701  15.621   5.095
90182W        W49443  39.383  38.386  11.093
90183W        W49444  19.687  44.284  14.365
90184W        W49445  36.911   9.323  14.831
90185W        W49446  42.365  19.207  13.472
90186W        W49447   8.238  33.580  10.575
90187W        W49448  19.554  13.654   1.746
90188W        W49449  24.555   9.164   0.451
90189W        W49450  30.044  23.632  14.397
90190W        W49451  42.860  18.087  13.870
90191W        W49452  19.561  15.660  13.000
90192W        W49453   0.433   4.362   2.785
90193W        W49454  24.616  18.643  11.375
90194W        W49455   0.880  13.733  12.828
90195W        W49456   7.841  43.371   0.932
90196W        W49457  18.642  12.691   3.336
90197W        W49458  38.899  30.983   0.757
90198W        W49459   3.847  39.500  12.416
90199W        W49460  17.800  36.095  12.526
90200W        W49461  31.582  25.069  12.545
90201W        W49462  44.372  15.187   1.431
90202W        W49463   1.802  32.970  11.074
90203W        W49464   4.362   2.836   0.428
90204W        W49465  43.499  42.525  10.985
90205W        W49466  20.247  37.416  10.121
90206W        W49467  14.290  22.519  14.828
90207W        W49468  25.628  14.146   4.248
90208W        W49469  11.848  37.572  12.039
90209W        W49470   9.889  30.109   4.757
90210W        W49471  22.053  13.676  12.540
90211W        W49472   2.855  13.827   1.823
90212W        W49473  21.629  22.725   4.679
90213W        W49474  20.199   3.937   1.907
90214W        W49475   8.894  17.171   4.350
90215W        W49476  12.143   2.782   2.362
90216W        W49477  24.221  39.355   3.366
90217W        W49478  38.345  21.198   2.881
90218W        W49479  24.172  34.586  14.433
90219W        W49480   7.417  20.674   2.728
90220W        W49481   7.753  30.525   2.311
90221W        W49482  19.135  31.016   3.665
90222W        W49483  38.374   5.794   4.631
90223W        W49484  24.614  41.898   1.307
90224W        W49485  39.555   2.308  12.420
90225W        W49486   5.380  13.337   4.788
90226W        W49487   9.251   3.929   3.338
90227W        W49488  42.848  33.389   3.380
90228W        W49489  30.034  29.573   0.726
90229W        W49490  23.100   3.450   1.374
90230W        W49491   7.315  31.493   2.378
90231W        W49492  34.098  17.748   0.277
90232W        W49493   0.980  33.080   0.790
90233W        W49494  29.950  13.172  12.877
90234W        W49495  10.173  19.106  12.523
90235W        W49496  32.538  41.880   0.371
90236W        W49497   0.891  42.456  12.945
90237W        W49498  30.135  11.267   1.329
90238W        W49499  24.573   2.389   9.626
90239W        W49500  33.570   0.904  13.367
90240W        W49501   1.959  34.947  10.961
90241W        W49502  32.493  21.728   2.267
90242W        W49503  15.251  18.577   1.813
90243W        W49504   5.829   8.246  12.823
90244W        W49505  44.457  11.315   2.362
90245W        W49506   5.392  44.282   0.946
90246W        W49507  33.060  11.170  13.936
90247W        W49508  17.753  11.852   0.353
90248W        W49509  29.920  16.758   2.862
90249W        W49510   3.358  34.936   4.703
90250W        W49511  10.738   1.853   2.746
90251W        W49512  30.620   1.352  11.124
90252W        W49513  10.703  12.289  13.989
90253W        W49514  31.900  40.032  11.420
90254W        W49515  24.223  39.358  12.857
90255W        W49516  18.744  16.681   1.301
90256W        W49517  39.880   3.867  12.410
90257W        W49518  22.705  33.579   3.724
90258W        W49519   9.695  44.910  13.834
90259W        W49520  33.423  42.022   4.164
90260W        W49521  32.399   5.706  14.794
90261W        W49522  30.646   1.379   1.277
90262W        W49523  27.132  41.931   0.436
90263W        W49524  15.097  39.941   4.802
90264W        W49525  30.530  35.471   4.838
90265W        W49526  10.780  28.990  11.554
90266W        W49527  39.503  39.422   4.169
90267W        W49528  17.738  33.517  10.521
90268W        W49529   9.871  39.817  12.425
90269W        W49530  25.662  34.041  12.053
90270W        W49531  17.061   7.312   5.084
90271W        W49532   0.303   1.804  13.501
90272W        W49533  35.559   4.283   1.320
90273W        W49534   8.315  21.239  14.405
90274W        W49535  44.965  28.598   3.774
90275W        W49536  37.354  15.271  11.010
90276W        W49537  26.634   2.253   3.202
90277W        W49538  36.389   5.917  11.864
90278W        W49539  16.297   6.888   2.274
90279W        W49540  33.955   4.932   1.832
90280W        W49541   0.279  25.608  12.509
90281W        W49542  15.127  32.992  12.342
90282W        W49543  35.077  18.724  12.878
90283W        W49544  19.084   5.216   2.714
90284W        W49545   5.351  13.276   2.683
90285W        W49546  32.556   1.252  13.963
90286W        W49547  20.125  40.522   2.249
90287W        W49548  38.529  10.790  13.524
90288W        W49549  17.756  22.538   2.272
90289W        W49550   3.287   8.241   0.880
90290W        W49551  13.604   6.194   3.150
90291W        W49552  31.520  14.302   2.292
90292W        W49553  38.467  18.072   2.745
90293W        W49554  26.560  25.625  11.462
90294W        W49555  24.087  25.031  11.862
90295W        W49556  24.034  35.529  12.851
90296W        W49557   4.919  10.185  12.049
90297W        W49558  14.127  42.791   1.352
90298W        W49559  22.119  13.728  11.470
90299W        W49560  40.343   0.924  11.987
90300W        W49561  42.929  37.415  12.361
90301W        W49562  38.923   6.360  13.871
90302W        W49563  35.063  15.749  11.089
90303W        W49564  40.008  24.174  13.927
90304W        W49565  25.543  41.973  11.473
90305W        W49566  28.518   9.374   0.325
90306W        W49567  19.642   6.909   2.397
90307W        W49568  31.533  15.817   1.407
90308W        W49569  27.039  42.329  13.895
90309W        W49570   3.317   1.324   0.460
90310W        W49571   1.775  25.471  10.624
90311W        W49572  39.818  12.307  10.961
90312W        W49573  36.464  19.139  14.276
90313W        W49574  18.104  28.653   2.663
90314W        W49575  18.616   6.361   3.304
90315W        W49576  18.640   2.423  11.418
90316W        W49577  14.779   6.891   5.204
90317W        W49578  37.911  15.654   0.735
90318W        W49579  36.035  14.169  11.007
90319W        W49580  13.301  36.889   3.152
90320W        W49581  34.088  31.055   2.803
90321W        W49582  35.417  32.403  14.906
90322W        W49583  18.652   8.345   3.351
90323W        W49584  43.272  30.073  10.453
90324W        W49585  10.852  30.126   4.794
90325W        W49586  13.331  26.700  12.877
90326W        W49587  11.224  24.020   2.690
90327W        W49588  31.922   2.874  12.482
90328W        W49589  32.019   3.830  13.339
90329W        W49590  29.934   2.386   4.257
90330W        W49591   4.242  12.264  11.376
90331W        W49592  15.806  13.777   3.776
90332W        W49593   8.183   7.179  13.350
90333W        W49594  10.847  24.110   2.784
90334W        W49595  39.487  13.241  13.545
90335W        W49596  39.374  19.547  10.527
90336W        W49597  44.804   9.867  11.027
90337W        W49598  35.447   9.862   0.954
90338W        W49599  23.579  26.166   0.879
90339W        W49600   0.351  26.494  10.449
90340W        W49601  17.231  15.781  12.036
90341W        W49602  12.806  22.565  13.511
90342W        W49603  22.579  21.245  14.850
90343W        W49604  27.040   7.175  10.450
90344W        W49605  19.539  44.938  13.337
90345W        W49606  38.061  15.268   0.279
90346W        W49607  26.075   8.668   4.832
90347W        W49608  30.613  20.115  13.374
90348W        W49609  43.883  32.910  11.061
90349W        W49610  38.072  12.191   2.283
90350W        W49611  30.138  40.936  12.491
90351W        W49612  12.286   0.335  14.415
90352W        W49613  38.510  14.717   2.216
90353W        W49614   7.326  16.299   4.208
90354W        W49615  17.156  32.417  12.985
90355W        W49616  32.603   3.782   4.321
90356W        W49617  36.974   6.347  13.848
90357W        W49618  12.732  24.686   2.292
90358W        W49619  43.974  38.063   3.800
90359W        W49620  26.023  28.929  12.843
90360W        W49621  20.218  34.607  14.283
90361W        W49622  19.235  28.437   0.244
90362W        W49623  13.744  16.231   2.219
90363W        W49624  10.202   7.856  11.100
90364W        W49625  22.578   9.327  13.322
90365W        W49626  10.332  29.627  11.906
90366W        W49627  34.424   0.475  14.781
90367W        W49628   5.872  13.742  13.905
90368W        W49629  28.176   5.297   3.169
90369W        W49630  30.618  12.846  14.341
90370W        W49631  44.288  32.978  13.435
90371W        W49632  24.004  33.388   2.774
90372W        W49633  31.919  28.473  10.535
90373W        W49634   5.863  37.968  11.929
90374W        W49635  20.540  33.509  12.014
90375W        W49636   4.910  39.466   4.760
90376W        W49637  18.144  21.068   3.288
90377W        W49638  21.096  39.558   1.235
90378W        W49639   9.764   0.875   2.738
90379W        W49640  35.923  19.767  14.476
90380W        W49641  41.940  24.680  11.446
90381W        W49642  11.714  36.031   3.744
90382W        W49643  20.677  25.617   0.276
90383W        W49644  44.289  22.671  12.520
90384W        W49645   5.925  38.374  13.493
90385W        W49646   7.803  39.378  11.399
90386W        W49647  10.346  41.007   0.395
90387W        W49648  20.684   6.815  12.541
90388W        W49649  43.416  36.046   0.787
90389W        W49650  15.698  27.023  14.847
90390W        W49651   4.911  30.031   1.312
90391W        W49652   3.326  15.312  12.962
90392W        W49653  34.549  25.172  12.864
90393W        W49654  12.356  22.056   4.626
90394W        W49655  26.092   5.877  10.434
90395W        W49656  44.431   9.209   0.787
90396W        W49657  27.151  29.094   3.269
90397W        W49658  41.308  34.497  14.805
90398W        W49659  34.575   2.230  14.940
90399W        W49660  35.522  16.711   2.239
90400W        W49661  14.107  16.168  13.957
90401W        W49662   6.327  23.688   0.464
90402W        W49663  38.465  36.065   2.677
90403W        W49664  15.658  26.207   4.731
90404W        W49665  36.431   5.824  13.923
90405W        W49666  29.167  13.330   3.270
90406W        W49667  41.310  16.112   1.392
90407W        W49668  34.895  29.596  11.983
90408W        W49669  28.585   5.832   0.797
90409W        W49670  20.706  43.957   0.876
90410W        W49671   1.950  22.735   2.881
90411W        W49672  23.529  30.059  13.537
90412W        W49673   9.863  37.441  12.501
90413W        W49674  33.087   4.890  13.515
90414W        W49675  43.349  40.835  13.057
90415W        W49676  31.010  25.998   0.805
90416W        W49677  24.633  22.091  10.639
90417W        W49678  36.993   5.920   4.266
90418W        W49679  37.000  17.646  12.342
90419W        W49680   1.975   2.352   2.744
90420W        W49681  42.896   2.721   2.869
90421W        W49682  23.003   6.196   1.783
90422W        W49683  11.835  24.599   2.369
90423W        W49684  12.296  23.192  12.577
90424W        W49685  35.360  24.205   4.201
90425W        W49686  19.605  19.140   3.836
90426W        W49687  42.874  32.502   0.356
90427W        W49688  10.721  42.312  10.532
90428W        W49689  20.688  43.860   4.246
90429W        W49690  28.016  24.650   3.206
90430W        W49691  20.102  38.404  14.863
90431W        W49692   0.484  28.557  11.593
90432W        W49693  14.751  14.832   3.225
90433W        W49694  35.397  27.483  12.503
90434W        W49695  11.690  21.032  14.925
90435W        W49696  15.608  34.557   3.744
90436W        W49697  43.386  40.808   2.394
90437W        W49698  18.190  28.455   2.413
90438W        W49699  31.920   5.394  13.418
90439W        W49700   8.305  31.982  12.911
90440W        W49701  36.456  32.566  11.969
90441W        W49702  28.100   3.900   4.194
90442W        W49703  42.915   5.834  11.479
90443W        W49704  26.663  44.937   2.226
90444W        W49705  29.952   1.855   0.420
90445W        W49706  20.540  40.517   3.768
90446W        W49707  23.492  33.453   0.385
90447W        W49708  12.820  17.626  14.430
90448W        W49709  18.278  17.103  14.828
90449W        W49710  32.952   3.304   4.664
90450W        W49711   4.839   1.463  13.880
90451W        W49712   9.221  20.578   2.726
90452W        W49713  15.287  11.753  11.012
90453W        W49714  40.400  25.983   1.915
90454W        W49715  28.600  43.005  11.382
90455W        W49716  18.595  43.504  10.644
90456W        W49717  25.000  26.663  13.416
90457W        W49718  14.238  12.845  11.375
90458W        W49719   0.775  14.121  13.828
90459W        W49720  16.744   6.698  14.344
90460W        W49721  40.937  18.681   3.198
90461W        W49722  36.581  14.817  13.421
90462W        W49723  29.428  40.818  10.641
90463W        W49724   8.866   1.339   0.766
90464W        W49725  29.601  20.681  10.436
90465W        W49726   9.163  11.301   2.280
90466W        W49727   9.745  26.037   1.392
90467W        W49728   4.759  36.947   0.917
90468W        W49729   2.422  42.304   0.951
90469W        W49730  42.521  39.987  12.417
90470W        W49731  21.530   9.871   3.239
90471W        W49732   4.425   3.285   0.407
90472W        W49733  23.988  33.517   3.813
90473W        W49734  36.585  21.693   0.332
90474W        W49735  32.111   7.786   2.859
90475W        W49736   5.916  27.966   0.245
90476W        W49737  31.600   2.330   1.806
90477W        W49738  10.865   4.433  12.472
90478W        W49739  43.933  38.473  10.613
90479W        W49740   8.701  21.259  10.415
90480W        W49741   4.757  11.370  11.056
90481W        W49742  22.063  38.349  10.423
90482W        W49743  27.969  20.650   4.637
90483W        W49744  35.548  29.140   2.898
90484W        W49745  37.530   7.256   2.283
90485W        W49746  38.013  33.902   3.372
90486W        W49747  38.872  35.895  14.969
90487W        W49748  31.010  13.819   4.726
90488W        W49749  16.694  27.941  12.871
90489W        W49750   3.361  24.689   1.796
90490W        W49751  20.192  14.185   3.330
90491W        W49752   8.810  20.109  13.436
90492W        W49753  12.352  20.553  13.350
90493W        W49754   6.287  14.137  13.327
90494W        W49755  38.493   4.405   2.338
90495W        W49756  39.836  34.962   2.389
90496W        W49757  28.550  30.147  13.039
90497W        W49758  22.170  38.879  11.489
90498W        W49759  28.146  37.064  12.984
90499W        W49760   6.299  30.448   4.317
90500W        W49761  36.935   9.669  13.955
90501W        W49762  11.787   2.305  12.992
90502W        W49763  44.287  20.669   4.634
90503W        W49764  30.107  34.915  10.560
90504W        W49765  36.514   7.328   2.747
90505W        W49766  37.496  11.689   1.222
90506W        W49767  21.746   4.802   1.267
90507W        W49768  32.004   7.824  12.007
90508W        W49769  28.615  26.693   2.741
90509W        W49770  37.862  21.103  11.110
90510W        W49771  18.786  35.492   3.310
90511W        W49772  37.355   8.761   4.264
90512W        W49773  18.557  32.527   4.249
90513W        W49774  31.048   5.819   4.206
90514W        W49775  36.071  33.620   1.855
90515W        W49776  21.532  20.059   3.645
90516W        W49777  11.662   7.246  12.457
90517W        W49778  10.282   3.338   0.815
90518W        W49779  39.862  10.155   4.181
90519W        W49780   5.277  27.156  14.789
90520W        W49781  20.227  43.926  14.379
90521W        W49782  19.758  31.022  11.000
90522W        W49783  38.392  19.543   1.338
90523W        W49784  32.002  37.533   2.741
90524W        W49785   9.696  24.046  14.784
90525W        W49786  34.487  36.474   4.183
90526W        W49787  21.133  38.425  11.987
90527W        W49788  28.453  15.256   3.669
90528W        W49789   0.897  42.783  11.507
90529W        W49790  23.621  10.358  14.866
90530W        W49791  15.212  39.444   1.801
90531W        W49792  33.473   5.734   3.275
90532W        W49793  25.101  25.005  12.037
90533W        W49794   5.816  30.915   1.265
90534W        W49795  35.090  12.785  14.802
90535W        W49796  41.018  22.659   1.390
90536W        W49797  29.523   0.321   4.317
90537W        W49798  42.836  41.005  10.503
90538W        W49799  33.456  37.570   4.828
90539W        W49800  23.592  23.038  10.914
90540W        W49801  34.523  35.391  12.024
90541W        W49802  13.732  15.194   2.249
90542W        W49803  23.581  42.442  14.917
90543W        W49804  21.669  36.448  10.983
90544W        W49805  44.810   4.788   1.922
90545W        W49806  35.375  33.479  14.964
90546W        W49807  12.707   0.827   2.233
90547W        W49808  16.140  36.398  11.980
90548W        W49809  22.108  40.431   3.240
90549W        W49810  42.779  19.664   0.827
90550W        W49811   3.726  13.706  13.321
90551W        W49812  27.157  20.274   2.412
90552W        W49813  34.055   2.789  11.427
90553W        W49814  39.431  16.740  10.902
90554W        W49815  16.169  16.640  13.446
90555W        W49816   9.304  38.336   3.293
90556W        W49817  22.731  24.078   4.175
90557W        W49818  14.683  33.551   5.099
90558W        W49819  39.045   8.810   1.876
90559W        W49820  15.608  34.964   3.673
90560W        W49821   5.865  21.753  10.608
90561W        W49822  21.630  11.229  13.923
90562W        W49823  39.367   2.246   0.867
90563W        W49824  16.077  33.409  12.546
90564W        W49825  39.898  31.618   2.196
90565W        W49826  27.059  27.590  13.829
90566W        W49827  44.908   0.779   1.302
90567W        W49828  41.347   8.402  13.463
90568W        W49829  40.858   6.358   1.768
90569W        W49830  30.096  44.984   3.236
90570W        W49831   9.762  23.025   2.197
90571W        W49832   7.413  25.527  11.888
90572W        W49833  28.606   4.708   0.932
90573W        W49834   8.238  43.822  13.031
90574W        W49835  18.116  18.617  10.498
90575W        W49836   7.830  20.645   3.832
90576W        W49837   0.356  36.880   2.268
90577W        W49838  29.966  23.577   1.849
90578W        W49839  37.524  31.508   1.838
90579W        W49840  26.082   5.839   5.574
90580W        W49841  34.045  26.697  11.921
90581W        W49842  38.928  36.096   2.663
90582W        W49843  44.873  24.721  10.588
90583W        W49844  23.153   6.247  12.451
90584W        W49845  30.120  24.680  11.026
90585W        W49846  28.009   7.904  12.497
90586W        W49847  36.067  20.111   0.393
90587W        W49848  43.313  41.037  12.473
90588W        W49849   7.180  25.155  14.993
90589W        W49850  29.494  31.149   4.201
90590W        W49851   9.708  18.153  14.384
90591W        W49852  10.341  38.011   4.301
90592W        W49853   3.284  41.858   0.433
90593W        W49854  36.460   1.948   4.282
90594W        W49855  13.792   7.237  11.017
90595W        W49856   5.764  43.460   3.833
90596W        W49857  21.571   5.381  12.571
90597W        W49858  10.878  26.198  14.292
90598W        W49859  37.990  30.517  12.507
90599W        W49860  28.138  42.775   4.808
90600W        W49861  19.042  15.321  12.824
90601W        W49862  27.985   5.204   0.418
90602W        W49863  30.000   0.302  12.539
90603W        W49864  21.639  28.078   3.782
90604W        W49865  28.161   2.449  14.425
90605W        W49866  17.102  15.666  13.976
90606W        W49867   6.263  31.495   4.807
90607W        W49868  30.556  25.064   4.598
90608W        W49869  23.192  23.545   4.820
90609W        W49870   4.360   4.764  12.549
90610W        W49871   6.256  14.141  10.471
90611W        W49872  27.542   4.241  13.841
90612W        W49873  22.124  25.133   3.258
90613W        W49874  24.483  16.098  12.348
90614W        W49875  20.642   8.321  13.930
90615W        W49876  44.998  12.222   4.247
90616W        W49877  37.081  31.405  11.068
90617W        W49878  16.682  22.171  11.454
90618W        W49879  25.201  24.990   4.143
90619W        W49880   8.230   5.420  12.058
90620W        W49881  19.535  40.336  10.619
90621W        W49882  11.820  35.596   0.785
90622W        W49883  28.569  11.725  13.990
90623W        W49884  39.352  13.181   0.299
90624W        W49885  26.193  10.765  14.445
90625W        W49886  22.576  25.067  10.151
90626W        W49887   9.259  40.841   1.281
90627W        W49888  25.017   7.232  11.927
90628W        W49889  10.329  15.163   3.780
90629W        W49890  33.498  43.312  10.600
90630W        W49891  25.517  42.800   1.793
90631W        W49892   4.919   1.835   3.844
90632W        W49893  30.487   0.396   0.481
90633W        W49894   8.238  12.781   4.255
90634W        W49895  33.580  26.581  11.982
90635W        W49896  12.709  25.169   2.304
90636W        W49897  10.650  38.490  12.394
90637W        W49898   7.713  36.422  13.415
90638W        W49899  42.512  12.645   2.322
90639W        W49900  10.712   4.713   5.186
90640W        W49901  18.631  33.534   4.832
90641W        W49902  28.606  29.968  11.570
90642W        W49903  10.660   6.411   2.796
90643W        W49904  18.651  11.669   0.785
90644W        W49905   0.787  26.517   1.446
90645W        W49906  30.465  26.517   1.447
90646W        W49907  39.821  28.651   1.804
90647W        W49908  33.029  33.025  12.458
90648W        W49909  37.535  19.608  14.017
90649W        W49910  11.783  38.039  13.322
90650W        W49911   2.281  16.745   0.458
90651W        W49912  13.769  32.586   3.673
90652W        W49913  17.125  11.633   1.237
90653W        W49914  44.327  24.980   1.716
90654W        W49915  29.936  34.931  12.428
90655W        W49916   5.749  34.885  11.941
90656W        W49917   1.897  39.372   3.360
90657W        W49918   8.793  21.262   0.330
90658W        W49919  33.560  28.558  11.551
90659W        W49920   4.776  20.190   0.738
90660W        W49921   5.915  41.487   2.324
90661W        W49922  44.389  21.757   3.638
90662W        W49923  13.680  17.246   0.420
90663W        W49924  15.086  25.107   3.705
90664W        W49925  41.975  10.752  10.950
90665W        W49926  32.885   0.463  12.540
90666W        W49927   5.192  42.522  14.945
90667W        W49928   2.322  43.409   1.927
90668W        W49929  40.528  27.959  14.301
90669W        W49930  30.079  43.452  12.346
90670W        W49931  19.277  13.283  12.405
90671W        W49932  20.754   0.919  12.915
90672W        W49933  15.799   6.371  11.923
90673W        W49934   5.241  23.509   1.381
90674W        W49935  12.712   8.755   3.374
90675W        W49936  22.578  17.283   4.625
90676W        W49937   9.355  30.501   3.356
90677W        W49938  12.765  10.247   4.661
90678W        W49939  35.361  42.804   2.329
90679W        W49940  23.128  17.773   3.681
90680W        W49941  43.327  25.639   1.336
90681W        W49942  36.423  15.630  12.453
90682W        W49943  41.345  24.089  12.364
90683W        W49944  41.883   3.862  12.356
90684W        W49945  27.124  10.719   0.273
90685W        W49946  11.631   7.234   4.350
90686W        W49947   3.447  15.620   3.195
90687W        W49948  29.536  19.587   1.407
90688W        W49949   9.223  38.403  10.564
90689W        W49950  43.903  44.306  12.827
90690W        W49951  29.493  23.013  13.517
90691W        W49952   6.253   0.917   0.816
90692W        W49953   3.300  11.851  13.465
90693W        W49954   5.263  29.426   1.706
90694W        W49955  19.555  36.492   5.205
90695W        W49956  16.300  15.657   1.307
90696W        W49957  20.617  32.617  12.848
90697W        W49958  44.331  40.857   1.389
90698W        W49959  27.646   6.390   0.302
90699W        W49960  25.211  14.107  13.402
90700W        W49961   2.460  42.915  12.421
90701W        W49962  14.826  16.226  14.005
90702W        W49963  39.557   3.807  12.017
90703W        W49964   2.734  23.997  10.532
90704W        W49965  13.233  31.560   1.218
90705W        W49966   6.397  19.134  12.957
90706W        W49967  12.271  33.528   3.229
90707W        W49968  28.978  20.065  12.927
90708W        W49969  16.621   6.418   3.329
90709W        W49970   8.834  36.433  10.894
90710W        W49971  42.878  33.078  13.856
90711W        W49972   9.676   5.293   3.693
90712W        W49973  19.643  35.972  12.856
90713W        W49974  25.010  10.172   3.756
90714W        W49975   3.428  18.676  10.528
90715W        W49976  32.397  13.752   4.823
90716W        W49977  21.103  25.641   3.844
90717W        W49978  28.560   9.777  14.904
90718W        W49979  19.276  25.705   0.880
90719W        W49980  36.049  40.487  14.357
90720W        W49981  30.933  14.304  10.900
90721W        W49982  16.667  44.857  14.314
90722W        W49983   3.360  16.255   3.800
90723W        W49984   7.793  38.480  12.518
90724W        W49985   2.804  35.018   2.878
90725W        W49986   4.216  43.490   4.606
90726W        W49987   9.717  25.067   4.698
90727W        W49988  42.973   4.434   3.233
90728W        W49989  37.004  27.005  12.093
90729W        W49990  32.530  34.529  11.499
90730W        W49991  23.101   6.233  14.353
90731W        W49992  12.119  36.860  11.871
90732W        W49993  12.777  21.077   3.740
90733W        W49994  13.202  34.986   9.976
90734W        W49995   1.921  16.155   2.662
90735W        W49996  21.679  38.892  12.045
90736W        W49997  32.624  32.889  11.554
90737W        W49998  36.995  15.814   0.754
90738W        W49999  27.505  34.962  10.495
90739W        W50000  31.985  22.612   1.700
90740W        W50001  44.805  12.724  11.389
90741W        W50002   7.171  18.643  11.931
90742W        W50003  15.632   5.393  14.491
90743W        W50004  40.895   2.400   1.264
90744W        W50005  39.513  41.787   4.674
90745W        W50006   4.783   7.736   3.173
90746W        W50007   9.843  18.276   0.742
90747W        W50008  37.937  33.981   9.446
90748W        W50009   2.772   0.792  13.881
90749W        W50010  21.739  35.091  10.033
90750W        W50011  40.359  43.474   3.363
90751W        W50012   2.360  35.989   1.825
90752W        W50013  27.042  44.884   2.888
90753W        W50014  11.300  18.228  12.427
90754W        W50015   2.335  21.159   3.234
90755W        W50016   1.801   6.335   1.372
90756W        W50017  33.021  13.751  12.967
90757W        W50018  21.595  20.735  11.521
90758W        W50019  12.807  34.897  11.613
90759W        W50020  32.033   2.820   4.273
90760W        W50021  25.664  32.035   2.185
90761W        W50022  13.108  20.035  14.975
90762W        W50023  41.918  36.384   0.893
90763W        W50024  35.980  11.630  11.533
90764W        W50025  29.426  31.636   1.908
90765W        W50026  40.318  36.866  11.552
90766W        W50027   1.261  24.487   1.222
90767W        W50028  33.591  16.232   2.681
90768W        W50029  13.120  26.515  13.918
90769W        W50030  36.543  25.068  11.495
90770W        W50031  30.163  21.194  14.022
90771W        W50032  30.600  37.017   0.329
90772W        W50033  37.388  42.821  12.991
90773W        W50034  41.033  31.519  10.630
90774W        W50035  37.872   4.230  11.062
90775W        W50036  12.720   6.840  10.419
90776W        W50037  26.036  28.460  12.837
90777W        W50038   0.769  23.721   0.868
90778W        W50039  43.410  39.536   4.683
90779W        W50040  37.875  16.242  14.388
90780W        W50041  22.518  13.645  10.612
90781W        W50042  23.204  36.438   1.795
90782W        W50043  33.991  14.210  13.060
90783W        W50044  28.989  15.703   1.380
90784W        W50045  18.267   0.345  11.944
90785W        W50046   9.308  11.668  12.531
90786W        W50047  37.914  38.547   1.370
90787W        W50048   0.802  20.543  12.898
90788W        W50049  38.341  33.905   1.340
90789W        W50050  36.436   9.730  12.442
90790W        W50051  31.930   1.295   0.842
90791W        W50052   5.793   1.846   4.808
90792W        W50053  13.775  28.136   1.767
90793W        W50054  21.069  41.312  12.840
90794W        W50055  32.885  28.530  11.059
90795W        W50056   9.277  24.493  11.453
90796W        W50057   2.831  19.180   1.914
90797W        W50058  25.673  42.446   3.692
90798W        W50059  39.468  25.987  10.490
90799W        W50060  14.746  24.485   1.853
90800W        W50061   9.771  17.785   4.299
90801W        W50062  29.020  12.132  13.863
90802W        W50063   2.910  20.689   1.340
90803W        W50064  11.127  26.467  11.084
90804W        W50065  10.851  18.263  14.430
90805W        W50066   6.868  16.746  14.466
90806W        W50067  15.590  14.743  13.915
90807W        W50068  30.042  17.179   4.744
90808W        W50069  32.511  17.190  14.811
90809W        W50070   0.256  41.925  12.472
90810W        W50071  23.493  31.000   1.216
90811W        W50072  21.080  10.721  11.967
90812W        W50073  15.648  22.740  14.806
90813W        W50074   2.915  29.066  10.491
90814W        W50075  20.600  18.113  13.328
90815W        W50076  15.322  13.119   1.877
90816W        W50077  38.554   4.707   0.958
90817W        W50078  33.084  24.141  11.380
90818W        W50079  30.579  21.630  10.569
90819W        W50080  38.409  11.248   0.385
90820W        W50081  25.134  31.618  12.089
90821W        W50082  43.818  31.635  11.025
90822W        W50083  37.375  20.736  10.446
90823W        W50084  37.398  27.579  10.087
90824W        W50085  16.190  36.545  10.988
90825W        W50086  40.348  22.664   0.354
90826W        W50087  20.677  31.000   4.211
90827W        W50088  28.105   5.753   3.367
90828W        W50089  38.945   5.841   3.354
90829W        W50090  37.945   1.331   2.672
90830W        W50091  37.875  38.431  13.058
90831W        W50092  40.921  12.766  12.375
90832W        W50093  24.087  16.613   4.688
90833W        W50094  25.001  37.375   0.832
90834W        W50095  34.551  44.903  13.985
90835W        W50096   7.795  10.795  14.912
90836W        W50097  32.132  38.064   1.384
90837W        W50098   7.891  28.489   2.328
90838W        W50099  43.335  35.916   2.730
90839W        W50100  37.920  16.220  13.408
90840W        W50101  20.084  34.405   3.333
90841W        W50102  18.085  10.857  14.968
90842W        W50103  28.946  37.953  13.820
90843W        W50104   1.761   7.805   1.246
90844W        W50105   1.925  16.639  11.019
90845W        W50106  24.051  37.836   4.227
90846W        W50107  39.402   0.939   2.404
90847W        W50108  16.776  16.299   3.322
90848W        W50109  14.286  32.134  10.514
90849W        W50110  41.361  18.782   2.685
90850W        W50111  23.087   6.246   4.205
90851W        W50112  19.542  18.784  14.434
90852W        W50113  11.283  33.561  13.926
90853W        W50114  32.993  24.058  10.425
90854W        W50115  27.980  13.213   2.670
90855W        W50116  29.137  26.578  12.531
90856W        W50117  36.373  33.583  14.288
90857W        W50118  26.119  22.168  14.790
90858W        W50119   6.836  43.379   4.123
90859W        W50120   6.684   8.854   3.246
90860W        W50121   4.738  25.487   3.736
90861W        W50122  19.591  44.261  13.831
90862W        W50123  11.843   3.914   4.327
90863W        W50124  25.185   7.373   0.308
90864W        W50125  38.568  18.572   1.800
90865W        W50126  35.399  37.488  13.847
90866W        W50127  23.668  18.156   2.679
90867W        W50128  38.896  36.089  11.532
90868W        W50129  39.983  39.408   0.288
90869W        W50130  23.130  21.019   2.846
90870W        W50131  38.900   5.432   3.357
90871W        W50132   3.952  38.405  14.397
90872W        W50133  32.135  27.492  11.976
90873W        W50134  37.419  24.112   2.757
90874W        W50135  13.263  40.526  11.405
90875W        W50136   8.675  38.539   2.228
90876W        W50137  44.980  25.653   1.895
90877W        W50138  18.729  32.550   2.858
90878W        W50139  20.661  23.187  10.474
90879W        W50140   5.438  27.504   1.372
90880W        W50141  30.063  31.556  11.933
90881W        W50142   4.871  36.922   2.870
90882W        W50143  17.587  25.590  11.374
90883W        W50144  30.513  27.530   2.838
90884W        W50145   9.822  23.558  11.925
90885W        W50146   3.443  22.581   4.192
90886W        W50147  15.088  16.164  11.548
90887W        W50148  10.762  30.593   3.823
90888W        W50149  30.044  25.517  12.374
90889W        W50150  42.426  27.130  13.308
90890W        W50151  34.586  38.876  10.545
90891W        W50152   7.247  35.863  12.405
90892W        W50153   8.315   5.726  12.356
90893W        W50154   1.838  41.453  11.866
90894W        W50155  18.630  32.938  14.897
90895W        W50156  44.770   5.403   2.783
90896W        W50157  20.632  44.944  12.549
90897W        W50158  21.514  12.778  14.440
90898W        W50159  19.543  37.855  12.350
90899W        W50160  21.254   7.831  13.064
90900W        W50161  16.116  13.690  13.834
90901W        W50162  13.656  16.267  11.876
90902W        W50163  35.579  44.798  11.544
90903W        W50164   6.407   1.383  14.954
90904W        W50165  26.598  16.716   0.760
90905W        W50166  16.792  24.125   2.304
90906W        W50167  26.690  44.302  12.540
90907W        W50168  24.016  38.963  11.456
90908W        W50169  33.467  37.551   3.660
90909W        W50170  23.689  13.833   4.187
90910W        W50171   5.279   4.922  14.833
90911W        W50172  14.669  22.142   0.406
90912W        W50173  35.909  35.519   4.687
90913W        W50174  10.638  38.002  13.839
90914W        W50175  43.467   1.351  11.982
90915W        W50176  44.871  20.216  12.863
90916W        W50177  33.454  33.607  13.938
90917W        W50178  42.958  35.442   0.937
90918W        W50179   7.268   5.431   1.295
90919W        W50180  24.706  43.921  11.501
90920W        W50181  40.967  26.693  14.337
90921W        W50182  37.574  25.514  13.984
90922W        W50183   6.819  22.138   3.637
90923W        W50184  24.546  17.762  13.469
90924W        W50185  37.365  31.020  11.083
90925W        W50186  44.990  13.677  12.573
90926W        W50187  43.789  19.284  12.950
90927W        W50188  43.477  44.956  14.998
90928W        W50189  14.593  34.524   3.804
90929W        W50190  26.193  16.198  13.918
90930W        W50191  24.010  14.736  12.419
90931W        W50192  10.286  34.488  11.534
90932W        W50193  39.031  23.637  11.576
90933W        W50194  36.582  14.769  12.535
90934W        W50195   1.799  27.975   3.196
90935W        W50196  35.406   1.275   4.626
90936W        W50197  13.270  34.948   2.739
90937W        W50198   9.767  27.680  10.589
90938W        W50199  30.625  10.860   2.301
90939W        W50200   2.756  11.652   0.466
90940W        W50201  30.122  28.009  12.851
90941W        W50202  31.502  23.020  10.484
90942W        W50203  22.188  11.621   4.758
90943W        W50204  21.566  20.719   0.842
90944W        W50205  31.104  28.065  14.870
90945W        W50206  12.617  44.757   3.170
90946W        W50207  25.684   1.734   2.662
90947W        W50208  41.936  27.977   4.776
90948W        W50209   5.856  40.044   2.198
90949W        W50210   8.333  17.675  13.485
90950W        W50211  12.199   3.380  11.434
90951W        W50212  15.727  11.281   1.271
90952W        W50213  13.155  11.224   3.859
90953W        W50214  26.138  30.562  14.290
90954W        W50215  43.321  20.695   5.599
90955W        W50216  28.176  33.976   3.703
90956W        W50217   7.192   2.822  11.109
90957W        W50218   4.227  27.149  13.910
90958W        W50219   7.196  11.753  10.985
90959W        W50220  34.434  27.968   1.903
90960W        W50221  28.569  10.706   4.199
90961W        W50222  31.138  37.472   1.426
90962W        W50223  12.320  20.648  11.533
90963W        W50224  17.620   2.754  11.586
90964W        W50225  34.502   4.312  12.838
90965W        W50226  27.007  24.494   2.299
90966W        W50227  19.167   8.265   4.266
90967W        W50228  32.944  39.940   2.749
90968W        W50229  24.124   8.193  14.849
90969W        W50230   1.308  39.330   0.285
90970W        W50231  34.374  11.669   1.775
90971W        W50232  23.021   9.371   1.873
90972W        W50233   6.861  10.696  11.443
90973W        W50234  32.542   8.753  12.475
90974W        W50235   4.307  41.930   2.332
90975W        W50236  38.398  19.674  10.061
90976W        W50237   5.792  16.121  11.958
90977W        W50238   7.374  33.026   2.743
90978W        W50239  35.504  24.560  12.430
90979W        W50240   3.710  21.695  10.503
90980W        W50241  22.128  42.443  13.434
90981W        W50242   3.347  22.140  14.320
90982W        W50243  30.486  28.957   0.849
90983W        W50244  21.596  17.659   2.304
90984W        W50245  16.726   1.774   3.186
90985W        W50246  17.172  13.155  11.043
90986W        W50247  30.041   2.411  12.063
90987W        W50248  35.907  34.001  10.553
90988W        W50249   2.784  33.009   4.765
90989W        W50250  10.186  11.648   3.261
90990W        W50251  23.512  18.613   4.707
90991W        W50252  29.616  25.063   4.662
90992W        W50253  43.446  33.876   3.327
90993W        W50254   8.779  33.388   3.671
90994W        W50255   2.865  34.373   3.161
90995W        W50256  30.435   7.872   1.840
90996W        W50257  18.139  32.015  14.330
90997W        W50258  26.050  13.190   0.433
90998W        W50259  24.598  19.760   1.323
90999W        W50260  42.962  44.412   1.243
91000W        W50261  18.254  33.430  11.087
91001W        W50262  41.453  23.675  12.511
91002W        W50263  42.809  42.951   9.919
91003W        W50264  35.371   4.764   3.662
91004W        W50265   7.378  18.137  14.362
91005W        W50266  15.115  17.592   0.349
91006W        W50267  24.723  38.892  13.055
91007W        W50268  27.540  41.990   3.806
91008W        W50269  17.205  38.482   1.449
91009W        W50270   8.263  15.150   2.672
91010W        W50271  36.426  28.621   1.786
91011W        W50272   4.397   1.904   0.419
91012W        W50273  24.703   2.859  11.974
91013W        W50274  10.754   3.885  12.916
91014W        W50275   9.260  40.447   1.281
91015W        W50276  10.226   3.908   4.276
91016W        W50277  22.024  10.704  11.373
91017W        W50278  24.095  27.992   3.212
91018W        W50279  26.531  26.586  12.953
91019W        W50280   8.824  34.549  12.857
91020W        W50281   1.376   2.370  10.643
91021W        W50282  42.883  22.621  13.016
91022W        W50283  24.018   8.841   0.416
91023W        W50284   6.919  21.648  12.561
91024W        W50285  23.568   8.217   2.301
91025W        W50286  23.105   5.880   0.883
91026W        W50287  14.322  30.149  14.987
91027W        W50288  37.957  23.025  14.914
91028W        W50289  28.681  13.137  12.396
91029W        W50290  44.851  11.631   1.872
91030W        W50291  38.037  25.706  13.987
91031W        W50292   1.766  40.935  14.966
91032W        W50293   2.419  27.637   1.213
91033W        W50294   7.173  25.694  13.412
91034W        W50295  41.451  16.691   2.318
91035W        W50296  25.533  43.438   4.749
91036W        W50297  39.038  43.775  11.574
91037W        W50298  20.531  24.647  12.437
91038W        W50299  41.831   8.724  14.031
91039W        W50300  16.806  41.369   2.867
91040W        W50301  28.022  31.421   0.876
91041W        W50302  26.199  11.371   1.793
91042W        W50303  25.147  35.866   4.694
91043W        W50304   1.953  32.448  12.938
91044W        W50305  13.261  17.699   1.410
91045W        W50306  12.145  28.968  14.373
91046W        W50307  37.424   8.251   3.811
91047W        W50308  18.188   0.267   2.326
91048W        W50309  21.086  38.072   2.870
91049W        W50310  13.609  31.591   1.357
91050W        W50311  37.492   4.921  11.475
91051W        W50312   4.365   9.218   3.808
91052W        W50313  13.332  28.521  13.792
91053W        W50314  11.310  26.072  13.917
91054W        W50315  35.436  41.846   1.880
91055W        W50316  39.514  39.358   3.658
91056W        W50317  11.256  13.617   1.764
91057W        W50318   9.713  29.094  14.020
91058W        W50319  34.517  37.862   0.873
91059W        W50320  23.207  12.710  14.507
91060W        W50321  19.177  32.432   4.758
91061W        W50322  42.861  30.152   2.743
91062W        W50323  38.465  31.048  10.994
91063W        W50324   3.919  30.532   5.114
91064W        W50325  10.240  16.146   2.821
91065W        W50326  11.645   8.676   9.944
91066W        W50327  25.212  12.699  13.019
91067W        W50328  39.464  30.477   3.268
91068W        W50329  16.637   1.417   0.852
91069W        W50330  31.935   7.728   4.307
91070W        W50331  37.024   9.314   1.335
91071W        W50332  28.097  14.624  12.354
91072W        W50333  43.456   7.909  10.566
91073W        W50334  23.123   1.918   4.205
91074W        W50335  29.090  28.954  14.306
91075W        W50336  19.256  16.253  11.407
91076W        W50337  41.346  19.239  11.564
91077W        W50338  37.908  25.536   1.222
91078W        W50339   7.772  27.192  12.986
91079W        W50340  14.708  30.074   3.202
91080W        W50341   6.198  37.565   9.922
91081W        W50342  43.372  28.584  10.469
91082W        W50343  19.177  36.099   4.638
91083W        W50344  42.384  42.443   4.195
91084W        W50345  23.210  40.893   2.346
91085W        W50346  38.887   1.873   5.204
91086W        W50347  17.271   2.383  12.970
91087W        W50348  22.214  44.850  12.890
91088W        W50349  32.142   0.956   3.650
91089W        W50350  15.193  15.802  10.931
91090W        W50351  33.961  30.159   1.772
91091W        W50352  17.172  42.378  12.834
91092W        W50353  22.079  17.685  13.945
91093W        W50354   8.795  42.831  14.972
91094W        W50355   9.279  23.528  14.801
91095W        W50356  11.292  24.563  10.493
91096W        W50357  16.644  24.054  12.042
91097W        W50358  41.486  13.153  11.403
91098W        W50359  36.425  34.549   2.389
91099W        W50360  18.556  40.884  11.416
91100W        W50361  13.179  22.210  13.536
91101W        W50362  21.192  20.563  14.877
91102W        W50363  32.455  18.704  13.824
91103W        W50364  14.151  44.335   4.621
91104W        W50365  13.695  38.497   2.278
91105W        W50366  29.150  30.001  11.962
91106W        W50367  38.476   2.863  12.524
91107W        W50368   7.380  35.406   3.273
91108W        W50369  32.581  13.325   0.383
91109W        W50370  36.463  13.230  14.766
91110W        W50371  12.642  22.696   1.262
91111W        W50372  31.945  25.107   3.855
91112W        W50373  16.315  42.922   0.305
91113W        W50374  32.540  14.188  11.036
91114W        W50375  27.672   6.821   1.812
91115W        W50376  37.912  34.494   5.251
91116W        W50377  26.976  39.414   4.737
91117W        W50378  37.952   9.297   4.136
91118W        W50379  14.590   1.858   2.848
91119W        W50380   4.825  43.426   1.255
91120W        W50381  12.776  26.080  10.984
91121W        W50382  13.323  26.495   4.173
91122W        W50383  29.531   9.724   2.815
91123W        W50384  29.045  29.578   4.752
91124W        W50385  31.575  27.549   4.615
91125W        W50386  15.156  39.507  14.406
91126W        W50387   5.212  12.137  13.804
91127W        W50388  29.006   0.949   2.698
91128W        W50389  19.560  20.679   1.738
91129W        W50390  25.097  27.460  12.509
91130W        W50391  28.621  29.049  12.924
91131W        W50392  29.069  30.974   2.676
91132W        W50393  21.218  24.027  14.912
91133W        W50394  29.434   3.850   1.822
91134W        W50395   2.246   1.305  11.428
91135W        W50396  40.830  19.057  10.980
91136W        W50397  42.473  14.766   4.296
91137W        W50398  15.694  35.394  11.386
91138W        W50399  13.665  13.289  14.921
91139W        W50400   8.689  21.556   4.162
91140W        W50401  33.933  23.080  13.885
91141W        W50402  31.028   2.360   2.771
91142W        W50403  33.097  11.779  11.459
91143W        W50404  15.808  34.040   0.402
91144W        W50405   3.217  38.472   4.263
91145W        W50406  43.960  38.490  14.392
91146W        W50407   6.757   6.923  14.994
91147W        W50408   3.269  22.565   3.292
91148W        W50409  42.396  19.606  12.348
91149W        W50410  21.073  11.197   2.897
91150W        W50411   5.876  10.829  11.038
91151W        W50412   6.188  21.748   2.195
91152W        W50413   3.715  28.512  13.013
91153W        W50414  21.260  39.049  12.903
91154W        W50415  18.572  33.004  13.967
91155W        W50416  30.064   6.228  13.334
91156W        W50417  33.482  31.473   3.291
91157W        W50418   5.217  35.941   4.670
91158W        W50419  11.834  31.497   3.827
91159W        W50420  18.269   1.332  10.900
91160W        W50421   4.220  44.816   1.366
91161W        W50422  12.242  36.985   0.326
91162W        W50423  39.960  43.853  14.909
91163W        W50424  28.150  16.205  14.867
91164W        W50425  11.348  41.017   1.237
91165W        W50426   9.672  35.858   0.359
91166W        W50427   9.756   9.392   4.220
91167W        W50428  22.228  42.981   1.436
91168W        W50429  29.020  18.677   0.882
91169W        W50430  41.538  43.489   0.366
91170W        W50431  31.415   2.471   0.762
91171W        W50432  36.462  22.995   2.417
91172W        W50433  29.149   2.319   3.680
91173W        W50434  23.520  29.926  12.526
91174W        W50435  21.150  39.991   0.477
91175W        W50436  14.336  28.985   1.343
91176W        W50437  34.453  11.304  13.817
91177W        W50438   3.949  32.976  12.373
91178W        W50439  10.283   4.736   0.368
91179W        W50440  23.501  21.584  14.398
91180W        W50441  42.394   9.677  12.489
91181W        W50442  19.201   3.943  14.995
91182W        W50443   8.694  44.434  11.928
91183W        W50444   7.414  36.562   4.766
91184W        W50445  24.723  18.566   0.278
91185W        W50446  40.484  21.167  11.005
91186W        W50447  25.626  43.431   0.368
91187W        W50448  18.075  36.423   4.348
91188W        W50449  20.107  19.228   4.332
91189W        W50450  41.016  21.043  14.981
91190W        W50451  27.144   2.809   2.892
91191W        W50452   7.749  35.983   4.818
91192W        W50453  35.537  22.046   2.799
91193W        W50454  36.883  13.772   2.820
91194W        W50455  27.950  16.623  11.574
91195W        W50456  23.154  37.839   0.948
91196W        W50457   5.395  22.703   2.318
91197W        W50458  12.748   5.930  13.385
91198W        W50459  17.782  36.371  13.020
91199W        W50460  15.759  28.135  12.363
91200W        W50461  25.212   3.433  11.389
91201W        W50462  40.340  13.722   3.725
91202W        W50463  18.783   7.769  11.090
91203W        W50464  26.497  22.102   1.774
91204W        W50465   0.887  17.302  14.428
91205W        W50466   4.431  14.220  11.604
91206W        W50467  21.030  30.494   2.387
91207W        W50468   9.806  30.458  13.865
91208W        W50469  25.599  44.905   1.230
91209W        W50470  11.732   1.925   2.235
91210W        W50471  37.907  35.522  14.894
91211W        W50472   7.698  44.960  13.053
91212W        W50473  32.896   2.825  13.847
91213W        W50474   1.891  44.266  14.869
91214W        W50475  10.368  31.508   3.230
91215W        W50476   6.714  15.256  12.973
91216W        W50477  23.511  41.379  13.883
91217W        W50478   0.384  37.368   4.277
91218W        W50479  12.298  14.737  11.010
91219W        W50480  25.169  17.764   2.262
91220W        W50481   6.714  29.071  11.392
91221W        W50482  17.203  39.020  11.401
91222W        W50483   0.835  27.533  12.943
91223W        W50484  19.766  33.444   4.344
91224W        W50485   2.822  25.632   2.277
91225W        W50486  24.007  31.029  14.279
91226W        W50487  16.190  30.451   5.253
91227W        W50488  33.521  42.488  13.801
91228W        W50489  43.971   9.881  14.020
91229W        W50490  35.556  13.729  14.471
91230W        W50491  17.282  29.521  14.302
91231W        W50492  38.853  18.673   2.383
91232W        W50493  33.553  38.949   1.295
91233W        W50494  38.565  10.184   2.787
91234W        W50495  39.898  18.700  11.914
91235W        W50496  42.868  11.228  10.921
91236W        W50497   9.193   5.693   1.270
91237W        W50498  17.585  11.333  13.798
91238W        W50499  26.479   0.929   4.164
91239W        W50500   0.371  40.867  14.918
91240W        W50501  11.203  24.185   0.368
91241W        W50502  40.856  27.529  14.986
91242W        W50503  40.979  22.012  12.956
91243W        W50504  23.998  39.505   3.780
91244W        W50505  29.453  22.539  13.939
91245W        W50506  44.769  10.872  14.981
91246W        W50507   9.178  22.016   1.873
91247W        W50508  18.704  25.978   1.744
91248W        W50509  20.160  43.462   4.778
91249W        W50510   6.264   7.205   1.269
91250W        W50511  41.320  20.650  14.810
91251W        W50512   4.812  13.122   3.260
91252W        W50513  17.268  44.981  13.064
91253W        W50514  12.213   7.330  14.855
91254W        W50515  35.942  12.632   2.262
91255W        W50516  31.435  16.195   4.723
91256W        W50517  35.098   2.887  13.419
91257W        W50518  35.582  42.477   4.821
91258W        W50519  24.100   8.766   1.845
91259W        W50520  43.426  29.483   1.327
91260W        W50521   9.167   8.401   1.786
91261W        W50522  24.709  11.651   0.859
91262W        W50523   2.365  13.289   1.330
91263W        W50524  20.193  38.505  11.390
91264W        W50525   2.955   8.837  13.361
91265W        W50526  33.972   5.232  14.011
91266W        W50527  23.068   5.328  14.346
91267W        W50528  21.047  30.596   0.339
91268W        W50529  26.643  26.679   1.878
91269W        W50530  43.361   1.433   3.676
91270W        W50531   7.362  43.997   4.803
91271W        W50532   8.361  24.139  10.996
91272W        W50533  34.489  26.629  14.900
91273W        W50534  30.009   6.210   2.207
91274W        W50535  38.907  44.919  11.912
91275W        W50536   6.231   6.329  11.867
91276W        W50537  20.149  25.614   2.753
91277W        W50538  11.788  13.172   0.783
91278W        W50539  37.484  34.389   2.694
91279W        W50540  44.300  14.109  13.819
91280W        W50541  42.349   0.931  11.987
91281W        W50542  42.963   5.435   3.807
91282W        W50543  37.533  35.554  11.508
91283W        W50544  10.371  28.459  14.286
91284W        W50545  36.587  26.686  14.823
91285W        W50546  39.417  26.664  14.499
91286W        W50547  41.043  21.017  14.326
91287W        W50548  21.164   6.195   1.250
91288W        W50549  20.565  44.966  14.837
91289W        W50550  36.039   1.792  12.353
91290W        W50551  34.492  35.938   0.776
91291W        W50552  12.185  33.532   4.837
91292W        W50553  31.014  36.922   1.804
91293W        W50554  19.534  14.785  12.478
91294W        W50555  14.265  34.487  12.843
91295W        W50556  12.796  34.083  12.039
91296W        W50557  21.731  23.200   1.837
91297W        W50558  24.079  38.952   4.175
91298W        W50559  43.412  19.612   0.734
91299W        W50560   4.846  42.303   3.825
91300W        W50561  43.370  36.536   0.466
91301W        W50562  29.987  20.640  10.935
91302W        W50563   0.843  42.339   4.799
91303W        W50564  32.943   4.941   1.384
91304W        W50565  13.819  10.310  12.978
91305W        W50566   4.845  11.631   5.316
91306W        W50567  35.099   5.691  11.037
91307W        W50568  40.010  27.000   1.236
91308W        W50569   5.748  16.156  10.993
91309W        W50570  16.567  42.850   0.961
91310W        W50571   9.211  40.464   0.867
91311W        W50572  19.774  44.432   5.235
91312W        W50573  27.563  17.557  10.915
91313W        W50574  29.091  17.632  11.053
91314W        W50575  43.374  25.065  12.463
91315W        W50576  31.409  22.190  12.431
91316W        W50577  39.945  36.864   1.932
91317W        W50578  16.227  23.608   0.361
91318W        W50579  25.527  29.025   4.675
91319W        W50580  32.557  35.036  10.640
91320W        W50581  23.601  37.063   2.367
91321W        W50582  42.284  25.075  11.446
91322W        W50583  27.178   1.947   1.229
91323W        W50584  31.555  13.296  13.928
91324W        W50585  17.733   9.177  10.427
91325W        W50586   4.257  23.698   2.777
91326W        W50587   6.857  40.028   1.239
91327W        W50588  37.003  32.592   1.281
91328W        W50589  10.850  44.975   2.707
91329W        W50590  19.175  38.456  14.965
91330W        W50591  36.901  26.697  11.551
91331W        W50592  37.976   0.948   3.812
91332W        W50593  37.445  38.549   3.741
91333W        W50594  30.954  34.604  10.010
91334W        W50595   4.819  41.867  14.893
91335W        W50596  26.552   3.836  12.910
91336W        W50597  40.877  12.626  11.522
91337W        W50598  44.437   5.400  14.919
91338W        W50599  22.068  35.898  12.348
91339W        W50600  12.198   6.704   1.922
91340W        W50601  35.593  19.252  10.601
91341W        W50602  40.393  43.988   0.933
91342W        W50603   3.441  36.918  14.387
91343W        W50604  31.444  37.544  12.010
91344W        W50605  18.729  43.433   3.792
91345W        W50606  10.269  42.382   0.406
91346W        W50607  12.741  22.239  13.366
91347W        W50608  28.530  37.576   1.909
91348W        W50609  32.550  42.474  12.422
91349W        W50610   4.702  43.902   0.957
91350W        W50611  42.379  18.161   5.615
91351W        W50612   4.837  44.876  11.051
91352W        W50613  23.108  19.591  11.900
91353W        W50614   7.327  39.324  12.419
91354W        W50615  24.185  26.161  11.948
91355W        W50616   6.875  31.023   0.937
91356W        W50617  41.312  10.692  14.027
91357W        W50618   7.380   7.279   4.239
91358W        W50619  19.166  14.713   1.409
91359W        W50620   5.358   4.223   5.091
91360W        W50621  30.136  22.136  14.310
91361W        W50622  34.117  17.099   2.393
91362W        W50623  43.949  16.110   1.353
91363W        W50624  12.145   1.842  10.641
91364W        W50625  23.047  10.798   3.361
91365W        W50626   7.717  19.102  14.877
91366W        W50627  21.628  29.016  13.801
91367W        W50628  22.007  42.489  11.607
91368W        W50629  38.469  34.603  10.919
91369W        W50630  40.400   2.447   3.661
91370W        W50631  36.492  26.519  13.345
91371W        W50632  29.508  34.096   0.784
91372W        W50633  40.806  37.070  13.965
91373W        W50634   2.349  32.575   2.328
91374W        W50635  43.959   0.299   1.226
91375W        W50636  44.354  20.545  13.312
91376W        W50637  35.047   8.866  14.286
91377W        W50638  30.624  40.346  10.574
91378W        W50639  13.731   7.902   0.812
91379W        W50640   0.762  13.191   2.300
91380W        W50641  39.937  34.436   5.302
91381W        W50642   5.756  26.639  13.421
91382W        W50643   0.870  28.003   3.178
91383W        W50644   8.733  43.415  10.475
91384W        W50645   9.160  26.973   2.752
91385W        W50646  11.313  24.069   1.280
91386W        W50647  26.992  23.711  10.970
91387W        W50648  32.516  41.972   3.695
91388W        W50649   5.916  22.530   2.876
91389W        W50650  36.402  40.047   3.329
91390W        W50651  44.864  10.155  14.890
91391W        W50652  19.625   4.416  11.120
91392W        W50653  40.424  39.431   2.419
91393W        W50654  31.635  39.525   3.220
91394W        W50655   4.341  16.308   1.772
91395W        W50656  26.031  41.353  13.412
91396W        W50657  34.420  29.470   1.802
91397W        W50658  31.952  33.097  13.356
91398W        W50659   8.728  11.370   4.654
91399W        W50660  20.615  12.838   3.296
91400W        W50661  34.969  34.581   4.724
91401W        W50662   3.381  34.464  10.448
91402W        W50663  25.575  29.992   3.642
91403W        W50664  38.412  25.553   1.780
91404W        W50665  29.117  42.029  13.811
91405W        W50666  13.828  12.357  11.485
91406W        W50667   4.301  12.307   0.404
91407W        W50668  22.641   6.298   2.703
91408W        W50669  26.588  31.422  14.998
91409W        W50670  33.439  25.475  11.082
91410W        W50671   1.888  37.981  13.342
91411W        W50672  29.979  16.303  10.464
91412W        W50673  31.042   8.751   0.393
91413W        W50674  10.774  22.129   1.720
91414W        W50675  44.814  12.799  13.817
91415W        W50676  38.008  27.618   0.353
91416W        W50677   1.454  25.007   0.413
91417W        W50678  42.954  43.865   4.645
91418W        W50679  39.544   6.253   4.156
91419W        W50680  11.334  23.664   0.442
91420W        W50681  37.078  14.321  12.464
91421W        W50682  43.789  43.444  10.893
91422W        W50683   4.827  11.146   2.416
91423W        W50684  28.487  30.563  11.560
91424W        W50685  44.380   7.362  14.353
91425W        W50686  18.108  30.944   4.712
91426W        W50687  18.773   4.939   2.772
91427W        W50688   3.738  41.879  13.837
91428W        W50689  29.617  35.482   3.266
91429W        W50690   2.343  32.018  12.447
91430W        W50691   8.358   3.742  11.537
91431W        W50692   2.448  17.098   4.226
91432W        W50693  42.806  25.053   2.824
91433W        W50694   2.252  10.248  11.529
91434W        W50695  11.148  33.083   0.755
91435W        W50696  19.675  14.248  13.505
91436W        W50697  30.545   8.824  14.378
91437W        W50698  35.944  39.874  11.901
91438W        W50699  31.597  43.894  12.521
91439W        W50700  27.027   4.437   4.822
91440W        W50701  37.389   1.941  10.409
91441W        W50702   4.794   5.387   4.692
91442W        W50703  39.350  21.530   0.456
91443W        W50704  20.534  31.073   3.281
91444W        W50705  34.456  43.297   4.626
91445W        W50706  15.768  15.583  13.406
91446W        W50707  37.447   7.758   4.824
91447W        W50708   9.645  33.978   3.276
91448W        W50709  18.615   7.883   3.159
91449W        W50710  14.203  26.074  14.968
91450W        W50711  38.843   2.429   1.933
91451W        W50712  43.343  34.873   2.321
91452W        W50713  20.147  14.684  13.368
91453W        W50714  15.687  17.642   0.744
91454W        W50715  11.155  34.594   4.669
91455W        W50716   0.453  42.810  12.449
91456W        W50717   0.885   9.324   4.634
91457W        W50718   4.868  13.740  13.327
91458W        W50719  41.816   9.855   0.888
91459W        W50720   3.766   3.870  12.508
91460W        W50721  39.536   7.192   4.205
91461W        W50722  29.058  31.548   2.324
91462W        W50723  33.899  13.115  13.886
91463W        W50724  39.378  10.747  14.871
91464W        W50725  17.802  30.148  14.957
91465W        W50726   8.825  28.128   2.389
91466W        W50727  42.281  13.612  10.892
91467W        W50728  43.915   2.901   4.663
91468W        W50729  10.263  13.644   3.365
91469W        W50730  11.679   1.248   2.277
91470W        W50731  35.932   5.366  13.815
91471W        W50732  23.090  22.655  12.079
91472W        W50733  38.975  39.936   1.257
91473W        W50734   7.844  21.724   2.889
91474W        W50735  27.585  40.844  10.412
91475W        W50736  16.652  42.403  11.443
91476W        W50737  14.221  16.653  13.898
91477W        W50738  13.730   4.791  13.493
91478W        W50739   6.382  20.616   3.149
91479W        W50740   6.185  19.236  13.370
91480W        W50741  15.224  24.103  11.502
91481W        W50742  34.608  17.199  13.847
91482W        W50743  23.077  14.671  11.946
91483W        W50744  28.134  18.624  12.847
91484W        W50745  30.584  21.697  12.941
91485W        W50746   4.869  27.674  13.400
91486W        W50747  28.127  29.616  14.305
91487W        W50748  17.629  22.524  12.555
91488W        W50749  36.049   4.752  10.982
91489W        W50750  11.310  40.379   2.313
91490W        W50751  42.518   5.328   1.450
91491W        W50752  23.121  19.701   2.838
91492W        W50753  23.547  39.556   3.306
91493W        W50754   2.387  38.438  10.947
91494W        W50755  39.842  32.998   0.398
91495W        W50756  12.761  35.896  14.854
91496W        W50757  42.322  15.797   0.272
91497W        W50758  13.152  22.526   4.812
91498W        W50759  28.183  39.030  14.292
91499W        W50760  19.669  34.114   0.889
91500W        W50761  17.776   7.224  13.000
91501W        W50762  42.984  42.873   5.258
91502W        W50763  17.604  39.467   2.764
91503W        W50764  42.844  22.030   3.740
91504W        W50765  44.430   6.219  14.924
91505W        W50766  10.212  25.100   0.726
91506W        W50767  36.513  39.498   4.276
91507W        W50768  26.148  15.094  12.459
91508W        W50769   5.433   6.192  14.861
91509W        W50770  20.654  34.021   3.365
91510W        W50771   6.905  15.125  11.425
91511W        W50772   5.834   0.813  12.530
91512W        W50773  44.356   9.736   0.789
91513W        W50774  36.921  38.435  11.439
91514W        W50775  22.621   4.736   2.382
91515W        W50776  42.936   4.921   1.380
91516W        W50777  12.629  38.512   3.825
91517W        W50778  16.146  32.887   3.192
91518W        W50779  13.164  29.455  14.914
91519W        W50780   4.266   6.261   0.455
91520W        W50781  27.661  41.039   2.681
91521W        W50782  16.711  37.416  11.876
91522W        W50783  27.536   5.422   2.277
91523W        W50784  42.884  23.162   3.240
91524W        W50785  27.086  14.267  14.999
91525W        W50786  11.202  37.002   3.648
91526W        W50787  31.085  33.470  12.895
91527W        W50788  30.616   6.855  14.937
91528W        W50789  10.211  43.426   2.742
91529W        W50790  13.282  38.326  12.548
91530W        W50791   1.321  25.672   4.810
91531W        W50792  34.499  36.030   3.157
91532W        W50793  41.311  20.723   3.341
91533W        W50794  26.540  34.022   0.460
91534W        W50795  15.215  43.783   3.835
91535W        W50796  17.228  10.811   2.306
91536W        W50797   9.340   3.829  13.817
91537W        W50798  40.866  33.913  12.881
91538W        W50799  19.609  26.084  10.491
91539W        W50800  17.671  33.415  10.957
91540W        W50801  36.433  36.050   2.880
91541W        W50802  39.833  28.955  14.442
91542W        W50803  12.228  30.508  10.947
91543W        W50804  19.103  23.606  10.549
91544W        W50805  12.301  11.767   3.816
91545W        W50806  14.748  38.049   0.872
91546W        W50807   0.821  43.908   2.787
91547W        W50808  11.780  13.286  10.615
91548W        W50809  25.125  13.775   4.213
91549W        W50810   4.388   6.227   4.825
91550W        W50811  35.376   6.183  13.317
91551W        W50812  24.229  41.327  10.543
91552W        W50813  14.322  13.812   4.703
91553W        W50814   5.323  41.468  12.833
91554W        W50815  30.544  39.530  10.917
91555W        W50816  36.494  29.511   3.631
91556W        W50817   2.875  44.499   0.419
91557W        W50818  29.462   8.304  14.465
91558W        W50819  43.921  21.191  13.899
91559W        W50820   3.757  25.131  10.915
91560W        W50821   5.933  29.609  11.411
91561W        W50822  25.694  22.049   1.818
91562W        W50823   5.800   0.852   0.316
91563W        W50824  44.925   7.679   3.255
91564W        W50825  20.261  26.051   3.691
91565W        W50826  32.142  15.321   0.337
91566W        W50827   3.250   9.193   2.179
91567W        W50828  43.777  11.363  14.421
91568W        W50829  11.787   1.865  10.429
91569W        W50830  16.651  21.093  12.922
91570W        W50831  39.374  32.422  12.348
91571W        W50832  43.925  26.585   0.278
91572W        W50833  14.796  40.020   2.202
91573W        W50834  11.249  21.146   4.819
91574W        W50835  31.493  16.087  11.111
91575W        W50836  44.997  10.180  11.608
91576W        W50837  17.660  40.937  13.392
91577W        W50838  41.298  27.483  12.565
91578W        W50839   7.865   0.856   3.810
91579W        W50840  31.000  16.593  10.576
91580W        W50841   1.951  13.638   1.423
91581W        W50842  21.094  42.807   0.766
91582W        W50843  44.444  39.915  14.503
91583W        W50844  18.604  18.215   0.299
91584W        W50845   3.939  10.238   2.408
91585W        W50846   7.896  27.488  11.395
91586W        W50847   3.283  30.919  12.564
91587W        W50848  30.438  39.002  11.501
91588W        W50849  42.288   6.271  11.478
91589W        W50850   9.209  21.606  11.884
91590W        W50851   1.865   6.790   0.437
91591W        W50852  20.599  11.262  10.494
91592W        W50853   2.406  35.944   4.214
91593W        W50854   7.413  14.288   4.715
91594W        W50855  22.219  13.755   2.783
91595W        W50856  22.245  20.136  13.003
91596W        W50857  21.626  37.352  12.054
91597W        W50858   3.778  29.613  12.387
91598W        W50859  26.063   8.685   1.843
91599W        W50860  33.468  29.098  12.490
91600W        W50861   6.341  26.547   1.736
91601W        W50862  10.729  16.753   0.822
91602W        W50863  19.151  25.078   0.866
91603W        W50864  29.011  14.620   2.249
91604W        W50865  33.954  28.933   4.746
91605W        W50866   0.805   0.393   3.629
91606W        W50867  11.198  30.512  11.879
91607W        W50868   2.370  29.037   0.469
91608W        W50869   3.397   6.849  11.426
91609W        W50870   6.711  10.739  14.844
91610W        W50871  12.323  34.997   1.864
91611W        W50872   5.229  37.538   1.867
91612W        W50873   9.354   7.756  11.560
91613W        W50874  25.090  41.855   4.283
91614W        W50875  38.907  23.509   2.260
91615W        W50876  34.000  21.046   0.295
91616W        W50877  43.443  19.778  14.759
91617W        W50878  44.889  20.114  11.074
91618W        W50879  20.239   0.490   0.909
91619W        W50880  23.502  25.585   1.833
91620W        W50881   3.913  26.555   5.126
91621W        W50882  19.164  44.338   0.945
91622W        W50883  37.574  29.649  14.849
91623W        W50884  41.397  41.018  11.553
91624W        W50885   8.774   2.297  10.599
91625W        W50886  24.124  30.648   9.485
91626W        W50887  12.353   3.714  13.054
91627W        W50888   2.411   8.316   2.287
91628W        W50889   1.299  35.527  11.022
91629W        W50890  15.311  13.327  13.888
91630W        W50891  28.485  24.056   2.193
91631W        W50892  23.990  34.989  12.432
91632W        W50893  36.400   2.396  13.308
91633W        W50894  22.694  22.070   3.691
91634W        W50895  10.331  38.050   0.814
91635W        W50896  25.494  33.444   2.300
91636W        W50897   8.344  23.124  10.425
91637W        W50898  41.003  14.823   2.872
91638W        W50899  44.833  35.011  13.017
91639W        W50900  39.838   6.215   2.278
91640W        W50901  17.645  11.191  13.312
91641W        W50902  41.833  38.958  12.092
91642W        W50903  27.590  29.065  13.530
91643W        W50904  38.405  22.549   2.216
91644W        W50905  26.030   5.438  14.874
91645W        W50906  16.637  39.419   4.797
91646W        W50907  35.025   5.285  13.314
91647W        W50908  12.192  18.715   1.238
91648W        W50909  30.975  14.773  11.442
91649W        W50910  24.017  21.523   4.281
91650W        W50911  44.340  41.376   2.774
91651W        W50912  41.330   2.295   3.831
91652W        W50913  23.147   3.434  11.393
91653W        W50914  36.481  33.384   0.377
91654W        W50915   9.820  41.016   4.179
91655W        W50916  18.775  16.801  11.422
91656W        W50917  28.093  34.562   4.720
91657W        W50918  38.075   3.285   2.865
91658W        W50919   1.761  18.114   0.801
91659W        W50920  37.923  35.368   4.666
91660W        W50921  23.119  13.604  11.495
91661W        W50922   9.351  37.047  11.488
91662W        W50923  29.493   8.743   2.751
91663W        W50924  43.021  34.603  14.024
91664W        W50925  33.486  27.178  14.451
91665W        W50926  14.755  42.461  11.021
91666W        W50927   8.885  28.980  14.844
91667W        W50928  10.685  20.219  14.342
91668W        W50929  26.966  30.986  11.951
91669W        W50930  15.763  36.060   3.170
91670W        W50931  33.029  16.616   1.754
91671W        W50932  14.259  18.193  14.788
91672W        W50933  26.108  27.083   3.354
91673W        W50934  32.463  14.639   1.439
91674W        W50935  29.933  25.120  13.870
91675W        W50936  42.447  40.808   1.925
91676W        W50937  43.302  15.679  13.053
91677W        W50938  16.161  42.017   2.857
91678W        W50939  12.156  32.535   0.292
91679W        W50940   0.834   2.244   3.689
91680W        W50941  30.009  22.032  12.571
91681W        W50942   2.752   8.321  12.539
91682W        W50943   9.327   7.301  13.431
91683W        W50944   4.206  38.984   3.193
91684W        W50945  41.871  26.511  12.931
91685W        W50946   5.417   8.300   0.948
91686W        W50947  21.086  15.625   3.763
91687W        W50948  13.622   1.864  10.552
91688W        W50949  11.276  12.346  13.373
91689W        W50950   4.322  22.055   4.731
91690W        W50951  42.804  43.851  12.014
91691W        W50952  14.095  40.843  14.970
91692W        W50953  30.942  37.839  14.846
91693W        W50954  22.199  28.628  13.009
91694W        W50955  10.372  10.343   5.086
91695W        W50956  38.399  40.322  10.534
91696W        W50957  33.053  24.183   1.750
91697W        W50958  10.301  11.280  11.953
91698W        W50959  42.384  31.067   1.243
91699W        W50960  27.076  38.475  11.008
91700W        W50961  29.582  36.856  13.041
91701W        W50962  12.702  32.547  13.338
91702W        W50963  17.133  15.226   0.340
91703W        W50964  19.049   1.844   1.706
91704W        W50965  23.530  26.044  10.622
91705W        W50966  16.672   0.261   2.350
91706W        W50967  32.141   0.249   0.439
91707W        W50968   1.949  26.181   2.283
91708W        W50969  18.191  35.430   1.852
91709W        W50970  25.966  43.360   0.417
91710W        W50971   3.419  15.116   3.157
91711W        W50972  33.443  15.728  10.031
91712W        W50973  21.694  13.297   4.271
91713W        W50974  26.630   0.861   3.766
91714W        W50975  30.469  14.320   1.843
91715W        W50976  37.080  30.532   3.839
91716W        W50977  18.598  27.679  14.449
91717W        W50978  20.069  17.129   5.107
91718W        W50979  16.286   7.378   4.679
91719W        W50980   0.945  34.931   0.243
91720W        W50981  34.403  38.499  11.606
91721W        W50982  27.585  10.752  13.988
91722W        W50983  43.953  31.514  11.464
91723W        W50984  32.421  37.056   2.418
91724W        W50985  42.364  18.175  12.839
91725W        W50986  31.969   0.877   1.837
91726W        W50987  22.672  33.582   1.758
91727W        W50988  10.674  10.291   4.665
91728W        W50989  25.999  25.653   0.726
91729W        W50990  40.018   2.913   0.815
91730W        W50991  28.489  18.685  13.916
91731W        W50992  32.518  15.705  10.419
91732W        W50993  17.308  22.550  14.778
91733W        W50994  15.162  22.170   1.909
91734W        W50995   2.965   4.289   3.759
91735W        W50996  33.517  43.409  14.329
91736W        W50997  40.484   8.215   4.256
91737W        W50998   1.478  33.590  10.609
91738W        W50999  11.730  42.441   3.162
91739W        W51000  27.553   3.887  11.551
91740W        W51001   4.233   3.453   3.856
91741W        W51002   6.244  34.916  14.332
91742W        W51003  29.578  10.652   2.257
91743W        W51004  21.645  37.906   0.783
91744W        W51005  37.077   6.223  14.882
91745W        W51006  17.610  38.938  10.942
91746W        W51007  17.104  39.009  13.430
91747W        W51008  34.604  28.502  14.402
91748W        W51009  40.319  11.372  11.015
91749W        W51010  18.739  33.410   4.344
91750W        W51011   2.414   6.210  13.369
91751W        W51012  38.410  32.908   1.860
91752W        W51013  32.009  25.675   3.204
91753W        W51014  35.599  38.007   3.827
91754W        W51015  22.523  17.227  10.159
91755W        W51016  12.133  38.412  12.383
91756W        W51017   0.963  36.499   3.679
91757W        W51018  36.430   6.845  11.541
91758W        W51019  10.767  23.203  13.818
91759W        W51020  42.324   1.914   4.282
91760W        W51021  26.184  36.925  13.004
91761W        W51022  21.214  32.947   0.731
91762W        W51023  41.880  24.004  12.084
91763W        W51024  33.431  15.239  11.056
91764W        W51025   4.747  25.028  10.553
91765W        W51026   8.396  16.307  11.459
91766W        W51027  28.076  10.804  10.153
91767W        W51028  38.385  44.471   4.683
91768W        W51029  14.779  27.485  11.889
91769W        W51030  12.846  27.193  13.877
91770W        W51031  32.597  28.636  13.928
91771W        W51032  12.776  14.149  10.490
91772W        W51033   1.464  28.610   0.284
91773W        W51034  33.962  26.073   1.224
91774W        W51035  12.157  26.467   4.617
91775W        W51036  18.089  35.893   3.350
91776W        W51037  15.145   7.858  11.501
91777W        W51038   9.336   2.305   1.434
91778W        W51039  18.653  20.242   5.102
91779W        W51040  39.894  29.431   3.791
91780W        W51041   5.821  27.603  13.434
91781W        W51042  12.218  14.337   1.310
91782W        W51043  34.869   4.896   2.701
91783W        W51044  19.207  35.878  10.609
91784W        W51045  39.353  38.990   4.266
91785W        W51046  23.079  42.971   1.773
91786W        W51047  44.344  44.421  11.108
91787W        W51048   5.766  27.185   4.678
91788W        W51049  36.413  23.190   3.752
91789W        W51050  10.290  11.706  14.861
91790W        W51051  18.177  30.561  12.987
91791W        W51052  43.484  28.596  12.442
91792W        W51053  13.770  12.148   0.372
91793W        W51054  30.540  41.843  13.846
91794W        W51055  40.961  28.942  14.448
91795W        W51056  34.047   1.832  11.924
91796W        W51057  13.140   5.201  13.883
91797W        W51058  27.183  33.526  12.493
91798W        W51059  41.019  34.546   2.669
91799W        W51060   3.418  44.927  14.318
91800W        W51061  36.561  23.585  13.882
91801W        W51062  29.600  22.582  12.393
91802W        W51063  12.661  28.152  10.415
91803W        W51064  19.690  30.496   3.332
91804W        W51065  16.301  11.844  14.974
91805W        W51066  33.088   7.322   3.663
91806W        W51067  14.274  20.159   0.875
91807W        W51068   9.823  31.993   1.241
91808W        W51069  27.643  27.675   0.937
91809W        W51070  43.013  12.610   2.889
91810W        W51071  33.062  39.825   0.791
91811W        W51072   6.358  40.515  11.421
91812W        W51073   0.486  21.731   1.361
91813W        W51074  40.486  33.545  14.848
91814W        W51075   5.799  28.995  12.940
91815W        W51076  32.961  38.932   2.353
91816W        W51077  33.421  12.611   4.749
91817W        W51078   8.393  22.633  10.962
91818W        W51079  25.651  28.555  10.067
91819W        W51080   7.292  34.051   2.819
91820W        W51081  14.713  27.175   2.810
91821W        W51082  37.857  16.228   0.408
91822W        W51083  16.783   6.398  11.459
91823W        W51084  31.406  30.101  10.527
91824W        W51085   3.404  32.046   4.818
91825W        W51086  20.272   2.892  14.948
91826W        W51087   5.371   8.839   2.702
91827W        W51088   0.773   5.245   3.834
91828W        W51089   6.292   0.980  13.540
91829W        W51090   5.783  17.613  11.116
91830W        W51091   4.824   2.824   3.639
91831W        W51092  16.613  35.492   2.735
91832W        W51093  15.821  10.174  11.476
91833W        W51094  17.635  37.031  10.431
91834W        W51095  36.051  37.582   2.821
91835W        W51096  33.406  25.503   0.356
91836W        W51097  18.186  34.026   1.862
91837W        W51098  17.659  28.489   1.695
91838W        W51099  20.042   3.443   2.729
91839W        W51100  18.733  29.089  13.318
91840W        W51101  21.588  43.854  12.025
91841W        W51102  11.769  31.954   0.259
91842W        W51103  37.054  26.491   4.713
91843W        W51104  38.521  42.876  10.540
91844W        W51105  15.642   3.327  14.386
91845W        W51106   7.706  43.340  10.629
91846W        W51107  29.550  20.264   3.754
91847W        W51108  28.093  27.594  14.469
91848W        W51109  30.658  37.376   4.797
91849W        W51110  30.434  42.898   2.894
91850W        W51111  40.829  26.048   9.572
91851W        W51112   3.782  20.210   1.888
91852W        W51113  39.500  22.585   4.821
91853W        W51114  20.105  14.717  13.978
91854W        W51115  21.131   5.289  10.572
91855W        W51116  31.419   0.397   1.712
91856W        W51117   9.156  17.301   4.709
91857W        W51118   8.202   4.722   2.854
91858W        W51119  20.202  19.062  14.380
91859W        W51120  30.152  27.588  12.901
91860W        W51121  40.504   9.802   3.736
91861W        W51122  10.322  22.718  14.869
91862W        W51123   0.865  36.060  10.044
91863W        W51124  25.695  35.070   2.691
91864W        W51125  22.175  41.389  11.927
91865W        W51126  10.864  24.498  12.438
91866W        W51127  11.152   8.748  11.957
91867W        W51128  39.381  20.066  12.906
91868W        W51129   2.721  38.052  12.985
91869W        W51130  31.610  31.064  11.858
91870W        W51131   1.896   4.404   2.228
91871W        W51132   4.208  36.957  12.000
91872W        W51133  16.076  42.413   4.254
91873W        W51134   0.975  28.479  11.866
91874W        W51135  14.709  40.431   4.828
91875W        W51136  19.231  17.800  13.334
91876W        W51137   1.387  41.377   1.297
91877W        W51138  13.347   2.828   4.172
91878W        W51139  29.053  18.585   2.405
91879W        W51140  11.685  28.165  10.131
91880W        W51141  43.335  35.472  14.306
91881W        W51142  40.989  24.560  10.097
91882W        W51143  30.147  42.309  14.487
91883W        W51144  20.600  34.439   4.113
91884W        W51145  31.903   8.829   1.421
91885W        W51146   8.347  42.391  13.411
91886W        W51147  24.696  28.481  11.878
91887W        W51148  35.867  31.964  10.599
91888W        W51149  16.311  26.072   4.307
91889W        W51150  40.424  14.189  10.097
91890W        W51151  12.220  28.636   3.290
91891W        W51152   3.834   3.235  12.075
91892W        W51153  41.365  26.685  14.333
91893W        W51154  43.961  10.254  14.492
91894W        W51155  31.637  29.532  10.587
91895W        W51156   2.898  42.338   0.941
91896W        W51157   3.808  20.273   1.308
91897W        W51158  30.971  43.355  11.528
91898W        W51159  24.997  22.525  13.918
91899W        W51160  14.194   4.904   4.798
91900W        W51161  22.677  31.958  13.511
91901W        W51162  26.510  14.230  11.112
91902W        W51163  25.966   8.258  11.494
91903W        W51164  18.677  21.036  13.508
91904W        W51165  19.237  36.524   3.248
91905W        W51166  36.501  19.242   3.651
91906W        W51167   1.324  20.159   2.864
91907W        W51168  14.218  22.111   1.730
91908W        W51169  43.905  41.428   0.327
91909W        W51170  39.053  22.522  13.040
91910W        W51171  15.166  33.911   0.270
91911W        W51172  18.134  16.090   0.913
91912W        W51173  34.080  17.793  11.072
91913W        W51174   9.221  25.617  14.004
91914W        W51175  39.872  43.862  10.429
91915W        W51176  17.729   3.847   3.269
91916W        W51177  29.616   1.414  14.389
91917W        W51178  21.219  14.224  14.311
91918W        W51179   4.416  14.699   4.715
91919W        W51180  39.983  28.473  13.806
91920W        W51181   6.775  31.630  10.404
91921W        W51182  41.824  29.611  10.473
91922W        W51183   3.780   0.783  11.045
91923W        W51184  42.376  14.714  10.106
91924W        W51185  17.683   7.358   0.931
91925W        W51186   8.728  31.057  11.530
91926W        W51187   6.318  14.249   1.329
91927W        W51188  30.589   6.682  12.368
91928W        W51189  21.194  11.372  10.590
91929W        W51190  18.141  30.420  14.373
91930W        W51191  37.849  39.476  12.986
91931W        W51192   4.359  43.800   2.213
91932W        W51193  19.080  43.405   2.195
91933W        W51194  20.670  32.905   4.246
91934W        W51195   9.195  36.983   4.146
91935W        W51196   5.228  31.998   5.289
91936W        W51197  25.475  34.086   4.692
91937W        W51198  13.684  17.093  14.442
91938W        W51199   3.378  35.938   0.929
91939W        W51200  40.805   7.206   1.226
91940W        W51201  42.511  23.510   0.469
91941W        W51202  29.163  21.670   2.796
91942W        W51203  36.843   1.967  12.890
91943W        W51204  29.030  43.891   3.734
91944W        W51205   6.874  33.884  14.765
91945W        W51206  40.413  30.914   1.299
91946W        W51207  33.438  25.007  12.365
91947W        W51208  15.323  37.966  10.956
91948W        W51209  11.640  34.541  10.594
91949W        W51210  30.995  26.640  11.018
91950W        W51211  23.102   7.835   0.366
91951W        W51212  19.740  11.767   4.682
91952W        W51213   9.268  35.599  13.527
91953W        W51214  17.097  41.385   1.777
91954W        W51215  22.245   7.191   0.900
91955W        W51216  43.485  33.048  12.514
91956W        W51217   7.671  21.684   2.180
91957W        W51218  10.145  15.709   1.803
91958W        W51219   7.360  17.086  13.520
91959W        W51220  30.586  26.113  13.383
91960W        W51221  42.973   0.457   3.803
91961W        W51222  42.965   1.794  11.872
91962W        W51223  17.773  12.132  10.556
91963W        W51224  39.500  34.527  10.975
91964W        W51225  34.913   0.957   0.831
91965W        W51226   1.343  26.611  14.878
91966W        W51227  20.655  34.447  11.091
91967W        W51228  10.666   2.380  13.791
91968W        W51229  18.115   3.761   3.747
91969W        W51230  44.804  43.985   2.771
91970W        W51231  32.015   0.922   0.280
91971W        W51232  31.961  26.574   0.252
91972W        W51233  17.151  43.861  10.515
91973W        W51234  13.845   2.805   2.841
91974W        W51235  40.483  16.744  12.560
91975W        W51236   1.891  37.872   0.878
91976W        W51237  44.873  34.116  10.414
91977W        W51238  34.071  33.433   4.225
91978W        W51239   0.965  11.805   4.291
91979W        W51240   9.808  27.691   0.419
91980W        W51241  33.621  34.450   4.608
91981W        W51242   4.824  40.950   2.398
91982W        W51243  12.251  26.499  12.894
91983W        W51244  15.584  29.539   1.326
91984W        W51245  18.645  38.997   0.766
91985W        W51246  11.758  25.567   3.860
91986W        W51247  34.092  32.926  13.955
91987W        W51248  12.791   9.266   3.352
91988W        W51249  18.230  36.562   2.706
91989W        W51250  23.062  20.198   0.753
91990W        W51251  38.380  35.964  12.066
91991W        W51252  22.119   3.799  11.890
91992W        W51253  12.763   2.261  13.533
91993W        W51254  29.650  34.110   1.322
91994W        W51255  15.643   4.927  11.569
91995W        W51256  10.208  27.599  13.331
91996W        W51257  12.703   5.927   0.807
91997W        W51258  37.533  16.731  13.452
91998W        W51259  12.143  36.371   4.813
91999W        W51260   9.760  26.162   4.757
92000W        W51261  30.566  11.224  10.030
92001W        W51262  43.846  26.646   4.323
92002W        W51263  13.639  43.385   2.214
92003W        W51264   5.267   1.430  14.792
92004W        W51265  20.654  34.061  13.900
92005W        W51266  32.606  43.980  14.310
92006W        W51267  25.587   7.737  10.418
92007W        W51268  15.101   0.882   2.393
92008W        W51269  15.106   6.392   4.829
92009W        W51270  11.786  42.362   0.375
92010W        W51271   0.320   8.329   3.223
92011W        W51272  39.975   5.841  13.981
92012W        W51273  30.468  10.143   5.265
92013W        W51274  21.224   0.391  10.983
92014W        W51275   3.944  32.107   4.233
92015W        W51276  39.812  37.959   2.290
92016W        W51277  17.664  10.833  10.411
92017W        W51278  11.222  44.841  13.851
92018W        W51279  34.886  31.468   0.906
92019W        W51280  33.052  10.755  13.531
92020W        W51281   2.930  16.688  12.852
92021W        W51282  16.091  30.526   0.285
92022W        W51283   3.858   4.409  12.575
92023W        W51284  43.901  29.056  13.379
92024W        W51285  15.138  12.224  11.902
92025W        W51286  15.288  44.386  14.811
92026W        W51287  39.436  31.584   4.835
92027W        W51288  42.288  41.987   1.835
92028W        W51289   3.278  13.318   4.280
92029W        W51290  10.157  24.605   0.418
92030W        W51291  31.028   9.378   3.337
92031W        W51292  10.368  32.035  13.331
92032W        W51293   5.844  38.021  10.888
92033W        W51294  31.108  20.570  11.377
92034W        W51295  36.863  33.908  11.894
92035W        W51296  10.139  34.110  12.096
92036W        W51297   3.913  12.686   1.908
92037W        W51298  27.678  13.773   1.744
92038W        W51299  11.155   8.782  13.060
92039W        W51300  16.204   0.249  13.803
92040W        W51301  21.738  27.990   4.620
92041W        W51302  18.728  28.530   1.787
92042W        W51303   1.869  22.112  12.042
92043W        W51304  42.511  13.331   3.869
92044W        W51305  16.697  11.627  11.537
92045W        W51306  34.462  42.936   0.922
92046W        W51307  18.114   3.345  12.911
92047W        W51308  27.648  36.411   1.923
92048W        W51309  37.536  41.889   0.405
92049W        W51310   4.943  42.399  11.420
92050W        W51311  41.359  15.716   1.713
92051W        W51312  26.086  25.009  12.037
92052W        W51313  12.251  27.094   4.720
92053W        W51314   1.789  31.026  14.294
92054W        W51315  41.445  14.208  14.453
92055W        W51316  16.130  10.198   5.108
92056W        W51317  31.040  44.488  10.439
92057W        W51318  35.429  36.866   1.818
92058W        W51319  14.287  10.158   3.664
92059W        W51320   9.180  31.488  14.923
92060W        W51321  23.028  33.507  12.007
92061W        W51322   7.796  14.283  12.985
92062W        W51323  23.073  27.641   2.798
92063W        W51324  13.811   5.206   0.483
92064W        W51325  20.637   1.773   2.869
92065W        W51326   9.694  36.409  10.920
92066W        W51327  29.018  44.899   1.826
92067W        W51328   2.253   3.715  14.960
92068W        W51329  31.626  12.680  11.973
92069W        W51330  26.207  12.752  11.412
92070W        W51331   2.965  34.047  12.539
92071W        W51332  10.206   2.922  14.380
92072W        W51333  35.384   8.786  12.421
92073W        W51334  38.908  41.917   1.791
92074W        W51335  31.110  22.080  14.323
92075W        W51336  26.185   2.935   4.743
92076W        W51337  35.022  22.068  14.331
92077W        W51338  35.946   6.314  12.079
92078W        W51339   7.390  28.934   2.759
92079W        W51340  32.992   8.293  13.021
92080W        W51341   2.316  12.632   2.357
92081W        W51342  22.096  15.155   4.804
92082W        W51343   2.470   9.665   4.714
92083W        W51344  29.114  42.827   4.247
92084W        W51345  44.980   2.286   2.852
92085W        W51346  31.142  32.452   2.209
92086W        W51347  20.556  21.063   4.156
92087W        W51348  30.129  22.059   0.350
92088W        W51349  20.056  41.425  11.550
92089W        W51350   7.286  40.394   3.146
92090W        W51351  38.995  37.430  11.512
92091W        W51352  20.645  44.860  11.031
92092W        W51353  19.058   3.221  14.433
92093W        W51354  25.027  30.943  13.380
92094W        W51355  12.849  38.940   3.246
92095W        W51356  10.878  16.287  10.578
92096W        W51357   8.300   1.910   3.678
92097W        W51358  16.173  35.927  14.963
92098W        W51359  31.480  18.641  10.560
92099W        W51360  36.415  38.844   3.213
92100W        W51361  13.257  27.593  13.044
92101W        W51362  20.147  39.035   3.791
92102W        W51363   5.382  14.255   2.203
92103W        W51364  16.128  42.387   1.873
92104W        W51365   2.908  27.194  11.079
92105W        W51366  23.543   6.253  14.940
92106W        W51367  22.740  24.692  13.793
92107W        W51368  12.203  30.505   2.334
92108W        W51369  42.776  10.687  11.041
92109W        W51370   5.916  32.009  11.968
92110W        W51371  43.814  43.805   2.200
92111W        W51372  12.284  36.517  12.575
92112W        W51373   6.357  21.156   0.440
92113W        W51374  42.873  23.106   2.283
92114W        W51375  13.297  19.577  14.400
92115W        W51376  39.961  22.517   1.875
92116W        W51377  42.878  17.209   3.307
92117W        W51378  27.457  34.540   2.865
92118W        W51379  33.016  35.953   2.764
92119W        W51380   6.359   7.389  14.358
92120W        W51381  24.057  35.085   2.389
92121W        W51382  19.222   5.278  11.454
92122W        W51383  16.101  37.421   2.771
92123W        W51384   3.799   7.208  14.021
92124W        W51385  24.011  24.541  11.117
92125W        W51386  38.940  14.251  11.943
92126W        W51387   4.819  31.910   0.787
92127W        W51388  23.652  16.572  14.974
92128W        W51389   4.710   9.776  10.420
92129W        W51390  10.241  19.616  14.473
92130W        W51391  17.657  40.366  14.353
92131W        W51392  20.260   1.775   2.770
92132W        W51393  43.865  18.144   1.295
92133W        W51394  39.907   9.703   3.786
92134W        W51395  23.239  24.610  11.030
92135W        W51396  15.098  19.177   1.876
92136W        W51397  30.100  19.693  11.083
92137W        W51398  33.527  30.533   1.889
92138W        W51399  32.965   1.789   1.346
92139W        W51400  20.576  31.489  12.935
92140W        W51401  34.488  15.692   2.183
92141W        W51402  13.296  12.631   2.816
92142W        W51403  31.955  38.552  11.009
92143W        W51404  40.037  22.737   0.391
92144W        W51405  35.985  25.647   2.356
92145W        W51406  23.659   1.448   2.366
92146W        W51407   3.825  39.485  14.440
92147W        W51408  43.822  26.997  11.511
92148W        W51409  20.107  13.115  12.029
92149W        W51410  10.744  23.198  10.915
92150W        W51411  12.735  22.154  13.891
92151W        W51412  34.498  17.608  13.355
92152W        W51413  37.526  22.211  11.112
92153W        W51414  22.683  33.056   3.308
92154W        W51415   7.876   4.277   4.288
92155W        W51416  25.159  23.644  12.490
92156W        W51417   2.909   8.814  13.062
92157W        W51418  40.485   0.847   1.845
92158W        W51419  31.055   9.696   4.229
92159W        W51420  37.531  42.346   2.678
92160W        W51421   6.855   2.755   1.822
92161W        W51422  15.103  13.829  12.486
92162W        W51423   1.294   3.743  12.469
92163W        W51424  23.581  24.185   3.796
92164W        W51425  17.240  16.585  12.921
92165W        W51426  21.079   8.797  14.376
92166W        W51427  25.034  10.662  11.374
92167W        W51428   5.372  11.311  13.413
92168W        W51429  12.343  43.356  14.366
92169W        W51430  13.813  36.055   2.827
92170W        W51431  29.632  15.303  14.016
92171W        W51432  38.049  20.653   1.888
92172W        W51433  41.329   5.912   4.636
92173W        W51434  40.536  25.484  13.014
92174W        W51435  36.591  35.046  14.814
92175W        W51436  29.952  11.695   3.710
92176W        W51437  18.056   3.228  11.941
92177W        W51438  38.969  40.031   3.854
92178W        W51439  18.086  42.783   0.476
92179W        W51440   0.859  25.482   1.907
92180W        W51441  12.246   0.938  10.121
92181W        W51442   4.306  32.934   4.175
92182W        W51443  34.479  36.972  12.407
92183W        W51444  11.661  10.687   3.173
92184W        W51445  34.428  29.635   0.260
92185W        W51446   0.432  19.772  12.923
92186W        W51447  33.569  16.122   1.796
92187W        W51448  29.960   8.308  14.364
92188W        W51449  32.052  39.038   2.405
92189W        W51450  33.580  21.551   0.457
92190W        W51451  15.256  28.141  11.948
92191W        W51452  13.730  19.161  12.073
92192W        W51453  23.203  31.002   9.936
92193W        W51454  22.115  22.740   5.285
92194W        W51455   6.763   9.708  10.539
92195W        W51456  25.502  18.685   3.278
92196W        W51457  31.004  44.465   0.965
92197W        W51458  41.972  41.988  12.927
92198W        W51459  27.620   7.178  12.952
92199W        W51460  33.025  35.963  11.956
92200W        W51461   8.845  20.648   4.266
92201W        W51462   9.739  25.057   0.261
92202W        W51463   8.702   9.859   3.689
92203W        W51464  42.479  39.328   5.179
92204W        W51465  35.992  37.030   3.379
92205W        W51466  30.979  36.090  13.814
92206W        W51467   8.169  37.445  12.095
92207W        W51468  14.632  35.466  10.595
92208W        W51469  25.655  26.966   3.680
92209W        W51470  19.057  33.539   2.891
92210W        W51471  21.728   5.867  10.643
92211W        W51472  43.807  23.189   5.151
92212W        W51473  24.074   6.312   0.766
92213W        W51474  38.490  25.005  10.479
92214W        W51475  29.457   0.974   3.753
92215W        W51476  20.661  16.672   3.822
92216W        W51477  22.028  33.438  13.002
92217W        W51478  33.390  39.847   2.320
92218W        W51479  31.480  27.161   2.754
92219W        W51480  40.873  40.036   4.809
92220W        W51481   9.752  24.085  13.030
92221W        W51482  28.008   9.299  10.137
92222W        W51483  19.099  36.368   0.248
92223W        W51484  37.067   3.245  12.986
92224W        W51485  32.622   2.851   0.308
92225W        W51486   7.870  16.238  12.993
92226W        W51487   7.215  18.256  12.831
92227W        W51488  16.309   6.850   0.455
92228W        W51489  24.688  32.018   0.388
92229W        W51490  18.189  24.686  14.928
92230W        W51491  35.886   1.839  13.063
92231W        W51492   9.750  29.994   4.168
92232W        W51493  20.274  37.049   3.654
92233W        W51494  14.265  39.430   3.366
92234W        W51495  41.036   3.260   3.347
92235W        W51496  40.867  13.113  10.540
92236W        W51497  33.424   4.926  11.974
92237W        W51498  16.195  22.589   4.760
92238W        W51499  32.976   0.261   2.690
92239W        W51500  35.558  12.823   1.710
92240W        W51501  38.376   6.893  11.565
92241W        W51502  36.393  37.863   3.188
92242W        W51503  40.021   3.341   0.269
92243W        W51504  33.910   6.787  11.567
92244W        W51505  44.875   8.785   0.730
92245W        W51506  29.070   7.370  13.015
92246W        W51507   4.319  12.358  14.507
92247W        W51508  32.985  20.056  11.434
92248W        W51509  36.989  33.919   0.430
92249W        W51510  19.710  21.067  14.899
92250W        W51511  14.638  10.171   1.320
92251W        W51512  16.656   7.685   5.682
92252W        W51513  30.451   3.253   3.792
92253W        W51514  39.941  12.308  10.639
92254W        W51515  22.116   4.884  12.414
92255W        W51516  12.361  29.049   4.701
92256W        W51517   4.808  38.493  11.478
92257W        W51518   3.950  30.997  14.471
92258W        W51519  44.496  40.813  11.560
92259W        W51520   3.242  34.416   1.828
92260W        W51521   8.691   8.784   4.680
92261W        W51522  22.252  23.697  13.324
92262W        W51523   9.349  44.770  12.444
92263W        W51524  20.526  36.029   2.767
92264W        W51525  30.116  23.218   0.301
92265W        W51526  32.071  19.165  14.886
92266W        W51527  42.342   2.812  11.127
92267W        W51528  42.283  24.003  14.790
92268W        W51529  19.551  43.769   2.762
92269W        W51530  38.972  44.849   2.323
92270W        W51531   1.238  31.499  13.043
92271W        W51532  33.483   9.655  12.386
92272W        W51533  24.512   1.294  10.487
92273W        W51534  35.030  30.100  13.914
92274W        W51535   2.454  12.687  12.047
92275W        W51536  31.997  12.303   2.720
92276W        W51537  13.206  43.989   2.874
92277W        W51538  44.925  27.625   2.221
92278W        W51539   7.865  35.981   1.830
92279W        W51540  39.325  19.694   3.693
92280W        W51541  10.352   1.327  14.415
92281W        W51542   6.396   6.708  13.494
92282W        W51543   7.274   7.680   5.583
92283W        W51544   2.439   0.304   3.849
92284W        W51545   1.832   5.245  12.443
92285W        W51546  14.746   9.780  13.811
92286W        W51547  28.548  36.542   4.310
92287W        W51548  18.673  22.650   2.337
92288W        W51549  11.288  18.150  11.565
92289W        W51550  38.924  42.463  13.443
92290W        W51551   7.716  11.767  10.411
92291W        W51552  15.742  21.049   4.778
92292W        W51553   6.809   1.880   4.628
92293W        W51554  19.271   9.247   1.711
92294W        W51555   1.431  27.673   0.784
92295W        W51556   8.837  39.819  10.555
92296W        W51557  22.995  17.254   0.353
92297W        W51558  18.601  37.968   1.254
92298W        W51559  23.059  35.570  11.521
92299W        W51560  26.630  11.745   1.317
92300W        W51561   7.313  44.974   4.186
92301W        W51562  32.589   9.694   4.278
92302W        W51563  12.823  15.625   0.962
92303W        W51564  22.098  12.332  11.062
92304W        W51565  30.593  32.108   3.804
92305W        W51566  44.797  15.602  13.027
92306W        W51567  21.100  12.856  10.478
92307W        W51568   1.789  10.806  13.060
92308W        W51569   1.846  44.884  14.771
92309W        W51570  44.377  25.096  11.888
92310W        W51571  41.910  38.956   3.720
92311W        W51572  41.830  13.110   4.605
92312W        W51573  30.566  17.768  11.907
92313W        W51574   7.842  17.190   2.268
92314W        W51575   2.895   3.271  13.902
92315W        W51576  33.564  29.569   2.672
92316W        W51577   9.253   5.749  12.374
92317W        W51578   1.904  24.171   1.858
92318W        W51579  29.152   5.865   4.673
92319W        W51580  43.936   4.310   4.159
92320W        W51581  10.633  43.345  10.546
92321W        W51582   4.872  44.771   0.268
92322W        W51583   2.847   4.797  14.879
92323W        W51584  24.024  18.078   0.431
92324W        W51585  27.131   3.783  10.997
92325W        W51586   3.875  19.712   0.957
92326W        W51587  33.411   3.282  13.394
92327W        W51588  35.579  22.606  12.366
92328W        W51589  28.168  20.592   1.347
92329W        W51590   7.332  18.760  14.337
92330W        W51591  14.193  31.614  14.903
92331W        W51592  44.905  24.709   5.296
92332W        W51593  34.511  32.505   0.364
92333W        W51594  24.029   5.372  10.631
92334W        W51595  25.674  24.108  13.999
92335W        W51596  19.135  11.364   1.794
92336W        W51597  30.531  37.421  12.064
92337W        W51598   0.336   9.347  14.026
92338W        W51599  16.764  10.659   4.682
92339W        W51600  17.582  32.990  13.885
92340W        W51601  13.709   4.890  12.961
92341W        W51602  16.148  25.084   3.752
92342W        W51603  10.293   2.450   4.232
92343W        W51604  40.537   4.722  13.929
92344W        W51605  13.831  23.612   0.374
92345W        W51606  38.940  14.145  14.013
92346W        W51607   3.791  12.688   5.248
92347W        W51608   1.915  31.528  12.975
92348W        W51609  10.190  39.890  12.934
92349W        W51610  30.151  17.257   3.216
92350W        W51611  32.139  25.478   0.242
92351W        W51612  13.772  31.505  12.393
92352W        W51613  33.608   7.730   3.727
92353W        W51614  32.402  38.880  14.412
92354W        W51615   9.820  39.998   4.193
92355W        W51616  15.703  17.766   3.786
92356W        W51617   5.401   5.859  13.507
92357W        W51618  16.672  16.176  13.861
92358W        W51619   1.973  25.556   4.277
92359W        W51620   3.888  35.882  11.922
92360W        W51621   4.922  42.503  13.048
92361W        W51622   4.918  24.488   4.731
92362W        W51623  17.266  29.606   2.210
92363W        W51624   6.371  19.059   1.764
92364W        W51625   0.278   2.944   4.634
92365W        W51626  39.877  22.047  14.813
92366W        W51627   6.854   4.419  11.580
92367W        W51628  31.020  17.077  12.943
92368W        W51629  27.086  38.841   0.845
92369W        W51630  43.813  16.739  13.440
92370W        W51631  42.370  25.014   3.789
92371W        W51632  25.708  26.121  12.412
92372W        W51633  21.714   1.856  14.326
92373W        W51634   8.334   7.777  14.462
92374W        W51635  12.319   5.288   4.327
92375W        W51636  43.381   8.249  10.605
92376W        W51637  16.126   6.770   1.929
92377W        W51638  33.961   4.357   4.158
92378W        W51639  19.649  42.376  14.859
92379W        W51640  37.383  36.532   4.138
92380W        W51641   6.323  23.026  11.948
92381W        W51642  41.302  34.457  10.964
92382W        W51643   8.723   8.259   3.723
92383W        W51644   0.812   0.920  10.570
92384W        W51645  19.198  20.032  13.957
92385W        W51646   9.258  13.318   2.324
92386W        W51647  24.582  22.173   0.455
92387W        W51648  32.029  11.276  14.434
92388W        W51649  39.906  38.840  13.448
92389W        W51650   6.250   6.868  12.999
92390W        W51651  41.826  19.125  13.410
92391W        W51652   1.238  16.284  14.434
92392W        W51653   2.915  13.803  10.903
92393W        W51654  30.913  23.563   1.328
92394W        W51655   8.882  29.000   1.331
92395W        W51656   8.374  41.876  11.580
92396W        W51657  14.330   6.394   0.911
92397W        W51658  23.225   8.702  14.817
92398W        W51659  16.258  19.156   1.786
92399W        W51660  39.975  25.187  12.351
92400W        W51661  42.859   8.317  13.508
92401W        W51662  34.948   1.756  12.062
92402W        W51663  24.108  22.011  14.406
92403W        W51664  26.680   5.328   2.872
92404W        W51665  31.950   1.438   3.301
92405W        W51666  11.351  39.990  11.414
92406W        W51667  24.976   0.388   3.839
92407W        W51668   8.214  10.324  10.144
92408W        W51669  10.209  18.648   5.171
92409W        W51670  17.691  34.114   2.757
92410W        W51671  25.102  27.538   0.905
92411W        W51672   8.676  23.540  14.481
92412W        W51673  35.484  12.238  11.989
92413W        W51674  26.972  28.510   2.250
92414W        W51675   2.867  33.104   1.738
92415W        W51676  13.611  11.127  13.934
92416W        W51677  15.725  44.791  11.585
92417W        W51678   3.785  29.948  11.044
92418W        W51679   4.445  43.397  12.886
92419W        W51680  44.758  10.791  14.465
92420W        W51681  44.821  18.255  14.427
92421W        W51682  36.911  43.315  11.972
92422W        W51683  26.562  15.169   3.629
92423W        W51684  36.865  39.872   2.302
92424W        W51685  13.648  23.510   4.741
92425W        W51686  43.953  37.394   2.899
92426W        W51687  42.972  17.565  14.330
92427W        W51688  12.703  32.938  11.906
92428W        W51689  30.541  30.582  11.589
92429W        W51690  25.558  29.084   0.344
92430W        W51691  44.386  38.005  12.499
92431W        W51692  38.891  10.253  11.079
92432W        W51693  26.473  37.478   5.213
92433W        W51694  32.476  22.583  14.392
92434W        W51695   0.841  17.555  12.825
92435W        W51696   4.432  34.385   0.470
92436W        W51697  26.563  27.558   0.441
92437W        W51698   9.380  39.500  12.054
92438W        W51699  38.875   6.879  11.082
92439W        W51700  26.170  10.867   1.804
92440W        W51701  20.181  10.672   3.647
92441W        W51702   1.753  22.679  14.026
92442W        W51703  31.477  15.782   4.124
92443W        W51704  33.053   4.216   0.318
92444W        W51705  12.277  39.019  10.528
92445W        W51706  22.743  18.729   0.359
92446W        W51707  41.463  33.463  10.887
92447W        W51708  11.215  32.914  10.537
92448W        W51709  34.907   2.458   2.233
92449W        W51710  34.046  10.650  11.861
92450W        W51711  36.590   0.827   0.820
92451W        W51712  12.138  33.906  11.881
92452W        W51713  18.243  10.239  11.035
92453W        W51714  27.017  40.480   2.348
92454W        W51715   9.376  30.453  12.917
92455W        W51716   7.240  40.537   0.944
92456W        W51717  40.809  36.022  14.363
92457W        W51718  44.285   8.285   9.996
92458W        W51719   2.938  25.629   1.299
92459W        W51720  37.056  31.547   1.296
92460W        W51721  33.951  33.904  12.460
92461W        W51722  31.071  33.464   2.745
92462W        W51723   3.348  35.379  14.927
92463W        W51724   2.888   1.373   3.239
92464W        W51725   3.296  44.446   2.839
92465W        W51726  10.354  31.038   3.756
92466W        W51727  25.569   2.782  13.852
92467W        W51728  34.566  10.282   4.244
92468W        W51729  15.282  12.333   4.234
92469W        W51730  36.353  11.339  14.514
92470W        W51731  19.252  17.717   9.945
92471W        W51732  38.013  23.067  12.339
92472W        W51733  27.588  27.097   3.870
92473W        W51734  24.048  30.561   1.365
92474W        W51735  33.876   0.305  11.394
92475W        W51736  26.609  31.027  11.538
92476W        W51737  41.456   8.200   4.300
92477W        W51738  31.483   2.866   0.858
92478W        W51739   7.688   3.232  11.876
92479W        W51740   5.799  31.441  11.122
92480W        W51741  30.653  21.538   3.161
92481W        W51742  43.454  37.957  11.612
92482W        W51743  34.514  21.191  12.942
92483W        W51744  33.418   4.760  14.317
92484W        W51745  21.252  17.619  13.436
92485W        W51746   7.179  23.107   2.283
92486W        W51747  17.789  19.095   5.597
92487W        W51748  27.491   0.958  12.490
92488W        W51749  10.720  11.256  11.416
92489W        W51750   6.235  29.122  11.445
92490W        W51751   1.441   8.682  12.510
92491W        W51752   2.808   6.294   0.902
92492W        W51753   1.292  33.480   2.843
92493W        W51754  14.176  12.737  14.015
92494W        W51755  12.621  30.102  11.079
92495W        W51756   0.744  28.932   4.837
92496W        W51757  22.672  28.483  13.405
92497W        W51758  44.935   7.337   3.230
92498W        W51759  33.068  19.609  13.462
92499W        W51760  24.690   9.769  13.036
92500W        W51761  10.146  12.820   0.276
92501W        W51762  44.869  32.985  14.807
92502W        W51763  29.930  44.259   4.276
92503W        W51764  15.152  13.717   0.416
92504W        W51765  10.838  31.472   1.345
92505W        W51766  24.596   3.379  11.894
92506W        W51767  27.145  15.326  13.873
92507W        W51768  35.099  26.114   2.711
92508W        W51769   3.343  32.599  13.372
92509W        W51770  38.435  44.940  13.533
92510W        W51771  23.505   8.800  11.891
92511W        W51772  16.599  44.370   3.188
92512W        W51773  27.480  35.428   2.255
92513W        W51774  32.513  40.992   0.890
92514W        W51775  19.062  16.286   0.457
92515W        W51776  29.570   8.753   2.400
92516W        W51777  10.860   5.798   4.132
92517W        W51778  30.969   3.801   1.831
92518W        W51779  32.420  43.994   4.624
92519W        W51780  38.547  40.510   2.712
92520W        W51781   2.751  40.306   4.227
92521W        W51782  39.886   5.307   4.786
92522W        W51783  25.216  29.659   1.335
92523W        W51784  36.482  15.207  11.968
92524W        W51785  15.252   5.829   1.283
92525W        W51786   1.888   5.269  12.033
92526W        W51787   8.208  18.751   2.876
92527W        W51788  37.011  29.171  14.933
92528W        W51789  21.212  30.418  10.433
92529W        W51790  23.651   7.256   3.834
92530W        W51791   6.384  43.776   2.879
92531W        W51792   4.380  10.305  11.469
92532W        W51793  10.723  44.808   2.410
92533W        W51794  24.154  34.062   0.269
92534W        W51795   5.397  23.609  14.013
92535W        W51796  24.593  14.125  11.436
92536W        W51797  29.162  22.151   0.465
92537W        W51798  13.138  22.128   1.451
92538W        W51799  39.506  43.824   3.189
92539W        W51800   2.786  31.411   0.757
92540W        W51801  22.734  39.851   0.462
92541W        W51802   6.738   3.900   4.274
92542W        W51803  13.802   7.171   4.782
92543W        W51804  28.442  25.206  14.313
92544W        W51805   5.380  23.990  13.016
92545W        W51806  30.914  24.186  11.924
92546W        W51807  28.048  40.359  13.519
92547W        W51808  22.527  33.398  11.100
92548W        W51809  15.749  18.622   5.299
92549W        W51810  24.101  27.143   3.205
92550W        W51811  23.138  22.179  12.490
92551W        W51812  23.179  37.836  12.343
92552W        W51813  25.973   9.201   0.462
92553W        W51814   7.901  30.643   9.920
92554W        W51815   1.858  30.622   3.384
92555W        W51816  22.011   2.885  11.504
92556W        W51817  43.900  19.182  14.861
92557W        W51818  30.553  26.688  14.760
92558W        W51819  37.982  31.006  14.849
92559W        W51820   7.862  12.253   1.719
92560W        W51821  10.288  42.934   0.400
92561W        W51822  32.548   3.900   0.393
92562W        W51823  21.127  13.835  14.823
92563W        W51824  23.645   7.848  11.522
92564W        W51825  38.038  38.951   1.301
92565W        W51826   0.366  30.611   4.301
92566W        W51827   5.423  29.055  12.574
92567W        W51828  26.165  41.427  14.943
92568W        W51829  32.040  28.956   2.368
92569W        W51830   9.653  27.581  13.374
92570W        W51831  13.764  29.952   3.769
92571W        W51832  41.304  41.359  14.019
92572W        W51833  25.691  38.881   0.860
92573W        W51834   5.419  28.555   3.337
92574W        W51835   6.388  28.636  11.381
92575W        W51836  30.053  41.034  10.997
92576W        W51837  25.126  18.213  10.595
92577W        W51838  10.275  38.539  14.902
92578W        W51839  40.936  21.529   1.372
92579W        W51840   9.666  11.291   0.452
92580W        W51841  38.957  30.520  13.324
92581W        W51842  33.544  22.737  12.574
92582W        W51843   6.835  26.664  12.988
92583W        W51844  13.819  18.172   3.701
92584W        W51845   7.328   1.278   0.778
92585W        W51846  15.216  34.424   2.329
92586W        W51847  20.241  35.595   3.176
92587W        W51848  23.606  30.579   4.817
92588W        W51849  42.824  38.937   5.159
92589W        W51850   0.786  21.263   0.456
92590W        W51851  32.124  29.584   2.726
92591W        W51852  37.530  27.567  10.531
92592W        W51853  25.546  18.188  13.961
92593W        W51854  32.050  25.101  13.472
92594W        W51855  22.520  10.647   2.378
92595W        W51856  13.820   0.915   3.839
92596W        W51857  32.025  18.560  14.805
92597W        W51858  23.652  17.784   2.716
92598W        W51859   8.304  33.888   0.901
92599W        W51860  41.950  44.896   4.261
92600W        W51861  35.576  24.082  13.388
92601W        W51862  36.412   3.955   1.882
92602W        W51863  40.864  40.990   1.222
92603W        W51864   9.875  25.102   0.963
92604W        W51865  15.786  10.802   0.769
92605W        W51866  30.630  37.535   0.247
92606W        W51867  41.906  12.135  13.353
92607W        W51868  20.237  19.088   0.749
92608W        W51869   0.841  37.000   0.820
92609W        W51870  12.807  42.941  10.153
92610W        W51871  37.972  28.165   0.963
92611W        W51872   3.880  27.163  13.795
92612W        W51873  42.005  30.164   4.283
92613W        W51874   5.915  10.687  12.525
92614W        W51875   4.343  25.695   0.352
92615W        W51876  12.782   3.227  14.915
92616W        W51877  26.010  21.559  10.462
92617W        W51878  35.469  17.609  12.459
92618W        W51879  33.937  42.845  13.907
92619W        W51880   6.725  43.790   0.338
92620W        W51881  37.389  16.739  11.128
92621W        W51882   2.820  25.564  12.993
92622W        W51883  27.651   8.891   0.930
92623W        W51884  17.280  29.960  12.576
92624W        W51885  13.686  15.809  12.096
92625W        W51886  22.239  18.678  10.451
92626W        W51887  15.322  39.409  12.891
92627W        W51888  34.867  31.916   4.338
92628W        W51889   3.360  11.221  12.862
92629W        W51890   5.877  40.820  11.059
92630W        W51891  23.115  20.071   5.287
92631W        W51892  26.100   5.892   2.771
92632W        W51893  29.544  44.428   5.268
92633W        W51894  10.777  40.400   3.383
92634W        W51895   0.477  18.641   1.880
92635W        W51896  27.614   1.904  14.791
92636W        W51897  17.085  16.638   1.894
92637W        W51898  39.396  15.658   4.298
92638W        W51899  32.400  24.152  13.063
92639W        W51900  41.985   5.384   4.212
92640W        W51901   0.818  16.809  14.960
92641W        W51902  21.244  42.788  12.003
92642W        W51903  31.928  15.228  10.943
92643W        W51904  40.990   9.746  14.888
92644W        W51905  22.672   7.763  14.888
92645W        W51906  19.052  16.314   2.246
92646W        W51907  24.713   3.816  14.992
92647W        W51908  15.103  25.485   5.272
92648W        W51909  17.167  23.194  13.028
92649W        W51910  27.512   5.748   0.847
92650W        W51911  41.300  32.399   0.359
92651W        W51912   4.758  23.037  14.315
92652W        W51913  30.568  28.963  13.416
92653W        W51914  41.894  13.187   3.719
92654W        W51915  11.626  43.293   1.699
92655W        W51916  33.922  24.165  14.892
92656W        W51917  21.729  32.965   4.200
92657W        W51918  21.172  28.090   1.299
92658W        W51919  15.786  35.540   2.412
92659W        W51920   3.751  23.691   2.864
92660W        W51921  16.729   7.672   1.696
92661W        W51922  36.079  23.514   4.820
92662W        W51923  15.584  21.230   1.865
92663W        W51924  10.364  37.354  10.064
92664W        W51925  38.511  15.175   0.832
92665W        W51926  26.063  41.847  10.462
92666W        W51927  40.928  19.689   4.338
92667W        W51928  36.950  33.477   3.341
92668W        W51929  21.552   2.234  14.496
92669W        W51930  44.397   5.793   2.774
92670W        W51931   0.954  44.790  11.940
92671W        W51932  14.652  40.544   3.668
92672W        W51933  12.334   0.803   2.789
92673W        W51934   7.241  24.188  14.387
92674W        W51935  11.190  24.032   3.860
92675W        W51936   8.160  25.656   2.194
92676W        W51937   5.913   0.436  11.912
92677W        W51938  29.530  23.673   2.803
92678W        W51939  15.147  23.194   2.834
92679W        W51940  36.027  29.496  14.412
92680W        W51941  16.717  38.843   1.270
92681W        W51942  35.935  26.620   4.337
92682W        W51943  11.799  38.978   2.680
92683W        W51944  28.440  43.991  14.396
92684W        W51945   9.856  35.436  13.878
92685W        W51946  37.486  44.368  10.945
92686W        W51947  41.917  44.995   1.350
92687W        W51948  43.275   4.272  12.371
92688W        W51949   3.392  36.845   3.387
92689W        W51950  31.079   9.379   0.438
92690W        W51951  16.290  42.465  12.554
92691W        W51952   5.794  31.985   1.411
92692W        W51953  43.516  34.960  11.994
92693W        W51954  36.068  36.507   3.828
92694W        W51955   9.187  39.965   3.700
92695W        W51956  16.303  20.110  14.967
92696W        W51957  21.747   2.433  10.972
92697W        W51958  36.425  41.901  14.314
92698W        W51959   7.745  16.644  12.575
92699W        W51960  26.504  19.689  13.994
92700W        W51961  19.234   5.424   4.786
92701W        W51962  22.031   5.361  11.999
92702W        W51963  37.996   3.809  12.345
92703W        W51964  30.081   0.295  12.863
92704W        W51965  42.887  28.451  12.054
92705W        W51966  35.008  17.573   0.846
92706W        W51967  12.801  12.829  14.354
92707W        W51968  44.383  41.367  11.116
92708W        W51969   3.797  38.017  13.483
92709W        W51970  21.542  34.406  12.057
92710W        W51971  11.227  28.142   3.724
92711W        W51972  12.733  10.874  11.058
92712W        W51973  40.540  37.503   0.925
92713W        W51974  20.677  32.944   3.777
92714W        W51975  14.796  27.161   9.671
92715W        W51976  31.463  39.395  11.895
92716W        W51977  39.849  21.107   5.218
92717W        W51978  43.802  44.320   2.806
92718W        W51979  10.290  20.533   2.756
92719W        W51980   1.277   6.324   0.468
92720W        W51981  20.248   1.895   4.347
92721W        W51982  37.364  38.538   0.924
92722W        W51983  19.538  37.489  14.014
92723W        W51984  27.687  33.394  13.508
92724W        W51985   7.412  24.562  11.375
92725W        W51986  22.591  27.554  13.499
92726W        W51987  41.534   4.808   2.302
92727W        W51988   6.386  35.445  14.849
92728W        W51989  35.585   8.655  11.407
92729W        W51990   2.903  27.673  11.372
92730W        W51991   1.838   7.849   3.742
92731W        W51992  18.566  33.020   2.180
92732W        W51993  26.608  41.435  13.043
92733W        W51994  37.870  23.158   3.654
92734W        W51995   6.347  32.051   0.846
92735W        W51996  24.715   6.237  13.310
92736W        W51997  30.916   5.282  11.463
92737W        W51998  21.091  13.835   3.186
92738W        W51999  18.293  42.418  13.453
92739W        W52000  27.187  39.519  12.562
92740W        W52001  39.379  41.434  12.846
92741W        W52002   6.261   1.334  12.922
92742W        W52003  32.052  13.163  11.405
92743W        W52004  16.717  38.331  14.432
92744W        W52005  42.327   6.826   2.312
92745W        W52006  44.920   8.208   4.309
92746W        W52007  39.505  36.952  12.554
92747W        W52008  37.055  11.322   5.219
92748W        W52009  36.948  13.163  10.441
92749W        W52010  44.790  42.509  11.590
92750W        W52011  26.145  42.782  10.137
92751W        W52012  26.537   0.396  10.429
92752W        W52013  23.211  13.711  13.905
92753W        W52014  27.657  12.312   1.768
92754W        W52015   6.281  39.950  10.568
92755W        W52016  41.004  31.018   4.259
92756W        W52017  22.746  35.082   2.875
92757W        W52018  23.626  25.977  13.795
92758W        W52019  24.059  39.828  10.422
92759W        W52020  39.891   9.327   0.397
92760W        W52021   8.691  38.561  10.982
92761W        W52022  30.577   9.709   3.757
92762W        W52023  11.789  11.776   5.286
92763W        W52024  31.413  44.981  12.567
92764W        W52025  18.132  27.156   0.791
92765W        W52026   4.868  36.065  10.053
92766W        W52027  31.494   3.393   4.303
92767W        W52028  42.817  14.304   3.237
92768W        W52029  29.602  32.527  14.839
92769W        W52030  38.351  17.667   0.887
92770W        W52031  10.865  18.211   3.329
92771W        W52032  29.571   0.436  14.412
92772W        W52033  19.647  30.961  14.983
92773W        W52034  15.652  39.488  13.844
92774W        W52035  20.699  15.279  14.017
92775W        W52036   6.697  27.099  14.818
92776W        W52037  22.685  21.092  12.575
92777W        W52038  16.088   7.829  12.073
92778W        W52039  39.431  33.903   2.675
92779W        W52040  26.682  42.456  12.923
92780W        W52041  28.943   3.436  11.544
92781W        W52042  33.579  30.615  11.116
92782W        W52043  40.887  15.680   3.852
92783W        W52044   1.816  32.926  12.892
92784W        W52045   8.390  26.595   4.734
92785W        W52046  22.601  40.480   4.165
92786W        W52047  25.969  32.473  11.428
92787W        W52048  34.400  21.658  11.583
92788W        W52049  22.563   9.382   3.208
92789W        W52050  28.504   8.761  11.044
92790W        W52051  24.526   6.392  11.607
92791W        W52052  31.643  28.950   4.706
92792W        W52053  32.108  27.111   2.371
92793W        W52054  36.940  42.893   3.756
92794W        W52055   7.406   8.741  11.104
92795W        W52056  37.885  41.799   0.781
92796W        W52057  26.171   8.317  10.983
92797W        W52058  44.890  37.950  10.437
92798W        W52059  16.159  44.488  10.489
92799W        W52060  27.446  12.738   4.342
92800W        W52061  44.433  41.931  13.961
92801W        W52062  27.580  38.521  11.956
92802W        W52063  39.506  18.094   4.811
92803W        W52064  35.938   8.301  13.912
92804W        W52065  37.489  30.644   3.198
92805W        W52066   7.684  17.687   2.861
92806W        W52067  24.717   8.317   2.317
92807W        W52068  16.679  37.344   1.220
92808W        W52069  40.917  23.557  10.125
92809W        W52070  40.880  15.213  10.435
92810W        W52071  27.946  27.172   3.189
92811W        W52072  27.115  36.410   3.648
92812W        W52073  19.687  18.200  13.891
92813W        W52074  26.524   7.857  11.060
92814W        W52075  15.235  26.123  11.423
92815W        W52076  17.712  20.206   4.618
92816W        W52077  17.242  16.244  11.471
92817W        W52078  39.498  41.528   3.708
92818W        W52079  36.932  34.991   3.203
92819W        W52080  13.217  11.213  13.381
92820W        W52081   0.354  22.066   2.382
92821W        W52082  18.295  30.138  14.472
92822W        W52083  44.797  27.158   3.748
92823W        W52084  10.263  32.128  10.067
92824W        W52085  37.995  16.632   0.418
92825W        W52086   6.738   0.380   1.268
92826W        W52087  38.418  19.598  13.357
92827W        W52088  14.316  26.465  10.054
92828W        W52089  16.182   8.827  14.788
92829W        W52090  19.620   2.736  14.031
92830W        W52091  19.580  23.191  11.031
92831W        W52092  31.957  26.975  11.425
92832W        W52093  33.914  40.411   4.806
92833W        W52094  44.354  37.993   3.178
92834W        W52095  23.104   1.338  11.972
92835W        W52096  28.081  12.748   3.805
92836W        W52097   2.461  40.802  14.332
92837W        W52098  40.513   0.916  13.439
92838W        W52099  27.597  29.544   1.214
92839W        W52100   5.728  39.004  14.835
92840W        W52101  25.125  27.132   4.610
92841W        W52102  31.992  11.242   4.669
92842W        W52103  11.735  15.632   3.806
92843W        W52104  33.457  35.401   4.650
92844W        W52105  31.445   5.376  14.339
92845W        W52106  39.899   1.274   0.282
92846W        W52107  37.998  24.524   1.698
92847W        W52108  37.470   8.315   0.790
92848W        W52109  10.688  15.329   3.679
92849W        W52110   2.794   5.800  13.530
92850W        W52111  41.859  21.234   3.640
92851W        W52112  44.345  34.050  11.902
92852W        W52113  11.722  42.985   1.696
92853W        W52114  14.595  16.623   0.736
92854W        W52115  10.223  28.028   0.318
92855W        W52116  23.539  18.556  12.534
92856W        W52117  10.665  24.090   1.737
92857W        W52118  27.556  40.518  12.912
92858W        W52119  28.934  44.771   2.806
92859W        W52120  21.046   1.323  12.542
92860W        W52121  21.731   7.405   2.875
92861W        W52122   4.737  43.471  14.008
92862W        W52123  18.696  44.284  11.493
92863W        W52124  10.329  18.748   2.205
92864W        W52125   5.254  23.514  12.096
92865W        W52126  32.078  21.114   1.735
92866W        W52127   0.338  29.666   4.778
92867W        W52128  28.019  35.936   5.207
92868W        W52129  16.605  24.190   4.614
92869W        W52130  43.508   1.417  11.107
92870W        W52131  41.388  18.277   2.893
92871W        W52132  20.591  36.035   1.928
92872W        W52133  43.897   7.227   3.699
92873W        W52134  27.559   8.343  14.322
92874W        W52135  21.055  16.742  11.009
92875W        W52136  25.966   7.258   3.697
92876W        W52137  34.470   0.448  12.537
92877W        W52138  19.075   2.414   2.786
92878W        W52139   6.243   7.845  12.343
92879W        W52140  33.546  23.590   1.696
92880W        W52141  36.842   0.251   2.721
92881W        W52142   2.933  35.939  12.061
92882W        W52143  18.296  22.085  12.505
92883W        W52144  29.944  16.675   3.652
92884W        W52145  18.626  43.899   2.206
92885W        W52146   0.437   1.776   0.306
92886W        W52147   0.440  26.189   3.852
92887W        W52148   7.311  39.049  12.842
92888W        W52149  17.728  39.967   1.330
92889W        W52150  42.915  41.979  11.866
92890W        W52151  37.882   7.856  12.484
92891W        W52152  20.060  33.056   3.261
92892W        W52153  14.694  32.598   4.685
92893W        W52154  40.849  31.588  14.295
92894W        W52155  30.048  42.894   4.622
92895W        W52156   6.829  34.951   0.317
92896W        W52157  33.102   6.196   1.893
92897W        W52158   4.907  37.950   4.734
92898W        W52159  25.697  13.700  11.057
92899W        W52160  16.096  12.267   2.728
92900W        W52161   7.903   8.296   3.333
92901W        W52162  23.581   2.451   4.132
92902W        W52163  44.767  38.847  12.923
92903W        W52164  36.566   1.459   3.643
92904W        W52165  44.004  37.835  11.598
92905W        W52166  41.900  30.149  13.528
92906W        W52167  31.139   5.792  12.930
92907W        W52168  39.981   9.865  11.505
92908W        W52169  21.112  35.572   2.756
92909W        W52170   4.903  25.982   4.133
92910W        W52171  19.106  17.642   0.869
92911W        W52172  18.285  14.614  13.471
92912W        W52173  42.792  13.332  14.934
92913W        W52174  14.691  13.727   0.321
92914W        W52175  15.324  21.202  13.384
92915W        W52176  37.915  42.921  12.419
92916W        W52177  36.511  29.031  12.896
92917W        W52178  39.002   8.752  13.465
92918W        W52179   0.794  11.223   2.738
92919W        W52180  25.627  32.130   0.360
92920W        W52181  35.904  31.962  13.473
92921W        W52182  15.666   7.355   4.342
92922W        W52183  11.669  31.039   4.250
92923W        W52184  40.024  17.606  14.471
92924W        W52185  16.567  14.600  10.548
92925W        W52186  21.612  21.079  14.988
92926W        W52187   0.362  30.082   4.229
92927W        W52188   0.962  17.201  12.465
92928W        W52189  39.393   6.771  11.463
92929W        W52190  25.156   1.475   3.321
92930W        W52191   0.302  25.594   0.271
92931W        W52192  40.002  43.410  14.026
92932W        W52193   4.816   6.409   5.258
92933W        W52194  27.517  33.986  11.590
92934W        W52195  23.069  18.619   4.120
92935W        W52196  15.209  28.668  13.039
92936W        W52197  41.408  40.530  10.893
92937W        W52198  43.766  15.184  14.392
92938W        W52199  38.870  22.042   2.796
92939W        W52200   9.219  17.214   2.884
92940W        W52201   1.858   1.759  14.353
92941W        W52202  16.190  24.711  10.567
92942W        W52203  34.463   0.443   0.286
92943W        W52204  12.615  31.054  15.000
92944W        W52205  34.965  23.151   0.443
92945W        W52206  38.834  37.954  12.958
92946W        W52207  16.674  36.573   0.474
92947W        W52208  16.678  29.630  14.480
92948W        W52209  28.120   6.408   0.730
92949W        W52210  33.971  25.526  11.087
92950W        W52211   4.221  41.329   4.598
92951W        W52212  30.636  26.189   4.795
92952W        W52213   7.361  11.744  12.402
92953W        W52214  13.130  30.463   1.712
92954W        W52215  26.087  29.118  11.474
92955W        W52216  24.487   5.304   2.735
92956W        W52217  20.214  26.532  12.995
92957W        W52218   4.894  33.874  11.995
92958W        W52219  39.054  41.525  14.391
92959W        W52220  34.571  10.370   3.276
92960W        W52221  43.000  35.453   2.264
92961W        W52222  41.315  18.296  14.486
92962W        W52223  22.548   8.801   5.276
92963W        W52224   8.733   8.388   4.170
92964W        W52225  41.954  24.080  13.402
92965W        W52226  43.437  14.197   0.743
92966W        W52227   9.708   4.222  14.368
92967W        W52228  20.755   4.414  10.612
92968W        W52229  20.218  44.956  10.452
92969W        W52230  24.991  23.615   0.482
92970W        W52231   1.483  19.673  13.980
92971W        W52232   1.293   1.259   1.850
92972W        W52233   7.900  20.767  11.016
92973W        W52234   7.705  41.881  13.064
92974W        W52235  26.527  43.010   1.290
92975W        W52236  22.735  30.554  13.441
92976W        W52237  21.543  27.970  11.954
92977W        W52238  17.298  34.427   0.742
92978W        W52239  37.571  34.402  10.630
92979W        W52240   6.337  40.491  11.009
92980W        W52241   8.378  20.182   3.702
92981W        W52242  42.288  33.941   1.698
92982W        W52243  42.316  38.451   0.259
92983W        W52244  10.743  42.448   2.673
92984W        W52245   0.927  37.486  12.504
92985W        W52246  16.233  25.689  10.946
92986W        W52247  23.495   0.880  10.005
92987W        W52248   0.391  41.936   3.822
92988W        W52249   0.444  12.742   0.955
92989W        W52250  42.466  27.001  14.946
92990W        W52251  42.936   5.764  13.059
92991W        W52252  23.166  31.474  10.470
92992W        W52253  20.140  38.462   4.293
92993W        W52254   2.853  44.830   2.835
92994W        W52255   9.156  32.574  12.018
92995W        W52256  17.618  23.593   1.747
92996W        W52257  26.477  22.149  12.481
92997W        W52258  35.862  13.694   4.125
92998W        W52259  44.485   8.873  12.010
92999W        W52260  27.540  14.649  11.557
93000W        W52261   6.209  22.717   5.190
93001W        W52262   5.339  20.272   0.930
93002W        W52263  37.992  36.085  14.772
93003W        W52264  21.125   0.456   3.642
93004W        W52265   0.848  28.630  11.078
93005W        W52266  20.696   8.321   1.222
93006W        W52267  27.060  25.558   2.743
93007W        W52268   4.423  38.462  13.957
93008W        W52269  17.750  22.995  13.485
93009W        W52270   9.236  17.064  12.028
93010W        W52271   4.862  16.662   1.816
93011W        W52272  27.641  39.000   0.425
93012W        W52273   3.905  27.070   2.725
93013W        W52274   3.411  34.603   2.839
93014W        W52275  18.590  19.728   1.806
93015W        W52276  20.619  10.261   3.788
93016W        W52277  14.136   6.863   4.306
93017W        W52278   5.330  26.083   1.396
93018W        W52279   7.374   0.450  11.396
93019W        W52280  13.699  11.301  14.830
93020W        W52281   1.455   3.418  14.344
93021W        W52282  25.160   2.415  14.988
93022W        W52283  32.469  16.181  10.416
93023W        W52284  10.320  24.141  12.021
93024W        W52285  18.094  40.892  12.838
93025W        W52286  11.793  31.970  11.033
93026W        W52287  26.485  21.132   1.241
93027W        W52288   3.712  11.860  13.400
93028W        W52289  30.504  15.156   0.266
93029W        W52290  20.568  32.928   1.344
93030W        W52291  25.080  43.777   0.851
93031W        W52292  40.391  28.019   5.171
93032W        W52293  12.328   6.323  10.638
93033W        W52294  44.350   1.921  14.948
93034W        W52295  26.498  43.348  12.397
93035W        W52296  43.320   6.690  13.415
93036W        W52297  24.714   1.302  10.988
93037W        W52298  21.230   5.894  11.494
93038W        W52299   7.780  14.300  12.445
93039W        W52300  13.752  10.216  10.521
93040W        W52301   9.728  24.089   1.217
93041W        W52302   3.838  32.985  10.636
93042W        W52303  36.351  11.641  14.468
93043W        W52304  21.106   6.695  12.383
93044W        W52305  29.630   0.907  14.930
93045W        W52306  20.199  41.981  12.464
93046W        W52307  40.994   7.228  14.472
93047W        W52308  13.190  23.625  10.585
93048W        W52309   6.402  34.422   2.785
93049W        W52310  21.615  36.923  11.106
93050W        W52311  15.737  18.727  13.531
93051W        W52312  43.272  14.602  11.577
93052W        W52313  36.963  21.050   1.317
93053W        W52314  38.376  19.752  12.022
93054W        W52315  31.928  10.239  10.428
93055W        W52316  44.481   7.775  11.458
93056W        W52317  16.807  20.220  14.322
93057W        W52318  27.111   2.776  11.443
93058W        W52319  27.683  35.454  12.093
93059W        W52320  44.867  20.061  12.361
93060W        W52321  28.569  28.105   1.926
93061W        W52322   3.805  43.960   1.304
93062W        W52323  36.843  16.314   3.649
93063W        W52324  31.456  12.826  13.858
93064W        W52325  35.438  11.675  12.492
93065W        W52326  40.996   5.212   0.340
93066W        W52327  15.223  44.010   2.681
93067W        W52328   5.811   7.778   4.223
93068W        W52329  13.729  44.422  12.947
93069W        W52330  33.510  43.954   0.753
93070W        W52331  19.215  31.502  10.426
93071W        W52332  22.147   2.877   4.192
93072W        W52333   6.386  23.059  10.923
93073W        W52334  29.599  41.294   2.236
93074W        W52335  19.086  44.938  13.821
93075W        W52336   0.883  40.824  12.451
93076W        W52337  26.652  20.158  11.613
93077W        W52338  36.382  32.931   1.801
93078W        W52339   3.713  33.036  14.462
93079W        W52340  17.062  21.656  10.936
93080W        W52341  41.895  37.579  10.462
93081W        W52342  26.148  30.647   4.750
93082W        W52343  31.403  10.760   3.157
93083W        W52344  14.812  22.172  12.882
93084W        W52345   3.339  10.329   4.830
93085W        W52346   6.796  23.056  11.440
93086W        W52347   1.319   9.281   1.448
93087W        W52348  22.726   1.919   9.924
93088W        W52349  44.332  24.696  10.530
93089W        W52350   1.387  33.963  13.521
93090W        W52351  43.861  16.114  11.099
93091W        W52352  11.627   8.243   0.328
93092W        W52353  26.056  42.281   0.475
93093W        W52354   2.362  39.535   0.828
93094W        W52355  44.383  37.519   1.298
93095W        W52356  16.148  40.853  13.943
93096W        W52357   6.723  43.805  12.855
93097W        W52358  35.107  34.385  13.917
93098W        W52359  14.226  26.046  13.043
93099W        W52360  28.973  40.004   2.245
93100W        W52361  35.471  12.792   4.153
93101W        W52362  41.510  35.580   2.279
93102W        W52363  13.734  25.150   4.288
93103W        W52364  38.072   7.398  13.882
93104W        W52365  14.772  28.506  10.581
93105W        W52366  41.426   8.803   2.719
93106W        W52367  22.589  38.903  13.489
93107W        W52368  40.832  16.214   0.431
93108W        W52369   0.340  44.797  13.024
93109W        W52370   1.840  41.308  12.872
93110W        W52371  34.592  24.187   4.640
93111W        W52372  18.136  42.974   4.305
93112W        W52373  31.021  24.122   1.330
93113W        W52374  37.409  18.663   5.085
93114W        W52375  11.215  11.834  13.906
93115W        W52376   1.483  28.932   2.231
93116W        W52377  43.275  10.276   1.299
93117W        W52378  33.919  28.142  14.293
93118W        W52379  41.343  37.451   4.699
93119W        W52380  17.205  36.918  10.405
93120W        W52381  19.204   5.833   4.210
93121W        W52382   4.233  35.996  10.486
93122W        W52383  39.407  19.647  13.458
93123W        W52384  36.901  40.510  14.777
93124W        W52385  26.088  25.694   1.304
93125W        W52386  29.443   2.434  12.552
93126W        W52387  15.309  22.606  14.503
93127W        W52388  43.475  24.696   0.911
93128W        W52389  16.621  17.734  11.541
93129W        W52390  10.835  34.903   3.252
93130W        W52391   5.255   4.294  14.369
93131W        W52392  10.318  31.989   1.840
93132W        W52393  27.198  24.051  12.532
93133W        W52394  43.913  39.052  10.586
93134W        W52395  33.507  17.069  14.851
93135W        W52396   7.894  42.351  14.846
93136W        W52397  16.186   4.234  12.921
93137W        W52398   4.207  21.709  11.986
93138W        W52399  38.949   1.762   4.168
93139W        W52400   4.332  13.719  12.948
93140W        W52401  35.911  36.886  13.827
93141W        W52402  12.230  43.907  10.457
93142W        W52403  18.194   5.215  14.784
93143W        W52404  20.122  14.307  11.458
93144W        W52405  38.001   7.811   1.380
93145W        W52406   2.328  35.871  10.463
93146W        W52407  31.547  38.462  14.836
93147W        W52408   1.868   0.989  14.903
93148W        W52409  23.661  27.002   3.148
93149W        W52410  38.825  37.071   1.394
93150W        W52411  10.877  39.055  14.855
93151W        W52412  25.092  16.654  11.404
93152W        W52413   6.819  43.443  12.996
93153W        W52414   7.295  21.606   0.329
93154W        W52415   5.248  25.070  10.504
93155W        W52416  35.473  16.096  10.530
93156W        W52417  10.660  27.511   2.276
93157W        W52418   7.384  18.158  14.871
93158W        W52419  29.147  13.290  10.494
93159W        W52420  15.741  37.439  12.410
93160W        W52421  44.379  24.034  14.887
93161W        W52422  23.719  28.136  12.032
93162W        W52423  17.214  17.071   1.832
93163W        W52424   3.247   4.751   4.607
93164W        W52425  25.656  20.218  13.917
93165W        W52426  10.148  35.476  10.977
93166W        W52427  14.197  15.204  11.982
93167W        W52428  44.938  12.653  14.497
93168W        W52429  15.244  12.675  14.824
93169W        W52430  17.566  20.720  12.086
93170W        W52431  28.650   6.836   2.844
93171W        W52432  41.405  12.231  10.535
93172W        W52433  10.718  25.057  14.394
93173W        W52434  42.808   8.685  10.128
93174W        W52435   6.882  36.962  11.069
93175W        W52436   8.844   9.265  14.799
93176W        W52437  23.086   0.333   2.876
93177W        W52438  33.998  17.160  13.335
93178W        W52439   1.405   0.838   3.257
93179W        W52440  40.865  42.847   2.754
93180W        W52441  41.368  29.432   1.417
93181W        W52442  36.890  40.024   3.633
93182W        W52443  13.632  23.528   3.835
93183W        W52444  13.222  40.038   2.192
93184W        W52445  32.562  44.901  13.816
93185W        W52446  34.440  23.641  11.035
93186W        W52447  36.442  25.468   2.687
93187W        W52448  18.626  28.465   4.178
93188W        W52449  14.611   0.390  11.979
93189W        W52450  24.978  25.068  10.478
93190W        W52451  13.334  10.339  12.456
93191W        W52452   2.284  44.961   0.772
93192W        W52453  35.385   3.943   4.701
93193W        W52454  41.034  23.016   1.926
93194W        W52455  19.200  24.611   1.697
93195W        W52456  24.176  26.560  13.442
93196W        W52457  22.611  16.170   0.825
93197W        W52458  39.434  20.705   1.878
93198W        W52459  10.721   6.236  13.898
93199W        W52460  27.639  17.793  14.464
93200W        W52461  41.528  31.627   4.158
93201W        W52462  24.566   4.264  13.497
93202W        W52463  34.895  33.127  12.009
93203W        W52464  14.236   4.297  11.407
93204W        W52465  25.196  12.335  10.951
93205W        W52466  32.032  18.219   0.293
93206W        W52467  44.835  19.095  11.048
93207W        W52468  31.080  19.103  11.610
93208W        W52469   6.830  17.089  10.503
93209W        W52470  34.075  16.611   3.756
93210W        W52471  16.117   8.185  12.470
93211W        W52472  32.620  17.625   1.433
93212W        W52473  38.369  27.613  13.933
93213W        W52474  23.614  33.936   1.381
93214W        W52475   3.279  19.161  13.793
93215W        W52476  25.116   9.886   1.254
93216W        W52477  42.505  34.598  12.448
93217W        W52478  25.999  23.724   1.280
93218W        W52479  11.238  22.746  14.323
93219W        W52480   3.389  44.318   1.261
93220W        W52481  13.323  44.315   2.410
93221W        W52482  25.182  24.496   3.239
93222W        W52483   7.714  19.704  11.453
93223W        W52484  44.441  42.909  12.343
93224W        W52485  33.416  39.005   4.652
93225W        W52486  28.515  10.696   2.211
93226W        W52487  34.959  15.184  13.351
93227W        W52488   5.246  22.648   4.608
93228W        W52489  44.954   5.422  10.909
93229W        W52490  27.945   0.925   2.262
93230W        W52491  36.854   0.278   1.885
93231W        W52492  16.780  28.091   0.828
93232W        W52493  37.487  30.594  12.927
93233W        W52494  17.727  38.060   0.335
93234W        W52495  39.975  36.986  11.413
93235W        W52496  27.943  14.727  12.878
93236W        W52497  28.571  15.710   4.271
93237W        W52498   9.332   1.481   2.832
93238W        W52499  41.328  36.535  12.007
93239W        W52500   1.343  26.597  11.571
93240W        W52501  25.020   7.666   2.257
93241W        W52502  34.954  22.137   0.868
93242W        W52503  23.190  36.047  10.577
93243W        W52504  43.913  40.468   3.220
93244W        W52505  19.204  22.060  11.947
93245W        W52506  19.164  29.176  12.993
93246W        W52507  30.589  35.975  10.985
93247W        W52508  22.561  20.685  10.607
93248W        W52509  15.788   6.350   1.240
93249W        W52510  13.772  11.642  11.061
93250W        W52511  29.992  36.043   2.321
93251W        W52512   7.331  36.034  14.988
93252W        W52513  36.913  44.880  14.950
93253W        W52514  31.463  33.435  14.899
93254W        W52515   9.366  33.489  14.437
93255W        W52516  17.065   8.753  10.991
93256W        W52517  30.632  30.539  12.389
93257W        W52518   6.391   0.385  11.565
93258W        W52519  41.311  12.678  13.406
93259W        W52520  14.225   5.921  14.403
93260W        W52521   1.752  38.352   0.464
93261W        W52522  44.490  26.585   9.453
93262W        W52523  30.049  35.359  12.951
93263W        W52524   7.902  13.233   4.140
93264W        W52525  41.927  23.039   2.886
93265W        W52526  40.372  14.639   3.850
93266W        W52527  43.293  10.855  10.614
93267W        W52528  41.470  18.090   1.384
93268W        W52529  20.570  26.683  13.402
93269W        W52530  34.399  15.244   0.850
93270W        W52531  31.989  20.609  13.440
93271W        W52532  26.586  12.128  14.792
93272W        W52533  39.887  16.222  11.399
93273W        W52534   7.276   6.218   4.314
93274W        W52535   4.369  12.342   4.152
93275W        W52536  41.864  28.672   2.181
93276W        W52537   0.862  18.594   1.824
93277W        W52538  41.938  10.670  14.486
93278W        W52539   8.729  26.616  14.444
93279W        W52540  26.964  37.908   0.413
93280W        W52541  29.950  27.550  12.343
93281W        W52542  40.389  28.514  12.989
93282W        W52543  14.127  10.162   4.230
93283W        W52544  34.104  27.449   1.280
93284W        W52545   9.170  27.663   3.682
93285W        W52546  40.499   4.703  13.403
93286W        W52547   4.219  18.689   0.767
93287W        W52548   3.865   5.706  14.323
93288W        W52549  18.729  10.227  11.589
93289W        W52550   7.774  19.551   0.743
93290W        W52551   7.378   1.432   0.475
93291W        W52552  33.026  41.019  11.008
93292W        W52553  30.988  26.458  11.971
93293W        W52554  14.829   4.262   1.924
93294W        W52555   0.975  21.563   4.662
93295W        W52556   5.283  20.076  10.898
93296W        W52557  10.863  25.002  13.962
93297W        W52558  10.714  24.490  11.906
93298W        W52559  23.023   7.390   0.892
93299W        W52560  12.203   8.275   1.766
93300W        W52561  19.717  26.138  12.900
93301W        W52562  43.909  30.581   4.831
93302W        W52563  21.049   4.445   3.690
93303W        W52564  24.228  22.560   4.164
93304W        W52565  18.746  14.616   0.942
93305W        W52566  25.138  11.823   4.308
93306W        W52567  32.565  17.088   1.773
93307W        W52568  28.631  31.422   2.754
93308W        W52569  33.426  21.570  14.824
93309W        W52570  31.446  36.526  12.894
93310W        W52571  16.112  37.490   2.205
93311W        W52572  15.190  31.525  12.434
93312W        W52573  25.526  16.281  14.344
93313W        W52574  44.892  33.893  12.832
93314W        W52575  14.238  24.148  13.892
93315W        W52576   6.879  32.123   2.703
93316W        W52577   0.898  36.577  14.425
93317W        W52578  35.462   0.851  14.407
93318W        W52579   9.813  28.083   3.790
93319W        W52580  18.764  44.942   3.648
93320W        W52581  20.702  33.123   1.851
93321W        W52582   0.789  18.707   1.266
93322W        W52583   3.304   7.348  11.007
93323W        W52584  10.374  33.928  14.377
93324W        W52585  35.976  26.989  12.010
93325W        W52586   3.860  31.476   2.857
93326W        W52587   5.903  18.675  13.939
93327W        W52588   5.432   8.781  14.279
93328W        W52589  36.855  13.206   3.220
93329W        W52590  36.568   1.464   3.173
93330W        W52591  36.078  26.993   2.713
93331W        W52592  13.680   2.880  12.375
93332W        W52593   6.343  36.927  13.002
93333W        W52594  37.942  21.730   1.870
93334W        W52595  40.371  31.139   3.173
93335W        W52596  44.482  17.576   5.683
93336W        W52597  12.744  13.617  12.537
93337W        W52598  35.908  14.703  12.413
93338W        W52599  44.875  18.676   1.817
93339W        W52600  11.853  15.152   3.170
93340W        W52601  27.113  14.158  13.953
93341W        W52602  31.625   5.434  11.609
93342W        W52603  44.971  29.918  11.402
93343W        W52604   1.783  23.105   0.939
93344W        W52605  42.974   1.917   2.778
93345W        W52606   0.434  38.398   1.346
93346W        W52607  25.696  36.439   1.716
93347W        W52608  25.180   4.319   4.274
93348W        W52609  37.022  21.026   4.810
93349W        W52610   4.788  14.791  12.833
93350W        W52611   3.356  35.431   2.855
93351W        W52612  30.476  37.996   2.301
93352W        W52613  11.354  39.422   4.603
93353W        W52614  27.967  30.463  13.342
93354W        W52615   1.921  32.585   4.121
93355W        W52616  28.936  28.067  13.035
93356W        W52617   9.389  17.673  14.502
93357W        W52618  13.815   2.861  13.791
93358W        W52619  32.127   9.386   2.677
93359W        W52620  23.598  39.863  10.928
93360W        W52621  36.370  33.034  13.048
93361W        W52622  17.660   1.253  12.542
93362W        W52623  28.084  32.120   1.793
93363W        W52624   6.844   4.343   1.388
93364W        W52625  15.586  12.784   1.718
93365W        W52626  11.733  39.961  13.544
93366W        W52627   1.748   3.415  12.863
93367W        W52628  32.420   1.971   4.300
93368W        W52629  36.937  14.164   0.394
93369W        W52630   2.815  18.055  12.438
93370W        W52631  13.845  40.998  10.443
93371W        W52632  43.349   3.228   0.334
93372W        W52633  35.363   5.811   1.280
93373W        W52634  40.960  32.429  14.320
93374W        W52635  29.575  27.617  14.955
93375W        W52636  32.063  33.131  11.952
93376W        W52637  17.579   1.478  14.012
93377W        W52638  42.319  32.459   2.736
93378W        W52639  15.628  26.460  14.853
93379W        W52640  37.890  21.632  10.606
93380W        W52641   4.765   8.748  10.093
93381W        W52642   7.225  31.933   2.773
93382W        W52643  43.852  35.071   3.833
93383W        W52644  15.736  11.326   2.352
93384W        W52645  21.625  22.535  14.848
93385W        W52646   9.376  25.102   2.893
93386W        W52647   6.779  39.457  13.044
93387W        W52648  43.386   9.881   0.371
93388W        W52649  31.099  30.122  13.316
93389W        W52650   4.944  15.112  12.378
93390W        W52651  41.017  31.095   1.787
93391W        W52652  17.755   1.926   0.351
93392W        W52653  10.212  20.692  14.950
93393W        W52654  24.114  38.939  14.934
93394W        W52655  13.632  16.214   2.732
93395W        W52656  21.124   6.721   2.826
93396W        W52657  13.733   6.399  14.834
93397W        W52658  34.119  14.223   3.290
93398W        W52659   2.328  29.444  14.942
93399W        W52660   3.801   9.327   0.294
93400W        W52661  30.014  23.234  14.793
93401W        W52662  32.029  32.917   3.285
93402W        W52663  44.769   2.327  14.802
93403W        W52664   9.384   2.396  12.034
93404W        W52665  17.135  38.350   4.699
93405W        W52666   2.433  10.710  10.479
93406W        W52667  13.174  26.184   0.756
93407W        W52668  12.672  32.549  14.028
93408W        W52669  38.370  16.141   2.834
93409W        W52670  21.109  16.569   3.248
93410W        W52671  25.120  19.602  14.808
93411W        W52672  41.405  44.804   1.418
93412W        W52673  32.110  37.048   4.265
93413W        W52674  29.971  10.801  12.545
93414W        W52675  34.947  33.605  13.897
93415W        W52676  24.171  39.831  12.856
93416W        W52677  25.703  28.935   1.919
93417W        W52678  28.969  11.698  12.519
93418W        W52679   4.427  42.346   0.929
93419W        W52680  24.975  25.489  11.109
93420W        W52681  42.857  34.527  14.985
93421W        W52682  26.115  14.324  11.964
93422W        W52683  20.595  22.106  13.987
93423W        W52684   4.859   7.835  12.853
93424W        W52685  43.987  25.553  12.902
93425W        W52686  36.560  13.199   4.271
93426W        W52687  22.042   3.329  12.427
93427W        W52688  19.113   9.200  13.548
93428W        W52689  38.908  38.359  13.380
93429W        W52690  42.345  15.309  13.868
93430W        W52691  21.687  26.204  13.914
93431W        W52692   7.699  12.346   3.864
93432W        W52693  42.884  10.364   4.200
93433W        W52694   1.816  29.978  11.020
93434W        W52695  15.650  39.904  14.907
93435W        W52696  16.306  40.496   1.266
93436W        W52697  16.168  15.680   2.190
93437W        W52698   1.804  40.445  12.046
93438W        W52699  41.395  34.881   0.966
93439W        W52700   4.699  20.658  14.993
93440W        W52701  26.074  38.077   1.448
93441W        W52702  26.197   7.394  10.927
93442W        W52703  13.244  11.267   1.933
93443W        W52704  17.603  18.655   2.757
93444W        W52705  25.002  35.030   3.850
93445W        W52706   0.934  35.588   0.744
93446W        W52707  25.214  12.797   2.663
93447W        W52708  42.318   8.386   2.386
93448W        W52709  17.148  43.877  12.563
93449W        W52710  24.535  32.900  12.480
93450W        W52711  41.790  29.107  12.525
93451W        W52712  13.279  25.117   1.792
93452W        W52713  21.104  33.388  11.523
93453W        W52714  27.035  38.438  11.558
93454W        W52715  14.295  44.365   0.880
93455W        W52716  17.247  42.514  13.904
93456W        W52717  22.661  26.971   2.791
93457W        W52718  43.891   5.312  12.384
93458W        W52719  36.016  39.009   2.310
93459W        W52720  30.117  26.067  11.915
93460W        W52721  20.593  15.680  14.423
93461W        W52722  11.155  40.466   4.274
93462W        W52723  36.080  37.390   0.901
93463W        W52724  36.910   3.291  11.000
93464W        W52725   4.902  29.667  10.963
93465W        W52726  16.713  31.065   2.721
93466W        W52727  44.423  25.033   9.991
93467W        W52728   2.835  26.475   4.299
93468W        W52729  43.786  39.416   1.334
93469W        W52730   2.868  25.634  12.413
93470W        W52731  24.158   7.313  11.981
93471W        W52732  26.532   6.219  10.459
93472W        W52733  14.750  23.494  11.607
93473W        W52734  20.265   1.768   1.893
93474W        W52735  23.643  27.459  11.546
93475W        W52736   8.890  28.453  13.407
93476W        W52737   8.338  13.172  11.591
93477W        W52738   3.439  27.994   2.700
93478W        W52739  41.875  44.375  10.966
93479W        W52740  10.212   9.773   1.698
93480W        W52741  11.796  14.655   0.298
93481W        W52742  11.283  10.673   1.313
93482W        W52743   3.946  23.169   1.881
93483W        W52744  44.818  40.375  14.409
93484W        W52745   9.150  20.241   2.894
93485W        W52746  21.153   0.891   3.780
93486W        W52747  16.761  42.975  12.930
93487W        W52748  43.305  23.033   2.257
93488W        W52749  41.331  14.295  10.437
93489W        W52750   8.254  40.952  11.012
93490W        W52751  26.637  17.747  10.635
93491W        W52752  28.640   7.385   3.359
93492W        W52753  36.047  20.549   2.762
93493W        W52754  11.636   7.818  13.435
93494W        W52755  31.920  27.661  12.896
93495W        W52756  26.021  44.785   5.606
93496W        W52757  13.718  12.798   0.935
93497W        W52758  38.446  41.336   4.180
93498W        W52759   8.163  20.638   4.322
93499W        W52760   3.346  10.726  12.980
93500W        W52761  14.662  39.409   2.679
93501W        W52762  18.238  31.551  13.965
93502W        W52763  24.529  43.943   0.270
93503W        W52764  20.638  16.696  12.346
93504W        W52765  30.437  43.449  11.540
93505W        W52766   2.298  21.739  11.528
93506W        W52767  28.115  38.057   3.230
93507W        W52768  12.158   7.773   0.740
93508W        W52769  29.509   0.263  10.531
93509W        W52770   1.807  29.012   2.413
93510W        W52771  35.021  24.093  11.032
93511W        W52772  43.393   6.864   3.220
93512W        W52773  33.422  29.556   1.874
93513W        W52774  42.955   3.357   2.377
93514W        W52775  16.225  21.125  14.015
93515W        W52776   8.386  34.113  11.418
93516W        W52777   9.860   4.884  14.476
93517W        W52778  22.036  25.179  11.442
93518W        W52779  21.244   5.195   3.216
93519W        W52780  38.855   9.763  13.833
93520W        W52781  43.441   6.271   1.451
93521W        W52782  11.771   7.677   3.701
93522W        W52783  28.610  44.798   1.346
93523W        W52784  10.362  13.251  12.532
93524W        W52785   3.371   4.307  12.971
93525W        W52786  15.698  42.879   0.471
93526W        W52787  25.080  22.647  11.948
93527W        W52788  36.081  42.307   0.323
93528W        W52789  26.145  18.170   4.682
93529W        W52790  12.838  27.016   9.442
93530W        W52791  29.661   3.945  11.400
93531W        W52792  30.472  40.363  14.922
93532W        W52793  29.923  11.225   3.243
93533W        W52794  32.519  33.533   1.785
93534W        W52795  17.257  38.500   0.479
93535W        W52796   3.826  20.213  13.984
93536W        W52797   8.730  14.755   4.674
93537W        W52798  36.963   3.906  11.921
93538W        W52799   7.888  15.776   1.707
93539W        W52800  14.834  10.805  11.528
93540W        W52801  39.540   2.734   2.218
93541W        W52802  10.192  19.235   3.181
93542W        W52803  41.802  41.526  12.405
93543W        W52804  17.783  24.161   3.163
93544W        W52805   5.334  10.644   3.665
93545W        W52806  44.428  31.004  14.770
93546W        W52807   6.682  21.246  10.110
93547W        W52808  10.776  38.510  10.425
93548W        W52809  23.590   9.160  14.815
93549W        W52810   4.309  22.058   3.255
93550W        W52811  32.987   6.287  12.950
93551W        W52812  37.043  14.198   4.254
93552W        W52813   8.698  26.177  10.544
93553W        W52814  22.092   4.791  13.539
93554W        W52815  34.542  24.106   1.918
93555W        W52816  12.611  11.722   4.646
93556W        W52817  36.880   7.807   4.615
93557W        W52818   8.278  11.855  14.362
93558W        W52819   7.336  16.191   2.843
93559W        W52820  32.112   7.390  11.892
93560W        W52821  28.945  28.522  13.404
93561W        W52822  18.768  27.023   1.293
93562W        W52823  29.127  16.097  13.037
93563W        W52824  23.613  17.254  14.005
93564W        W52825  16.097   9.178   3.866
93565W        W52826   3.226  40.311   1.879
93566W        W52827   8.678   2.735  13.988
93567W        W52828  15.179  37.029   2.298
93568W        W52829  29.166   0.927   0.407
93569W        W52830  44.870  27.661   0.248
93570W        W52831  38.536  36.854   9.665
93571W        W52832  41.041  23.159  10.412
93572W        W52833  30.619  10.293   0.325
93573W        W52834  26.533  43.469  13.861
93574W        W52835  24.513   3.279   3.261
93575W        W52836  39.543  19.128   0.806
93576W        W52837  28.055   3.325   1.366
93577W        W52838  19.753  12.307   0.905
93578W        W52839   3.373  27.636   2.771
93579W        W52840   3.797  28.095  12.485
93580W        W52841  34.870  14.765  12.887
93581W        W52842  10.277  30.066   2.295
93582W        W52843   7.234  10.647  10.453
93583W        W52844  13.202  10.706  11.041
93584W        W52845  25.502  39.550  14.338
93585W        W52846  40.032   1.339   1.369
93586W        W52847   8.295  23.515  10.640
93587W        W52848  24.077  13.290   3.852
93588W        W52849  42.306   8.874  12.442
93589W        W52850  15.778  16.762   4.604
93590W        W52851  20.546  32.931  14.774
93591W        W52852  12.796   3.870   3.332
93592W        W52853  24.984  10.225   3.330
93593W        W52854  29.937  17.190   0.956
93594W        W52855   1.267  43.767  13.828
93595W        W52856  21.234  31.536   1.449
93596W        W52857  14.627   0.801  13.409
93597W        W52858  24.609  10.727   4.239
93598W        W52859  29.923  31.005  13.973
93599W        W52860  23.659   1.871   4.122
93600W        W52861  38.833  28.085  12.024
93601W        W52862  21.563   0.255   1.744
93602W        W52863  36.085  16.156   0.337
93603W        W52864  38.842  23.220  14.514
93604W        W52865  15.251  26.046  11.940
93605W        W52866  34.923  31.912  11.548
93606W        W52867  13.780   5.904   2.804
93607W        W52868  41.502  17.662   0.476
93608W        W52869  41.508  22.998  14.019
93609W        W52870   1.419  15.625   0.732
93610W        W52871  27.106  33.978   0.407
93611W        W52872  11.295  19.630   2.191
93612W        W52873  39.976  24.567  12.832
93613W        W52874  44.259  12.767   4.712
93614W        W52875  39.061  44.263  12.973
93615W        W52876  43.351   8.395   2.886
93616W        W52877  30.612  11.155   3.832
93617W        W52878  20.171  39.030   4.832
93618W        W52879  36.350   5.220  13.439
93619W        W52880   3.221  22.080  11.042
93620W        W52881  33.481  34.051  10.421
93621W        W52882  24.040  26.581   4.282
93622W        W52883  19.588  40.355   2.292
93623W        W52884  41.478   0.861  12.513
93624W        W52885  44.336  13.842   2.678
93625W        W52886  20.246  33.061   1.816
93626W        W52887  21.149   6.734  11.386
93627W        W52888  11.723   2.743  13.941
93628W        W52889  21.534  18.144  11.962
93629W        W52890   3.226  31.068   4.738
93630W        W52891  44.425  33.407  13.868
93631W        W52892  33.993   9.827   1.222
93632W        W52893  42.874  41.861  14.919
93633W        W52894  22.506  30.454  12.460
93634W        W52895   7.776  20.524   4.217
93635W        W52896  10.853  22.122   2.758
93636W        W52897  25.130  40.505   4.270
93637W        W52898  21.081  26.033  10.965
93638W        W52899   7.276  44.306  10.435
93639W        W52900  33.449  21.261   1.890
93640W        W52901  15.241   6.711  12.890
93641W        W52902   9.274   1.973   2.217
93642W        W52903  24.499  37.377   2.315
93643W        W52904   0.279   0.801   1.869
93644W        W52905  25.674   3.948  10.967
93645W        W52906  37.046  34.472  13.463
93646W        W52907  38.478  38.932  12.057
93647W        W52908   9.247  41.327   1.329
93648W        W52909  38.984   0.930   3.270
93649W        W52910  38.914   7.295  14.402
93650W        W52911  12.846   4.898   9.665
93651W        W52912  29.171  11.769   3.825
93652W        W52913  18.086  28.084   0.732
93653W        W52914  30.073  17.597  12.371
93654W        W52915   6.806   2.442  14.511
93655W        W52916  17.655  15.597  11.964
93656W        W52917  36.551   4.205   3.836
93657W        W52918  10.380  16.593   1.720
93658W        W52919  30.981  16.310   2.860
93659W        W52920  32.969   6.284   4.166
93660W        W52921  29.986  11.155  12.921
93661W        W52922   0.466  10.354  11.084
93662W        W52923  39.329  12.128   2.417
93663W        W52924   9.260  27.467  14.320
93664W        W52925  18.230  37.445  14.333
93665W        W52926  37.577   8.355  11.089
93666W        W52927  35.463  13.708  14.781
93667W        W52928  15.218  39.878  12.080
93668W        W52929  15.263  22.599   4.269
93669W        W52930  32.115  10.637   0.440
93670W        W52931  32.391  40.519   1.747
93671W        W52932  20.107  16.643   2.805
93672W        W52933  25.084  44.976  13.997
93673W        W52934   6.912  21.100   1.253
93674W        W52935  13.665  29.991  14.370
93675W        W52936  36.026  41.803  13.354
93676W        W52937  23.215  18.180   9.938
93677W        W52938  32.430  18.548   1.275
93678W        W52939  30.492  31.456   1.380
93679W        W52940  15.677  19.234  13.447
93680W        W52941   8.176  30.074  11.123
93681W        W52942   2.922   4.849   2.895
93682W        W52943  31.073  44.423  12.952
93683W        W52944  28.672  36.460  10.958
93684W        W52945  40.386   8.195   2.858
93685W        W52946  42.842  33.001  12.558
93686W        W52947   3.455  32.605  10.549
93687W        W52948  38.963  20.141   0.852
93688W        W52949  29.141  12.353   4.730
93689W        W52950  15.236  30.630   0.904
93690W        W52951   0.855   6.700   4.738
93691W        W52952  22.031  16.313  11.450
93692W        W52953  14.778  32.551  10.953
93693W        W52954  12.737   9.192   3.672
93694W        W52955  29.959  29.538  12.426
93695W        W52956   3.340   4.415  10.404
93696W        W52957  41.965   5.275  12.933
93697W        W52958  19.678   3.729  10.581
93698W        W52959  10.304  27.080  13.350
93699W        W52960  26.464   3.790   4.604
93700W        W52961  38.924   5.243  12.478
93701W        W52962   8.672   1.892  11.081
93702W        W52963  27.533  10.775  11.082
93703W        W52964  16.587  14.153  12.986
93704W        W52965  12.621   1.747  14.906
93705W        W52966  36.060  44.946   0.393
93706W        W52967   2.965  21.514   2.351
93707W        W52968  27.021  18.283   1.753
93708W        W52969   0.867   7.833   2.193
93709W        W52970  30.438  19.742  11.960
93710W        W52971  15.214  22.569   1.789
93711W        W52972  38.047  35.417   5.740
93712W        W52973   1.302  36.956  14.323
93713W        W52974  24.051  35.503  11.869
93714W        W52975  38.839  28.610  10.974
93715W        W52976   5.829  34.060   3.784
93716W        W52977   8.837   4.371   4.834
93717W        W52978  43.930  18.187  14.016
93718W        W52979   9.859  28.110   4.814
93719W        W52980  42.960  10.360   3.855
93720W        W52981   9.828  36.559  13.871
93721W        W52982   3.867  28.536   4.239
93722W        W52983  19.577  19.137  10.128
93723W        W52984  44.901  40.974  10.894
93724W        W52985  22.087   6.365   4.759
93725W        W52986  24.495  41.829   0.377
93726W        W52987   2.791  32.086  10.933
93727W        W52988   7.298  23.679   1.837
93728W        W52989  25.498  18.585   4.181
93729W        W52990  35.515  29.996  14.467
93730W        W52991  23.604  43.005   4.803
93731W        W52992   1.280  15.291   2.827
93732W        W52993  27.030  33.924  12.868
93733W        W52994  38.346   5.879  12.096
93734W        W52995  13.841  23.052  11.052
93735W        W52996  40.956  44.273  10.537
93736W        W52997  20.552   1.925   4.684
93737W        W52998   9.292  43.298   3.347
93738W        W52999   4.761   4.396   4.238
93739W        W53000  43.366  42.510  13.990
93740W        W53001  25.471  11.274  12.555
93741W        W53002  39.534  14.612   1.343
93742W        W53003   0.483  44.860  13.499
93743W        W53004  18.152  18.589   2.810
93744W        W53005  12.730  23.134  12.920
93745W        W53006   9.734  19.773  12.052
93746W        W53007  40.441  17.141  12.058
93747W        W53008  36.469  35.931  10.152
93748W        W53009  17.299  39.405   1.224
93749W        W53010  32.590  14.259   4.187
93750W        W53011   6.304  23.595  12.066
93751W        W53012  15.302  19.222   3.313
93752W        W53013  22.062  23.223  13.800
93753W        W53014   0.428  13.787   2.337
93754W        W53015  31.043   5.831  10.101
93755W        W53016  23.075  42.512   1.443
93756W        W53017  30.495  22.137  10.894
93757W        W53018   8.707  30.594  13.908
93758W        W53019  25.526  41.384  11.509
93759W        W53020  13.698  29.918  12.535
93760W        W53021   3.904  42.410   3.794
93761W        W53022   3.917  28.661   2.816
93762W        W53023  28.052  32.008  12.929
93763W        W53024  20.148  21.233   4.245
93764W        W53025  23.659  39.405  14.503
93765W        W53026  38.567  43.335   1.824
93766W        W53027  15.319   3.898   2.830
93767W        W53028  34.039   0.811  13.037
93768W        W53029   3.287  22.016  13.361
93769W        W53030  14.117   6.322   1.812
93770W        W53031   2.876  32.545   3.686
93771W        W53032  23.580  43.270   2.196
93772W        W53033  26.060  30.132   1.845
93773W        W53034  41.402  40.944  11.928
93774W        W53035  27.583  33.090   3.330
93775W        W53036  43.890   3.769   4.225
93776W        W53037  40.935  24.152   5.725
93777W        W53038  13.636  21.169   3.710
93778W        W53039  33.523  30.099   4.148
93779W        W53040  22.120  42.511   2.408
93780W        W53041  31.001  18.085   4.305
93781W        W53042   0.472  14.648  11.061
93782W        W53043  16.703  30.652   4.713
93783W        W53044  39.960  31.973   3.294
93784W        W53045   3.402   8.396  14.373
93785W        W53046  37.409  15.772  12.546
93786W        W53047  29.554  38.863  14.890
93787W        W53048  11.813  21.621  10.582
93788W        W53049  25.499  35.406  14.384
93789W        W53050  32.465   6.855  13.348
93790W        W53051  32.917  39.558   3.682
93791W        W53052  37.936  18.765   0.459
93792W        W53053  31.130  16.118   4.617
93793W        W53054  37.545  18.073  10.455
93794W        W53055  21.682   9.765  12.537
93795W        W53056  28.584   5.708   4.726
93796W        W53057   9.665  28.551  10.642
93797W        W53058  39.984  43.385   0.729
93798W        W53059   3.337  24.165  11.109
93799W        W53060  44.958  31.406  11.875
93800W        W53061  29.962   9.265  12.494
93801W        W53062  24.496  42.937   0.462
93802W        W53063  17.591  22.089  11.032
93803W        W53064  20.093  22.519   2.243
93804W        W53065  32.017  42.843  12.418
93805W        W53066  18.061  21.108   3.663
93806W        W53067  43.352  38.479  11.511
93807W        W53068  39.822  44.311   4.344
93808W        W53069  25.086  18.166  12.349
93809W        W53070  22.150  18.135   1.247
93810W        W53071  13.832  22.747  10.472
93811W        W53072  41.883   3.386  10.601
93812W        W53073   2.726  33.540  12.871
93813W        W53074  41.806  32.436  14.409
93814W        W53075  35.411  39.876  14.416
93815W        W53076  29.036  18.163   2.799
93816W        W53077  30.517   2.257   2.419
93817W        W53078   2.375  33.390   2.785
93818W        W53079  13.752   5.703   9.595
93819W        W53080   2.811  25.665   3.369
93820W        W53081  13.767   0.967   4.801
93821W        W53082  10.801  11.318  13.479
93822W        W53083  23.714   7.907   3.656
93823W        W53084  16.791   1.378   3.153
93824W        W53085  16.141  39.995   1.303
93825W        W53086  13.123  37.566  10.458
93826W        W53087  27.196   6.920  14.783
93827W        W53088  42.901  40.958   3.244
93828W        W53089  43.892  14.303  13.820
93829W        W53090   4.268  40.901  14.481
93830W        W53091  31.409   1.797  11.582
93831W        W53092  15.814  22.619   4.271
93832W        W53093  39.852  30.434   2.409
93833W        W53094  27.027  35.945  13.516
93834W        W53095  29.042  17.727  14.478
93835W        W53096   7.367   7.346   0.319
93836W        W53097  25.639  19.196  11.012
93837W        W53098   3.393  27.092   4.772
93838W        W53099   1.336  39.328   3.853
93839W        W53100   1.945  44.454  13.880
93840W        W53101  25.566  16.251  10.482
93841W        W53102   2.763  10.211  13.509
93842W        W53103  16.135   1.735  14.780
93843W        W53104  36.017  29.171  11.557
93844W        W53105   8.663   2.965   2.334
93845W        W53106  22.674   4.446   3.700
93846W        W53107  10.725  41.391   1.899
93847W        W53108  23.571  28.460   2.206
93848W        W53109   4.750  31.589  10.406
93849W        W53110   3.817  31.472   1.812
93850W        W53111  23.157   5.343  12.898
93851W        W53112  13.257  38.007   1.393
93852W        W53113  39.440  30.941  10.494
93853W        W53114   3.819  16.608  13.023
93854W        W53115  20.625  16.708  14.999
93855W        W53116  40.399   3.419  14.996
93856W        W53117  44.356  41.956   4.150
93857W        W53118   7.330  14.682  14.428
93858W        W53119  28.494  16.627   1.411
93859W        W53120  43.406  44.345   4.307
93860W        W53121  10.162  33.480   2.869
93861W        W53122   3.336  16.122  12.995
93862W        W53123  28.956  41.379   4.776
93863W        W53124  36.001  41.434  10.932
93864W        W53125  16.122   6.740  14.851
93865W        W53126   8.236  43.973  13.423
93866W        W53127   1.953  13.735  14.322
93867W        W53128  44.465   2.767  13.909
93868W        W53129   7.910  38.453   0.476
93869W        W53130  20.757  35.489   4.615
93870W        W53131  10.317  18.253  14.353
93871W        W53132  40.355  23.190   4.792
93872W        W53133  37.336  31.030  11.570
93873W        W53134   3.294  39.024  12.086
93874W        W53135  12.149  18.234  14.814
93875W        W53136  40.895   1.865   4.626
93876W        W53137   7.256   1.403  13.505
93877W        W53138  34.073  41.449   2.253
93878W        W53139   1.866  24.688   2.749
93879W        W53140  40.526  30.100   4.634
93880W        W53141  35.589  25.691  10.542
93881W        W53142  19.252  34.431  14.312
93882W        W53143   5.404  42.477  11.595
93883W        W53144  27.600  25.008   1.420
93884W        W53145  18.700  44.463   4.657
93885W        W53146   1.835  41.892  10.490
93886W        W53147  25.697  44.502   4.795
93887W        W53148  42.997  24.162  10.432
93888W        W53149  32.468  10.799   4.324
93889W        W53150  33.595  15.580  12.481
93890W        W53151   5.825   1.322  11.474
93891W        W53152  12.202  34.928   4.267
93892W        W53153   0.286  43.775   4.204
93893W        W53154  23.062  16.296   3.630
93894W        W53155  36.384  13.234   2.750
93895W        W53156  11.715   8.891   1.861
93896W        W53157  40.416  41.863  14.321
93897W        W53158   7.194  26.094  12.427
93898W        W53159  24.082  39.985   0.359
93899W        W53160  28.934  17.683   0.738
93900W        W53161  44.956  32.104  14.898
93901W        W53162  25.617  40.374   3.335
93902W        W53163  23.559  21.075  13.000
93903W        W53164   2.273  31.634  11.524
93904W        W53165  13.232  29.941  12.376
93905W        W53166  29.654  22.207   2.395
93906W        W53167  31.003  27.688   1.694
93907W        W53168  36.901  37.835  12.015
93908W        W53169  25.197   0.475   2.862
93909W        W53170   8.801  15.687  10.405
93910W        W53171  19.071  21.194  14.457
93911W        W53172  21.242  37.407  10.941
93912W        W53173  20.724  31.005   3.646
93913W        W53174  12.726  44.825   4.680
93914W        W53175  35.911   0.943   1.897
93915W        W53176   1.293  20.635  12.035
93916W        W53177   3.460   1.894  14.444
93917W        W53178   8.402  28.632   0.444
93918W        W53179   9.395  33.889  12.842
93919W        W53180  10.700  24.046  11.518
93920W        W53181  14.658  39.013   2.217
93921W        W53182  29.149  40.503  14.824
93922W        W53183  24.059   4.928   2.235
93923W        W53184   5.866  33.884   0.767
93924W        W53185  16.723  36.085  12.377
93925W        W53186  20.180  44.292  14.851
93926W        W53187  42.348  19.120   4.118
93927W        W53188  38.960  36.387  10.891
93928W        W53189  33.903  21.141   4.223
93929W        W53190  32.477  17.158  11.449
93930W        W53191  41.432  26.070  11.391
93931W        W53192  22.536  20.179  11.894
93932W        W53193   3.447  40.490  10.997
93933W        W53194  24.599  24.098  12.462
93934W        W53195   4.710  24.699   4.273
93935W        W53196  34.452   8.172  14.926
93936W        W53197  11.732   5.436   3.868
93937W        W53198   8.243  25.672  10.404
93938W        W53199  27.549  42.845  12.533
93939W        W53200  28.495  16.249  14.470
93940W        W53201  18.550  32.998   0.301
93941W        W53202  25.119   6.703   2.688
93942W        W53203  41.891   1.285   4.228
93943W        W53204  35.508   6.746   2.702
93944W        W53205  44.261  39.901  13.507
93945W        W53206   7.865  17.767   4.786
93946W        W53207  34.882  19.760   2.801
93947W        W53208  37.888   0.860  14.759
93948W        W53209  41.438  18.578   0.367
93949W        W53210  11.154  28.105  13.980
93950W        W53211  19.693  21.693   9.944
93951W        W53212   0.914  31.951  11.116
93952W        W53213  38.490   6.244   4.685
93953W        W53214  17.128   9.238   3.313
93954W        W53215  34.008   5.226  10.930
93955W        W53216   2.290  41.324  11.536
93956W        W53217  21.121  31.618  14.901
93957W        W53218  17.752   6.834   1.281
93958W        W53219  22.637  13.619   2.822
93959W        W53220  17.627  30.464  11.115
93960W        W53221   6.255  12.252   1.342
93961W        W53222  28.088  35.587  10.643
93962W        W53223   3.262  19.191  11.064
93963W        W53224  19.284   0.956   0.850
93964W        W53225  23.115  17.717   9.982
93965W        W53226  36.042  44.263   4.818
93966W        W53227  13.633   6.314   1.920
93967W        W53228  39.891  39.817   2.328
93968W        W53229   8.286   3.781  11.901
93969W        W53230  10.766   5.226   4.291
93970W        W53231   2.896   1.933   3.683
93971W        W53232  35.378  44.818   1.259
93972W        W53233  15.680  23.986   5.285
93973W        W53234   5.866   8.322  12.352
93974W        W53235  31.077  40.543   0.256
93975W        W53236   4.316  32.957  11.903
93976W        W53237  31.545   9.870  12.093
93977W        W53238  29.613   5.910  14.820
93978W        W53239  16.579  23.546   3.854
93979W        W53240  31.581  21.621  13.318
93980W        W53241  13.739   4.358   2.863
93981W        W53242  40.386   2.243  14.407
93982W        W53243  25.711  35.861  11.429
93983W        W53244  20.623  30.976  12.482
93984W        W53245  34.466  34.979   0.398
93985W        W53246  34.543  23.169   1.246
93986W        W53247  35.581  27.036  10.546
93987W        W53248   3.770   2.900   0.773
93988W        W53249  28.477  43.348   0.457
93989W        W53250   7.893  24.483  13.828
93990W        W53251  10.279   3.255   4.275
93991W        W53252   0.751   5.193   1.852
93992W        W53253   8.824  40.955   1.398
93993W        W53254  35.477  33.990   0.768
93994W        W53255  16.618  18.560   5.166
93995W        W53256  33.989  13.296   3.758
93996W        W53257  42.881  30.523  11.520
93997W        W53258  10.807  15.822   4.188
93998W        W53259  30.929  28.078  12.481
93999W        W53260   6.866  14.205   2.348
94000W        W53261  14.341  35.897   3.189
94001W        W53262  38.543  29.052  14.960
94002W        W53263  38.959  21.167   3.240
94003W        W53264   7.763   6.794  12.011
94004W        W53265  14.707  16.586   2.879
94005W        W53266  31.919  12.713  10.407
94006W        W53267  20.113  19.688  14.813
94007W        W53268  33.509  36.378   4.220
94008W        W53269  42.832   2.289   4.256
94009W        W53270  14.335  11.838   1.307
94010W        W53271   5.748  31.957  14.812
94011W        W53272   9.214  31.899   3.633
94012W        W53273   1.411   1.438   3.668
94013W        W53274  14.784   0.752  13.899
94014W        W53275   9.242  30.006  13.790
94015W        W53276   7.900  31.058   2.370
94016W        W53277  28.655  29.947   1.278
94017W        W53278  12.219  10.701  10.423
94018W        W53279  25.679   8.813  13.328
94019W        W53280  23.517  24.156   3.365
94020W        W53281  37.877  44.399   1.720
94021W        W53282  39.837  33.968  11.108
94022W        W53283  36.510   3.444   3.855
94023W        W53284  40.311  36.023   3.314
94024W        W53285  17.624  39.409   3.669
94025W        W53286  35.563  18.563   0.418
94026W        W53287   5.719  24.175   0.249
94027W        W53288  21.568  41.524  13.451
94028W        W53289  31.460  43.291   0.743
94029W        W53290  12.135   3.720  10.634
94030W        W53291   3.784  14.123  14.364
94031W        W53292  17.085  24.520   0.932
94032W        W53293  11.776  35.393   4.800
94033W        W53294  22.124  26.604  12.385
94034W        W53295  42.454  28.028  12.485
94035W        W53296  23.201   6.906   1.741
94036W        W53297  26.114  43.353  10.103
94037W        W53298  11.161  17.675  13.912
94038W        W53299  25.219  17.574   4.129
94039W        W53300  13.776  15.692   3.641
94040W        W53301   2.877  39.351  11.947
94041W        W53302   6.881  44.450  13.892
94042W        W53303  41.334   0.327  13.395
94043W        W53304  29.117   8.357  12.859
94044W        W53305  25.158  39.383  11.449
94045W        W53306  25.180  38.519   1.917
94046W        W53307  36.376   9.720   1.339
94047W        W53308   3.387  32.130   3.286
94048W        W53309  11.689  22.050   0.932
94049W        W53310  34.400  31.559  14.023
94050W        W53311  20.078  30.612   4.637
94051W        W53312  28.655  21.038   4.816
94052W        W53313  17.218  11.245   4.146
94053W        W53314  29.423  27.510   2.665
94054W        W53315   4.413  21.633  14.502
94055W        W53316  38.039   6.278   0.765
94056W        W53317  19.604  26.612   4.683
94057W        W53318   8.248  15.239  12.494
94058W        W53319  20.133  23.649   2.258
94059W        W53320   2.423  14.336  14.344
94060W        W53321  25.201   6.715  14.024
94061W        W53322  15.299  10.294   3.670
94062W        W53323  11.866  37.474   0.862
94063W        W53324  11.718   4.712  10.022
94064W        W53325  18.086  15.716  12.562
94065W        W53326  16.572  43.790  13.877
94066W        W53327  22.580  29.639   2.739
94067W        W53328   7.228   7.665   1.920
94068W        W53329   4.306  15.228  13.391
94069W        W53330  36.901  28.522  14.336
94070W        W53331  37.428  10.755  11.868
94071W        W53332  32.503  33.489  11.047
94072W        W53333   1.375  35.942  12.038
94073W        W53334  24.101  35.870   3.289
94074W        W53335  13.256  20.248  10.580
94075W        W53336  23.177  38.325  13.501
94076W        W53337   8.216   5.831  14.316
94077W        W53338  18.552  20.240  13.546
94078W        W53339  11.193  34.099  13.821
94079W        W53340   0.398  15.304  11.430
94080W        W53341  38.898  24.668   3.362
94081W        W53342   9.357  27.127  13.869
94082W        W53343  10.336  19.170  12.861
94083W        W53344  19.560  17.579   1.807
94084W        W53345  21.226   4.342   2.873
94085W        W53346  14.656  10.663   1.270
94086W        W53347  17.115  17.213   2.223
94087W        W53348  30.563   8.265   1.391
94088W        W53349  40.439  23.685   4.351
94089W        W53350   3.875   4.275   2.886
94090W        W53351   6.923   9.672   1.716
94091W        W53352  43.300  39.922   2.850
94092W        W53353  11.809  33.107   4.258
94093W        W53354  28.938  23.584  12.977
94094W        W53355   4.777  43.821  12.846
94095W        W53356   1.762  27.071   2.850
94096W        W53357  11.730  27.501  12.369
94097W        W53358  42.461   4.912  13.333
94098W        W53359   9.792  27.457   0.900
94099W        W53360  30.062   9.784  11.519
94100W        W53361  35.535  36.859   0.956
94101W        W53362  15.771   8.248   4.309
94102W        W53363  17.747  21.514  14.947
94103W        W53364   5.883  14.818   0.303
94104W        W53365  33.008  41.494  13.476
94105W        W53366   2.808  12.254  11.511
94106W        W53367  37.442  41.403  12.916
94107W        W53368   6.817  33.889  12.862
94108W        W53369  40.912  35.586   2.873
94109W        W53370  31.118  13.118  14.774
94110W        W53371  19.586  27.008   4.149
94111W        W53372  38.010  20.272  12.581
94112W        W53373   3.920  24.076  13.884
94113W        W53374  34.540  19.055  13.489
94114W        W53375   2.382  35.971  13.997
94115W        W53376  24.025  16.644  13.841
94116W        W53377  26.687   8.202  13.358
94117W        W53378  24.479  34.506   1.270
94118W        W53379  44.790  35.035   1.335
94119W        W53380   1.973  12.257   2.869
94120W        W53381  35.416  40.911   1.905
94121W        W53382   3.221  18.097  13.809
94122W        W53383   8.396  37.003  14.503
94123W        W53384  41.875  39.056   0.380
94124W        W53385   9.380   4.719  12.859
94125W        W53386  35.450  33.877  14.981
94126W        W53387  12.739  25.527  11.496
94127W        W53388  38.058  34.056   0.309
94128W        W53389   3.831  41.538   1.880
94129W        W53390  31.425   7.273   3.755
94130W        W53391  32.901   9.723  11.938
94131W        W53392  38.040   2.772   2.402
94132W        W53393  35.509  24.010   3.246
94133W        W53394  15.644   4.797   2.311
94134W        W53395  38.551  29.547  12.014
94135W        W53396  21.558  43.889   0.409
94136W        W53397  19.165  36.427   1.768
94137W        W53398  14.126   1.879   3.278
94138W        W53399  26.482  28.540  13.455
94139W        W53400  18.279  31.442   1.727
94140W        W53401  21.109  15.690  13.025
94141W        W53402   2.262  19.576   3.655
94142W        W53403  44.480   8.875  10.547
94143W        W53404  36.092  44.332  10.465
94144W        W53405  25.198  26.083   2.261
94145W        W53406  15.619  21.129  12.886
94146W        W53407  27.685  36.414  12.452
94147W        W53408  35.020  37.929  10.454
94148W        W53409  27.966  39.511   3.738
94149W        W53410  17.307  15.093  10.418
94150W        W53411  31.020  38.533  13.373
94151W        W53412  38.516  13.816  13.490
94152W        W53413  24.044  13.147   4.148
94153W        W53414  12.618  19.744   4.214
94154W        W53415   1.302  32.017   1.748
94155W        W53416  13.243  11.235  13.833
94156W        W53417  35.372   4.215  12.362
94157W        W53418  25.487   3.801   2.413
94158W        W53419  22.219  31.099   3.822
94159W        W53420  28.139  27.073   1.425
94160W        W53421  16.261   7.884   4.663
94161W        W53422   4.792   9.693   4.319
94162W        W53423   6.805  40.819  13.845
94163W        W53424   5.265  10.239   2.366
94164W        W53425  23.625  44.954   1.219
94165W        W53426  17.787  42.861   3.180
94166W        W53427   6.736  41.530  11.881
94167W        W53428  25.963  13.647  10.965
94168W        W53429  38.338   4.275   0.836
94169W        W53430   6.264  35.490  11.380
94170W        W53431  16.316  34.027   1.299
94171W        W53432  39.064  44.374  10.953
94172W        W53433  37.498   7.830  13.807
94173W        W53434  34.557  39.993   3.751
94174W        W53435  37.981  22.216   0.775
94175W        W53436  24.041  16.569   0.766
94176W        W53437   2.311  36.568   0.830
94177W        W53438  16.690  10.716  12.491
94178W        W53439  13.177   7.875   3.686
94179W        W53440  33.408  40.953   4.217
94180W        W53441   4.787   6.785  10.594
94181W        W53442  13.254  33.040   3.212
94182W        W53443  30.528  41.008   3.832
94183W        W53444  30.620  13.249  10.556
94184W        W53445  30.608  34.060   3.369
94185W        W53446  17.274  23.984   0.273
94186W        W53447  27.190  15.723   0.928
94187W        W53448  29.497  39.358   3.177
94188W        W53449  10.715   0.916  14.844
94189W        W53450  28.548  35.431   3.359
94190W        W53451  21.205  34.507   3.804
94191W        W53452   0.756   9.316   1.829
94192W        W53453  44.500  42.842   5.242
94193W        W53454   3.828  33.974   4.781
94194W        W53455  26.461  26.140   3.643
94195W        W53456  19.270   8.695   3.200
94196W        W53457  33.610  12.716  13.527
94197W        W53458  30.007   7.258  11.496
94198W        W53459  21.545  19.652   2.716
94199W        W53460  22.741  36.370  11.546
94200W        W53461  33.061  25.590   0.251
94201W        W53462  36.581  37.540   3.217
94202W        W53463  17.761  37.910  13.988
94203W        W53464  22.604  31.896   0.920
94204W        W53465  14.193  31.101  11.494
94205W        W53466  44.941  14.227   4.760
94206W        W53467  37.019  32.067   4.164
94207W        W53468  24.553   8.668  10.538
94208W        W53469   0.445   5.931   0.383
94209W        W53470  27.029  29.172  11.478
94210W        W53471  22.673  35.399  11.080
94211W        W53472  24.482  43.373  11.117
94212W        W53473  39.498  27.648   4.119
94213W        W53474   2.907  36.398   1.294
94214W        W53475   1.395   5.431   1.778
94215W        W53476  34.931  14.263   4.261
94216W        W53477  13.716  32.959  11.987
94217W        W53478   8.282   2.740  10.546
94218W        W53479  43.462  10.249  14.810
94219W        W53480  16.791  22.505   3.311
94220W        W53481   3.827  17.160  12.044
94221W        W53482  21.710  18.128   0.300
94222W        W53483  43.832  20.085   2.222
94223W        W53484  27.514  25.112   4.834
94224W        W53485  12.800  16.122  13.918
94225W        W53486  38.019  18.787   3.227
94226W        W53487  10.769  28.981   0.866
94227W        W53488  19.586  14.718  13.923
94228W        W53489   3.926   0.815  12.404
94229W        W53490  26.526   4.371  10.569
94230W        W53491   1.285   3.353  11.519
94231W        W53492  34.548   9.771   1.846
94232W        W53493  28.441  34.497   2.247
94233W        W53494  11.796  40.812  11.031
94234W        W53495   1.271  43.282   4.783
94235W        W53496  35.990   6.829  12.962
94236W        W53497   9.266  20.168  13.440
94237W        W53498   0.493  30.052  14.812
94238W        W53499  40.510  42.419   3.344
94239W        W53500   1.419  25.088   2.287
94240W        W53501  14.278  39.429  11.480
94241W        W53502  21.612  12.806   4.290
94242W        W53503   2.244  10.752  13.344
94243W        W53504  35.062  19.709  12.984
94244W        W53505  32.454   6.352  12.534
94245W        W53506   4.932   2.949   3.378
94246W        W53507  12.659  30.540  11.565
94247W        W53508  15.113  16.228  14.484
94248W        W53509  32.055  37.383   0.372
94249W        W53510   0.350  24.688   5.638
94250W        W53511   4.853  43.006   5.312
94251W        W53512  43.842  43.280   4.181
94252W        W53513  11.774  17.743  12.984
94253W        W53514  43.801   0.883  10.517
94254W        W53515   9.241  29.952  13.530
94255W        W53516  33.578  11.793  11.870
94256W        W53517   9.152  36.081  10.589
94257W        W53518  15.662  25.151   3.764
94258W        W53519  44.912  34.026   1.713
94259W        W53520  21.742  33.410  11.122
94260W        W53521  26.054  10.667  10.435
94261W        W53522  12.715   7.777   2.716
94262W        W53523  22.610  11.147  11.100
94263W        W53524   4.267  29.101   3.328
94264W        W53525  42.944  32.991  14.282
94265W        W53526  29.011  29.425  12.970
94266W        W53527   4.714   6.370  11.927
94267W        W53528  32.397  27.965  10.998
94268W        W53529   3.322   5.402  11.980
94269W        W53530  11.819  14.261  14.343
94270W        W53531   3.436  10.874   1.764
94271W        W53532   6.860  10.146  12.996
94272W        W53533  38.441   7.365   2.210
94273W        W53534   2.774  11.240  14.388
94274W        W53535  16.773   3.897   0.828
94275W        W53536  32.593  10.788  12.824
94276W        W53537   1.479  33.014   2.886
94277W        W53538   9.272   6.393   1.720
94278W        W53539   6.242  44.984   4.695
94279W        W53540  32.037  32.436   0.482
94280W        W53541  26.529   9.183  12.367
94281W        W53542   8.314   8.884   0.439
94282W        W53543  39.357   2.462   4.206
94283W        W53544  27.085   0.951   3.195
94284W        W53545  28.497  34.900   3.839
94285W        W53546  13.181  28.941   3.825
94286W        W53547  26.623  21.635  10.439
94287W        W53548   8.894  40.525   1.704
94288W        W53549  24.080  38.986  13.547
94289W        W53550  40.431  26.681  14.295
94290W        W53551  34.464  27.970  13.512
94291W        W53552   5.785   7.863   1.434
94292W        W53553  14.165  31.133  13.915
94293W        W53554  17.624   9.843   4.219
94294W        W53555  16.682  33.875  14.918
94295W        W53556  17.285   6.825  12.377
94296W        W53557  33.556  29.052  11.587
94297W        W53558  25.644  25.641   3.356
94298W        W53559  39.462  10.795   2.278
94299W        W53560   0.765   2.930   4.176
94300W        W53561  15.759  39.016  14.962
94301W        W53562   6.418   8.845   3.667
94302W        W53563  22.016  41.483  10.890
94303W        W53564  42.364  43.399  12.370
94304W        W53565  36.970  19.170   2.836
94305W        W53566   9.395  22.092   0.898
94306W        W53567  29.496  39.835   0.829
94307W        W53568  42.418  42.900   0.424
94308W        W53569  31.593  28.563   2.415
94309W        W53570  32.397  34.517  13.908
94310W        W53571   1.383  30.140  10.994
94311W        W53572  18.137  29.548   0.886
94312W        W53573  43.852  27.989  10.579
94313W        W53574  38.895  10.810  10.519
94314W        W53575  44.888  16.789   3.652
94315W        W53576  20.134  38.834  11.034
94316W        W53577  16.214  28.121   3.652
94317W        W53578  14.167  41.396  10.579
94318W        W53579  44.991  29.613   3.304
94319W        W53580  19.728  39.841  13.021
94320W        W53581  31.416  28.103  12.982
94321W        W53582  13.247  29.598   1.334
94322W        W53583  43.489  12.233  12.451
94323W        W53584   8.184  42.403  11.420
94324W        W53585  37.462  22.091  12.047
94325W        W53586  33.602   0.327   9.971
94326W        W53587  16.674  43.432  11.516
94327W        W53588   5.407   0.354  12.055
94328W        W53589  32.419  39.431  12.079
94329W        W53590   3.387  13.271  12.846
94330W        W53591  25.133  26.173  14.302
94331W        W53592  42.851  39.921  12.908
94332W        W53593  20.203   6.198  11.465
94333W        W53594   2.774  41.316  14.367
94334W        W53595  20.632  35.494  11.863
94335W        W53596  41.798  33.433   1.760
94336W        W53597  32.474   7.247   1.848
94337W        W53598  14.163  41.966  14.790
94338W        W53599  13.719  38.522  13.483
94339W        W53600  37.408  20.116  14.800
94340W        W53601  31.632   6.257   4.258
94341W        W53602   5.782  14.326   0.455
94342W        W53603  39.343   4.419  13.041
94343W        W53604  20.232  24.181   1.419
94344W        W53605  32.453  38.337  13.929
94345W        W53606  33.050  12.749   0.475
94346W        W53607  31.621  38.385   4.203
94347W        W53608  12.650  12.807  10.982
94348W        W53609  23.539  40.932   3.684
94349W        W53610  38.393  15.269  14.819
94350W        W53611   8.301  21.209  12.861
94351W        W53612  20.739  43.813  14.847
94352W        W53613  32.066  38.356   0.910
94353W        W53614  36.501   1.480   4.161
94354W        W53615  44.425  12.798  13.493
94355W        W53616  11.294  40.943   0.476
94356W        W53617   1.947  26.577   1.217
94357W        W53618  40.380  17.599  13.548
94358W        W53619   7.194  22.074  11.598
94359W        W53620  20.034   7.883   3.293
94360W        W53621  44.269  43.308  14.313
94361W        W53622  41.530  17.067  11.399
94362W        W53623  27.024  40.908   3.343
94363W        W53624   2.266  16.713  10.990
94364W        W53625   3.831  33.576   4.836
94365W        W53626  44.395  14.813  12.077
94366W        W53627  42.352  44.351   4.746
94367W        W53628  19.078  10.365   4.836
94368W        W53629  38.904  18.680   9.610
94369W        W53630   2.370  21.180  10.507
94370W        W53631  32.950  10.723   3.364
94371W        W53632  25.990  12.781   0.361
94372W        W53633  37.381  21.518  11.512
94373W        W53634   7.821  18.082   0.380
94374W        W53635  44.292  18.138  12.984
94375W        W53636  35.045  31.998   1.445
94376W        W53637  34.897  11.266   4.660
94377W        W53638  28.584  34.490  11.567
94378W        W53639  42.437  18.060   3.152
94379W        W53640   9.738   8.243   5.250
94380W        W53641   9.252   4.748   1.748
94381W        W53642  31.602  33.111  10.524
94382W        W53643  32.071   4.844  14.911
94383W        W53644  38.355  38.981  14.864
94384W        W53645  22.519  25.209  14.997
94385W        W53646  20.618   0.784   2.191
94386W        W53647  32.947  42.961   3.746
94387W        W53648  44.946   1.912  14.987
94388W        W53649  34.892   2.320   1.373
94389W        W53650  31.546  13.627   0.957
94390W        W53651  31.575   8.289  10.917
94391W        W53652  25.670  42.409  14.789
94392W        W53653  22.092  34.568  14.464
94393W        W53654  11.317  38.887   0.731
94394W        W53655  24.606  38.383   0.374
94395W        W53656  43.019   8.774  11.407
94396W        W53657  32.099  15.795   0.428
94397W        W53658   7.322  43.811  12.926
94398W        W53659   8.347  42.520   4.195
94399W        W53660  14.298  42.777   3.227
94400W        W53661   4.761  16.738   2.837
94401W        W53662  20.086  42.482  13.853
94402W        W53663  38.952  43.772   3.163
94403W        W53664   9.739  16.319  14.279
94404W        W53665  43.981  35.412  13.436
94405W        W53666  14.206  35.538   0.343
94406W        W53667  17.166  16.182  12.574
94407W        W53668  24.196  20.672   9.950
94408W        W53669  30.547  12.255  11.078
94409W        W53670   7.284  30.447   3.163
94410W        W53671  15.775  12.639  10.084
94411W        W53672  42.322  29.112  14.851
94412W        W53673  14.760  12.733  13.820
94413W        W53674  24.661  41.799   4.673
94414W        W53675  44.406  39.004   0.966
94415W        W53676   5.808  27.030  11.548
94416W        W53677  26.522   1.482  14.795
94417W        W53678  30.065  41.951  11.867
94418W        W53679  13.123  39.487   2.836
94419W        W53680  30.542  32.622  10.477
94420W        W53681  13.648  20.271  11.904
94421W        W53682  29.941   3.363   3.316
94422W        W53683  44.811   8.317  13.349
94423W        W53684   2.745  18.297  13.547
94424W        W53685  22.220  16.615  10.533
94425W        W53686   6.279  41.457  10.115
94426W        W53687   3.945   9.884  12.022
94427W        W53688  29.011  34.027   1.221
94428W        W53689  19.631  21.657  10.514
94429W        W53690  18.561  30.428  13.892
94430W        W53691   9.339  38.064  11.010
94431W        W53692  17.273  16.149   0.340
94432W        W53693  25.067  18.135   0.872
94433W        W53694   2.360  14.746   3.824
94434W        W53695  17.599  41.843   2.869
94435W        W53696   1.402  27.163  11.972
94436W        W53697   3.818  12.132  10.561
94437W        W53698  32.899   5.925   2.739
94438W        W53699  11.753   3.371  12.371
94439W        W53700  35.868   1.895  10.534
94440W        W53701   1.355  20.695   2.264
94441W        W53702  12.729   8.893  12.355
94442W        W53703  24.685  29.069  12.992
94443W        W53704  24.020  19.210  13.793
94444W        W53705  41.029   4.876  12.077
94445W        W53706  32.987  38.000  11.456
94446W        W53707  43.827   4.417  13.888
94447W        W53708   4.925  33.496   1.715
94448W        W53709   6.806  23.668  11.425
94449W        W53710   4.375   5.282   0.264
94450W        W53711   8.689  30.623   3.285
94451W        W53712  37.445  39.883  11.925
94452W        W53713  27.567  24.498  14.855
94453W        W53714   4.312  39.376   1.343
94454W        W53715  31.128  37.358   0.398
94455W        W53716  37.858   0.899  12.398
94456W        W53717  13.649   4.293   4.663
94457W        W53718  20.633  24.538   3.649
94458W        W53719  39.369  30.457  12.462
94459W        W53720   3.825   8.704  10.891
94460W        W53721  20.625  25.212  13.862
94461W        W53722  16.692  44.386  14.809
94462W        W53723  29.957  20.102   1.441
94463W        W53724  25.543  15.230   0.903
94464W        W53725  41.346  35.926  12.368
94465W        W53726  42.506  19.754   1.694
94466W        W53727  31.969  31.537  14.955
94467W        W53728  12.173  28.654   0.745
94468W        W53729  19.692  26.673  13.956
94469W        W53730  16.156   0.409   3.296
94470W        W53731   1.894  17.095   2.246
94471W        W53732  15.659  24.675   0.392
94472W        W53733  30.643  43.361   1.903
94473W        W53734   2.379  38.069  13.045
94474W        W53735  43.375   6.801  14.431
94475W        W53736  31.561  25.186  13.416
94476W        W53737  18.265   7.346  12.832
94477W        W53738  27.654  41.852   1.783
94478W        W53739  28.457  32.522  11.058
94479W        W53740  24.645  37.894   0.463
94480W        W53741  39.938  20.214  13.951
94481W        W53742  14.221  13.256   4.652
94482W        W53743  13.193  32.960  10.486
94483W        W53744   7.805  21.075  14.973
94484W        W53745   7.367  36.421   5.271
94485W        W53746  41.008  27.470   3.683
94486W        W53747   0.805  17.306  13.447
94487W        W53748  22.037  36.537   3.224
94488W        W53749  42.012  14.801   4.302
94489W        W53750  24.086  44.006  12.944
94490W        W53751  12.243  13.291   1.238
94491W        W53752  37.038  36.541  14.810
94492W        W53753  31.952  42.509   2.795
94493W        W53754   2.828  21.111   1.275
94494W        W53755  38.517   0.381   3.803
94495W        W53756   8.210   5.247  12.408
94496W        W53757  43.952  33.974  12.489
94497W        W53758  24.220  21.078  11.397
94498W        W53759  30.952  32.525   0.279
94499W        W53760  26.669   5.874  12.872
94500W        W53761  14.146   9.355   3.764
94501W        W53762  32.963   4.283   4.196
94502W        W53763  40.987  14.169  12.491
94503W        W53764  24.624  43.400  14.765
94504W        W53765  30.950  15.632   4.314
94505W        W53766  42.885  27.477  11.906
94506W        W53767   7.239  20.047  13.974
94507W        W53768  21.128  37.371  13.516
94508W        W53769  16.080  29.080   5.700
94509W        W53770   8.891  14.162   3.867
94510W        W53771  17.598   4.909  13.831
94511W        W53772  13.733  42.426  14.939
94512W        W53773   8.830  43.499   5.125
94513W        W53774   3.299  44.449  13.890
94514W        W53775  39.314  39.954   1.775
94515W        W53776  22.530   3.384  10.462
94516W        W53777  25.504  24.630   4.802
94517W        W53778  13.225  37.994  12.497
94518W        W53779  39.382   5.785   2.204
94519W        W53780  12.266  23.618  11.928
94520W        W53781   3.224   6.207  12.858
94521W        W53782  13.342  39.037  14.836
94522W        W53783  21.023  30.549  11.908
94523W        W53784  33.541  20.052   0.346
94524W        W53785  32.084  16.718  12.571
94525W        W53786   8.751  22.688  11.612
94526W        W53787  13.344  34.870   0.344
94527W        W53788   1.858  27.638  10.444
94528W        W53789   8.348  41.313  10.997
94529W        W53790  12.157   5.239   1.782
94530W        W53791  37.998  34.515  14.397
94531W        W53792  29.587  39.320  12.071
94532W        W53793  38.337  31.936  14.411
94533W        W53794  42.391  21.257   3.651
94534W        W53795  18.267  42.297  14.848
94535W        W53796  13.237  15.298   1.304
94536W        W53797  27.599  33.458  12.904
94537W        W53798   5.412   0.335  13.867
94538W        W53799   4.941  10.270   1.259
94539W        W53800   1.786  33.392   4.340
94540W        W53801  11.200   1.797  14.382
94541W        W53802  38.026  33.586  10.124
94542W        W53803  37.961   7.738  11.405
94543W        W53804   3.428   7.834  11.986
94544W        W53805  42.936  41.475  12.430
94545W        W53806  34.958   8.173   0.780
94546W        W53807  37.484  19.148   0.452
94547W        W53808  18.196   7.703  12.979
94548W        W53809  23.671   7.717   2.773
94549W        W53810  14.650  21.162   1.324
94550W        W53811   0.341   1.803   3.647
94551W        W53812  41.886   3.382  13.334
94552W        W53813  19.549  30.131   9.522
94553W        W53814  28.083   5.268  14.326
94554W        W53815  42.865  12.272  12.519
94555W        W53816  17.671  38.820   1.228
94556W        W53817  26.691  14.815  10.467
94557W        W53818  12.732  41.024  12.900
94558W        W53819  35.002   9.249  12.938
94559W        W53820  13.829  32.568   4.608
94560W        W53821  17.228  43.363  12.499
94561W        W53822  27.021  28.558   3.211
94562W        W53823  16.293  20.064  10.463
94563W        W53824  17.289   8.670   3.180
94564W        W53825  22.658  37.853   2.187
94565W        W53826   8.250   3.340   0.447
94566W        W53827  14.628  36.378  14.795
94567W        W53828  32.627   2.463  14.412
94568W        W53829   5.754  16.214   2.731
94569W        W53830  14.120   1.467   3.210
94570W        W53831  26.174  29.433   4.307
94571W        W53832  17.254  32.894   1.831
94572W        W53833  11.217  21.718   4.287
94573W        W53834   9.279   1.250  10.547
94574W        W53835  12.793   8.726  11.514
94575W        W53836  18.136  43.871   1.742
94576W        W53837  16.655  37.852   3.630
94577W        W53838   3.358  39.504  10.425
94578W        W53839  15.266  14.187   2.410
94579W        W53840  35.523  28.061  10.442
94580W        W53841  44.002  17.647  13.040
94581W        W53842  19.566  26.485  14.944
94582W        W53843  32.527   3.875  10.521
94583W        W53844  15.109  43.318  14.398
94584W        W53845  34.403  18.673   1.884
94585W        W53846  39.316  17.291   2.760
94586W        W53847   8.160  32.964  10.952
94587W        W53848  11.695  32.030   5.293
94588W        W53849  14.340   3.802   3.745
94589W        W53850  26.558  20.165  10.585
94590W        W53851  13.187   3.304   4.160
94591W        W53852  21.523   9.705   4.738
94592W        W53853   1.862  24.117  11.438
94593W        W53854   0.362  22.246   1.386
94594W        W53855   6.385  22.069  10.964
94595W        W53856  37.488  20.706  14.882
94596W        W53857  16.199  25.612   4.334
94597W        W53858  22.103  22.053   0.949
94598W        W53859   9.304  43.825   0.811
94599W        W53860  39.877  34.430  13.396
94600W        W53861  13.644  40.947   1.928
94601W        W53862  12.621  42.033   4.815
94602W        W53863  26.602  17.585  12.947
94603W        W53864  13.602  15.674   1.363
94604W        W53865  11.859  40.303   3.733
94605W        W53866  36.351  37.488   2.669
94606W        W53867   0.745  27.079  13.307
94607W        W53868  22.632   4.865  11.377
94608W        W53869  34.543   4.939   2.393
94609W        W53870  12.821  10.731   4.670
94610W        W53871  25.517  23.604   2.846
94611W        W53872  29.545  14.666  11.398
94612W        W53873  41.918  43.304   2.218
94613W        W53874   1.916  40.465   4.731
94614W        W53875  35.889   5.271  10.417
94615W        W53876  20.155  10.264   1.810
94616W        W53877  21.217  15.709   2.869
94617W        W53878  35.919   0.322   3.733
94618W        W53879  35.365  30.926   0.456
94619W        W53880  17.758  16.687  10.055
94620W        W53881  37.981  34.884   1.442
94621W        W53882  38.556  22.180  10.491
94622W        W53883  44.779  34.060   1.305
94623W        W53884   5.898  38.939   2.184
94624W        W53885  11.646  41.807   1.798
94625W        W53886  39.497  12.708  11.067
94626W        W53887  14.204  26.967  10.919
94627W        W53888  15.814  43.908  12.366
94628W        W53889  13.238  42.804  12.022
94629W        W53890  29.478  27.109  11.862
94630W        W53891  16.102  24.131  14.808
94631W        W53892  13.807   2.894  11.874
94632W        W53893  12.784  42.888   0.960
94633W        W53894  41.948  16.693  14.396
94634W        W53895  20.745  22.057   0.474
94635W        W53896  32.897  25.625  11.389
94636W        W53897  17.240  25.613  12.892
94637W        W53898  37.020  38.443   4.164
94638W        W53899  44.487  12.681  10.000
94639W        W53900   7.708  30.032   4.826
94640W        W53901  37.521  25.975   0.906
94641W        W53902  34.432  37.535   0.466
94642W        W53903  15.719  23.707  10.142
94643W        W53904   6.794  42.450   3.783
94644W        W53905  42.886  44.465  11.404
94645W        W53906  28.117  36.549  11.882
94646W        W53907  16.569  12.323  14.866
94647W        W53908  17.194  10.365   3.235
94648W        W53909  21.517   2.840  14.409
94649W        W53910  11.220  18.230  10.467
94650W        W53911  15.317   4.310  10.412
94651W        W53912  36.074  19.659   4.813
94652W        W53913  21.710  17.277   3.238
94653W        W53914   2.429   5.431  10.417
94654W        W53915  41.851  40.892  14.369
94655W        W53916   4.296  24.998  14.387
94656W        W53917  43.818  19.166   0.263
94657W        W53918  28.647   8.807   2.349
94658W        W53919   6.267   8.826   4.683
94659W        W53920   6.246  26.633   0.931
94660W        W53921  25.101  20.642   0.272
94661W        W53922  36.532  42.949  10.461
94662W        W53923  14.283  41.352  12.934
94663W        W53924   3.844  39.372   3.686
94664W        W53925  44.920   0.396  13.976
94665W        W53926  20.066  35.090  12.053
94666W        W53927  26.205  32.071   0.966
94667W        W53928  12.722  41.464   2.732
94668W        W53929  10.780  27.609  14.450
94669W        W53930  13.263  37.916   4.739
94670W        W53931  14.705  41.991   1.218
94671W        W53932  17.166  22.215   0.909
94672W        W53933   5.210  20.665   0.482
94673W        W53934  43.004   6.263   2.821
94674W        W53935  39.043  15.325  10.956
94675W        W53936  37.523  38.405   4.645
94676W        W53937  10.659  35.061   0.939
94677W        W53938  14.217  22.679  13.483
94678W        W53939   2.793  41.448   3.659
94679W        W53940   5.783  19.112   1.324
94680W        W53941   3.772  32.921   1.438
94681W        W53942  13.229   8.683  13.393
94682W        W53943  33.960   6.778  14.341
94683W        W53944  15.599  36.507   2.681
94684W        W53945  12.124  34.896  11.873
94685W        W53946  43.917  40.929  11.465
94686W        W53947  22.551  17.259   3.826
94687W        W53948   0.253   5.756  10.999
94688W        W53949  38.068  37.987   4.253
94689W        W53950   6.895  19.130   3.303
94690W        W53951  27.136   4.348  11.933
94691W        W53952  39.012  14.590   3.208
94692W        W53953   1.914  22.593   1.778
94693W        W53954  16.201  12.204  10.543
94694W        W53955  13.620  13.726  14.421
94695W        W53956  25.682   7.854  10.898
94696W        W53957  24.172   0.905  13.915
94697W        W53958   7.832  26.073  13.983
94698W        W53959  16.662  18.559  10.096
94699W        W53960  30.987   9.676   1.217
94700W        W53961  33.100  19.224   0.373
94701W        W53962  39.052  25.157  14.374
94702W        W53963  29.987  34.528  11.007
94703W        W53964   0.372  12.241   0.378
94704W        W53965  16.776  42.472   4.810
94705W        W53966   1.429  31.448  13.868
94706W        W53967   9.389  38.998  10.574
94707W        W53968   6.266  16.150  11.567
94708W        W53969  40.457   9.687  11.914
94709W        W53970   7.203  26.597  13.853
94710W        W53971   5.871   9.887   1.705
94711W        W53972   0.885   0.793  14.412
94712W        W53973  27.029  44.418   5.203
94713W        W53974  31.499  19.283  14.986
94714W        W53975   7.858  22.565   0.435
94715W        W53976  42.943  37.951   4.234
94716W        W53977   4.702  35.492   0.959
94717W        W53978  10.313   9.694  14.403
94718W        W53979  34.611  17.164  13.012
94719W        W53980  33.077  43.912  14.380
94720W        W53981  23.583  10.151   4.329
94721W        W53982  31.638   9.257   0.244
94722W        W53983  16.124  23.212   4.238
94723W        W53984  25.198  12.136   1.753
94724W        W53985  22.018  20.535  13.317
94725W        W53986  13.626  10.184   4.830
94726W        W53987  21.052  37.367  11.394
94727W        W53988  27.475  41.489   0.741
94728W        W53989  34.030  35.567  12.364
94729W        W53990  13.151  42.878  12.999
94730W        W53991  24.603  34.609  11.950
94731W        W53992   4.387  22.149  11.928
94732W        W53993  40.856   6.217  11.978
94733W        W53994  17.614  30.487   4.194
94734W        W53995  30.125  42.031  13.458
94735W        W53996  44.952  41.988   4.773
94736W        W53997  34.931   3.374  11.869
94737W        W53998  20.073  21.110  13.900
94738W        W53999  31.082  44.320   5.306
94739W        W54000  24.677  26.199   1.211
94740W        W54001  39.478  36.044   2.755
94741W        W54002  43.793   4.927  11.068
94742W        W54003  40.508  33.550   0.459
94743W        W54004   9.280  25.176  11.927
94744W        W54005  31.646  17.195  12.371
94745W        W54006  26.115  44.462  12.491
94746W        W54007  13.244   8.280  13.542
94747W        W54008   6.677  35.926   4.704
94748W        W54009  21.253  36.916   5.132
94749W        W54010  30.087  22.551   0.789
94750W        W54011  18.267   2.350  14.825
94751W        W54012   3.360  37.528  11.930
94752W        W54013  14.263   7.312  11.061
94753W        W54014   2.349   8.781   9.933
94754W        W54015  32.454  12.818  14.895
94755W        W54016  28.097  36.479  14.334
94756W        W54017  23.229  28.170  14.477
94757W        W54018  14.109  22.197  14.933
94758W        W54019   6.708  42.476   2.417
94759W        W54020  23.721  20.218   4.253
94760W        W54021   0.491  21.637   3.373
94761W        W54022  28.648  35.070  10.994
94762W        W54023   5.438  36.072  10.519
94763W        W54024  26.464  28.675   3.812
94764W        W54025  10.659  17.131   3.687
94765W        W54026  24.117   0.468   2.850
94766W        W54027   3.325   5.795  13.031
94767W        W54028  41.868   6.407   1.213
94768W        W54029  38.013   9.674   3.257
94769W        W54030   6.190  26.466   3.366
94770W        W54031  24.546  37.435   0.771
94771W        W54032  35.401  42.361  12.018
94772W        W54033  27.580  22.106   4.172
94773W        W54034   4.837  21.643  11.997
94774W        W54035   8.670  11.308   0.786
94775W        W54036  41.911  30.558  10.626
94776W        W54037   9.316  25.171   0.920
94777W        W54038  15.752  42.905   2.238
94778W        W54039  21.702  25.131   2.385
94779W        W54040   5.749  19.263   3.773
94780W        W54041   4.716  31.983  14.879
94781W        W54042  32.430  24.042   1.424
94782W        W54043  12.847  35.108   0.826
94783W        W54044   3.905  37.079  12.450
94784W        W54045  42.897  28.526  13.418
94785W        W54046  27.016  10.794   3.172
94786W        W54047  42.807  18.644   3.850
94787W        W54048   3.835  18.605   4.768
94788W        W54049   5.256  30.440   3.861
94789W        W54050  11.139  18.083   1.435
94790W        W54051   5.436  37.364  10.542
94791W        W54052  15.674  34.028  12.454
94792W        W54053  28.000  39.845   5.165
94793W        W54054   1.418   8.834   0.869
94794W        W54055  38.904  31.016   1.301
94795W        W54056   6.196  44.391   4.166
94796W        W54057   1.774  34.445   2.295
94797W        W54058  15.147   2.390  11.394
94798W        W54059  27.062  35.567   2.306
94799W        W54060  25.654  39.482  13.450
94800W        W54061  15.766  15.821  14.452
94801W        W54062  21.051  37.404  13.912
94802W        W54063  29.584   0.929  13.348
94803W        W54064  17.162  42.973  12.356
94804W        W54065   2.910  23.511  13.889
94805W        W54066  39.974  27.609   0.409
94806W        W54067  37.999   4.864  13.864
94807W        W54068  32.998   2.318   3.193
94808W        W54069  14.652   7.854   4.729
94809W        W54070  21.055  24.686   2.283
94810W        W54071  13.131   6.809   1.730
94811W        W54072  32.935  33.493   0.292
94812W        W54073  26.627  41.347   1.726
94813W        W54074  36.451  22.597   9.992
94814W        W54075  28.938  14.178   5.277
94815W        W54076  12.165   7.221  12.082
94816W        W54077  44.786   9.771  13.940
94817W        W54078  26.662  34.943   0.814
94818W        W54079  16.751  32.928  12.554
94819W        W54080   1.322  12.247  12.535
94820W        W54081  29.153  23.609   3.225
94821W        W54082   9.374  13.214   0.358
94822W        W54083  14.129   1.946   1.702
94823W        W54084  32.971  17.590  12.076
94824W        W54085  36.472  19.598  10.927
94825W        W54086  38.361   0.754  11.121
94826W        W54087  18.778   3.930   2.209
94827W        W54088  39.355  13.658   1.335
94828W        W54089  22.996  28.567   3.735
94829W        W54090  34.527  37.912   1.310
94830W        W54091  35.593  28.679  13.382
94831W        W54092   0.880  40.480  12.494
94832W        W54093   3.232   8.249  12.866
94833W        W54094  36.904  33.439  13.048
94834W        W54095  18.642  19.214   2.896
94835W        W54096  41.298  35.416   0.369
94836W        W54097  35.856  13.682  14.297
94837W        W54098   1.861   5.801   3.864
94838W        W54099   5.434   2.278  11.953
94839W        W54100  13.670   7.893   1.751
94840W        W54101  15.241  40.924   0.276
94841W        W54102  13.122   5.363  13.418
94842W        W54103  44.364  14.327  14.934
94843W        W54104  18.573   3.926   5.293
94844W        W54105  11.692  10.276  14.965
94845W        W54106  27.665  23.125   3.866
94846W        W54107   5.316  14.337  10.893
94847W        W54108  11.362  24.563   0.855
94848W        W54109  36.887  24.634  11.491
94849W        W54110  26.638  44.276   4.188
94850W        W54111  15.183  32.461  12.442
94851W        W54112  40.820  15.188  14.863
94852W        W54113  24.542  32.574   3.193
94853W        W54114   4.803  40.397   0.854
94854W        W54115   8.742  30.526   4.719
94855W        W54116  37.972  32.488   3.369
94856W        W54117   8.727  22.714   4.716
94857W        W54118  42.844   7.678  14.003
94858W        W54119   2.412  34.052  12.497
94859W        W54120  40.527  10.152  14.387
94860W        W54121   5.318  26.631   4.627
94861W        W54122  34.955   1.899   4.684
94862W        W54123   3.361   1.844   3.311
94863W        W54124  26.595   8.661   4.338
94864W        W54125  31.052  38.988   2.704
94865W        W54126   1.887  10.364  11.075
94866W        W54127  44.371  15.301  11.878
94867W        W54128  14.117  33.116  13.023
94868W        W54129  26.094  24.101  13.324
94869W        W54130  23.020  39.355   3.337
94870W        W54131  14.286   4.757   2.691
94871W        W54132   8.221  44.468   2.241
94872W        W54133  25.065  37.520   0.424
94873W        W54134  40.942  41.043   2.727
94874W        W54135  34.462  39.526   0.961
94875W        W54136   3.395   9.765   2.211
94876W        W54137  24.695  44.375  10.485
94877W        W54138  11.809  39.034   2.235
94878W        W54139   9.784  39.925   1.336
94879W        W54140  19.666  18.775   9.485
94880W        W54141  36.361   3.275  10.440
94881W        W54142  36.925  43.796   1.420
94882W        W54143  26.631   0.315   9.608
94883W        W54144  33.065  41.864  13.401
94884W        W54145   1.751  13.739   0.841
94885W        W54146   4.232  36.478  12.437
94886W        W54147   6.919   7.246   0.457
94887W        W54148   5.828   2.903   3.744
94888W        W54149  39.994  32.998   3.753
94889W        W54150  43.999   7.683   2.813
94890W        W54151   3.255  39.046   2.853
94891W        W54152  44.753  38.393  14.415
94892W        W54153  15.250  42.491  12.492
94893W        W54154  16.281  38.387  12.859
94894W        W54155  35.596  12.275   5.096
94895W        W54156  40.449   0.424   4.720
94896W        W54157  31.488  27.611   2.264
94897W        W54158   9.169  32.125   0.837
94898W        W54159  30.025  38.414   0.743
94899W        W54160  16.780   4.792   2.802
94900W        W54161   8.291  16.739  10.633
94901W        W54162  37.563  43.916   0.911
94902W        W54163  21.540   5.777  11.530
94903W        W54164  19.085  28.034   4.337
94904W        W54165  23.140  36.069  13.487
94905W        W54166  24.579  16.079  13.541
94906W        W54167  28.941  36.936   2.864
94907W        W54168   8.670  25.506   4.802
94908W        W54169  39.855  10.693   1.696
94909W        W54170  34.924  16.182  12.031
94910W        W54171   2.424  44.430   0.871
94911W        W54172  26.037  21.536  12.878
94912W        W54173  30.475  24.619  14.989
94913W        W54174  12.339  36.882   3.807
94914W        W54175  31.499  28.669   0.460
94915W        W54176  20.755  13.243   4.296
94916W        W54177  31.938  30.149  11.888
94917W        W54178   4.911  19.279   3.722
94918W        W54179  36.562  30.149  14.434
94919W        W54180   4.343  10.219   1.416
94920W        W54181   3.386   4.727   0.273
94921W        W54182  21.710  16.127   0.922
94922W        W54183  29.003  19.161  10.904
94923W        W54184  34.876  36.403   3.780
94924W        W54185  13.762  35.553  11.939
94925W        W54186  38.914  13.262  14.349
94926W        W54187  13.196  17.620  13.028
94927W        W54188   2.741   5.360   0.966
94928W        W54189  14.647  11.162  14.479
94929W        W54190  37.443  44.494   3.851
94930W        W54191  43.373  10.848   0.821
94931W        W54192   8.895  25.976   3.213
94932W        W54193  17.633  10.804  14.491
94933W        W54194  44.956  23.037  13.942
94934W        W54195  36.096   2.255   0.463
94935W        W54196  38.392  17.270   3.158
94936W        W54197  15.783   7.211  12.528
94937W        W54198   3.782  28.136  14.458
94938W        W54199  39.018  36.418  10.607
94939W        W54200  17.723  21.576  12.081
94940W        W54201  21.047   3.328  11.526
94941W        W54202  35.592  41.332  11.860
94942W        W54203  20.757  31.438   3.386
94943W        W54204  15.772  35.420  14.984
94944W        W54205  19.089  18.157   0.790
94945W        W54206   3.929  26.136   4.330
94946W        W54207  37.493  41.478   2.663
94947W        W54208  25.213   3.746   3.354
94948W        W54209   8.900   8.375  14.463
94949W        W54210   2.893  25.086   2.178
94950W        W54211  44.400  36.588   2.287
94951W        W54212  43.871  21.235   2.727
94952W        W54213  17.167  42.400  12.541
94953W        W54214   6.839  44.414   3.164
94954W        W54215  30.442  26.088  14.926
94955W        W54216  43.406  21.125   4.712
94956W        W54217  37.921  14.825   0.332
94957W        W54218  42.816  21.212  11.063
94958W        W54219   7.683  36.036  13.958
94959W        W54220   9.759  27.978   0.956
94960W        W54221  26.966  17.129  13.804
94961W        W54222  10.749  33.410  12.456
94962W        W54223  20.173  44.966  14.010
94963W        W54224  23.506  38.896  12.524
94964W        W54225  41.504  25.552  13.886
94965W        W54226  14.309  41.455  14.823
94966W        W54227   4.251  36.452  11.930
94967W        W54228  21.225  20.664   2.288
94968W        W54229  35.860  41.001   4.159
94969W        W54230  39.521   1.449  10.632
94970W        W54231   6.857  44.276   2.866
94971W        W54232  33.589  34.437  11.045
94972W        W54233  24.160   9.225  11.032
94973W        W54234  38.025  24.983  13.402
94974W        W54235  44.764  36.412  13.342
94975W        W54236  38.568  29.584   4.170
94976W        W54237  14.599  13.831  12.403
94977W        W54238  23.090  13.180  12.063
94978W        W54239  39.430  41.804   0.874
94979W        W54240  23.535  31.942  14.305
94980W        W54241  14.678  11.779  13.348
94981W        W54242  12.760  21.658   1.291
94982W        W54243  36.999  26.177   1.831
94983W        W54244  29.959  20.758  11.938
94984W        W54245  43.770   0.750   2.186
94985W        W54246  32.034  20.639   3.292
94986W        W54247   5.704  38.518   2.801
94987W        W54248  39.531   5.691  10.494
94988W        W54249  35.011  28.437   3.253
94989W        W54250  17.207  37.981   4.204
94990W        W54251  23.731  12.708   1.695
94991W        W54252  36.499  25.602  11.509
94992W        W54253  19.143  34.530   1.697
94993W        W54254  34.887  24.091  13.034
94994W        W54255  16.572  38.967  10.511
94995W        W54256  20.753  31.123   0.805
94996W        W54257  26.157   6.784  10.529
94997W        W54258  30.961  11.185  13.501
94998W        W54259  43.881  21.668   4.299
94999W        W54260   8.212  11.773   3.185
95000W        W54261  41.795   0.366   4.664
95001W        W54262  28.560  23.589   0.369
95002W        W54263   7.250  28.002  11.483
95003W        W54264   1.327  38.843   2.736
95004W        W54265  17.176  41.946  14.285
95005W        W54266   6.231  19.744  14.995
95006W        W54267  21.129  32.080   2.842
95007W        W54268  24.161  27.157  13.390
95008W        W54269   0.950  33.908   1.713
95009W        W54270  25.509   6.407   4.638
95010W        W54271   1.918  37.027  14.948
95011W        W54272  13.684  34.942   4.308
95012W        W54273  43.342  16.733  14.903
95013W        W54274  29.603  13.658  14.390
95014W        W54275  21.740   2.833   4.165
95015W        W54276  42.380  43.314   4.259
95016W        W54277  38.965  17.106   9.922
95017W        W54278  21.059   8.809  13.807
95018W        W54279  23.233  34.559   0.890
95019W        W54280  42.453  39.968  11.962
95020W        W54281  23.020  34.570   2.323
95021W        W54282  10.858  12.322  10.952
95022W        W54283   4.308  42.347  10.558
95023W        W54284  44.271  15.216  11.514
95024W        W54285  18.182  32.952   2.864
95025W        W54286   3.394  16.698  12.458
95026W        W54287  38.348   8.171  10.912
95027W        W54288  14.601  18.221   4.206
95028W        W54289  34.457  24.698  10.976
95029W        W54290  35.898   7.318  11.109
95030W        W54291   7.674  16.669   3.288
95031W        W54292  18.288  10.140   1.922
95032W        W54293  43.891  38.903  11.593
95033W        W54294  37.050  16.664   2.773
95034W        W54295  20.697  32.966  13.937
95035W        W54296  19.190  17.086   9.974
95036W        W54297  25.171  25.527   1.931
95037W        W54298   0.886   4.392   3.714
95038W        W54299  44.391  12.701   2.348
95039W        W54300  20.202  37.432  14.375
95040W        W54301   7.219  25.066   2.692
95041W        W54302   0.855  44.908  12.482
95042W        W54303   6.801   4.417  10.117
95043W        W54304  21.524  42.485  11.119
95044W        W54305   7.852  10.240   3.754
95045W        W54306  28.600   7.352  14.407
95046W        W54307  27.565  34.442  13.917
95047W        W54308   4.844  12.726   2.334
95048W        W54309   6.802  23.554  12.344
95049W        W54310  38.045  16.314  10.581
95050W        W54311  18.226   7.778   2.366
95051W        W54312  28.029  12.323  11.029
95052W        W54313  24.058  44.310  10.115
95053W        W54314   7.281   1.895   5.134
95054W        W54315  11.345   9.742  11.392
95055W        W54316   9.300  44.473  10.482
95056W        W54317  26.991   8.807  14.514
95057W        W54318   8.895  17.147  10.489
95058W        W54319   4.789  17.143  13.916
95059W        W54320  34.384  14.757   4.769
95060W        W54321  19.657  30.087   2.370
95061W        W54322   6.887  11.224   4.250
95062W        W54323  17.583  18.684   3.256
95063W        W54324  22.700  12.274   3.683
95064W        W54325  22.031  22.056  14.463
95065W        W54326  36.456  15.739  11.575
95066W        W54327  36.063   4.404   0.877
95067W        W54328  35.430   4.255   1.870
95068W        W54329   7.821  26.460   1.270
95069W        W54330   2.356  10.246   1.308
95070W        W54331  41.787  16.601  13.538
95071W        W54332  10.380  29.985   0.929
95072W        W54333  18.776  13.754   4.229
95073W        W54334   1.912  17.093   3.681
95074W        W54335   2.318  10.759   2.352
95075W        W54336  37.865  17.670  11.856
95076W        W54337  12.329  40.834   1.224
95077W        W54338   2.792  36.368  14.286
95078W        W54339  29.934  25.118   0.461
95079W        W54340  40.864  10.268   4.707
95080W        W54341  21.226  37.958  14.847
95081W        W54342  23.985  40.015  12.515
95082W        W54343  25.159  26.119   2.883
95083W        W54344  10.318  25.580   2.726
95084W        W54345  29.975  14.800   3.303
95085W        W54346   3.380   6.206  10.638
95086W        W54347  21.565  30.082  14.497
95087W        W54348  37.372   5.865  11.513
95088W        W54349  32.102  10.759  13.045
95089W        W54350   5.724  39.920   4.612
95090W        W54351  36.917  11.160  14.778
95091W        W54352   4.335  19.563   2.844
95092W        W54353  38.419  16.619   4.704
95093W        W54354  21.755  16.696  12.841
95094W        W54355   9.871  43.274  13.526
95095W        W54356   9.653  17.305  11.563
95096W        W54357  22.743  21.178  13.349
95097W        W54358  14.266  11.796   2.271
95098W        W54359  24.022  33.037  11.491
95099W        W54360  37.342  12.173   4.218
95100W        W54361  31.951   1.865   2.282
95101W        W54362  17.126  44.944   1.760
95102W        W54363   6.893  38.520   3.759
95103W        W54364  33.122   1.842  12.416
95104W        W54365  10.219  21.195  10.938
95105W        W54366  19.234   7.381   3.372
95106W        W54367  19.746   7.299   4.683
95107W        W54368  17.222  19.596  12.390
95108W        W54369  33.401   3.924   3.372
95109W        W54370  32.035  12.310   4.791
95110W        W54371  19.114  29.060  14.463
95111W        W54372  31.559  44.470  12.924
95112W        W54373   1.405  39.333   1.911
95113W        W54374  10.787  14.807  13.449
95114W        W54375  17.601  36.048   2.803
95115W        W54376  31.051  16.619   0.346
95116W        W54377  20.050  22.064   0.467
95117W        W54378  20.154  25.044  14.917
95118W        W54379  17.716  28.071  11.892
95119W        W54380  15.227  16.667  10.908
95120W        W54381  37.905  20.727  13.840
95121W        W54382  40.806  22.212   4.154
95122W        W54383   8.317  13.179   0.959
95123W        W54384  26.622  34.074  14.440
95124W        W54385   3.310  17.687  10.436
95125W        W54386  37.391  40.425  12.419
95126W        W54387  34.584   2.345  13.480
95127W        W54388  23.135  28.454   2.772
95128W        W54389   2.953  28.056   4.741
95129W        W54390   5.431   1.760  14.483
95130W        W54391   1.758  16.251   2.408
95131W        W54392  38.909  41.869  12.831
95132W        W54393  23.699  37.976   2.315
95133W        W54394  41.496  25.009  12.358
95134W        W54395   8.878   9.737   2.768
95135W        W54396  22.098  39.520   3.851
95136W        W54397  24.587   0.368  12.065
95137W        W54398   4.762  23.533   4.242
95138W        W54399  11.147   4.267   4.813
95139W        W54400  28.124  44.755  11.098
95140W        W54401  24.636   7.306  10.901
95141W        W54402  37.869  37.434   4.793
95142W        W54403   8.229  16.214   0.420
95143W        W54404  24.028  35.532   4.745
95144W        W54405   5.249  28.015  13.328
95145W        W54406  35.075   3.953  13.436
95146W        W54407  16.566   5.412  11.556
95147W        W54408   8.357   5.820  13.938
95148W        W54409  23.142  18.088  10.465
95149W        W54410  32.412  39.538  13.441
95150W        W54411  11.767  25.209  12.516
95151W        W54412  26.564  44.417   3.693
95152W        W54413  31.071  19.594   3.385
95153W        W54414  27.506   5.407  13.476
95154W        W54415  40.408  37.563   2.255
95155W        W54416  28.034  17.761  10.413
95156W        W54417  18.254  10.711  14.440
95157W        W54418  31.567  34.950  13.338
95158W        W54419  18.234  11.820  11.007
95159W        W54420  36.942   6.388  11.903
95160W        W54421  30.949   4.292   2.872
95161W        W54422  31.469  39.057   1.834
95162W        W54423   6.729  21.565   2.409
95163W        W54424  34.086  18.548   2.378
95164W        W54425  30.994  29.147  11.894
95165W        W54426  37.049  13.292  13.857
95166W        W54427  15.083  34.970  13.879
95167W        W54428  31.094  39.921   0.859
95168W        W54429   7.849  38.002   4.837
95169W        W54430  27.051  33.608  14.426
95170W        W54431  14.145  17.287  13.987
95171W        W54432   6.814  15.108  12.405
95172W        W54433  17.629   9.759  10.627
95173W        W54434  13.123  10.226   1.882
95174W        W54435  11.799  23.017  14.795
95175W        W54436  28.036  14.236  13.885
95176W        W54437  27.659  37.841  12.379
95177W        W54438  29.134  26.005   1.407
95178W        W54439   5.407  18.172   0.869
95179W        W54440  20.669  23.211  11.083
95180W        W54441  39.315  35.070   0.853
95181W        W54442   0.441   5.694  13.316
95182W        W54443  22.033   9.687   1.255
95183W        W54444  12.804  18.650  11.580
95184W        W54445  37.997  43.018  12.032
95185W        W54446  21.737   7.337  13.347
95186W        W54447  24.055   1.930  14.985
95187W        W54448  21.544  32.897  11.399
95188W        W54449  35.437  13.130  10.453
95189W        W54450   8.708  37.987   2.827
95190W        W54451  28.155  38.011   2.356
95191W        W54452  36.491   1.843  14.379
95192W        W54453  43.789  30.007  14.288
95193W        W54454  43.505  32.455  13.920
95194W        W54455   6.777  10.687   0.935
95195W        W54456  35.102   3.888   3.148
95196W        W54457  35.022  36.461   2.178
95197W        W54458   0.871   4.777   3.210
95198W        W54459  15.320  35.416   1.333
95199W        W54460  30.500  25.486   3.252
95200W        W54461  44.273   3.221   2.354
95201W        W54462  16.101  26.016   4.798
95202W        W54463  31.462  32.558   2.300
95203W        W54464  10.238   5.749  11.021
95204W        W54465   8.809  15.185  11.113
95205W        W54466  13.238  16.770   4.782
95206W        W54467  29.928  16.191   2.770
95207W        W54468  26.509  32.588  12.431
95208W        W54469  41.386   1.355   3.772
95209W        W54470  23.033  44.006   2.866
95210W        W54471  36.985   3.761   2.240
95211W        W54472  26.559  41.850  11.964
95212W        W54473   0.421  16.297  12.436
95213W        W54474  20.674   2.804   2.181
95214W        W54475  40.498  36.996  12.051
95215W        W54476   7.756  42.884   1.363
95216W        W54477   9.711  43.455   4.621
95217W        W54478  36.439  43.962   4.641
95218W        W54479  18.267  35.479  11.121
95219W        W54480  20.041  28.108   0.877
95220W        W54481  12.269  10.680  14.000
95221W        W54482  32.524  37.833   4.317
95222W        W54483  31.925  37.552   2.297
95223W        W54484   0.424   4.794   0.797
95224W        W54485  28.605  38.386   0.393
95225W        W54486  34.937   6.910   1.252
95226W        W54487  18.774  42.399   3.345
95227W        W54488  38.867  10.142  13.526
95228W        W54489   9.828   2.723  12.496
95229W        W54490  31.590  24.719   0.875
95230W        W54491  32.444  16.628  10.490
95231W        W54492  39.837  21.197   0.387
95232W        W54493  20.088   6.755   1.306
95233W        W54494  22.026  25.133   2.662
95234W        W54495  20.262  27.485   1.279
95235W        W54496  25.667  24.570  13.486
95236W        W54497  38.397  28.651   4.649
95237W        W54498  25.012  44.312   3.650
95238W        W54499  39.981  16.684   0.738
95239W        W54500  38.383  31.525   3.815
95240W        W54501  30.930  24.665  12.094
95241W        W54502   8.858  41.933  10.488
95242W        W54503  31.455   1.899  14.448
95243W        W54504   8.360  13.805  10.901
95244W        W54505  20.568   2.849  13.499
95245W        W54506  36.515  13.674  13.308
95246W        W54507  11.163  14.805  14.845
95247W        W54508  33.106  18.060  12.934
95248W        W54509  18.655  17.562   0.921
95249W        W54510  17.720  31.498  13.463
95250W        W54511   8.691  21.581  14.492
95251W        W54512   9.322   0.884   3.273
95252W        W54513   0.270  28.101   4.175
95253W        W54514  10.787  29.155  14.446
95254W        W54515  37.506  17.770  13.809
95255W        W54516  20.101  42.446   4.315
95256W        W54517  39.408   7.371  12.835
95257W        W54518  37.404   6.197   2.276
95258W        W54519  18.692  33.623  11.498
95259W        W54520  14.745  43.890  14.786
95260W        W54521  16.183  27.577   3.163
95261W        W54522   0.434  16.811  10.465
95262W        W54523  22.634  32.074   4.337
95263W        W54524  30.063  32.583   1.435
95264W        W54525  22.174  21.188  13.368
95265W        W54526  22.560  22.115   4.640
95266W        W54527  34.077   1.416   2.361
95267W        W54528  30.608  25.600  14.836
95268W        W54529  20.039  17.298  14.764
95269W        W54530  31.620  10.379  13.501
95270W        W54531   5.344  40.004  11.402
95271W        W54532   0.880  10.246  14.509
95272W        W54533  23.610  15.760  14.805
95273W        W54534  33.573  15.264  12.563
95274W        W54535   2.958  22.188   1.279
95275W        W54536   4.713  22.200   4.670
95276W        W54537   6.743  38.334   4.778
95277W        W54538  16.642   0.804  11.411
95278W        W54539  24.002  13.180  13.518
95279W        W54540   5.864  39.549  14.821
95280W        W54541  31.408  44.418   2.858
95281W        W54542  12.137  30.992  13.975
95282W        W54543  41.011  29.046   3.310
95283W        W54544   0.791  21.600   0.884
95284W        W54545   7.811  17.657   1.245
95285W        W54546  34.907  29.112   3.694
95286W        W54547   9.774  13.602   4.673
95287W        W54548  18.226  43.792   0.430
95288W        W54549  23.110  31.024  10.444
95289W        W54550  23.539  28.655   3.658
95290W        W54551   0.460  27.629   4.206
95291W        W54552  17.681  43.303   0.836
95292W        W54553  24.127  41.936   2.190
95293W        W54554   6.678  27.155  12.365
95294W        W54555  24.515  33.535   2.205
95295W        W54556   0.453  31.402   3.345
95296W        W54557  34.426  16.651   0.260
95297W        W54558  17.201  11.264   4.635
95298W        W54559  34.065  16.267   2.809
95299W        W54560  22.168  22.072  11.044
95300W        W54561  36.005  24.019  14.386
95301W        W54562  31.482  20.560  11.013
95302W        W54563   7.808  34.435   2.389
95303W        W54564  19.244  29.494   4.735
95304W        W54565  34.559   5.375   1.714
95305W        W54566  13.213  18.708   0.356
95306W        W54567   9.290  29.571   1.381
95307W        W54568  27.038  38.966   1.238
95308W        W54569  19.676  41.967  10.897
95309W        W54570  39.991  31.126   3.831
95310W        W54571  11.856  13.214  10.930
95311W        W54572   2.764  39.907  13.978
95312W        W54573  30.498  11.753  13.013
95313W        W54574  31.026  31.475  14.801
95314W        W54575  15.306  44.310  10.617
95315W        W54576  37.490   1.751  13.535
95316W        W54577   9.331  21.249   1.450
95317W        W54578  42.984  13.715   4.646
95318W        W54579  44.911   5.255   1.328
95319W        W54580   6.680   2.740   1.320
95320W        W54581  44.853   9.873   1.298
95321W        W54582  18.696   7.277  12.880
95322W        W54583   1.463  41.996  11.905
95323W        W54584  12.236  36.094   3.373
95324W        W54585  43.375  30.574  12.083
95325W        W54586  28.661  35.979  12.900
95326W        W54587  36.380  12.824   2.859
95327W        W54588  21.021  41.889  12.511
95328W        W54589  42.879  31.003  14.384
95329W        W54590   9.786   8.253   2.671
95330W        W54591  34.964  14.731  14.349
95331W        W54592  44.878   9.772  12.069
95332W        W54593  19.770  23.080  12.938
95333W        W54594  12.171   8.351  13.484
95334W        W54595  35.359  16.245  13.799
95335W        W54596  33.104  23.564   1.698
95336W        W54597  20.658  15.814   0.734
95337W        W54598   8.237  16.182  14.386
95338W        W54599  17.222   3.853   0.264
95339W        W54600  30.477  14.134   2.821
95340W        W54601  41.459  13.709   2.402
95341W        W54602  35.495  22.552  11.100
95342W        W54603  32.944   1.813  11.549
95343W        W54604  29.454  21.623   2.242
95344W        W54605  17.304  28.679  12.060
95345W        W54606  39.356  37.410  11.058
95346W        W54607  22.675   3.873  14.409
95347W        W54608  18.725  34.612   3.155
95348W        W54609  31.574  32.964   4.181
95349W        W54610  16.220   1.862  13.933
95350W        W54611  29.501  25.064   0.767
95351W        W54612  23.513  35.012  12.536
95352W        W54613   8.685  19.724   0.837
95353W        W54614  18.755   4.428   2.202
95354W        W54615  25.142  42.809   0.791
95355W        W54616  18.590   3.384   0.940
95356W        W54617  13.177  19.230  12.953
95357W        W54618  14.312   0.961  10.938
95358W        W54619  12.627  13.203  11.490
95359W        W54620  37.422   8.343  10.404
95360W        W54621  24.505   7.679   0.471
95361W        W54622  33.883   4.864  14.457
95362W        W54623   9.836   4.724  14.794
95363W        W54624  26.068  40.331  14.403
95364W        W54625   2.372  39.875  11.448
95365W        W54626  44.778  43.810  10.415
95366W        W54627  15.210  10.693   2.805
95367W        W54628  29.046  41.862   2.240
95368W        W54629  17.763  27.140  13.946
95369W        W54630  13.118  44.354  10.931
95370W        W54631   7.319  41.372  10.619
95371W        W54632  26.668  14.698  14.011
95372W        W54633  23.621  22.573  10.571
95373W        W54634  37.521  10.749   3.197
95374W        W54635  10.319  23.499   3.785
95375W        W54636  21.725  12.843  13.486
95376W        W54637   0.286  42.929   2.744
95377W        W54638  38.066  13.283   4.301
95378W        W54639   9.809  26.696   0.389
95379W        W54640  31.464  21.739  12.862
95380W        W54641  32.983  32.626  14.472
95381W        W54642  18.061  30.446   2.252
95382W        W54643  18.187  20.146   3.223
95383W        W54644  12.169  33.943  13.018
95384W        W54645  25.094  11.652   2.390
95385W        W54646  32.577   0.762  11.115
95386W        W54647   4.439  15.763   1.212
95387W        W54648  11.272  24.170  12.514
95388W        W54649  34.982  28.497  13.497
95389W        W54650  17.699  10.824   3.362
95390W        W54651  44.470  18.715  12.834
95391W        W54652  22.127  40.986   4.274
95392W        W54653  14.614  14.212  13.469
95393W        W54654   8.299  16.280   3.753
95394W        W54655   8.789   5.710   3.865
95395W        W54656  12.830   6.875  12.930
95396W        W54657  10.772  42.834   4.769
95397W        W54658  24.555  18.571   4.631
95398W        W54659  30.602   7.909   2.230
95399W        W54660  32.102   9.352  11.603
95400W        W54661  24.061   0.822   2.851
95401W        W54662  24.622  13.201  11.487
95402W        W54663  16.221   4.805   0.358
95403W        W54664  15.312  17.660  12.845
95404W        W54665  35.105  40.824   1.366
95405W        W54666  43.988  44.448   2.343
95406W        W54667  18.240  10.190  13.466
95407W        W54668  12.688   3.318   4.687
95408W        W54669  32.113   6.275   3.291
95409W        W54670   7.236  22.702   0.445
95410W        W54671  16.085  40.484  13.048
95411W        W54672  36.415  44.782   0.373
95412W        W54673  36.994  18.726  10.529
95413W        W54674  43.804  43.810   4.664
95414W        W54675  37.866  44.387   2.224
95415W        W54676   1.387  16.222  13.443
95416W        W54677   5.771  31.479   3.379
95417W        W54678   2.356   6.359   4.647
95418W        W54679  21.604  26.542  13.914
95419W        W54680  11.272   9.220  14.340
95420W        W54681  36.463  10.176   2.358
95421W        W54682  26.107   0.284  13.421
95422W        W54683  28.560   8.372  11.969
95423W        W54684  40.376   9.675  13.855
95424W        W54685  17.176  20.156  12.482
95425W        W54686  14.117   3.268  12.026
95426W        W54687  24.069  18.289  13.928
95427W        W54688  42.388  35.462   1.845
95428W        W54689   1.931  19.604  14.893
95429W        W54690  18.766  22.043  13.041
95430W        W54691   0.327   6.744  11.496
95431W        W54692  36.041  21.158   3.160
95432W        W54693  30.599  42.792  11.067
95433W        W54694  23.649  35.067   4.115
95434W        W54695  17.273   9.376   2.414
95435W        W54696  37.933  39.947  11.085
95436W        W54697  12.281  29.039  14.857
95437W        W54698  18.088  23.025  13.033
95438W        W54699   0.270   7.214  11.009
95439W        W54700  25.625  10.292   2.211
95440W        W54701  14.647  35.032  11.451
95441W        W54702   2.883  30.620  13.476
95442W        W54703   0.462  17.302   0.458
95443W        W54704   7.859  41.006  10.887
95444W        W54705   3.830  23.688   3.736
95445W        W54706  18.665  14.180   0.817
95446W        W54707  24.200  23.050   1.333
95447W        W54708   9.207  19.588  13.850
95448W        W54709  10.214   3.830   2.801
95449W        W54710  37.889  18.575  13.002
95450W        W54711  25.655  26.113  13.484
95451W        W54712  10.779   2.922  13.955
95452W        W54713  31.513   6.722  13.064
95453W        W54714  25.137  43.334   3.817
95454W        W54715  41.401   6.188   4.160
95455W        W54716  42.993   2.269   2.270
95456W        W54717   7.766  15.287  12.488
95457W        W54718  31.037  15.127  11.951
95458W        W54719   4.750   5.252   2.209
95459W        W54720  39.917  22.081   3.181
95460W        W54721  16.812   4.330  11.121
95461W        W54722   5.314  24.107   0.873
95462W        W54723   1.321  15.300   1.316
95463W        W54724  18.061  21.512  14.371
95464W        W54725   4.333   3.798   1.231
95465W        W54726   7.391  32.026   3.836
95466W        W54727  13.340   7.197  13.389
95467W        W54728  27.612  10.226   4.638
95468W        W54729  11.177  27.562   0.767
95469W        W54730  24.057   3.911  11.128
95470W        W54731   9.745   0.838  12.531
95471W        W54732  34.493  16.658   0.759
95472W        W54733  15.694  36.461  11.373
95473W        W54734  39.461  11.321  13.323
95474W        W54735  15.750  18.175  12.535
95475W        W54736   5.713  20.136  13.002
95476W        W54737  36.458  11.133  12.844
95477W        W54738  23.147  39.405   2.833
95478W        W54739   1.316  33.951  10.639
95479W        W54740  22.013   1.942   4.340
95480W        W54741   4.897  44.846  13.355
95481W        W54742  28.520  41.827  10.944
95482W        W54743  20.539  29.535  13.900
95483W        W54744  39.882  31.561   2.738
95484W        W54745  29.633  36.429   0.442
95485W        W54746  37.470  44.763  12.370
95486W        W54747   4.709  39.947  13.005
95487W        W54748   9.352   0.864  11.550
95488W        W54749   0.423  14.198   0.459
95489W        W54750  43.807  39.886   1.817
95490W        W54751  23.574  27.654  10.942
95491W        W54752   1.866   2.914  12.891
95492W        W54753  40.378  17.290  12.475
95493W        W54754  17.193   0.332  10.916
95494W        W54755  16.141  18.602   2.194
95495W        W54756  27.598  39.332  13.856
95496W        W54757  24.121  11.775   4.783
95497W        W54758  44.374   0.304  13.008
95498W        W54759  22.114  16.189   4.608
95499W        W54760  21.084  25.026  13.511
95500W        W54761   1.867   0.925  12.479
95501W        W54762  14.614  15.706  13.962
95502W        W54763   9.821  18.143  12.944
95503W        W54764  42.387  27.109   3.771
95504W        W54765  29.652  35.067   2.218
95505W        W54766   1.944  22.237   1.332
95506W        W54767   2.788   4.329  13.827
95507W        W54768  27.482  16.243   2.719
95508W        W54769  39.366  17.304  13.012
95509W        W54770   8.374   9.776   0.284
95510W        W54771  41.043  15.740  14.810
95511W        W54772  10.672  30.545  11.417
95512W        W54773  35.044   4.440   1.227
95513W        W54774  27.191  38.849   1.919
95514W        W54775  14.741  43.384   4.151
95515W        W54776  35.921  12.302  12.049
95516W        W54777  31.045  27.950   0.354
95517W        W54778  44.920  31.640  14.996
95518W        W54779  38.997  20.168   1.815
95519W        W54780  10.373  37.409   3.646
95520W        W54781  23.010  28.172  13.445
95521W        W54782  23.054  12.761   1.795
95522W        W54783   7.708  11.839   3.225
95523W        W54784   6.892  27.183  11.393
95524W        W54785  13.621  36.550  12.363
95525W        W54786  14.695  26.620  13.488
95526W        W54787  44.767  43.855  12.832
95527W        W54788  40.495  14.269  14.303
95528W        W54789  26.972  20.130  13.354
95529W        W54790  21.254  13.229  13.494
95530W        W54791  15.243  36.548  14.458
95531W        W54792  42.312  30.645  14.360
95532W        W54793   2.876   6.873   0.470
95533W        W54794  13.641  40.530  14.312
95534W        W54795  38.910  33.971   2.860
95535W        W54796  31.996  24.715  11.586
95536W        W54797  33.408  43.481   1.824
95537W        W54798  23.109   7.780  14.885
95538W        W54799  26.208  21.721  11.036
95539W        W54800   9.877   5.739  10.093
95540W        W54801  29.999  42.488  13.817
95541W        W54802  27.159  21.076  13.848
95542W        W54803  19.257   4.408  10.964
95543W        W54804  17.080  25.040  10.504
95544W        W54805  21.030  41.794   4.352
95545W        W54806  10.693  38.055  10.582
95546W        W54807  13.216   5.844  10.598
95547W        W54808  33.887  38.821  14.490
95548W        W54809  26.471  13.829  13.037
95549W        W54810  37.441  30.929  11.952
95550W        W54811  22.737  15.789   0.955
95551W        W54812  31.903  15.222  10.597
95552W        W54813  41.967  22.063   4.661
95553W        W54814   4.932  20.164  13.798
95554W        W54815  29.149   5.430   0.469
95555W        W54816  42.507   4.289   4.598
95556W        W54817  26.196  44.922   2.728
95557W        W54818  41.798  34.990   3.215
95558W        W54819  19.152  26.084  13.864
95559W        W54820  22.222  25.997  11.444
95560W        W54821   3.427   7.669  11.010
95561W        W54822  20.542  38.906  14.767
95562W        W54823  26.619  39.816  13.871
95563W        W54824  18.553  39.975  11.082
95564W        W54825  23.009  11.331  10.511
95565W        W54826   6.698  19.767  12.848
95566W        W54827  27.078  13.718  14.913
95567W        W54828  20.158   5.421  10.487
95568W        W54829  34.882   9.884  13.356
95569W        W54830  20.740  11.311   2.775
95570W        W54831  15.809   6.301  14.776
95571W        W54832  21.056  29.011   3.221
95572W        W54833   4.723  38.431   2.208
95573W        W54834   6.343  41.320   5.209
95574W        W54835  32.123  20.230   1.304
95575W        W54836  28.495  39.836  10.916
95576W        W54837  42.310  38.043   2.297
95577W        W54838  36.856  38.532   0.738
95578W        W54839  19.537  29.597   2.353
95579W        W54840   5.779   5.264   2.323
95580W        W54841  18.741  43.305   2.224
95581W        W54842   8.196   7.741   3.736
95582W        W54843  41.529   8.835  11.984
95583W        W54844  16.162  30.600  11.858
95584W        W54845  18.154  14.194   2.879
95585W        W54846  27.652  40.444  12.517
95586W        W54847  31.416  18.723  12.028
95587W        W54848  42.335  38.425   4.293
95588W        W54849  14.718  34.423  10.545
95589W        W54850   3.383  31.057  10.416
95590W        W54851  31.628  39.363   1.911
95591W        W54852  13.192  21.551   3.860
95592W        W54853  18.068  38.888   1.365
95593W        W54854  13.269  15.136  11.856
95594W        W54855  39.881  40.416  12.444
95595W        W54856  33.598  38.962  12.983
95596W        W54857  35.068   4.310  11.582
95597W        W54858  42.824  21.689  10.488
95598W        W54859  19.273  38.528  12.057
95599W        W54860   1.286  27.063  12.486
95600W        W54861   1.907  39.813   1.451
95601W        W54862   3.366  14.159   1.375
95602W        W54863  14.599  35.097   4.165
95603W        W54864  39.357  18.139   5.302
95604W        W54865  43.993  32.546  14.029
95605W        W54866   7.871  23.049  13.895
95606W        W54867  10.284  29.644   2.403
95607W        W54868  21.182  33.555  11.860
95608W        W54869  16.731  30.416  10.494
95609W        W54870  34.477  41.330  11.456
95610W        W54871  25.982  28.487  14.029
95611W        W54872   1.866  36.077  11.499
95612W        W54873   8.835  30.558  10.481
95613W        W54874  25.656  18.087   0.407
95614W        W54875  37.553  25.205   3.788
95615W        W54876   5.255  17.698   4.255
95616W        W54877  42.525  31.481   1.805
95617W        W54878  42.455  24.998   2.889
95618W        W54879  34.545   4.221   2.696
95619W        W54880  26.167  39.353   1.788
95620W        W54881  11.735  23.137   0.352
95621W        W54882  26.103  18.698  13.848
95622W        W54883  16.743  34.569   4.166
95623W        W54884  33.094  17.097  13.888
95624W        W54885  30.980  41.832   4.344
95625W        W54886   1.800  13.302  11.484
95626W        W54887  38.870  14.098   4.695
95627W        W54888  21.032  29.108  14.458
95628W        W54889  37.838  10.757  13.428
95629W        W54890  22.693   3.919  13.868
95630W        W54891  32.522  16.671   2.313
95631W        W54892  34.428   3.345  13.484
95632W        W54893   5.810  12.829   0.905
95633W        W54894  11.157  18.134  11.891
95634W        W54895  26.047  37.518  14.498
95635W        W54896   7.855  35.054  10.639
95636W        W54897  22.589   3.460   2.208
95637W        W54898  11.640   3.287   2.676
95638W        W54899   0.479   7.295   0.251
95639W        W54900  25.981   6.753   4.218
95640W        W54901  23.585  30.420   5.128
95641W        W54902  22.083  34.097   0.359
95642W        W54903   0.450  37.414  14.915
95643W        W54904  33.120  19.561   1.254
95644W        W54905  17.217   2.359   3.858
95645W        W54906  15.107  15.633   3.342
95646W        W54907   7.267  36.514  12.356
95647W        W54908  27.030  28.963   0.330
95648W        W54909  37.855  10.842   0.885
95649W        W54910  28.988  25.539   4.793
95650W        W54911  16.618  25.534  12.387
95651W        W54912  14.830   1.937  14.442
95652W        W54913   4.375   0.901  14.833
95653W        W54914  41.339  14.243   3.161
95654W        W54915   8.172   0.883  10.465
95655W        W54916  14.695   0.913   1.419
95656W        W54917   9.325  23.143   0.736
95657W        W54918  22.575  16.792   4.166
95658W        W54919  34.519  16.757   2.789
95659W        W54920   6.764  34.432  10.982
95660W        W54921  27.123  42.980  11.523
95661W        W54922   6.207   2.902   2.692
95662W        W54923  28.046  21.132   3.832
95663W        W54924  35.048  15.763  13.404
95664W        W54925  10.254  25.091  13.063
95665W        W54926  31.634  12.635  14.380
95666W        W54927  36.509   1.927  10.525
95667W        W54928  34.578  17.644  12.002
95668W        W54929   9.305  16.274   3.681
95669W        W54930  41.007  38.458   4.604
95670W        W54931   7.824  14.666   3.776
95671W        W54932   1.356   0.458  12.345
95672W        W54933  26.067  34.045  12.887
95673W        W54934   1.859  32.107  11.413
95674W        W54935  21.070  19.686  13.313
95675W        W54936   9.369  19.215   3.312
95676W        W54937   3.843  19.556  12.042
95677W        W54938  13.845  37.837   0.348
95678W        W54939  13.314  29.144   0.438
95679W        W54940  39.811  29.949  11.865
95680W        W54941  24.017   6.309  13.402
95681W        W54942  41.520  35.084  14.452
95682W        W54943  19.096  26.184   3.164
95683W        W54944  42.486   9.293  10.524
95684W        W54945  37.457   2.922  14.800
95685W        W54946  16.082  16.103   4.321
95686W        W54947   3.371  12.789  13.455
95687W        W54948  35.079  38.424   4.162
95688W        W54949  21.522  34.484  10.574
95689W        W54950  19.063  23.640   2.281
95690W        W54951   3.926  27.114  11.963
95691W        W54952  31.558  31.023   3.661
95692W        W54953  42.302  15.665   1.800
95693W        W54954  29.957  21.115  12.917
95694W        W54955  14.305  33.054   3.305
95695W        W54956  35.444  10.196   2.194
95696W        W54957   3.900  35.904   0.878
95697W        W54958   6.428  17.714  14.836
95698W        W54959  15.154  17.259  10.924
95699W        W54960  44.483  30.044  13.841
95700W        W54961  27.068  33.567   2.689
95701W        W54962   8.710  33.125   1.761
95702W        W54963  16.685  43.007  10.515
95703W        W54964  33.481  21.549  12.535
95704W        W54965  29.941  38.004  10.887
95705W        W54966  41.297  21.086   0.783
95706W        W54967   2.899  43.963  13.933
95707W        W54968  10.230  12.618  13.902
95708W        W54969  23.088  12.147   2.324
95709W        W54970  37.028  42.793   9.933
95710W        W54971  30.028  14.835  13.397
95711W        W54972  19.594  12.271  13.905
95712W        W54973  39.009  39.924  10.535
95713W        W54974   0.410  35.397  12.882
95714W        W54975  36.356  15.732  13.061
95715W        W54976  12.810  29.617  13.018
95716W        W54977  37.501  41.928   1.379
95717W        W54978   0.920  16.733  11.108
95718W        W54979  27.011  32.979   1.903
95719W        W54980  20.175  35.381   1.412
95720W        W54981  15.635  34.992   4.254
95721W        W54982   8.195   4.312   1.816
95722W        W54983  29.172  12.137   2.681
95723W        W54984  14.268  40.347   0.428
95724W        W54985   0.417  44.798   1.288
95725W        W54986  36.951  40.873   1.855
95726W        W54987  18.089   9.720   3.731
95727W        W54988  16.729  38.967   0.470
95728W        W54989   9.292  36.926   3.383
95729W        W54990  42.860  24.992   4.212
95730W        W54991  10.644  32.135  11.585
95731W        W54992   1.336  42.404  10.553
95732W        W54993  31.010  22.617   1.226
95733W        W54994  40.321  27.163  13.419
95734W        W54995   0.309  18.077  12.094
95735W        W54996  20.089  30.562   5.142
95736W        W54997  16.659   5.740   0.338
95737W        W54998   7.886   0.447  13.006
95738W        W54999   2.379  37.395   0.315
95739W        W55000  41.437  23.637   4.227
95740W        W55001  31.012  33.950   4.251
95741W        W55002  30.954   9.785  14.486
95742W        W55003   8.308  37.852   2.786
95743W        W55004  19.650  39.456   2.327
95744W        W55005  33.592  10.641   1.407
95745W        W55006  33.120   1.473  13.926
95746W        W55007  11.166  16.091  11.889
95747W        W55008  31.064  25.613  10.440
95748W        W55009  15.136   5.268  14.804
95749W        W55010   4.868  11.646   0.765
95750W        W55011   1.748  31.151  14.930
95751W        W55012  13.131  13.183  14.931
95752W        W55013   3.235   0.981  11.558
95753W        W55014   7.670   9.167   2.399
95754W        W55015  13.604  26.202   2.664
95755W        W55016   0.447   9.185  14.990
95756W        W55017  35.016  26.462  11.405
95757W        W55018  15.118  40.901   1.428
95758W        W55019   1.790  13.148   2.694
95759W        W55020  16.807  42.891  13.514
95760W        W55021   9.296   4.764  11.566
95761W        W55022  14.607  36.007  14.327
95762W        W55023   3.384   5.422  10.899
95763W        W55024  17.577  18.159   2.273
95764W        W55025  37.547   9.806  13.922
95765W        W55026   9.376   8.842  12.060
95766W        W55027   1.790   6.916  14.427
95767W        W55028  39.316  11.200   4.813
95768W        W55029  40.042   7.367  11.048
95769W        W55030  15.089  12.656  13.011
95770W        W55031  27.958  29.120   0.353
95771W        W55032  31.975  16.251   3.299
95772W        W55033  27.614  12.309   3.151
95773W        W55034   4.316  17.662  11.529
95774W        W55035   9.885   5.219   2.875
95775W        W55036  36.442  19.098   4.676
95776W        W55037   3.836   1.742   3.215
95777W        W55038   7.381   7.353  12.995
95778W        W55039  26.013  42.388  12.388
95779W        W55040  16.113  27.517   2.717
95780W        W55041  17.157  32.936  13.028
95781W        W55042  34.527   4.751  14.307
95782W        W55043   7.243   3.426   2.676
95783W        W55044  26.099  44.338  11.450
95784W        W55045  33.590  39.030   3.787
95785W        W55046  15.110  37.541   1.288
95786W        W55047  33.467  17.561   2.211
95787W        W55048  41.401  39.937   0.458
95788W        W55049  32.519   5.838   2.246
95789W        W55050  27.120   1.785  14.787
95790W        W55051  26.693  36.001  13.931
95791W        W55052  44.346  14.602   2.189
95792W        W55053  11.230  26.459  11.612
95793W        W55054   1.475  31.591   2.229
95794W        W55055  25.623  11.728  14.358
95795W        W55056  14.190  27.012   0.341
95796W        W55057  22.675  15.167  13.798
95797W        W55058  26.046  35.067  13.310
95798W        W55059  29.136   1.406   0.302
95799W        W55060  31.512  35.051  14.961
95800W        W55061  29.162  31.442   2.694
95801W        W55062  16.630  26.058  13.370
95802W        W55063  42.470  38.012  11.507
95803W        W55064   5.692  21.089  11.972
95804W        W55065  34.536  38.963   0.754
95805W        W55066  10.646   6.916  14.969
95806W        W55067  26.992  33.531  14.987
95807W        W55068   8.174  19.643   1.704
95808W        W55069   5.716  37.409   2.251
95809W        W55070  20.630  42.313  13.899
95810W        W55071  23.706  11.304  12.435
95811W        W55072  24.643   6.744   1.375
95812W        W55073  16.576  39.838   0.889
95813W        W55074  28.154  23.122   3.267
95814W        W55075  43.798  26.629  12.430
95815W        W55076   7.666  16.571  10.134
95816W        W55077  24.167  10.743  14.850
95817W        W55078   8.697  23.711   4.707
95818W        W55079  39.542  34.089  12.479
95819W        W55080  31.938   4.416  12.054
95820W        W55081  24.479  19.543   0.373
95821W        W55082  26.014  34.613   4.632
95822W        W55083   8.898  11.301  11.537
95823W        W55084  15.651  15.638   0.344
95824W        W55085  19.776  30.431   4.326
95825W        W55086  29.620  22.214  10.577
95826W        W55087  29.530  41.370   5.120
95827W        W55088  36.972  38.418  14.901
95828W        W55089   2.944  32.414   2.296
95829W        W55090  10.205  39.996  13.856
95830W        W55091  12.627  24.212   2.364
95831W        W55092  34.927  43.956  12.049
95832W        W55093  32.394  21.086   2.860
95833W        W55094  16.274  18.744  12.057
95834W        W55095   4.232  10.819   3.384
95835W        W55096  20.737  27.147   3.812
95836W        W55097  43.965  36.384  10.913
95837W        W55098  32.635  41.835  13.447
95838W        W55099   2.463   1.971   1.854
95839W        W55100   4.299  29.579   2.852
95840W        W55101  27.542  23.729  11.405
95841W        W55102  37.524  35.579   4.746
95842W        W55103   0.334  33.960  11.068
95843W        W55104   5.283  21.754   1.292
95844W        W55105   5.889  19.099   3.341
95845W        W55106   3.232   0.830  10.524
95846W        W55107  25.595  37.838  13.359
95847W        W55108  10.179  40.404   0.475
95848W        W55109  29.975  12.232  13.008
95849W        W55110  10.650  29.103   4.344
95850W        W55111  28.128  37.384   4.244
95851W        W55112  35.000  44.418  14.435
95852W        W55113  23.546  16.305  10.431
95853W        W55114  35.025   9.394  13.839
95854W        W55115  11.173  41.340  10.895
95855W        W55116  25.640  27.019  14.474
95856W        W55117  42.517  23.540   1.276
95857W        W55118  29.584  26.656  13.806
95858W        W55119  13.323  11.282   0.840
95859W        W55120  23.586  35.988  13.313
95860W        W55121  44.288   5.228   2.855
95861W        W55122  33.037  25.203  12.084
95862W        W55123  27.114  19.614   5.177
95863W        W55124  32.119  28.992   3.753
95864W        W55125  22.623  22.203   2.208
95865W        W55126  37.371   2.305  14.513
95866W        W55127  30.607  37.418   2.183
95867W        W55128  28.472  44.945  12.895
95868W        W55129  44.968  21.562   3.174
95869W        W55130   7.809  35.980  10.114
95870W        W55131   1.466  18.181  11.902
95871W        W55132   7.413  16.079  10.546
95872W        W55133  41.394  43.847   3.160
95873W        W55134  30.950   6.325   4.135
95874W        W55135  21.650  37.074  13.806
95875W        W55136  42.394  29.490  13.043
95876W        W55137  36.939  41.989   1.350
95877W        W55138  18.623  28.107   0.798
95878W        W55139  22.711  36.063  10.518
95879W        W55140   9.237  33.495  12.543
95880W        W55141  14.135  38.972   3.644
95881W        W55142   5.723  25.543   0.297
95882W        W55143  44.964  15.154  14.974
95883W        W55144  36.456  15.314   1.871
95884W        W55145   6.843  32.417   0.359
95885W        W55146  23.072   1.268  14.777
95886W        W55147  29.623  42.527   1.341
95887W        W55148   5.792  41.987  10.941
95888W        W55149   6.882  20.162  13.531
95889W        W55150  10.862  37.373  11.901
95890W        W55151  22.217  17.196   0.929
95891W        W55152  38.410  26.520  14.802
95892W        W55153  36.989   2.907  14.809
95893W        W55154  24.591  14.322   4.794
95894W        W55155  35.568  28.166  14.358
95895W        W55156  20.053  37.923  11.506
95896W        W55157  18.563   9.757  14.808
95897W        W55158  32.076  17.158   4.715
95898W        W55159  32.424  15.252  14.823
95899W        W55160  44.793  13.233   0.831
95900W        W55161  35.051   3.444   2.351
95901W        W55162  40.807  32.043   1.911
95902W        W55163   8.338   7.398  13.858
95903W        W55164  26.490  29.056   4.193
95904W        W55165  27.549   0.457   4.229
95905W        W55166  17.690  34.530  12.974
95906W        W55167  10.382   5.414   4.816
95907W        W55168  33.036  12.835   2.791
95908W        W55169  38.419  37.564   0.786
95909W        W55170  11.770  33.930   2.207
95910W        W55171  12.141  35.466   3.287
95911W        W55172   9.282  44.920   3.179
95912W        W55173  35.883  23.689   3.675
95913W        W55174  33.626  39.530   2.894
95914W        W55175   0.371  12.188  11.075
95915W        W55176  32.098   9.846   4.178
95916W        W55177  22.678  30.649   4.685
95917W        W55178   7.382  33.514  12.035
95918W        W55179  43.840  35.022  14.328
95919W        W55180  31.487  32.974  11.505
95920W        W55181  29.588  43.281  11.975
95921W        W55182  14.214  26.064  11.596
95922W        W55183   9.861  12.709   2.823
95923W        W55184  44.800  41.914   4.298
95924W        W55185  34.896  20.766  10.896
95925W        W55186  14.119   8.257   9.663
95926W        W55187   5.291  33.909   1.331
95927W        W55188  16.113  20.237  11.498
95928W        W55189  38.054  24.630  12.039
95929W        W55190  44.464  12.691  11.977
95930W        W55191  43.323  10.852   3.749
95931W        W55192  29.034  18.567  10.901
95932W        W55193   6.722  17.114  10.899
95933W        W55194   8.699  12.728   3.247
95934W        W55195  19.089  22.061   1.212
95935W        W55196   6.783   0.947   4.673
95936W        W55197   9.823  42.360   4.598
95937W        W55198  42.779  21.719  14.980
95938W        W55199  15.591  29.636   3.222
95939W        W55200  33.556  14.664  14.823
95940W        W55201   2.470  20.205   0.897
95941W        W55202   8.226  13.220   4.309
95942W        W55203   6.336  29.565  12.511
95943W        W55204  39.879  27.151   2.691
95944W        W55205  31.426  17.240  11.063
95945W        W55206  16.249  28.654  13.471
95946W        W55207  17.764  32.109   0.919
95947W        W55208  36.911  14.171  13.805
95948W        W55209  31.088  44.388   4.306
95949W        W55210  17.677   7.396  14.507
95950W        W55211  19.559  27.651   1.330
95951W        W55212  22.681  28.623  14.274
95952W        W55213   6.203  35.555   1.808
95953W        W55214   3.215  40.547   2.855
95954W        W55215  17.556   8.689   5.112
95955W        W55216   2.463  30.432  13.413
95956W        W55217  18.099  43.291   1.429
95957W        W55218  17.069  19.157   2.892
95958W        W55219  17.229  31.616  13.473
95959W        W55220  15.740  28.604   3.313
95960W        W55221  22.743  32.582  10.483
95961W        W55222  14.102  31.094  12.984
95962W        W55223  27.135  21.035  14.449
95963W        W55224  25.091   0.252   1.784
95964W        W55225   0.262  26.112  13.992
95965W        W55226  19.658   2.403  12.438
95966W        W55227   3.776  40.044   0.467
95967W        W55228  36.366  31.598   0.462
95968W        W55229  35.871   5.846   0.359
95969W        W55230  25.968  36.892  10.931
95970W        W55231  40.374  18.741  12.953
95971W        W55232  37.935  41.932  13.397
95972W        W55233   9.205  27.189  14.984
95973W        W55234   0.445   0.370   4.148
95974W        W55235  43.837   5.708   3.677
95975W        W55236  33.077   9.367   2.772
95976W        W55237  38.960  16.153   2.187
95977W        W55238  44.303   4.912  10.515
95978W        W55239  42.467  14.736  10.968
95979W        W55240  12.695  38.854  13.827
95980W        W55241  32.418  40.952   4.633
95981W        W55242  39.960  19.758  14.768
95982W        W55243  15.639   9.689   0.822
95983W        W55244  39.560  19.767  12.900
95984W        W55245  12.207  34.575  13.519
95985W        W55246  37.445  34.547   3.721
95986W        W55247  20.576  19.635  13.852
95987W        W55248  22.133  33.539   2.815
95988W        W55249  33.909  24.066   3.303
95989W        W55250   8.402  20.126   1.358
95990W        W55251   9.363  37.079  14.425
95991W        W55252  41.800  30.111  10.569
95992W        W55253  32.020   4.408   0.459
95993W        W55254  17.773  20.622  10.978
95994W        W55255   5.846  25.995   1.791
95995W        W55256  32.530  38.405  10.607
95996W        W55257  39.366   9.336  10.953
95997W        W55258  15.168  31.474  14.281
95998W        W55259  24.130  38.518   3.762
95999W        W55260  33.876  42.951   4.135
96000W        W55261  22.561  27.977   0.944
96001W        W55262  22.585  34.470  12.860
96002W        W55263   0.288  36.373  14.888
96003W        W55264   2.310  39.463  11.577
96004W        W55265   8.701   8.171  13.837
96005W        W55266  11.700   0.457  11.403
96006W        W55267   3.868  26.004  14.810
96007W        W55268  30.444   8.179  13.331
96008W        W55269  21.250  32.098  10.523
96009W        W55270  38.838  39.387   1.925
96010W        W55271  22.063  28.987   2.357
96011W        W55272  42.302  29.621  11.968
96012W        W55273  30.558  28.518   3.159
96013W        W55274  33.413  38.470   0.418
96014W        W55275  23.043  35.942  14.337
96015W        W55276  34.403   5.887  13.934
96016W        W55277   2.335  36.057   2.772
96017W        W55278  38.504   5.718  14.307
96018W        W55279  34.573  20.054   4.708
96019W        W55280   6.733  43.843  11.918
96020W        W55281   0.941  20.168   2.256
96021W        W55282  27.520  14.677   4.650
96022W        W55283  31.591  16.619  12.016
96023W        W55284  36.458   8.324   2.214
96024W        W55285   0.475   9.678  12.434
96025W        W55286  30.655   9.385   1.418
96026W        W55287  44.882  22.008   2.704
96027W        W55288  30.648  17.293  12.011
96028W        W55289  30.527  11.655  12.070
96029W        W55290  24.137  32.512   4.729
96030W        W55291   5.915   6.900  14.940
96031W        W55292  13.273  24.134   1.448
96032W        W55293  35.404  34.445  11.927
96033W        W55294  18.654  21.185   2.241
96034W        W55295  28.488   2.339   3.208
96035W        W55296  32.499  13.789  10.590
96036W        W55297   0.964  28.591  11.466
96037W        W55298   3.855  27.009  14.422
96038W        W55299  36.037  22.015   3.635
96039W        W55300  14.608   4.889   1.360
96040W        W55301  41.437   4.842  13.508
96041W        W55302  18.114  34.885  11.084
96042W        W55303  35.066   0.392  10.897
96043W        W55304  20.647   2.264  12.953
96044W        W55305   6.199  31.525   1.765
96045W        W55306  31.979  33.576  14.941
96046W        W55307  40.011  18.745  10.568
96047W        W55308   4.881  25.163   4.735
96048W        W55309  10.857  38.541  12.841
96049W        W55310  42.985  31.613   0.389
96050W        W55311  13.764  12.654  13.805
96051W        W55312   2.262  11.259  12.004
96052W        W55313  25.058  19.281  14.763
96053W        W55314  40.918  22.064  10.487
96054W        W55315  15.188  10.198  11.408
96055W        W55316  26.463  30.651  13.364
96056W        W55317  32.984  25.066   5.207
96057W        W55318  24.164  10.693   0.796
96058W        W55319   3.757  11.295   1.449
96059W        W55320   2.461  42.945   1.903
96060W        W55321  27.654  43.325  14.895
96061W        W55322   7.853  41.508   4.634
96062W        W55323   7.253   7.299   5.101
96063W        W55324   5.394  34.591  11.944
96064W        W55325  39.043  29.495   4.775
96065W        W55326  35.509  40.986  10.497
96066W        W55327  36.851  37.932   2.418
96067W        W55328  24.078  24.513  13.001
96068W        W55329   4.773   6.761   9.439
96069W        W55330  37.031  14.641   0.812
96070W        W55331  15.112   7.730  13.517
96071W        W55332  28.628  18.151   2.816
96072W        W55333  36.920  19.168   2.183
96073W        W55334  31.953  25.210   1.415
96074W        W55335   1.241  19.065  13.346
96075W        W55336  27.612  22.183   2.842
96076W        W55337   6.312  18.249  10.997
96077W        W55338  41.519  14.261   1.934
96078W        W55339  27.018  29.450  10.150
96079W        W55340  30.929   9.674   3.218
96080W        W55341  27.049  12.690  13.007
96081W        W55342   8.888  39.369  13.514
96082W        W55343  10.178  41.342   5.263
96083W        W55344  22.669  43.411  14.878
96084W        W55345  28.464  15.161   1.398
96085W        W55346   8.402  23.087   4.804
96086W        W55347  21.142  25.021  11.575
96087W        W55348  18.593  23.599   4.613
96088W        W55349  25.171   3.268  12.556
96089W        W55350  37.069  32.509  12.533
96090W        W55351  16.222   6.345  13.314
96091W        W55352  15.797   6.707   1.380
96092W        W55353  38.836  16.317   0.416
96093W        W55354  10.759  20.690  12.006
96094W        W55355  12.187   6.698  12.378
96095W        W55356   9.658  14.663  14.964
96096W        W55357  10.373   8.896   4.301
96097W        W55358  41.937  32.529   4.655
96098W        W55359   0.408  30.156  11.990
96099W        W55360  36.528  17.099  10.494
96100W        W55361  20.707  35.861  10.905
96101W        W55362  19.657  37.069  10.543
96102W        W55363  26.596  44.992   1.256
96103W        W55364  33.089  16.717   4.610
96104W        W55365  32.526  22.124   1.767
96105W        W55366   4.231  27.988  10.571
96106W        W55367  10.792   5.313   0.859
96107W        W55368  37.015  42.916  11.595
96108W        W55369  19.743   4.882  11.956
96109W        W55370  22.746  29.044   1.746
96110W        W55371   2.751  40.438  14.433
96111W        W55372   0.899  41.448  10.970
96112W        W55373  39.994   5.797   4.831
96113W        W55374  22.740  35.958  11.057
96114W        W55375  28.062   2.315  14.968
96115W        W55376  20.611  13.333  12.494
96116W        W55377  18.176  30.433  12.473
96117W        W55378   9.650  15.592   1.768
96118W        W55379   5.794   7.302   2.680
96119W        W55380  17.106  17.187  10.991
96120W        W55381  37.470  38.025  11.079
96121W        W55382  16.073  10.219  14.502
96122W        W55383   8.361  31.056   1.365
96123W        W55384  16.128  38.478   2.805
96124W        W55385  16.139  16.768  12.907
96125W        W55386  19.232  42.522  14.458
96126W        W55387  16.792  14.309   0.877
96127W        W55388  37.365  42.793  13.512
96128W        W55389   6.897  26.096  14.402
96129W        W55390  38.391  25.505   5.199
96130W        W55391  11.243  22.197  10.459
96131W        W55392  43.294  19.609  12.502
96132W        W55393  32.523  24.622  11.907
96133W        W55394  37.420  39.375   2.743
96134W        W55395  20.571  40.986   4.328
96135W        W55396  35.527   0.288  11.926
96136W        W55397  44.982  11.203   1.726
96137W        W55398   6.879  37.382   4.646
96138W        W55399  31.505  36.853  13.918
96139W        W55400  43.364  10.807   0.322
96140W        W55401  18.721  43.347  13.847
96141W        W55402  36.847  43.765   0.867
96142W        W55403  44.786  12.133  13.410
96143W        W55404  39.910  18.135  11.951
96144W        W55405  11.265  28.052  11.028
96145W        W55406  44.491  31.054   2.323
96146W        W55407   3.459  26.603  12.042
96147W        W55408  12.636   1.805   3.729
96148W        W55409  31.107  25.573  11.931
96149W        W55410   3.368  15.623  10.451
96150W        W55411  27.080  30.538   0.898
96151W        W55412  39.473  10.867   0.452
96152W        W55413  23.517  44.803  12.580
96153W        W55414   9.334  42.995  13.310
96154W        W55415  17.255  24.092  13.958
96155W        W55416   0.287   6.263   1.919
96156W        W55417   9.776  10.727  10.424
96157W        W55418   5.786  27.597   3.372
96158W        W55419  33.455   1.257   4.336
96159W        W55420  43.862   8.854   3.234
96160W        W55421   1.416  34.891  11.975
96161W        W55422  27.069  21.718  10.912
96162W        W55423  43.793  18.119   3.149
96163W        W55424  38.475  13.263   0.344
96164W        W55425  43.489  30.652   2.879
96165W        W55426  39.066   2.422  13.381
96166W        W55427   1.796  44.911  12.969
96167W        W55428  21.631  11.337  11.099
96168W        W55429  40.805  43.849  11.050
96169W        W55430  28.033   8.285  10.569
96170W        W55431  12.611  33.924   0.846
96171W        W55432  38.025  38.509  14.825
96172W        W55433  19.684  32.546  10.536
96173W        W55434  37.864  26.637  10.437
96174W        W55435  17.669   8.259  10.616
96175W        W55436  40.880  16.259   3.375
96176W        W55437  30.933   6.726   2.716
96177W        W55438  26.985  30.554  12.407
96178W        W55439   8.826  29.483  12.035
96179W        W55440  37.440  38.921  14.765
96180W        W55441  17.079  43.821  14.948
96181W        W55442  28.022   6.303   1.411
96182W        W55443   1.827  27.620   0.914
96183W        W55444   8.247   2.888   2.409
96184W        W55445  37.372  44.316   0.749
96185W        W55446   5.368  40.470   4.749
96186W        W55447  42.472  34.433  13.928
96187W        W55448  37.955  13.749  10.409
96188W        W55449  15.238   7.712  14.280
96189W        W55450  38.072  22.112   1.774
96190W        W55451  36.934  12.739  13.465
96191W        W55452   1.329   8.358   3.643
96192W        W55453   6.853  28.178  10.469
96193W        W55454  36.037  42.345  14.372
96194W        W55455  31.904  29.640   5.223
96195W        W55456  18.620  29.602  13.932
96196W        W55457  11.182  19.257  14.859
96197W        W55458  17.286  22.220   3.330
96198W        W55459  37.542  37.915  12.515
96199W        W55460  13.623  28.060   2.858
96200W        W55461   5.417  42.994   4.719
96201W        W55462  32.038  30.151  14.339
96202W        W55463   8.344  11.853   4.827
96203W        W55464  16.178  23.097  14.449
96204W        W55465   3.848  36.347  13.402
96205W        W55466   1.906  20.062  14.929
96206W        W55467   8.717   2.870  12.898
96207W        W55468  13.840  35.000   2.802
96208W        W55469  16.205  44.505   2.684
96209W        W55470  24.066  43.339  11.473
96210W        W55471  20.686  18.695  13.046
96211W        W55472   9.348   4.388   4.174
96212W        W55473  20.610   0.313  11.084
96213W        W55474  19.558  24.724  12.477
96214W        W55475   7.327  16.770   4.314
96215W        W55476  31.595  35.909   3.305
96216W        W55477   6.902  20.666   4.716
96217W        W55478  40.376  31.108  14.886
96218W        W55479   9.243  15.720  13.355
96219W        W55480  23.642   9.366   2.840
96220W        W55481  43.906  24.489   9.458
96221W        W55482   7.732  44.397   3.199
96222W        W55483   8.762  34.567  11.600
96223W        W55484  42.421  39.382  14.019
96224W        W55485  41.946  15.176   5.162
96225W        W55486  29.631  15.088   3.768
96226W        W55487  22.017   4.758  13.872
96227W        W55488  11.807   7.306  11.902
96228W        W55489  15.277  21.538   2.335
96229W        W55490  37.550  25.967  10.900
96230W        W55491  40.866  20.104  12.546
96231W        W55492  32.495  31.933   9.977
96232W        W55493   8.885  18.145  12.870
96233W        W55494  39.392  40.011  14.321
96234W        W55495  27.155  24.724  13.801
96235W        W55496  43.908  21.110   0.395
96236W        W55497  41.838  38.556   3.716
96237W        W55498  14.617  22.187  11.077
96238W        W55499   5.311  44.475  11.516
96239W        W55500  41.411   2.472   2.845
96240W        W55501  12.301   3.836  12.356
96241W        W55502  41.513  29.103   4.785
96242W        W55503  39.454  16.581   1.359
96243W        W55504  30.424  33.019  12.571
96244W        W55505  19.699  23.614  11.416
96245W        W55506  35.395   7.882  13.831
96246W        W55507  26.679  38.333  14.375
96247W        W55508  16.785  40.431  13.447
96248W        W55509  39.415  29.445   0.321
96249W        W55510  22.050  18.285   3.337
96250W        W55511   6.706  19.745   1.810
96251W        W55512  35.578  27.193  12.044
96252W        W55513  39.378   9.764  11.587
96253W        W55514  29.055  27.465  11.074
96254W        W55515  22.138  44.797  11.586
96255W        W55516  16.628  29.006   5.643
96256W        W55517   9.217  32.973  10.549
96257W        W55518  33.924   9.749   0.399
96258W        W55519  23.705   9.768   2.802
96259W        W55520   6.339  14.830  11.883
96260W        W55521  22.164  35.877   1.764
96261W        W55522  31.565  14.219   2.755
96262W        W55523  26.962  11.667  11.389
96263W        W55524  39.864   3.365   3.291
96264W        W55525  11.634  41.810  11.874
96265W        W55526   1.926   5.354   1.736
96266W        W55527  35.896  11.356   5.622
96267W        W55528  30.581  16.703   2.719
96268W        W55529  33.119  38.979   1.803
96269W        W55530  24.684   1.436   4.228
96270W        W55531  15.780  16.161   1.221
96271W        W55532  33.951  38.485   2.753
96272W        W55533  31.941   2.931   3.346
96273W        W55534  41.893  36.988  11.466
96274W        W55535  11.813   4.338   4.142
96275W        W55536  12.803  36.440  13.477
96276W        W55537  12.779  24.687  10.916
96277W        W55538  24.678  35.421  14.406
96278W        W55539  41.473   0.450  14.395
96279W        W55540  44.858   2.964  13.927
96280W        W55541  28.035  29.655   3.768
96281W        W55542  27.056  13.350   4.769
96282W        W55543   5.928  33.120  12.831
96283W        W55544  17.631  39.998  10.617
96284W        W55545  34.023   1.409   3.684
96285W        W55546   8.884  13.230   3.766
96286W        W55547   0.911   9.715  10.057
96287W        W55548  41.935   3.923  14.031
96288W        W55549  20.241  30.630  10.449
96289W        W55550  27.452  16.600   0.366
96290W        W55551   3.830  24.002  14.285
96291W        W55552  33.042  32.006   4.319
96292W        W55553  32.997  31.065  14.003
96293W        W55554  19.175   9.797   1.830
96294W        W55555   3.443  34.917  13.335
96295W        W55556  14.706  31.060   2.668
96296W        W55557  30.470  38.492  10.449
96297W        W55558  34.006   5.738  14.504
96298W        W55559  12.693  37.053   3.319
96299W        W55560   9.264  32.455   3.170
96300W        W55561  24.980  43.888   3.349
96301W        W55562  44.495  33.091   3.756
96302W        W55563  20.198  41.894   2.185
96303W        W55564  37.490   3.219  12.096
96304W        W55565  10.662  27.564   1.365
96305W        W55566  11.653  27.954  13.980
96306W        W55567  44.320   9.885  12.409
96307W        W55568   7.690  32.625   1.875
96308W        W55569  27.476  15.748  12.398
96309W        W55570  15.099  43.351  11.006
96310W        W55571  15.215  28.602  13.988
96311W        W55572  20.246   6.907  12.088
96312W        W55573  22.721  21.590   2.893
96313W        W55574  36.355   0.403   0.278
96314W        W55575  16.227  32.124  11.935
96315W        W55576   6.411   1.930  14.915
96316W        W55577  29.442  16.129   3.291
96317W        W55578  11.270  31.536   1.378
96318W        W55579   5.718  10.851   3.343
96319W        W55580  27.075  31.932  11.997
96320W        W55581  36.569  21.093  11.972
96321W        W55582   3.351  21.213   3.252
96322W        W55583  35.494   1.911  14.349
96323W        W55584  19.167  25.083  14.278
96324W        W55585  41.862  20.725   1.897
96325W        W55586  29.958  34.973  12.866
96326W        W55587  30.648  21.710   3.777
96327W        W55588  31.473  25.179   1.223
96328W        W55589  36.011  10.216   2.798
96329W        W55590  21.037   3.452  12.405
96330W        W55591  12.707  44.399  10.929
96331W        W55592  28.008  11.690  10.526
96332W        W55593  16.715  10.684   2.682
96333W        W55594  13.646  44.488  14.480
96334W        W55595  20.657  33.598   1.248
96335W        W55596   1.930   8.227  11.028
96336W        W55597  35.940   7.393  13.930
96337W        W55598  33.617   4.269   4.676
96338W        W55599  23.099  17.088  11.495
96339W        W55600  42.901  19.665  10.601
96340W        W55601  11.275  31.149   4.819
96341W        W55602  41.798   0.962   4.758
96342W        W55603  35.011  35.486  12.404
96343W        W55604  13.243  21.081  10.590
96344W        W55605  37.902   5.381  12.457
96345W        W55606  21.530  18.174  12.504
96346W        W55607  43.888  39.851   0.360
96347W        W55608   0.424  27.614  14.394
96348W        W55609  41.961   2.960  13.837
96349W        W55610   2.861  39.048   4.170
96350W        W55611  12.296  10.198  13.523
96351W        W55612  11.717  22.127   4.127
96352W        W55613  26.158  37.051  12.013
96353W        W55614  29.118  32.531  13.857
96354W        W55615  18.742  34.498   2.341
96355W        W55616  15.604   5.743   3.324
96356W        W55617  36.393   2.778   2.331
96357W        W55618   5.393  10.641   1.340
96358W        W55619  31.088  34.055  14.793
96359W        W55620   0.892   3.798  13.311
96360W        W55621  41.006  21.562   3.704
96361W        W55622   2.305  34.098  11.542
96362W        W55623  33.929   9.226   2.327
96363W        W55624  22.246  19.780   1.241
96364W        W55625   9.673  12.356  12.044
96365W        W55626  41.523  44.393   3.652
96366W        W55627  24.559  12.749   4.128
96367W        W55628  41.375   8.313  12.421
96368W        W55629  12.787   4.833  12.838
96369W        W55630   8.177  14.703   4.663
96370W        W55631  11.163  22.657   1.764
96371W        W55632   4.362  44.307  12.515
96372W        W55633   9.232  26.085   1.274
96373W        W55634  20.647  22.083   4.758
96374W        W55635  16.301   1.957  12.060
96375W        W55636  43.319   4.845  12.888
96376W        W55637   8.849   0.787   1.345
96377W        W55638  40.362  33.426  12.460
96378W        W55639  38.502  27.011   0.891
96379W        W55640  26.549  22.695   0.274
96380W        W55641  25.581  13.275   2.248
96381W        W55642  21.199  24.974  11.988
96382W        W55643  23.135  15.216  14.826
96383W        W55644   1.362  20.582   3.195
96384W        W55645  20.620  25.080   0.399
96385W        W55646  32.581  25.151   3.640
96386W        W55647  15.643   1.246  13.333
96387W        W55648  23.028  29.459   0.854
96388W        W55649  14.798  12.215   4.776
96389W        W55650  35.102  44.336   4.281
96390W        W55651  30.953   9.344   2.260
96391W        W55652  22.043  41.531   4.320
96392W        W55653  30.470  42.879   4.806
96393W        W55654  33.039  27.162   0.441
96394W        W55655  30.057  32.602   0.916
96395W        W55656  13.123  35.067   0.903
96396W        W55657   1.351  30.032   4.117
96397W        W55658  40.860  16.093   9.500
96398W        W55659  28.092  43.395   4.661
96399W        W55660  33.938  35.551  11.544
96400W        W55661  34.577  32.104   3.362
96401W        W55662  15.213  34.055   2.890
96402W        W55663   0.809   0.761   5.320
96403W        W55664   3.346  42.937  13.524
96404W        W55665  33.017  34.902   1.235
96405W        W55666  33.430  35.938  12.554
96406W        W55667  29.096  28.654  11.463
96407W        W55668  20.249  26.629  14.769
96408W        W55669   2.348   3.395   2.797
96409W        W55670  23.217  19.279   4.603
96410W        W55671  25.476   2.843  10.497
96411W        W55672  27.980  37.902  11.020
96412W        W55673   3.409   5.322   2.402
96413W        W55674   0.322   7.186   1.418
96414W        W55675   2.886  30.440  10.557
96415W        W55676   5.438  11.825  13.316
96416W        W55677  20.731   9.855  10.535
96417W        W55678  25.972  28.446  13.504
96418W        W55679  44.489  21.516  12.854
96419W        W55680   4.292  26.198  13.958
96420W        W55681  13.840  42.882   2.181
96421W        W55682  16.285  33.980  14.791
96422W        W55683  15.614  35.481   4.624
96423W        W55684   8.277  40.911  12.079
96424W        W55685   5.411   1.406   0.466
96425W        W55686  33.410  40.356  13.901
96426W        W55687   0.858  23.491   4.811
96427W        W55688  18.738  27.965   3.684
96428W        W55689   5.394  10.668  14.337
96429W        W55690  42.454  41.375  12.538
96430W        W55691  27.661  39.053   0.837
96431W        W55692  25.639   3.448  12.927
96432W        W55693  24.187   5.239   1.277
96433W        W55694  44.834  17.712   9.671
96434W        W55695  36.374  29.923  12.038
96435W        W55696  21.183  17.718   1.343
96436W        W55697   4.806  20.748  11.033
96437W        W55698  30.070  18.286   1.233
96438W        W55699   7.268  28.141   4.694
96439W        W55700   8.224  41.399  13.372
96440W        W55701  23.043   4.788   3.191
96441W        W55702  28.648   6.309  10.482
96442W        W55703  44.434  16.109   3.254
96443W        W55704   3.260  44.297  12.371
96444W        W55705  13.628  44.425   2.407
96445W        W55706  14.113  13.842   0.750
96446W        W55707   0.785  21.685   1.915
96447W        W55708  25.469  42.929   2.827
96448W        W55709  15.182  32.412  11.915
96449W        W55710   6.259  41.306  10.618
96450W        W55711  44.763  33.402   1.249
96451W        W55712  43.809  28.093   4.194
96452W        W55713   3.795  38.878   9.966
96453W        W55714  43.279  39.436  11.552
96454W        W55715  14.734  23.196  14.364
96455W        W55716   0.403  18.655  10.485
96456W        W55717  29.953  15.711  14.840
96457W        W55718  42.929  26.638   1.412
96458W        W55719  40.992  26.981   0.259
96459W        W55720  18.171  25.563   2.193
96460W        W55721  23.030   7.396  12.873
96461W        W55722   0.342  25.075   2.409
96462W        W55723   6.203  36.887  12.457
96463W        W55724  29.920  30.135  13.959
96464W        W55725  24.145  15.319  14.769
96465W        W55726  21.673  28.975  10.619
96466W        W55727  28.565  41.398  11.451
96467W        W55728  34.030  27.953   0.421
96468W        W55729  13.786  29.615   0.309
96469W        W55730  39.920  32.550   3.783
96470W        W55731   5.426  16.675   0.256
96471W        W55732   4.418  25.007  12.399
96472W        W55733  31.589   5.407  12.011
96473W        W55734  10.836  26.459  10.889
96474W        W55735  33.032  29.003   0.345
96475W        W55736  34.577  17.766   1.308
96476W        W55737   2.277   8.874   5.108
96477W        W55738  20.618  27.039   1.861
96478W        W55739  32.611  15.115  12.349
96479W        W55740   2.322   6.285  14.515
96480W        W55741  20.097   9.374  14.284
96481W        W55742   3.945  10.300   0.840
96482W        W55743  12.853  42.012  14.339
96483W        W55744  16.266  21.618  12.885
96484W        W55745  35.889  43.859  12.048
96485W        W55746  42.430  33.508   4.220
96486W        W55747  34.988  26.139  12.514
96487W        W55748  35.378  14.302   0.944
96488W        W55749  25.000  26.610   0.784
96489W        W55750   5.852  21.144   0.249
96490W        W55751   0.750  22.591   1.873
96491W        W55752   2.227  15.661   4.199
96492W        W55753  41.303   5.772   0.291
96493W        W55754   3.310  13.131   3.725
96494W        W55755  19.095  24.681   1.450
96495W        W55756  10.327  11.156   4.155
96496W        W55757   6.295   7.216   0.421
96497W        W55758  13.293   9.740   2.874
96498W        W55759  13.787  17.184  12.904
96499W        W55760  41.419  22.685   0.779
96500W        W55761  19.584  34.378  11.931
96501W        W55762  31.099  20.565  13.468
96502W        W55763   2.419  16.125  14.291
96503W        W55764  42.884  42.807  14.810
96504W        W55765  14.191   0.792   2.264
96505W        W55766  23.502  35.387  11.517
96506W        W55767  36.483   1.828   5.184
96507W        W55768  32.436  12.342  13.813
96508W        W55769  11.153  18.645   0.837
96509W        W55770  25.027  11.816   1.710
96510W        W55771  37.436  35.032  14.449
96511W        W55772  16.760  23.607  12.999
96512W        W55773  24.056  33.411   3.347
96513W        W55774   9.214  10.643  12.978
96514W        W55775  27.679  28.960  10.966
96515W        W55776  39.493  38.478  12.423
96516W        W55777  12.623  36.936   0.456
96517W        W55778  44.890  18.600   1.274
96518W        W55779  41.031   7.787  12.483
96519W        W55780   1.839  29.638   3.658
96520W        W55781   5.875  39.466   0.448
96521W        W55782  32.411  13.616  14.931
96522W        W55783  13.686  10.276   1.316
96523W        W55784  22.619  39.408   3.754
96524W        W55785   2.860  32.435  14.003
96525W        W55786   1.975  24.617   4.631
96526W        W55787  38.537  37.972   2.824
96527W        W55788  26.539  29.994  12.511
96528W        W55789   4.407  37.398  11.385
96529W        W55790   7.369  26.143  14.317
96530W        W55791  33.608  14.736  14.506
96531W        W55792  35.053  20.629  11.945
96532W        W55793  42.322  16.615   3.645
96533W        W55794   1.328   5.903   0.936
96534W        W55795  44.472  30.994   3.294
96535W        W55796  35.423  35.377   1.703
96536W        W55797  15.131  21.167  12.361
96537W        W55798  12.154   2.468  14.883
96538W        W55799  15.728  44.367   3.775
96539W        W55800   0.921  23.238  14.001
96540W        W55801  16.809  43.454   1.379
96541W        W55802  42.479  26.542  14.856
96542W        W55803  10.273  11.150   9.948
96543W        W55804  28.122   8.720   4.793
96544W        W55805  23.179  31.614   4.719
96545W        W55806  20.218  44.845   0.726
96546W        W55807  43.464  42.022   2.419
96547W        W55808   7.909  30.485  11.904
96548W        W55809  35.462  20.743   2.672
96549W        W55810   1.944  20.068   2.722
96550W        W55811  36.542  27.622   1.775
96551W        W55812  25.051  23.606  14.422
96552W        W55813  44.349  17.065   0.861
96553W        W55814  20.537  19.083  11.949
96554W        W55815  25.990  23.165  14.827
96555W        W55816  22.244  44.489   3.184
96556W        W55817  15.118  27.156  14.010
96557W        W55818  23.629  19.129  10.412
96558W        W55819  29.022  22.607  14.935
96559W        W55820   9.327  41.979  12.528
96560W        W55821  15.643  29.168   4.168
96561W        W55822  36.356  27.104  10.450
96562W        W55823  31.596  31.411  12.912
96563W        W55824   4.248  30.927  11.952
96564W        W55825  14.637  44.410   0.472
96565W        W55826  27.647  10.323  11.381
96566W        W55827  43.882  25.543   1.820
96567W        W55828   5.197  18.168  10.428
96568W        W55829   6.873  36.086   1.429
96569W        W55830  13.243  21.067   2.417
96570W        W55831  35.469  14.276  14.865
96571W        W55832  42.408   1.270   1.397
96572W        W55833  17.164  22.007  12.560
96573W        W55834  43.471  17.669   2.680
96574W        W55835  37.989  28.130   2.235
96575W        W55836   7.677  21.168   0.393
96576W        W55837  27.518  17.581   2.891
96577W        W55838  11.247  27.085   3.241
96578W        W55839  27.458  12.648   1.270
96579W        W55840  39.846  44.010   1.295
96580W        W55841  39.017   5.831  14.009
96581W        W55842   4.436  38.386  12.922
96582W        W55843  33.390  42.008  13.380
96583W        W55844  41.514  29.082  14.500
96584W        W55845  17.714  20.115  14.909
96585W        W55846  12.289   1.911   0.328
96586W        W55847  34.503  13.222  10.613
96587W        W55848  21.652  32.115  12.975
96588W        W55849  29.081  37.367  13.894
96589W        W55850  16.652  34.078  12.096
96590W        W55851  37.942  22.244   2.721
96591W        W55852  14.780   8.856  12.436
96592W        W55853  18.275  19.056  13.897
96593W        W55854  26.675  22.055  10.423
96594W        W55855  40.859  11.156   0.319
96595W        W55856  30.486  17.067   3.307
96596W        W55857  13.621  43.820  11.478
96597W        W55858  44.837   9.760  13.437
96598W        W55859  12.636   0.915   0.927
96599W        W55860  29.148  19.547   0.917
96600W        W55861  28.586  39.834   3.339
96601W        W55862  38.975   1.340   3.284
96602W        W55863  33.570   5.879  14.813
96603W        W55864  37.049  25.672  10.968
96604W        W55865  36.878  42.808  13.456
96605W        W55866  12.131  30.540  13.429
96606W        W55867  37.957  18.279  12.487
96607W        W55868  38.509  28.083  13.548
96608W        W55869  43.857  32.594   4.620
96609W        W55870  23.006  25.050   2.864
96610W        W55871  17.250  26.048  12.916
96611W        W55872  17.561   0.349   0.961
96612W        W55873  43.442  41.981   3.758
96613W        W55874  14.098  39.064  11.076
96614W        W55875   7.858   5.932   0.858
96615W        W55876  43.857  18.564  10.566
96616W        W55877   8.667  33.907  12.950
96617W        W55878  13.164  17.155   3.713
96618W        W55879  23.501  32.555   3.342
96619W        W55880  21.576  27.504  12.416
96620W        W55881  25.051  26.465   3.732
96621W        W55882   8.829  28.624  10.960
96622W        W55883   2.310  33.460   4.303
96623W        W55884  17.693  38.539   0.770
96624W        W55885   0.254  24.715  13.847
96625W        W55886  12.802  33.556  11.376
96626W        W55887  14.674  43.494  13.039
96627W        W55888  35.950  26.682   3.836
96628W        W55889  17.089  31.948   3.326
96629W        W55890  43.350  24.698   1.833
96630W        W55891  27.591   2.763   2.798
96631W        W55892   8.897  36.056  13.377
96632W        W55893  19.090  31.942   2.665
96633W        W55894  31.947  36.864  12.031
96634W        W55895  17.191  32.057   2.852
96635W        W55896  34.434  22.659   2.786
96636W        W55897  32.025  12.117  14.759
96637W        W55898  25.668  39.509   4.137
96638W        W55899  37.521   9.854  11.938
96639W        W55900  31.582  31.051   0.732
96640W        W55901  42.895  32.987   3.323
96641W        W55902  15.152  13.280  14.985
96642W        W55903  39.360  19.122   4.225
96643W        W55904  24.682  44.898   1.233
96644W        W55905  37.490  23.608   0.323
96645W        W55906  34.600   6.823   0.381
96646W        W55907  33.587  44.874   3.184
96647W        W55908  12.131   0.289   4.836
96648W        W55909   6.693  32.916   3.674
96649W        W55910  20.059  27.158   0.847
96650W        W55911   4.241   5.259  11.924
96651W        W55912  12.172  24.069   1.833
96652W        W55913  39.555   1.327  13.964
96653W        W55914  14.259  17.072  14.286
96654W        W55915  39.050  32.033  13.871
96655W        W55916   8.167  22.040  12.840
96656W        W55917  28.957  20.250  14.867
96657W        W55918   9.394  30.623   1.315
96658W        W55919  14.094  18.594   0.455
96659W        W55920   5.234  11.199  12.402
96660W        W55921  24.670  13.120  14.907
96661W        W55922  21.562  33.438  12.443
96662W        W55923  30.533  26.458  12.452
96663W        W55924  35.922   1.392  11.439
96664W        W55925   2.361   9.237   3.693
96665W        W55926  25.582  24.668  12.981
96666W        W55927  35.393  44.420  13.986
96667W        W55928  18.137  31.554   2.722
96668W        W55929  26.955  21.106  12.403
96669W        W55930  37.050  15.263  13.064
96670W        W55931  25.027  11.769   3.252
96671W        W55932   3.250   3.757  10.412
96672W        W55933   7.741  11.258  14.503
96673W        W55934  22.087  26.170  13.033
96674W        W55935  40.367  11.665   5.294
96675W        W55936  30.629  20.743   4.675
96676W        W55937  37.983  33.021   1.757
96677W        W55938  27.501  27.083  12.393
96678W        W55939   0.481  33.604   2.410
96679W        W55940  10.300  14.809  12.862
96680W        W55941   3.353   0.464   4.135
96681W        W55942  33.454   7.384  11.513
96682W        W55943   0.325   7.906  12.837
96683W        W55944  17.583  30.961  12.852
96684W        W55945  28.988  18.209   0.800
96685W        W55946  29.582   6.416  14.353
96686W        W55947   9.246  29.656   3.164
96687W        W55948  38.876   4.874   4.753
96688W        W55949  26.640  26.583   1.355
96689W        W55950  23.042  20.726  12.453
96690W        W55951  36.970  23.641  11.099
96691W        W55952  18.630   3.738   3.644
96692W        W55953   9.286  19.075  11.857
96693W        W55954   6.234  44.905   3.312
96694W        W55955  27.084  37.568   3.777
96695W        W55956   1.342  17.752  10.972
96696W        W55957  43.299  25.991   3.146
96697W        W55958  44.268  11.865  14.804
96698W        W55959  29.074  35.886   3.227
96699W        W55960  34.118  40.495   4.193
96700W        W55961  31.634  30.444  13.339
96701W        W55962   6.889  28.020  11.577
96702W        W55963   0.394  30.501  12.976
96703W        W55964  18.131  13.614   3.319
96704W        W55965  21.632  29.436  14.412
96705W        W55966  25.691  44.781  13.376
96706W        W55967  32.424  30.540   0.418
96707W        W55968  30.956   7.372  11.604
96708W        W55969  33.945  35.499  13.791
96709W        W55970  37.388   1.945   4.198
96710W        W55971  25.691   0.355   5.172
96711W        W55972  24.173  37.878   4.648
96712W        W55973  37.940  37.488   2.179
96713W        W55974  43.276  30.655   0.429
96714W        W55975  24.480  35.924  12.451
96715W        W55976  41.923  41.515   1.213
96716W        W55977   2.954  33.481   2.238
96717W        W55978   8.305  13.645  11.519
96718W        W55979  28.570  41.836  14.496
96719W        W55980  29.501  34.037   0.347
96720W        W55981  18.225  14.109  11.051
96721W        W55982  43.872   4.444   0.871
96722W        W55983  37.405  41.810   1.910
96723W        W55984  22.550  32.542   2.387
96724W        W55985  20.696   3.221  12.568
96725W        W55986   5.306  26.554  13.487
96726W        W55987  27.067   9.857  14.004
96727W        W55988  35.953  38.922   0.890
96728W        W55989   3.875  19.189   3.386
96729W        W55990   6.815  11.232   0.431
96730W        W55991  39.403  19.204  11.479
96731W        W55992  23.707   2.838   4.646
96732W        W55993  31.621  18.761  13.820
96733W        W55994   5.873  27.590  12.884
96734W        W55995  36.359  29.657  10.903
96735W        W55996  44.953  30.972  11.459
96736W        W55997  44.982  23.115   4.344
96737W        W55998  28.492  25.511   3.166
96738W        W55999   3.274  16.294  12.020
96739W        W56000  30.491  31.467  10.535
96740W        W56001  20.085  41.343   3.783
96741W        W56002  33.963  41.952   3.654
96742W        W56003  32.573  23.240   0.869
96743W        W56004  30.457   1.335  12.852
96744W        W56005  36.445  20.700  14.323
96745W        W56006   7.727  16.081  13.464
96746W        W56007  16.136  34.110   4.771
96747W        W56008  24.567  40.019  12.033
96748W        W56009  15.684  40.373  14.884
96749W        W56010   9.773   1.312   0.879
96750W        W56011  24.664  27.985   1.927
96751W        W56012  39.983  14.709   0.445
96752W        W56013   7.176  13.629   0.311
96753W        W56014  15.779  17.769   0.330
96754W        W56015  30.957  37.014   2.698
96755W        W56016   2.441   3.374   0.785
96756W        W56017   4.906  17.791  10.149
96757W        W56018  15.135  11.627   0.369
96758W        W56019  43.889   4.920  11.575
96759W        W56020  40.329  41.407  10.490
96760W        W56021  18.733  39.050  10.605
96761W        W56022  37.860  18.614  11.972
96762W        W56023  15.700  26.599   1.927
96763W        W56024  42.971  34.592  11.585
96764W        W56025  27.621  20.613  12.950
96765W        W56026  16.102   4.785   4.724
96766W        W56027  31.106  28.186  10.580
96767W        W56028  41.536  36.979  14.856
96768W        W56029   7.365  16.215   1.763
96769W        W56030   4.300  15.210   2.188
96770W        W56031  20.582  13.725   1.213
96771W        W56032   8.837   6.887   2.229
96772W        W56033  37.352   8.312  12.477
96773W        W56034  18.235  21.687  12.433
96774W        W56035  22.644  13.207   2.865
96775W        W56036  42.510   0.329   3.164
96776W        W56037  25.677   4.359   1.926
96777W        W56038  37.533   8.831  11.940
96778W        W56039  33.622  18.149   1.787
96779W        W56040  14.286  11.790   0.465
96780W        W56041  27.691  25.205  11.514
96781W        W56042  34.949  40.334  11.413
96782W        W56043  31.000   5.317   4.755
96783W        W56044  14.810  38.391  13.862
96784W        W56045  14.121  29.957   2.891
96785W        W56046  43.797  12.651  14.502
96786W        W56047   4.223  17.645  13.322
96787W        W56048  40.006  14.634  11.887
96788W        W56049   5.720  22.646  14.311
96789W        W56050  20.594  41.895   3.684
96790W        W56051  22.685   2.298   3.204
96791W        W56052   4.252  36.019   3.660
96792W        W56053  34.370  31.138  12.983
96793W        W56054  28.602  18.203   4.263
96794W        W56055  18.251  16.740  10.900
96795W        W56056  16.128  40.428   4.169
96796W        W56057  39.487  32.626  13.387
96797W        W56058   5.900  24.017   3.767
96798W        W56059  33.607  44.771   3.847
96799W        W56060  29.578  34.444  12.899
96800W        W56061   1.750  15.793  13.997
96801W        W56062   1.376  41.951  10.616
96802W        W56063   1.313   4.895  12.995
96803W        W56064  35.908  26.029  14.290
96804W        W56065  39.921   1.805   3.735
96805W        W56066  44.879  42.782  14.306
96806W        W56067   9.261  23.735  13.951
96807W        W56068  28.005   5.362   2.286
96808W        W56069  40.366   2.341   4.172
96809W        W56070  42.862   5.789   3.387
96810W        W56071   4.927   5.333  13.931
96811W        W56072  41.819   8.870   3.328
96812W        W56073   4.329  32.903   2.295
96813W        W56074  27.981  31.080  14.940
96814W        W56075  41.403   9.217   4.755
96815W        W56076  43.916  11.712  13.394
96816W        W56077  18.133  11.624  13.826
96817W        W56078   5.921  18.289  11.069
96818W        W56079  31.022  36.479   0.746
96819W        W56080  44.820  35.377  12.518
96820W        W56081  30.993   7.230   2.287
96821W        W56082  33.056   2.251   3.727
96822W        W56083  34.947  36.363  11.900
96823W        W56084  13.751   7.385   0.818
96824W        W56085  43.421  39.374   3.217
96825W        W56086  39.809  28.631   2.372
96826W        W56087  37.886  19.675   5.183
96827W        W56088  28.593  37.967   1.449
96828W        W56089  40.536  33.454   1.394
96829W        W56090  31.644  36.872   2.313
96830W        W56091  37.893  28.461  11.055
96831W        W56092   7.407  43.405   1.781
96832W        W56093  12.828   0.935   2.761
96833W        W56094  18.213   3.313   3.180
96834W        W56095  42.918   3.918  10.439
96835W        W56096  14.756  13.613   3.780
96836W        W56097  25.026  22.179  11.115
96837W        W56098  16.710  41.976   3.279
96838W        W56099  19.141  10.808   3.859
96839W        W56100   5.873  36.416  12.869
96840W        W56101  20.256   0.969  12.910
96841W        W56102  30.606  17.665  14.814
96842W        W56103  36.038  43.327  12.875
96843W        W56104   3.755  24.654  11.101
96844W        W56105  27.649   1.772  10.538
96845W        W56106  24.059   9.886  11.037
96846W        W56107  40.812   9.242   4.655
96847W        W56108  14.232  22.646   0.790
96848W        W56109   7.325  39.335   4.692
96849W        W56110  17.084   1.857   0.782
96850W        W56111   0.806  11.642  12.891
96851W        W56112  38.520  18.106  14.782
96852W        W56113   2.810  29.498   2.777
96853W        W56114  24.718   2.421   9.941
96854W        W56115  15.139  16.602   1.734
96855W        W56116  12.269  40.368   3.778
96856W        W56117   0.898  22.676   0.468
96857W        W56118  35.913  38.850  11.507
96858W        W56119   1.784   5.903   1.273
96859W        W56120  23.687  34.983  11.410
96860W        W56121   1.936  22.206   0.389
96861W        W56122  24.994  44.783  14.510
96862W        W56123  14.622  15.254  13.885
96863W        W56124  35.503  28.995  14.513
96864W        W56125  38.014  18.104   2.247
96865W        W56126  21.116   9.274   3.148
96866W        W56127   3.764   1.319   4.349
96867W        W56128  23.152   1.288   4.736
96868W        W56129  18.758  21.719  14.468
96869W        W56130   6.279  43.772   0.886
96870W        W56131  29.509  30.614   5.235
96871W        W56132   1.450  32.611  14.841
96872W        W56133  15.580   9.387   4.797
96873W        W56134   9.224  36.009   0.479
96874W        W56135  44.346  44.978   3.256
96875W        W56136  43.320  25.685  11.577
96876W        W56137  22.540  36.935   3.755
96877W        W56138  15.689  31.556  11.579
96878W        W56139  15.604   2.906   4.158
96879W        W56140  33.566  11.636  11.507
96880W        W56141   6.317  34.471   0.962
96881W        W56142  31.980   3.265  14.479
96882W        W56143  37.870  17.092   0.344
96883W        W56144   6.867   7.901  12.427
96884W        W56145  33.453  29.010   4.170
96885W        W56146  36.443  24.088  10.096
96886W        W56147   8.836  43.305  12.850
96887W        W56148  40.819  23.041   2.186
96888W        W56149  27.950  13.346   1.227
96889W        W56150  15.220  34.118   4.263
96890W        W56151  13.229  32.479  12.897
96891W        W56152  21.209  15.611  12.001
96892W        W56153  42.472  15.641  12.481
96893W        W56154   2.419  44.869  10.994
96894W        W56155  38.999   1.304   2.249
96895W        W56156  41.333   1.242   0.765
96896W        W56157   7.217   3.774   1.294
96897W        W56158  17.130  21.558   2.845
96898W        W56159  26.694  44.938   2.680
96899W        W56160  17.236  36.401  14.975
96900W        W56161   9.177  36.473   4.722
96901W        W56162  13.636  38.035   3.722
96902W        W56163  35.943  29.552   0.258
96903W        W56164  10.759   4.736  14.317
96904W        W56165  29.450  12.626   3.263
96905W        W56166  32.596   3.285  13.919
96906W        W56167  14.801  31.007   3.293
96907W        W56168  24.489  22.671   3.204
96908W        W56169   8.719  33.621   5.140
96909W        W56170  15.592   7.719  11.109
96910W        W56171   3.869  30.624   4.288
96911W        W56172  37.903   0.281   1.790
96912W        W56173  12.340  35.085   3.377
96913W        W56174   8.340  27.017  11.387
96914W        W56175  34.949  32.570  14.017
96915W        W56176  10.688  26.171  12.433
96916W        W56177  27.624  13.246  14.993
96917W        W56178  13.708   3.949   1.794
96918W        W56179  24.003  26.662   5.176
96919W        W56180  24.637  35.026  12.931
96920W        W56181  34.908  30.655  14.418
96921W        W56182  17.180  28.966   1.739
96922W        W56183  44.496  44.483   0.378
96923W        W56184  13.174   4.223   0.964
96924W        W56185  22.589   8.359  11.579
96925W        W56186  11.148  20.251  11.557
96926W        W56187   6.826  16.632   1.336
96927W        W56188  34.067   5.291  12.340
96928W        W56189  24.014  13.311   2.242
96929W        W56190  42.798  34.497   3.324
96930W        W56191  29.135  35.077  10.927
96931W        W56192   4.766  29.001  12.399
96932W        W56193   4.706  15.137  13.949
96933W        W56194  22.167   8.702   1.319
96934W        W56195  12.613  34.485   2.258
96935W        W56196  41.411  32.553   0.797
96936W        W56197  23.598  15.623  12.946
96937W        W56198  31.995  36.496   1.712
96938W        W56199  43.469  11.147  12.000
96939W        W56200  35.397  29.523  14.414
96940W        W56201  30.005  32.918  14.765
96941W        W56202  33.905  40.926   1.841
96942W        W56203  39.349  33.390   3.785
96943W        W56204  17.128  43.903   2.355
96944W        W56205  10.235  25.575   4.242
96945W        W56206  34.881  10.864  10.634
96946W        W56207  17.210  24.081  10.059
96947W        W56208  12.836  16.616  10.644
96948W        W56209  31.421  31.621   1.712
96949W        W56210  17.567  43.336   3.771
96950W        W56211   6.867  35.546   2.883
96951W        W56212   7.267  43.850  13.989
96952W        W56213  24.496   0.357  14.899
96953W        W56214  32.133  13.309   5.158
96954W        W56215  24.209  23.501  12.073
96955W        W56216   6.283  34.483  14.837
96956W        W56217   4.820  19.713   9.976
96957W        W56218   4.899  28.062  10.951
96958W        W56219  27.602  44.299  12.048
96959W        W56220  18.147   9.771   1.288
96960W        W56221  34.052   4.806   0.423
96961W        W56222   0.343   3.710  11.580
96962W        W56223   7.868  38.388  13.972
96963W        W56224  41.337  29.969   0.285
96964W        W56225  34.512  29.946  12.348
96965W        W56226  17.131  34.043   2.902
96966W        W56227  25.603  23.609  11.931
96967W        W56228  36.884   9.348  14.012
96968W        W56229  12.687  29.960   3.351
96969W        W56230  10.222  30.500   0.447
96970W        W56231  11.819  37.575   0.403
96971W        W56232   7.292  43.975   2.847
96972W        W56233  10.794  33.024  12.343
96973W        W56234  32.136   0.437  11.113
96974W        W56235  13.753  19.154  12.522
96975W        W56236   1.881  43.338   3.189
96976W        W56237  28.598  41.530   1.250
96977W        W56238  11.150  23.177  11.123
96978W        W56239  27.192  40.945  13.018
96979W        W56240  21.082  10.267   4.334
96980W        W56241  22.167  14.760  10.536
96981W        W56242   7.851  13.831  11.077
96982W        W56243  14.149   0.251  13.314
96983W        W56244   0.385  23.607   3.774
96984W        W56245  21.557   6.884  14.300
96985W        W56246  31.153  27.154   3.191
96986W        W56247  17.183   3.861   4.310
96987W        W56248  21.020   5.908   4.720
96988W        W56249  22.509  41.892  12.455
96989W        W56250  11.682   2.292   4.325
96990W        W56251  35.574   4.280   0.399
96991W        W56252  37.338  29.098   4.706
96992W        W56253  15.203  26.519   4.775
96993W        W56254   7.806   3.933  12.076
96994W        W56255  18.737   2.230   1.767
96995W        W56256  23.528  12.284  10.908
96996W        W56257   2.809  40.036   1.234
96997W        W56258  29.044  21.040   2.831
96998W        W56259   1.323   5.212  10.966
96999W        W56260  28.552  23.022  14.807
97000W        W56261  33.022  23.678  12.531
97001W        W56262  26.173  40.032  13.367
97002W        W56263  28.635  27.560   0.961
97003W        W56264  21.674  35.452   2.320
97004W        W56265  36.409  10.858  14.776
97005W        W56266  38.892  24.125  11.584
97006W        W56267  32.539  43.005  11.099
97007W        W56268   6.351  14.739  14.513
97008W        W56269  16.234   3.941   1.368
97009W        W56270  25.063   0.854   2.360
97010W        W56271  24.507  36.079   1.424
97011W        W56272  42.867  18.563   1.282
97012W        W56273  39.554  31.499  14.478
97013W        W56274  39.426  23.039   4.152
97014W        W56275  10.665  39.991  12.852
97015W        W56276   9.285  29.558   1.848
97016W        W56277  34.527  35.467   1.825
97017W        W56278   5.321   5.337   0.732
97018W        W56279  41.889  11.181  12.836
97019W        W56280   1.873  34.074  12.370
97020W        W56281   6.233  10.171   1.312
97021W        W56282  29.063  24.695  10.930
97022W        W56283   8.233  33.463   3.381
97023W        W56284  44.422  39.963  12.437
97024W        W56285  22.240  28.134   0.841
97025W        W56286  37.887  29.920  14.792
97026W        W56287  33.016  34.556   3.189
97027W        W56288  22.569  41.449  14.007
97028W        W56289  20.753   0.764   0.951
97029W        W56290  32.404  16.273   1.447
97030W        W56291  26.962   0.265   9.956
97031W        W56292  30.934  35.863   0.334
97032W        W56293  20.626  29.630  12.054
97033W        W56294   3.824  44.403   9.938
97034W        W56295  19.706  20.272   2.805
97035W        W56296  19.134  40.382  14.921
97036W        W56297   2.422  33.610   0.350
97037W        W56298  31.563  22.564  13.541
97038W        W56299  44.761   2.928  14.997
97039W        W56300  12.754  39.830  10.445
97040W        W56301  34.025  12.720   4.191
97041W        W56302  37.386   0.262  14.927
97042W        W56303   1.323  22.636  12.058
97043W        W56304   7.672  28.503   0.464
97044W        W56305  23.047   4.937   1.222
97045W        W56306  33.590  27.666   0.912
97046W        W56307  33.411  34.593  10.466
97047W        W56308   0.945  13.265  11.396
97048W        W56309   4.734  18.661   5.288
97049W        W56310  10.708  40.013  10.521
97050W        W56311   2.905  31.117  11.953
97051W        W56312  27.976  33.964   2.285
97052W        W56313  21.615   0.384  14.014
97053W        W56314  38.934   2.905  13.867
97054W        W56315  37.876  30.429  12.973
97055W        W56316   6.208   3.321   4.299
97056W        W56317  15.756  32.944   4.765
97057W        W56318  40.945   4.252  13.961
97058W        W56319   4.794   8.872   4.809
97059W        W56320  39.962  15.231   0.259
97060W        W56321  24.507  21.657   2.279
97061W        W56322  32.117  37.833   4.621
97062W        W56323  44.968  36.354   1.419
97063W        W56324   8.765  11.130   1.420
97064W        W56325   7.871  36.561  14.881
97065W        W56326   7.708  35.965  11.536
97066W        W56327  36.563  21.235   5.192
97067W        W56328  11.824  30.538   1.934
97068W        W56329   9.649  29.118   2.250
97069W        W56330  14.747  18.211   4.834
97070W        W56331  43.430  33.463   0.244
97071W        W56332   0.772  31.474   2.194
97072W        W56333  44.343   3.783   4.255
97073W        W56334  29.489  23.693   4.639
97074W        W56335  32.631  19.045   3.182
97075W        W56336  11.839   5.357   5.179
97076W        W56337  35.509  44.301  11.376
97077W        W56338   0.306  23.156  13.816
97078W        W56339   1.363  18.750   3.164
97079W        W56340  35.012  41.875  12.491
97080W        W56341  22.054  10.644  12.982
97081W        W56342  13.109   6.399   4.158
97082W        W56343  32.457  16.259  14.802
97083W        W56344  39.934  35.879  13.907
97084W        W56345  19.722  44.324  11.943
97085W        W56346  16.600   9.756  14.857
97086W        W56347  26.602  13.218   0.928
97087W        W56348  31.037   3.714   4.323
97088W        W56349  27.564  29.471  14.511
97089W        W56350   3.908  33.624   9.926
97090W        W56351  29.073  43.351  14.806
97091W        W56352  21.063  19.238  12.991
97092W        W56353  36.489  12.740  11.981
97093W        W56354  27.604   3.271  13.308
97094W        W56355  27.050   6.775   1.833
97095W        W56356  18.195  29.042  12.829
97096W        W56357  19.112  40.879   1.931
97097W        W56358  40.403  36.858   1.350
97098W        W56359  31.473  19.109  14.284
97099W        W56360   4.279   1.884  13.530
97100W        W56361  13.223   6.728   4.321
97101W        W56362   4.721  32.119   3.180
97102W        W56363  25.468  44.935  11.453
97103W        W56364  10.795  17.103  13.925
97104W        W56365  18.605  22.018  12.019
97105W        W56366  23.104  21.087  10.421
97106W        W56367  23.236  44.322  10.551
97107W        W56368   3.223  13.631  13.019
97108W        W56369  41.298  31.566  13.924
97109W        W56370  39.482   5.202  12.431
97110W        W56371   0.289  30.982  11.032
97111W        W56372  28.052   9.821   0.394
97112W        W56373   5.836   9.194   3.722
97113W        W56374  30.506  39.350  11.423
97114W        W56375   7.880   5.696  12.977
97115W        W56376  20.047  23.568  13.828
97116W        W56377   9.392  34.983   0.807
97117W        W56378  25.620  32.019   1.311
97118W        W56379   2.435   9.188  10.593
97119W        W56380  10.333   1.891  10.012
97120W        W56381  16.225   3.252   0.942
97121W        W56382  32.928  34.400   3.846
97122W        W56383  32.560  17.580   4.271
97123W        W56384  27.528  14.265  13.312
97124W        W56385   8.883  43.430   3.814
97125W        W56386   7.245  40.359  13.410
97126W        W56387  23.525  14.753   0.249
97127W        W56388  22.720  26.020  14.784
97128W        W56389   6.236  27.635   1.345
97129W        W56390   8.286   8.872   1.439
97130W        W56391  38.337  10.376   1.897
97131W        W56392   7.777  38.473   4.265
97132W        W56393  41.375  24.722  14.472
97133W        W56394   8.879  43.818  12.377
97134W        W56395  30.999  41.878   3.161
97135W        W56396  27.175   5.710  11.909
97136W        W56397  30.927  40.539  12.872
97137W        W56398   2.272  25.682   0.752
97138W        W56399   5.825  25.063  14.285
97139W        W56400  40.447  44.494  14.455
97140W        W56401  40.874  43.338  14.769
97141W        W56402  29.560  25.636   4.727
97142W        W56403  25.019   4.376   3.375
97143W        W56404  30.004  28.105  12.009
97144W        W56405  21.236  25.072  12.907
97145W        W56406   4.798  32.945   2.716
97146W        W56407  43.479  34.486   5.135
97147W        W56408  19.219   1.401   3.787
97148W        W56409  12.303   9.165  11.475
97149W        W56410   0.785   1.398  12.008
97150W        W56411  20.751  12.771  14.958
97151W        W56412  41.436  14.243  13.499
97152W        W56413   4.236   6.749  14.971
97153W        W56414  41.888   6.803  12.940
97154W        W56415  27.489  39.504   4.669
97155W        W56416   6.689  30.642  13.060
97156W        W56417  20.538  34.395   3.816
97157W        W56418  17.078   3.248   5.629
97158W        W56419  29.169  40.972  11.513
97159W        W56420  15.756  29.169  10.933
97160W        W56421   3.412   8.711  10.552
97161W        W56422  34.044  39.949  11.073
97162W        W56423  43.831  42.833  11.468
97163W        W56424  22.634  19.183   0.350
97164W        W56425  21.185  36.846  14.404
97165W        W56426   6.913  25.625  11.422
97166W        W56427  12.776  31.470   0.473
97167W        W56428  39.859  39.382   2.376
97168W        W56429  44.347  43.322  12.455
97169W        W56430  41.005   4.262  12.960
97170W        W56431  31.551  36.964  14.420
97171W        W56432  40.433   2.413   1.785
97172W        W56433   6.219   3.879  10.024
97173W        W56434   5.301   8.835  13.415
97174W        W56435  39.484  21.145  14.501
97175W        W56436  14.629  29.507  13.908
97176W        W56437  19.691  10.278  13.409
97177W        W56438  21.596  41.974  11.469
97178W        W56439   8.302  37.026   4.127
97179W        W56440   2.772  14.186   5.306
97180W        W56441  37.499   5.363  11.071
97181W        W56442  39.815  16.104  13.398
97182W        W56443  28.179  18.102   4.797
97183W        W56444  40.919   4.722   4.353
97184W        W56445  12.193  11.229  12.904
97185W        W56446  40.961  32.461  12.350
97186W        W56447  33.559  29.568  11.937
97187W        W56448   4.702  20.207   2.856
97188W        W56449   4.370   6.239   4.202
97189W        W56450  32.622   7.244   2.185
97190W        W56451  22.525  16.221   3.796
97191W        W56452   2.373   8.252  13.533
97192W        W56453  14.659  25.017   3.691
97193W        W56454  12.148   2.398   2.361
97194W        W56455   6.253  42.345   0.748
97195W        W56456  18.651   1.897  14.888
97196W        W56457  42.389  15.226   0.754
97197W        W56458   7.827  38.837  14.782
97198W        W56459  19.655  44.371   3.743
97199W        W56460  40.318   5.718  12.840
97200W        W56461  41.526  19.243   3.324
97201W        W56462  40.832  25.025   4.203
97202W        W56463  12.268  19.067  13.311
97203W        W56464  19.271   9.253   4.353
97204W        W56465  38.977  31.419  12.507
97205W        W56466  35.497  39.336   2.296
97206W        W56467   8.689   9.865   4.210
97207W        W56468   9.649  33.065  13.918
97208W        W56469  41.964   9.271   2.792
97209W        W56470   0.949  40.455  11.043
97210W        W56471  31.951  12.756   2.301
97211W        W56472   0.898   7.214  13.884
97212W        W56473   8.362   5.828   1.448
97213W        W56474  19.699  24.543  14.843
97214W        W56475  38.361  21.236   0.442
97215W        W56476  36.047  15.627  10.936
97216W        W56477  15.823  12.292   1.244
97217W        W56478   5.834   9.678   4.221
97218W        W56479   8.259  20.115   0.776
97219W        W56480  21.724  14.292   4.631
97220W        W56481  30.122  33.448   3.205
97221W        W56482   8.333   7.211   2.675
97222W        W56483  36.532  27.187  12.892
97223W        W56484  16.571   0.947   2.312
97224W        W56485   8.820   9.247  14.015
97225W        W56486  27.098  27.445   1.820
97226W        W56487  43.389  28.508   3.233
97227W        W56488  16.688  19.058   5.600
97228W        W56489  39.365  12.167  12.096
97229W        W56490  37.945  43.274   1.334
97230W        W56491   8.866   3.280  14.003
97231W        W56492  32.492  35.491  13.986
97232W        W56493  35.012  15.204   2.830
97233W        W56494  36.401  39.840  11.577
97234W        W56495  12.622   0.434  14.792
97235W        W56496   2.801  17.301   4.721
97236W        W56497  39.853  21.620  14.374
97237W        W56498  39.355  40.455   0.727
97238W        W56499  19.755  14.698   2.754
97239W        W56500  37.831  11.813   1.236
97240W        W56501  17.128  34.974  12.898
97241W        W56502  32.596  15.655  12.830
97242W        W56503  11.312  12.155  10.619
97243W        W56504   9.243   0.868  14.347
97244W        W56505  21.630  39.534   4.341
97245W        W56506  40.500   1.328   3.680
97246W        W56507  32.043  40.893  12.515
97247W        W56508  14.332  24.623  13.352
97248W        W56509  15.694  28.658   0.821
97249W        W56510  13.718  23.128   2.746
97250W        W56511  16.567  39.392  11.486
97251W        W56512  31.498  20.734  13.039
97252W        W56513  44.864  34.586   4.291
97253W        W56514  31.955  12.636  14.854
97254W        W56515  26.654   3.322  13.453
97255W        W56516  20.247   7.390   3.737
97256W        W56517  33.020   8.302   1.931
97257W        W56518  25.184  39.446  12.995
97258W        W56519  13.617  36.888  11.885
97259W        W56520  44.289  39.947  10.600
97260W        W56521  17.172  31.133   0.362
97261W        W56522   0.867  34.066   0.291
97262W        W56523   7.720  30.513  10.974
97263W        W56524   5.825   0.807  11.379
97264W        W56525  40.444  26.043  12.920
97265W        W56526  42.348  14.214   1.288
97266W        W56527   4.279   0.856   2.689
97267W        W56528  12.209  14.602  12.401
97268W        W56529   2.757  44.934   3.703
97269W        W56530  21.077  39.333  12.446
97270W        W56531  21.729  16.256  14.843
97271W        W56532  30.955   8.214   2.684
97272W        W56533  12.180   3.392   4.763
97273W        W56534  30.445   2.892  13.916
97274W        W56535  19.571  44.450   2.871
97275W        W56536  42.853  39.923  11.386
97276W        W56537  10.240  37.853  11.536
97277W        W56538  21.692  17.709   1.934
97278W        W56539  36.347  34.978   4.726
97279W        W56540  12.261  15.577  12.558
97280W        W56541  22.119  21.591   5.273
97281W        W56542  27.968   4.847  14.873
97282W        W56543  40.348  14.301   2.259
97283W        W56544  39.370  22.538   1.348
97284W        W56545  31.415  17.131   0.389
97285W        W56546  30.128  13.774   1.886
97286W        W56547  26.102   2.892  13.469
97287W        W56548   3.383  29.450   3.722
97288W        W56549  12.636  36.908   2.367
97289W        W56550  37.943  34.507  11.044
97290W        W56551  17.259   6.299  11.394
97291W        W56552  33.499  35.381  13.369
97292W        W56553  11.356  17.773  12.497
97293W        W56554  36.392  18.644  11.021
97294W        W56555  15.622  44.863   0.806
97295W        W56556   6.805  42.495  12.377
97296W        W56557  30.111  28.032   3.307
97297W        W56558  20.708  25.036   3.817
97298W        W56559  38.041  22.245  14.861
97299W        W56560  31.533  35.031   1.828
97300W        W56561  19.770   6.264  10.962
97301W        W56562   9.682  36.982   2.337
97302W        W56563  25.539  37.952  10.613
97303W        W56564  29.511   5.383   4.230
97304W        W56565  43.445  38.452  11.114
97305W        W56566   6.722  42.916  10.498
97306W        W56567   6.381  41.016   2.317
97307W        W56568  18.737  15.815  13.886
97308W        W56569   0.833  30.438   4.711
97309W        W56570  23.724  34.564   0.733
97310W        W56571  12.146   5.693  11.516
97311W        W56572  33.957  36.972  13.792
97312W        W56573  16.586  24.719   3.152
97313W        W56574  14.673  24.220  12.989
97314W        W56575   6.348  15.742   4.712
97315W        W56576  35.430  10.863  12.974
97316W        W56577   6.235  35.940   3.817
97317W        W56578  14.163  13.147  11.518
97318W        W56579  17.229  36.569  14.363
97319W        W56580   1.800  42.981  10.461
97320W        W56581  36.463  40.045   1.723
97321W        W56582  18.658   4.207  13.362
97322W        W56583  24.032  28.653   2.684
97323W        W56584  19.583  14.749   0.345
97324W        W56585   5.427  44.861  10.529
97325W        W56586  22.655   4.389   0.746
97326W        W56587  42.904  39.996  11.072
97327W        W56588  10.355  42.827  13.463
97328W        W56589   0.960  37.982   3.780
97329W        W56590  32.926  27.610  14.937
97330W        W56591  33.960   6.325  13.823
97331W        W56592  37.375  25.543  11.874
97332W        W56593  24.071   4.292   2.205
97333W        W56594  22.242  21.545  14.415
97334W        W56595  24.205  35.091  10.473
97335W        W56596  33.947  16.628   4.827
97336W        W56597  27.464  44.827  11.043
97337W        W56598   9.732  25.989  11.503
97338W        W56599   3.371   7.280  10.134
97339W        W56600  41.503  13.144  11.886
97340W        W56601   3.898   2.443   1.269
97341W        W56602  32.067  24.204   0.955
97342W        W56603  16.129  25.533  11.893
97343W        W56604  44.007  44.342   3.849
97344W        W56605   4.235  42.936  12.088
97345W        W56606   6.308  26.199   2.686
97346W        W56607   1.800  40.529   3.383
97347W        W56608  17.692  17.592  14.767
97348W        W56609  40.406  15.781   1.743
97349W        W56610   3.412   7.393  14.351
97350W        W56611  15.821  29.475   0.479
97351W        W56612  34.569   7.675  10.944
97352W        W56613  28.042  17.062   1.381
97353W        W56614   7.195  32.098  13.968
97354W        W56615   9.210  11.827  12.902
97355W        W56616  26.684  35.063  12.412
97356W        W56617   4.703  23.663   1.377
97357W        W56618  11.662  35.927  10.496
97358W        W56619   4.403   9.858  10.602
97359W        W56620   7.390  29.469  12.991
97360W        W56621  32.585   2.267   2.714
97361W        W56622  39.928  13.256  11.917
97362W        W56623  38.029  23.624   3.751
97363W        W56624  25.105  16.670   1.766
97364W        W56625  18.068  16.759  14.839
97365W        W56626   8.840  22.076   1.713
97366W        W56627   2.932  12.338   0.867
97367W        W56628  11.321   6.181  12.547
97368W        W56629  26.546   1.746   2.188
97369W        W56630  15.251  25.076  10.083
97370W        W56631   8.719  29.136  13.520
97371W        W56632  36.908  33.582  10.974
97372W        W56633  28.666  25.711  14.997
97373W        W56634  25.639  10.867   3.164
97374W        W56635   5.809  26.558  10.613
97375W        W56636  16.669   9.885  13.929
97376W        W56637  24.696  30.931   0.935
97377W        W56638  30.126  12.346  12.340
97378W        W56639  35.053  23.533  10.114
97379W        W56640   9.288  23.058   0.278
97380W        W56641   4.786   7.705  12.488
97381W        W56642  28.581   0.752   4.662
97382W        W56643  21.146  40.511  14.502
97383W        W56644  17.262  26.691   1.386
97384W        W56645  44.830  16.085   4.780
97385W        W56646  41.986  25.153   1.404
97386W        W56647   6.237   3.826   1.767
97387W        W56648  22.128  13.817  10.578
97388W        W56649  23.577  39.504   4.717
97389W        W56650   3.319  25.495  12.479
97390W        W56651  39.410  43.919  10.999
97391W        W56652   7.390  37.340   2.767
97392W        W56653  40.875  10.194   3.801
97393W        W56654  21.092  40.942  11.565
97394W        W56655  34.459  11.136   1.705
97395W        W56656  38.441  40.990  14.828
97396W        W56657  12.185   9.818  10.924
97397W        W56658   5.733  43.765   2.759
97398W        W56659   6.830  26.974   2.242
97399W        W56660  14.237   8.821  13.986
97400W        W56661  24.023  43.436  13.483
97401W        W56662  32.101  22.638  12.877
97402W        W56663  34.879  15.101   0.881
97403W        W56664  26.578  18.159  14.437
97404W        W56665   6.326  20.620  14.999
97405W        W56666  29.476  29.988  11.427
97406W        W56667  17.274  11.758   3.638
97407W        W56668  37.404  36.523   2.327
97408W        W56669   8.223  42.025  14.820
97409W        W56670  22.206  23.492  14.321
97410W        W56671  40.390  41.813  12.566
97411W        W56672  22.036  40.874   1.424
97412W        W56673  34.547  24.188  13.343
97413W        W56674  24.613  41.518  10.963
97414W        W56675  43.289   5.252  10.635
97415W        W56676  44.964  37.060  14.366
97416W        W56677  37.939  25.062  14.301
97417W        W56678   8.322   2.780   1.870
97418W        W56679  31.504  17.583  13.005
97419W        W56680  32.449   1.818   3.853
97420W        W56681  38.996  41.468   4.249
97421W        W56682  37.081  33.621   1.928
97422W        W56683  39.059  33.023   1.791
97423W        W56684  14.320   5.224   2.854
97424W        W56685  36.986  32.443   4.605
97425W        W56686   3.367   1.764  10.597
97426W        W56687   7.190  22.664   2.867
97427W        W56688  10.240   8.805   1.294
97428W        W56689   4.852  20.216   9.938
97429W        W56690  15.650  16.243   0.955
97430W        W56691  11.351  19.656  11.887
97431W        W56692   4.234  12.211  13.823
97432W        W56693   7.414  42.876  11.025
97433W        W56694  29.938  26.969   4.815
97434W        W56695  28.080  11.370  13.906
97435W        W56696  33.910  18.610   4.220
97436W        W56697  36.565  24.572   2.740
97437W        W56698  22.538   4.838  13.483
97438W        W56699  30.084   6.683  10.432
97439W        W56700   0.987  35.108  10.625
97440W        W56701  12.255  25.654  14.844
97441W        W56702  21.547  32.496   0.352
97442W        W56703  10.313  29.472   2.666
97443W        W56704  33.561  12.765   2.202
97444W        W56705  20.141  42.339  14.868
97445W        W56706  15.663  20.661   4.806
97446W        W56707   1.480  28.627   1.697
97447W        W56708  19.156   3.750  12.484
97448W        W56709  28.069  15.297   4.312
97449W        W56710  17.714  23.057  12.891
97450W        W56711   0.835   9.691   2.338
97451W        W56712  19.138   2.226   0.346
97452W        W56713  26.580  43.896   0.786
97453W        W56714  44.275   0.971  13.537
97454W        W56715   4.242  16.095   4.316
97455W        W56716   1.429  13.250   1.933
97456W        W56717  17.670  17.624   2.304
97457W        W56718  38.852  26.126   2.200
97458W        W56719  27.486   6.680  10.534
97459W        W56720  10.688   8.386   2.304
97460W        W56721  35.396  16.127  11.415
97461W        W56722  18.715  34.055   0.946
97462W        W56723  24.118  28.538  10.957
97463W        W56724  26.967  41.365   2.379
97464W        W56725  36.492  42.973   0.901
97465W        W56726  14.258   3.368  13.848
97466W        W56727  39.876   6.865   4.198
97467W        W56728  41.909  30.541  10.034
97468W        W56729  22.048   8.745  14.477
97469W        W56730  23.721  12.770  10.929
97470W        W56731  42.872  40.328  13.520
97471W        W56732   8.178  39.547   2.702
97472W        W56733   5.364   4.316  12.342
97473W        W56734  38.486  41.895   4.249
97474W        W56735   2.271  35.878  11.537
97475W        W56736  26.695   3.921  10.431
97476W        W56737   4.232  28.468  10.533
97477W        W56738  31.550  31.962   4.633
97478W        W56739   3.403  22.026  11.400
97479W        W56740  44.770  17.704   0.959
97480W        W56741   3.807   0.458   3.710
97481W        W56742  17.248  22.617  10.501
97482W        W56743  13.745   7.770   3.263
97483W        W56744  27.622   6.888  11.562
97484W        W56745   8.328  40.962  14.465
97485W        W56746  25.166  18.128   1.797
97486W        W56747  18.570  16.606   0.443
97487W        W56748  25.669  31.501  14.295
97488W        W56749  44.778   3.427   0.483
97489W        W56750  31.958  42.517  13.841
97490W        W56751   0.363  23.516  14.994
97491W        W56752   9.726   7.403  11.397
97492W        W56753  26.980  17.250   2.902
97493W        W56754   8.399  18.696  11.085
97494W        W56755   6.263   8.721  11.400
97495W        W56756  20.233  19.090  12.947
97496W        W56757   0.322  31.119   2.741
97497W        W56758  37.047  42.455   4.338
97498W        W56759  35.591  15.157   0.452
97499W        W56760  14.147  14.731   2.285
97500W        W56761   5.414  31.134   1.722
97501W        W56762  20.160  38.918  14.383
97502W        W56763  33.902  24.989   2.793
97503W        W56764   3.237  24.711  10.989
97504W        W56765  27.057  35.556  12.517
97505W        W56766   3.407  40.911   0.271
97506W        W56767  16.794  37.505  11.423
97507W        W56768  11.770   8.709   2.740
97508W        W56769  13.671  31.522   0.331
97509W        W56770  37.864  40.868  10.899
97510W        W56771   5.406   5.739  12.524
97511W        W56772   1.406  19.163  10.596
97512W        W56773  23.033   1.798  13.832
97513W        W56774  20.649  40.054   1.275
97514W        W56775  40.919  44.783  11.472
97515W        W56776   0.379  29.468  14.953
97516W        W56777  39.419  34.397   9.499
97517W        W56778  36.554  18.167  11.886
97518W        W56779  10.227  33.449   2.390
97519W        W56780  11.210  13.125  11.895
97520W        W56781  21.181   9.155  14.939
97521W        W56782  28.173  33.102  11.047
97522W        W56783   3.769  33.936   3.199
97523W        W56784  24.491  12.806  10.563
97524W        W56785  14.755  37.434  11.487
97525W        W56786  22.564  14.591   1.237
97526W        W56787   0.464  42.471  10.615
97527W        W56788   8.272  24.989   0.454
97528W        W56789  23.173  25.002  10.434
97529W        W56790  40.023  38.946   3.738
97530W        W56791   0.478   0.783   2.418
97531W        W56792  15.807  13.197  14.879
97532W        W56793   9.770  24.591  11.415
97533W        W56794   6.281  32.116  11.402
97534W        W56795  23.524   3.392   2.402
97535W        W56796  13.605  41.414   0.753
97536W        W56797  11.851   5.905  12.856
97537W        W56798  32.520  22.160  14.356
97538W        W56799  13.244   1.805  10.436
97539W        W56800  35.579  14.834   2.836
97540W        W56801   2.369  13.129  12.508
97541W        W56802   3.720   1.944   0.437
97542W        W56803  16.796  21.055  10.613
97543W        W56804  21.609  16.728   5.105
97544W        W56805  32.398   4.766  14.478
97545W        W56806   4.860  22.083  13.932
97546W        W56807  29.941  29.154  13.386
97547W        W56808  33.118   7.681  13.465
97548W        W56809  15.650  18.095   2.234
97549W        W56810  39.385  13.614   4.199
97550W        W56811  39.036  30.516  10.488
97551W        W56812   0.347  14.712   1.365
97552W        W56813   0.955  26.102  12.504
97553W        W56814  42.414  10.718  11.015
97554W        W56815  40.863  16.582   2.348
97555W        W56816  31.131  23.577  10.956
97556W        W56817  26.496   3.861   1.785
97557W        W56818  21.580   4.877   3.639
97558W        W56819  24.075  24.658   0.872
97559W        W56820  17.306  43.887   0.333
97560W        W56821   0.961  19.201  11.471
97561W        W56822   2.355  13.348  10.468
97562W        W56823  34.455  14.708   3.283
97563W        W56824  31.979  40.484   2.732
97564W        W56825  26.641  42.423   4.605
97565W        W56826  14.253  15.620   2.408
97566W        W56827   0.859  31.601  13.000
97567W        W56828  41.481  14.628  14.473
97568W        W56829  12.311  37.840   0.858
97569W        W56830  15.587  37.565   2.343
97570W        W56831  36.375  42.435   4.732
97571W        W56832   5.431  28.965  10.485
97572W        W56833   1.927   1.802  13.416
97573W        W56834  14.290  38.050   3.795
97574W        W56835  21.641  37.355   3.339
97575W        W56836  38.956  31.584   3.674
97576W        W56837  35.944  41.912  12.513
97577W        W56838  44.370   3.332   2.881
97578W        W56839  13.116  31.597   2.269
97579W        W56840   0.895  23.552   3.277
97580W        W56841  21.596  22.535  10.070
97581W        W56842  19.203  18.210   4.723
97582W        W56843   3.934  11.282   4.725
97583W        W56844  29.964  12.820  11.941
97584W        W56845  23.119  16.251  14.989
97585W        W56846  41.508   2.343  14.504
97586W        W56847  44.782  16.699  11.015
97587W        W56848  32.032   4.705   0.372
97588W        W56849   5.434  20.242  13.403
97589W        W56850  41.953   5.343  11.423
97590W        W56851  35.577  42.911  11.910
97591W        W56852  25.113  14.676  11.020
97592W        W56853  15.091   3.365   5.596
97593W        W56854  23.995  12.711   1.834
97594W        W56855  27.115  43.487  10.642
97595W        W56856  33.497  30.913  13.901
97596W        W56857   8.222  12.334   0.819
97597W        W56858  25.638  28.108   0.818
97598W        W56859  17.742   3.942   0.298
97599W        W56860  25.190  11.752  12.991
97600W        W56861  20.627  43.442   2.850
97601W        W56862  28.067   0.326   0.946
97602W        W56863  25.121   5.728  14.991
97603W        W56864  23.141  31.997  13.468
97604W        W56865  42.318  42.330   3.365
97605W        W56866  15.253  28.487  14.494
97606W        W56867  44.458  14.711  12.905
97607W        W56868  40.322  32.073  11.062
97608W        W56869  27.019  14.734   0.409
97609W        W56870  20.684   4.907   4.638
97610W        W56871  35.398  34.519  11.584
97611W        W56872   7.275  14.201  10.907
97612W        W56873  27.133  44.876   1.445
97613W        W56874  24.100   9.207  13.975
97614W        W56875  18.199  14.675   0.762
97615W        W56876   6.322  35.582  10.510
97616W        W56877  19.054  19.082   3.285
97617W        W56878  28.666  15.224  12.037
97618W        W56879  37.347  41.928  10.958
97619W        W56880  32.413   3.867   2.755
97620W        W56881  11.331  23.153  10.605
97621W        W56882  29.660  29.060   4.241
97622W        W56883  33.516   5.282   5.193
97623W        W56884   7.774  12.225   0.342
97624W        W56885  18.103  18.656   5.785
97625W        W56886  40.473  13.143  11.926
97626W        W56887  41.030  20.550  14.419
97627W        W56888   3.770  24.614   4.746
97628W        W56889  15.823  43.466   5.259
97629W        W56890   3.910  26.458   4.201
97630W        W56891  44.787  44.948   0.393
97631W        W56892  11.855  26.093  12.500
97632W        W56893  22.043  17.612   3.644
97633W        W56894  36.998  29.577   0.413
97634W        W56895  33.403  23.732   1.333
97635W        W56896  12.695  38.824   4.749
97636W        W56897  32.604   2.766   0.871
97637W        W56898  43.270  41.357  14.906
97638W        W56899  15.218  20.260   3.160
97639W        W56900  25.037  10.772  12.018
97640W        W56901   0.773  21.054   0.943
97641W        W56902  34.459  13.212  11.550
97642W        W56903  20.133  20.142   3.212
97643W        W56904  11.689   8.240  11.542
97644W        W56905  20.675  38.989  14.399
97645W        W56906  41.024  32.121   2.221
97646W        W56907  41.950  23.197   2.270
97647W        W56908  37.972   5.759   0.469
97648W        W56909  17.255  25.193   3.655
97649W        W56910  30.504  41.847   1.333
97650W        W56911  10.829  28.942   2.254
97651W        W56912  39.346  39.889  12.082
97652W        W56913  14.193  35.397  12.514
97653W        W56914   6.347   0.954  11.419
97654W        W56915  33.123  24.569   0.297
97655W        W56916  22.728  24.201   5.287
97656W        W56917   9.331  25.601   1.240
97657W        W56918  40.055  15.727   3.683
97658W        W56919  20.760  44.975   0.832
97659W        W56920  42.848   8.391  14.021
97660W        W56921  43.453   9.704  13.364
97661W        W56922   3.357  20.258   0.448
97662W        W56923  40.474  41.366  13.955
97663W        W56924  25.140  24.654  14.857
97664W        W56925  11.212  30.557   0.446
97665W        W56926  42.293  11.760   0.480
97666W        W56927  24.150  18.211  11.531
97667W        W56928  44.882  13.153  11.129
97668W        W56929   8.771  31.010   3.301
97669W        W56930  16.579  15.181  11.521
97670W        W56931  36.973  39.436   2.316
97671W        W56932  35.468  33.937  12.490
97672W        W56933   8.188  25.596  12.501
97673W        W56934  20.113  26.538   4.695
97674W        W56935  20.618   5.365  13.933
97675W        W56936  24.698  29.174  10.929
97676W        W56937   8.800  28.100  12.567
97677W        W56938  19.607  17.583  11.557
97678W        W56939  18.207  34.030   4.211
97679W        W56940   1.814  10.656   3.770
97680W        W56941  14.775  26.994  13.406
97681W        W56942  28.587  34.863   4.635
97682W        W56943  23.664  24.143  10.476
97683W        W56944   3.796   7.246   1.742
97684W        W56945   8.862  43.963   4.143
97685W        W56946   4.890   2.244  12.564
97686W        W56947  42.944  17.185  14.954
97687W        W56948  26.578   9.886  13.497
97688W        W56949   1.763   9.229   3.815
97689W        W56950  33.424  25.177  10.537
97690W        W56951   8.336  36.006   1.299
97691W        W56952  43.398  43.019  12.353
97692W        W56953   9.382  25.176   1.372
97693W        W56954  42.374  21.663   4.268
97694W        W56955   8.242  10.798  10.970
97695W        W56956  40.439  36.882   2.285
97696W        W56957  31.413   2.398   0.260
97697W        W56958  28.581  10.705  13.970
97698W        W56959  34.490  18.087  12.958
97699W        W56960  32.097  35.411  12.885
97700W        W56961   3.826  17.226   3.677
97701W        W56962   1.762  17.278   1.332
97702W        W56963  16.707  23.220  14.420
97703W        W56964  25.129   5.209   3.384
97704W        W56965  35.006  13.816  11.413
97705W        W56966  12.687  11.817   2.778
97706W        W56967  30.915  38.952  11.111
97707W        W56968  19.098  31.917  10.620
97708W        W56969  15.263  31.123   4.344
97709W        W56970  36.891  36.970   4.351
97710W        W56971  39.513   3.285   3.155
97711W        W56972  19.760  27.080   2.735
97712W        W56973  15.807  12.295  11.855
97713W        W56974  37.853  15.777  14.760
97714W        W56975   4.214   8.359  10.404
97715W        W56976  11.275  31.098  14.915
97716W        W56977   8.816  28.673   3.193
97717W        W56978  27.092   4.256   3.207
97718W        W56979  15.750  19.165   2.766
97719W        W56980  22.584   1.272  12.067
97720W        W56981  38.975  15.257  14.332
97721W        W56982  41.938  24.148  10.926
97722W        W56983  31.151  18.580   3.282
97723W        W56984   1.902  42.505  14.314
97724W        W56985  38.057  23.211  13.832
97725W        W56986  13.728  14.135  13.353
97726W        W56987  25.549  26.592   5.185
97727W        W56988  18.581  22.591  13.315
97728W        W56989  32.088  15.663   5.302
97729W        W56990   0.474  42.481   3.734
97730W        W56991  18.784   3.867  14.918
97731W        W56992   3.330   7.665  13.909
97732W        W56993  23.032  20.228   2.341
97733W        W56994   3.353  28.062   3.805
97734W        W56995  42.402  12.856  11.047
97735W        W56996  12.740  28.054   3.231
97736W        W56997  18.126  35.578   0.352
97737W        W56998   4.446  36.842   0.916
97738W        W56999   9.729  10.145  13.938
97739W        W57000  15.677  25.491  11.075
97740W        W57001  20.602  22.149  11.888
97741W        W57002  35.996  23.613   4.349
97742W        W57003  37.052  14.705  13.476
97743W        W57004   3.791  36.439   0.786
97744W        W57005  31.119  14.306  13.519
97745W        W57006   3.434   9.190  13.835
97746W        W57007  35.366  30.109   4.130
97747W        W57008  15.129  25.049   9.523
97748W        W57009  17.249   2.760  11.484
97749W        W57010  23.608  18.605   2.765
97750W        W57011   6.711  32.472  14.301
97751W        W57012  23.231   2.228  12.555
97752W        W57013  43.884  35.031  13.439
97753W        W57014   3.907  22.529  10.152
97754W        W57015  37.061  31.599   3.778
97755W        W57016  35.427  20.138   2.765
97756W        W57017  17.560   9.869  12.361
97757W        W57018  30.938  35.933  11.429
97758W        W57019  23.489  40.967   0.889
97759W        W57020  22.681  31.023  10.975
97760W        W57021  35.860  35.979  11.029
97761W        W57022  18.266  34.430   2.321
97762W        W57023   6.321  40.329  14.800
97763W        W57024  40.514   9.333  14.301
97764W        W57025  19.612   0.480  12.421
97765W        W57026  40.329  20.134  10.946
97766W        W57027  28.073  42.996   1.711
97767W        W57028  22.631  33.933  14.441
97768W        W57029   7.178  18.675  10.923
97769W        W57030  13.168  44.853   4.294
97770W        W57031  33.006  34.541   4.212
97771W        W57032  40.319  29.933   3.788
97772W        W57033  27.514   0.403   2.408
97773W        W57034  14.102  22.045  11.549
97774W        W57035  12.724  22.566   3.851
97775W        W57036  29.505  19.738  14.991
97776W        W57037  16.292  35.088  11.933
97777W        W57038  28.529  29.060   1.365
97778W        W57039  26.108   3.926   4.117
97779W        W57040  35.565  37.005   0.424
97780W        W57041  22.235  23.564  12.899
97781W        W57042  43.273  30.953   2.760
97782W        W57043   5.732  29.449   3.719
97783W        W57044  44.872  43.395   0.349
97784W        W57045  26.052  37.037   4.632
97785W        W57046   2.823  30.919  13.917
97786W        W57047  17.300   3.279   0.337
97787W        W57048   4.723  18.624  11.373
97788W        W57049  37.868   2.756  14.765
97789W        W57050  34.922   6.196  10.532
97790W        W57051  23.617  28.529   0.938
97791W        W57052   3.285  34.475  13.405
97792W        W57053  44.432   6.907  10.436
97793W        W57054  36.021  26.461  13.505
97794W        W57055  21.561  40.380  14.824
97795W        W57056   4.851  14.811   4.822
97796W        W57057  14.657  38.400  10.416
97797W        W57058  22.673  32.544   4.613
97798W        W57059   9.220  37.375   4.165
97799W        W57060  13.167  38.950  14.012
97800W        W57061  30.974  22.998   3.155
97801W        W57062  39.009  10.756   2.900
97802W        W57063  42.999  13.691  14.992
97803W        W57064  28.515  30.131  10.500
97804W        W57065  26.088  24.217  14.474
97805W        W57066  41.792   6.902   0.470
97806W        W57067  37.946   8.329   1.838
97807W        W57068   8.663  35.052   4.352
97808W        W57069   5.306  33.533  12.576
97809W        W57070  27.125  25.668   0.317
97810W        W57071   1.843   2.844   4.766
97811W        W57072  31.910  33.562  14.325
97812W        W57073  25.566  37.959  11.485
97813W        W57074  34.454  39.877  10.505
97814W        W57075  33.537  29.016   2.695
97815W        W57076  11.760  27.053   0.362
97816W        W57077  43.907   3.874  13.955
97817W        W57078  11.746  35.075   0.791
97818W        W57079  42.863   2.893   4.827
97819W        W57080  19.630  11.367  12.965
97820W        W57081   2.249  41.529   0.284
97821W        W57082  29.138  32.070  13.350
97822W        W57083   8.180  20.697   2.372
97823W        W57084  12.289  28.934  13.346
97824W        W57085  28.573   9.789   2.901
97825W        W57086   1.361   2.758  10.921
97826W        W57087  35.548  21.731   2.315
97827W        W57088  19.590   7.178  12.070
97828W        W57089  18.296  30.994   2.802
97829W        W57090  27.155  41.958   3.781
97830W        W57091  40.396  37.955  14.882
97831W        W57092   3.734  41.868   3.325
97832W        W57093  41.014  25.061  11.539
97833W        W57094  32.495  24.540  11.110
97834W        W57095   1.306  37.342  11.425
97835W        W57096  27.197  24.070  14.413
97836W        W57097  15.281   1.319   3.146
97837W        W57098   1.350   7.359  14.901
97838W        W57099  39.382   7.889  13.358
97839W        W57100   9.670  19.664   0.810
97840W        W57101  26.561  26.017  13.512
97841W        W57102  40.436  30.639  13.462
97842W        W57103  14.703   4.411  11.925
97843W        W57104  30.935  37.400  10.983
97844W        W57105  10.640  36.526  14.944
97845W        W57106  24.119  34.551   4.304
97846W        W57107  27.192  29.631  11.994
97847W        W57108   0.987  14.215   1.218
97848W        W57109   0.334  40.861   4.124
97849W        W57110  23.085  44.907   2.315
97850W        W57111   1.411  28.148   0.451
97851W        W57112  19.667  14.758  14.405
97852W        W57113   0.800   0.840   1.750
97853W        W57114   7.193  23.065   2.834
97854W        W57115  25.627  20.230   2.704
97855W        W57116  13.744  19.262   3.664
97856W        W57117   3.913   2.959   1.415
97857W        W57118  17.132  42.792   2.719
97858W        W57119  31.030  40.393   2.341
97859W        W57120   8.805  13.320   3.347
97860W        W57121  25.008   9.706  13.893
97861W        W57122  20.181  43.477   0.464
97862W        W57123  37.059   8.712  13.512
97863W        W57124   5.383  18.142  11.050
97864W        W57125  20.255  31.968  11.897
97865W        W57126  21.537  26.700   1.373
97866W        W57127  43.339  28.676  13.443
97867W        W57128  26.547  20.644  14.320
97868W        W57129  41.347   5.833   4.139
97869W        W57130  31.608  34.481  13.469
97870W        W57131  22.155  14.176   0.912
97871W        W57132  24.590  12.165   0.880
97872W        W57133  19.246  37.541  13.350
97873W        W57134   4.734  19.730  14.768
97874W        W57135  16.289  18.620  10.909
97875W        W57136   2.858  33.610  14.403
97876W        W57137  15.106  26.997   0.321
97877W        W57138  23.550   4.223  14.784
97878W        W57139  15.157  37.536  14.451
97879W        W57140   1.817  21.202   1.861
97880W        W57141  43.955  43.870  13.894
97881W        W57142   6.737  35.413   1.230
97882W        W57143  14.124  10.215   2.883
97883W        W57144  27.179  23.593  14.290
97884W        W57145  17.782  34.416   4.169
97885W        W57146  32.543  23.557  13.970
97886W        W57147   4.836  34.477  10.555
97887W        W57148  37.896  13.177  10.988
97888W        W57149  39.377  17.709  14.458
97889W        W57150  11.148  21.115  14.835
97890W        W57151   0.420  32.507  12.905
97891W        W57152  40.342   4.242  10.621
97892W        W57153  33.559  44.386  14.001
97893W        W57154  33.411  33.070   1.333
97894W        W57155   9.766  16.706  11.869
97895W        W57156  25.156  31.043  14.813
97896W        W57157  42.477  25.706   1.837
97897W        W57158  13.672  35.962  10.497
97898W        W57159   1.447  31.433  13.337
97899W        W57160  17.666  16.083  12.464
97900W        W57161   2.753  37.382  12.866
97901W        W57162  43.804  42.031  11.514
97902W        W57163  24.008  42.463  14.813
97903W        W57164  37.871  43.502   4.806
97904W        W57165  26.196   7.903  11.992
97905W        W57166  12.685  17.121   0.790
97906W        W57167  27.974  26.069  10.922
97907W        W57168  29.099  11.669   3.237
97908W        W57169  43.425   4.881   0.468
97909W        W57170  27.674  20.604  13.794
97910W        W57171  30.051  40.409  11.580
97911W        W57172   2.933   8.854  11.434
97912W        W57173  31.494  28.482   0.743
97913W        W57174   6.254  33.068  13.435
97914W        W57175  34.476  36.015   2.743
97915W        W57176  25.524  44.777  14.826
97916W        W57177  29.551  43.770   3.731
97917W        W57178  39.415  32.036   3.338
97918W        W57179  31.505  43.919   0.261
97919W        W57180  26.039  19.678  13.455
97920W        W57181  12.819  34.376  10.541
97921W        W57182  30.032  16.215   4.734
97922W        W57183  25.629   6.221   3.355
97923W        W57184  16.148  15.165   0.331
97924W        W57185  42.519   4.774   4.772
97925W        W57186  12.827  41.433   0.300
97926W        W57187  41.357  36.914  13.483
97927W        W57188  11.233  23.141   0.351
97928W        W57189  26.016   5.203   1.353
97929W        W57190  44.879   1.856  14.490
97930W        W57191  24.148  22.566  14.483
97931W        W57192  33.122  27.032  11.073
97932W        W57193  16.198  35.050  13.482
97933W        W57194  16.686  21.132   4.327
97934W        W57195  35.042  39.018   4.799
97935W        W57196  18.767  40.972   0.397
97936W        W57197   8.308   9.884   1.767
97937W        W57198  23.499  17.563  11.538
97938W        W57199   1.375  27.133  11.048
97939W        W57200   0.450  10.365  13.934
97940W        W57201  41.466  37.086   5.222
97941W        W57202   1.960  23.714  12.339
97942W        W57203   6.192  25.065   0.735
97943W        W57204  15.103  24.176  10.604
97944W        W57205  27.120  20.241   4.215
97945W        W57206  33.938  44.785   0.892
97946W        W57207   0.386   4.848  10.001
97947W        W57208   8.826   9.187   3.846
97948W        W57209  31.468  17.129   3.265
97949W        W57210   6.354  15.684   4.198
97950W        W57211  18.136  10.749  12.490
97951W        W57212  16.145  31.085  13.948
97952W        W57213  14.315  40.864   3.361
97953W        W57214  14.818  36.931   4.775
97954W        W57215  37.392  12.788   1.893
97955W        W57216  14.186  42.801  10.627
97956W        W57217   1.276   4.229  12.824
97957W        W57218  24.078  41.802  12.434
97958W        W57219  28.082  18.157  14.821
97959W        W57220  24.208  19.146   2.855
97960W        W57221   3.257   0.930  12.013
97961W        W57222  20.179  36.505  11.396
97962W        W57223  25.096  17.065   4.333
97963W        W57224  22.096  31.984   3.794
97964W        W57225  34.021   0.426   0.268
97965W        W57226   9.308  10.817   3.351
97966W        W57227  26.165  10.652  11.908
97967W        W57228  37.407  32.461   0.433
97968W        W57229  16.726   2.252   4.210
97969W        W57230  42.960  44.904   3.700
97970W        W57231  21.107   2.951   4.777
97971W        W57232  21.244  21.723   2.681
97972W        W57233   2.869   4.886  14.025
97973W        W57234   8.276  23.152   3.213
97974W        W57235  14.803  14.641  14.483
97975W        W57236  16.177  38.430   4.202
97976W        W57237  26.070   2.837   2.683
97977W        W57238  40.501   2.357  12.347
97978W        W57239  34.544  29.920  11.888
97979W        W57240  16.701   6.213  14.464
97980W        W57241   0.433   2.943  12.424
97981W        W57242  18.238  35.101   4.802
97982W        W57243  29.645  32.110   4.256
97983W        W57244  40.379  23.610  11.468
97984W        W57245  44.916  43.384  14.448
97985W        W57246  32.408  37.575  11.592
97986W        W57247  43.494  12.828   1.878
97987W        W57248  20.714  33.084  14.383
97988W        W57249   8.236  36.356   1.843
97989W        W57250  37.582  37.848  10.120
97990W        W57251  43.852  12.781  12.985
97991W        W57252  36.368  12.174  13.511
97992W        W57253   8.370   6.703   5.127
97993W        W57254   3.418  19.140   0.855
97994W        W57255  24.708  26.554  14.928
97995W        W57256  30.005  30.126  14.420
97996W        W57257  18.077  13.799  13.901
97997W        W57258  25.076  30.042  11.992
97998W        W57259  18.724  10.347  10.968
97999W        W57260  31.462  21.052  10.966
98000W        W57261  24.034  23.701   1.850
98001W        W57262  36.393  34.594  10.501
98002W        W57263   7.679  34.898   3.726
98003W        W57264   2.264  33.625  13.453
98004W        W57265  38.842  22.643  11.034
98005W        W57266   0.814  17.639  12.352
98006W        W57267  39.359  23.636  11.054
98007W        W57268   5.383  44.801   2.778
98008W        W57269  33.042  39.314   1.348
98009W        W57270  35.438  23.191  10.631
98010W        W57271  32.128  19.248  13.927
98011W        W57272  10.761  43.929  13.444
98012W        W57273  18.752  36.965   4.170
98013W        W57274  30.623  11.357   4.303
98014W        W57275  43.976  16.764  11.585
98015W        W57276  25.612   5.224   3.782
98016W        W57277   6.336  39.028  13.993
98017W        W57278  41.930  14.138   0.322
98018W        W57279  21.548  30.496   2.784
98019W        W57280   8.183   9.213  10.514
98020W        W57281  14.626  26.465  12.966
98021W        W57282  22.591  15.627   5.313
98022W        W57283  13.176  12.188  13.997
98023W        W57284  34.963  16.131  12.483
98024W        W57285  13.206   6.192   3.758
98025W        W57286  42.443   5.305   4.652
98026W        W57287  23.004  35.409   3.794
98027W        W57288   3.413  30.071   0.914
98028W        W57289  38.400  14.622   2.799
98029W        W57290  22.582  35.555  12.824
98030W        W57291  28.135   7.327   2.696
98031W        W57292  39.841   7.307   1.278
98032W        W57293  31.948   2.391   2.206
98033W        W57294  25.477   0.352   2.342
98034W        W57295  17.645   5.223   1.282
98035W        W57296  15.145  26.980  14.422
98036W        W57297  20.721  13.276  13.791
98037W        W57298   0.256  35.411   3.639
98038W        W57299  30.046  19.750  10.435
98039W        W57300  31.497  43.322   4.292
98040W        W57301  15.696  16.149  11.474
98041W        W57302  27.673  36.909  11.530
98042W        W57303  26.953  41.995   2.240
98043W        W57304  41.488  37.393   3.659
98044W        W57305  28.177  24.680  10.552
98045W        W57306   4.888   4.787   4.276
98046W        W57307  34.102  44.967  14.403
98047W        W57308  28.034  32.930   4.230
98048W        W57309  21.705  27.502   0.366
98049W        W57310   1.344  29.115   0.770
98050W        W57311  14.595   1.298   3.384
98051W        W57312  32.592  36.905   4.623
98052W        W57313  30.081   7.395  11.055
98053W        W57314  31.920   7.741  10.143
98054W        W57315   8.393   8.223  11.484
98055W        W57316  26.646  29.128   3.315
98056W        W57317  37.855  20.748   2.256
98057W        W57318  15.086   1.952  11.586
98058W        W57319   8.377   4.738  13.316
98059W        W57320  44.783  23.600   0.320
98060W        W57321  37.087  24.003   3.702
98061W        W57322  36.896  30.098  11.592
98062W        W57323  36.948  30.026  12.982
98063W        W57324  25.523  14.296  11.878
98064W        W57325  31.424  37.022  14.993
98065W        W57326  12.790   7.309  11.407
98066W        W57327   9.832   1.457  11.388
98067W        W57328   1.457   4.898  11.545
98068W        W57329  31.062  33.593   9.945
98069W        W57330   1.366  19.565  11.592
98070W        W57331  37.876  25.532   4.291
98071W        W57332   2.841  21.058  14.340
98072W        W57333  37.574  16.195   3.231
98073W        W57334  11.326  34.404  14.991
98074W        W57335  17.574  37.409  14.382
98075W        W57336  16.807  32.963  13.957
98076W        W57337  13.836  39.064  14.449
98077W        W57338  28.643  40.350   1.433
98078W        W57339  39.474  18.156  14.284
98079W        W57340  12.248  15.610   3.336
98080W        W57341  14.644  33.124  13.468
98081W        W57342  35.383  39.892  11.014
98082W        W57343  26.143  40.396  11.044
98083W        W57344  23.660   3.899   9.949
98084W        W57345   1.290  37.981   0.372
98085W        W57346  20.068  20.618   3.773
98086W        W57347  12.815  31.525   1.215
98087W        W57348   7.889  37.338  12.009
98088W        W57349  27.488   1.927  13.334
98089W        W57350  18.126  18.639  14.976
98090W        W57351   8.670   6.389  11.485
98091W        W57352   3.744  26.018  10.601
98092W        W57353   8.892  20.228  14.897
98093W        W57354  38.540  24.518   1.332
98094W        W57355  22.125  16.612   1.767
98095W        W57356   2.945  32.085   3.651
98096W        W57357   1.829   8.864   2.819
98097W        W57358  20.762  18.140   3.653
98098W        W57359  10.874   5.248   1.426
98099W        W57360  44.271  32.491  12.396
98100W        W57361  32.499  25.545   0.401
98101W        W57362  18.194  24.159  12.848
98102W        W57363  29.627  41.448  10.643
98103W        W57364  20.652  31.902  12.383
98104W        W57365  23.687  16.169  14.338
98105W        W57366   4.861   1.287  10.496
98106W        W57367   8.303   1.405  11.444
98107W        W57368  20.257  38.398  10.622
98108W        W57369  19.217  23.068  10.998
98109W        W57370  39.901   7.176   2.709
98110W        W57371  27.983  41.396  12.560
98111W        W57372  13.741   2.797  14.832
98112W        W57373  21.206  10.293  11.902
98113W        W57374  15.232  21.028   0.279
98114W        W57375   3.460  32.501   2.752
98115W        W57376  41.533  30.011  10.952
98116W        W57377  25.671  20.559  12.037
98117W        W57378  13.815  32.937  13.425
98118W        W57379   3.768   3.737   3.633
98119W        W57380  11.283   2.429   4.622
98120W        W57381   8.346  42.001   3.215
98121W        W57382  35.928  21.716   2.863
98122W        W57383   2.364  28.062  10.534
98123W        W57384  44.285  30.064   0.455
98124W        W57385  13.776  12.233  10.602
98125W        W57386  41.484   3.780   3.311
98126W        W57387  31.538  40.020  11.081
98127W        W57388  40.871  27.664  14.318
98128W        W57389  16.160  24.982  10.911
98129W        W57390  23.996  27.976   4.275
98130W        W57391  28.457  31.507  14.428
98131W        W57392  34.925  33.545   3.707
98132W        W57393  39.062  32.597   3.312
98133W        W57394  24.169  41.444  10.997
98134W        W57395  20.556  30.047  13.817
98135W        W57396  32.131  20.247  10.571
98136W        W57397  29.544  36.028  10.146
98137W        W57398   7.778   1.408  11.906
98138W        W57399   8.805  29.507   2.222
98139W        W57400   2.944  34.506  13.056
98140W        W57401  18.117  37.581   4.116
98141W        W57402  23.986  32.055   2.362
98142W        W57403   3.426  37.539  14.830
98143W        W57404  35.037  36.974  12.954
98144W        W57405  18.186  30.159   2.766
98145W        W57406  18.214  39.906   3.822
98146W        W57407  16.646  33.977  10.519
98147W        W57408  39.899  15.249   4.302
98148W        W57409  34.867  25.043   4.679
98149W        W57410   4.835  37.462   2.218
98150W        W57411  30.933  32.975  12.428
98151W        W57412   9.366  17.303   0.807
98152W        W57413  28.169  31.576  12.376
98153W        W57414  13.708   9.803  12.031
98154W        W57415   1.363  25.115   3.711
98155W        W57416  31.604  30.452  12.833
98156W        W57417  11.678  17.597  11.561
98157W        W57418  25.061  19.630  11.527
98158W        W57419  20.226   3.256   3.784
98159W        W57420  37.517  39.407   3.292
98160W        W57421  36.476  10.141   1.893
98161W        W57422  29.486   5.196   0.964
98162W        W57423  38.367  36.028   0.330
98163W        W57424  12.330  43.802  12.969
98164W        W57425  36.030  11.183   4.266
98165W        W57426  19.057   5.725   0.751
98166W        W57427   0.313  17.596  10.914
98167W        W57428   5.236  20.560  11.442
98168W        W57429   8.819  42.474   2.348
98169W        W57430  30.920   2.866  12.018
98170W        W57431  41.413   0.317   0.736
98171W        W57432  16.099   8.277   1.425
98172W        W57433  43.286  36.974  11.478
98173W        W57434  31.560  40.960  10.508
98174W        W57435  11.290  35.399  11.442
98175W        W57436   0.810  26.154  14.341
98176W        W57437  42.401  10.321   4.185
98177W        W57438  15.208   6.313  13.488
98178W        W57439  43.350  32.509  11.032
98179W        W57440   1.889   1.743  14.860
98180W        W57441  40.821  29.496   3.693
98181W        W57442  34.990   9.234   2.243
98182W        W57443  10.764   8.766  10.529
98183W        W57444   8.676  27.141  11.470
98184W        W57445  31.635  43.375  12.343
98185W        W57446  24.998  37.548   2.717
98186W        W57447  24.526   4.246  10.916
98187W        W57448  37.357  14.097  13.038
98188W        W57449  20.087  36.569   2.855
98189W        W57450  15.657  38.514   0.354
98190W        W57451  41.015  25.157   0.739
98191W        W57452  19.548  32.468  11.077
98192W        W57453   8.814  13.704   2.419
98193W        W57454  10.758  37.493   1.283
98194W        W57455  27.462  38.902   2.294
98195W        W57456  36.487  26.474  14.341
98196W        W57457   6.223  13.217   0.853
98197W        W57458   9.783  23.211  11.890
98198W        W57459   9.731  20.188   3.207
98199W        W57460   1.474  29.639  12.445
98200W        W57461  40.537  38.965   1.268
98201W        W57462  20.604   4.252   1.339
98202W        W57463  14.821  31.974   4.674
98203W        W57464   8.859  33.982  14.973
98204W        W57465  11.764   1.346  11.459
98205W        W57466  29.103   1.847  14.836
98206W        W57467   6.729  24.985  13.532
98207W        W57468  19.151   9.809  12.399
98208W        W57469  35.429  35.555  13.367
98209W        W57470  23.000  29.140  14.886
98210W        W57471  14.156  37.361  11.378
98211W        W57472  11.242  32.929  14.997
98212W        W57473  40.961  40.532   4.135
98213W        W57474  28.469  42.441   1.210
98214W        W57475  14.292  32.036   3.243
98215W        W57476   6.190   3.289  11.076
98216W        W57477  41.475  37.061   3.267
98217W        W57478   4.801  18.741   1.761
98218W        W57479   9.867  37.075   2.754
98219W        W57480  37.956  36.957  11.474
98220W        W57481  15.721  44.421   2.708
98221W        W57482   9.290  35.104  12.872
98222W        W57483  15.666  18.102  10.131
98223W        W57484  11.834   8.732   5.216
98224W        W57485   2.292  37.857  11.412
98225W        W57486  22.663  18.682   4.674
98226W        W57487  37.506  36.089   3.778
98227W        W57488  23.704  13.311  11.443
98228W        W57489  42.437  17.074   2.384
98229W        W57490  14.234  12.713  10.596
98230W        W57491  21.541  11.706  14.279
98231W        W57492  18.258  26.634  12.856
98232W        W57493  16.230  31.035   3.154
98233W        W57494  11.706  33.474   4.641
98234W        W57495  44.823  10.221   4.636
98235W        W57496  14.697  22.080   4.177
98236W        W57497  36.852  30.918   2.749
98237W        W57498   5.844  32.561  14.430
98238W        W57499  40.967  39.474   5.277
98239W        W57500   4.779  36.366  12.388
98240W        W57501  13.296  30.500   2.316
98241W        W57502  34.582  19.535   0.933
98242W        W57503  13.655  19.073   2.778
98243W        W57504  33.482  12.724  10.552
98244W        W57505   1.811  32.935   0.284
98245W        W57506  44.458   1.270   9.934
98246W        W57507  37.018   4.793   2.205
98247W        W57508   4.383  26.185  14.848
98248W        W57509  16.621  23.022  14.910
98249W        W57510  17.736  29.498  11.608
98250W        W57511  32.964  23.168  14.758
98251W        W57512   6.894   5.882  12.516
98252W        W57513  36.875  27.461  12.412
98253W        W57514  25.212  13.130  13.415
98254W        W57515   5.818   6.212  10.090
98255W        W57516  25.090  40.012   0.416
98256W        W57517   9.852  44.457   1.248
98257W        W57518  44.267  32.486  10.580
98258W        W57519  36.887  13.191   0.479
98259W        W57520  24.500  14.641  10.586
98260W        W57521  15.096  25.060  14.900
98261W        W57522   4.776  23.698  13.946
98262W        W57523  32.397  33.979  10.976
98263W        W57524   5.805  43.393   2.867
98264W        W57525  28.051  29.104  11.400
98265W        W57526  38.860  42.823  11.497
98266W        W57527  30.027  36.535   2.254
98267W        W57528  36.462   7.743   3.208
98268W        W57529  28.658   3.895  11.404
98269W        W57530  24.721  17.725   3.148
98270W        W57531  28.038  19.149  14.955
98271W        W57532  43.865   7.795   3.350
98272W        W57533   8.704  12.307   0.778
98273W        W57534  28.670  34.052  13.867
98274W        W57535  29.117   2.255  11.924
98275W        W57536  32.064  17.181   3.219
98276W        W57537  37.572  37.348   0.316
98277W        W57538   0.470  42.976   3.361
98278W        W57539  12.788  27.174  11.865
98279W        W57540  11.822  43.915  10.901
98280W        W57541  31.959  10.197  14.475
98281W        W57542  13.291  30.979  10.482
98282W        W57543   2.432   3.385  10.946
98283W        W57544  42.394  31.090   4.159
98284W        W57545  41.868  12.213   4.675
98285W        W57546   2.394   0.284  12.866
98286W        W57547   6.252   8.368   2.279
98287W        W57548  38.055  16.596  14.941
98288W        W57549  28.473  12.723  10.932
98289W        W57550  17.589  34.891   1.825
98290W        W57551  30.611  23.068   1.820
98291W        W57552   0.976  12.296  10.555
98292W        W57553  26.508  17.173   2.671
98293W        W57554   4.376  18.657   2.370
98294W        W57555  29.994  19.695  12.375
98295W        W57556  16.205  12.845   3.274
98296W        W57557  17.772  22.139   1.857
98297W        W57558  32.434   1.348   2.245
98298W        W57559  42.440  12.700  12.823
98299W        W57560  17.704  30.544   2.699
98300W        W57561  42.517  20.645   3.707
98301W        W57562  17.290  10.229  11.060
98302W        W57563  24.602  28.517   3.865
98303W        W57564  29.993   5.290   1.793
98304W        W57565  42.815   8.719   1.339
98305W        W57566  14.743   9.341   2.393
98306W        W57567  13.224  44.338  13.828
98307W        W57568  43.308  21.745  13.036
98308W        W57569   3.359   0.256  12.363
98309W        W57570  41.980  29.554  14.326
98310W        W57571   9.151  37.399   2.812
98311W        W57572  23.580  19.608  14.475
98312W        W57573  37.069  41.885   3.811
98313W        W57574  41.906  44.907   3.746
98314W        W57575   0.377   4.259   1.815
98315W        W57576  26.173  41.353  14.449
98316W        W57577  33.439  39.372  14.886
98317W        W57578  31.084  41.835  12.553
98318W        W57579  32.424   2.456  12.955
98319W        W57580  30.638  15.248  11.463
98320W        W57581  16.594  44.297  10.924
98321W        W57582  30.625  34.111   4.634
98322W        W57583  36.353  24.230   1.894
98323W        W57584  35.553  11.827  12.949
98324W        W57585  15.808   2.359  10.949
98325W        W57586  13.167   1.815   4.666
98326W        W57587   7.416  38.870  14.953
98327W        W57588  21.560   2.280   3.691
98328W        W57589  13.227  28.552   0.737
98329W        W57590  22.222  13.616   0.853
98330W        W57591  28.681  14.796   0.474
98331W        W57592  19.089  29.980  10.408
98332W        W57593   7.392  17.111   1.422
98333W        W57594   8.778  10.321   2.854
98334W        W57595  26.596  14.237   3.762
98335W        W57596  29.606   3.914   4.803
98336W        W57597   2.849  12.794   4.133
98337W        W57598  35.394   5.757  12.484
98338W        W57599  13.835  36.919   0.892
98339W        W57600  44.301  33.047  14.420
98340W        W57601  40.360   2.897  11.569
98341W        W57602  16.275  35.869   0.421
98342W        W57603   1.408  31.128   4.314
98343W        W57604  15.636  44.931  11.913
98344W        W57605  16.125  14.677   3.230
98345W        W57606  43.977   6.914   0.796
98346W        W57607  11.745  36.005   1.364
98347W        W57608  25.168   4.860  14.778
98348W        W57609  20.627  41.351   4.210
98349W        W57610  33.032  42.817   4.762
98350W        W57611  21.668   0.946   2.314
98351W        W57612  17.064  33.923   2.181
98352W        W57613  37.885  29.452   3.155
98353W        W57614  10.328  42.349  11.448
98354W        W57615  24.012  38.410   3.225
98355W        W57616   8.209  39.028  12.374
98356W        W57617  23.611  32.918   1.840
98357W        W57618  37.003  34.529   1.378
98358W        W57619   3.289  32.993  10.481
98359W        W57620  11.838  41.447   2.397
98360W        W57621  20.061  17.268   0.460
98361W        W57622  14.740  36.089  13.483
98362W        W57623  25.075  41.996  13.854
98363W        W57624  13.241  13.701  14.454
98364W        W57625   6.803   9.157  11.373
98365W        W57626   9.321  39.483   4.620
98366W        W57627  22.724   1.740  12.482
98367W        W57628  34.963  25.108   5.188
98368W        W57629  11.672   8.825  11.002
98369W        W57630  15.100   4.445  14.921
98370W        W57631  38.493   1.388   3.191
98371W        W57632  20.230  44.908   1.428
98372W        W57633  23.541  33.993  14.894
98373W        W57634  44.861  26.122  10.476
98374W        W57635  33.400  19.761   3.383
98375W        W57636  30.927  30.415  13.378
98376W        W57637  15.734  26.506   5.140
98377W        W57638  39.998   7.870  10.507
98378W        W57639  29.518  16.624  12.070
98379W        W57640  29.605  44.955   1.364
98380W        W57641  19.148   5.863  12.077
98381W        W57642  15.749  20.056   2.286
98382W        W57643  36.027  32.929   3.341
98383W        W57644   9.841  27.009   1.445
98384W        W57645  37.993  14.328   3.211
98385W        W57646  41.426  26.207   2.847
98386W        W57647  33.436  15.748  12.854
98387W        W57648  29.504  16.178  12.429
98388W        W57649  44.903   0.969  13.359
98389W        W57650  19.549  40.054   4.772
98390W        W57651  20.162   5.769   2.378
98391W        W57652  12.841  23.164  12.418
98392W        W57653  28.960  26.477  14.902
98393W        W57654   0.954  35.046   4.615
98394W        W57655   0.912  30.493   5.223
98395W        W57656   7.386  40.427   4.343
98396W        W57657  37.417   7.875  14.426
98397W        W57658  31.024  38.539  14.937
98398W        W57659  40.013  38.974  13.964
98399W        W57660  43.435  42.009  12.569
98400W        W57661  33.885  34.969  10.644
98401W        W57662  14.160  11.784  14.957
98402W        W57663  39.859   0.476  10.586
98403W        W57664  22.065   5.840   2.665
98404W        W57665   2.263   5.907  14.980
98405W        W57666  23.137  14.190   4.125
98406W        W57667  32.062  27.461   4.279
98407W        W57668   8.843  19.667   3.641
98408W        W57669  37.411   1.347   3.252
98409W        W57670  39.509  43.811   0.412
98410W        W57671   9.163  43.989  14.793
98411W        W57672  20.538   4.765  13.396
98412W        W57673   7.812  12.213  10.579
98413W        W57674  36.391  22.740  11.430
98414W        W57675  22.089  38.987   3.345
98415W        W57676  42.342  41.886   3.277
98416W        W57677  17.269   0.395  13.407
98417W        W57678  24.081  35.937   1.439
98418W        W57679  22.071  27.578  14.415
98419W        W57680  26.064  15.319  10.965
98420W        W57681   7.730   9.236  14.312
98421W        W57682   0.974  38.960   5.155
98422W        W57683   7.287  32.598  14.483
98423W        W57684  16.595  35.439  11.503
98424W        W57685  43.874  19.589   2.227
98425W        W57686  43.384   7.719   2.786
98426W        W57687  44.355  10.230   1.248
98427W        W57688  34.094  24.687   1.769
98428W        W57689  17.274  41.820   4.257
98429W        W57690  38.459  38.905   0.298
98430W        W57691   0.938  43.804  11.103
98431W        W57692  33.984   6.410   4.829
98432W        W57693  19.777  32.401   3.705
98433W        W57694  25.204  26.033   1.263
98434W        W57695  25.219  12.175   4.758
98435W        W57696  35.878  38.052   2.211
98436W        W57697  30.441  29.583  13.464
98437W        W57698   7.871  36.953   0.821
98438W        W57699  40.887  11.319  11.887
98439W        W57700  33.441  30.637  12.086
98440W        W57701  41.387  42.390  13.939
98441W        W57702  39.903   6.742  12.073
98442W        W57703  18.770  33.580   2.180
98443W        W57704  10.673  33.037  13.496
98444W        W57705  37.858  25.575  10.457
98445W        W57706  31.447   4.795   3.276
98446W        W57707  33.097  33.407   1.370
98447W        W57708   3.867  22.654  14.428
98448W        W57709   3.360  10.154   0.370
98449W        W57710   3.429  41.929  14.986
98450W        W57711  24.111  30.072   0.379
98451W        W57712  26.088  44.472  13.960
98452W        W57713  12.216  34.029  10.939
98453W        W57714  24.200  43.954  12.011
98454W        W57715  31.539  26.983   0.326
98455W        W57716  18.291  13.186  13.836
98456W        W57717  30.081  44.803  10.123
98457W        W57718  27.035  36.502   4.722
98458W        W57719   5.357  34.901   0.472
98459W        W57720  13.685  11.171  12.474
98460W        W57721  17.765  43.790  11.598
98461W        W57722  44.397  33.506   0.456
98462W        W57723  31.145   2.856  12.952
98463W        W57724  12.194  27.651   3.695
98464W        W57725   9.888  29.967   3.378
98465W        W57726   0.451  23.512   0.421
98466W        W57727  36.044  35.102   1.714
98467W        W57728   3.421   8.255  12.024
98468W        W57729   8.704  28.616   1.719
98469W        W57730  20.244  14.154   4.716
98470W        W57731   2.858  21.109  13.363
98471W        W57732  11.335  43.814   3.665
98472W        W57733   1.907  15.200  14.011
98473W        W57734   8.769  36.548   1.311
98474W        W57735   7.319   0.326   0.394
98475W        W57736   6.878   3.832   9.599
98476W        W57737  28.049  26.509  12.897
98477W        W57738  26.509  23.590  10.507
98478W        W57739  29.159  26.459   3.690
98479W        W57740  27.164   2.466  11.518
98480W        W57741   0.481  31.046  12.071
98481W        W57742  41.943  32.410   3.847
98482W        W57743  23.001  40.520   2.838
98483W        W57744  14.298  19.084   2.258
98484W        W57745  36.894  30.105  14.994
98485W        W57746  37.433  36.454  11.120
98486W        W57747  18.292   6.905  13.026
98487W        W57748  13.320  22.075   2.383
98488W        W57749   8.781  18.249   3.725
98489W        W57750  39.946   6.705   3.731
98490W        W57751   5.209   7.811   2.238
98491W        W57752  42.505   3.235  12.381
98492W        W57753  26.157  42.492   2.281
98493W        W57754  33.555  33.022   1.919
98494W        W57755  30.913  21.251  14.509
98495W        W57756   2.821   2.804   4.113
98496W        W57757  41.928  28.498   4.211
98497W        W57758  11.269   2.946   1.278
98498W        W57759  15.276  43.476  14.841
98499W        W57760  16.716  35.454  12.551
98500W        W57761   7.194  10.699   3.325
98501W        W57762   9.644   6.902   3.259
98502W        W57763  19.548  37.076   2.707
98503W        W57764  23.213  18.191   1.710
98504W        W57765  13.624  26.078  11.382
98505W        W57766  37.368  18.702   1.420
98506W        W57767  38.040   1.296   4.115
98507W        W57768  40.422   3.286   4.647
98508W        W57769  12.323  29.996   2.296
98509W        W57770  17.280   3.322  11.062
98510W        W57771  19.184  22.041   3.329
98511W        W57772  43.423  29.151   2.387
98512W        W57773  28.970  14.694   3.641
98513W        W57774   6.314  12.803  13.813
98514W        W57775  26.670  10.161   2.296
98515W        W57776  36.011  11.667   1.306
98516W        W57777  33.125   6.403   0.859
98517W        W57778  37.529  28.036   2.711
98518W        W57779  20.124  21.234  11.529
98519W        W57780  39.418   1.885  11.487
98520W        W57781  11.347   1.764   4.692
98521W        W57782   3.440   8.232   2.679
98522W        W57783  33.515  19.103   4.620
98523W        W57784  26.188  21.640   2.209
98524W        W57785   5.258  15.601  13.337
98525W        W57786   4.861  18.190   4.305
98526W        W57787  20.738  33.423   0.849
98527W        W57788  24.032   6.875  12.870
98528W        W57789   9.281  39.981  14.015
98529W        W57790  44.009  32.581  12.533
98530W        W57791   3.948  38.380  11.983
98531W        W57792  32.106  34.411   4.744
98532W        W57793  20.664  17.279   0.461
98533W        W57794   9.220   0.949   4.179
98534W        W57795  40.432  41.978   4.349
98535W        W57796  43.865  29.452   1.815
98536W        W57797  28.980   3.352  10.616
98537W        W57798   2.254  32.414   3.242
98538W        W57799   7.742  17.707  11.031
98539W        W57800  34.068  18.168  10.907
98540W        W57801  37.959  19.129  12.061
98541W        W57802  15.086  37.550   3.367
98542W        W57803   7.313   5.865  14.940
98543W        W57804  34.076  30.126  11.030
98544W        W57805   3.770  10.778  12.038
98545W        W57806  35.978   1.473   3.364
98546W        W57807   5.241  10.202  14.018
98547W        W57808  17.557  21.575  12.966
98548W        W57809   7.666   9.290   0.876
98549W        W57810  35.006  39.336   2.291
98550W        W57811  22.609  17.294  13.818
98551W        W57812  44.324  33.443  11.070
98552W        W57813  42.028   9.213  11.987
98553W        W57814  39.913  28.561  12.395
98554W        W57815   9.689  38.365  12.354
98555W        W57816  31.476   9.357  10.445
98556W        W57817  13.348  24.003   4.754
98557W        W57818   8.228  24.500   1.313
98558W        W57819   1.337  19.045   1.325
98559W        W57820   8.768  15.182   0.765
98560W        W57821  43.318  12.670  14.948
98561W        W57822  30.921  13.750  14.831
98562W        W57823  33.109  22.192   1.431
98563W        W57824  28.608  22.746   2.248
98564W        W57825   0.874   0.460   3.150
98565W        W57826  16.793  36.067  10.545
98566W        W57827  40.321  28.116   0.929
98567W        W57828  27.069  31.946   4.629
98568W        W57829  36.869  11.269   2.671
98569W        W57830  33.593  24.983   2.291
98570W        W57831  32.113   0.344  14.514
98571W        W57832  44.925  42.928   4.639
98572W        W57833  11.207  39.011  14.509
98573W        W57834   1.902  16.568  12.862
98574W        W57835  24.121  31.449   2.396
98575W        W57836  15.747  24.108  14.281
98576W        W57837  34.989  37.881   0.419
98577W        W57838   5.272  32.110   0.263
98578W        W57839  37.392  34.477   1.852
98579W        W57840   0.872  27.652   2.377
98580W        W57841  43.442   4.287  14.860
98581W        W57842  34.965  38.472  12.433
98582W        W57843  40.913   8.388  14.461
98583W        W57844  19.658   2.782  10.422
98584W        W57845  39.516  43.401   0.789
98585W        W57846  16.267  30.413  12.553
98586W        W57847  14.173  29.984   3.170
98587W        W57848  16.164   8.282  11.992
98588W        W57849  14.677  29.036  13.468
98589W        W57850  17.659  20.525   4.237
98590W        W57851  12.232  36.401  10.949
98591W        W57852  13.618  14.804  13.388
98592W        W57853  27.571  25.999  13.803
98593W        W57854  16.577  19.281   3.709
98594W        W57855  19.730  24.696   4.308
98595W        W57856  12.651  22.212  11.488
98596W        W57857  17.711  40.016   4.608
98597W        W57858   6.260  11.230   1.355
98598W        W57859  28.180  44.264  12.038
98599W        W57860  37.942  17.676   1.868
98600W        W57861  32.000   1.936  11.907
98601W        W57862  37.365  28.542   0.869
98602W        W57863  10.214  34.994   9.984
98603W        W57864  37.477  18.244   3.239
98604W        W57865   8.754  27.570   2.382
98605W        W57866   4.346   3.853  14.992
98606W        W57867  30.018   3.898   1.298
98607W        W57868  10.834  28.448   1.757
98608W        W57869   3.258  26.542   0.248
98609W        W57870  23.594   0.440  11.998
98610W        W57871  39.483  36.367  12.950
98611W        W57872  16.764  10.703  14.352
98612W        W57873   1.913   9.229   5.135
98613W        W57874  30.985   4.208  10.407
98614W        W57875  15.130  33.446  11.931
98615W        W57876  43.354  27.638  10.936
98616W        W57877  44.791  19.626   0.468
98617W        W57878  35.097   5.693   0.805
98618W        W57879  37.462  23.009   0.760
98619W        W57880   6.904   7.690  10.606
98620W        W57881  28.163   7.881  11.494
98621W        W57882  18.246   9.172   0.876
98622W        W57883  10.717   6.812  10.078
98623W        W57884  20.569  23.545  13.538
98624W        W57885  28.171  43.821  12.421
98625W        W57886  24.672  44.802   2.821
98626W        W57887  34.492  10.709  14.766
98627W        W57888   2.323  19.614   3.380
98628W        W57889  25.181  32.490  10.894
98629W        W57890  28.538   5.769   1.811
98630W        W57891  17.602  13.655   4.674
98631W        W57892  29.466  28.669   1.391
98632W        W57893   3.398  30.145   1.346
98633W        W57894  43.995  28.569   5.802
98634W        W57895  35.560  13.284  13.868
98635W        W57896   9.815  27.983   0.415
98636W        W57897  28.045  38.380  10.613
98637W        W57898  12.699  22.704  14.406
98638W        W57899   0.866  42.523   3.247
98639W        W57900   6.763  15.132   0.767
98640W        W57901  22.043  12.811  12.956
98641W        W57902   7.862  27.508  10.548
98642W        W57903  19.758  29.961   1.315
98643W        W57904  42.803   7.705  11.006
98644W        W57905   4.809  36.080   1.213
98645W        W57906   4.816   4.907   2.828
98646W        W57907  33.128  28.480  14.005
98647W        W57908   4.780   5.892  13.040
98648W        W57909   4.837  22.615  12.999
98649W        W57910  24.210  20.563   4.679
98650W        W57911   6.274   0.879   0.252
98651W        W57912  40.973  21.720  14.812
98652W        W57913   2.892  35.417  14.852
98653W        W57914  27.548   0.979   3.720
98654W        W57915  36.407  13.722   1.232
98655W        W57916  14.656   0.800   3.320
98656W        W57917  39.451  21.067  10.453
98657W        W57918  42.511  17.306  11.967
98658W        W57919   7.209  35.452   4.606
98659W        W57920   1.390  20.184   0.852
98660W        W57921  26.005  10.342  14.826
98661W        W57922  38.956   7.668   3.720
98662W        W57923   0.493  28.463  14.768
98663W        W57924  17.089  14.776  10.047
98664W        W57925  34.372  12.150   1.715
98665W        W57926  30.071   6.326  11.004
98666W        W57927  33.480  14.769  12.962
98667W        W57928  30.114  25.616   4.828
98668W        W57929  43.418  21.661   3.690
98669W        W57930   5.390  31.045  12.553
98670W        W57931  36.046  43.842  13.371
98671W        W57932  29.137  25.172   1.780
98672W        W57933  25.091   6.291  11.994
98673W        W57934  41.033   4.734   4.759
98674W        W57935  20.700   2.418   0.480
98675W        W57936  18.225  21.595   3.293
98676W        W57937  37.896   2.423   0.430
98677W        W57938  35.485  31.028  14.948
98678W        W57939  15.621  22.605  12.471
98679W        W57940  24.057  26.591  12.339
98680W        W57941  14.299  15.253   3.179
98681W        W57942  23.645  25.050   1.756
98682W        W57943  13.228  20.203  13.395
98683W        W57944  29.077  27.985   4.600
98684W        W57945  36.053  14.630  13.952
98685W        W57946  27.676  41.817  13.054
98686W        W57947  20.551  43.369  11.114
98687W        W57948  21.024  25.520   5.259
98688W        W57949  24.018   6.909  13.872
98689W        W57950  34.976  40.425   3.643
98690W        W57951   8.185   4.727  14.303
98691W        W57952  13.609  11.702   0.480
98692W        W57953  41.923  11.818  13.371
98693W        W57954  24.601  39.535   0.755
98694W        W57955  43.354  29.160   4.718
98695W        W57956  36.011  10.690  11.456
98696W        W57957  28.548  22.624  12.440
98697W        W57958  14.257  35.987   2.834
98698W        W57959  18.213   4.376   1.774
98699W        W57960  37.940   0.931  10.514
98700W        W57961  29.508   1.420   2.796
98701W        W57962  23.703   5.700  11.008
98702W        W57963   6.218   4.340  14.794
98703W        W57964  12.652  25.713   3.788
98704W        W57965  12.760  13.660  13.512
98705W        W57966  41.527  22.163   5.725
98706W        W57967  21.736  15.284   1.276
98707W        W57968  27.469  11.701   4.801
98708W        W57969  35.439  26.086   2.672
98709W        W57970  42.029  29.000   9.989
98710W        W57971  33.096  10.814   3.849
98711W        W57972  15.745  22.243  10.590
98712W        W57973  19.127  33.964  10.521
98713W        W57974  34.948  29.438  14.795
98714W        W57975  35.060  15.133  10.925
98715W        W57976   5.422  22.153  14.404
98716W        W57977  36.083  28.040   0.760
98717W        W57978  36.409  25.064   3.845
98718W        W57979  11.622  15.140   2.331
98719W        W57980  41.438  29.535  12.508
98720W        W57981  43.356  17.679  14.279
98721W        W57982  32.558  35.878   3.669
98722W        W57983   9.325  35.509  11.940
98723W        W57984   6.771  20.618   2.879
98724W        W57985  44.803  31.940   4.650
98725W        W57986   7.837  17.252  12.091
98726W        W57987   1.774  12.681  13.415
98727W        W57988  15.623  23.499   0.482
98728W        W57989  33.448  34.992   3.682
98729W        W57990  32.498  30.129   2.669
98730W        W57991  39.480  24.100   4.257
98731W        W57992  14.156  10.182  12.447
98732W        W57993  21.560   6.808   0.849
98733W        W57994  15.587  23.033  13.464
98734W        W57995  18.091  16.793   1.792
98735W        W57996  43.296   1.460  14.925
98736W        W57997  36.934   3.365   0.794
98737W        W57998  14.721   3.358  12.969
98738W        W57999  11.273  22.502   3.195
98739W        W58000  23.081  14.331   1.393
98740W        W58001  11.843  17.304   5.301
98741W        W58002   6.821  20.141  12.394
98742W        W58003  29.473  42.326  14.287
98743W        W58004  42.342   7.833  12.502
98744W        W58005   5.850  18.068  12.894
98745W        W58006  33.080  42.890   4.220
98746W        W58007   3.781  19.245  12.020
98747W        W58008   7.397  15.647  13.022
98748W        W58009  21.730  22.504   4.164
98749W        W58010  26.658  14.643   0.909
98750W        W58011  10.257  17.159   4.159
98751W        W58012  13.121  16.727   1.831
98752W        W58013  24.513  40.407   3.752
98753W        W58014  33.568  44.970   4.599
98754W        W58015  28.632  17.193  13.989
98755W        W58016  40.349  19.190   4.262
98756W        W58017   2.335  24.049  13.925
98757W        W58018  42.900   8.380   1.402
98758W        W58019   7.319  13.688  10.503
98759W        W58020  16.673  21.665   0.424
98760W        W58021  18.259  38.932   2.681
98761W        W58022  35.559  38.949   2.754
98762W        W58023  28.002   8.319  13.991
98763W        W58024   7.741  10.835   1.322
98764W        W58025  34.369  17.223   2.182
98765W        W58026  11.304  37.846   4.117
98766W        W58027   0.355  21.130   3.800
98767W        W58028  42.905  24.489  11.611
98768W        W58029  32.928  19.076   3.728
98769W        W58030  30.147   8.727   0.806
98770W        W58031  27.505  42.522  14.963
98771W        W58032  41.395  24.003   0.916
98772W        W58033   4.343  33.115   1.734
98773W        W58034  26.104   0.286   2.301
98774W        W58035  39.457  11.867   1.817
98775W        W58036   3.317  20.699   2.695
98776W        W58037  41.516   7.771  14.004
98777W        W58038  32.110   0.822  14.760
98778W        W58039  42.435  21.578  11.984
98779W        W58040  28.537  18.060  11.921
98780W        W58041  44.901  16.182  12.030
98781W        W58042  19.684  20.661   1.404
98782W        W58043  20.074  10.290  10.584
98783W        W58044  11.227  42.930  13.903
98784W        W58045  41.379  26.669   0.364
98785W        W58046  34.490  19.044   2.844
98786W        W58047  33.448   6.231   1.876
98787W        W58048  40.015  21.618   2.181
98788W        W58049  19.749  18.573   4.322
98789W        W58050  32.510   4.229  14.881
98790W        W58051  39.062  14.694   3.737
98791W        W58052  44.899  14.749   4.834
98792W        W58053  16.187   9.292  11.608
98793W        W58054  16.709  21.637  11.397
98794W        W58055   6.217  18.747   2.825
98795W        W58056  33.458   4.777   4.770
98796W        W58057  36.965   4.329  14.390
98797W        W58058  30.450  26.074  10.892
98798W        W58059  29.995  41.938   3.724
98799W        W58060  20.762  13.349   1.226
98800W        W58061   4.317  35.439   0.392
98801W        W58062   4.433  21.569  10.893
98802W        W58063  29.525  22.097  14.998
98803W        W58064  24.025   8.189   4.327
98804W        W58065  43.855  21.706   1.391
98805W        W58066  31.401  42.978   2.717
98806W        W58067   2.343  28.599  11.586
98807W        W58068  39.450   8.821   3.280
98808W        W58069  27.644  21.190  14.409
98809W        W58070   8.171  24.992  12.535
98810W        W58071  43.837  40.388   2.270
98811W        W58072  12.188  20.186  14.937
98812W        W58073  10.752   7.693   1.227
98813W        W58074  42.852  13.341  13.347
98814W        W58075   7.251  22.084   0.795
98815W        W58076  23.535  38.453  13.513
98816W        W58077  14.267  16.206  10.605
98817W        W58078  33.542   3.954  11.911
98818W        W58079   1.378  30.515   2.353
98819W        W58080  39.870  15.318  11.438
98820W        W58081  15.626  26.589   3.348
98821W        W58082   7.183  19.121   4.796
98822W        W58083   0.884  34.406  11.376
98823W        W58084  33.521  12.663  14.388
98824W        W58085  18.191  28.514   1.880
98825W        W58086  41.944  39.439  10.909
98826W        W58087  27.562  14.822  13.318
98827W        W58088  40.919  11.153   4.831
98828W        W58089   6.889  39.392   2.210
98829W        W58090   6.762  29.499   3.798
98830W        W58091  32.983   5.377  14.427
98831W        W58092  43.512  32.047   2.709
98832W        W58093  38.901  24.531   5.648
98833W        W58094  15.218  18.756  13.992
98834W        W58095  19.588   2.901   4.343
98835W        W58096  25.601  34.447   5.126
98836W        W58097  44.857  41.903   3.236
98837W        W58098  23.123  41.829  10.439
98838W        W58099  33.584  16.775   3.252
98839W        W58100  38.978  11.775  14.884
98840W        W58101  29.571   1.268   9.561
98841W        W58102  25.616  37.395   5.148
98842W        W58103  10.690   6.903   0.906
98843W        W58104  44.313  22.107  11.603
98844W        W58105  10.817  31.034  12.498
98845W        W58106  25.122  39.023  13.908
98846W        W58107  22.098   9.338  14.824
98847W        W58108  40.388  23.593   3.372
98848W        W58109  29.101  30.121   5.142
98849W        W58110  25.526   7.272   1.804
98850W        W58111  22.059   4.941  11.528
98851W        W58112   3.756   2.469   0.758
98852W        W58113  11.788  22.635   3.209
98853W        W58114  17.206   1.974   1.796
98854W        W58115  29.429  21.659   4.296
98855W        W58116  32.978  34.879   0.771
98856W        W58117  38.556  36.578  11.904
98857W        W58118  43.899  44.873  10.506
98858W        W58119  35.881  44.795  12.081
98859W        W58120  24.559  34.096   4.144
98860W        W58121  42.892  27.586   0.941
98861W        W58122  32.915  14.679   1.390
98862W        W58123  13.797  17.085   1.695
98863W        W58124  38.462  36.523   2.282
98864W        W58125  18.232  37.925   1.876
98865W        W58126  22.037  32.110   2.351
98866W        W58127  41.878  16.188   5.696
98867W        W58128  38.854  14.704   0.801
98868W        W58129   3.442  23.666   0.804
98869W        W58130   2.836  28.665   1.331
98870W        W58131  22.581  26.961   3.848
98871W        W58132  30.540   2.426  14.295
98872W        W58133  27.457  41.410  13.518
98873W        W58134   0.972  43.865  12.971
98874W        W58135  36.557  21.578  12.992
98875W        W58136   4.365  42.833  14.366
98876W        W58137  11.821  30.108  12.564
98877W        W58138  41.405  44.314  12.493
98878W        W58139   8.394  38.565   4.300
98879W        W58140  10.153  32.484   3.726
98880W        W58141  35.016  23.219   4.130
98881W        W58142  39.412  17.254  14.305
98882W        W58143  10.812  20.227  13.318
98883W        W58144  13.152  28.572   3.738
98884W        W58145  42.864  12.710  12.862
98885W        W58146   0.296   8.812   4.599
98886W        W58147  10.197  44.336  14.392
98887W        W58148  34.939  10.712  11.412
98888W        W58149  33.990  10.376   4.658
98889W        W58150  12.338  43.834   0.298
98890W        W58151  36.916   3.731   3.745
98891W        W58152  30.022  17.573   1.439
98892W        W58153  22.015  39.882   0.308
98893W        W58154  37.451  17.711   4.608
98894W        W58155  15.706   9.355  11.423
98895W        W58156  11.684  20.246  12.028
98896W        W58157  22.585  40.457   5.161
98897W        W58158   6.188  20.250   1.705
98898W        W58159   6.290  30.611   3.769
98899W        W58160   6.783  11.658  14.773
98900W        W58161  40.381   5.722   3.661
98901W        W58162  30.015  20.537  14.443
98902W        W58163   8.850  15.819  13.510
98903W        W58164  11.258  30.047   2.751
98904W        W58165  42.321  19.271   4.750
98905W        W58166  17.096  18.149  11.861
98906W        W58167  41.912   1.795   2.845
98907W        W58168  31.556   5.207  13.436
98908W        W58169   8.336  30.926   3.724
98909W        W58170  30.144  18.175   2.841
98910W        W58171   9.709  22.160  10.629
98911W        W58172  44.400  16.293  10.416
98912W        W58173  25.023  29.492  14.981
98913W        W58174  38.069  19.780   3.722
98914W        W58175  37.930  10.278   0.308
98915W        W58176  33.925  18.591   0.404
98916W        W58177   5.313  13.837  13.317
98917W        W58178  44.484  22.081   1.386
98918W        W58179  27.151  27.615   9.574
98919W        W58180  17.276   3.348   2.393
98920W        W58181  29.027  14.619   4.187
98921W        W58182  24.080   2.254   3.643
98922W        W58183  23.098  29.983  13.508
98923W        W58184   2.340   0.256   4.812
98924W        W58185   0.418  34.399  14.025
98925W        W58186  33.437  10.295  14.326
98926W        W58187  43.919  39.958  12.472
98927W        W58188  28.473  40.378   2.866
98928W        W58189   8.737  24.192  14.375
98929W        W58190  12.760  10.383  10.528
98930W        W58191  16.712   1.458   1.859
98931W        W58192   5.709  36.543   0.878
98932W        W58193  33.502  12.236  13.316
98933W        W58194   1.851   5.928  12.474
98934W        W58195   6.860  36.943  12.948
98935W        W58196  25.665  36.578  12.825
98936W        W58197  13.763  26.664   0.844
98937W        W58198   4.386  33.508  14.986
98938W        W58199   3.818  23.579  11.473
98939W        W58200   4.813  13.842   2.859
98940W        W58201  22.678  19.152   0.826
98941W        W58202  34.602   0.984  13.985
98942W        W58203   3.763  10.138   0.414
98943W        W58204  42.505   7.716   2.766
98944W        W58205  39.324   9.376   3.746
98945W        W58206  23.671  21.115   3.292
98946W        W58207  41.412   4.927   1.306
98947W        W58208  13.143  20.120  12.491
98948W        W58209  11.705  32.555  11.482
98949W        W58210  14.218  28.660   3.687
98950W        W58211   0.950  28.573   2.349
98951W        W58212  22.552  33.979   1.798
98952W        W58213  22.215  42.809   2.312
98953W        W58214  33.939  20.719   0.881
98954W        W58215  34.462  35.029   3.809
98955W        W58216  24.546  23.996   4.237
98956W        W58217  11.777  10.723  13.325
98957W        W58218   6.869  22.542   0.375
98958W        W58219   9.261  10.811  10.548
98959W        W58220  34.024  41.972  12.426
98960W        W58221  12.620  27.550  11.491
98961W        W58222  42.440  24.532  11.868
98962W        W58223  22.555  25.709   1.798
98963W        W58224  25.656  28.091   2.350
98964W        W58225  21.552  11.325   0.815
98965W        W58226  36.402  18.060   2.227
98966W        W58227  34.994  20.765  11.422
98967W        W58228  21.537  42.829  13.809
98968W        W58229   2.381   2.858   3.694
98969W        W58230  23.139   1.457   0.308
98970W        W58231  43.820   5.856   0.389
98971W        W58232  14.660  33.570   2.232
98972W        W58233  27.475  23.196   1.396
98973W        W58234  21.532  32.060   0.740
98974W        W58235  43.997  25.967  11.983
98975W        W58236   1.288   7.775   1.339
98976W        W58237  28.146  36.042  11.392
98977W        W58238  21.038  23.508   0.310
98978W        W58239   2.945  39.033   0.445
98979W        W58240  22.137  22.138  10.130
98980W        W58241   3.912  25.008  10.419
98981W        W58242  33.488  26.641  12.857
98982W        W58243   9.853  13.330   3.676
98983W        W58244  31.027   8.769  11.443
98984W        W58245  14.213  39.810  12.547
98985W        W58246  16.211  34.973  10.090
98986W        W58247  43.486   4.289   1.291
98987W        W58248  33.952  32.007   0.931
98988W        W58249  34.555  18.678   0.427
98989W        W58250  10.846  10.863  11.032
98990W        W58251  18.598  41.516   5.120
98991W        W58252  34.491  15.752  13.522
98992W        W58253   2.753  38.076  14.978
98993W        W58254  29.029   5.236  12.014
98994W        W58255   9.673  32.076  12.428
98995W        W58256  33.100  24.714  11.462
98996W        W58257  12.320   2.883   4.803
98997W        W58258  17.797  24.218   4.647
98998W        W58259  19.537   9.367   3.786
98999W        W58260  10.667  40.973  10.988
99000W        W58261  29.005  35.978  14.988
99001W        W58262  44.840  27.960   0.871
99002W        W58263  42.778  27.996   1.357
99003W        W58264  13.814  13.250  12.379
99004W        W58265  31.928   0.374   3.737
99005W        W58266   1.732  37.045  12.086
99006W        W58267  21.161  30.508  11.119
99007W        W58268   9.171  17.688  10.593
99008W        W58269  25.159   0.899   0.445
99009W        W58270  28.065  13.196   0.871
99010W        W58271  29.016   6.309  11.990
99011W        W58272  36.875  41.036  14.358
99012W        W58273  22.509  11.245  13.307
99013W        W58274  18.219  34.047   3.770
99014W        W58275  17.683  17.596  11.861
99015W        W58276  24.018  34.414   0.859
99016W        W58277  43.349  19.232   3.715
99017W        W58278  20.695   7.820   0.737
99018W        W58279  22.647  31.409  10.535
99019W        W58280  27.651   2.902  12.464
99020W        W58281  18.093  34.468  14.851
99021W        W58282  28.148  12.747  11.418
99022W        W58283  21.028  18.568   0.750
99023W        W58284  30.057  11.266  13.831
99024W        W58285  14.242   4.891  10.101
99025W        W58286  18.545  35.061  11.057
99026W        W58287   0.934  25.646  14.404
99027W        W58288   9.226   9.651   1.359
99028W        W58289   1.937  25.024  11.377
99029W        W58290   0.325  22.106  12.059
99030W        W58291  43.806  29.010   1.825
99031W        W58292  24.170  16.581   4.120
99032W        W58293  32.498  27.969  12.451
99033W        W58294   9.390  22.251   4.172
99034W        W58295  14.735  35.042  11.903
99035W        W58296  27.657  34.542   2.208
99036W        W58297  19.611  31.608   3.773
99037W        W58298   5.203   2.387  13.894
99038W        W58299  22.014   4.820  10.005
99039W        W58300  18.552  10.728  13.385
99040W        W58301  36.350  27.196  11.469
99041W        W58302  37.481  29.148   1.910
99042W        W58303  27.451  15.669   3.701
99043W        W58304  41.978  42.899  13.534
99044W        W58305  12.199  21.144   2.781
99045W        W58306  36.016  43.463   2.182
99046W        W58307  38.541  29.427  14.773
99047W        W58308  31.026  43.980  11.060
99048W        W58309  42.994  38.013   2.216
99049W        W58310  12.135  27.104  12.990
99050W        W58311   7.210  43.280  11.553
99051W        W58312  21.229  10.329   1.723
99052W        W58313  44.920  37.870   4.352
99053W        W58314  41.019  24.003  10.957
99054W        W58315  19.643  43.280  13.981
99055W        W58316  36.972  15.231  14.471
99056W        W58317  34.526  20.615  14.316
99057W        W58318   0.748   8.180  11.898
99058W        W58319  37.509  44.376   1.841
99059W        W58320  13.151  20.681  12.874
99060W        W58321  39.375  37.870   3.867
99061W        W58322   6.810  34.925  11.917
99062W        W58323  13.799  12.772   2.892
99063W        W58324  15.179  10.269  12.901
99064W        W58325  12.827   6.329   3.672
99065W        W58326  20.271  42.490  13.467
99066W        W58327  42.775  24.168   1.441
99067W        W58328  37.566  25.710  12.427
99068W        W58329  28.541  19.738   1.449
99069W        W58330  32.062   5.874  12.856
99070W        W58331  25.177  21.234  11.111
99071W        W58332  12.148  15.100  11.562
99072W        W58333  25.578  32.908   0.398
99073W        W58334  21.191  44.460  10.621
99074W        W58335  11.637  40.830  14.404
99075W        W58336  32.503  42.862  13.801
99076W        W58337  20.250   2.257   1.875
99077W        W58338   8.388   7.763   4.652
99078W        W58339  35.911  10.343  14.775
99079W        W58340  24.188  37.404   2.881
99080W        W58341  44.932   1.359   0.790
99081W        W58342  25.621  15.578   2.188
99082W        W58343  18.224  12.232  14.804
99083W        W58344  18.072  13.626  13.539
99084W        W58345  41.020  13.142   4.613
99085W        W58346  44.421  30.105  11.906
99086W        W58347  22.017  16.588  11.510
99087W        W58348  25.553  15.755   9.997
99088W        W58349  28.981  16.658   1.263
99089W        W58350   0.825   8.335   0.807
99090W        W58351  26.612  12.680  12.005
99091W        W58352  15.188  32.635  13.993
99092W        W58353  40.531   3.431  11.548
99093W        W58354  16.663  34.079   4.751
99094W        W58355   6.774   3.460   2.407
99095W        W58356   7.374   2.940   3.279
99096W        W58357  20.132  11.787  14.474
99097W        W58358  43.833  36.413   1.330
99098W        W58359  37.433   3.370  11.120
99099W        W58360  34.426   0.878   1.270
99100W        W58361   2.743  27.473   2.823
99101W        W58362  16.675  30.048   2.295
99102W        W58363   3.398  35.404  14.485
99103W        W58364  37.957  11.231  12.855
99104W        W58365  42.008  10.373  11.041
99105W        W58366  35.459  43.425  14.425
99106W        W58367   8.366  38.917   0.755
99107W        W58368  35.941  18.559  12.853
99108W        W58369   5.402  41.327  11.106
99109W        W58370  15.630  16.572  11.885
99110W        W58371  24.005   8.257  11.581
99111W        W58372  42.885   1.901  10.987
99112W        W58373  39.908  28.051  13.023
99113W        W58374  31.987  16.113   4.164
99114W        W58375   1.400  11.783  11.381
99115W        W58376  36.577   8.404  11.867
99116W        W58377  38.435  15.681  11.005
99117W        W58378  38.981  44.259   3.361
99118W        W58379  16.637  26.472  13.838
99119W        W58380  27.577   8.208   1.241
99120W        W58381   8.892  35.859  10.148
99121W        W58382  30.916  15.255   2.712
99122W        W58383  30.639  44.866   4.234
99123W        W58384  32.542  10.165  14.016
99124W        W58385  36.416  26.667   3.351
99125W        W58386  34.991  18.733  11.044
99126W        W58387   0.887  44.460  12.407
99127W        W58388   2.368  14.680  11.489
99128W        W58389  23.203  28.502   4.751
99129W        W58390   1.827  44.759   1.309
99130W        W58391  36.460   4.740  10.153
99131W        W58392  15.707  33.045   0.832
99132W        W58393   7.791   8.339   1.839
99133W        W58394  43.343  42.508   1.729
99134W        W58395   2.315  37.851   0.772
99135W        W58396  32.544  41.794   4.270
99136W        W58397   5.334   3.316   2.367
99137W        W58398   7.192  16.280   1.257
99138W        W58399  23.520  34.578  10.996
99139W        W58400  29.443   4.215  13.373
99140W        W58401  21.602   8.208   1.899
99141W        W58402  38.011  43.403   2.360
99142W        W58403  19.091  31.079  13.026
99143W        W58404  31.542  31.145   2.236
99144W        W58405  41.334  14.209  11.546
99145W        W58406  19.770  43.301   1.885
99146W        W58407  28.576   1.926   3.268
99147W        W58408   5.296  18.696   3.160
99148W        W58409   2.936  40.502   4.818
99149W        W58410  11.133  26.659   3.813
99150W        W58411  25.599  17.793   1.906
99151W        W58412   0.897  11.293   0.415
99152W        W58413  27.149  19.134  12.000
99153W        W58414  29.046  43.838   2.692
99154W        W58415   3.787   9.207   2.406
99155W        W58416  12.269  42.883   1.765
99156W        W58417  28.518  21.220   2.662
99157W        W58418  31.964  30.437   2.902
99158W        W58419  12.342  30.948   2.671
99159W        W58420  12.725   2.370  14.416
99160W        W58421   1.872  20.715   4.745
99161W        W58422  12.187  13.130   2.715
99162W        W58423  40.542  32.977   3.209
99163W        W58424  39.996  40.863   3.735
99164W        W58425  31.417  15.251   3.669
99165W        W58426  32.065  21.134  14.900
99166W        W58427  14.130  35.502  14.479
99167W        W58428  15.235  12.135  13.818
99168W        W58429  31.990  15.689  13.368
99169W        W58430  18.673  18.082   2.203
99170W        W58431  14.327  16.799  13.419
99171W        W58432  17.189   1.333   3.827
99172W        W58433  36.946  32.066  11.528
99173W        W58434   0.901  37.411  13.886
99174W        W58435  32.962  39.841  12.904
99175W        W58436  34.035  24.170  14.320
99176W        W58437  24.222  26.066   3.814
99177W        W58438   6.212  33.092  11.978
99178W        W58439   1.447  13.704  12.933
99179W        W58440   5.691  18.159   2.698
99180W        W58441  17.590  18.200  10.622
99181W        W58442  32.609  18.184  11.052
99182W        W58443  34.957  28.456  11.075
99183W        W58444  16.265  28.047  10.590
99184W        W58445  37.363  38.867  14.416
99185W        W58446   0.890  13.148  11.989
99186W        W58447  25.485  32.916  12.944
99187W        W58448  38.045  33.574  12.858
99188W        W58449  27.953  40.351  11.513
99189W        W58450  14.277  37.500   4.298
99190W        W58451  21.135  15.663   4.196
99191W        W58452   9.846  37.902  13.519
99192W        W58453   5.864  11.722   1.450
99193W        W58454  19.062  10.711  14.768
99194W        W58455  28.646  30.110  11.939
99195W        W58456   7.329  24.523   1.223
99196W        W58457  18.071  32.403   1.773
99197W        W58458  25.050  13.639   0.355
99198W        W58459  23.196  32.100  10.054
99199W        W58460   9.823  20.542   2.404
99200W        W58461   9.369  39.540  14.490
99201W        W58462  25.594  36.356   2.342
99202W        W58463  27.100  19.646   4.660
99203W        W58464  38.495  24.490  10.493
99204W        W58465  10.193   0.409  13.338
99205W        W58466  10.318  11.136   1.393
99206W        W58467  36.016  25.697   4.267
99207W        W58468  10.759  27.098   3.642
99208W        W58469  14.192  35.868   4.307
99209W        W58470  30.157  42.455   0.475
99210W        W58471   0.801  35.360   1.877
99211W        W58472  40.428  30.615  10.143
99212W        W58473  36.084  26.993   3.799
99213W        W58474  34.864  42.917   5.261
99214W        W58475  43.285   5.279   1.228
99215W        W58476  31.613   1.477  14.003
99216W        W58477  36.585  32.586   2.718
99217W        W58478  19.691  32.580   3.367
99218W        W58479  31.100  26.141  12.091
99219W        W58480  30.100   1.914  13.915
99220W        W58481   9.266  13.656   3.204
99221W        W58482  39.494   9.157  14.880
99222W        W58483  37.573  25.002  10.424
99223W        W58484  16.689  42.858   0.432
99224W        W58485  10.352   2.456   2.315
99225W        W58486  35.458  16.629  11.985
99226W        W58487   8.222   9.743  10.567
99227W        W58488   8.655  10.144   0.845
99228W        W58489  14.173  30.998  13.393
99229W        W58490  31.969   5.282  14.853
99230W        W58491  37.452  14.786  13.967
99231W        W58492  25.167   0.414   1.230
99232W        W58493  15.262  33.947  10.463
99233W        W58494  15.222   1.324  13.972
99234W        W58495  44.796   1.413  14.498
99235W        W58496  31.532  21.695  11.076
99236W        W58497  31.967  32.540   3.699
99237W        W58498  28.152   9.806   3.308
99238W        W58499  10.141  10.301  12.097
99239W        W58500  29.588  21.624   4.634
99240W        W58501  27.646  29.158   3.632
99241W        W58502  36.939  38.868   0.823
99242W        W58503   5.694  25.168   1.307
99243W        W58504  22.667  44.288   9.927
99244W        W58505   6.257  35.400  13.335
99245W        W58506  17.567   9.151  11.017
99246W        W58507   0.903  18.276   5.200
99247W        W58508   7.285  41.295   1.925
99248W        W58509  33.121   9.149  13.950
99249W        W58510  41.947  24.652  10.515
99250W        W58511  39.914  19.040   4.325
99251W        W58512  43.970   0.918   4.200
99252W        W58513  38.520  18.161   4.178
99253W        W58514  25.665  23.657   4.121
99254W        W58515  29.584  12.345   0.740
99255W        W58516  18.727   6.187  14.281
99256W        W58517  25.025  37.395  13.915
99257W        W58518  24.001  44.783  12.481
99258W        W58519  41.815  33.588  14.424
99259W        W58520  12.633  37.478   1.866
99260W        W58521  11.810  10.761   9.990
99261W        W58522  42.421  16.577   0.879
99262W        W58523  29.944  25.653   1.735
99263W        W58524  30.609  40.021   3.304
99264W        W58525  24.569  15.308  10.509
99265W        W58526  44.286   1.788   2.334
99266W        W58527  25.983   7.873  11.585
99267W        W58528  25.156   6.332  13.983
99268W        W58529   8.889   9.710  14.870
99269W        W58530   5.884  38.822   1.914
99270W        W58531  17.220  26.576  13.912
99271W        W58532   5.762  43.009  10.607
99272W        W58533  38.874  38.037  11.579
99273W        W58534  38.020   9.380   4.601
99274W        W58535   4.758  24.132  14.983
99275W        W58536  30.577  15.745   5.275
99276W        W58537   2.421  21.597   0.420
99277W        W58538  24.496   5.757   0.480
99278W        W58539   4.298  30.116   2.769
99279W        W58540   2.455  22.197  11.433
99280W        W58541  24.974   0.786  13.913
99281W        W58542  42.321  29.429   4.173
99282W        W58543  44.873  38.535   0.392
99283W        W58544  35.376  37.514  14.305
99284W        W58545   0.350  16.771   1.424
99285W        W58546  35.097  28.672   0.859
99286W        W58547  40.499   0.792   5.196
99287W        W58548  43.440  28.438   4.177
99288W        W58549  21.083  35.020  14.464
99289W        W58550  40.395   9.222  13.977
99290W        W58551  25.704   3.452   4.172
99291W        W58552  12.317  22.674  10.574
99292W        W58553  12.790   7.395   2.720
99293W        W58554  24.698  14.723  12.996
99294W        W58555  44.925  12.315   3.230
99295W        W58556   5.868  38.034  11.559
99296W        W58557  27.659  43.468   5.183
99297W        W58558  42.887   9.361   2.673
99298W        W58559  25.186  13.801   3.812
99299W        W58560  22.655  14.793   0.350
99300W        W58561  17.072   6.789  12.881
99301W        W58562  42.417  12.832   1.389
99302W        W58563  11.754  33.988   3.215
99303W        W58564  32.897  29.665   1.384
99304W        W58565  30.049  16.653   4.808
99305W        W58566   8.196   6.398  14.027
99306W        W58567  37.914  22.647  10.995
99307W        W58568  20.609  19.046  13.534
99308W        W58569  35.583  10.835  12.343
99309W        W58570  34.510  19.144   3.645
99310W        W58571   1.445  11.160   3.652
99311W        W58572  32.087  35.859  14.378
99312W        W58573   9.672  17.181  13.344
99313W        W58574  40.334  43.883  14.448
99314W        W58575  39.386  19.245   3.821
99315W        W58576  36.429  14.288  13.535
99316W        W58577   7.187  42.028   4.303
99317W        W58578  27.462  16.711  14.862
99318W        W58579  24.695  42.017  10.585
99319W        W58580   1.839  12.619  14.008
99320W        W58581  29.091  38.570  11.993
99321W        W58582   5.891  25.546  10.581
99322W        W58583  37.568  34.445  11.903
99323W        W58584  28.502  38.006   4.325
99324W        W58585   9.279   0.800   0.434
99325W        W58586  11.172  11.640  12.941
99326W        W58587  17.595  32.963  13.369
99327W        W58588  32.958  14.741  12.986
99328W        W58589  36.348   0.478  10.483
99329W        W58590  16.185  41.909   4.770
99330W        W58591  11.779  33.984  11.484
99331W        W58592   3.950   3.887  10.896
99332W        W58593   7.727  14.201  11.391
99333W        W58594   2.355  39.034   0.310
99334W        W58595   8.355  33.617   0.294
99335W        W58596  26.653   8.343   2.894
99336W        W58597  17.666  15.674   1.306
99337W        W58598  16.249  31.990   5.272
99338W        W58599   7.307  38.070  12.835
99339W        W58600  13.629  18.619  13.983
99340W        W58601   0.863   8.798   2.820
99341W        W58602   5.709  35.954   3.651
99342W        W58603  18.296  32.889   0.402
99343W        W58604  28.539  33.988   3.733
99344W        W58605  20.223  19.045   3.204
99345W        W58606  37.876  12.135   4.761
99346W        W58607  39.469  17.112  14.964
99347W        W58608  40.913   8.785   4.333
99348W        W58609  29.999  39.880  12.580
99349W        W58610  23.193  28.048  12.554
99350W        W58611  22.628   0.370  13.441
99351W        W58612  13.665  36.075  14.357
99352W        W58613  29.427   8.306  12.569
99353W        W58614   1.898  33.524  11.074
99354W        W58615  26.039  12.643  11.943
99355W        W58616  23.090  37.077   2.311
99356W        W58617   2.469  30.468   3.341
99357W        W58618   5.809  34.998  14.953
99358W        W58619  27.956   7.392   0.424
99359W        W58620  20.155  39.891  12.847
99360W        W58621  11.300  24.502  12.413
99361W        W58622   6.824  43.278   1.447
99362W        W58623  14.219  26.983  10.612
99363W        W58624  11.736  38.560   2.401
99364W        W58625  32.585  12.814   3.162
99365W        W58626  18.625  24.675   3.792
99366W        W58627  12.266  29.130   0.350
99367W        W58628  18.724  12.135   1.723
99368W        W58629  16.590  21.532  12.497
99369W        W58630   6.411   9.813  13.827
99370W        W58631  41.486   8.718  12.550
99371W        W58632  32.072  10.827   3.311
99372W        W58633   2.904  42.354   3.373
99373W        W58634  15.758  35.386  10.540
99374W        W58635  41.441  18.638   3.352
99375W        W58636   1.912  34.593   0.755
99376W        W58637  43.804  28.653   3.720
99377W        W58638  14.740   8.769   1.261
99378W        W58639  38.983   0.259  10.958
99379W        W58640  33.595  26.971   3.809
99380W        W58641  23.230   3.230   4.648
99381W        W58642  36.093  22.507   1.917
99382W        W58643  20.272  26.986  13.507
99383W        W58644  41.393   7.382  12.493
99384W        W58645   2.227   6.261   5.297
99385W        W58646  25.059  38.471   1.222
99386W        W58647  43.357  43.861   4.740
99387W        W58648  21.145   1.262   1.798
99388W        W58649  24.599  33.485  14.949
99389W        W58650  27.538  15.609  13.995
99390W        W58651  24.505  32.046  12.388
99391W        W58652  14.615  22.619   0.929
99392W        W58653  37.511   0.417   0.908
99393W        W58654  40.023  37.046  14.766
99394W        W58655  37.343  44.985  12.000
99395W        W58656  18.227  16.259   1.870
99396W        W58657  38.366  30.529   2.895
99397W        W58658  29.439   3.735  13.322
99398W        W58659  39.053   8.767   4.683
99399W        W58660  16.597  17.072  11.961
99400W        W58661  31.961  24.705   1.240
99401W        W58662  24.599  14.328  12.888
99402W        W58663   7.731  31.125  12.969
99403W        W58664  14.703  34.988   3.156
99404W        W58665  23.184  23.695   1.350
99405W        W58666   3.846  11.258  10.522
99406W        W58667   2.801  33.112  13.881
99407W        W58668  22.569  26.598  11.504
99408W        W58669  32.087  24.698   0.319
99409W        W58670   6.329  38.383  13.894
99410W        W58671  31.997   0.973  11.984
99411W        W58672  44.394  43.816  12.364
99412W        W58673  33.045  21.218  12.346
99413W        W58674   1.370  38.404  13.891
99414W        W58675  38.073  12.331   0.905
99415W        W58676   8.367  37.563  10.959
99416W        W58677  25.966  13.630   2.712
99417W        W58678  33.620  11.216  10.504
99418W        W58679  23.038  43.290  13.507
99419W        W58680  23.149   9.660  11.990
99420W        W58681  23.008  32.556  14.021
99421W        W58682  41.485  39.402  12.478
99422W        W58683  43.375  16.183   3.707
99423W        W58684   7.315   5.431   5.240
99424W        W58685  11.686  30.430   0.933
99425W        W58686  44.854  28.082  11.971
99426W        W58687   1.940  31.607  12.438
99427W        W58688  28.956  19.135  12.050
99428W        W58689  43.910  37.845   3.188
99429W        W58690   2.466  40.836   3.753
99430W        W58691   7.327  12.854  13.308
99431W        W58692  38.501   5.704  10.613
99432W        W58693  33.395  18.275   1.405
99433W        W58694   6.268  16.179  11.107
99434W        W58695   5.745  17.099  10.468
99435W        W58696   8.838  21.661   0.299
99436W        W58697  35.384  19.703   1.824
99437W        W58698  29.623   2.371  11.903
99438W        W58699   7.827  39.038   0.959
99439W        W58700  12.240   6.867  10.512
99440W        W58701  43.326   4.254  12.873
99441W        W58702  38.993  34.957   0.814
99442W        W58703  14.226  12.262  13.954
99443W        W58704  32.402   6.367  11.935
99444W        W58705   2.462   0.848   1.432
99445W        W58706  25.109  20.184  10.412
99446W        W58707   9.313   3.426   1.722
99447W        W58708  44.260  21.543  10.945
99448W        W58709  44.942  12.785   2.689
99449W        W58710  19.670  12.770  14.299
99450W        W58711  18.157  26.168   0.242
99451W        W58712  22.085  20.248   2.723
99452W        W58713  23.184  39.813   3.216
99453W        W58714  30.581   6.737   3.778
99454W        W58715  17.725  30.081  12.382
99455W        W58716  34.540  40.932  14.778
99456W        W58717  43.482  13.718  11.983
99457W        W58718  40.978  28.155   3.300
99458W        W58719  11.627  30.073  14.417
99459W        W58720   3.320  33.448   3.834
99460W        W58721  43.814   3.345   0.272
99461W        W58722  11.787  15.268  11.124
99462W        W58723  22.517  15.820  13.354
99463W        W58724  13.164  17.093   3.228
99464W        W58725  11.213  30.511  10.555
99465W        W58726  42.010  42.482  12.001
99466W        W58727  11.665  11.354   4.657
99467W        W58728  12.315  28.634  11.893
99468W        W58729  33.419  11.191   3.708
99469W        W58730  38.546   6.865  12.930
99470W        W58731   0.863  33.077  13.357
99471W        W58732   8.248  20.720  12.898
99472W        W58733  31.091  22.506   0.864
99473W        W58734  20.758   9.384  10.991
99474W        W58735  28.441  36.918   1.738
99475W        W58736  42.891   9.382   2.325
99476W        W58737  20.094  40.526  14.769
99477W        W58738  42.793  15.168   1.451
99478W        W58739  33.983  23.198  12.061
99479W        W58740  26.503  27.681  10.937
99480W        W58741   9.691   6.849   3.757
99481W        W58742  41.958  29.138  10.448
99482W        W58743   4.259  30.626  14.507
99483W        W58744  21.692  38.991  14.479
99484W        W58745  20.565  37.380  12.056
99485W        W58746   4.919   6.299  13.974
99486W        W58747  44.819  17.749  13.792
99487W        W58748   2.457  43.014  14.447
99488W        W58749  40.819  30.935  12.506
99489W        W58750  40.456   7.751  14.410
99490W        W58751  33.059  32.578  10.562
99491W        W58752   8.316   2.463   0.788
99492W        W58753  32.548   4.207   3.325
99493W        W58754   2.434  27.682   3.737
99494W        W58755  35.871  26.055   2.412
99495W        W58756  22.735  17.745   3.293
99496W        W58757  29.649   2.797  13.494
99497W        W58758  23.673  41.362   2.310
99498W        W58759   5.388  42.461  10.481
99499W        W58760  27.492  20.055   2.343
99500W        W58761  30.615  15.117   4.837
99501W        W58762  15.270  19.701  11.881
99502W        W58763  40.471  26.471  10.580
99503W        W58764  16.198  28.472   4.268
99504W        W58765  26.195  33.035  11.507
99505W        W58766  12.142   7.326  12.874
99506W        W58767  38.491   8.197   3.308
99507W        W58768  37.474  24.200   5.196
99508W        W58769  19.276   8.181  12.544
99509W        W58770  42.904  20.097   0.307
99510W        W58771  40.534  11.339  12.852
99511W        W58772  21.689  16.287  12.860
99512W        W58773  13.198  21.720  11.474
99513W        W58774  21.206  19.710   2.741
99514W        W58775  26.072   0.261   5.647
99515W        W58776  38.017  13.718   2.810
99516W        W58777  12.716  28.047  14.315
99517W        W58778  23.547  43.796   2.896
99518W        W58779  28.526  26.156   1.700
99519W        W58780  41.787  40.304  11.518
99520W        W58781   6.808  24.584  11.374
99521W        W58782  22.027  31.903  13.471
99522W        W58783  32.930  38.015  11.909
99523W        W58784  24.145  29.451   4.349
99524W        W58785  24.483   8.281  13.405
99525W        W58786   5.741  40.463   3.708
99526W        W58787  19.193  37.405   1.307
99527W        W58788   5.256   8.305   4.341
99528W        W58789  14.590  10.145   3.232
99529W        W58790  20.589  12.652  10.926
99530W        W58791  10.151   2.766   3.336
99531W        W58792  23.538   2.469   2.204
99532W        W58793   1.813  43.472  10.540
99533W        W58794   9.772   9.214  10.531
99534W        W58795   1.744  36.033   4.734
99535W        W58796  34.895  16.241   3.197
99536W        W58797  18.215  29.511  13.996
99537W        W58798  39.023  29.115   3.326
99538W        W58799  12.168   9.293   2.263
99539W        W58800  25.181  42.877  10.541
99540W        W58801  38.865   3.230  14.344
99541W        W58802   1.399   1.360   0.861
99542W        W58803  27.993  11.718  13.064
99543W        W58804  30.543  27.190   3.759
99544W        W58805   2.937  11.856   1.300
99545W        W58806  32.959  36.912   1.288
99546W        W58807  41.916  43.852   4.305
99547W        W58808  13.640  19.222   2.222
99548W        W58809  18.782  26.679  11.502
99549W        W58810   0.865  39.452  10.445
99550W        W58811  41.329  16.663  11.996
99551W        W58812   8.236  13.251   2.849
99552W        W58813  42.473  10.870   3.373
99553W        W58814  20.140   2.737   4.789
99554W        W58815  17.069  29.631  12.047
99555W        W58816  23.030  41.033  14.343
99556W        W58817  36.359   1.250   2.249
99557W        W58818   9.842  26.533   4.232
99558W        W58819  34.397   1.262  11.490
99559W        W58820   9.796  19.100   1.274
99560W        W58821  27.158   3.902   1.729
99561W        W58822  25.580  12.851  10.558
99562W        W58823  33.998  10.826   2.379
99563W        W58824   7.330   2.239   1.823
99564W        W58825   6.330  38.428  10.915
99565W        W58826   8.832  17.244  11.915
99566W        W58827   7.318  30.427   1.210
99567W        W58828  32.601  36.540  13.359
99568W        W58829  37.037   7.733  11.511
99569W        W58830  39.986  44.938  12.349
99570W        W58831  10.765  25.581   3.382
99571W        W58832  18.296  37.336   0.958
99572W        W58833  38.912   7.753  11.414
99573W        W58834  15.228   0.334   1.781
99574W        W58835  14.599  11.640  14.296
99575W        W58836  39.389  24.607  11.437
99576W        W58837  34.048  21.227  11.539
99577W        W58838  31.570  20.669  14.862
99578W        W58839  19.692  18.552   2.379
99579W        W58840  21.095  42.404   1.352
99580W        W58841  39.857  42.439  13.523
99581W        W58842  43.391  43.355   3.857
99582W        W58843  37.538  18.061   9.962
99583W        W58844  25.701  37.575  10.894
99584W        W58845  24.030  17.221   5.284
99585W        W58846  10.146  34.394   0.474
99586W        W58847  37.448  26.111   2.874
99587W        W58848   8.286  14.117   1.917
99588W        W58849   5.893  27.592  14.406
99589W        W58850   2.248  40.439   3.682
99590W        W58851  30.055  34.087   1.767
99591W        W58852  14.263  25.155   0.389
99592W        W58853  16.244  26.973  13.866
99593W        W58854  23.614   4.401  10.900
99594W        W58855   2.777  10.256   4.126
99595W        W58856  36.420  15.123  12.504
99596W        W58857  33.874  32.069   0.314
99597W        W58858  39.510   2.444  11.519
99598W        W58859  22.014  44.319   0.762
99599W        W58860  32.025   9.663  14.778
99600W        W58861  32.904   7.752   5.616
99601W        W58862   2.409  19.210   4.626
99602W        W58863   2.439  22.581   2.694
99603W        W58864  27.476  30.082  13.881
99604W        W58865   7.193  10.824  11.872
99605W        W58866  42.935  38.502  11.096
99606W        W58867   7.793   2.912  11.484
99607W        W58868  17.687  26.570   1.763
99608W        W58869  32.983   0.926  13.017
99609W        W58870  36.890  36.552   2.345
99610W        W58871  44.417  10.702   0.880
99611W        W58872   3.805  14.610  11.487
99612W        W58873  11.193  13.781  13.812
99613W        W58874  38.867  23.121   4.115
99614W        W58875  31.150  20.046  11.409
99615W        W58876  32.047  34.598  13.877
99616W        W58877  36.097   8.796  12.930
99617W        W58878  14.613   5.358  12.479
99618W        W58879   3.404  36.510  13.927
99619W        W58880   2.341  24.599  14.805
99620W        W58881  27.541  37.875   0.800
99621W        W58882  14.235  17.587  12.501
99622W        W58883   9.855  11.354  12.942
99623W        W58884   8.195  17.090   1.929
99624W        W58885  25.999   7.890   4.658
99625W        W58886  34.430  24.604  11.912
99626W        W58887  11.183  42.884   5.277
99627W        W58888  25.152   3.949   0.278
99628W        W58889  35.985  40.378   4.599
99629W        W58890  17.154  28.524   2.823
99630W        W58891  38.547  30.139   4.688
99631W        W58892   2.964   6.349  14.383
99632W        W58893  31.902  30.997  12.522
99633W        W58894  15.768  25.529  12.000
99634W        W58895   6.678   5.311   0.819
99635W        W58896  37.890  40.394  12.925
99636W        W58897  38.373   6.369  12.543
99637W        W58898   8.854  18.743   2.266
99638W        W58899   8.786  10.805  10.526
99639W        W58900  33.085  41.860  10.457
99640W        W58901  14.631   4.830   5.712
99641W        W58902  16.094  13.692   1.896
99642W        W58903  21.673  44.500   1.929
99643W        W58904   0.970   3.925   4.180
99644W        W58905  11.624   7.827  12.379
99645W        W58906  41.449  24.199   4.219
99646W        W58907  17.575  34.374   1.291
99647W        W58908  18.751  22.070  10.990
99648W        W58909  27.538   5.738  13.366
99649W        W58910  39.402  33.574  12.339
99650W        W58911  26.120   6.412  14.988
99651W        W58912   2.823   8.270   4.188
99652W        W58913   4.728   1.255   0.845
99653W        W58914  10.381  30.612   0.785
99654W        W58915  31.490  40.324  14.822
99655W        W58916   4.942  41.017   4.793
99656W        W58917  17.092  30.526  10.062
99657W        W58918  22.713  36.471  13.865
99658W        W58919   1.847  40.818  13.806
99659W        W58920  26.086  18.731   0.403
99660W        W58921  27.066   3.942   2.179
99661W        W58922   7.344  36.946  12.885
99662W        W58923  19.139  35.580   2.899
99663W        W58924  41.904  16.598   3.244
99664W        W58925  44.964  18.622   3.686
99665W        W58926  11.291   7.329  11.095
99666W        W58927   5.709  19.776  12.524
99667W        W58928  43.298  17.306  12.456
99668W        W58929  12.748  29.158  13.815
99669W        W58930   7.855  31.446   2.326
99670W        W58931  18.243   2.379   2.335
99671W        W58932  10.190  38.057  10.634
99672W        W58933  23.639  44.401  14.008
99673W        W58934  30.519  22.250  12.380
99674W        W58935  32.907   3.342  11.382
99675W        W58936  34.503  42.994   3.731
99676W        W58937   8.731   7.290   4.274
99677W        W58938  42.371   0.816  14.963
99678W        W58939  20.588   6.425  13.012
99679W        W58940  36.450  38.413   0.951
99680W        W58941   5.722  30.593  11.064
99681W        W58942  33.066  16.763   3.718
99682W        W58943   1.889  38.916   4.178
99683W        W58944  17.285  32.531   1.770
99684W        W58945  17.298  26.519  13.364
99685W        W58946  37.352  15.158   2.677
99686W        W58947  24.226   1.463  12.384
99687W        W58948  29.598  28.482  12.503
99688W        W58949  15.129  28.620  13.326
99689W        W58950   0.794  35.103  14.297
99690W        W58951   0.336  23.137   0.854
99691W        W58952  20.553  42.989   4.658
99692W        W58953  37.908   6.303   2.188
99693W        W58954  22.638   1.406   0.728
99694W        W58955  21.704  20.105  10.405
99695W        W58956  29.994  12.794   3.754
99696W        W58957  27.476  23.111   1.776
99697W        W58958   2.943  10.784  13.883
99698W        W58959  11.255  44.876  14.414
99699W        W58960   1.374   6.707   4.336
99700W        W58961  21.613  35.447  14.875
99701W        W58962   2.941   8.850   1.419
99702W        W58963  14.800  35.401  11.564
99703W        W58964  23.599   6.695   2.364
99704W        W58965  36.080   8.365   3.650
99705W        W58966  34.508  28.630  11.979
99706W        W58967  15.308  30.928  13.415
99707W        W58968  18.632  24.139   2.322
99708W        W58969  20.208   6.721   2.742
99709W        W58970   5.754  39.832   3.651
99710W        W58971  11.293  13.267  10.503
99711W        W58972  18.663  34.988  14.970
99712W        W58973  34.531   6.773  10.560
99713W        W58974   0.885  20.622  11.439
99714W        W58975  36.082   9.672   4.606
99715W        W58976  14.320  31.465  10.972
99716W        W58977  12.240  19.689  13.547
99717W        W58978  21.714  20.554   4.739
99718W        W58979   1.906  19.544  13.362
99719W        W58980  23.051   9.157   1.259
99720W        W58981  30.955  15.622   3.289
99721W        W58982  24.106  24.558  12.457
99722W        W58983  10.285  21.064  13.811
99723W        W58984  19.634   7.861  10.603
99724W        W58985  20.664  15.693   4.625
99725W        W58986  32.106  41.972   5.258
99726W        W58987  31.568   4.300  14.960
99727W        W58988  44.274  39.952   1.872
99728W        W58989  28.953  28.138  12.461
99729W        W58990  34.972  38.037   3.278
99730W        W58991  36.009   4.760  14.978
99731W        W58992   8.820  36.848   1.764
99732W        W58993  41.835  27.161  14.943
99733W        W58994  28.092  31.014  13.029
99734W        W58995  12.750  31.432   4.258
99735W        W58996  29.567  34.928   0.325
99736W        W58997  13.836  23.561  10.895
99737W        W58998  36.095  40.032   3.149
99738W        W58999  17.224  16.572  14.898
99739W        W59000  16.624  25.683   1.920
99740W        W59001  25.018   6.379  10.517
99741W        W59002  12.236  41.792  14.318
99742W        W59003  19.770  28.516   2.876
99743W        W59004  24.166  44.436   1.919
99744W        W59005  33.518  41.020   1.320
99745W        W59006  38.932  12.183  11.374
99746W        W59007  18.065  43.357  11.003
99747W        W59008  27.504  18.651  13.441
99748W        W59009  14.337   5.855   1.236
99749W        W59010   9.747   3.751  11.860
99750W        W59011  13.278  12.672   9.925
99751W        W59012  20.151  34.950  10.438
99752W        W59013  37.953  29.652   1.814
99753W        W59014  21.211  23.213  12.972
99754W        W59015  34.064   7.830  12.543
99755W        W59016  38.331  17.732  10.958
99756W        W59017  43.432   9.248   2.385
99757W        W59018  17.626  40.041  13.972
99758W        W59019  28.552  41.872  13.056
99759W        W59020  41.871  13.192   0.942
99760W        W59021  28.070  14.272   4.177
99761W        W59022  28.094  44.806   2.393
99762W        W59023  41.326   2.865   2.350
99763W        W59024   6.697   9.325  13.490
99764W        W59025  13.307  32.620   4.662
99765W        W59026  18.716   2.824   2.754
99766W        W59027  43.816   3.753  13.357
99767W        W59028  22.625  38.890  14.873
99768W        W59029  15.585  29.971  12.479
99769W        W59030  34.477  36.556  12.962
99770W        W59031   8.283   4.311  13.061
99771W        W59032  41.815  44.444   0.856
99772W        W59033  30.941  12.788  14.491
99773W        W59034  22.745  24.036  10.490
99774W        W59035   3.831   9.766  11.492
99775W        W59036  43.867  19.747   1.715
99776W        W59037   1.963  20.611  11.047
99777W        W59038  27.611   5.436   3.662
99778W        W59039   9.755  12.666  14.935
99779W        W59040  25.177  39.022  14.840
99780W        W59041   2.748   4.936  13.031
99781W        W59042  14.695  43.449  10.405
99782W        W59043  35.904  10.177   0.295
99783W        W59044  26.026   9.882   0.851
99784W        W59045   6.192  34.553  13.940
99785W        W59046  12.666  40.823   2.849
99786W        W59047  34.119  10.832  12.342
99787W        W59048   4.734  19.182  12.993
99788W        W59049  37.357  42.329   4.271
99789W        W59050  19.207  20.191  12.075
99790W        W59051   2.392  15.142  11.405
99791W        W59052  11.720  34.008  11.880
99792W        W59053  16.774  33.080   4.616
99793W        W59054  24.147   9.289  10.610
99794W        W59055   8.360  12.239  11.055
99795W        W59056   9.289  23.644  12.546
99796W        W59057   9.808  40.831   2.787
99797W        W59058  13.647  42.441   4.602
99798W        W59059  27.166  14.733  12.983
99799W        W59060   0.474  20.556   2.670
99800W        W59061  15.806  17.105   2.733
99801W        W59062  18.718   5.381   0.809
99802W        W59063  11.734  19.197   2.268
99803W        W59064   1.425   1.428   4.707
99804W        W59065   1.864   5.399   3.746
99805W        W59066  27.059  32.989  14.476
99806W        W59067   2.777  34.952  12.501
99807W        W59068  25.617  35.892  10.147
99808W        W59069  18.749  21.160   2.716
99809W        W59070  24.067   9.356  11.887
99810W        W59071  39.410  38.527   4.150
99811W        W59072  20.619  31.590  11.516
99812W        W59073  42.007   8.783  10.070
99813W        W59074  25.618  12.243   2.830
99814W        W59075  37.084  11.321   3.854
99815W        W59076  25.218  39.926  13.447
99816W        W59077  36.587  22.024  12.872
99817W        W59078   8.845   4.219   2.223
99818W        W59079  20.142   3.727  13.794
99819W        W59080  13.764  32.953   0.890
99820W        W59081   1.386  35.054   0.474
99821W        W59082   8.700   9.758  14.449
99822W        W59083  33.114  39.422   1.852
99823W        W59084  21.735  32.545   2.790
99824W        W59085  37.019  20.720  10.490
99825W        W59086  11.340  41.385  14.450
99826W        W59087  37.915  35.584  12.442
99827W        W59088   5.212  32.497   4.610
99828W        W59089  27.562   0.763  12.978
99829W        W59090  26.478  13.114  11.076
99830W        W59091  11.710  13.831  10.907
99831W        W59092  29.065  24.612  13.015
99832W        W59093  39.027  39.358   2.314
99833W        W59094  13.252  22.676  10.479
99834W        W59095  19.233  21.251  14.993
99835W        W59096   1.931   9.378  12.836
99836W        W59097  28.002   6.191  10.456
99837W        W59098  24.604   8.719   3.639
99838W        W59099  18.285  15.607   2.378
99839W        W59100  34.610  24.677  13.362
99840W        W59101  32.628  21.651   3.353
99841W        W59102   1.738  12.254  10.506
99842W        W59103  12.216  17.209   0.397
99843W        W59104  38.891  29.577  12.943
99844W        W59105  41.494  11.775   3.152
99845W        W59106  40.948   1.781  14.307
99846W        W59107  14.310  15.660  13.461
99847W        W59108   1.426  25.681   1.869
99848W        W59109  39.449  30.552   1.780
99849W        W59110  11.277  31.416  11.611
99850W        W59111   4.851   5.216  13.413
99851W        W59112  13.158  32.433  12.496
99852W        W59113   8.708   9.723  13.541
99853W        W59114   2.909   2.425   2.830
99854W        W59115  22.066  38.556  14.774
99855W        W59116   3.790   7.677  12.046
99856W        W59117  16.606  36.934   0.737
99857W        W59118  29.029  17.711  12.551
99858W        W59119  29.064  28.080   2.356
99859W        W59120  27.082  11.716  14.919
99860W        W59121  12.343  24.172   3.169
99861W        W59122  33.428  14.795  10.451
99862W        W59123   0.407   2.339  14.337
99863W        W59124  13.155  31.152   4.181
99864W        W59125   2.396  41.967   2.194
99865W        W59126  32.115  38.899  12.091
99866W        W59127  21.119   6.183  13.002
99867W        W59128  39.404   8.738   4.649
99868W        W59129   1.945  40.879  12.027
99869W        W59130  43.915  28.967   3.715
99870W        W59131  41.427   8.176   3.330
99871W        W59132  26.054  19.608   4.354
99872W        W59133   3.295   8.799   5.295
99873W        W59134  12.835   2.852   0.309
99874W        W59135   2.935  18.090  14.971
99875W        W59136  35.391  36.078  11.041
99876W        W59137  40.523  35.886  14.315
99877W        W59138  25.672  11.855   4.119
99878W        W59139   0.485   8.866   3.208
99879W        W59140   1.426  42.802  13.440
99880W        W59141  34.491   1.446   4.663
99881W        W59142  13.302  22.706  10.929
99882W        W59143  16.742  15.180   3.147
99883W        W59144  31.442  32.935  12.047
99884W        W59145  21.704  28.080  12.938
99885W        W59146   0.252  41.452   0.806
99886W        W59147  38.374  23.136   4.195
99887W        W59148   7.386   1.359   4.649
99888W        W59149   8.227   2.940  14.431
99889W        W59150  41.966   6.694   0.885
99890W        W59151  30.146   4.418   0.914
99891W        W59152  39.881  37.931  13.371
99892W        W59153   0.430  32.990  12.877
99893W        W59154  13.841   9.794  14.842
99894W        W59155  15.585  44.448   4.143
99895W        W59156  44.401   6.298   2.186
99896W        W59157   6.855   8.169  10.615
99897W        W59158  33.059  42.523   4.671
99898W        W59159  40.022   6.188  12.384
99899W        W59160  14.266  29.568  11.069
99900W        W59161  26.192  26.178   2.889
99901W        W59162  13.699  15.768  11.095
99902W        W59163  24.055  20.544   1.239
99903W        W59164  41.803  26.041   0.914
99904W        W59165  35.581   2.441   1.244
99905W        W59166  24.985  11.761   0.480
99906W        W59167  26.048  29.989  11.973
99907W        W59168  35.039  14.702  13.390
99908W        W59169  13.308  14.808  14.435
99909W        W59170  14.783  42.468   0.738
99910W        W59171  21.152  36.477   5.238
99911W        W59172  31.610   4.717   0.919
99912W        W59173  38.404  35.604  12.884
99913W        W59174   4.741  13.612   4.645
99914W        W59175  22.708  29.581   0.930
99915W        W59176   3.773   0.975   3.799
99916W        W59177  22.249   3.281   0.926
99917W        W59178   9.728  36.015  13.974
99918W        W59179  37.350  38.850   0.859
99919W        W59180   8.895  39.458  14.814
99920W        W59181  42.435  30.135   9.596
99921W        W59182   4.238  17.702   1.349
99922W        W59183  20.569  16.134  13.953
99923W        W59184  39.383   3.944   4.789
99924W        W59185  14.293  28.480   3.359
99925W        W59186  27.015  13.261   0.775
99926W        W59187  12.299  44.772  11.088
99927W        W59188   0.975  12.632   1.443
99928W        W59189  25.977  16.701   1.864
99929W        W59190  43.453  40.900   0.909
99930W        W59191  16.262  27.478  11.124
99931W        W59192  20.124  17.754  14.901
99932W        W59193  42.516  30.589   4.271
99933W        W59194  34.372  37.898   3.228
99934W        W59195   7.907  14.762   4.638
99935W        W59196  36.568  35.387   0.292
99936W        W59197  26.637  34.882   1.890
99937W        W59198  43.320  27.635   2.707
99938W        W59199   8.304  24.074  12.467
99939W        W59200  36.860  14.269  12.026
99940W        W59201  23.637  29.658  13.860
99941W        W59202  41.424  20.695   1.837
99942W        W59203  37.474  16.776  10.059
99943W        W59204  15.809  21.653   0.870
99944W        W59205   8.760  22.097  12.361
99945W        W59206   4.346  15.239   1.349
99946W        W59207   4.422  39.409   4.734
99947W        W59208  23.736  18.228  13.060
99948W        W59209   6.359   5.829  11.496
99949W        W59210   4.264   2.441   0.875
99950W        W59211  35.530  24.620   3.353
99951W        W59212   4.729  15.733   5.143
99952W        W59213  20.150  28.600   3.234
99953W        W59214   4.217  18.608  13.469
99954W        W59215  30.966  14.229   1.261
99955W        W59216  32.139  36.911   0.822
99956W        W59217  25.107  42.791  11.888
99957W        W59218  43.364  29.096   1.861
99958W        W59219  24.536   9.338  13.341
99959W        W59220  16.804  38.985  13.376
99960W        W59221  31.122  29.605  14.321
99961W        W59222  23.517  28.502  10.560
99962W        W59223  22.659  19.576   5.151
99963W        W59224   8.379  15.086   0.482
99964W        W59225  37.972  30.601   0.376
99965W        W59226  32.917   9.391  11.965
99966W        W59227   6.862   9.749  10.976
99967W        W59228   9.793   4.345   0.891
99968W        W59229  19.151   9.278  10.512
99969W        W59230  34.069   0.935  12.356
99970W        W59231  33.608  27.117  11.877
99971W        W59232   3.872  11.253  14.811
99972W        W59233  15.681  41.842   0.394
99973W        W59234  16.775   6.784  12.916
99974W        W59235  41.456  38.061  13.308
99975W        W59236  26.997  32.422  12.898
99976W        W59237  25.589  38.361  14.024
99977W        W59238  38.504  12.695  13.934
99978W        W59239   0.866  38.848   0.770
99979W        W59240  25.018  21.595   1.381
99980W        W59241   6.829  22.156   0.423
99981W        W59242  19.743  44.781  14.901
99982W        W59243  23.187  12.227   0.909
99983W        W59244   1.855  31.147   3.756
99984W        W59245  27.160   0.796  12.908
99985W        W59246  41.044  24.653   0.880
99986W        W59247  27.446  38.447  10.962
99987W        W59248   3.797   3.419  13.919
99988W        W59249  19.713  14.651   4.123
99989W        W59250   1.475  42.282   2.887
99990W        W59251  15.660  10.200  13.358
99991W        W59252  10.175  14.780  13.374
99992W        W59253  36.486   9.341  12.420
99993W        W59254  30.558  33.094   1.828
99994W        W59255  26.471  35.965  14.397
99995W        W59256  25.554  38.954  12.938
99996W        W59257  38.520  15.601   2.248
99997W        W59258  39.929  34.508   3.838
99998W        W59259   8.827  30.943  13.358
99999W        W59260  11.825  34.384  13.537
    0W        W59261  30.935  29.596   1.827
    1W        W59262  20.662  23.211   4.272
    2W        W59263  21.058   7.753   5.266
    3W        W59264  29.051   0.385   1.436
    4W        W59265  11.327  36.856  13.338
    5W        W59266  18.548  17.793  12.062
    6W        W59267   0.272  17.179  12.048
    7W        W59268  13.746  28.451   3.371
    8W        W59269  26.615  19.537  12.544
    9W        W59270  31.510  25.622  14.368
   10W        W59271   3.305  33.479   0.458
   11W        W59272  33.490   1.915  13.852
   12W        W59273  10.687  23.594   5.309
   13W        W59274  18.147  41.902  14.321
   14W        W59275  13.317  38.910  11.020
   15W        W59276  13.619  18.214   1.925
   16W        W59277  14.776   9.729  14.456
   17W        W59278  22.533  14.168  12.870
   18W        W59279   9.728  23.557   1.286
   19W        W59280  29.130  11.798  13.019
   20W        W59281   1.367  25.099  13.931
   21W        W59282  40.426  14.216   0.878
   22W        W59283  19.128  42.461   2.341
   23W        W59284  26.155   4.426  14.350
   24W        W59285   4.900  17.299  10.956
   25W        W59286   8.678   7.834  10.897
   26W        W59287  42.282  39.002  12.556
   27W        W59288  42.378  10.256   3.643
   28W        W59289  19.672  21.662   5.134
   29W        W59290  21.178  32.583   4.614
   30W        W59291  28.565  10.279   4.127
   31W        W59292  39.521  18.598   2.253
   32W        W59293   3.415  35.026  13.805
   33W        W59294  34.901  12.802  14.007
   34W        W59295  37.854  36.444  12.012
   35W        W59296  35.385  22.236   0.361
   36W        W59297   0.488  15.667  10.417
   37W        W59298  41.891  12.775   0.765
   38W        W59299   1.771  19.616  12.832
   39W        W59300  37.943   8.680   4.339
   40W        W59301  42.018  35.574   0.288
   41W        W59302   1.479  14.207  13.309
   42W        W59303  36.575  20.068   2.359
   43W        W59304  15.704  32.496   0.325
   44W        W59305  42.344  26.018   3.314
   45W        W59306  29.652  26.065   1.334
   46W        W59307  37.837  32.886  10.904
   47W        W59308  40.544  21.132   5.143
   48W        W59309  34.483  33.601  14.276
   49W        W59310  39.820   3.317   4.303
   50W        W59311  10.710  28.610   3.147
   51W        W59312  32.969  29.536  12.865
   52W        W59313  15.789  35.584   2.864
   53W        W59314  42.947  37.048  10.472
   54W        W59315   1.821   7.351  12.514
   55W        W59316  15.673  23.719  12.388
   56W        W59317   4.439   1.898  11.114
   57W        W59318  17.573  22.560   4.211
   58W        W59319  19.156  18.612  12.855
   59W        W59320  22.070  26.092   3.870
   60W        W59321   5.699  26.600   0.391
   61W        W59322  23.608  22.251   4.133
   62W        W59323  33.993  10.259   5.202
   63W        W59324  38.424  18.658   5.146
   64W        W59325   4.843  19.776   1.867
   65W        W59326  19.559  37.886  14.019
   66W        W59327   2.250  19.571   1.908
   67W        W59328   7.249   1.968   1.751
   68W        W59329  33.127  18.263   4.307
   69W        W59330  41.912   3.325   1.853
   70W        W59331  25.981   4.205  14.788
   71W        W59332  39.040  26.987   2.201
   72W        W59333  35.964  32.620   3.805
   73W        W59334  43.925  28.066   1.929
   74W        W59335  15.789  21.181  12.031
   75W        W59336   4.331  34.425  12.420
   76W        W59337  14.716  15.202   4.237
   77W        W59338  34.892  38.871  13.372
   78W        W59339  27.096   3.846  12.025
   79W        W59340  40.429  17.634   1.775
   80W        W59341   7.357  23.101  13.897
   81W        W59342  36.039  35.052  13.993
   82W        W59343   5.300  44.997   1.263
   83W        W59344  15.667   2.726  10.509
   84W        W59345  25.509   3.852   4.341
   85W        W59346  30.501   4.725  12.896
   86W        W59347  15.604  25.091   0.333
   87W        W59348  24.558  18.251  14.293
   88W        W59349  18.680   1.275   0.947
   89W        W59350  36.040  18.203   3.855
   90W        W59351  34.116  14.710   2.794
   91W        W59352  13.276  29.136   1.905
   92W        W59353  41.859   8.762  13.411
   93W        W59354  30.539  13.637  10.543
   94W        W59355  21.629  26.957  13.798
   95W        W59356  26.168   7.193   1.799
   96W        W59357  40.936  32.064  11.592
   97W        W59358  41.997  30.432  12.427
   98W        W59359  24.217  43.842   1.358
   99W        W59360  36.557  23.044   1.843
  100W        W59361  31.055  20.662  13.907
  101W        W59362  31.129  41.439  10.895
  102W        W59363  13.673  37.477  13.398
  103W        W59364  38.391  16.715   4.315
  104W        W59365   4.411  28.046  14.478
  105W        W59366   4.735   3.430   1.401
  106W        W59367  20.690  36.909   2.372
  107W        W59368  21.175  22.598  13.797
  108W        W59369  24.483  42.803  11.008
  109W        W59370  40.803  39.868   1.836
  110W        W59371  21.558   5.341   3.165
  111W        W59372   4.724  11.838  11.979
  112W        W59373   8.887  22.711  14.769
  113W        W59374  41.956  23.212   5.626
  114W        W59375   7.689  21.163  11.403
  115W        W59376   0.310  38.428  11.496
  116W        W59377  38.473  37.934   1.909
  117W        W59378   1.955  25.640  11.007
  118W        W59379  14.199   4.443   2.754
  119W        W59380  32.084  27.107  14.896
  120W        W59381  20.131  29.435  10.573
  121W        W59382  22.074  12.248  11.481
  122W        W59383  42.964  37.972   3.807
  123W        W59384   3.459  41.498  13.852
  124W        W59385  28.110  25.010  12.537
  125W        W59386  42.998   5.902   4.638
  126W        W59387  17.603  34.904  10.611
  127W        W59388  38.374  23.078  12.023
  128W        W59389  26.203  25.977  13.861
  129W        W59390  42.955   8.173  11.108
  130W        W59391  42.015  36.024  11.579
  131W        W59392  39.839   3.364  14.392
  132W        W59393   0.855  41.491   3.374
  133W        W59394   0.389   2.821   3.154
  134W        W59395  38.993  24.542   2.413
  135W        W59396  19.189   5.259  14.341
  136W        W59397  44.950  10.758   0.427
  137W        W59398   7.899  21.086  12.987
  138W        W59399  44.844  19.554  14.455
  139W        W59400  43.321   1.822   1.913
  140W        W59401  24.498   2.810  14.776
  141W        W59402  37.904  24.690  13.461
  142W        W59403  38.485  34.502   0.414
  143W        W59404  44.319  35.877   1.737
  144W        W59405  41.971  16.207   5.224
  145W        W59406  40.422  24.059  14.957
  146W        W59407  44.505  24.981   0.253
  147W        W59408  28.135  36.003  10.012
  148W        W59409  31.986   1.255   2.232
  149W        W59410  18.560  27.124   5.784
  150W        W59411  28.015  29.990  12.366
  151W        W59412  39.057   8.349   2.680
  152W        W59413  34.448   9.659  14.943
  153W        W59414   4.860  38.442   0.848
  154W        W59415  12.693  42.375  12.485
  155W        W59416  43.958  44.913   3.364
  156W        W59417  39.005  39.979  13.330
  157W        W59418  40.964  34.936  12.003
  158W        W59419  29.600   8.837  10.486
  159W        W59420  32.938  17.133   2.865
  160W        W59421  27.973   8.170  14.857
  161W        W59422  23.135  18.163   9.464
  162W        W59423  22.093  37.964  10.980
  163W        W59424  41.962  36.473   5.765
  164W        W59425   5.834  33.508  11.881
  165W        W59426  31.516  20.667   4.811
  166W        W59427   5.335   5.752   0.819
  167W        W59428  15.245   9.221  12.072
  168W        W59429   4.375  24.502  14.840
  169W        W59430  22.600   8.370  13.952
  170W        W59431   5.719  16.316   0.919
  171W        W59432  14.221  16.250  11.510
  172W        W59433  41.471   5.232   2.310
  173W        W59434  20.154  37.357   4.776
  174W        W59435   2.457  11.789  10.025
  175W        W59436  25.571  27.690  14.820
  176W        W59437   1.864  39.324  14.403
  177W        W59438  42.788  11.737   4.794
  178W        W59439  26.613  13.680   2.857
  179W        W59440  27.192  34.438  13.339
  180W        W59441  38.420  38.042  11.022
  181W        W59442   8.330  11.362  11.986
  182W        W59443  27.681  41.990  12.085
  183W        W59444  11.176  44.303  12.524
  184W        W59445  14.196   6.916   2.778
  185W        W59446  37.893  11.356  11.612
  186W        W59447  21.642  18.160   2.755
  187W        W59448  16.601  36.018   2.225
  188W        W59449  23.179  35.526   1.792
  189W        W59450  20.239  24.674  11.534
  190W        W59451  16.250  33.390  13.846
  191W        W59452  35.065  38.532   3.182
  192W        W59453  14.284   2.915  13.822
  193W        W59454  31.510  30.426  11.471
  194W        W59455  42.905  36.936   1.230
  195W        W59456  21.511  31.524  10.430
  196W        W59457   8.811   7.888   2.723
  197W        W59458  30.063  12.250   2.736
  198W        W59459  31.437  41.839  14.513
  199W        W59460   3.821  29.456   2.724
  200W        W59461  44.485  33.418   2.764
  201W        W59462  39.556  14.220  10.600
  202W        W59463  20.035  41.418  12.066
  203W        W59464  11.146   1.323  14.827
  204W        W59465  38.510  34.588  11.497
  205W        W59466  44.827  18.131   4.653
  206W        W59467  38.043  34.016  13.349
  207W        W59468  10.257  32.435  14.003
  208W        W59469   9.666  43.914  12.544
  209W        W59470  41.803  37.081   3.356
  210W        W59471  31.914  38.056  12.091
  211W        W59472  10.788  18.699  13.805
  212W        W59473  34.116   1.244  14.850
  213W        W59474   3.415  15.734  12.861
  214W        W59475   5.391  36.365  11.534
  215W        W59476  17.147  15.706   4.644
  216W        W59477   4.831  12.180   3.251
  217W        W59478   9.674  36.909  11.428
  218W        W59479   1.273  35.358   4.269
  219W        W59480  12.274  29.458   1.306
  220W        W59481  11.706  15.697   4.333
  221W        W59482  10.157  15.677  11.564
  222W        W59483  32.082  22.637  13.963
  223W        W59484   0.744  11.312   0.863
  224W        W59485  24.166  29.614   3.323
  225W        W59486  31.455  15.303   0.871
  226W        W59487  41.012  16.679  13.893
  227W        W59488  22.501  20.596   4.351
  228W        W59489  17.180   4.331  13.415
  229W        W59490  28.590  14.588  13.945
  230W        W59491  12.191  33.080  14.803
  231W        W59492  41.965   8.292  11.575
  232W        W59493  20.548  27.163   1.428
  233W        W59494  32.018  28.678  11.901
  234W        W59495  12.730  14.704   0.892
  235W        W59496  35.480  34.587  12.377
  236W        W59497  10.849  39.315   0.897
  237W        W59498  30.005   1.442   0.315
  238W        W59499  10.297  40.312   1.744
  239W        W59500  28.054  18.054  14.395
  240W        W59501  40.425  18.645  11.510
  241W        W59502  41.412  36.510  12.392
  242W        W59503   8.181  39.408  10.498
  243W        W59504   2.250  26.581  11.443
  244W        W59505  39.488  15.604   3.228
  245W        W59506  28.077  44.913   0.962
  246W        W59507  29.470  39.384   1.235
  247W        W59508  27.194   1.818  11.040
  248W        W59509   7.675   0.368   1.845
  249W        W59510  41.948  23.585  14.008
  250W        W59511  33.899  22.706   9.988
  251W        W59512   8.386  19.041   2.662
  252W        W59513  34.012  39.981   2.784
  253W        W59514  44.498   6.265  13.475
  254W        W59515  18.215   1.271   1.212
  255W        W59516   6.714   2.456   3.262
  256W        W59517  44.403  29.983  12.987
  257W        W59518  10.675  38.834  14.013
  258W        W59519  30.415   9.752   3.152
  259W        W59520   8.898  36.906  14.825
  260W        W59521  26.029  40.488   3.639
  261W        W59522   2.736   4.742   3.832
  262W        W59523  14.694  31.083  10.042
  263W        W59524  28.486   6.391  13.444
  264W        W59525  16.796  10.219  10.562
  265W        W59526  32.505  16.792   3.246
  266W        W59527  25.536  34.521  11.412
  267W        W59528  40.388  42.343   0.848
  268W        W59529   2.376  39.504  14.956
  269W        W59530  22.221  38.341   4.160
  270W        W59531  12.211  23.168   1.761
  271W        W59532  21.671   4.758  13.387
  272W        W59533   1.905  34.494  12.926
  273W        W59534  35.386  35.396  11.106
  274W        W59535  29.581  23.143  11.085
  275W        W59536  26.089   4.883   2.816
  276W        W59537   6.695   0.456   4.250
  277W        W59538  34.557  32.493   3.831
  278W        W59539  40.352  11.319  12.016
  279W        W59540   6.379  40.378  13.525
  280W        W59541   8.214   2.278   4.242
  281W        W59542  33.090  13.301  14.833
  282W        W59543  32.989   4.799  14.506
  283W        W59544  18.237  10.364   1.222
  284W        W59545  39.554  10.247   1.818
  285W        W59546  40.403   8.272  11.053
  286W        W59547  42.432  24.677  10.461
  287W        W59548   5.934  29.988  14.785
  288W        W59549  12.712  37.962   1.395
  289W        W59550  44.345  15.777   0.302
  290W        W59551  10.692  39.526  14.919
  291W        W59552  34.884   7.194  11.923
  292W        W59553  33.986  19.240   0.966
  293W        W59554  14.662   3.923  11.076
  294W        W59555  44.388  42.940  10.482
  295W        W59556  36.940  40.041   2.719
  296W        W59557  39.495  33.619   0.818
  297W        W59558  22.692  30.010  12.946
  298W        W59559  32.474  22.717   1.878
  299W        W59560  31.410   4.390  12.440
  300W        W59561  25.081  18.786  10.546
  301W        W59562  23.124  34.556  11.382
  302W        W59563  24.142  11.653  13.520
  303W        W59564  11.678  23.116  13.413
  304W        W59565  23.660  22.177   2.724
  305W        W59566  30.517  37.036   4.191
  306W        W59567  36.865  30.932   3.634
  307W        W59568  39.332   3.247   0.482
  308W        W59569  15.299  15.285  12.878
  309W        W59570  20.050  38.029  12.503
  310W        W59571  32.463  38.353  12.506
  311W        W59572  43.451   2.360  13.428
  312W        W59573  42.464  24.721  13.005
  313W        W59574  15.278  18.164  13.889
  314W        W59575  26.955  20.079   4.693
  315W        W59576  32.501   1.793   4.754
  316W        W59577  15.286  38.451  11.126
  317W        W59578  17.075  26.079   3.160
  318W        W59579   7.843  13.603   4.712
  319W        W59580  23.129  18.627  11.575
  320W        W59581  33.570  19.124  13.536
  321W        W59582  23.069  27.475  13.348
  322W        W59583  23.000  30.418   0.394
  323W        W59584  37.070  43.444  11.479
  324W        W59585  36.963   3.809  11.518
  325W        W59586  30.089   9.773  14.022
  326W        W59587   7.215  11.163  10.552
  327W        W59588  19.073  44.385  14.353
  328W        W59589  37.490  17.248   1.870
  329W        W59590  39.842  12.307   4.192
  330W        W59591  23.141  38.993  11.413
  331W        W59592  17.273  41.942  10.546
  332W        W59593  31.966  41.523   4.603
  333W        W59594  39.897  18.117  14.775
  334W        W59595  31.088  14.806   2.230
  335W        W59596  10.188  24.578  12.446
  336W        W59597  25.695  25.093   2.275
  337W        W59598  18.659  34.570  10.900
  338W        W59599  13.145  24.600  10.980
  339W        W59600   3.817   1.318  11.519
  340W        W59601  15.794  37.856  12.882
  341W        W59602  22.708  42.797  11.916
  342W        W59603  11.774  24.600   0.297
  343W        W59604  32.519  26.640   1.393
  344W        W59605  36.399   7.402  13.885
  345W        W59606   4.880  44.276   1.381
  346W        W59607  12.361  37.989  13.810
  347W        W59608  29.597   5.791   3.705
  348W        W59609  40.381  43.449   4.290
  349W        W59610  38.010  43.953  12.985
  350W        W59611  38.834   6.718   3.204
  351W        W59612  18.264  36.881   2.805
  352W        W59613  40.448  29.581  14.362
  353W        W59614  39.982  28.466   5.132
  354W        W59615  17.687   2.239  14.305
  355W        W59616   0.455  14.819  13.044
  356W        W59617   2.925  37.880  14.392
  357W        W59618  22.646  21.105   0.357
  358W        W59619  16.716  14.292  11.565
  359W        W59620  21.017  23.241   1.294
  360W        W59621  41.448  38.437  13.006
  361W        W59622  19.044  40.838   2.354
  362W        W59623  19.685  34.102   3.762
  363W        W59624  32.433  43.369  13.528
  364W        W59625  15.220  44.937  14.852
  365W        W59626   1.362  17.259   2.292
  366W        W59627  13.188  41.427   1.793
  367W        W59628  37.913  17.739   4.168
  368W        W59629  42.459   4.412   3.711
  369W        W59630  37.389  43.013  11.512
  370W        W59631  31.624  20.588   1.736
  371W        W59632  35.939  21.526   2.206
  372W        W59633  14.139  25.046  13.043
  373W        W59634  37.361  39.036   3.812
  374W        W59635  11.154   1.904   0.872
  375W        W59636   5.907  34.024  14.306
  376W        W59637  44.404  33.441  11.422
  377W        W59638   5.830  33.960   0.355
  378W        W59639  20.203  17.639  14.322
  379W        W59640  22.529   9.268   3.749
  380W        W59641   1.248  41.344   4.661
  381W        W59642   0.261  43.858   1.370
  382W        W59643  32.002   0.757  13.313
  383W        W59644  25.166  23.219   1.291
  384W        W59645  35.056   2.929  13.058
  385W        W59646  39.895  40.037   2.750
  386W        W59647  15.164   7.357  14.408
  387W        W59648  35.384   6.254  11.606
  388W        W59649   5.808  14.783  13.420
  389W        W59650  28.990  42.357   3.307
  390W        W59651  19.186  11.150   2.772
  391W        W59652  33.894  15.270   3.342
  392W        W59653  22.690  17.749  10.500
  393W        W59654  35.561   1.972   1.419
  394W        W59655  10.241   0.343   2.332
  395W        W59656  34.005  40.350  12.009
  396W        W59657  11.643  42.779  11.513
  397W        W59658  30.920  22.630  11.511
  398W        W59659   8.175  37.563  12.955
  399W        W59660  34.976  31.900   0.774
  400W        W59661  17.234   4.401   2.704
  401W        W59662  43.814  41.353   0.749
  402W        W59663   5.391   8.197  14.506
  403W        W59664  33.471  10.318  14.838
  404W        W59665  25.137  39.958  13.064
  405W        W59666  24.508   1.858   3.267
  406W        W59667  11.237  27.146   4.604
  407W        W59668  29.543   6.811  10.639
  408W        W59669  23.047  44.355   3.723
  409W        W59670  15.800  19.676  10.954
  410W        W59671  33.068   7.858  14.468
  411W        W59672  43.827  35.441  14.896
  412W        W59673  42.828  22.538  13.524
  413W        W59674  29.566  33.907   4.200
  414W        W59675  38.334   2.824   3.154
  415W        W59676  30.655  33.559   2.725
  416W        W59677   9.294  23.563   0.865
  417W        W59678   6.855  44.944  13.794
  418W        W59679  27.657  42.833   5.101
  419W        W59680  28.632   6.691  14.791
  420W        W59681  16.643  34.949  12.824
  421W        W59682   3.228  21.658   3.208
  422W        W59683  16.722  44.870  12.533
  423W        W59684  43.006  29.477   2.702
  424W        W59685  11.634  29.645   3.817
  425W        W59686  17.285  25.002  13.476
  426W        W59687  37.428   1.361  11.613
  427W        W59688  18.211  43.873  13.936
  428W        W59689  10.649   5.761   4.773
  429W        W59690  33.587  31.138   2.194
  430W        W59691  20.043  38.435   0.741
  431W        W59692  32.972  25.564   4.161
  432W        W59693  24.634  23.557   1.254
  433W        W59694  13.738   9.217  11.387
  434W        W59695  38.868  37.366  13.056
  435W        W59696  31.028  14.218  11.576
  436W        W59697   6.817  11.725   2.275
  437W        W59698  12.763  26.461  12.568
  438W        W59699  16.727   1.351  14.028
  439W        W59700  38.005   9.362   2.414
  440W        W59701  17.801  44.846  14.909
  441W        W59702  24.536   2.384   3.349
  442W        W59703   0.825  41.517   0.407
  443W        W59704  26.165  18.200  10.539
  444W        W59705  10.839   6.908  11.905
  445W        W59706  40.926  31.115   3.217
  446W        W59707  25.147  15.317  11.856
  447W        W59708  38.495  18.125   3.155
  448W        W59709  22.652  42.506  14.016
  449W        W59710  33.425  42.499  11.103
  450W        W59711  24.041  37.367   4.280
  451W        W59712  17.208  15.110  14.887
  452W        W59713  30.416  12.350   4.287
  453W        W59714  38.033  14.594  13.311
  454W        W59715  14.588  12.361  13.417
  455W        W59716  15.218  20.230   0.392
  456W        W59717  37.914  18.590  13.318
  457W        W59718  33.568  43.977   4.721
  458W        W59719   4.390  24.049   2.209
  459W        W59720  28.081  27.459   3.745
  460W        W59721  10.292  15.720   2.693
  461W        W59722  17.145  24.139   4.224
  462W        W59723   1.264   6.240  10.453
  463W        W59724  33.594  32.556  12.386
  464W        W59725  29.998  34.426   2.710
  465W        W59726   7.367  20.550  11.962
  466W        W59727  16.662  20.038  10.467
  467W        W59728  21.714  30.626  13.396
  468W        W59729  42.916  43.778   4.284
  469W        W59730   5.806  28.076   4.677
  470W        W59731  15.803   6.245  13.328
  471W        W59732  28.582   0.303   4.695
  472W        W59733   5.244   1.944  13.492
  473W        W59734  28.051  36.400  13.049
  474W        W59735  28.530  29.068   3.381
  475W        W59736  28.037  18.286  10.613
  476W        W59737  21.575  22.062   4.188
  477W        W59738  13.763  34.012  13.461
  478W        W59739  13.122   3.217  14.378
  479W        W59740  36.969  23.164   3.629
  480W        W59741  10.139   0.808   2.273
  481W        W59742  32.053  27.983  10.614
  482W        W59743  12.128   2.375  10.496
  483W        W59744  42.375  10.282  10.410
  484W        W59745  38.996  26.155  12.964
  485W        W59746  31.900  42.917  11.440
  486W        W59747  27.689   7.764   4.770
  487W        W59748  42.859  15.220  12.477
  488W        W59749   4.711  26.549   4.821
  489W        W59750  41.324  43.437  12.958
  490W        W59751  12.845   5.208   3.283
  491W        W59752  12.629  11.809  13.414
  492W        W59753  31.044  40.892  11.547
  493W        W59754  14.202  31.507   3.863
  494W        W59755  14.179  12.815  11.023
  495W        W59756   0.384  41.884   2.757
  496W        W59757  39.463   1.849  11.888
  497W        W59758  44.337   9.360  10.494
  498W        W59759  15.116  37.505  12.397
  499W        W59760  37.027  21.579   2.673
  500W        W59761   2.366  14.302  12.969
  501W        W59762  20.526  41.936   4.689
  502W        W59763  37.560  25.656  11.566
  503W        W59764  20.737   8.724  12.366
  504W        W59765  30.522   7.878  11.031
  505W        W59766  23.995  24.185   1.860
  506W        W59767  18.230  33.094   1.719
  507W        W59768  13.670  36.480  14.510
  508W        W59769  41.930  31.546  12.919
  509W        W59770   5.803  37.345  10.531
  510W        W59771  25.053  20.643  13.428
  511W        W59772  39.493   0.956  14.451
  512W        W59773  22.536   1.269   1.295
  513W        W59774  15.200   6.794   1.705
  514W        W59775  28.025  30.114  14.766
  515W        W59776  29.955  24.497   2.181
  516W        W59777   2.471  36.857   0.780
  517W        W59778  24.543   7.408  12.982
  518W        W59779  27.662   4.928   4.817
  519W        W59780  11.247  29.072   2.237
  520W        W59781  11.732  37.410   3.708
  521W        W59782   8.209  32.052   3.177
  522W        W59783   7.744  35.091  11.977
  523W        W59784  23.119  28.148  12.071
  524W        W59785   9.746  29.655   0.450
  525W        W59786   2.796  34.884   0.432
  526W        W59787   5.225  38.903  11.890
  527W        W59788   4.892  34.421   9.983
  528W        W59789  44.438  35.392  10.996
  529W        W59790  26.485   7.762  14.387
  530W        W59791  13.691   2.368   4.131
  531W        W59792  40.029  13.326  14.407
  532W        W59793  11.220  41.303   3.688
  533W        W59794  34.402  17.741   3.326
  534W        W59795  30.591  38.414   3.242
  535W        W59796  35.046  16.143   2.741
  536W        W59797   2.297  11.750  12.512
  537W        W59798  31.082   2.376   0.758
  538W        W59799  27.962  24.058  13.922
  539W        W59800  29.987   6.239   0.273
  540W        W59801   4.747  38.999   4.671
  541W        W59802  12.349   6.330  11.994
  542W        W59803  11.211   9.698   1.898
  543W        W59804  43.375  32.538  12.882
  544W        W59805   7.777  35.011  12.882
  545W        W59806   8.663  31.567  11.980
  546W        W59807  17.230   8.704  14.371
  547W        W59808  10.255  18.167  10.027
  548W        W59809  27.669  36.504   0.816
  549W        W59810  32.992  41.337   4.614
  550W        W59811  32.922  41.945   2.298
  551W        W59812  37.539  32.893  13.521
  552W        W59813  32.426  25.616  13.346
  553W        W59814  17.683   6.254   1.246
  554W        W59815  26.078  43.923   5.662
  555W        W59816  21.194  16.293   4.679
  556W        W59817   9.820   1.465  10.609
  557W        W59818   5.898  18.277   3.832
  558W        W59819   7.671   3.798  10.479
  559W        W59820   1.774  33.617   2.721
  560W        W59821  10.295  40.828   0.906
  561W        W59822  34.961  13.656  10.922
  562W        W59823  41.422  11.314  12.351
  563W        W59824  41.527  34.445   1.220
  564W        W59825  38.507  34.089   4.808
  565W        W59826   2.826  30.945  13.346
  566W        W59827   1.461  18.188   2.710
  567W        W59828  18.281  13.803   1.788
  568W        W59829  13.622  33.614   1.779
  569W        W59830  37.562  44.331   1.413
  570W        W59831  44.372   6.216  12.480
  571W        W59832  34.558  18.158   2.178
  572W        W59833  42.997  12.312   4.717
  573W        W59834  35.861  11.172  12.005
  574W        W59835  24.508  26.959  14.843
  575W        W59836  20.080   5.807  10.921
  576W        W59837  11.146  20.249   4.730
  577W        W59838  19.100  25.074  14.806
  578W        W59839  29.453   2.877  14.285
  579W        W59840  22.554  39.842   4.758
  580W        W59841  44.995  24.629  12.457
  581W        W59842  34.508  25.216  13.449
  582W        W59843  37.893  31.492   4.248
  583W        W59844  11.217  39.421  12.485
  584W        W59845  41.954  17.689   4.598
  585W        W59846  16.638  29.597   0.483
  586W        W59847  12.158  16.692  12.876
  587W        W59848  15.799  31.006   4.609
  588W        W59849   2.259   2.774   1.737
  589W        W59850  40.028   2.922   3.637
  590W        W59851   7.756   7.869   4.326
  591W        W59852   0.977  27.460  14.795
  592W        W59853  26.508  44.985  12.514
  593W        W59854   1.397  27.462   1.342
  594W        W59855  35.397  17.686   4.277
  595W        W59856  44.490  15.776   2.858
  596W        W59857  23.508  23.172  13.321
  597W        W59858  39.360  22.535  13.813
  598W        W59859   1.885  17.749   4.147
  599W        W59860   1.958   1.456   2.233
  600W        W59861  33.121  35.516   2.246
  601W        W59862  34.901   1.336   3.260
  602W        W59863  28.532  36.458   1.411
  603W        W59864  40.332   2.831  12.477
  604W        W59865  20.161  29.073  11.453
  605W        W59866   8.292  34.914  12.003
  606W        W59867  24.673  28.524  12.995
  607W        W59868  32.097  37.556   0.727
  608W        W59869  29.458   2.341   3.359
  609W        W59870  44.940  27.133  13.866
  610W        W59871  40.913  35.500   2.211
  611W        W59872   7.785  23.703  14.838
  612W        W59873   2.845  11.144  12.917
  613W        W59874  22.111  38.431  13.319
  614W        W59875  37.991  18.105   0.859
  615W        W59876   2.245  18.096  11.079
  616W        W59877  13.318   1.238   1.906
  617W        W59878  37.393  25.978  10.430
  618W        W59879  25.098   3.369   3.680
  619W        W59880   4.242  28.053   2.200
  620W        W59881  39.863  15.590   1.296
  621W        W59882  11.361   5.878   1.244
  622W        W59883  12.337  42.925  11.572
  623W        W59884  44.920   4.329   3.660
  624W        W59885  38.495   1.898   3.681
  625W        W59886  39.854  28.024   3.186
  626W        W59887  13.185  14.224  12.004
  627W        W59888  21.598  23.512   4.629
  628W        W59889  35.965  28.951  13.020
  629W        W59890  43.828  38.933  12.922
  630W        W59891  28.023  38.332  14.915
  631W        W59892  26.180  35.096  10.405
  632W        W59893  31.408  13.127  12.823
  633W        W59894  30.548  24.073  12.909
  634W        W59895   2.452  12.234   0.434
  635W        W59896  26.015   0.797   2.387
  636W        W59897   4.262  24.480   3.329
  637W        W59898  37.978   9.721  13.435
  638W        W59899  40.844  36.877  11.997
  639W        W59900  27.174   5.701  12.558
  640W        W59901  33.383  41.891   0.912
  641W        W59902   3.417  27.167   0.921
  642W        W59903  44.914  17.748   5.711
  643W        W59904  16.090  35.419  14.803
  644W        W59905  39.484  24.696   1.227
  645W        W59906  36.421  18.624   4.352
  646W        W59907  31.473  16.587   4.746
  647W        W59908   5.912  13.137   4.209
  648W        W59909  31.024  35.472   0.966
  649W        W59910  27.041  18.558   3.148
  650W        W59911  21.523  33.585  14.777
  651W        W59912  14.257  34.603   0.883
  652W        W59913  44.942  32.062  13.938
  653W        W59914  31.554   3.955  14.510
  654W        W59915  27.014   7.404   4.621
  655W        W59916  30.508   4.782  10.606
  656W        W59917   2.442  11.720  11.045
  657W        W59918   1.294  14.728  12.947
  658W        W59919  27.998  39.401  14.778
  659W        W59920  18.240  44.970   2.347
  660W        W59921  12.169  29.532   5.224
  661W        W59922  31.477  30.992   1.326
  662W        W59923  22.209  14.760  12.363
  663W        W59924   1.877  19.713  12.440
  664W        W59925   5.436  31.406   4.232
  665W        W59926  33.044  22.125   0.424
  666W        W59927  26.684  25.695   4.306
  667W        W59928  32.570   6.682  11.864
  668W        W59929  21.159  31.486   4.711
  669W        W59930  10.811  11.641  12.931
  670W        W59931  34.929  37.351  11.484
  671W        W59932   3.356  15.725  12.048
  672W        W59933  10.669  34.426  13.389
  673W        W59934  37.460  14.705  13.538
  674W        W59935  41.025  27.050   4.298
  675W        W59936  35.078  23.071  13.881
  676W        W59937  22.519  40.462   0.799
  677W        W59938  29.109   6.280   2.397
  678W        W59939  42.895  25.573  12.823
  679W        W59940  14.150   6.758   0.449
  680W        W59941   2.957  39.971  11.447
  681W        W59942   8.329  36.854   0.450
  682W        W59943  17.719  22.707  13.310
  683W        W59944   4.803  29.489   4.699
  684W        W59945  40.020  24.100   5.682
  685W        W59946  32.548  41.431   0.928
  686W        W59947   2.806  39.465   3.687
  687W        W59948  28.074  10.196   4.174
  688W        W59949  26.687  36.021  12.827
  689W        W59950  12.669  18.130   1.903
  690W        W59951  17.581  13.267   2.798
  691W        W59952  14.224  24.090   1.346
  692W        W59953  39.429  22.635  12.561
  693W        W59954  27.625  21.655  14.789
  694W        W59955  33.422  35.023   0.927
  695W        W59956  19.634  38.479   4.140
  696W        W59957   1.284  31.465   3.227
  697W        W59958  31.597  19.586   0.363
  698W        W59959  19.189  41.984   3.747
  699W        W59960  14.595  19.239   1.807
  700W        W59961  23.582  22.737   3.258
  701W        W59962  31.138  12.160   1.922
  702W        W59963  32.059  20.736  12.030
  703W        W59964  21.060  19.112   0.300
  704W        W59965   1.862  23.060  11.988
  705W        W59966   9.683  32.629  10.460
  706W        W59967  36.363  20.201  11.979
  707W        W59968  40.012  20.628   4.836
  708W        W59969  33.450  19.587  11.508
  709W        W59970  38.938   0.444   0.849
  710W        W59971  41.438  43.786  11.899
  711W        W59972  43.408   8.734  14.383
  712W        W59973  38.411  25.584   1.326
  713W        W59974  11.741  37.071   0.771
  714W        W59975  33.079  37.891  13.380
  715W        W59976  36.989  14.646   3.674
  716W        W59977  18.140  36.033   4.759
  717W        W59978  41.379  33.491  12.835
  718W        W59979  35.967   8.373   3.165
  719W        W59980  14.223  26.556  11.966
  720W        W59981  18.257   3.244   4.233
  721W        W59982   1.365  37.012   4.669
  722W        W59983  41.484  27.495   2.808
  723W        W59984   1.299   9.197  12.353
  724W        W59985   4.386  40.917  11.540
  725W        W59986   8.208  25.149  11.033
  726W        W59987   4.699  34.991  14.405
  727W        W59988  36.940  38.840  14.456
  728W        W59989  17.601  26.986  14.297
  729W        W59990   9.648  23.630  12.851
  730W        W59991  12.622  33.477  12.999
  731W        W59992  21.649  33.565  13.326
  732W        W59993  43.456  21.516  10.030
  733W        W59994  41.808  32.078   1.240
  734W        W59995   2.891  31.492  12.984
  735W        W59996  37.871   2.351  11.009
  736W        W59997  34.864  34.079  14.798
  737W        W59998  31.415  35.575   3.784
  738W        W59999  33.576  27.449   4.767
  739W        W60000   7.859  29.557   3.283
  740W        W60001  24.982  29.488  11.434
  741W        W60002  43.297  33.621   5.609
  742W        W60003  25.654   6.881  12.484
  743W        W60004   0.774  11.798   0.333
  744W        W60005  38.465  37.457  11.609
  745W        W60006  10.673  34.999  10.404
  746W        W60007  18.616  31.632  13.928
  747W        W60008   2.364  14.758  13.346
  748W        W60009  24.701  25.186  11.504
  749W        W60010  16.695  22.650   2.740
  750W        W60011  32.478  20.096   2.368
  751W        W60012  43.467   3.233   3.695
  752W        W60013  33.087   6.717  14.815
  753W        W60014   6.285  12.674  13.487
  754W        W60015  44.810  26.121  11.068
  755W        W60016  34.556  21.699  11.023
  756W        W60017  23.660   3.416   5.195
  757W        W60018  28.486  13.762   1.894
  758W        W60019  23.997  29.618  13.400
  759W        W60020  35.564  42.297  13.375
  760W        W60021  18.587   1.771   3.799
  761W        W60022  30.979  17.712  12.533
  762W        W60023  26.205   3.222  14.514
  763W        W60024   1.922   6.903  13.891
  764W        W60025  15.181  14.239  14.299
  765W        W60026   8.173  30.615  11.061
  766W        W60027  39.341  14.832   3.212
  767W        W60028  44.890  16.315   2.799
  768W        W60029  13.835   5.269   4.762
  769W        W60030  13.276  20.755   1.396
  770W        W60031   5.367  41.419   0.273
  771W        W60032  22.168  38.977   4.338
  772W        W60033  15.715  35.919   0.332
  773W        W60034  12.153  39.463   3.272
  774W        W60035  11.632  21.213   9.941
  775W        W60036  42.926  19.746   0.308
  776W        W60037  28.937  22.598   0.346
  777W        W60038  37.007  18.770   2.320
  778W        W60039  16.238  25.963  11.548
  779W        W60040   3.824  20.767   4.665
  780W        W60041  40.851  43.451   1.339
  781W        W60042  36.581  11.782   4.832
  782W        W60043  41.469  25.543   0.348
  783W        W60044   5.863  37.339  13.805
  784W        W60045  35.881  26.649   2.839
  785W        W60046   9.296  43.887  10.533
  786W        W60047  24.576  13.730  11.571
  787W        W60048  23.016  12.672  12.903
  788W        W60049  12.715  44.002  11.910
  789W        W60050  11.275   0.914   1.833
  790W        W60051  29.049  28.469   2.416
  791W        W60052  28.965  37.458   3.810
  792W        W60053   6.400  10.794  11.589
  793W        W60054  26.992  26.110  12.549
  794W        W60055  44.956  26.025   9.602
  795W        W60056  20.030  13.690  12.580
  796W        W60057  16.187  19.559   1.225
  797W        W60058  20.658  43.818  10.983
  798W        W60059  14.206  35.520   4.301
  799W        W60060  40.310  14.734   3.260
  800W        W60061   9.750  21.190  13.370
  801W        W60062  34.512  29.065  12.958
  802W        W60063  33.928  16.271   1.328
  803W        W60064  15.090  35.370  14.329
  804W        W60065  20.669   6.395   2.331
  805W        W60066  25.574   0.448   3.822
  806W        W60067  17.194   5.391  12.085
  807W        W60068  21.590   6.864  10.482
  808W        W60069   3.346  15.625  13.312
  809W        W60070  30.490   0.825  12.895
  810W        W60071  37.830   5.908   4.695
  811W        W60072  36.517   3.843   2.777
  812W        W60073   8.718  28.153   4.175
  813W        W60074  32.582  36.842   3.363
  814W        W60075  32.023   4.372  14.986
  815W        W60076   8.670  18.693   4.772
  816W        W60077  12.647   6.335  11.459
  817W        W60078  36.556  36.547   2.689
  818W        W60079  24.208  44.856  11.387
  819W        W60080  19.039  15.292   2.203
  820W        W60081  10.373  17.589  10.931
  821W        W60082  44.399  38.917   4.251
  822W        W60083   2.770   4.408   0.836
  823W        W60084  28.452   9.307  13.977
  824W        W60085   6.903  21.067  11.089
  825W        W60086  13.156   4.862   3.193
  826W        W60087   8.393  11.129  10.422
  827W        W60088  30.109   3.766  13.427
  828W        W60089   7.393   0.283   3.214
  829W        W60090  25.195  27.685  13.846
  830W        W60091  24.051  27.995   0.445
  831W        W60092  15.822  41.857   4.711
  832W        W60093  23.533  12.345  12.004
  833W        W60094  29.020  31.935  11.506
  834W        W60095  13.107  14.595  10.439
  835W        W60096  42.503   9.369  14.802
  836W        W60097  26.079  43.507  13.012
  837W        W60098  28.661   4.703  12.513
  838W        W60099  32.091   2.889   1.420
  839W        W60100   3.336  37.861   1.212
  840W        W60101  15.201  31.464   0.847
  841W        W60102  17.216  39.046  12.073
  842W        W60103  17.301  42.975  11.413
  843W        W60104   3.747  24.547   0.313
  844W        W60105  42.943   2.764  10.615
  845W        W60106  23.582  35.049   1.710
  846W        W60107  34.420  26.673  13.396
  847W        W60108  35.938   9.659  13.933
  848W        W60109   7.373   5.807   1.358
  849W        W60110  38.535  16.582  10.602
  850W        W60111  15.719   2.956  11.945
  851W        W60112   5.893  23.995  10.446
  852W        W60113  41.408   6.682   2.192
  853W        W60114  32.939   3.306  10.888
  854W        W60115  41.004  32.510   0.260
  855W        W60116  43.430  29.997   2.875
  856W        W60117  34.532   6.240  13.882
  857W        W60118  18.276  37.437   4.690
  858W        W60119  39.996  14.124   1.292
  859W        W60120  40.383  23.015   0.808
  860W        W60121  29.513  18.680   0.888
  861W        W60122  28.993   5.344   4.722
  862W        W60123  22.710  33.564  10.581
  863W        W60124   4.751   1.770  11.502
  864W        W60125  28.056  39.359   2.673
  865W        W60126  12.341  44.489  14.496
  866W        W60127   8.207  25.044   1.864
  867W        W60128   5.717  36.370   0.273
  868W        W60129  35.884  21.041  11.533
  869W        W60130   3.942  20.548  11.429
  870W        W60131  44.308  17.245   2.878
  871W        W60132  12.265   1.247  11.085
  872W        W60133  41.937  23.646  14.428
  873W        W60134  24.140  32.547  12.360
  874W        W60135   3.939   6.737   2.759
  875W        W60136   9.700   4.444  10.472
  876W        W60137  19.201  20.694  12.955
  877W        W60138  43.935  41.507   4.177
  878W        W60139  19.126  23.148   3.640
  879W        W60140  10.661  11.745   4.785
  880W        W60141  24.514   5.196  12.427
  881W        W60142  14.678  28.488  11.861
  882W        W60143   0.835  40.502  13.516
  883W        W60144  29.655   7.845   1.353
  884W        W60145   1.327  22.011  12.830
  885W        W60146   6.309  36.004   1.758
  886W        W60147  34.544  16.784  12.544
  887W        W60148  38.888   3.343  14.778
  888W        W60149  23.085  31.420   1.881
  889W        W60150  18.547  22.513   0.415
  890W        W60151  37.456  28.161   0.463
  891W        W60152   7.870   1.921  12.458
  892W        W60153  35.032  22.619   2.814
  893W        W60154  24.668  11.634   4.683
  894W        W60155  33.481  40.909   0.346
  895W        W60156  16.577   9.223   0.297
  896W        W60157   3.361  30.011   1.783
  897W        W60158  22.150  25.635   4.711
  898W        W60159  38.912  32.457  14.890
  899W        W60160   7.776  41.791   0.732
  900W        W60161   6.193  14.647   0.907
  901W        W60162  41.803   4.749  10.151
  902W        W60163  17.249  42.779   1.841
  903W        W60164  33.973  21.074  12.024
  904W        W60165  34.399   7.879   2.207
  905W        W60166  21.675  23.655   1.870
  906W        W60167  25.507  15.641  13.326
  907W        W60168  10.343  27.457  11.994
  908W        W60169  35.018  21.189  13.951
  909W        W60170   6.367  15.211   0.807
  910W        W60171  29.467  41.419   3.826
  911W        W60172   7.831  10.857  11.513
  912W        W60173  23.507  43.998  14.509
  913W        W60174  36.905  12.187   0.408
  914W        W60175  23.069  42.461  11.885
  915W        W60176  18.752  34.395   4.717
  916W        W60177  36.984  13.155  11.490
  917W        W60178  42.372  37.499  12.923
  918W        W60179  31.997  28.022  13.312
  919W        W60180  43.955  14.258  11.551
  920W        W60181  37.385  19.596   2.791
  921W        W60182   6.832  34.585  14.766
  922W        W60183  42.868  41.991   3.311
  923W        W60184  19.204  38.512   1.406
  924W        W60185  40.361  26.983   0.881
  925W        W60186  44.439   3.709  10.416
  926W        W60187  12.658  36.009   2.288
  927W        W60188  33.886  38.858   0.886
  928W        W60189  19.199   0.449  10.410
  929W        W60190  40.035  29.024  12.340
  930W        W60191  14.668  35.377  10.898
  931W        W60192   3.830  37.005   3.312
  932W        W60193  30.109  17.568   3.214
  933W        W60194   0.388  21.117   0.441
  934W        W60195   5.356  27.041   1.446
  935W        W60196  28.114  44.289   0.815
  936W        W60197   0.910  36.515  11.883
  937W        W60198  42.924  29.176   2.762
  938W        W60199  22.223  34.436  10.424
  939W        W60200  20.747   3.370   3.301
  940W        W60201  25.207   0.830  12.359
  941W        W60202  43.961  25.153   4.288
  942W        W60203  42.823   2.813  14.425
  943W        W60204  12.646  19.700  14.803
  944W        W60205  36.535   3.757   0.333
  945W        W60206   3.765  37.340  13.796
  946W        W60207  35.912  36.843  10.536
  947W        W60208   5.865  18.630   4.763
  948W        W60209  10.158  20.242   4.128
  949W        W60210  38.043  11.836   3.261
  950W        W60211  44.894  15.671   1.314
  951W        W60212  29.011  42.980  10.507
  952W        W60213   6.808  22.098  11.915
  953W        W60214  26.991  11.196   4.287
  954W        W60215  36.373  44.347   5.128
  955W        W60216   1.784   5.804   0.791
  956W        W60217  41.817  28.681  10.471
  957W        W60218   9.850  17.781  14.881
  958W        W60219  17.605  42.968  10.912
  959W        W60220  25.040   5.774   4.326
  960W        W60221  28.544   3.291  10.552
  961W        W60222  24.550  43.914   4.264
  962W        W60223  39.406  43.387  14.366
  963W        W60224  44.434  24.563   0.247
  964W        W60225  32.912  14.675  10.538
  965W        W60226   6.393  32.396  12.890
  966W        W60227   1.327  40.823   2.383
  967W        W60228  11.767  14.323   1.421
  968W        W60229  25.136  24.662  13.874
  969W        W60230  31.098  27.034  12.516
  970W        W60231   6.684  17.656  10.998
  971W        W60232  25.078  29.021   5.103
  972W        W60233  32.979   6.263  12.048
  973W        W60234  17.687  25.642  12.382
  974W        W60235  13.798  15.597  10.047
  975W        W60236  28.663  32.577  11.376
  976W        W60237  26.121  36.423   4.336
  977W        W60238  20.145  31.085  12.550
  978W        W60239  36.973  12.304  13.796
  979W        W60240   4.787  37.416  13.315
  980W        W60241   5.247  37.575   2.869
  981W        W60242  11.225  15.097  11.439
  982W        W60243  44.908  23.024  10.514
  983W        W60244   8.718  11.182   1.791
  984W        W60245  16.717  28.007   3.281
  985W        W60246  17.205  21.701  13.373
  986W        W60247  15.193  26.048  14.834
  987W        W60248   7.788  40.493  14.944
  988W        W60249  11.862   1.442  11.965
  989W        W60250  21.734  19.712  12.094
  990W        W60251  13.657   3.709   3.373
  991W        W60252  30.494   6.295  14.809
  992W        W60253  32.914  35.024  10.528
  993W        W60254  43.343  42.956   3.864
  994W        W60255  10.209   4.909   2.348
  995W        W60256  23.030  33.583   1.328
  996W        W60257  29.441  26.165  11.396
  997W        W60258   3.942  36.441   2.193
  998W        W60259   0.851   3.883  14.314
  999W        W60260   6.841   7.279  13.521
 1000W        W60261  23.232  43.875  11.550
 1001W        W60262   1.932   8.344   0.374
 1002W        W60263  22.211  23.031   4.628
 1003W        W60264   6.408  42.444  10.141
 1004W        W60265  20.132   9.207   0.261
 1005W        W60266  33.055  32.080   2.723
 1006W        W60267  14.330   7.872   4.171
 1007W        W60268  32.464   3.847   3.184
 1008W        W60269  23.612   5.697   1.347
 1009W        W60270  34.010  19.594  11.923
 1010W        W60271   6.307  11.148  12.029
 1011W        W60272  32.000  42.945  10.642
 1012W        W60273   6.395  35.941  10.527
 1013W        W60274  42.972  37.421  13.027
 1014W        W60275  18.742  33.125  13.539
 1015W        W60276  25.697   8.190   1.238
 1016W        W60277  29.570  36.398   1.304
 1017W        W60278  36.989   1.743   3.253
 1018W        W60279  38.971  31.516   2.838
 1019W        W60280  42.375  17.759  11.585
 1020W        W60281  30.653  35.372   2.372
 1021W        W60282  24.483  37.544  12.045
 1022W        W60283  17.156  15.818   1.327
 1023W        W60284   8.217  29.967   1.918
 1024W        W60285   8.786  36.845   4.742
 1025W        W60286  19.663  29.121  12.078
 1026W        W60287   6.899   2.417  11.579
 1027W        W60288  43.889  12.613   1.790
 1028W        W60289  30.495  40.924   2.410
 1029W        W60290  16.639  36.900   1.880
 1030W        W60291  23.042  44.449   4.698
 1031W        W60292  21.040  16.178   1.243
 1032W        W60293  32.517  31.482   0.484
 1033W        W60294  39.030  13.714   2.759
 1034W        W60295  37.406  30.545  13.843
 1035W        W60296  29.533  29.655   1.821
 1036W        W60297  24.985  33.462  11.995
 1037W        W60298  22.234  30.436   3.670
 1038W        W60299  27.038  43.425  11.123
 1039W        W60300  25.503   7.302   3.800
 1040W        W60301   3.303  43.979   3.741
 1041W        W60302  44.884  43.948  11.870
 1042W        W60303  37.875   9.653  12.447
 1043W        W60304   0.895  27.485  10.631
 1044W        W60305  26.611  21.083   4.821
 1045W        W60306  44.437  25.653  11.379
 1046W        W60307  43.782  22.123  12.994
 1047W        W60308  32.562   8.184   2.853
 1048W        W60309  25.547  33.553  11.537
 1049W        W60310  23.608   3.891   3.377
 1050W        W60311  22.236  22.227   2.826
 1051W        W60312  40.462  16.092   5.234
 1052W        W60313  37.346   9.163   2.211
 1053W        W60314  27.170  32.397   1.704
 1054W        W60315  25.686  40.496   4.682
 1055W        W60316  20.093  10.664   1.902
 1056W        W60317  40.016  12.846   2.700
 1057W        W60318  10.210  39.851   0.330
 1058W        W60319   6.357  16.584  13.823
 1059W        W60320  15.180   0.267  12.971
 1060W        W60321  42.849  26.054   1.296
 1061W        W60322  14.780  27.046  14.798
 1062W        W60323  44.882  39.405   0.350
 1063W        W60324  32.006  11.241  11.405
 1064W        W60325  25.038  37.040  14.019
 1065W        W60326  30.053  44.333  13.981
 1066W        W60327  10.701  26.208   0.857
 1067W        W60328  35.962  32.558  11.024
 1068W        W60329   5.688  24.566  12.085
 1069W        W60330  16.195  30.996   2.761
 1070W        W60331  33.484   5.837  10.501
 1071W        W60332   8.361  33.479  12.462
 1072W        W60333   0.756  31.144   1.921
 1073W        W60334  20.523  24.118  12.899
 1074W        W60335  41.786  35.976   9.510
 1075W        W60336  16.792  17.277  12.385
 1076W        W60337   6.338  24.589  10.570
 1077W        W60338  21.241  27.123  12.488
 1078W        W60339  33.473  43.329  10.046
 1079W        W60340   3.775  35.407   3.267
 1080W        W60341  25.702  10.278   4.770
 1081W        W60342   6.256  34.889   2.729
 1082W        W60343  42.859  23.560   0.869
 1083W        W60344  18.676  22.677  11.534
 1084W        W60345  26.112  19.068   0.941
 1085W        W60346  43.286  17.690   5.132
 1086W        W60347  43.770   4.351   1.341
 1087W        W60348  29.943   5.307   3.803
 1088W        W60349  22.715  17.583   2.226
 1089W        W60350  37.039  31.045   1.225
 1090W        W60351  17.593  14.126   2.891
 1091W        W60352  20.558  25.693  14.025
 1092W        W60353   3.901  44.782  12.945
 1093W        W60354   8.226  27.609   0.915
 1094W        W60355  23.987  26.610  14.417
 1095W        W60356   8.297  27.452   3.372
 1096W        W60357  36.936  24.111   1.413
 1097W        W60358  15.225   5.715  12.470
 1098W        W60359  12.228  15.270   0.465
 1099W        W60360  11.366  26.469  13.536
 1100W        W60361  44.352  20.715  11.050
 1101W        W60362  35.359  15.784  10.564
 1102W        W60363  43.386  16.180  14.776
 1103W        W60364  21.162  32.096   0.399
 1104W        W60365  18.576  38.468  12.018
 1105W        W60366   4.834  27.554  14.485
 1106W        W60367  44.810  11.216  14.005
 1107W        W60368  15.170  24.707   4.625
 1108W        W60369  14.801  17.604  13.833
 1109W        W60370   4.383   1.944   1.384
 1110W        W60371  29.528  27.659   0.834
 1111W        W60372  24.202   0.909  12.966
 1112W        W60373  43.911   5.419  10.588
 1113W        W60374  15.736  27.664  10.462
 1114W        W60375  12.286   3.421   1.265
 1115W        W60376  27.560   9.191  13.396
 1116W        W60377  28.627  13.821  13.870
 1117W        W60378  32.966  14.717  14.986
 1118W        W60379  32.953  25.701   2.242
 1119W        W60380  27.160  28.094   1.790
 1120W        W60381  32.432   9.306   2.708
 1121W        W60382  41.359   7.860  11.454
 1122W        W60383  16.274  34.559   0.398
 1123W        W60384  19.273  31.033   0.885
 1124W        W60385  14.181  37.933   1.422
 1125W        W60386  38.422  33.109  11.859
 1126W        W60387  10.146  32.958   2.713
 1127W        W60388  34.024  44.413   3.643
 1128W        W60389  23.668  34.608  11.593
 1129W        W60390  38.964  43.000   0.946
 1130W        W60391  29.657  27.666  10.931
 1131W        W60392  18.786  22.997   3.724
 1132W        W60393  17.179  40.967  13.496
 1133W        W60394  11.860  40.836   0.951
 1134W        W60395  16.292  40.927   3.147
 1135W        W60396  44.455  26.006   0.460
 1136W        W60397  26.478  41.959   2.378
 1137W        W60398  17.166  21.247  11.521
 1138W        W60399  34.607  16.729   3.857
 1139W        W60400  25.092  10.383   4.158
 1140W        W60401  40.426  22.024   2.900
 1141W        W60402  43.914   1.826   3.360
 1142W        W60403  42.891  26.607   0.375
 1143W        W60404  15.697   2.416   4.214
 1144W        W60405  12.252  32.897   3.829
 1145W        W60406  19.712  16.733   2.396
 1146W        W60407  43.421  18.076   0.730
 1147W        W60408  25.533  16.605  12.443
 1148W        W60409  28.458  34.469  12.550
 1149W        W60410  24.683   7.735  12.346
 1150W        W60411  19.067  36.443   3.698
 1151W        W60412  34.423  42.935  11.066
 1152W        W60413  38.459  16.622  12.368
 1153W        W60414   2.347   4.821   2.279
 1154W        W60415   2.761  37.939   1.319
 1155W        W60416  18.613   1.263  12.469
 1156W        W60417  32.496  17.613  14.349
 1157W        W60418   4.919  15.269   2.375
 1158W        W60419   1.264  29.639  14.472
 1159W        W60420  38.377  30.654   2.414
 1160W        W60421  19.772  40.856   0.761
 1161W        W60422  25.597  25.656  12.455
 1162W        W60423  19.045   7.344  10.998
 1163W        W60424  44.990  14.203  11.448
 1164W        W60425  24.706  32.535  13.024
 1165W        W60426  10.181  21.696  13.839
 1166W        W60427  24.015  28.484  13.039
 1167W        W60428  25.011   9.281  14.833
 1168W        W60429  31.009   1.288   2.901
 1169W        W60430  24.077  34.412  10.422
 1170W        W60431  19.765   7.753   2.889
 1171W        W60432  31.485   9.840   2.412
 1172W        W60433  20.141  29.507   1.765
 1173W        W60434  40.827  31.020  10.972
 1174W        W60435  41.942  40.862   4.253
 1175W        W60436   5.309  33.024   3.286
 1176W        W60437  36.359  11.305   4.236
 1177W        W60438  11.319  32.950   4.276
 1178W        W60439  32.929  37.394   1.713
 1179W        W60440  39.441  28.005   3.353
 1180W        W60441  24.574  20.039  11.962
 1181W        W60442  39.447  26.037  11.940
 1182W        W60443   7.847  28.149   1.869
 1183W        W60444  17.567  10.300  13.816
 1184W        W60445  14.590   4.310  12.466
 1185W        W60446   8.818  15.647   4.766
 1186W        W60447  12.763   6.310   2.883
 1187W        W60448  31.906  16.693   0.772
 1188W        W60449  15.751  20.106  11.436
 1189W        W60450  32.443  34.525  10.963
 1190W        W60451   1.400  13.746   0.430
 1191W        W60452  12.679   4.262  10.155
 1192W        W60453  41.331  29.644  13.839
 1193W        W60454  35.413  20.181   1.800
 1194W        W60455  13.263  32.490  11.402
 1195W        W60456   6.343  21.612  14.394
 1196W        W60457  27.973  42.803   2.369
 1197W        W60458   2.240  18.660  11.966
 1198W        W60459  40.428  37.885  12.431
 1199W        W60460   5.811  36.017  11.944
 1200W        W60461  14.677  18.116  14.444
 1201W        W60462  23.683  28.929   2.351
 1202W        W60463  10.824   0.864  14.303
 1203W        W60464  40.457   7.899  10.891
 1204W        W60465  14.315  17.663  10.583
 1205W        W60466   1.296  23.985  11.997
 1206W        W60467  43.896  16.612   2.727
 1207W        W60468  10.823   0.329   1.818
 1208W        W60469  37.357  38.332  12.490
 1209W        W60470  34.545   2.396   1.907
 1210W        W60471  24.039  29.974  10.116
 1211W        W60472  25.665  27.661  11.902
 1212W        W60473  28.141  16.309   1.394
 1213W        W60474  33.556   6.222  12.438
 1214W        W60475  13.649  39.436   1.886
 1215W        W60476  12.663   2.343   1.850
 1216W        W60477   3.865  25.081  12.095
 1217W        W60478  29.964  24.044  13.888
 1218W        W60479  42.324  14.325  13.382
 1219W        W60480   0.871   6.252   1.260
 1220W        W60481  21.591  29.468   4.200
 1221W        W60482  19.772   0.425  14.865
 1222W        W60483  40.939  33.015   2.335
 1223W        W60484   3.249  18.205  12.364
 1224W        W60485   8.896  33.555  12.014
 1225W        W60486  19.693  10.168   2.696
 1226W        W60487  23.621   2.802  12.474
 1227W        W60488  15.105  29.977   2.377
 1228W        W60489   9.233   1.916  12.548
 1229W        W60490  17.176  38.331  11.439
 1230W        W60491  38.351  23.690   0.755
 1231W        W60492  24.708   2.370   0.283
 1232W        W60493  41.332   0.935   4.279
 1233W        W60494   7.824  13.111   3.297
 1234W        W60495  21.666  17.710  14.835
 1235W        W60496  23.005  42.033  14.452
 1236W        W60497   4.816  41.438   5.226
 1237W        W60498  41.364  44.314  14.779
 1238W        W60499  17.586  20.261  11.594
 1239W        W60500  20.712  33.918   2.217
 1240W        W60501  28.952   0.853   1.795
 1241W        W60502  12.703   9.788   4.138
 1242W        W60503   5.245  22.595   2.678
 1243W        W60504  29.515  22.640   9.993
 1244W        W60505  19.157  32.933   2.757
 1245W        W60506   7.406  38.570  11.022
 1246W        W60507  21.543  11.831   4.204
 1247W        W60508  39.500  38.901   2.336
 1248W        W60509  33.916   0.885   9.996
 1249W        W60510  39.520  31.932  10.576
 1250W        W60511  12.827   7.340   1.311
 1251W        W60512  41.532  32.923  10.963
 1252W        W60513  32.410  41.324  14.475
 1253W        W60514   9.888   1.962  13.053
 1254W        W60515  26.491  11.338   2.777
 1255W        W60516  24.497  12.718  13.380
 1256W        W60517   6.831  10.654  14.376
 1257W        W60518  39.465   0.981   1.819
 1258W        W60519  38.568  18.105  14.022
 1259W        W60520   4.229  36.537   2.357
 1260W        W60521   2.810  11.806  11.520
 1261W        W60522  28.145  15.162  10.946
 1262W        W60523  38.567   3.231  11.919
 1263W        W60524  14.098  10.768   3.703
 1264W        W60525  44.407  20.699   3.870
 1265W        W60526  43.976   3.377   4.287
 1266W        W60527   5.389  41.418  13.797
 1267W        W60528  42.425  16.266  13.976
 1268W        W60529   7.339  10.863   4.334
 1269W        W60530  18.074  34.017   2.714
 1270W        W60531   7.302  12.688   2.837
 1271W        W60532   8.182  12.830   1.719
 1272W        W60533  15.218  11.301  14.324
 1273W        W60534  10.246   5.407  12.864
 1274W        W60535  38.019  14.645   3.691
 1275W        W60536  24.600  27.514   0.253
 1276W        W60537  43.942  41.810   4.800
 1277W        W60538  19.264  27.032  13.850
 1278W        W60539  10.731   6.327   1.739
 1279W        W60540  43.382  38.065  12.887
 1280W        W60541  22.676  21.575   4.320
 1281W        W60542  27.102   1.804   3.814
 1282W        W60543  13.250   4.731  12.576
 1283W        W60544  40.934  25.497   3.850
 1284W        W60545  43.474  26.527   3.633
 1285W        W60546  17.600  38.357   1.770
 1286W        W60547   9.824  38.488  11.029
 1287W        W60548  34.488   5.282   3.352
 1288W        W60549  28.434  42.014   0.268
 1289W        W60550  16.179  35.485   3.660
 1290W        W60551  10.694  32.895  10.498
 1291W        W60552  42.504  14.296   3.176
 1292W        W60553  31.452  36.396  11.987
 1293W        W60554  36.542  12.290   3.152
 1294W        W60555  27.194  27.146   1.362
 1295W        W60556  37.072  18.785   1.699
 1296W        W60557  28.672  26.005   4.634
 1297W        W60558  32.068  43.294  12.451
 1298W        W60559  31.105  14.710  13.411
 1299W        W60560   9.227  15.771   4.133
 1300W        W60561   4.788  25.700  14.366
 1301W        W60562  38.925   6.183  12.410
 1302W        W60563  12.197  22.743  10.939
 1303W        W60564  22.029  44.357  13.499
 1304W        W60565  38.568  33.509  10.897
 1305W        W60566  15.761  34.940   2.216
 1306W        W60567  33.952  18.652   4.819
 1307W        W60568  18.721  21.531   2.818
 1308W        W60569  27.008   5.790   4.614
 1309W        W60570  41.867   5.922  12.349
 1310W        W60571   1.331  28.039   0.827
 1311W        W60572  28.931  16.263  12.448
 1312W        W60573  30.499   3.709  14.960
 1313W        W60574  24.046  39.313   0.919
 1314W        W60575  42.495  39.363   3.258
 1315W        W60576   5.428   8.838  12.074
 1316W        W60577   0.455  38.834  11.514
 1317W        W60578  25.128  32.924   3.772
 1318W        W60579   7.747  39.495  12.975
 1319W        W60580  20.758   2.366  11.568
 1320W        W60581  38.954  20.079   4.121
 1321W        W60582  39.032  31.103  13.943
 1322W        W60583  23.649  12.322   4.784
 1323W        W60584  28.666   0.843   0.860
 1324W        W60585  28.941  33.605   2.729
 1325W        W60586  38.028  24.703   0.935
 1326W        W60587  14.676  19.041  13.873
 1327W        W60588  20.559   1.870  13.409
 1328W        W60589   6.885  10.315   1.335
 1329W        W60590  43.343   9.710  12.435
 1330W        W60591  43.894  30.445  13.963
 1331W        W60592  27.666  23.599   4.217
 1332W        W60593  19.078   1.752   0.728
 1333W        W60594  40.895   0.887   2.377
 1334W        W60595   5.419  23.229  14.293
 1335W        W60596   4.313  34.868  12.077
 1336W        W60597  38.873  31.041  12.921
 1337W        W60598  30.509  37.077  11.126
 1338W        W60599  10.337  23.573  11.998
 1339W        W60600   1.481  29.477   3.704
 1340W        W60601  16.569   9.250   3.790
 1341W        W60602   0.800  39.973  12.842
 1342W        W60603   5.330  33.379   1.855
 1343W        W60604  38.890   0.440  14.513
 1344W        W60605  17.145  41.454  12.370
 1345W        W60606   9.843   5.198   0.278
 1346W        W60607  44.446  35.429   2.354
 1347W        W60608  10.362  24.086   4.220
 1348W        W60609  16.573  29.144   1.346
 1349W        W60610   4.862  16.272   2.876
 1350W        W60611  12.620  13.296  11.107
 1351W        W60612   6.345  42.021  11.589
 1352W        W60613  30.494  36.371   3.147
 1353W        W60614  21.117   6.257  11.421
 1354W        W60615  34.423  27.543   1.872
 1355W        W60616  44.476  22.522  13.977
 1356W        W60617   9.840   8.820  12.439
 1357W        W60618  33.620  42.503   3.298
 1358W        W60619  44.333  10.705   3.339
 1359W        W60620  12.120  38.071  11.040
 1360W        W60621   4.412   7.289  11.948
 1361W        W60622  36.877  20.572   0.323
 1362W        W60623  28.489  33.418   1.822
 1363W        W60624  38.531  26.621   1.723
 1364W        W60625  25.005  29.563   0.350
 1365W        W60626  30.142   3.709  12.922
 1366W        W60627  22.536   3.744   0.363
 1367W        W60628  42.901  13.214   5.216
 1368W        W60629  43.861  28.494  12.391
 1369W        W60630  30.072   7.670   3.845
 1370W        W60631  22.689  24.127  11.090
 1371W        W60632  39.030  35.553  13.345
 1372W        W60633   6.717  39.014   0.459
 1373W        W60634   5.723   4.869  13.316
 1374W        W60635  14.813  22.721   4.715
 1375W        W60636   0.974  34.017  13.342
 1376W        W60637  18.099  37.498   3.831
 1377W        W60638  21.705  41.364  10.456
 1378W        W60639   0.485   9.349   3.698
 1379W        W60640  31.017  44.994   2.361
 1380W        W60641  34.461  19.273   0.856
 1381W        W60642  35.089  21.220  14.786
 1382W        W60643   9.292  22.013  12.992
 1383W        W60644  30.557  13.758   4.639
 1384W        W60645  23.583  28.611  12.823
 1385W        W60646   8.172  15.286  13.806
 1386W        W60647  19.743  19.651  14.008
 1387W        W60648  14.636   8.876  14.901
 1388W        W60649  20.196   9.779  14.026
 1389W        W60650  18.640  24.527  11.407
 1390W        W60651  29.537  14.649  12.357
 1391W        W60652  29.447   2.418   0.406
 1392W        W60653  26.586  19.535   3.719
 1393W        W60654  40.390  25.180   0.743
 1394W        W60655  26.683   6.740   3.170
 1395W        W60656   3.353  11.813   4.814
 1396W        W60657  17.782  12.233   2.815
 1397W        W60658  32.486  10.314   2.761
 1398W        W60659   4.710   8.271  14.990
 1399W        W60660  12.826   0.780   3.353
 1400W        W60661  38.983  45.000   4.226
 1401W        W60662   8.877  10.384   5.181
 1402W        W60663  36.881  21.122  14.430
 1403W        W60664  28.939  22.186  11.898
 1404W        W60665   2.268  25.079   4.820
 1405W        W60666  40.912  16.203  14.841
 1406W        W60667  44.352  26.998   4.214
 1407W        W60668  38.826  38.932  14.849
 1408W        W60669   7.335   1.797   0.879
 1409W        W60670  43.808  23.016  13.383
 1410W        W60671   8.288  14.669   3.240
 1411W        W60672  24.224  30.573  13.345
 1412W        W60673  44.814  34.395  14.307
 1413W        W60674  13.325  33.420   2.314
 1414W        W60675   3.710  13.615   2.237
 1415W        W60676  15.326  42.797  12.483
 1416W        W60677  29.978  29.139  12.568
 1417W        W60678  30.486  11.716   3.287
 1418W        W60679  14.316  12.218   4.223
 1419W        W60680  30.141  40.317   3.679
 1420W        W60681  12.315  34.929  14.954
 1421W        W60682  44.782  35.858  11.449
 1422W        W60683  22.230  36.913  11.895
 1423W        W60684  22.567  26.475  11.039
 1424W        W60685  44.447   3.307   4.725
 1425W        W60686  26.042  33.940   1.703
 1426W        W60687  21.655  11.819  11.934
 1427W        W60688  30.584   0.303  14.001
 1428W        W60689  15.769  14.158   0.838
 1429W        W60690  34.522   4.205  14.942
 1430W        W60691   8.844  17.257   5.294
 1431W        W60692  18.135  13.810  14.447
 1432W        W60693  16.757   5.795   1.808
 1433W        W60694  42.903  22.210   1.401
 1434W        W60695  18.671  43.769   4.140
 1435W        W60696  21.539  32.430  13.841
 1436W        W60697  16.127  33.412   0.284
 1437W        W60698  12.325   9.652  12.536
 1438W        W60699  16.088  30.644  13.886
 1439W        W60700  21.721  37.038  12.924
 1440W        W60701  38.437  28.604   3.865
 1441W        W60702  17.591  29.124  13.026
 1442W        W60703  37.395  38.971   2.686
 1443W        W60704  35.083   5.392  14.282
 1444W        W60705  42.473  24.027  12.929
 1445W        W60706  13.243  26.527  11.076
 1446W        W60707  26.519  39.349   4.716
 1447W        W60708  30.577  41.827  11.062
 1448W        W60709   6.921  34.909  14.496
 1449W        W60710   3.749  17.740   1.789
 1450W        W60711  42.975  40.335  10.902
 1451W        W60712  27.184  17.598   4.182
 1452W        W60713   7.324  19.087  14.304
 1453W        W60714  32.437  16.257   2.418
 1454W        W60715  13.105   9.255  11.543
 1455W        W60716  35.959  16.813  12.048
 1456W        W60717   7.820  38.424  13.318
 1457W        W60718  41.900  15.657   4.740
 1458W        W60719   9.310  37.919   3.642
 1459W        W60720  35.926  16.631  14.377
 1460W        W60721  25.124  35.443   2.361
 1461W        W60722  39.879  13.183   4.268
 1462W        W60723  43.832  27.648  11.964
 1463W        W60724   3.717   7.216   2.849
 1464W        W60725   1.481   3.255  14.871
 1465W        W60726  10.308  25.964  13.064
 1466W        W60727  32.069  44.303  14.379
 1467W        W60728  28.467  34.371   1.437
 1468W        W60729  43.512  33.031  12.035
 1469W        W60730   0.928  40.931  10.426
 1470W        W60731  30.452  20.047   5.229
 1471W        W60732  22.246  40.346   2.725
 1472W        W60733  10.215   7.858   1.263
 1473W        W60734  25.632   8.685   0.291
 1474W        W60735  26.662   6.343   4.354
 1475W        W60736   5.430   1.295   1.907
 1476W        W60737  15.662  12.255   4.694
 1477W        W60738  42.372  19.282   0.967
 1478W        W60739  42.953   8.400   3.723
 1479W        W60740  15.211   7.223   4.832
 1480W        W60741  39.389  40.845  14.906
 1481W        W60742  15.785  17.567  12.910
 1482W        W60743  38.014  38.067   9.517
 1483W        W60744  40.522  44.802   0.481
 1484W        W60745   4.264  33.414  12.399
 1485W        W60746   3.922   3.401   5.104
 1486W        W60747  33.898   0.973  13.316
 1487W        W60748   8.703  44.765   4.328
 1488W        W60749  27.663  15.256  10.487
 1489W        W60750  11.318  34.078  14.885
 1490W        W60751  39.984  33.966   2.192
 1491W        W60752   9.788  26.008  14.999
 1492W        W60753  44.373  23.194   0.401
 1493W        W60754  18.074  21.032  14.333
 1494W        W60755  32.957  36.355  13.519
 1495W        W60756  36.455  28.582   3.350
 1496W        W60757  30.589  29.964   4.756
 1497W        W60758  13.637  30.013  11.519
 1498W        W60759  23.524  25.689  12.368
 1499W        W60760   5.916  38.537   4.788
 1500W        W60761  14.671  41.004  12.538
 1501W        W60762  22.130  40.535  13.472
 1502W        W60763   1.291   9.702   4.702
 1503W        W60764  16.704   2.747  14.026
 1504W        W60765  12.187  16.086   1.395
 1505W        W60766   0.270  44.841  14.457
 1506W        W60767   5.405  24.482   0.278
 1507W        W60768   7.774  44.765  10.479
 1508W        W60769  43.386  20.103   4.326
 1509W        W60770  17.277   7.716   3.278
 1510W        W60771  41.939  32.929  10.599
 1511W        W60772  25.117  12.755   1.888
 1512W        W60773  33.426  29.984   3.644
 1513W        W60774  41.006  21.557   4.818
 1514W        W60775  20.038   0.960  14.995
 1515W        W60776  31.094  17.793  11.929
 1516W        W60777  41.983  17.217  10.977
 1517W        W60778  41.787  28.066   5.100
 1518W        W60779   7.767  17.796  13.015
 1519W        W60780  36.470  25.497  13.314
 1520W        W60781  12.222  27.559   4.202
 1521W        W60782  28.049  26.141  11.382
 1522W        W60783  29.494  40.352  11.405
 1523W        W60784  13.657  26.583  13.915
 1524W        W60785  28.115  14.171   5.323
 1525W        W60786  20.181   4.789  13.909
 1526W        W60787  18.159  44.460   3.266
 1527W        W60788   7.353  13.341  12.354
 1528W        W60789  29.441   6.688  14.395
 1529W        W60790  26.614  33.439  13.943
 1530W        W60791   6.842  18.198  12.470
 1531W        W60792  34.111   0.747   4.149
 1532W        W60793   0.282  38.440  13.519
 1533W        W60794   8.839  15.220  14.892
 1534W        W60795  14.172  24.496  11.931
 1535W        W60796  43.874   1.428  11.082
 1536W        W60797  10.689  21.111   4.640
 1537W        W60798  16.258  10.794   3.709
 1538W        W60799  16.268  22.682  14.284
 1539W        W60800  19.637  17.800   3.176
 1540W        W60801  17.144  29.108   0.478
 1541W        W60802   6.413  35.090  13.059
 1542W        W60803  24.018   1.412  10.539
 1543W        W60804   9.815  28.981  11.024
 1544W        W60805  19.056  18.219   4.255
 1545W        W60806  25.611   2.769   0.354
 1546W        W60807  41.373  42.829  12.861
 1547W        W60808  12.176  37.538   3.372
 1548W        W60809   0.475  32.630  10.505
 1549W        W60810   7.201  39.535  11.512
 1550W        W60811   0.490  16.802   3.637
 1551W        W60812  10.840  33.475   0.943
 1552W        W60813  29.003  41.435  14.765
 1553W        W60814  18.722  18.234  14.954
 1554W        W60815  35.060  28.624   1.857
 1555W        W60816  38.384  11.201   0.887
 1556W        W60817  23.582  27.161  12.450
 1557W        W60818  32.510  11.325   3.295
 1558W        W60819  26.557  26.021  11.593
 1559W        W60820  13.124  13.707   2.831
 1560W        W60821  37.380  21.516   4.143
 1561W        W60822  44.817  14.743  13.906
 1562W        W60823   5.385   2.418  12.932
 1563W        W60824  22.707  42.353   0.898
 1564W        W60825  41.480   5.854   3.159
 1565W        W60826   2.835  31.526   1.876
 1566W        W60827   9.182  28.093  10.056
 1567W        W60828  18.194   9.806   2.805
 1568W        W60829  36.378  31.040  11.412
 1569W        W60830  40.419  32.630   1.915
 1570W        W60831  38.824  27.482  13.917
 1571W        W60832  34.063  26.632   2.292
 1572W        W60833  44.944  30.609   5.260
 1573W        W60834  24.620  41.393  14.990
 1574W        W60835  24.544   5.917   1.874
 1575W        W60836  17.674   8.718  11.962
 1576W        W60837  38.010  11.852  10.961
 1577W        W60838  15.750  43.329   4.355
 1578W        W60839   1.420  18.160  11.485
 1579W        W60840  24.619  36.580   4.625
 1580W        W60841  40.398  27.973  11.946
 1581W        W60842  13.349  23.668   3.718
 1582W        W60843  42.962   5.318   1.747
 1583W        W60844  24.123   8.168   4.729
 1584W        W60845  31.987   0.982   1.415
 1585W        W60846  35.032   4.264  12.983
 1586W        W60847  15.665  12.801  13.916
 1587W        W60848   5.694  26.203   0.377
 1588W        W60849  44.327   5.792   2.314
 1589W        W60850  31.957   4.807   4.319
 1590W        W60851  32.573  43.410   2.273
 1591W        W60852  42.281  27.098   3.235
 1592W        W60853  38.326  27.518   3.701
 1593W        W60854   6.334  15.816  11.387
 1594W        W60855  25.977  15.590  14.758
 1595W        W60856  34.060  29.511  13.480
 1596W        W60857  22.730  31.550   0.965
 1597W        W60858  18.066  17.272   1.404
 1598W        W60859  28.553  33.390  11.098
 1599W        W60860   5.908   1.821  14.370
 1600W        W60861  20.057  14.601   1.379
 1601W        W60862  17.695  35.093  13.824
 1602W        W60863  28.514  44.803  12.449
 1603W        W60864  11.831  17.771   2.744
 1604W        W60865   0.438  43.424   1.327
 1605W        W60866  23.687   5.780  13.520
 1606W        W60867  22.679  32.506  12.978
 1607W        W60868  20.729  15.811  11.470
 1608W        W60869   6.284  43.785  14.026
 1609W        W60870  23.543  28.186   1.867
 1610W        W60871  29.639  27.495   3.234
 1611W        W60872  19.640  30.921  14.387
 1612W        W60873  23.551  11.285   4.619
 1613W        W60874  26.047  40.439  13.420
 1614W        W60875  28.546  22.699   1.897
 1615W        W60876   9.169  27.958  13.947
 1616W        W60877  12.253  19.090   3.223
 1617W        W60878  34.509  27.527  12.505
 1618W        W60879  16.733  13.221   3.799
 1619W        W60880   7.293  20.668   3.770
 1620W        W60881   9.356   4.431  14.467
 1621W        W60882  18.598  27.993   4.686
 1622W        W60883  43.868  42.286  10.461
 1623W        W60884  10.734  35.883   5.093
 1624W        W60885   1.786   7.688  12.458
 1625W        W60886  21.177  35.022  12.025
 1626W        W60887  33.936  20.234  12.498
 1627W        W60888  11.809  38.993  11.444
 1628W        W60889  40.342  15.257   1.875
 1629W        W60890   4.798  22.066  11.966
 1630W        W60891   1.437   7.370  12.425
 1631W        W60892  28.991  42.929   9.964
 1632W        W60893  28.991  24.539   4.771
 1633W        W60894  18.654  27.991  10.151
 1634W        W60895   9.735  41.965   1.896
 1635W        W60896  15.801  32.939   2.378
 1636W        W60897  28.055  23.516  11.417
 1637W        W60898   2.762  27.107   1.212
 1638W        W60899  43.356  16.277   0.262
 1639W        W60900   7.722  28.657   1.702
 1640W        W60901  23.130  14.139  12.007
 1641W        W60902  28.116  32.563   0.939
 1642W        W60903  20.580  21.215  12.536
 1643W        W60904   9.719  18.134   0.388
 1644W        W60905  29.024  20.739   1.700
 1645W        W60906  43.990  36.043   3.225
 1646W        W60907  23.212  15.704  14.910
 1647W        W60908  17.692  18.604  13.400
 1648W        W60909   5.696  41.321  13.928
 1649W        W60910   8.214   0.803   4.332
 1650W        W60911  34.885  35.421  15.000
 1651W        W60912  32.013  44.494   1.900
 1652W        W60913  40.849   4.227   4.624
 1653W        W60914  33.090  21.646  13.031
 1654W        W60915  22.619  31.062   3.282
 1655W        W60916   5.905   0.433   1.429
 1656W        W60917  11.169   7.809   4.133
 1657W        W60918  37.950  44.290  14.513
 1658W        W60919  44.918  21.735  11.432
 1659W        W60920  41.532  33.550  14.377
 1660W        W60921  20.736  21.142   1.279
 1661W        W60922   3.344   7.377   0.402
 1662W        W60923  20.687  22.058  10.046
 1663W        W60924  17.172  36.393   4.656
 1664W        W60925   3.325   4.732  12.446
 1665W        W60926  11.691   4.933   0.305
 1666W        W60927  44.340  24.505   1.904
 1667W        W60928  24.621   5.723  11.993
 1668W        W60929  35.550  31.054  14.349
 1669W        W60930  33.906  38.392   1.697
 1670W        W60931  11.175  22.086   4.628
 1671W        W60932   5.857  25.698   3.159
 1672W        W60933  30.934  22.611   2.766
 1673W        W60934  42.973  39.529  12.082
 1674W        W60935  12.251   0.926  12.885
 1675W        W60936  10.762   9.184   2.219
 1676W        W60937  43.323  14.290   2.371
 1677W        W60938   7.369  16.756   4.668
 1678W        W60939  14.786  25.146  13.889
 1679W        W60940  10.238  16.742  11.540
 1680W        W60941  23.583  32.140  12.471
 1681W        W60942   6.401  38.512   0.764
 1682W        W60943   4.234  26.660  12.574
 1683W        W60944   0.439  31.552  11.527
 1684W        W60945  14.827  17.261   2.202
 1685W        W60946  22.996  18.154  11.486
 1686W        W60947  31.084  42.786   1.217
 1687W        W60948  17.789  16.680   0.380
 1688W        W60949  15.602  21.111   4.225
 1689W        W60950  32.130  40.496   1.409
 1690W        W60951  36.536  30.162  11.511
 1691W        W60952  43.461  36.964   4.787
 1692W        W60953  23.004  18.770   3.776
 1693W        W60954   3.907  27.136   1.740
 1694W        W60955  18.154  17.208   2.823
 1695W        W60956  31.920   4.762   5.280
 1696W        W60957  42.916  33.562   0.913
 1697W        W60958  25.035  42.799  11.568
 1698W        W60959  34.504  37.576  14.980
 1699W        W60960   2.426  25.643   2.829
 1700W        W60961  42.930  11.237   4.238
 1701W        W60962  37.979  14.645  11.881
 1702W        W60963  18.767   7.195   4.159
 1703W        W60964  15.152  23.671   3.273
 1704W        W60965  19.077  29.480  12.416
 1705W        W60966  37.074   1.863   0.260
 1706W        W60967  23.190   2.439   0.847
 1707W        W60968  37.417   8.232   2.283
 1708W        W60969   5.866  22.239   2.214
 1709W        W60970   8.714  29.556  14.408
 1710W        W60971  16.146  43.409  11.067
 1711W        W60972  25.129  21.745  11.525
 1712W        W60973  41.335  36.425  14.453
 1713W        W60974  17.085  39.869   4.313
 1714W        W60975   7.688  18.621  13.028
 1715W        W60976  34.891   0.269  10.553
 1716W        W60977  17.603  40.496  13.010
 1717W        W60978  38.849  41.388   2.694
 1718W        W60979   3.330  13.148  13.869
 1719W        W60980  42.379   7.822   4.798
 1720W        W60981  40.508  21.042   4.252
 1721W        W60982  27.061  23.583   0.343
 1722W        W60983   4.882  43.284  11.074
 1723W        W60984  20.599  21.746   3.698
 1724W        W60985  11.634  14.114  12.455
 1725W        W60986   4.851  30.528   3.164
 1726W        W60987  36.910  26.124  13.417
 1727W        W60988  10.648  42.990   1.398
 1728W        W60989  44.856  44.858   4.648
 1729W        W60990  12.845  35.968   2.795
 1730W        W60991  27.090   5.437   1.238
 1731W        W60992  28.000  41.902   2.847
 1732W        W60993  23.130  29.611   1.791
 1733W        W60994  41.326  42.981  13.867
 1734W        W60995   2.278  28.032  13.413
 1735W        W60996  33.068  35.083  14.773
 1736W        W60997  13.132  38.371  11.374
 1737W        W60998  25.046   9.299   0.955
 1738W        W60999   3.895  27.069  14.795
 1739W        W61000   7.414  29.514   2.257
 1740W        W61001  19.684  37.983   1.310
 1741W        W61002  43.338  41.021   2.766
 1742W        W61003  37.838  19.655   4.760
 1743W        W61004  17.183  20.214   1.862
 1744W        W61005  24.131  35.095   1.405
 1745W        W61006  10.152  44.363  10.422
 1746W        W61007  42.912   6.299  11.995
 1747W        W61008   0.340  23.215  12.371
 1748W        W61009  28.181  15.086  12.028
 1749W        W61010  19.552   0.361   4.344
 1750W        W61011  39.014   7.827   3.349
 1751W        W61012  28.039  28.546  11.482
 1752W        W61013  22.139  33.435  12.414
 1753W        W61014  18.112  17.705   2.242
 1754W        W61015  10.826  34.007  14.875
 1755W        W61016  21.569  21.704   9.640
 1756W        W61017  14.282  11.668  12.577
 1757W        W61018  20.749  17.230  12.383
 1758W        W61019   5.793   6.776  13.537
 1759W        W61020  31.414  38.831  13.518
 1760W        W61021  16.803  37.041  13.404
 1761W        W61022  26.097  35.089  10.027
 1762W        W61023  41.458  15.791  14.867
 1763W        W61024  38.038  11.697   4.265
 1764W        W61025  20.645  38.381  11.053
 1765W        W61026  32.458  18.567   1.838
 1766W        W61027   0.763  36.417  13.362
 1767W        W61028  10.162  26.155   1.789
 1768W        W61029   1.241  14.694  13.427
 1769W        W61030  41.818   1.239   4.744
 1770W        W61031  25.097  25.114   0.802
 1771W        W61032  32.450   8.712  13.959
 1772W        W61033  40.946  15.794  13.391
 1773W        W61034  34.931   2.411  14.427
 1774W        W61035  38.840  38.058   0.785
 1775W        W61036  40.523   1.259   1.251
 1776W        W61037  33.071   9.182   1.910
 1777W        W61038  23.151  25.196   2.323
 1778W        W61039  44.282  10.297  11.601
 1779W        W61040  13.671  35.061  11.128
 1780W        W61041  34.876  38.829   0.341
 1781W        W61042   2.300  43.840  11.889
 1782W        W61043  28.544  29.557   1.873
 1783W        W61044  13.831  13.137  14.444
 1784W        W61045  10.644  43.856   4.838
 1785W        W61046  10.161  22.115   4.208
 1786W        W61047  13.652  29.094   2.189
 1787W        W61048  39.443   2.385  10.453
 1788W        W61049  10.648   5.221   2.205
 1789W        W61050  28.458   7.216   0.264
 1790W        W61051   9.372  28.592  13.806
 1791W        W61052  10.229  35.379  11.590
 1792W        W61053   6.403  25.992  10.594
 1793W        W61054  20.106  37.409   4.211
 1794W        W61055  20.088  35.525  12.351
 1795W        W61056   9.375  16.171  13.361
 1796W        W61057   9.811  26.148  14.285
 1797W        W61058  34.471  38.471  13.020
 1798W        W61059  14.267  33.916  11.898
 1799W        W61060  15.693  36.010   2.791
 1800W        W61061  19.639  40.039   3.371
 1801W        W61062  35.380   4.851   2.296
 1802W        W61063  41.858   1.749   0.247
 1803W        W61064  40.873  33.469   4.626
 1804W        W61065  16.713  42.025  14.778
 1805W        W61066  26.139   5.361   4.773
 1806W        W61067  34.870  22.202   4.621
 1807W        W61068   9.322   8.242   1.280
 1808W        W61069  25.018  24.619  12.441
 1809W        W61070   8.230  28.092  13.362
 1810W        W61071  24.520  29.002   0.750
 1811W        W61072  10.710  18.210  13.357
 1812W        W61073  35.870  36.031   2.382
 1813W        W61074  29.090  30.986  11.023
 1814W        W61075  31.924   2.947  10.570
 1815W        W61076  21.709  11.828  10.147
 1816W        W61077  44.363   6.847   3.238
 1817W        W61078  24.520  25.185   3.806
 1818W        W61079  35.869  32.938   4.678
 1819W        W61080  18.784   0.811   0.322
 1820W        W61081  29.497  13.259  14.926
 1821W        W61082  12.818  19.043  14.910
 1822W        W61083  30.925   3.843   4.712
 1823W        W61084  14.623  44.890   0.870
 1824W        W61085  16.627  16.252  14.890
 1825W        W61086   3.918  40.490   1.399
 1826W        W61087  19.662  10.867   4.612
 1827W        W61088  38.422  39.980   3.172
 1828W        W61089  19.158  37.577   3.658
 1829W        W61090  20.610  18.166  12.066
 1830W        W61091  10.210  20.131  10.022
 1831W        W61092   9.716   7.303   4.716
 1832W        W61093  37.459  39.889   2.285
 1833W        W61094  24.514  42.798  14.001
 1834W        W61095   9.811   5.436  10.458
 1835W        W61096  14.277  28.175   0.921
 1836W        W61097   9.873  28.946  14.812
 1837W        W61098  44.851  41.517  11.593
 1838W        W61099  37.410   4.373   3.384
 1839W        W61100  27.151  15.271   2.260
 1840W        W61101  30.959  44.803  14.294
 1841W        W61102   4.811  28.050  11.501
 1842W        W61103  42.788  29.057  12.036
 1843W        W61104  39.502  16.799   4.653
 1844W        W61105  44.363  30.599   3.257
 1845W        W61106  24.081  41.499   5.285
 1846W        W61107  16.685  40.435   1.399
 1847W        W61108  12.790  36.916  11.121
 1848W        W61109  21.261  36.920   1.287
 1849W        W61110  14.177  44.965  14.999
 1850W        W61111  42.342  17.139  11.492
 1851W        W61112  25.565  29.477   0.248
 1852W        W61113  23.170  23.505  11.995
 1853W        W61114  35.059  37.451   0.917
 1854W        W61115  32.479  12.127   4.789
 1855W        W61116  40.821  36.891  10.578
 1856W        W61117  18.766  25.473   0.327
 1857W        W61118   0.387  27.632   1.920
 1858W        W61119  40.930  23.705   1.879
 1859W        W61120  37.415   2.379   1.787
 1860W        W61121  18.683   3.782  12.091
 1861W        W61122  27.689  25.044   5.270
 1862W        W61123  22.031   0.253  14.825
 1863W        W61124  34.597  14.730  14.805
 1864W        W61125  42.418  37.515   5.725
 1865W        W61126  41.436  24.082   2.250
 1866W        W61127  26.517  13.681  12.045
 1867W        W61128   5.237   9.787   4.709
 1868W        W61129  20.204  28.039  12.566
 1869W        W61130   2.924  35.365  12.988
 1870W        W61131  32.014   1.422  10.478
 1871W        W61132  27.050  29.443   5.306
 1872W        W61133  38.340  24.694  14.947
 1873W        W61134  29.645  31.049  13.365
 1874W        W61135  40.375   5.831   1.375
 1875W        W61136  41.364  18.291   0.891
 1876W        W61137   1.292  10.802   4.143
 1877W        W61138  37.945   1.315  11.466
 1878W        W61139  25.516  20.662  10.559
 1879W        W61140  23.564  43.883   1.441
 1880W        W61141  28.466  35.358  12.492
 1881W        W61142   1.876  21.716   1.876
 1882W        W61143  17.560   8.212  11.532
 1883W        W61144  13.608  44.496  12.420
 1884W        W61145   0.273  23.078   4.623
 1885W        W61146   0.441  35.571  13.934
 1886W        W61147  10.867  22.030   0.756
 1887W        W61148  19.212  13.154  12.044
 1888W        W61149  39.866  44.470  13.820
 1889W        W61150   5.350  24.489  12.064
 1890W        W61151   0.349   8.312  13.818
 1891W        W61152  35.906  41.891  10.932
 1892W        W61153  22.550  38.931   2.713
 1893W        W61154  29.461  19.535   4.661
 1894W        W61155  36.373  43.927   3.323
 1895W        W61156  15.143  10.759   4.601
 1896W        W61157  30.957  26.057   2.847
 1897W        W61158  29.633  13.637  10.948
 1898W        W61159  32.535  39.008   2.709
 1899W        W61160   7.677  11.165   3.835
 1900W        W61161   2.751   5.890  13.922
 1901W        W61162  24.978  39.494  11.881
 1902W        W61163  17.211  24.031   2.748
 1903W        W61164  35.469  24.572   3.744
 1904W        W61165  30.062  18.274   0.294
 1905W        W61166  23.655  20.220  10.590
 1906W        W61167  36.568  28.166   2.796
 1907W        W61168  40.846   2.359  14.288
 1908W        W61169   2.338  22.998  14.293
 1909W        W61170   5.861  35.937   2.245
 1910W        W61171  11.278   9.883   2.837
 1911W        W61172   3.796  10.170  13.882
 1912W        W61173   8.828  10.746   1.776
 1913W        W61174   0.327  22.699  14.795
 1914W        W61175  34.564  44.366  11.063
 1915W        W61176  35.080  16.290   1.906
 1916W        W61177  36.967  31.621   4.164
 1917W        W61178  11.263  32.449  14.970
 1918W        W61179  34.925   2.354   0.399
 1919W        W61180  11.801  21.153   4.333
 1920W        W61181  11.630   0.761   0.761
 1921W        W61182  22.249  31.547   2.787
 1922W        W61183   1.821  33.448   0.302
 1923W        W61184  18.580  13.304   3.699
 1924W        W61185  29.438  16.680  11.434
 1925W        W61186   1.371  23.555  12.428
 1926W        W61187   7.386  12.806  11.581
 1927W        W61188   8.852  44.959   0.890
 1928W        W61189   2.769  26.020  13.884
 1929W        W61190  29.513  32.411  10.989
 1930W        W61191  27.689  44.432  14.416
 1931W        W61192  41.320  11.688   1.441
 1932W        W61193  27.686  37.468   1.804
 1933W        W61194  24.629   6.313  11.037
 1934W        W61195  28.481  17.170   1.898
 1935W        W61196  27.136  13.275  12.021
 1936W        W61197  10.138  20.535   3.645
 1937W        W61198   7.868   8.191   3.801
 1938W        W61199  15.816   4.822   1.344
 1939W        W61200  34.505   7.201  10.105
 1940W        W61201   6.315  33.898  10.070
 1941W        W61202  28.450   8.780   1.434
 1942W        W61203  42.873  38.462  11.400
 1943W        W61204   8.372  30.999  13.897
 1944W        W61205  35.953   0.309  10.451
 1945W        W61206  33.418  42.511   1.255
 1946W        W61207  17.072  12.226   3.366
 1947W        W61208  20.248  18.190  12.377
 1948W        W61209   6.393  29.140  13.528
 1949W        W61210  27.629  37.495  12.843
 1950W        W61211   1.405   7.212   2.863
 1951W        W61212  31.405   0.890  13.491
 1952W        W61213  30.958  32.136  12.019
 1953W        W61214  15.813  18.208   0.350
 1954W        W61215  43.766   7.377  13.323
 1955W        W61216  37.994  42.443   3.304
 1956W        W61217  20.220  42.878   4.699
 1957W        W61218  42.959  37.440  10.922
 1958W        W61219  13.185  14.674   1.431
 1959W        W61220  38.067   4.774   0.434
 1960W        W61221  17.176  27.979   3.333
 1961W        W61222   3.288  25.670   4.646
 1962W        W61223  11.164  12.733   4.838
 1963W        W61224  22.047  22.520   0.931
 1964W        W61225  16.702  12.272   3.806
 1965W        W61226  15.122  30.142  13.797
 1966W        W61227   5.417  25.075  13.308
 1967W        W61228  17.562   2.453  10.464
 1968W        W61229  35.001  20.704  13.013
 1969W        W61230  14.321  32.501  10.619
 1970W        W61231   8.404  39.388  11.427
 1971W        W61232  35.032  34.103   3.716
 1972W        W61233  20.255   0.788   2.356
 1973W        W61234  33.006   6.738   2.343
 1974W        W61235  20.059  19.613  11.915
 1975W        W61236  31.643  30.160   4.213
 1976W        W61237  33.386  23.549  11.536
 1977W        W61238   1.825   1.420  12.096
 1978W        W61239  40.014   3.240  14.818
 1979W        W61240  39.984  36.888  11.035
 1980W        W61241  27.029  20.131   0.275
 1981W        W61242  13.663   2.388  10.462
 1982W        W61243  32.405  40.435  11.914
 1983W        W61244  19.535  37.505   4.240
 1984W        W61245  23.734  32.997  12.575
 1985W        W61246  24.226   4.771  11.957
 1986W        W61247  42.326  41.346  13.950
 1987W        W61248   9.326  24.995  14.792
 1988W        W61249   3.315  20.064  14.962
 1989W        W61250  44.470  32.114  12.893
 1990W        W61251   6.799  11.367  14.923
 1991W        W61252  12.633  39.864   4.693
 1992W        W61253  14.188  26.652   4.716
 1993W        W61254  39.997  14.213   2.809
 1994W        W61255   5.832  43.973  14.931
 1995W        W61256  27.544   2.341  13.511
 1996W        W61257  35.388  37.034  12.970
 1997W        W61258   8.193  43.879   4.262
 1998W        W61259  27.613  44.781   2.752
 1999W        W61260  12.623  18.769  10.935
 2000W        W61261  44.855  25.712  11.594
 2001W        W61262   7.340  38.041  14.850
 2002W        W61263  22.512   7.844   4.619
 2003W        W61264  26.494  28.946  14.873
 2004W        W61265  28.629  42.875  10.975
 2005W        W61266   3.356  34.528   3.777
 2006W        W61267   9.769  31.037  11.084
 2007W        W61268  43.334   4.297   0.818
 2008W        W61269  29.031  41.442  11.949
 2009W        W61270  17.291  19.562   2.824
 2010W        W61271  28.661   0.836   0.249
 2011W        W61272  17.126  25.056  12.525
 2012W        W61273   8.332  10.303   1.372
 2013W        W61274  20.086  26.642   2.865
 2014W        W61275  13.679  12.801  14.329
 2015W        W61276  20.573  42.815  13.428
 2016W        W61277   6.766  36.980  14.017
 2017W        W61278  41.015  17.277   0.821
 2018W        W61279   8.839  42.795   3.833
 2019W        W61280   8.682  29.604  13.437
 2020W        W61281  23.711  37.422   2.692
 2021W        W61282  22.183   8.893  12.998
 2022W        W61283  34.611  13.676   1.274
 2023W        W61284  40.016  36.372  14.865
 2024W        W61285  26.640   6.698  13.346
 2025W        W61286  23.234   5.328  13.406
 2026W        W61287  42.960   6.392   2.290
 2027W        W61288  43.013  20.746  11.869
 2028W        W61289  33.460   2.796  14.342
 2029W        W61290  32.054  30.912   5.167
 2030W        W61291   4.221   6.777   4.768
 2031W        W61292  15.824   0.355   0.468
 2032W        W61293  15.178  38.894  12.367
 2033W        W61294  15.788  12.779   2.787
 2034W        W61295  23.988   1.278   5.279
 2035W        W61296  26.204  41.924  11.029
 2036W        W61297  25.075  40.908   2.405
 2037W        W61298  24.984  37.983  11.490
 2038W        W61299   8.189  20.529  10.980
 2039W        W61300  42.912   6.742  11.911
 2040W        W61301  40.345  24.588  10.076
 2041W        W61302  43.892  36.451   4.669
 2042W        W61303  11.658   4.353   2.373
 2043W        W61304   4.414  19.636   1.795
 2044W        W61305  41.482  42.471   1.288
 2045W        W61306  27.042  23.195  14.901
 2046W        W61307  27.539  13.694   4.632
 2047W        W61308  17.556  21.652   1.877
 2048W        W61309  24.724   7.222  13.914
 2049W        W61310  31.588   8.782   1.417
 2050W        W61311   7.371  14.268  14.886
 2051W        W61312  35.041   1.884   2.400
 2052W        W61313  21.149  15.579  14.377
 2053W        W61314  15.761  31.917   2.233
 2054W        W61315  24.052  11.283  14.400
 2055W        W61316  33.875  11.356  14.859
 2056W        W61317  43.365  39.418  12.879
 2057W        W61318  44.421   6.735  13.434
 2058W        W61319   7.314  16.163  11.000
 2059W        W61320  39.819  20.613  13.437
 2060W        W61321  34.040  43.468   0.421
 2061W        W61322   8.251   1.767  12.401
 2062W        W61323  33.624  29.463   0.793
 2063W        W61324  14.702  41.372  14.431
 2064W        W61325  23.984  44.407  14.982
 2065W        W61326  24.624  44.471   1.371
 2066W        W61327  39.397  44.889  14.369
 2067W        W61328  39.337  27.515  14.937
 2068W        W61329  16.315  31.980   3.719
 2069W        W61330  34.391   1.390   3.258
 2070W        W61331  25.051  20.252  13.397
 2071W        W61332  44.288  29.936  10.053
 2072W        W61333  27.109  22.521  13.495
 2073W        W61334  42.874   9.831  14.353
 2074W        W61335  30.927  42.879   2.300
 2075W        W61336  17.787  41.803  12.488
 2076W        W61337  34.419  40.450   1.366
 2077W        W61338  24.094  36.981   1.770
 2078W        W61339   9.219  41.450  14.001
 2079W        W61340  19.154  23.997  10.898
 2080W        W61341  12.343   9.181  12.839
 2081W        W61342  29.578  23.562  10.110
 2082W        W61343   9.873  20.263  14.831
 2083W        W61344  13.724  25.567  14.843
 2084W        W61345  27.950  31.136  13.945
 2085W        W61346  17.287  32.588  11.038
 2086W        W61347  22.726  39.522   0.296
 2087W        W61348  16.315  20.269  12.549
 2088W        W61349  11.131  15.627  10.440
 2089W        W61350  41.370  32.509   4.292
 2090W        W61351  18.669  26.464  14.381
 2091W        W61352  35.397  33.093  13.430
 2092W        W61353  25.086  29.932  14.828
 2093W        W61354  34.919  40.413   4.292
 2094W        W61355  43.850   2.310   4.296
 2095W        W61356  19.115  41.979  11.603
 2096W        W61357  31.411  11.843   2.748
 2097W        W61358  13.744  43.863   1.342
 2098W        W61359  34.932   2.229   4.142
 2099W        W61360  20.094  11.220  10.903
 2100W        W61361  39.040  32.911   3.809
 2101W        W61362  36.497  39.981   4.700
 2102W        W61363  31.980  11.787  14.995
 2103W        W61364  32.472  40.818  13.536
 2104W        W61365  35.948  15.598   1.446
 2105W        W61366  31.021  35.985  14.861
 2106W        W61367  14.725  14.654  12.025
 2107W        W61368  33.546  18.740  10.156
 2108W        W61369  22.524   3.267   3.737
 2109W        W61370  38.482  14.816  14.017
 2110W        W61371  27.031  15.221  13.528
 2111W        W61372  23.674  35.521   3.318
 2112W        W61373  18.634  30.482  10.420
 2113W        W61374  10.174  11.813  12.373
 2114W        W61375  39.818  44.279  12.062
 2115W        W61376  19.283  34.960   4.683
 2116W        W61377  28.967   0.354   1.887
 2117W        W61378  21.198   8.748  10.046
 2118W        W61379  33.958   6.882  13.939
 2119W        W61380  41.828   0.288  12.873
 2120W        W61381  23.727   5.280  11.019
 2121W        W61382  32.084  34.953   2.663
 2122W        W61383  14.136  24.678  11.568
 2123W        W61384  39.951  11.231   4.341
 2124W        W61385  31.933  16.170  13.829
 2125W        W61386  12.256  28.439  13.401
 2126W        W61387  42.795  20.127  13.794
 2127W        W61388   0.970  42.866  14.938
 2128W        W61389  43.307   6.807  12.459
 2129W        W61390  30.646   5.786  14.457
 2130W        W61391  19.244  43.848  11.945
 2131W        W61392   1.859  27.026  12.884
 2132W        W61393   2.318  39.462   0.370
 2133W        W61394   4.444  28.659   3.208
 2134W        W61395  39.000  13.306  10.982
 2135W        W61396  31.623  20.255  12.351
 2136W        W61397   6.208  29.631   3.777
 2137W        W61398  37.558  41.460  12.085
 2138W        W61399   0.879  18.222   4.258
 2139W        W61400  13.224  14.655  13.922
 2140W        W61401  42.805  27.647  13.502
 2141W        W61402  29.639  11.868   1.219
 2142W        W61403   6.354  29.089  14.307
 2143W        W61404  39.810   2.302  13.533
 2144W        W61405  18.769   1.836  10.149
 2145W        W61406   6.689   9.651  13.355
 2146W        W61407  35.013  38.965   2.662
 2147W        W61408  28.122  41.518   4.782
 2148W        W61409   6.776  25.663   2.710
 2149W        W61410  42.858   3.346   1.300
 2150W        W61411   4.228  14.172  13.399
 2151W        W61412  20.111   0.882  11.556
 2152W        W61413  28.444  20.059  11.034
 2153W        W61414  26.152  11.166   3.796
 2154W        W61415  22.103  13.313  13.441
 2155W        W61416  12.781  39.339  13.516
 2156W        W61417  44.373  32.480  14.005
 2157W        W61418  43.912  38.837   5.089
 2158W        W61419  16.805   4.818  13.338
 2159W        W61420  29.038  36.942   3.296
 2160W        W61421   8.230  30.529   2.816
 2161W        W61422  27.192  14.318   3.241
 2162W        W61423  37.944   1.470   0.454
 2163W        W61424  23.017  24.585  13.916
 2164W        W61425  27.184  22.057   2.784
 2165W        W61426  29.045  30.061   9.556
 2166W        W61427  30.965  26.054  11.384
 2167W        W61428  15.788  31.607  11.001
 2168W        W61429   6.365  23.995   4.653
 2169W        W61430   4.766  38.487   3.770
 2170W        W61431  34.404  11.368  10.076
 2171W        W61432   8.856  20.081   2.797
 2172W        W61433  39.411  37.392  11.904
 2173W        W61434   9.772  40.507   3.294
 2174W        W61435   6.320  30.024   3.156
 2175W        W61436  27.487   9.784   0.388
 2176W        W61437  17.303  29.950  10.921
 2177W        W61438  22.192   3.742   2.412
 2178W        W61439  22.132   4.255   0.802
 2179W        W61440  16.286   6.340   2.350
 2180W        W61441  42.796  36.941  14.864
 2181W        W61442  43.849  38.986  13.401
 2182W        W61443   3.931  20.729   3.385
 2183W        W61444   4.915  29.113   0.769
 2184W        W61445  10.364  22.726   5.185
 2185W        W61446  26.542  30.995   0.306
 2186W        W61447  39.439   6.912   2.263
 2187W        W61448   0.857   2.427   0.961
 2188W        W61449  40.417  24.714   4.698
 2189W        W61450   2.888  10.680  11.402
 2190W        W61451  29.493   4.304   5.147
 2191W        W61452  27.156  25.666   0.915
 2192W        W61453  36.424   6.186   5.319
 2193W        W61454  40.981  25.489   2.762
 2194W        W61455   4.415  33.892   2.390
 2195W        W61456  12.330  44.352   2.740
 2196W        W61457  31.909  16.650   3.291
 2197W        W61458  42.334   1.970  10.486
 2198W        W61459   8.402  28.988  12.532
 2199W        W61460  11.637  22.558  11.529
 2200W        W61461  35.919   7.775   4.335
 2201W        W61462  20.727  13.828   3.686
 2202W        W61463  13.832  24.018  12.360
 2203W        W61464  21.217  18.289   3.259
 2204W        W61465  19.189  44.824   4.333
 2205W        W61466   7.712   5.193   1.791
 2206W        W61467  36.040  11.692  11.952
 2207W        W61468  43.336  31.030  13.544
 2208W        W61469  34.108  35.004  13.339
 2209W        W61470   6.193   9.293   4.697
 2210W        W61471  38.943  41.040   2.404
 2211W        W61472  43.418  27.595  14.502
 2212W        W61473  19.200  44.276   3.201
 2213W        W61474  16.767  18.275  11.941
 2214W        W61475   5.739  22.212   4.784
 2215W        W61476  44.278  20.269   0.345
 2216W        W61477   7.345  44.756  13.800
 2217W        W61478  25.004  42.790  13.887
 2218W        W61479  30.133   5.816  12.575
 2219W        W61480  38.826  14.815   2.764
 2220W        W61481  26.122  40.457   2.271
 2221W        W61482   6.228  38.487   1.906
 2222W        W61483   2.813  27.560   1.318
 2223W        W61484  35.419  11.723   2.214
 2224W        W61485   0.461  25.069   1.443
 2225W        W61486  42.423  31.007  10.928
 2226W        W61487  19.712  24.004  11.103
 2227W        W61488  18.590  24.106  12.825
 2228W        W61489  11.746  35.408   0.322
 2229W        W61490  27.019  33.552   3.238
 2230W        W61491   8.364  24.610   0.302
 2231W        W61492  16.145   2.309   3.336
 2232W        W61493  43.825   6.201  13.840
 2233W        W61494   8.366  17.211   4.697
 2234W        W61495  22.679  15.113   0.287
 2235W        W61496  33.003  26.487  12.347
 2236W        W61497  23.013  26.553  13.392
 2237W        W61498   3.420  31.599  10.535
 2238W        W61499  44.361  40.481   4.117
 2239W        W61500   4.297  30.934  10.410
 2240W        W61501  37.052   4.248  12.888
 2241W        W61502  44.897   7.226  12.453
 2242W        W61503  27.054  38.497   4.327
 2243W        W61504  20.533   2.908  12.829
 2244W        W61505   3.430  40.937   4.731
 2245W        W61506   8.853  10.672   3.303
 2246W        W61507   9.369  41.304  10.153
 2247W        W61508  15.609  23.572   4.346
 2248W        W61509  39.388  38.002  14.460
 2249W        W61510   8.722  25.573  14.468
 2250W        W61511   2.399   4.942  10.987
 2251W        W61512  25.173  38.541  12.416
 2252W        W61513   0.381  22.132  14.895
 2253W        W61514  36.095  14.625  11.009
 2254W        W61515   1.740  39.951   0.910
 2255W        W61516  40.027   1.969   1.832
 2256W        W61517  31.067  40.826  12.985
 2257W        W61518   9.285   9.189   0.919
 2258W        W61519   7.348  12.207  10.645
 2259W        W61520   6.301  20.215  14.389
 2260W        W61521  44.800   5.374   0.250
 2261W        W61522  29.045   9.214   3.165
 2262W        W61523   7.197  24.531   3.192
 2263W        W61524  16.590   6.225  10.448
 2264W        W61525  12.656   8.792   2.304
 2265W        W61526  25.968  37.362   3.177
 2266W        W61527  38.043   1.798   2.419
 2267W        W61528  34.972  14.125  12.046
 2268W        W61529   8.232  37.073   2.686
 2269W        W61530   6.276  16.792   4.665
 2270W        W61531  18.244  25.968  12.043
 2271W        W61532  41.867  21.644   3.725
 2272W        W61533  29.592   6.741  14.828
 2273W        W61534  12.256  38.505   4.628
 2274W        W61535  36.368  25.651  10.890
 2275W        W61536  33.943  39.816   0.786
 2276W        W61537   1.351  38.044  13.040
 2277W        W61538  30.449  34.112  14.020
 2278W        W61539   0.356  38.069  11.943
 2279W        W61540  37.346  17.102  13.022
 2280W        W61541  13.797  23.119  13.991
 2281W        W61542  11.786  14.264   1.877
 2282W        W61543  35.950   0.861  10.637
 2283W        W61544  36.358   6.727  10.415
 2284W        W61545  11.155  42.854  13.391
 2285W        W61546  10.212  27.012  10.955
 2286W        W61547  43.968  34.051  11.379
 2287W        W61548   6.201  32.547   4.311
 2288W        W61549  35.544  10.652  14.950
 2289W        W61550   6.271  25.177   3.202
 2290W        W61551  39.447   5.276   4.719
 2291W        W61552   8.790   0.445  14.380
 2292W        W61553  35.550  41.005   0.901
 2293W        W61554  36.582  11.690  13.031
 2294W        W61555   0.294  18.238  13.007
 2295W        W61556  26.490  39.481  11.944
 2296W        W61557   3.424  25.218   3.215
 2297W        W61558  27.462   4.344   3.754
 2298W        W61559  24.185  13.680  11.002
 2299W        W61560  10.845  14.690  14.466
 2300W        W61561  43.842  12.661  10.464
 2301W        W61562  35.454  22.239   1.302
 2302W        W61563   5.843  28.680  13.815
 2303W        W61564  35.567   5.197  11.873
 2304W        W61565  41.935   1.970  14.426
 2305W        W61566  26.085  10.865  12.350
 2306W        W61567  32.472  40.030  10.606
 2307W        W61568  40.944  18.700  13.064
 2308W        W61569  14.305  18.239   1.356
 2309W        W61570   0.473  24.601  12.092
 2310W        W61571  20.110  25.131   2.225
 2311W        W61572  10.299  40.882   4.605
 2312W        W61573  43.864  41.804   2.289
 2313W        W61574  42.863  28.469  14.375
 2314W        W61575  12.340  44.986   2.724
 2315W        W61576  12.670  30.557  11.099
 2316W        W61577  23.023  21.116  10.911
 2317W        W61578  13.714  42.446  14.462
 2318W        W61579  14.107  24.130   0.271
 2319W        W61580  14.826  33.044   0.881
 2320W        W61581   0.841   2.381   1.905
 2321W        W61582  24.692  30.486  12.894
 2322W        W61583  41.308   8.850  13.387
 2323W        W61584  25.508  32.553  11.924
 2324W        W61585  36.572   9.378   1.835
 2325W        W61586  27.483  16.811  10.456
 2326W        W61587  20.589  12.261  12.388
 2327W        W61588  21.108  42.369  14.936
 2328W        W61589  36.015  20.131  12.885
 2329W        W61590   4.237  42.792  12.343
 2330W        W61591   3.240  23.508  11.031
 2331W        W61592   0.377  39.997   4.648
 2332W        W61593   7.837  13.730  11.443
 2333W        W61594  28.080  34.389  10.983
 2334W        W61595   5.315   6.380   1.847
 2335W        W61596  36.473  28.008  11.943
 2336W        W61597  43.279  24.585   4.671
 2337W        W61598  36.452   0.262   3.172
 2338W        W61599   1.310   9.757  12.464
 2339W        W61600  13.225  30.540   0.950
 2340W        W61601   7.682  44.882   3.723
 2341W        W61602   3.748  43.302  13.319
 2342W        W61603   0.904  38.845  14.776
 2343W        W61604   2.913   8.398   4.634
 2344W        W61605   5.398  17.692   0.950
 2345W        W61606  14.726  12.121   1.338
 2346W        W61607  34.901  19.662  11.913
 2347W        W61608  34.469  33.525   4.270
 2348W        W61609  34.612   9.766  11.513
 2349W        W61610  28.168  13.305  12.553
 2350W        W61611  33.621   1.864   3.808
 2351W        W61612  35.913  28.434   1.748
 2352W        W61613  12.688  40.355   2.894
 2353W        W61614  41.029   8.740  14.292
 2354W        W61615  19.270  38.554   3.776
 2355W        W61616  15.299  24.513   0.333
 2356W        W61617  29.633  32.494   4.833
 2357W        W61618  36.507   9.832   0.947
 2358W        W61619  24.479   0.773   4.783
 2359W        W61620  33.622   0.840   4.315
 2360W        W61621  26.628  43.001  11.552
 2361W        W61622  17.231  25.979   1.383
 2362W        W61623  42.958   5.300   4.676
 2363W        W61624   2.331   6.285   0.913
 2364W        W61625  19.054  36.892  11.575
 2365W        W61626   3.445  17.188   4.125
 2366W        W61627  34.509  37.997   4.598
 2367W        W61628  44.421  27.609   4.172
 2368W        W61629  23.517  33.882  10.158
 2369W        W61630  22.593  44.813   0.805
 2370W        W61631  35.579  37.368   4.787
 2371W        W61632   7.719  21.699  14.817
 2372W        W61633   4.940   8.710  10.576
 2373W        W61634   9.254  17.185  10.044
 2374W        W61635  31.620   5.933   4.338
 2375W        W61636   7.324  27.184   1.920
 2376W        W61637   3.443  10.284   1.787
 2377W        W61638  25.185  13.650   1.236
 2378W        W61639  19.697  38.834   3.711
 2379W        W61640  19.119  32.045   4.270
 2380W        W61641  35.571   8.796   1.846
 2381W        W61642   5.772  21.582  13.434
 2382W        W61643  41.966  41.960  14.515
 2383W        W61644  43.829  22.539  11.498
 2384W        W61645  33.482  15.614   5.123
 2385W        W61646   6.409  29.424  14.013
 2386W        W61647  31.489   0.917   2.819
 2387W        W61648  41.302  41.868  12.545
 2388W        W61649   3.799  18.647  12.531
 2389W        W61650  16.601  30.656  12.480
 2390W        W61651  29.047   3.875  12.842
 2391W        W61652  36.531  32.459   3.237
 2392W        W61653  19.112  19.044  14.505
 2393W        W61654  19.770  17.076   2.193
 2394W        W61655  23.640  34.450  14.462
 2395W        W61656  33.991  28.079  12.401
 2396W        W61657  44.829   0.911   1.750
 2397W        W61658  25.191   9.677   4.273
 2398W        W61659  10.872  24.679  10.541
 2399W        W61660  43.837  42.301   1.850
 2400W        W61661   2.353  44.851   4.776
 2401W        W61662  32.963  35.523  11.408
 2402W        W61663  29.133  41.824  12.932
 2403W        W61664  43.511  36.098  13.952
 2404W        W61665  25.988  27.468   3.277
 2405W        W61666  12.118  44.988   1.373
 2406W        W61667   1.922  24.052  14.977
 2407W        W61668  39.536   1.472  12.982
 2408W        W61669  42.997   5.923   1.867
 2409W        W61670   0.928   1.878  10.938
 2410W        W61671  24.512   2.765   0.280
 2411W        W61672  30.994  40.332  13.885
 2412W        W61673   7.296   4.291   0.963
 2413W        W61674  11.788  25.081  10.491
 2414W        W61675  26.539  40.423  11.120
 2415W        W61676  31.914  34.958   3.763
 2416W        W61677  22.605  41.910   0.966
 2417W        W61678  21.073  35.580   3.170
 2418W        W61679  17.712   8.810   0.366
 2419W        W61680  17.802   6.216  13.009
 2420W        W61681  29.039  16.269  14.837
 2421W        W61682   6.409  44.824   4.141
 2422W        W61683   0.464   7.809   4.605
 2423W        W61684   2.430  28.076   2.182
 2424W        W61685  22.104   1.860   0.923
 2425W        W61686   3.907   4.761  14.316
 2426W        W61687  23.054  24.099   2.761
 2427W        W61688   9.350   6.878  14.913
 2428W        W61689  42.787  25.101   5.582
 2429W        W61690  37.408  43.768   2.393
 2430W        W61691  11.228  29.025  11.981
 2431W        W61692  37.859  39.362  14.905
 2432W        W61693  18.269   2.398   3.322
 2433W        W61694  29.172   7.378   0.884
 2434W        W61695   3.722  30.934  11.052
 2435W        W61696  20.237  27.520  13.402
 2436W        W61697  15.599  27.980   1.854
 2437W        W61698  34.011  41.915   2.845
 2438W        W61699  10.339  33.550  11.053
 2439W        W61700  22.724   6.727  13.370
 2440W        W61701  29.057  21.659  14.910
 2441W        W61702   5.328  37.400   4.223
 2442W        W61703   1.318   5.417  13.357
 2443W        W61704  21.231   2.919  11.863
 2444W        W61705  20.617   8.191   2.415
 2445W        W61706  13.816  27.142   9.938
 2446W        W61707  26.164  36.463  14.476
 2447W        W61708  37.541  20.665   1.375
 2448W        W61709  24.086  24.995   0.432
 2449W        W61710  40.047   9.385   4.145
 2450W        W61711  21.173  10.146  10.634
 2451W        W61712  29.071   8.299  13.498
 2452W        W61713  33.602  34.378   2.896
 2453W        W61714  33.389  25.623   0.853
 2454W        W61715  16.691  11.734   0.324
 2455W        W61716  37.966  37.387  12.451
 2456W        W61717  38.529   7.761   0.762
 2457W        W61718  29.449  26.988   4.735
 2458W        W61719  39.860   3.459   3.724
 2459W        W61720   4.286  12.326  12.948
 2460W        W61721   3.244   0.366   3.157
 2461W        W61722  40.830  43.296   3.314
 2462W        W61723   3.864  15.710  14.872
 2463W        W61724  33.396  36.449   3.293
 2464W        W61725  26.606  31.952   0.438
 2465W        W61726  17.631  28.569   9.981
 2466W        W61727  40.911  33.490  11.066
 2467W        W61728  43.883  14.301   4.271
 2468W        W61729  14.745  36.998   0.415
 2469W        W61730  29.483  37.425   1.225
 2470W        W61731  33.624  11.832   1.308
 2471W        W61732  15.293   2.362  12.433
 2472W        W61733  19.709   0.353  13.881
 2473W        W61734  17.259  16.229  11.051
 2474W        W61735  11.824  32.401   1.925
 2475W        W61736  44.485  13.698  13.503
 2476W        W61737   0.456  29.124   4.249
 2477W        W61738  28.560  32.405   2.891
 2478W        W61739  20.270  11.246  10.465
 2479W        W61740  31.061   4.912   3.360
 2480W        W61741  29.076  13.686   4.164
 2481W        W61742   4.340  32.587  12.409
 2482W        W61743   5.413  21.196  14.020
 2483W        W61744  39.357  38.957   0.856
 2484W        W61745  31.510  10.171  11.568
 2485W        W61746  17.170   0.346   3.861
 2486W        W61747  30.618  19.622   3.332
 2487W        W61748   5.246  14.667  11.517
 2488W        W61749  35.106  36.386   4.129
 2489W        W61750   5.419  17.112  11.541
 2490W        W61751  37.570  19.722   2.413
 2491W        W61752  24.511  27.126  12.905
 2492W        W61753  27.490  42.949  10.112
 2493W        W61754  10.635   2.797   0.909
 2494W        W61755   9.661  35.433  14.992
 2495W        W61756  17.152   9.777   9.944
 2496W        W61757   4.819   8.807  12.868
 2497W        W61758  41.391  10.865   3.214
 2498W        W61759   0.481  34.115  10.516
 2499W        W61760  37.574  26.202  13.048
 2500W        W61761  31.019  18.651  13.850
 2501W        W61762  14.614  34.988   1.785
 2502W        W61763  10.714  42.487   4.262
 2503W        W61764  16.093  34.505  14.999
 2504W        W61765   0.812  38.879   4.657
 2505W        W61766   7.313   6.187   4.666
 2506W        W61767  28.558   8.188   4.609
 2507W        W61768   0.844  20.639   2.733
 2508W        W61769  36.575  16.209  12.911
 2509W        W61770  28.591  38.400  14.887
 2510W        W61771  15.279  37.075   4.234
 2511W        W61772  37.442  38.823   0.259
 2512W        W61773   8.346  41.929   0.810
 2513W        W61774  40.408  10.784  12.555
 2514W        W61775   2.944  20.071   0.796
 2515W        W61776   0.868  35.521   2.329
 2516W        W61777   6.207  15.639  10.994
 2517W        W61778  34.910  16.576  10.912
 2518W        W61779  21.725   7.853  13.818
 2519W        W61780  44.471   5.243  13.404
 2520W        W61781   2.448  40.512   4.777
 2521W        W61782   4.285  34.996   4.832
 2522W        W61783  17.255   6.725  14.768
 2523W        W61784  10.782  21.712   0.298
 2524W        W61785  19.545  43.470  14.760
 2525W        W61786   8.305  17.241   0.309
 2526W        W61787  33.033  29.577   3.171
 2527W        W61788   9.649   6.238   3.799
 2528W        W61789   2.269  43.883   3.870
 2529W        W61790  28.458   7.696  14.779
 2530W        W61791  29.541  35.573  12.006
 2531W        W61792   2.464  39.418   2.690
 2532W        W61793  36.974   4.930  10.944
 2533W        W61794  35.981   4.356   4.144
 2534W        W61795   0.781  36.908  13.890
 2535W        W61796  32.044  43.419  14.287
 2536W        W61797  30.032  36.090   1.857
 2537W        W61798  11.233  16.266   4.653
 2538W        W61799  12.681  40.862   0.785
 2539W        W61800  24.603  18.791  14.957
 2540W        W61801  11.224   0.900  12.090
 2541W        W61802  44.303   2.277  11.121
 2542W        W61803  37.383  43.013   3.180
 2543W        W61804  30.437  37.339  12.391
 2544W        W61805  31.951  42.940   0.263
 2545W        W61806  30.154  36.030   1.211
 2546W        W61807  35.556  31.051  11.416
 2547W        W61808  32.047  37.840   2.693
 2548W        W61809  20.206   9.165  11.594
 2549W        W61810   6.322   0.312  13.942
 2550W        W61811  43.921  24.064   0.312
 2551W        W61812  34.105  39.884  14.342
 2552W        W61813  42.894  33.515  11.861
 2553W        W61814  12.207  38.523  12.093
 2554W        W61815   4.779   1.407   1.411
 2555W        W61816  14.783  35.370   0.812
 2556W        W61817  40.420  38.829  10.069
 2557W        W61818  24.026  32.131   0.429
 2558W        W61819   2.771  28.492  13.879
 2559W        W61820  38.397  34.513  10.617
 2560W        W61821   4.368  43.862   1.318
 2561W        W61822   7.337  34.384   1.210
 2562W        W61823  19.647  30.985  10.414
 2563W        W61824  14.123  37.373   3.712
 2564W        W61825  23.521  27.114  13.050
 2565W        W61826  38.476  10.635   3.832
 2566W        W61827  29.013   6.728  13.970
 2567W        W61828  34.103  13.213  10.498
 2568W        W61829  33.961  30.929  13.431
 2569W        W61830   7.844  31.941   1.292
 2570W        W61831  31.490  12.223   2.871
 2571W        W61832  30.978  42.938  12.038
 2572W        W61833  17.645   8.370   1.408
 2573W        W61834  21.572   0.275  11.067
 2574W        W61835   8.891  43.815   3.670
 2575W        W61836  37.986   2.243   1.427
 2576W        W61837   9.764  42.302  14.297
 2577W        W61838  41.986   5.792  13.054
 2578W        W61839   6.307   4.444   4.645
 2579W        W61840  43.488  29.533   2.179
 2580W        W61841  24.178  12.848  10.508
 2581W        W61842  34.953  18.549   4.693
 2582W        W61843  20.586  30.612   1.424
 2583W        W61844  28.162   6.725   1.866
 2584W        W61845   2.238  33.118  11.974
 2585W        W61846  12.660  32.038   1.849
 2586W        W61847  29.556  21.658  11.612
 2587W        W61848  28.144  41.306  10.086
 2588W        W61849  24.644  24.595   0.376
 2589W        W61850  14.316  16.746   3.870
 2590W        W61851   1.424  11.722  12.070
 2591W        W61852  37.055  31.139  13.416
 2592W        W61853   7.687  18.732   0.906
 2593W        W61854  38.941  18.266   1.823
 2594W        W61855  40.019  42.483   4.230
 2595W        W61856   5.753  14.229  13.342
 2596W        W61857  22.121  29.991   3.189
 2597W        W61858  39.457  26.963  10.499
 2598W        W61859  44.407  28.143  11.595
 2599W        W61860   4.285  17.250  10.458
 2600W        W61861  13.620  39.373   3.366
 2601W        W61862  27.527  17.702   4.835
 2602W        W61863  20.132  44.866  14.293
 2603W        W61864  21.551   0.393  12.535
 2604W        W61865   7.786  33.596   1.824
 2605W        W61866  44.873   6.810   1.295
 2606W        W61867   4.306  12.309  11.961
 2607W        W61868  31.416   1.973   3.658
 2608W        W61869   4.375   1.406  14.411
 2609W        W61870   3.366  39.524  13.063
 2610W        W61871  30.145  39.936  13.485
 2611W        W61872  20.690   8.666   0.366
 2612W        W61873  30.103  12.334  13.355
 2613W        W61874  12.729  43.330  11.599
 2614W        W61875  37.375  26.497  13.318
 2615W        W61876  37.396  35.957   1.708
 2616W        W61877   0.295  43.845   0.357
 2617W        W61878  16.100  27.971  13.384
 2618W        W61879  17.661   6.372  11.080
 2619W        W61880  33.452  22.529   5.096
 2620W        W61881  43.929  14.135  10.122
 2621W        W61882  32.009  37.935   5.112
 2622W        W61883   8.324  40.529  12.373
 2623W        W61884   6.240   0.306   1.239
 2624W        W61885   1.806  19.175   4.820
 2625W        W61886  44.344  19.563  12.989
 2626W        W61887  42.361  16.148   0.393
 2627W        W61888  12.153  23.707   2.320
 2628W        W61889  43.275  14.653   0.781
 2629W        W61890   8.196  13.719   2.799
 2630W        W61891   8.718  16.195  14.351
 2631W        W61892   9.181  10.841   3.760
 2632W        W61893  28.118  38.566  11.084
 2633W        W61894  16.162  16.077   3.786
 2634W        W61895   7.223  35.425   1.294
 2635W        W61896  22.083  34.506  13.541
 2636W        W61897   4.361  34.048   4.295
 2637W        W61898   4.401  22.645  11.422
 2638W        W61899  25.614   2.924  14.371
 2639W        W61900  29.033  10.331  10.897
 2640W        W61901  25.689   4.868   4.319
 2641W        W61902  10.832  26.566   4.221
 2642W        W61903  21.246  29.021   2.891
 2643W        W61904   6.213  20.668   0.925
 2644W        W61905  11.642  21.024   1.285
 2645W        W61906  13.120  25.147  13.340
 2646W        W61907   3.412   3.384  11.480
 2647W        W61908  30.158  23.541  13.517
 2648W        W61909   2.355  29.962  13.373
 2649W        W61910  27.526  11.349  11.029
 2650W        W61911   2.396  37.037   1.700
 2651W        W61912  22.629  44.396   0.351
 2652W        W61913  23.087  19.553  13.835
 2653W        W61914   4.364   2.296  13.313
 2654W        W61915   5.276  44.441  10.426
 2655W        W61916  29.934   5.775  13.996
 2656W        W61917  23.101   1.827  14.467
 2657W        W61918   7.374  37.452   2.266
 2658W        W61919   3.382  12.714   2.709
 2659W        W61920  13.600  26.602  13.055
 2660W        W61921  22.010  13.224   2.371
 2661W        W61922  32.962  43.957   3.291
 2662W        W61923  27.132   7.845   0.775
 2663W        W61924  26.169  14.288  12.550
 2664W        W61925  16.757  29.143   3.284
 2665W        W61926   9.684  17.120   3.299
 2666W        W61927  12.328  39.542   4.127
 2667W        W61928  10.343  43.902  10.126
 2668W        W61929  22.538  27.624   0.269
 2669W        W61930  16.099  43.888   4.750
 2670W        W61931  42.988   0.412  12.522
 2671W        W61932   2.413  26.608   4.336
 2672W        W61933  38.954  19.114   1.731
 2673W        W61934  27.516  36.490  10.893
 2674W        W61935  11.267   0.380   1.260
 2675W        W61936  29.952  13.831   4.638
 2676W        W61937  20.718   0.303  13.395
 2677W        W61938  11.215   7.767   2.817
 2678W        W61939  33.416   7.746   1.311
 2679W        W61940  36.465  17.276   3.246
 2680W        W61941  44.836  37.967   4.751
 2681W        W61942  38.463  15.612  12.392
 2682W        W61943  34.995  17.247  12.444
 2683W        W61944  19.655  42.821  11.458
 2684W        W61945  33.026  36.381  14.370
 2685W        W61946  41.368  21.636   4.680
 2686W        W61947  10.873  22.137   3.870
 2687W        W61948  40.341  40.379  14.345
 2688W        W61949  30.946  20.245   4.749
 2689W        W61950  32.611  36.534   4.239
 2690W        W61951  13.200  41.840  11.002
 2691W        W61952  10.876  23.704  12.404
 2692W        W61953  13.660   0.943  12.058
 2693W        W61954  30.657  28.555  13.435
 2694W        W61955  32.973  13.279  14.304
 2695W        W61956  18.056  33.006  14.823
 2696W        W61957  29.669   3.459   0.285
 2697W        W61958  19.052  36.928   0.744
 2698W        W61959  20.557  30.029   4.727
 2699W        W61960  38.405   5.824   3.288
 2700W        W61961  13.252  41.375   1.234
 2701W        W61962  32.538  44.929   2.689
 2702W        W61963   8.188  37.543  10.594
 2703W        W61964  28.622  25.567  13.055
 2704W        W61965   3.453  42.782   2.824
 2705W        W61966   7.696  43.836   3.643
 2706W        W61967   1.761   9.884  12.425
 2707W        W61968  37.491  15.589  11.581
 2708W        W61969  40.476  23.646  13.973
 2709W        W61970  26.990  40.999  14.873
 2710W        W61971   0.321   3.451   0.255
 2711W        W61972   1.407  39.410  14.855
 2712W        W61973  24.694  35.428   2.665
 2713W        W61974  16.129  23.123   1.366
 2714W        W61975  39.066  23.689   0.307
 2715W        W61976  18.179  43.961  14.776
 2716W        W61977  33.483  32.637   3.804
 2717W        W61978  31.921   4.264  13.061
 2718W        W61979  37.492  39.509   0.439
 2719W        W61980  18.072   8.849   4.181
 2720W        W61981  15.188   6.711  12.012
 2721W        W61982  23.575  28.962   3.197
 2722W        W61983  22.632  18.152  14.020
 2723W        W61984  31.934   7.310  11.030
 2724W        W61985  24.611   4.428   4.828
 2725W        W61986  42.450  37.387   4.758
 2726W        W61987  18.124  42.467   2.324
 2727W        W61988  39.442  11.772  12.083
 2728W        W61989  21.733  44.269  12.026
 2729W        W61990   7.179  24.100  11.410
 2730W        W61991  16.131  25.627   3.145
 2731W        W61992  34.926  36.967   0.912
 2732W        W61993   3.292  27.172   1.227
 2733W        W61994  17.178  10.789   4.716
 2734W        W61995  12.808  10.821  11.372
 2735W        W61996   9.745  30.464   2.260
 2736W        W61997  15.581  43.376   0.363
 2737W        W61998  40.962   3.907  12.570
 2738W        W61999  12.633  12.853  12.534
 2739W        W62000  21.618   8.338  12.370
 2740W        W62001   9.716  17.692  12.455
 2741W        W62002  36.892   0.350   2.394
 2742W        W62003   6.194   2.232  14.943
 2743W        W62004   8.706  37.492   1.930
 2744W        W62005  34.068  21.226  13.925
 2745W        W62006   7.866  17.064  14.007
 2746W        W62007   4.400  23.619  14.452
 2747W        W62008  44.943  12.754  12.041
 2748W        W62009  19.254   8.701  14.814
 2749W        W62010  11.635  13.212  12.396
 2750W        W62011  12.256  29.961   3.795
 2751W        W62012   1.858   8.340   1.332
 2752W        W62013   6.760  23.497  13.912
 2753W        W62014   2.308   4.370   1.448
 2754W        W62015  32.135  41.426   2.387
 2755W        W62016  10.246   4.260   4.714
 2756W        W62017   8.349  36.908  12.846
 2757W        W62018  31.595   8.696   5.277
 2758W        W62019  21.237   0.413   2.820
 2759W        W62020  26.184  12.711   4.651
 2760W        W62021   7.356  17.244   3.833
 2761W        W62022   7.379  16.202  14.430
 2762W        W62023  11.765   1.832  14.823
 2763W        W62024  29.134   2.759  13.466
 2764W        W62025   8.748  12.630   2.710
 2765W        W62026  36.959   2.279  13.404
 2766W        W62027   2.375  33.569   5.282
 2767W        W62028  39.417  16.585  13.366
 2768W        W62029  43.879  15.170   2.232
 2769W        W62030   5.707  31.123   3.334
 2770W        W62031  22.609  11.755   3.847
 2771W        W62032  15.109   9.664   1.748
 2772W        W62033  21.591  21.545  13.489
 2773W        W62034  42.361   9.727   0.764
 2774W        W62035   5.754  30.996  12.464
 2775W        W62036  38.387  17.699  12.456
 2776W        W62037  10.185  38.891  12.908
 2777W        W62038  12.250  30.099  13.882
 2778W        W62039  20.197   7.745   0.400
 2779W        W62040   8.761  11.705  12.494
 2780W        W62041  40.347   2.439  11.875
 2781W        W62042  25.708  26.170   0.382
 2782W        W62043  39.850  42.363  11.936
 2783W        W62044  30.955  44.799   0.377
 2784W        W62045  26.679   9.853  13.836
 2785W        W62046  42.970  40.373   2.252
 2786W        W62047   8.335   6.872   1.282
 2787W        W62048  44.800   5.693   0.257
 2788W        W62049  14.681  38.948  11.601
 2789W        W62050   9.394  21.528  10.421
 2790W        W62051  36.401  18.151   2.848
 2791W        W62052  12.611  12.801  10.505
 2792W        W62053  16.151  20.555  14.830
 2793W        W62054  25.529   5.206   2.396
 2794W        W62055  32.003  17.693   1.733
 2795W        W62056  10.336  14.178  11.490
 2796W        W62057  34.083  29.985   0.335
 2797W        W62058   5.422   9.807   3.231
 2798W        W62059  22.604  10.844  13.953
 2799W        W62060  10.231  16.690   3.308
 2800W        W62061  18.683  24.202   5.316
 2801W        W62062  35.484  43.368  13.499
 2802W        W62063  13.789  11.214   1.738
 2803W        W62064   9.163   1.863  10.640
 2804W        W62065  40.922  17.697   3.347
 2805W        W62066   2.325  18.084   0.900
 2806W        W62067  15.756  14.103  11.928
 2807W        W62068  42.338   7.306  13.866
 2808W        W62069  38.505  39.350   4.610
 2809W        W62070   9.841   7.335   1.756
 2810W        W62071   9.244  30.120   4.175
 2811W        W62072  20.595   7.229  10.905
 2812W        W62073   3.215   6.849  12.515
 2813W        W62074   8.365   1.390   1.339
 2814W        W62075   3.773  41.043   4.284
 2815W        W62076  35.973  19.180  13.415
 2816W        W62077  17.106  37.045   2.820
 2817W        W62078   1.862  29.598  14.909
 2818W        W62079   6.695  30.417  14.761
 2819W        W62080  16.692  18.717  11.100
 2820W        W62081   0.927  16.222  12.916
 2821W        W62082  21.263   5.865  11.056
 2822W        W62083  30.430  14.209  12.824
 2823W        W62084  17.580  33.546   3.350
 2824W        W62085  37.407  26.474   1.436
 2825W        W62086  12.775  14.727  10.925
 2826W        W62087  44.377   4.823  11.570
 2827W        W62088  21.079   4.204  13.390
 2828W        W62089  24.722  13.274   2.779
 2829W        W62090  33.887   4.357  12.079
 2830W        W62091  10.813  40.526   3.777
 2831W        W62092  25.574  39.451  10.641
 2832W        W62093  39.012  12.725   3.281
 2833W        W62094  23.650  23.066   3.713
 2834W        W62095  27.649  22.103   1.310
 2835W        W62096   9.295  41.803   1.218
 2836W        W62097  44.319  37.465   4.143
 2837W        W62098  24.189  38.541   0.843
 2838W        W62099  28.161  12.168   2.820
 2839W        W62100  43.409   9.854   1.783
 2840W        W62101  33.407  39.376   1.281
 2841W        W62102  25.646  32.006   3.235
 2842W        W62103  11.649  35.601   1.774
 2843W        W62104  22.122   2.258  10.612
 2844W        W62105  43.895  12.205  13.478
 2845W        W62106  22.122  35.900  14.912
 2846W        W62107   9.277  30.159  14.928
 2847W        W62108   7.801  17.568  11.957
 2848W        W62109   5.231  25.550   0.348
 2849W        W62110  36.522  13.333  13.817
 2850W        W62111   8.813  42.973   0.960
 2851W        W62112  19.737  37.495   3.842
 2852W        W62113   8.752  14.795   2.347
 2853W        W62114  31.424  32.033  10.542
 2854W        W62115  38.827   3.926  14.770
 2855W        W62116  21.601  15.134   3.763
 2856W        W62117  32.018  25.149  12.038
 2857W        W62118  23.022  31.108  11.116
 2858W        W62119  22.580  18.673  12.077
 2859W        W62120  43.454  43.511  13.056
 2860W        W62121  16.802  18.159   3.181
 2861W        W62122  30.986   7.907  11.110
 2862W        W62123  14.600  41.398   0.815
 2863W        W62124  18.584  38.968   2.352
 2864W        W62125  43.335  23.148   9.953
 2865W        W62126  36.417   3.914  11.980
 2866W        W62127  44.858  29.642  11.116
 2867W        W62128  22.229   0.858   1.317
 2868W        W62129  22.587  29.031  14.959
 2869W        W62130  38.421  21.232   3.182
 2870W        W62131   4.216  26.660   1.758
 2871W        W62132  41.009   5.889  12.972
 2872W        W62133  30.038  20.619   4.138
 2873W        W62134  44.990  42.985   3.258
 2874W        W62135  39.890  26.041   0.269
 2875W        W62136   8.289  11.632   2.673
 2876W        W62137   2.335  36.392  13.906
 2877W        W62138   4.443  20.032  11.986
 2878W        W62139  13.155   0.889  12.922
 2879W        W62140  21.074   4.222  11.591
 2880W        W62141   3.270  34.037  11.867
 2881W        W62142  28.158  36.505   0.834
 2882W        W62143   9.213   1.477   4.679
 2883W        W62144  41.800  40.040  11.097
 2884W        W62145  14.094  31.515   2.692
 2885W        W62146  11.328  11.659  11.550
 2886W        W62147   0.808   8.677   4.147
 2887W        W62148  39.054  32.021   2.310
 2888W        W62149  21.052  10.255  13.423
 2889W        W62150   1.878  19.054  12.450
 2890W        W62151   5.726  41.011  14.508
 2891W        W62152  30.463   0.358   1.868
 2892W        W62153  25.989  32.984   4.667
 2893W        W62154  30.056  42.811   2.262
 2894W        W62155  12.824  23.121  10.946
 2895W        W62156  29.576  18.052  14.848
 2896W        W62157   1.791  28.119  13.524
 2897W        W62158   2.825  10.671   3.761
 2898W        W62159  29.549  18.264   1.792
 2899W        W62160  34.461  29.927  13.342
 2900W        W62161  23.000  21.120   4.301
 2901W        W62162  18.646  22.182   0.483
 2902W        W62163   5.766  15.817  10.037
 2903W        W62164   0.780  30.912   2.185
 2904W        W62165   0.288  42.447  13.342
 2905W        W62166  44.294  27.689   1.436
 2906W        W62167  32.623  19.679  10.575
 2907W        W62168  15.808   0.391  14.299
 2908W        W62169  21.132   8.198  13.993
 2909W        W62170  16.585  16.097   0.798
 2910W        W62171   7.826  40.501  12.058
 2911W        W62172   8.801   1.869   0.473
 2912W        W62173   1.903   9.671  12.031
 2913W        W62174   3.231  11.264  10.555
 2914W        W62175  36.548  21.042   4.146
 2915W        W62176  33.889  37.052   4.122
 2916W        W62177  35.566  16.689   4.726
 2917W        W62178  41.494  41.332   3.344
 2918W        W62179  11.244  23.520  13.003
 2919W        W62180   2.920  30.451   2.751
 2920W        W62181   4.348  36.907   4.825
 2921W        W62182  19.712  38.551  12.566
 2922W        W62183  19.220   2.398   3.738
 2923W        W62184  23.150   6.325   9.957
 2924W        W62185  11.201  15.580   3.268
 2925W        W62186  27.621  23.730  11.917
 2926W        W62187  26.621  33.574   4.827
 2927W        W62188  41.882  43.850  13.927
 2928W        W62189  30.596  41.378  11.911
 2929W        W62190  15.662  42.876   2.678
 2930W        W62191  25.021  44.414   0.790
 2931W        W62192   2.804  30.570  14.294
 2932W        W62193   2.884  14.648  14.807
 2933W        W62194  32.940  26.117  14.852
 2934W        W62195  12.212  25.160   2.767
 2935W        W62196   0.881   9.719   3.358
 2936W        W62197   4.330  20.040  14.451
 2937W        W62198  11.653  12.852  14.481
 2938W        W62199  13.169   3.406  13.904
 2939W        W62200  21.163  14.098  14.913
 2940W        W62201   9.881  40.857  12.516
 2941W        W62202  25.608  36.367   2.851
 2942W        W62203  31.461  41.318  13.459
 2943W        W62204  10.142  28.540  13.412
 2944W        W62205   6.716  35.482   3.173
 2945W        W62206  13.681  42.009   2.877
 2946W        W62207  21.181  15.274  10.532
 2947W        W62208  37.554  18.063   2.182
 2948W        W62209  38.050  23.156   3.247
 2949W        W62210   1.809   8.842   0.388
 2950W        W62211   5.341  24.145   4.674
 2951W        W62212  29.481  18.163  12.516
 2952W        W62213  44.275  19.710   0.299
 2953W        W62214  29.447  31.648   4.313
 2954W        W62215  41.949  38.405  14.286
 2955W        W62216  29.599  23.183  11.576
 2956W        W62217   4.845  20.593   2.847
 2957W        W62218  18.241  29.564  11.050
 2958W        W62219   4.837   7.672  11.432
 2959W        W62220  22.245  10.289  14.863
 2960W        W62221  44.282   6.230   1.260
 2961W        W62222  14.757  33.990   4.181
 2962W        W62223  36.459  41.851   0.330
 2963W        W62224  31.608   0.261   2.413
 2964W        W62225  29.942   9.832  14.392
 2965W        W62226  11.155  40.906  10.426
 2966W        W62227  23.189  13.120  14.471
 2967W        W62228  43.284  20.076   2.391
 2968W        W62229  37.965  27.197   1.429
 2969W        W62230   0.807  33.622   0.828
 2970W        W62231  21.031  32.469   1.400
 2971W        W62232   0.340  12.257  10.599
 2972W        W62233  42.340  17.787   3.817
 2973W        W62234  25.976  11.707   4.711
 2974W        W62235  14.655  14.802  10.546
 2975W        W62236   1.795  19.174  13.830
 2976W        W62237  43.390  21.119   5.709
 2977W        W62238  37.398   8.312  13.006
 2978W        W62239  35.398  19.701  11.996
 2979W        W62240  43.907   5.249  10.898
 2980W        W62241  13.142  23.702  11.433
 2981W        W62242  44.933  33.474  10.137
 2982W        W62243  16.083  33.602  13.443
 2983W        W62244   6.694  36.541   0.292
 2984W        W62245  17.693  27.966   1.391
 2985W        W62246   3.238  18.553   2.735
 2986W        W62247  16.660  10.161  12.488
 2987W        W62248  32.041   3.897  13.920
 2988W        W62249  40.457  14.132   3.755
 2989W        W62250  40.035   0.479   0.277
 2990W        W62251   6.758  14.736  10.516
 2991W        W62252  43.836  13.313  14.444
 2992W        W62253  41.969  24.181   2.244
 2993W        W62254  30.647  22.523   0.731
 2994W        W62255  21.256  18.758   5.258
 2995W        W62256  34.606  26.489   2.331
 2996W        W62257   4.782   2.870   1.761
 2997W        W62258  23.645  27.123  11.402
 2998W        W62259   3.421  29.131   1.296
 2999W        W62260  26.077  35.400  10.480
 3000W        W62261  40.918  44.770  13.796
 3001W        W62262  38.545   6.221   1.792
 3002W        W62263  30.960  24.705  13.029
 3003W        W62264   6.333  23.051   2.282
 3004W        W62265  39.982  37.383  13.437
 3005W        W62266  41.814  30.471   1.925
 3006W        W62267  41.882  11.127  14.953
 3007W        W62268   8.743  36.079  12.415
 3008W        W62269  38.052  38.951   0.462
 3009W        W62270  13.697   8.219  11.098
 3010W        W62271  14.253  33.952   2.281
 3011W        W62272   3.932  14.637   3.863
 3012W        W62273  32.409  44.862   4.228
 3013W        W62274  17.090   5.821  14.760
 3014W        W62275  35.959  34.437   4.675
 3015W        W62276   8.822  29.165   4.606
 3016W        W62277   5.214  18.711  10.593
 3017W        W62278  15.222  18.687   0.774
 3018W        W62279   3.826  43.777  11.470
 3019W        W62280  37.497   2.834   1.735
 3020W        W62281   8.655  43.900   0.812
 3021W        W62282  30.561  20.543   2.860
 3022W        W62283  38.906  32.516   4.218
 3023W        W62284  32.004  34.524   1.447
 3024W        W62285  15.082  42.281   4.332
 3025W        W62286  23.075  11.340   0.814
 3026W        W62287  27.450   4.340   2.706
 3027W        W62288  11.247  15.114   3.313
 3028W        W62289  26.163  15.289   0.385
 3029W        W62290  15.636   2.270   0.347
 3030W        W62291  26.640  18.099   3.677
 3031W        W62292  25.983  17.234  11.968
 3032W        W62293  35.084  24.710  14.386
 3033W        W62294  17.579  28.078   1.820
 3034W        W62295   1.361  25.667  14.378
 3035W        W62296  32.472   1.756  10.924
 3036W        W62297  40.028  28.625   9.991
 3037W        W62298  15.224   3.428  11.538
 3038W        W62299  29.470  29.509  14.424
 3039W        W62300  22.500  37.362  11.897
 3040W        W62301  11.696  39.839  10.007
 3041W        W62302  20.545   2.373   0.920
 3042W        W62303  37.987  39.405   1.390
 3043W        W62304  36.963  35.481  11.074
 3044W        W62305  18.208  37.959   2.883
 3045W        W62306   5.434  41.842   3.386
 3046W        W62307  24.984  37.079  11.987
 3047W        W62308  23.016  26.978   2.669
 3048W        W62309  28.475  32.946   0.288
 3049W        W62310  42.426  38.458  12.023
 3050W        W62311  42.866  38.568   4.201
 3051W        W62312  17.255  11.777   2.780
 3052W        W62313  30.501  15.302   3.274
 3053W        W62314   4.435  12.213  10.930
 3054W        W62315  44.765  23.117  12.879
 3055W        W62316  29.566   3.942   2.264
 3056W        W62317  39.392   1.859   1.422
 3057W        W62318  24.015   6.286   0.306
 3058W        W62319   8.265  26.012  11.981
 3059W        W62320  23.551   1.419   0.782
 3060W        W62321  14.112  18.696  11.405
 3061W        W62322  19.187  31.081   2.893
 3062W        W62323  39.842  34.531  12.853
 3063W        W62324  27.962  18.289  13.865
 3064W        W62325  27.041  41.531  12.066
 3065W        W62326  12.352  34.442   4.702
 3066W        W62327  44.767  13.608   2.857
 3067W        W62328   1.770  19.657  12.009
 3068W        W62329  38.974  10.272   9.956
 3069W        W62330  35.006  36.461   1.708
 3070W        W62331  14.298   1.389   2.682
 3071W        W62332  16.617   4.821  14.020
 3072W        W62333  43.483  37.902   1.913
 3073W        W62334  27.058  13.716  11.015
 3074W        W62335  26.042   9.292   1.702
 3075W        W62336  18.686  41.002  12.556
 3076W        W62337  41.964  42.329   4.255
 3077W        W62338  18.789  25.681  12.363
 3078W        W62339   9.867  33.389  13.057
 3079W        W62340  28.656  34.969   1.762
 3080W        W62341   6.277   1.967   0.762
 3081W        W62342  44.261  10.318   2.181
 3082W        W62343   7.911  26.983   2.236
 3083W        W62344  17.209   6.211   0.731
 3084W        W62345  32.956  32.019  11.528
 3085W        W62346  18.550  33.041   4.704
 3086W        W62347  16.741  26.465   4.268
 3087W        W62348  31.078  40.041  14.914
 3088W        W62349  41.395  37.839  11.011
 3089W        W62350  28.120  17.153   2.194
 3090W        W62351  27.196  26.067  14.516
 3091W        W62352  16.311  31.552  11.957
 3092W        W62353  10.165  39.836  10.424
 3093W        W62354  23.029  35.597  10.978
 3094W        W62355  24.515  40.921  12.360
 3095W        W62356  42.385   9.660   4.261
 3096W        W62357  24.022  34.025   0.866
 3097W        W62358   0.893  17.190   2.832
 3098W        W62359  25.974  18.166  13.336
 3099W        W62360  27.990  42.917  11.065
 3100W        W62361  29.982  15.687   4.303
 3101W        W62362  32.011  15.660  12.081
 3102W        W62363  36.421  40.539  14.375
 3103W        W62364  19.732  32.545   4.774
 3104W        W62365  43.430  12.271   2.232
 3105W        W62366  12.295  33.551   2.394
 3106W        W62367  20.539  43.868  10.547
 3107W        W62368  41.491  11.343   3.820
 3108W        W62369   5.760  24.162   0.905
 3109W        W62370  27.951  22.597  12.534
 3110W        W62371   7.345  25.034  13.431
 3111W        W62372  38.363   9.723  14.451
 3112W        W62373   1.743  22.063   0.889
 3113W        W62374  24.601  36.374  11.500
 3114W        W62375   4.212  27.567  12.415
 3115W        W62376   8.805  18.254   1.752
 3116W        W62377  41.306  39.851  11.448
 3117W        W62378   0.388  27.475  11.407
 3118W        W62379  19.050  27.598  14.902
 3119W        W62380  17.796  27.019  13.360
 3120W        W62381  13.205   2.395   0.835
 3121W        W62382  31.566  12.178   2.345
 3122W        W62383  28.621  23.549  14.782
 3123W        W62384  20.106  17.104   2.665
 3124W        W62385  41.036  12.206  10.942
 3125W        W62386  16.801  25.067   1.928
 3126W        W62387  15.310  18.228  11.120
 3127W        W62388  33.395  19.114   2.777
 3128W        W62389   3.922  19.234   1.743
 3129W        W62390  42.378  22.659   2.279
 3130W        W62391  33.021   0.255   1.808
 3131W        W62392   8.880   6.831  10.051
 3132W        W62393  33.994   6.704  10.950
 3133W        W62394  21.539  34.601   4.679
 3134W        W62395  40.044  22.505  10.625
 3135W        W62396  39.389  10.219  10.479
 3136W        W62397  36.349  34.035  13.466
 3137W        W62398  19.184  28.167  12.412
 3138W        W62399  19.723   2.444  14.878
 3139W        W62400   9.253  29.111  11.490
 3140W        W62401  22.181   5.769   3.214
 3141W        W62402  30.449   6.204  13.360
 3142W        W62403  34.455   0.446  10.927
 3143W        W62404  16.640  23.026   1.329
 3144W        W62405  33.569  33.970   0.430
 3145W        W62406  40.806  32.510   1.750
 3146W        W62407   0.922  20.082  12.937
 3147W        W62408   4.750   3.860   0.883
 3148W        W62409  21.755  44.869   0.331
 3149W        W62410  21.163   0.747  11.571
 3150W        W62411  20.764   5.764  14.795
 3151W        W62412   0.395  40.543   2.727
 3152W        W62413   7.715  32.893  13.912
 3153W        W62414  12.340   9.224  14.404
 3154W        W62415  13.831  28.619   2.728
 3155W        W62416   5.274  30.913   2.295
 3156W        W62417  36.454  26.466   0.321
 3157W        W62418  21.208  44.874  13.865
 3158W        W62419  43.506  31.935   0.365
 3159W        W62420  25.157   4.265  14.800
 3160W        W62421   5.695  36.890   2.321
 3161W        W62422  28.528  35.003   1.370
 3162W        W62423   6.856  32.909  11.930
 3163W        W62424   2.965  28.662  10.527
 3164W        W62425  22.203   3.289   2.812
 3165W        W62426  44.776   6.732   3.276
 3166W        W62427  22.689  18.069  13.457
 3167W        W62428  21.642  24.713  13.351
 3168W        W62429  35.458  39.971  12.894
 3169W        W62430  13.725  40.498   2.717
 3170W        W62431  20.737  39.959  14.926
 3171W        W62432   0.987  27.579  11.491
 3172W        W62433  33.914  42.486   4.728
 3173W        W62434   4.917  18.266  11.934
 3174W        W62435  25.691  23.163  12.419
 3175W        W62436  17.744  41.393  14.849
 3176W        W62437  39.946   8.264  12.417
 3177W        W62438  18.768  27.053  10.410
 3178W        W62439  28.153  19.261   1.800
 3179W        W62440  16.654  16.622   0.962
 3180W        W62441  27.540  40.542  11.506
 3181W        W62442  11.665  27.977   5.313
 3182W        W62443   4.435   5.833   2.753
 3183W        W62444  37.939  22.160  11.389
 3184W        W62445  19.779  29.942   4.656
 3185W        W62446  35.518  20.726  14.277
 3186W        W62447  41.800  39.392  13.888
 3187W        W62448  22.564   4.791   1.775
 3188W        W62449  40.322  13.197  14.982
 3189W        W62450  23.638  36.428   0.820
 3190W        W62451  35.871   9.299  14.985
 3191W        W62452  16.253   2.431   4.826
 3192W        W62453   0.445  18.110  14.971
 3193W        W62454  25.563  33.428   0.906
 3194W        W62455  28.463   1.939  12.065
 3195W        W62456  35.479  15.322  12.851
 3196W        W62457  28.997  38.833  12.355
 3197W        W62458  16.263  12.179   1.803
 3198W        W62459  22.219  11.621   1.374
 3199W        W62460  30.925  22.190   4.349
 3200W        W62461   7.243  26.201   0.285
 3201W        W62462  44.963  18.630   0.852
 3202W        W62463  19.678  26.500  11.005
 3203W        W62464  13.707  32.578   0.386
 3204W        W62465   4.393  13.831   2.720
 3205W        W62466   8.882  26.541  14.762
 3206W        W62467  24.516  38.869   1.290
 3207W        W62468   2.416  35.595   0.256
 3208W        W62469  16.706   8.301   3.149
 3209W        W62470  13.115  29.619   2.418
 3210W        W62471  44.482  40.966  13.540
 3211W        W62472  30.115  21.531  12.862
 3212W        W62473   8.215   4.901  13.835
 3213W        W62474   6.707  23.208  13.374
 3214W        W62475  41.009  24.572  11.410
 3215W        W62476  33.436  18.104   4.293
 3216W        W62477   3.923   4.368  10.572
 3217W        W62478  28.656  30.530  13.952
 3218W        W62479  44.785   2.802   4.691
 3219W        W62480  19.758  27.974  13.991
 3220W        W62481  32.544  36.592  11.486
 3221W        W62482  35.491  39.022  13.429
 3222W        W62483  34.878  15.723  11.911
 3223W        W62484  29.124  17.222  14.385
 3224W        W62485  10.684  35.383  12.071
 3225W        W62486  19.048   2.748  14.762
 3226W        W62487  34.015  11.231   3.168
 3227W        W62488  28.632   7.719   1.346
 3228W        W62489  11.260  42.019  14.493
 3229W        W62490  38.969   8.849  10.505
 3230W        W62491   2.884  27.007   0.328
 3231W        W62492  41.980  17.070   2.861
 3232W        W62493  28.558  37.534   4.706
 3233W        W62494  42.484  25.688  14.481
 3234W        W62495   7.326  27.114   4.750
 3235W        W62496  20.611   0.257   4.755
 3236W        W62497   6.904   7.411  13.873
 3237W        W62498   6.421  41.411  13.985
 3238W        W62499  17.623  43.372  11.962
 3239W        W62500   6.343  21.662  12.350
 3240W        W62501  13.834  28.109  11.876
 3241W        W62502   4.215  27.181  10.475
 3242W        W62503  31.066   1.947   2.775
 3243W        W62504  12.216  33.084  11.956
 3244W        W62505  12.292  30.456   0.403
 3245W        W62506   2.342  23.563   1.312
 3246W        W62507  28.986   4.368  13.507
 3247W        W62508  19.623  42.506   3.184
 3248W        W62509   4.407  43.933  12.085
 3249W        W62510  37.498   9.782   5.204
 3250W        W62511  15.299  39.377   3.726
 3251W        W62512   5.712  35.400   0.272
 3252W        W62513  37.423  29.957  11.423
 3253W        W62514  12.295  40.389   2.392
 3254W        W62515  41.843  29.141   4.286
 3255W        W62516  32.511   5.814   0.425
 3256W        W62517  16.215   4.354   5.597
 3257W        W62518  39.916  39.393   1.867
 3258W        W62519  40.311  15.715  13.954
 3259W        W62520   5.355   7.327  13.845
 3260W        W62521  16.159  31.407   1.734
 3261W        W62522  39.516  23.240   3.633
 3262W        W62523  24.113  12.171  13.348
 3263W        W62524  25.094   3.946   9.489
 3264W        W62525   6.361  14.339   2.392
 3265W        W62526  17.239   6.206  14.016
 3266W        W62527  39.443  21.068  11.605
 3267W        W62528  25.567  34.424  13.365
 3268W        W62529  35.398  29.078  12.898
 3269W        W62530  17.706  23.610   4.667
 3270W        W62531  38.892  34.897   2.688
 3271W        W62532  39.832  31.937  12.538
 3272W        W62533  35.487  27.671  14.445
 3273W        W62534  40.396  32.020  12.872
 3274W        W62535  37.849  36.963   4.702
 3275W        W62536  12.238  23.120   0.790
 3276W        W62537  11.219  44.385  14.372
 3277W        W62538  29.952  28.653  13.352
 3278W        W62539  29.066  28.993  10.615
 3279W        W62540  18.095  19.624   2.681
 3280W        W62541  23.185   1.878   2.318
 3281W        W62542   6.375  28.441   4.174
 3282W        W62543   2.315   4.236   4.734
 3283W        W62544  23.075  23.641   3.852
 3284W        W62545   1.755   6.321  11.473
 3285W        W62546  11.653  17.238   4.765
 3286W        W62547  10.804   5.759   3.728
 3287W        W62548   8.340  36.863   4.805
 3288W        W62549  15.321   7.374   4.289
 3289W        W62550   5.693  29.941   0.728
 3290W        W62551  35.107  40.374   0.339
 3291W        W62552   2.420  28.951   1.824
 3292W        W62553  14.296  16.792  12.846
 3293W        W62554  27.516  40.033   3.713
 3294W        W62555   3.338   5.834   3.262
 3295W        W62556  30.015  29.540   1.725
 3296W        W62557   9.321   7.713  11.000
 3297W        W62558   7.777  23.017  12.923
 3298W        W62559  29.575  35.556  13.052
 3299W        W62560   3.358  43.358   1.880
 3300W        W62561  18.600  26.502  12.946
 3301W        W62562   2.949  26.516  14.965
 3302W        W62563  44.936  42.798   2.330
 3303W        W62564  42.800  15.620  10.570
 3304W        W62565   4.272  32.894  11.462
 3305W        W62566  27.650   7.691   1.387
 3306W        W62567  27.604  39.364  11.058
 3307W        W62568   3.799  19.558   2.282
 3308W        W62569  42.497   0.856   2.880
 3309W        W62570  34.032  28.556  13.340
 3310W        W62571  27.515  36.041  14.471
 3311W        W62572  10.692  23.709   4.179
 3312W        W62573  23.109  26.980  14.920
 3313W        W62574   1.774  40.392  13.867
 3314W        W62575  38.032   9.730   4.257
 3315W        W62576  39.389  38.068  10.952
 3316W        W62577  19.687  38.905  11.070
 3317W        W62578  14.147  27.527  11.438
 3318W        W62579   7.337  25.974  13.335
 3319W        W62580  20.236  30.028  11.505
 3320W        W62581   9.270   3.273   1.282
 3321W        W62582  19.250  42.798   2.814
 3322W        W62583  37.024   7.293  12.032
 3323W        W62584  27.560   1.337  12.927
 3324W        W62585  16.630   8.856   0.313
 3325W        W62586  19.177  26.481   1.240
 3326W        W62587  14.209  13.678   2.691
 3327W        W62588  23.640  10.279   0.739
 3328W        W62589   8.890   5.354  11.026
 3329W        W62590  41.892   6.306   3.287
 3330W        W62591  22.160  29.628   3.284
 3331W        W62592  17.295   8.292   5.137
 3332W        W62593  33.060   8.681   2.206
 3333W        W62594  29.002  37.850   3.719
 3334W        W62595  39.387  13.238  12.451
 3335W        W62596  40.448  11.782  12.095
 3336W        W62597  26.004  43.797  10.955
 3337W        W62598  44.396  37.886   4.819
 3338W        W62599   8.163  24.035   1.254
 3339W        W62600  33.067  18.632  12.518
 3340W        W62601  27.564  39.005   4.803
 3341W        W62602   8.358   5.878  10.909
 3342W        W62603  15.593   3.737   5.125
 3343W        W62604   4.855   0.790   4.277
 3344W        W62605  13.280  40.819   2.305
 3345W        W62606   4.373  15.682   4.719
 3346W        W62607  36.923   6.262   2.780
 3347W        W62608  34.034  32.957  12.570
 3348W        W62609   9.771  31.521  12.422
 3349W        W62610   4.922  13.308   1.223
 3350W        W62611  16.750  19.593   4.679
 3351W        W62612   3.396   1.340  11.612
 3352W        W62613   3.446   8.319   3.200
 3353W        W62614   8.844   3.785  12.431
 3354W        W62615  38.509  23.116  14.930
 3355W        W62616   3.261  39.065  10.567
 3356W        W62617  14.644  15.717  12.937
 3357W        W62618   8.275  21.133   2.402
 3358W        W62619  33.430  37.371  10.057
 3359W        W62620  14.718   7.370  12.824
 3360W        W62621  21.063   3.363   4.130
 3361W        W62622  24.106  18.235  12.882
 3362W        W62623   6.335   6.276   5.800
 3363W        W62624  23.561   5.929  12.376
 3364W        W62625   4.431  41.304  11.855
 3365W        W62626  14.817  28.986  14.375
 3366W        W62627  24.635  12.737   1.402
 3367W        W62628  40.403  41.937  12.997
 3368W        W62629   2.339  19.158   4.237
 3369W        W62630  29.644  14.276   4.124
 3370W        W62631  10.856  36.531   3.187
 3371W        W62632  37.572   4.730   3.239
 3372W        W62633   6.238  38.964   3.655
 3373W        W62634  36.489  23.209  12.046
 3374W        W62635  14.097  18.273  11.120
 3375W        W62636  24.975  31.647  14.011
 3376W        W62637  13.755  35.380  13.530
 3377W        W62638  24.521  44.775  11.410
 3378W        W62639   8.314  28.601  12.890
 3379W        W62640  21.224  37.397  11.933
 3380W        W62641   5.703  28.026  11.601
 3381W        W62642  39.809  10.730   2.231
 3382W        W62643   6.679  12.247   0.800
 3383W        W62644  25.198   0.401  14.843
 3384W        W62645   7.707  14.309  11.018
 3385W        W62646  39.436   6.792  10.967
 3386W        W62647  35.036   9.886   0.308
 3387W        W62648  44.364  29.152  10.631
 3388W        W62649  17.189  43.825  13.850
 3389W        W62650  16.086  20.545  10.126
 3390W        W62651  14.233   4.293   2.419
 3391W        W62652  26.571  17.590  14.991
 3392W        W62653  11.333  10.146  11.116
 3393W        W62654  34.609   9.374  10.136
 3394W        W62655  36.912  27.472   0.837
 3395W        W62656   7.820  29.592   0.730
 3396W        W62657  26.646  22.250  12.848
 3397W        W62658  36.969   4.338   1.272
 3398W        W62659  13.246  32.513   3.270
 3399W        W62660  26.550  31.620   0.308
 3400W        W62661  22.705  10.214  13.419
 3401W        W62662  44.386  10.311   0.756
 3402W        W62663   2.736  13.221   1.748
 3403W        W62664   1.784  28.594   3.199
 3404W        W62665  25.477  18.646  12.950
 3405W        W62666  35.434  36.871  14.922
 3406W        W62667  43.929  28.019   2.672
 3407W        W62668  17.158  16.608   4.181
 3408W        W62669  35.918  44.277   0.886
 3409W        W62670  24.201  36.540  13.376
 3410W        W62671  11.322   1.395  12.904
 3411W        W62672  43.991  27.093  10.600
 3412W        W62673  34.580  23.578   2.414
 3413W        W62674  22.040  23.119  11.870
 3414W        W62675  25.674  12.690   9.939
 3415W        W62676  37.878  43.479  11.443
 3416W        W62677  25.467  38.890   1.397
 3417W        W62678  42.897  21.064   3.822
 3418W        W62679  21.566  30.147   0.836
 3419W        W62680  26.595  35.403   2.780
 3420W        W62681  34.874   1.969   3.303
 3421W        W62682  25.476  25.070   9.943
 3422W        W62683  14.683  42.298   1.783
 3423W        W62684  41.306  44.980  10.991
 3424W        W62685  37.969  31.132  12.067
 3425W        W62686  11.185   2.362   1.728
 3426W        W62687   0.470  44.893  12.493
 3427W        W62688  19.243  40.846   3.799
 3428W        W62689  28.593  23.519   1.866
 3429W        W62690   2.782   9.213  10.912
 3430W        W62691  25.673  24.072   2.228
 3431W        W62692  28.002  17.151  10.508
 3432W        W62693  24.700  30.926  13.411
 3433W        W62694  21.048   1.960  14.884
 3434W        W62695  23.006  19.039  12.985
 3435W        W62696  18.250  12.359  14.288
 3436W        W62697  36.013  13.349  14.356
 3437W        W62698   4.366  35.569  12.093
 3438W        W62699  25.173  34.008  13.396
 3439W        W62700  19.724  32.466   0.315
 3440W        W62701  29.083  37.561  13.349
 3441W        W62702  32.547  10.223   0.764
 3442W        W62703  36.504  13.791  12.528
 3443W        W62704  13.611  24.612   3.236
 3444W        W62705  40.519  42.384   1.723
 3445W        W62706  23.699  30.479   9.645
 3446W        W62707  22.564  21.627   2.370
 3447W        W62708  14.824  19.615  14.006
 3448W        W62709  18.257  12.835  12.431
 3449W        W62710  26.016  40.963   1.417
 3450W        W62711  28.043  25.014  11.486
 3451W        W62712  31.646  23.707  14.016
 3452W        W62713  22.564  29.093   5.178
 3453W        W62714  43.334  42.935  13.004
 3454W        W62715  22.621  38.459   3.821
 3455W        W62716  30.503  41.462   3.294
 3456W        W62717  11.262   9.644   0.850
 3457W        W62718  32.002   4.780  11.000
 3458W        W62719   7.698  19.586   3.695
 3459W        W62720  41.293  43.375  11.901
 3460W        W62721  34.876  39.931   0.814
 3461W        W62722   7.842  35.506   0.847
 3462W        W62723  16.244  26.653   5.598
 3463W        W62724  19.195  24.702   3.681
 3464W        W62725  36.878  41.492  13.459
 3465W        W62726  21.148  28.678  10.908
 3466W        W62727  11.861  26.521   0.830
 3467W        W62728  35.914  34.520  11.929
 3468W        W62729  18.720   4.793  12.390
 3469W        W62730  35.983   9.243   1.405
 3470W        W62731  43.954  40.503  14.474
 3471W        W62732   2.397  33.390  11.097
 3472W        W62733  25.993   8.829  14.940
 3473W        W62734  37.541  12.808   4.628
 3474W        W62735  39.904  24.180  12.519
 3475W        W62736   7.760  16.755  13.398
 3476W        W62737  43.969  30.960   3.732
 3477W        W62738  38.069  37.541  13.060
 3478W        W62739  34.431  30.644   3.672
 3479W        W62740   2.789  14.124   1.451
 3480W        W62741   5.349  38.067  11.120
 3481W        W62742   3.816  39.863  12.021
 3482W        W62743  22.736  34.424   2.688
 3483W        W62744  17.178  29.576  12.968
 3484W        W62745  23.553  44.893   4.158
 3485W        W62746  42.823  34.506   2.771
 3486W        W62747  10.302  30.939  14.378
 3487W        W62748   0.764  19.089  11.006
 3488W        W62749   7.264  23.053   1.437
 3489W        W62750  36.874  10.720   0.369
 3490W        W62751  14.230  26.058   4.311
 3491W        W62752  24.518  19.222  11.536
 3492W        W62753  18.291   6.274   0.415
 3493W        W62754  14.134  36.965  12.055
 3494W        W62755  35.877  41.907   4.724
 3495W        W62756  20.246   8.344  14.020
 3496W        W62757  17.235  30.999  13.792
 3497W        W62758  10.695   3.945  12.438
 3498W        W62759  27.098  38.851   3.828
 3499W        W62760  31.145  11.167  12.346
 3500W        W62761   1.362  36.352  12.458
 3501W        W62762  19.723  23.543   3.305
 3502W        W62763  23.540  21.701  12.025
 3503W        W62764  24.975  14.141  13.003
 3504W        W62765  20.071  21.229  11.904
 3505W        W62766  39.001  40.416  13.487
 3506W        W62767  43.840  11.823  12.542
 3507W        W62768   1.776  41.481   0.404
 3508W        W62769   0.307  21.572   2.259
 3509W        W62770   4.840  35.000  11.493
 3510W        W62771  35.363  41.417   2.349
 3511W        W62772  22.595  35.427  14.852
 3512W        W62773  23.521  41.413  11.404
 3513W        W62774   6.390   1.263   3.806
 3514W        W62775  15.252  31.997   1.844
 3515W        W62776  36.482   2.728  13.998
 3516W        W62777  19.285  31.463   3.292
 3517W        W62778  24.061  33.515  10.076
 3518W        W62779   5.403  32.018  10.480
 3519W        W62780  41.843  30.105   2.375
 3520W        W62781   4.843  32.982  11.423
 3521W        W62782   6.810  30.523   3.154
 3522W        W62783  38.848  37.343  11.986
 3523W        W62784  20.102  44.297   2.190
 3524W        W62785  26.600  33.999   3.689
 3525W        W62786   0.974  31.934  13.935
 3526W        W62787  34.945  26.042  11.582
 3527W        W62788  39.055   3.725   4.279
 3528W        W62789  15.309  27.048  12.580
 3529W        W62790  14.834  23.996   3.242
 3530W        W62791   9.709  34.435  13.905
 3531W        W62792   9.269  34.424  14.786
 3532W        W62793   7.741   8.302  11.083
 3533W        W62794  24.515  36.491  10.593
 3534W        W62795   3.835  17.274  12.955
 3535W        W62796   1.953   9.371   2.236
 3536W        W62797  31.552  11.215  14.343
 3537W        W62798  43.876  23.238  14.276
 3538W        W62799   1.330   8.728  14.001
 3539W        W62800  24.204  21.182   0.779
 3540W        W62801   0.298  44.272  12.438
 3541W        W62802  36.467  22.219  10.612
 3542W        W62803  36.860  32.600   2.888
 3543W        W62804  44.414  22.028  11.856
 3544W        W62805   5.232  26.163   0.758
 3545W        W62806  29.490  18.680  10.991
 3546W        W62807  15.724  37.571  12.088
 3547W        W62808  37.022  40.438   4.145
 3548W        W62809  26.989  38.537   2.737
 3549W        W62810   2.431   5.419  12.394
 3550W        W62811  39.366   3.843   2.413
 3551W        W62812  38.567  37.480  13.000
 3552W        W62813  38.515  26.525   0.842
 3553W        W62814  33.030   2.967  11.950
 3554W        W62815  11.297  35.585   2.315
 3555W        W62816  10.820   8.753  13.995
 3556W        W62817  40.931  41.968   4.646
 3557W        W62818  29.461  38.490   4.262
 3558W        W62819  34.921   6.701   0.873
 3559W        W62820  40.515   5.365  11.099
 3560W        W62821  13.319  18.692  14.325
 3561W        W62822  21.737   5.281   0.887
 3562W        W62823  10.209  21.078  14.768
 3563W        W62824  24.691  20.684  10.404
 3564W        W62825  11.674  28.081  12.577
 3565W        W62826  23.592  15.279   1.344
 3566W        W62827  17.172  16.268   3.188
 3567W        W62828  10.875   5.869   0.728
 3568W        W62829   9.850  26.680   1.212
 3569W        W62830  40.000  26.523   5.108
 3570W        W62831  15.641  39.842  12.040
 3571W        W62832   1.320  16.574   4.241
 3572W        W62833  33.567  42.991   1.223
 3573W        W62834  24.649  16.585  10.993
 3574W        W62835  29.950   8.718  10.913
 3575W        W62836  24.015   1.358   1.400
 3576W        W62837  19.045  43.278  11.883
 3577W        W62838  14.746  26.517   1.333
 3578W        W62839  35.523  21.748  10.906
 3579W        W62840   2.720  29.571   2.390
 3580W        W62841  35.937  16.594   3.174
 3581W        W62842   1.339  14.277  10.420
 3582W        W62843   6.399  14.094   5.175
 3583W        W62844  44.488   0.775   3.866
 3584W        W62845  16.296  23.649  13.933
 3585W        W62846  42.014  37.489   0.779
 3586W        W62847  35.013  32.073  14.373
 3587W        W62848  18.140  13.624   2.665
 3588W        W62849  11.865  31.056   4.673
 3589W        W62850  38.360   1.953  14.293
 3590W        W62851   4.220  44.456  14.337
 3591W        W62852  35.981  11.246   0.883
 3592W        W62853   7.401   7.365  13.327
 3593W        W62854  42.861   8.405   1.926
 3594W        W62855  31.533  25.514  12.918
 3595W        W62856   2.295  42.460  14.461
 3596W        W62857  34.982  27.097  12.924
 3597W        W62858  40.336  25.495  13.824
 3598W        W62859  15.213   2.826  14.358
 3599W        W62860  35.435  39.006  14.791
 3600W        W62861  17.637   1.363   2.703
 3601W        W62862  18.115  21.258   2.263
 3602W        W62863   1.830  27.659   1.445
 3603W        W62864  18.761  33.415   1.800
 3604W        W62865   6.288  10.858  11.096
 3605W        W62866   0.314  18.742   0.263
 3606W        W62867  22.101  31.491   1.777
 3607W        W62868   6.715  39.382   1.369
 3608W        W62869  24.200   8.734   5.200
 3609W        W62870  41.298  32.551  13.862
 3610W        W62871  39.456  34.547   0.484
 3611W        W62872   9.843  11.696   3.754
 3612W        W62873   5.253   4.896   4.781
 3613W        W62874  14.686  21.180  13.872
 3614W        W62875  14.598  39.342  14.028
 3615W        W62876  35.007   4.257  14.026
 3616W        W62877   4.315   3.247  13.461
 3617W        W62878  22.104  44.780   1.373
 3618W        W62879  19.662  17.765  13.899
 3619W        W62880  31.996   3.766   4.349
 3620W        W62881   0.813  18.677  11.901
 3621W        W62882  44.959  36.496   1.826
 3622W        W62883  34.573  10.202   3.650
 3623W        W62884  27.075  28.996   4.277
 3624W        W62885  26.105  42.905  13.543
 3625W        W62886   4.367  14.220  11.103
 3626W        W62887  28.647  29.132   3.746
 3627W        W62888   9.876  16.585  13.353
 3628W        W62889  20.119  18.597   0.387
 3629W        W62890   2.847  25.645   2.773
 3630W        W62891  28.172   6.234   2.207
 3631W        W62892  36.401  10.332  11.884
 3632W        W62893  34.424  27.567  12.048
 3633W        W62894  30.101  23.195   2.357
 3634W        W62895  32.972  19.563  10.983
 3635W        W62896  43.862  43.892   1.273
 3636W        W62897  42.466  31.593   1.332
 3637W        W62898  13.748  20.623   4.685
 3638W        W62899   3.271  23.614   4.134
 3639W        W62900  36.036   4.859   2.276
 3640W        W62901  12.636  39.962   2.823
 3641W        W62902  15.151  17.067   0.320
 3642W        W62903   0.443  39.407  14.934
 3643W        W62904   0.898  35.440  12.424
 3644W        W62905   1.924  31.961   4.748
 3645W        W62906  23.138  21.138   3.269
 3646W        W62907  32.139  39.942   2.786
 3647W        W62908  20.575  23.541  13.923
 3648W        W62909   5.692  43.384   0.328
 3649W        W62910  36.354   9.726  13.972
 3650W        W62911  43.890  27.545  10.492
 3651W        W62912   3.353  42.942   4.678
 3652W        W62913  38.448  43.279  13.050
 3653W        W62914   9.252  20.102   0.420
 3654W        W62915  12.331  26.517   0.781
 3655W        W62916   4.911  38.400   1.418
 3656W        W62917  37.358  29.546  12.416
 3657W        W62918  14.817   0.474   4.725
 3658W        W62919   7.732  16.782   1.261
 3659W        W62920  37.369  23.205  13.983
 3660W        W62921  22.247   5.817  12.853
 3661W        W62922  13.247  34.964  14.003
 3662W        W62923   7.413   0.340   1.224
 3663W        W62924  18.679  40.999  10.575
 3664W        W62925  33.598  27.648  10.415
 3665W        W62926  44.429  44.457   0.958
 3666W        W62927  42.474  24.075   2.195
 3667W        W62928   9.811   8.242   3.168
 3668W        W62929  24.658  36.421   0.262
 3669W        W62930   3.315   3.219  14.842
 3670W        W62931   3.942  10.840   3.833
 3671W        W62932  29.622  10.249   2.184
 3672W        W62933  22.575  35.555  13.497
 3673W        W62934  10.334  26.208  12.002
 3674W        W62935  16.128   4.237  11.492
 3675W        W62936  20.758  14.629   4.686
 3676W        W62937  36.046  38.056  13.352
 3677W        W62938   7.222  21.627   3.303
 3678W        W62939  44.477  28.547   1.872
 3679W        W62940   6.777  16.645  13.321
 3680W        W62941  32.583   7.190  11.988
 3681W        W62942  13.218   0.870   1.917
 3682W        W62943   4.313  35.887   1.382
 3683W        W62944   3.421  12.168   4.117
 3684W        W62945  13.196   0.983  11.081
 3685W        W62946  43.408   0.926  12.978
 3686W        W62947  36.471  29.470   2.245
 3687W        W62948  22.130   8.692   3.174
 3688W        W62949  43.898  17.087   2.363
 3689W        W62950  19.273  28.516  14.816
 3690W        W62951   4.225   9.161   0.349
 3691W        W62952  32.994  12.165   1.266
 3692W        W62953  29.161  25.014   1.348
 3693W        W62954   7.789  44.269  11.423
 3694W        W62955  14.785   8.215   3.708
 3695W        W62956  36.412  37.904  13.952
 3696W        W62957   9.840   9.377  11.463
 3697W        W62958  17.733   4.894   5.287
 3698W        W62959   4.828  44.331   4.701
 3699W        W62960  14.763  40.804   4.136
 3700W        W62961  42.884   9.383  13.809
 3701W        W62962  12.311  14.244   0.811
 3702W        W62963  15.114  25.623  12.977
 3703W        W62964  26.983   5.267   4.175
 3704W        W62965   8.306  16.621  11.127
 3705W        W62966  39.991  43.013   0.779
 3706W        W62967  12.813  41.012   3.225
 3707W        W62968  18.658  38.475   0.769
 3708W        W62969  44.418  20.644  10.109
 3709W        W62970  19.621  23.003   0.895
 3710W        W62971  36.480  27.590   4.149
 3711W        W62972  26.619  28.453  10.476
 3712W        W62973   1.338  25.498  12.002
 3713W        W62974  41.969   8.739   0.283
 3714W        W62975  41.026  33.020   3.370
 3715W        W62976   4.360  37.482   3.813
 3716W        W62977  19.738  31.459  10.546
 3717W        W62978  35.488  26.513   1.811
 3718W        W62979  33.011  43.779   1.887
 3719W        W62980   0.314  22.739  12.365
 3720W        W62981   6.378  20.163   0.297
 3721W        W62982  34.961  16.759   0.787
 3722W        W62983  26.693  40.045   1.219
 3723W        W62984  12.161  30.511   4.306
 3724W        W62985  30.091  29.542  14.437
 3725W        W62986   0.413  18.104   1.811
 3726W        W62987  17.267  31.116  10.623
 3727W        W62988  43.365  28.022  12.352
 3728W        W62989  36.555   1.833   0.924
 3729W        W62990  14.151  32.920  10.574
 3730W        W62991   1.447  37.448  12.917
 3731W        W62992  24.518  16.659   4.317
 3732W        W62993  37.894  18.293  11.128
 3733W        W62994  19.136  31.489  10.998
 3734W        W62995  34.531  41.322   2.734
 3735W        W62996  13.156  10.165  12.899
 3736W        W62997  13.683  26.032   3.186
 3737W        W62998   1.277  19.541   4.304
 3738W        W62999  30.976   6.852  13.906
 3739W        W63000  26.568  42.798  10.054
 3740W        W63001   4.714  20.599  11.940
 3741W        W63002  30.605  23.084  13.926
 3742W        W63003  12.851  35.459  13.984
 3743W        W63004  37.934  38.510   1.898
 3744W        W63005   3.860  38.001   1.357
 3745W        W63006  31.006  16.276  10.939
 3746W        W63007   6.886  25.689  12.017
 3747W        W63008   8.168   9.188  12.883
 3748W        W63009  10.653  40.521   0.428
 3749W        W63010   6.856  12.761   2.667
 3750W        W63011  27.640  19.062  13.812
 3751W        W63012  16.115  40.020   3.828
 3752W        W63013  43.912  30.631   2.665
 3753W        W63014  44.917  17.108   3.798
 3754W        W63015  26.692  21.036   5.116
 3755W        W63016  22.578  10.372   5.153
 3756W        W63017  43.465  30.624  14.430
 3757W        W63018  36.032   0.379   4.286
 3758W        W63019  33.958  31.644  12.527
 3759W        W63020  36.055   7.889  13.409
 3760W        W63021  24.038  25.099   2.418
 3761W        W63022  25.612  21.137  14.491
 3762W        W63023  34.973   7.849   3.260
 3763W        W63024  20.732  32.072  13.956
 3764W        W63025  21.205  21.185   0.860
 3765W        W63026   5.204  17.123  10.557
 3766W        W63027  30.483  33.440   0.909
 3767W        W63028  25.700   5.334   4.815
 3768W        W63029  12.664  21.606  12.050
 3769W        W63030  41.037  30.931   4.767
 3770W        W63031  12.235  36.530  10.495
 3771W        W63032   9.852   8.741  13.511
 3772W        W63033  18.071  32.610  13.026
 3773W        W63034   1.944  10.361   2.239
 3774W        W63035  42.779   0.823  14.283
 3775W        W63036  24.014  33.510  12.832
 3776W        W63037   1.830  36.962   0.274
 3777W        W63038  38.335  14.795  12.489
 3778W        W63039  24.662   5.266  13.476
 3779W        W63040  30.623  17.117   2.783
 3780W        W63041   2.780  17.574   1.400
 3781W        W63042  30.114  32.589   0.246
 3782W        W63043   9.176  41.998  11.457
 3783W        W63044  20.669  24.550  14.983
 3784W        W63045  25.138  13.706  10.613
 3785W        W63046  35.447   2.228   2.361
 3786W        W63047  19.170  43.397  10.594
 3787W        W63048  32.633  29.151   4.310
 3788W        W63049  42.978  16.571   0.887
 3789W        W63050  38.497  13.267  11.889
 3790W        W63051   2.378  22.676   4.147
 3791W        W63052   1.916  44.773  13.812
 3792W        W63053  31.516  25.619  10.503
 3793W        W63054  29.990  29.066   4.184
 3794W        W63055  17.283   6.910   1.269
 3795W        W63056  31.494  44.927  11.033
 3796W        W63057  43.441  39.553  14.857
 3797W        W63058  34.026  32.438   4.810
 3798W        W63059  35.073  35.976   5.195
 3799W        W63060  10.800  18.592  14.307
 3800W        W63061  34.875   7.394  13.927
 3801W        W63062  39.897   1.292   2.213
 3802W        W63063  23.132  15.634  11.915
 3803W        W63064  22.601  26.475   3.814
 3804W        W63065  23.013  28.087   3.792
 3805W        W63066  43.431   4.295   3.221
 3806W        W63067  44.368  41.428  13.467
 3807W        W63068  28.154   0.843   5.236
 3808W        W63069  35.904   7.748  10.044
 3809W        W63070   4.366  15.719   3.175
 3810W        W63071  42.314  43.332  11.982
 3811W        W63072  13.217  20.754   2.708
 3812W        W63073  42.940  27.490   3.215
 3813W        W63074   6.386  20.272   1.389
 3814W        W63075  18.710  38.940   2.830
 3815W        W63076   0.905   1.246   4.347
 3816W        W63077  13.148  42.292  10.606
 3817W        W63078  24.655  41.927  13.366
 3818W        W63079  14.325  18.135  11.925
 3819W        W63080  31.481  20.631  12.068
 3820W        W63081  25.672   8.185  11.995
 3821W        W63082   4.292  34.472   1.848
 3822W        W63083  31.010   1.338  12.884
 3823W        W63084  17.768  14.597   3.364
 3824W        W63085   2.914  15.804   3.680
 3825W        W63086  36.405   1.755   0.468
 3826W        W63087   6.195  12.181  12.910
 3827W        W63088  22.697  25.974   0.360
 3828W        W63089  38.557  16.289   1.255
 3829W        W63090   6.315  17.074   0.931
 3830W        W63091  41.501  38.411  11.533
 3831W        W63092  36.086  12.151  13.960
 3832W        W63093  13.121   5.216  11.449
 3833W        W63094   2.832   5.799  14.913
 3834W        W63095  42.823  12.296  12.964
 3835W        W63096  21.591  29.651  10.483
 3836W        W63097  19.754  40.364  14.370
 3837W        W63098  26.984  17.268  12.950
 3838W        W63099  10.706  26.093  13.981
 3839W        W63100  12.259  40.903  12.506
 3840W        W63101  35.538  19.718   4.209
 3841W        W63102  40.824  43.786   1.355
 3842W        W63103  25.651   2.921  12.407
 3843W        W63104  11.234  35.921   0.806
 3844W        W63105  27.650   9.766  14.791
 3845W        W63106   7.689  43.826  12.075
 3846W        W63107  14.620  31.404  10.468
 3847W        W63108  34.496  42.005  11.930
 3848W        W63109  14.819   5.302  11.552
 3849W        W63110  26.573   8.241  14.353
 3850W        W63111  32.532  44.327   4.142
 3851W        W63112  12.256  21.642  13.029
 3852W        W63113  40.379  16.246   3.146
 3853W        W63114  32.983  22.619  13.420
 3854W        W63115   5.353  24.723  13.442
 3855W        W63116  20.541   2.726   3.753
 3856W        W63117  43.864   5.369  14.475
 3857W        W63118  40.884   3.836   4.322
 3858W        W63119  32.969  10.270   3.294
 3859W        W63120   5.802   2.854  12.567
 3860W        W63121  41.478  30.025  13.977
 3861W        W63122  43.314  22.089  13.803
 3862W        W63123  10.812   4.935  10.149
 3863W        W63124  36.431  20.206   3.776
 3864W        W63125  43.904  38.545  10.147
 3865W        W63126  18.132   7.852  11.578
 3866W        W63127  12.152  30.422   1.295
 3867W        W63128  30.029  36.408  13.986
 3868W        W63129  41.335  20.250  13.805
 3869W        W63130  29.446  33.624  10.503
 3870W        W63131  36.471   7.707  13.956
 3871W        W63132  27.543  27.181  11.573
 3872W        W63133  23.009  29.436  11.482
 3873W        W63134  17.243  16.709  11.018
 3874W        W63135   6.863  12.291   0.369
 3875W        W63136  18.618  23.049  13.451
 3876W        W63137  42.367  17.713  14.022
 3877W        W63138  35.523  25.595  12.488
 3878W        W63139   1.396  39.920   4.269
 3879W        W63140  19.152  14.104  10.431
 3880W        W63141  32.948  25.699   1.338
 3881W        W63142  14.225  38.072   2.666
 3882W        W63143  25.156  10.671   2.887
 3883W        W63144  31.058  19.093  14.331
 3884W        W63145  38.004  37.350   1.875
 3885W        W63146  24.563  24.691  14.382
 3886W        W63147  37.856   8.679   4.792
 3887W        W63148  28.589   2.450   1.845
 3888W        W63149  12.320  23.095  13.381
 3889W        W63150  19.193  43.889   1.733
 3890W        W63151  28.451  22.590   0.250
 3891W        W63152  15.635  11.273  14.289
 3892W        W63153  30.001  44.856  11.991
 3893W        W63154  19.576  22.130  13.003
 3894W        W63155  26.481  37.048  12.568
 3895W        W63156  16.750  22.188   2.289
 3896W        W63157   2.348  32.407  12.068
 3897W        W63158  16.660   4.398  14.426
 3898W        W63159  25.587  13.792  12.522
 3899W        W63160  30.992   0.795   3.264
 3900W        W63161  27.650  34.500  12.507
 3901W        W63162  40.387  30.028   0.447
 3902W        W63163  10.309  42.966   9.980
 3903W        W63164   8.269  35.899  14.314
 3904W        W63165  28.462  15.600  11.105
 3905W        W63166  31.141  12.234   4.213
 3906W        W63167  34.475  10.209   5.278
 3907W        W63168  20.621  12.330   0.962
 3908W        W63169  35.911  29.445  14.893
 3909W        W63170   7.803  36.468   0.945
 3910W        W63171   9.386  40.358  11.908
 3911W        W63172  38.843   5.379  13.023
 3912W        W63173  36.425  21.558   3.827
 3913W        W63174  23.061  39.013   3.661
 3914W        W63175  37.894  18.209  11.481
 3915W        W63176   2.292  24.482  11.881
 3916W        W63177  33.509  30.124  14.428
 3917W        W63178  41.535  26.686  11.918
 3918W        W63179  44.314  18.275   5.180
 3919W        W63180  22.167  23.070   2.791
 3920W        W63181  41.363  28.492   2.383
 3921W        W63182  17.200   1.420   2.903
 3922W        W63183  27.113   6.182   1.810
 3923W        W63184  42.976  42.421   2.749
 3924W        W63185  11.132   2.836   4.350
 3925W        W63186  43.361  29.622  10.958
 3926W        W63187  11.771   5.209  14.363
 3927W        W63188  18.647  26.061   2.896
 3928W        W63189  39.509  35.855   3.316
 3929W        W63190  13.727  20.570  10.963
 3930W        W63191  13.206  35.397   1.915
 3931W        W63192  29.115  29.664  13.382
 3932W        W63193  15.761  30.037   9.489
 3933W        W63194   8.299   6.234   9.990
 3934W        W63195  17.187  15.608  11.508
 3935W        W63196  40.478  40.937   2.221
 3936W        W63197  30.962   3.724  13.532
 3937W        W63198   2.358  26.994   3.297
 3938W        W63199  29.106   4.786  13.948
 3939W        W63200  20.697  19.736  10.601
 3940W        W63201  13.713   9.159   1.784
 3941W        W63202   7.800  39.911  12.938
 3942W        W63203  32.426  17.227   2.214
 3943W        W63204  37.451   5.326   1.815
 3944W        W63205  34.866  14.302   3.221
 3945W        W63206  32.885   1.820   4.730
 3946W        W63207  27.555  14.673  14.847
 3947W        W63208  24.633   1.424   0.285
 3948W        W63209  35.924   9.701  10.927
 3949W        W63210  32.049  12.831  10.116
 3950W        W63211   2.790  16.092   0.416
 3951W        W63212  25.569  23.074   3.372
 3952W        W63213  36.978  27.545   4.788
 3953W        W63214  29.460  28.555  14.957
 3954W        W63215  19.637  31.560   3.330
 3955W        W63216  42.387   9.717   3.343
 3956W        W63217  14.302  29.423   2.376
 3957W        W63218  17.093   2.768   4.143
 3958W        W63219  22.662  18.571   1.278
 3959W        W63220  40.051  34.947  14.472
 3960W        W63221  16.288  11.710  13.433
 3961W        W63222  40.411   9.888  11.555
 3962W        W63223  22.627  29.551  13.946
 3963W        W63224  44.342  40.482   2.293
 3964W        W63225  12.765  14.652  12.364
 3965W        W63226  31.072  38.457   3.180
 3966W        W63227   4.438   6.853  12.826
 3967W        W63228   8.762  31.928   4.130
 3968W        W63229  25.542  21.535  14.467
 3969W        W63230  34.372  22.590   0.480
 3970W        W63231   5.693   6.774   4.794
 3971W        W63232  41.930   8.309  11.991
 3972W        W63233  41.814  38.848   2.325
 3973W        W63234  28.084  23.068  12.849
 3974W        W63235  10.270   3.783   4.806
 3975W        W63236  20.098  28.168   3.796
 3976W        W63237  31.013   1.318  13.878
 3977W        W63238  26.489  30.049  13.524
 3978W        W63239   0.790  23.501   3.828
 3979W        W63240  12.250  26.578  14.400
 3980W        W63241  24.540   3.231   1.698
 3981W        W63242  12.121  13.349  11.872
 3982W        W63243  25.977  20.269  11.024
 3983W        W63244  37.995   4.213   4.193
 3984W        W63245  39.524  17.081   2.317
 3985W        W63246  43.348  42.021   0.308
 3986W        W63247  25.658  34.409   1.289
 3987W        W63248  35.043   7.900   1.839
 3988W        W63249   2.319  24.586  11.567
 3989W        W63250  43.844  33.429  13.845
 3990W        W63251  42.491  10.724   4.195
 3991W        W63252   6.200  40.851  11.894
 3992W        W63253  20.729  29.158  13.953
 3993W        W63254  39.512  13.130   4.151
 3994W        W63255  24.141   9.853   2.811
 3995W        W63256  23.020   4.320   3.189
 3996W        W63257   1.773  28.455   2.412
 3997W        W63258  38.860  41.861   0.807
 3998W        W63259  35.108  42.026  11.102
 3999W        W63260  30.651  14.684   4.646
 4000W        W63261  28.110  27.054  14.993
 4001W        W63262   5.838  44.003  12.961
 4002W        W63263  34.951   6.301   3.207
 4003W        W63264  22.021  25.550  12.065
 4004W        W63265   5.361  29.161   3.310
 4005W        W63266   9.784  40.965  12.033
 4006W        W63267   4.710  37.057   3.336
 4007W        W63268  28.459  42.016  13.821
 4008W        W63269  29.091  35.968   0.808
 4009W        W63270   2.407  44.461  12.386
 4010W        W63271  26.971   7.878   3.851
 4011W        W63272  42.475  10.212  11.496
 4012W        W63273   3.315  18.579  14.920
 4013W        W63274  31.115  42.467   1.363
 4014W        W63275   9.224  17.576   3.154
 4015W        W63276  25.593  15.652  12.536
 4016W        W63277  26.621  18.569   2.192
 4017W        W63278  25.189  26.993  13.541
 4018W        W63279   4.265  37.551  10.473
 4019W        W63280  29.068   2.907   2.810
 4020W        W63281  21.668  33.984  14.893
 4021W        W63282  14.143  43.942  14.498
 4022W        W63283  10.779  42.860  10.130
 4023W        W63284  25.647  15.219   0.385
 4024W        W63285  24.225  39.837   3.364
 4025W        W63286  33.488   1.281  10.890
 4026W        W63287   7.697  10.339   0.483
 4027W        W63288  12.715  43.372  14.473
 4028W        W63289  38.931  31.504  14.373
 4029W        W63290  37.482  24.172  11.865
 4030W        W63291  44.849  18.156  11.858
 4031W        W63292  30.564   3.262   1.710
 4032W        W63293   8.878  23.555   0.254
 4033W        W63294  14.714  13.321  12.471
 4034W        W63295  33.945   4.449   2.294
 4035W        W63296  31.615  14.773   2.343
 4036W        W63297   9.332  26.091  11.900
 4037W        W63298  37.038  35.094  13.493
 4038W        W63299  32.935  16.188  11.889
 4039W        W63300  23.670  33.991   4.350
 4040W        W63301  10.197  24.502  11.410
 4041W        W63302   3.273  40.848   3.645
 4042W        W63303  28.638   2.817  14.331
 4043W        W63304   9.202  30.457   2.253
 4044W        W63305  29.147  43.483  14.461
 4045W        W63306  19.233  28.163   1.278
 4046W        W63307   0.817  30.119  10.505
 4047W        W63308  16.096  29.611   5.588
 4048W        W63309   7.747  21.681  14.287
 4049W        W63310  33.513  15.714  13.864
 4050W        W63311  32.596  42.794   1.734
 4051W        W63312   0.773   3.359  14.917
 4052W        W63313  30.428   2.469  13.420
 4053W        W63314   6.396   3.336   1.343
 4054W        W63315   0.955  28.031  12.039
 4055W        W63316  22.585  11.682   0.781
 4056W        W63317   1.441  30.127   3.284
 4057W        W63318  25.713  43.322   0.958
 4058W        W63319  29.442  33.382  11.997
 4059W        W63320  17.266  40.449   3.869
 4060W        W63321  26.158  32.137  13.794
 4061W        W63322  11.697  10.208  11.857
 4062W        W63323   0.404  38.338  10.920
 4063W        W63324   5.387  35.980   0.385
 4064W        W63325   4.251  37.397  13.359
 4065W        W63326   5.745  15.649  10.973
 4066W        W63327  33.539  30.078   2.210
 4067W        W63328  13.631   3.847   2.187
 4068W        W63329   5.298  43.976   1.245
 4069W        W63330  43.424   0.745   1.722
 4070W        W63331   8.358  36.069  12.903
 4071W        W63332  13.675  13.691  11.388
 4072W        W63333   4.267  31.924  13.424
 4073W        W63334  26.534  19.262   4.706
 4074W        W63335  17.292   6.324   1.835
 4075W        W63336  27.527   1.809   3.183
 4076W        W63337  30.425  20.038  12.070
 4077W        W63338   0.916  42.933  11.119
 4078W        W63339  34.062  23.568   4.688
 4079W        W63340   6.737  14.267  14.828
 4080W        W63341   4.778   2.802   0.950
 4081W        W63342  13.692  24.562   3.830
 4082W        W63343   1.902  17.651   3.362
 4083W        W63344  15.647  33.621  13.510
 4084W        W63345  42.922  42.843   3.644
 4085W        W63346  22.546  23.646  14.807
 4086W        W63347  21.634  35.599   4.830
 4087W        W63348  28.989  14.175  11.009
 4088W        W63349  43.801  12.126   2.382
 4089W        W63350  11.622  44.398   3.763
 4090W        W63351  28.110  31.625  14.904
 4091W        W63352  40.355  32.453   2.720
 4092W        W63353  15.219  15.768  12.899
 4093W        W63354  12.782  23.503  14.339
 4094W        W63355  15.670  36.555   5.282
 4095W        W63356  14.120   9.218   5.163
 4096W        W63357  44.780  37.904   3.307
 4097W        W63358  24.712   4.383   1.218
 4098W        W63359  22.995  42.777   1.303
 4099W        W63360   3.760   0.364  13.889
 4100W        W63361   5.375  14.201   2.892
 4101W        W63362  44.452  24.178   4.618
 4102W        W63363  16.209  28.036  13.819
 4103W        W63364  18.614  11.260   2.703
 4104W        W63365   1.918  25.101  12.854
 4105W        W63366  23.191  40.434   9.939
 4106W        W63367  34.087   1.303  11.005
 4107W        W63368   6.310  36.917   4.162
 4108W        W63369  44.340  43.284   1.743
 4109W        W63370   1.863  21.663   3.641
 4110W        W63371  23.134  24.188  12.359
 4111W        W63372  31.064  37.921   3.773
 4112W        W63373  32.497  22.013   3.752
 4113W        W63374  41.527  29.518   0.343
 4114W        W63375  31.637  17.709   0.757
 4115W        W63376  39.872  27.191  13.887
 4116W        W63377  29.157  14.268  13.941
 4117W        W63378  25.563   0.899   5.771
 4118W        W63379  34.472  18.152   0.784
 4119W        W63380  35.874  26.009   0.734
 4120W        W63381  13.285  11.262  10.965
 4121W        W63382  43.311  12.622  13.412
 4122W        W63383  43.798   0.440  12.480
 4123W        W63384  38.839  12.326  12.078
 4124W        W63385  24.068  39.404  11.952
 4125W        W63386   0.450  17.689   4.354
 4126W        W63387  44.766   2.345   4.709
 4127W        W63388   7.760   0.799  13.466
 4128W        W63389  24.611  22.627   4.620
 4129W        W63390  37.485  34.372   5.263
 4130W        W63391  32.071  32.025  12.414
 4131W        W63392  30.015  26.625   2.806
 4132W        W63393  42.477  42.938   2.750
 4133W        W63394  37.842   5.826   2.868
 4134W        W63395  12.175  40.817  12.856
 4135W        W63396  39.318  26.533   2.837
 4136W        W63397   2.728  32.528  13.450
 4137W        W63398   5.754  40.903  13.014
 4138W        W63399  21.560   1.759   2.351
 4139W        W63400  27.667  11.283  10.583
 4140W        W63401  30.986  43.417  13.923
 4141W        W63402   3.785  23.101  11.421
 4142W        W63403  39.863   5.291   0.839
 4143W        W63404  15.296  16.169   4.726
 4144W        W63405  25.507  31.905  12.552
 4145W        W63406  20.049  21.558   1.805
 4146W        W63407   7.292   5.399  12.020
 4147W        W63408  31.096  13.297  11.036
 4148W        W63409  37.371  23.050  12.958
 4149W        W63410   0.316  27.016  10.494
 4150W        W63411  33.521  43.288  12.521
 4151W        W63412  30.658  28.085  11.012
 4152W        W63413  16.146  13.767  14.926
 4153W        W63414  10.326  37.046   1.279
 4154W        W63415  30.047  33.458   0.281
 4155W        W63416  11.372  24.073   4.304
 4156W        W63417  16.123  32.089  13.873
 4157W        W63418  26.674   3.459   0.346
 4158W        W63419  10.740  10.652   4.777
 4159W        W63420   4.365  23.115  12.499
 4160W        W63421  37.544   7.844  10.455
 4161W        W63422  35.954  20.733   2.211
 4162W        W63423  17.764  40.992   2.287
 4163W        W63424  24.725  12.240  11.022
 4164W        W63425   3.394  14.639   1.863
 4165W        W63426  26.134   4.917   0.925
 4166W        W63427  18.159  24.570   0.864
 4167W        W63428  13.261   3.755  12.890
 4168W        W63429  25.103  20.204   1.772
 4169W        W63430   9.824  12.195   1.793
 4170W        W63431  39.871   2.242   1.863
 4171W        W63432  12.339   4.379  11.898
 4172W        W63433  16.602  31.115   1.424
 4173W        W63434  17.767  21.647   4.679
 4174W        W63435  43.451   9.184  11.993
 4175W        W63436   6.922   3.779   1.274
 4176W        W63437   6.734  10.211  12.518
 4177W        W63438   8.280  22.741  12.449
 4178W        W63439  36.397  11.777   2.185
 4179W        W63440  24.522   0.784  10.589
 4180W        W63441  42.496  10.666   0.261
 4181W        W63442  36.375  35.518  12.367
 4182W        W63443  22.129  17.299  12.370
 4183W        W63444   7.673  34.581   1.260
 4184W        W63445  40.897  31.114  13.900
 4185W        W63446   6.755   3.920  14.881
 4186W        W63447  34.407  15.599   4.123
 4187W        W63448  28.167  32.475   2.363
 4188W        W63449  18.067   1.908  14.014
 4189W        W63450  30.612   1.801   4.798
 4190W        W63451  23.229  30.993   1.344
 4191W        W63452  21.658  18.567   9.448
 4192W        W63453  44.316  29.468   3.730
 4193W        W63454  44.389   7.272  12.879
 4194W        W63455  23.545  26.466  12.427
 4195W        W63456   5.694  44.461   0.787
 4196W        W63457  15.648  38.949  11.545
 4197W        W63458  22.100  39.917  11.575
 4198W        W63459  28.534  20.762   1.245
 4199W        W63460  39.979  30.107  13.804
 4200W        W63461  20.056   6.339  10.511
 4201W        W63462  17.091  38.519   4.237
 4202W        W63463  30.921  39.959  10.068
 4203W        W63464  18.785  10.190  10.034
 4204W        W63465  31.047  26.561  13.312
 4205W        W63466  16.630  16.617   4.202
 4206W        W63467  17.133   6.876   0.873
 4207W        W63468  24.546   8.659   2.368
 4208W        W63469  39.375  34.997  12.056
 4209W        W63470  19.117  29.482   3.183
 4210W        W63471   3.417  19.652   2.301
 4211W        W63472  15.162  23.494   4.642
 4212W        W63473  30.923   8.763   2.357
 4213W        W63474  17.210  23.663  11.586
 4214W        W63475  32.475   3.862  13.872
 4215W        W63476  41.295  17.172   2.221
 4216W        W63477  36.385  23.208   0.937
 4217W        W63478  37.945  36.563  10.465
 4218W        W63479  20.221  43.295   2.413
 4219W        W63480  41.341  41.297   2.243
 4220W        W63481  12.729   5.193   5.146
 4221W        W63482  30.918  40.973   1.695
 4222W        W63483  37.374  15.771   1.364
 4223W        W63484   1.818   6.290  11.119
 4224W        W63485   5.415  16.281   1.332
 4225W        W63486  42.496  32.408   0.788
 4226W        W63487  27.470  11.193  12.868
 4227W        W63488  29.087  24.663   0.478
 4228W        W63489  30.533   2.760   3.156
 4229W        W63490  25.081   4.448   2.181
 4230W        W63491  13.825  20.179   0.321
 4231W        W63492   6.327   3.456  14.494
 4232W        W63493  21.591  22.090  12.546
 4233W        W63494   3.364  44.769   1.375
 4234W        W63495  41.967  10.817   1.931
 4235W        W63496  36.091  37.373  11.609
 4236W        W63497  21.254   5.763  14.994
 4237W        W63498  44.006  23.198   1.810
 4238W        W63499  28.493  41.835   2.869
 4239W        W63500  30.031  12.669   4.317
 4240W        W63501  39.038   6.412  14.863
 4241W        W63502   1.977  11.326  13.950
 4242W        W63503  38.565  23.150  14.328
 4243W        W63504  27.481  12.733   3.163
 4244W        W63505  19.079  40.448   4.265
 4245W        W63506  40.470  27.473  14.799
 4246W        W63507  18.547   5.218   3.335
 4247W        W63508  36.911   8.191   3.729
 4248W        W63509   5.355  44.758   4.708
 4249W        W63510  10.300   0.446  13.981
 4250W        W63511  19.240  37.027   2.840
 4251W        W63512   4.716  31.628  14.309
 4252W        W63513  37.456  13.215  11.527
 4253W        W63514  14.175  36.422   0.882
 4254W        W63515  24.499  20.073  14.867
 4255W        W63516   3.404  38.557  12.035
 4256W        W63517  33.491   2.230  11.477
 4257W        W63518  19.102  42.294   0.866
 4258W        W63519   0.840  31.541  12.529
 4259W        W63520   6.855  21.672   1.713
 4260W        W63521  39.415  18.185   2.837
 4261W        W63522  23.551  28.502   0.328
 4262W        W63523  36.093  20.672   4.308
 4263W        W63524  23.523  25.598  12.048
 4264W        W63525  31.004   7.798  11.861
 4265W        W63526  32.564  13.670   4.311
 4266W        W63527   2.432   1.445   2.379
 4267W        W63528  44.487  25.980   1.750
 4268W        W63529   7.853   8.694  13.448
 4269W        W63530  31.053  11.801   2.258
 4270W        W63531  14.615  40.803  14.316
 4271W        W63532   5.333   3.764  11.938
 4272W        W63533  16.585  31.100   0.843
 4273W        W63534  41.010  29.924   5.163
 4274W        W63535  19.632  30.004   2.814
 4275W        W63536  31.584  27.611  10.996
 4276W        W63537   9.693  43.407  12.025
 4277W        W63538  11.625  24.032  13.018
 4278W        W63539   6.318  25.041  11.020
 4279W        W63540  38.896  27.590  10.478
 4280W        W63541   6.818  37.520  13.999
 4281W        W63542  31.608  19.717  11.914
 4282W        W63543   2.369  14.107  10.113
 4283W        W63544   5.888  42.317  14.763
 4284W        W63545  38.894  17.301   0.317
 4285W        W63546  34.940  11.179   9.997
 4286W        W63547  31.993  27.183  10.614
 4287W        W63548  32.061  25.012  14.370
 4288W        W63549   6.315  13.841  14.331
 4289W        W63550   1.246  17.259  11.914
 4290W        W63551  39.014   0.984  12.443
 4291W        W63552  30.633   9.381  13.544
 4292W        W63553  44.820   4.235   4.117
 4293W        W63554  16.192  13.767  10.530
 4294W        W63555  41.929  19.560  14.028
 4295W        W63556  19.654  27.502  10.520
 4296W        W63557  30.534  28.641   4.191
 4297W        W63558   6.785  37.420  11.414
 4298W        W63559  25.552  35.393   1.252
 4299W        W63560  18.665  26.079  10.916
 4300W        W63561   6.185  44.268   0.745
 4301W        W63562  30.980  39.533  12.375
 4302W        W63563  11.859  37.087  11.113
 4303W        W63564  24.023  19.690   9.971
 4304W        W63565  32.599  16.668  14.851
 4305W        W63566   9.154  20.134  10.412
 4306W        W63567  19.777  42.383   3.645
 4307W        W63568  44.350  22.724   3.276
 4308W        W63569  13.824   8.743  13.965
 4309W        W63570   7.315  29.595   0.908
 4310W        W63571  43.394  27.045  11.881
 4311W        W63572  38.068   5.360   2.733
 4312W        W63573  39.524  24.608   1.903
 4313W        W63574  19.694  19.609   0.894
 4314W        W63575  17.159   2.258   1.381
 4315W        W63576  11.291  41.468  10.486
 4316W        W63577  42.908  39.331   0.362
 4317W        W63578  34.487  44.332   2.267
 4318W        W63579  32.434   3.344   1.290
 4319W        W63580  25.182  43.886  14.314
 4320W        W63581  43.327  25.492   4.700
 4321W        W63582  14.190  31.410  13.507
 4322W        W63583  43.914   4.887   4.238
 4323W        W63584  28.983   3.402   2.709
 4324W        W63585   9.269  39.447  13.915
 4325W        W63586  36.001  44.968  13.542
 4326W        W63587  29.571  29.173   3.339
 4327W        W63588  16.689  43.910   1.450
 4328W        W63589  35.002   6.237   4.634
 4329W        W63590  21.537  35.953  13.317
 4330W        W63591  31.018  18.602  14.293
 4331W        W63592  16.797   9.734  10.929
 4332W        W63593  17.673  14.114   1.417
 4333W        W63594  37.380  39.920  11.530
 4334W        W63595  31.907  30.526   0.952
 4335W        W63596  44.901  34.993   3.855
 4336W        W63597  31.933   6.830  14.902
 4337W        W63598  10.273  32.052  12.011
 4338W        W63599   7.359  27.680  11.109
 4339W        W63600  38.836  34.525  12.068
 4340W        W63601   3.443  43.921  14.506
 4341W        W63602  29.033   3.234  11.076
 4342W        W63603  14.290  41.489  12.436
 4343W        W63604  16.810  15.238   1.426
 4344W        W63605  11.230  35.576  13.888
 4345W        W63606  31.005  10.799  14.513
 4346W        W63607  32.511   9.202   9.458
 4347W        W63608  42.423  37.833   9.642
 4348W        W63609  24.635  44.790  10.992
 4349W        W63610  43.951   3.837  13.060
 4350W        W63611  34.871  40.903   2.811
 4351W        W63612   1.437  11.698  13.055
 4352W        W63613  24.222  34.607  14.825
 4353W        W63614  31.010  30.581  14.466
 4354W        W63615  19.747  20.078  12.861
 4355W        W63616  37.921  22.557   1.794
 4356W        W63617  21.542   4.341  11.575
 4357W        W63618  33.926  41.489   0.872
 4358W        W63619   6.270  42.966   3.357
 4359W        W63620   3.220  40.922  13.405
 4360W        W63621  37.839  19.073  13.445
 4361W        W63622  24.704  42.838  14.821
 4362W        W63623  14.294  42.288  13.929
 4363W        W63624  15.578   8.178  10.937
 4364W        W63625  13.201  13.305   0.960
 4365W        W63626  17.065  22.608   4.694
 4366W        W63627   0.844   7.859   3.791
 4367W        W63628  26.037  39.022   2.217
 4368W        W63629  12.682  23.017  13.536
 4369W        W63630   2.872   0.372   0.256
 4370W        W63631   2.742  13.144  12.405
 4371W        W63632  20.072  17.644   9.953
 4372W        W63633   7.258   1.307  14.888
 4373W        W63634  41.493   0.849  13.394
 4374W        W63635   5.258  42.938  12.862
 4375W        W63636  38.502  43.441  13.864
 4376W        W63637  34.516  19.065   0.331
 4377W        W63638  28.054   1.760  12.839
 4378W        W63639  11.212  16.621   2.400
 4379W        W63640  32.396  28.564  12.461
 4380W        W63641   1.933  32.485  14.985
 4381W        W63642   1.796  31.943   2.366
 4382W        W63643  31.123  42.348   1.863
 4383W        W63644  35.545  13.834   3.848
 4384W        W63645  15.114   2.837  10.906
 4385W        W63646  10.642   7.770   3.645
 4386W        W63647  13.786  32.073   1.823
 4387W        W63648  24.033  31.946   0.933
 4388W        W63649  29.426   9.795  12.363
 4389W        W63650   0.413   4.404   2.398
 4390W        W63651  31.930  43.789   2.280
 4391W        W63652  38.557  24.715  13.952
 4392W        W63653  21.263   9.280  11.010
 4393W        W63654  40.513  29.617   4.240
 4394W        W63655  13.350  19.582  14.895
 4395W        W63656  10.308  23.700   2.341
 4396W        W63657  38.939   7.372   2.824
 4397W        W63658  27.602  13.828  13.797
 4398W        W63659   3.409  37.869  11.117
 4399W        W63660   0.308  11.196  11.123
 4400W        W63661   2.300  21.185   2.381
 4401W        W63662  21.080  31.520   0.331
 4402W        W63663   1.923  35.937   2.382
 4403W        W63664   3.367   4.421  11.001
 4404W        W63665   5.703  15.265  12.349
 4405W        W63666   2.250  23.163   2.891
 4406W        W63667  42.816  32.583  11.928
 4407W        W63668  11.781  19.743   2.269
 4408W        W63669  40.815  11.213   1.711
 4409W        W63670  10.830  36.075  11.102
 4410W        W63671  25.528  31.936   0.757
 4411W        W63672  40.401  33.442  13.367
 4412W        W63673  10.230  31.064   1.296
 4413W        W63674  22.170  10.273   2.300
 4414W        W63675  14.834  39.884  12.855
 4415W        W63676  24.002  31.938  10.529
 4416W        W63677  10.809  33.923  13.033
 4417W        W63678  41.534  14.722   0.400
 4418W        W63679  35.486   6.411   0.405
 4419W        W63680   7.709  13.632  14.874
 4420W        W63681  31.067   3.849  12.825
 4421W        W63682  13.300   1.784  10.063
 4422W        W63683  22.682  16.732  12.899
 4423W        W63684  35.071  11.220  10.632
 4424W        W63685  42.802   8.361  11.987
 4425W        W63686   5.253   7.241   1.833
 4426W        W63687  19.227  37.489   2.676
 4427W        W63688  27.156  43.291   1.266
 4428W        W63689  21.650  34.400   0.784
 4429W        W63690  17.582   4.359   3.245
 4430W        W63691  44.944  13.799  10.591
 4431W        W63692  11.291  30.648  11.372
 4432W        W63693   1.831  12.637   0.890
 4433W        W63694   3.786  34.097   0.901
 4434W        W63695  25.664   4.234   3.238
 4435W        W63696  17.570  33.586  13.504
 4436W        W63697  41.918   2.465   0.270
 4437W        W63698  12.635   4.934  12.515
 4438W        W63699  44.000   0.255   3.642
 4439W        W63700   8.833  18.074  10.584
 4440W        W63701  18.603   6.364  12.005
 4441W        W63702  23.122  12.689  13.322
 4442W        W63703  44.766   6.336   4.328
 4443W        W63704  35.859   3.856   4.220
 4444W        W63705  28.440   0.275   9.921
 4445W        W63706  32.059  43.944   0.900
 4446W        W63707  43.943  31.064  13.364
 4447W        W63708  42.459  20.546   4.682
 4448W        W63709  15.304  13.606   3.684
 4449W        W63710   9.756  15.113  12.038
 4450W        W63711   7.392  28.181   2.211
 4451W        W63712  19.163  12.341  12.487
 4452W        W63713  31.962  21.758   4.711
 4453W        W63714  33.082  13.286  13.401
 4454W        W63715  31.598   1.374  11.924
 4455W        W63716  13.125  16.137  12.485
 4456W        W63717  28.081  10.866  10.928
 4457W        W63718   7.345  42.892  12.885
 4458W        W63719  22.743  35.518  10.572
 4459W        W63720  36.477  13.277   1.869
 4460W        W63721   5.194  24.545   1.256
 4461W        W63722  11.670  26.622  13.935
 4462W        W63723  19.710  24.113  14.949
 4463W        W63724  44.918  24.666   4.300
 4464W        W63725  38.947   9.792  12.401
 4465W        W63726  22.133  23.147   3.869
 4466W        W63727  29.528   6.426  13.427
 4467W        W63728  27.061  36.078  12.946
 4468W        W63729  37.498  21.224   4.730
 4469W        W63730  15.309  15.214   2.257
 4470W        W63731  37.484  16.579  12.509
 4471W        W63732   7.225  10.363   0.425
 4472W        W63733  23.662   1.255  10.443
 4473W        W63734  25.714  14.215  14.349
 4474W        W63735  25.097  33.116   4.256
 4475W        W63736  35.043   7.838  14.917
 4476W        W63737  39.990  13.725  13.822
 4477W        W63738  29.138  40.357  13.520
 4478W        W63739  42.343  29.027  12.408
 4479W        W63740   1.354  10.368   2.272
 4480W        W63741  32.492  12.281   9.535
 4481W        W63742  24.982  40.334  12.421
 4482W        W63743   7.899  24.004   2.307
 4483W        W63744   5.813  35.475  12.055
 4484W        W63745  28.506   8.706   0.739
 4485W        W63746   1.403  25.672  13.438
 4486W        W63747   6.804  25.488  14.430
 4487W        W63748   9.709  29.068  14.339
 4488W        W63749  12.265  41.000   3.258
 4489W        W63750  30.560   7.233  10.924
 4490W        W63751  17.263  12.655   1.363
 4491W        W63752  40.800   6.766   0.472
 4492W        W63753  32.931  21.547  14.291
 4493W        W63754   9.391   5.903  14.296
 4494W        W63755  24.511   8.252  10.450
 4495W        W63756  22.676  39.318  14.488
 4496W        W63757  15.196  12.655   4.715
 4497W        W63758  21.192   3.946  10.628
 4498W        W63759  40.902   4.904  10.530
 4499W        W63760  36.880  28.067  12.827
 4500W        W63761  36.375  40.513   1.219
 4501W        W63762   2.455  16.160  12.487
 4502W        W63763  43.459  31.050   1.916
 4503W        W63764  12.818  37.963   3.273
 4504W        W63765   4.761  11.800   3.664
 4505W        W63766   5.719  42.955  11.946
 4506W        W63767  44.326  26.073  12.890
 4507W        W63768  44.441  38.030  12.867
 4508W        W63769  32.459  20.130   1.706
 4509W        W63770  40.487  42.922   5.084
 4510W        W63771  34.963  40.857  10.406
 4511W        W63772  16.802  17.245  14.408
 4512W        W63773  39.472  37.465  14.302
 4513W        W63774  10.331  21.602  14.821
 4514W        W63775  21.572  26.526   1.918
 4515W        W63776  14.113  41.483  11.878
 4516W        W63777  12.271   7.303  10.624
 4517W        W63778  14.110  34.112   1.227
 4518W        W63779   7.697  14.733  14.369
 4519W        W63780  10.378   4.272   2.417
 4520W        W63781   8.737  40.516   4.801
 4521W        W63782   7.269  41.891  11.591
 4522W        W63783  14.218   6.907  13.059
 4523W        W63784   7.238  27.999  10.909
 4524W        W63785  15.095   2.888  10.567
 4525W        W63786  21.552  39.928   2.261
 4526W        W63787  22.234  42.985  10.475
 4527W        W63788  26.599  27.156   0.835
 4528W        W63789  23.056  24.064   1.724
 4529W        W63790  31.910  41.903  13.857
 4530W        W63791   9.310   2.251  14.920
 4531W        W63792  43.867  34.913   1.702
 4532W        W63793   6.911  40.012   2.404
 4533W        W63794   5.324  18.193  13.862
 4534W        W63795  39.978   0.760  11.389
 4535W        W63796   6.695  16.248   2.259
 4536W        W63797  22.739  21.017   3.853
 4537W        W63798  14.639  24.218   1.912
 4538W        W63799  10.878   5.338   2.833
 4539W        W63800  19.052  30.046   3.299
 4540W        W63801   2.859  40.005  13.345
 4541W        W63802  37.040   9.747  11.507
 4542W        W63803   6.890  44.273  14.877
 4543W        W63804  28.152  36.096  10.608
 4544W        W63805   0.344  33.874  11.567
 4545W        W63806  24.109   4.727  12.540
 4546W        W63807   4.275  37.945  14.486
 4547W        W63808  23.707  14.697  11.095
 4548W        W63809  29.601  23.573  11.109
 4549W        W63810  34.575  11.213  14.415
 4550W        W63811  29.111   0.790  12.531
 4551W        W63812   5.763  19.232   2.179
 4552W        W63813   1.975  18.733  11.514
 4553W        W63814   2.923  30.100   4.261
 4554W        W63815  11.782   8.182  11.107
 4555W        W63816   5.875  43.986  10.589
 4556W        W63817  22.735   1.792  11.044
 4557W        W63818  19.080  12.337  10.560
 4558W        W63819  37.505  40.335   1.781
 4559W        W63820  14.601  14.171   2.263
 4560W        W63821  43.947  35.431   0.748
 4561W        W63822  28.024  10.147  11.077
 4562W        W63823   7.666  32.029  14.417
 4563W        W63824  17.263   9.765   0.847
 4564W        W63825  34.576   5.791  14.832
 4565W        W63826  20.555  40.527   2.346
 4566W        W63827  27.113   0.824  13.370
 4567W        W63828  12.219   5.198  12.941
 4568W        W63829  10.163   4.404  12.467
 4569W        W63830  15.663   0.393  14.856
 4570W        W63831   9.284  16.108   0.773
 4571W        W63832  22.647   2.245  10.535
 4572W        W63833  23.605   8.401  11.552
 4573W        W63834   2.805  18.119  11.526
 4574W        W63835  14.601   7.712  13.854
 4575W        W63836  30.978   5.742   1.776
 4576W        W63837  30.968  31.908  10.106
 4577W        W63838  15.758  34.384   0.915
 4578W        W63839  14.150   2.824  13.397
 4579W        W63840   5.393  33.058   3.846
 4580W        W63841  44.379   1.366  11.909
 4581W        W63842  15.717  29.486  14.944
 4582W        W63843  37.011  15.176   3.649
 4583W        W63844  30.543  18.286  13.335
 4584W        W63845  27.563  23.553  13.877
 4585W        W63846  19.752  37.877   3.297
 4586W        W63847   7.716  30.972   1.325
 4587W        W63848  22.627  31.526   2.392
 4588W        W63849  13.646  25.193  14.428
 4589W        W63850  27.972  30.051   4.134
 4590W        W63851  20.267  43.005   1.417
 4591W        W63852  39.842  14.695   3.166
 4592W        W63853  31.017  28.529  11.870
 4593W        W63854   8.788  34.904  12.826
 4594W        W63855  12.717  40.887  14.507
 4595W        W63856  35.446  11.703  14.979
 4596W        W63857  34.433  25.598  12.348
 4597W        W63858  24.723  14.697   3.153
 4598W        W63859  13.723   5.811   0.307
 4599W        W63860  20.031  23.031   1.317
 4600W        W63861  13.719  10.847  14.760
 4601W        W63862   7.406  14.157  10.644
 4602W        W63863   9.706  31.545   1.324
 4603W        W63864  17.246  26.703  12.491
 4604W        W63865   8.874  24.559   4.192
 4605W        W63866  20.615   8.708  14.926
 4606W        W63867  22.145   8.795   0.272
 4607W        W63868   8.373  44.403   2.760
 4608W        W63869  31.919  28.179   3.840
 4609W        W63870  20.609  20.691   4.217
 4610W        W63871  35.428  31.619  13.533
 4611W        W63872  33.953  15.211   1.332
 4612W        W63873  19.184  32.070   2.248
 4613W        W63874  11.809  13.684   2.272
 4614W        W63875  39.962  14.186   4.828
 4615W        W63876  19.681  37.476  13.408
 4616W        W63877  16.208  26.477  10.634
 4617W        W63878   2.733  38.490  14.456
 4618W        W63879  22.691  31.068  13.040
 4619W        W63880  32.037   3.324   0.807
 4620W        W63881  20.733  30.467   2.810
 4621W        W63882  33.415  27.105   1.279
 4622W        W63883   8.183   1.765  13.817
 4623W        W63884  31.536  36.565   2.868
 4624W        W63885  43.932   7.864  10.958
 4625W        W63886  26.490   6.409   3.774
 4626W        W63887  15.623  20.630   1.803
 4627W        W63888  44.899  32.499   2.878
 4628W        W63889  10.183   9.291  10.464
 4629W        W63890  42.498   4.703  12.574
 4630W        W63891  24.191   2.393  13.044
 4631W        W63892  21.234   4.374  14.882
 4632W        W63893   8.185  20.058  13.393
 4633W        W63894  21.161   1.317   0.281
 4634W        W63895  31.029  44.005   2.671
 4635W        W63896   6.815   3.747  13.897
 4636W        W63897  26.091   8.181   3.362
 4637W        W63898  31.424   9.717  12.918
 4638W        W63899  35.978   9.291   0.745
 4639W        W63900  31.112  30.529   0.913
 4640W        W63901  13.287  40.317  12.984
 4641W        W63902  40.879  14.324   1.364
 4642W        W63903  28.636  20.764  14.511
 4643W        W63904  37.525   8.854  13.323
 4644W        W63905  20.252  43.965   3.366
 4645W        W63906  41.965  10.716   3.249
 4646W        W63907  30.620  31.488   0.895
 4647W        W63908  28.676  27.070   2.386
 4648W        W63909  36.993  19.277  12.445
 4649W        W63910  33.561  37.507  14.439
 4650W        W63911  14.100  19.682  10.604
 4651W        W63912  41.313  20.585   4.181
 4652W        W63913  12.117  29.490   3.802
 4653W        W63914  29.920  44.268  10.481
 4654W        W63915  27.143  14.159   5.095
 4655W        W63916   6.752   9.788   5.104
 4656W        W63917   7.897  42.400   3.308
 4657W        W63918   7.690  41.022   0.352
 4658W        W63919  13.761   2.723   3.844
 4659W        W63920  33.083  43.434  11.417
 4660W        W63921   6.809  12.352  11.464
 4661W        W63922  22.243  37.549   3.194
 4662W        W63923   8.883   4.836   0.382
 4663W        W63924   2.950  35.003   4.114
 4664W        W63925  33.977  35.567   0.483
 4665W        W63926  25.166  25.537   3.849
 4666W        W63927  32.513  29.055  12.035
 4667W        W63928  21.023  12.224  14.860
 4668W        W63929  20.242  17.690  10.988
 4669W        W63930   9.787  34.600   0.461
 4670W        W63931  30.987  27.530  13.917
 4671W        W63932   3.839   5.287   4.134
 4672W        W63933  40.541  24.131  11.588
 4673W        W63934  32.520  40.419   3.179
 4674W        W63935   8.816  42.467   3.254
 4675W        W63936  22.597   5.323   0.443
 4676W        W63937  42.347  44.955  11.116
 4677W        W63938  26.037  36.369   0.836
 4678W        W63939  27.691  29.020   0.326
 4679W        W63940  42.468  41.534   1.863
 4680W        W63941  21.185  35.096  11.604
 4681W        W63942   5.222  19.260  11.560
 4682W        W63943  22.507  43.354  10.614
 4683W        W63944   3.745  13.846  14.456
 4684W        W63945  33.107   3.388  12.993
 4685W        W63946  38.965  28.444   1.308
 4686W        W63947  29.171  11.142  13.063
 4687W        W63948   0.878  21.524  10.465
 4688W        W63949  41.454   7.292  14.799
 4689W        W63950  21.158  29.540  10.480
 4690W        W63951  41.791  26.986  12.979
 4691W        W63952  10.335  39.504  12.363
 4692W        W63953  15.651  23.559  12.840
 4693W        W63954  13.792  27.518   4.638
 4694W        W63955  21.635  42.941   0.934
 4695W        W63956  26.088  38.910  11.448
 4696W        W63957  43.368  12.621  12.029
 4697W        W63958  38.888  30.506  11.520
 4698W        W63959   7.741  11.621   5.212
 4699W        W63960   8.286  23.645  10.895
 4700W        W63961  28.078  39.909  13.895
 4701W        W63962  11.805  11.664  10.514
 4702W        W63963   9.265  19.678   3.364
 4703W        W63964   6.904  31.110  11.992
 4704W        W63965  29.525  12.265  14.430
 4705W        W63966  15.667  30.608   4.664
 4706W        W63967  28.046  16.124  12.032
 4707W        W63968  30.456   4.337   4.229
 4708W        W63969  30.090  44.784   4.157
 4709W        W63970   0.847  25.511   3.642
 4710W        W63971  22.234  32.110  12.034
 4711W        W63972  43.964  36.457  13.802
 4712W        W63973  40.947  33.415  12.563
 4713W        W63974  11.776  14.119  14.970
 4714W        W63975  11.784  18.579  11.070
 4715W        W63976  30.008  24.215  12.847
 4716W        W63977  41.893  16.696   4.716
 4717W        W63978  32.483   3.295  14.447
 4718W        W63979   2.879  17.180   2.832
 4719W        W63980  40.869  23.070  11.387
 4720W        W63981  33.471   3.831  14.341
 4721W        W63982  15.581  37.993  10.952
 4722W        W63983  39.547  36.960  11.055
 4723W        W63984  35.051  22.251   3.268
 4724W        W63985  35.533   5.698  11.471
 4725W        W63986  18.684   3.262  10.984
 4726W        W63987  12.356  25.039  12.071
 4727W        W63988  27.674  26.199   2.377
 4728W        W63989  15.785  10.217  11.117
 4729W        W63990  36.420  14.322  11.939
 4730W        W63991  35.504   1.900   3.162
 4731W        W63992  25.478  19.132   0.246
 4732W        W63993  27.979  30.083   3.722
 4733W        W63994  16.713   4.414   3.698
 4734W        W63995  31.999  12.122  10.558
 4735W        W63996   7.201  43.322   0.246
 4736W        W63997   1.455  35.039   3.387
 4737W        W63998  13.667   5.343   4.184
 4738W        W63999  31.425   9.161   3.672
 4739W        W64000  21.640  33.426   1.338
 4740W        W64001  25.970  33.039   9.448
 4741W        W64002  31.117   7.416  11.082
 4742W        W64003   3.872   0.439  11.555
 4743W        W64004  17.104  41.037   2.287
 4744W        W64005  26.587  44.992  11.419
 4745W        W64006  21.623  37.394  11.067
 4746W        W64007   3.365  36.466  11.970
 4747W        W64008   6.273  40.380   0.443
 4748W        W64009  36.414  25.012  10.578
 4749W        W64010  32.129  14.329   1.435
 4750W        W64011  23.571  19.183   0.791
 4751W        W64012  16.306  32.060  11.064
 4752W        W64013  19.589  44.798  12.370
 4753W        W64014  14.148  15.270   2.831
 4754W        W64015  14.820  36.004   4.246
 4755W        W64016  30.076  44.782  10.517
 4756W        W64017  41.335  12.657  13.979
 4757W        W64018  34.521  19.602  13.861
 4758W        W64019  44.322  14.692   4.336
 4759W        W64020   9.834  31.416   3.684
 4760W        W64021  35.058  22.206  10.006
 4761W        W64022   3.948  19.597  13.996
 4762W        W64023  20.685  26.592  12.001
 4763W        W64024  14.785   6.267   9.483
 4764W        W64025  12.159   5.787   3.784
 4765W        W64026   7.710  42.302   1.446
 4766W        W64027  31.602  30.014   3.715
 4767W        W64028   2.787  23.227   2.287
 4768W        W64029  40.006  13.747  11.565
 4769W        W64030  41.538  38.021  12.088
 4770W        W64031  31.589  26.671  13.897
 4771W        W64032  16.776  14.124  10.643
 4772W        W64033  20.636  16.142   3.198
 4773W        W64034   0.490  31.150   3.827
 4774W        W64035   7.275   6.257   1.333
 4775W        W64036  28.001   1.244   2.777
 4776W        W64037   4.707   0.939  10.437
 4777W        W64038  18.733   7.175  13.890
 4778W        W64039  39.913   3.285  10.475
 4779W        W64040  19.760  34.013  10.951
 4780W        W64041  41.355  30.484   3.237
 4781W        W64042  11.154  35.902  10.625
 4782W        W64043   1.257  10.194  10.474
 4783W        W64044  18.688  33.512   5.094
 4784W        W64045  13.167   4.786   2.847
 4785W        W64046  11.281  41.041   0.836
 4786W        W64047  35.430   2.330  14.484
 4787W        W64048  43.017  23.707   1.245
 4788W        W64049  37.572  25.151  14.341
 4789W        W64050   6.269  26.594  14.306
 4790W        W64051  26.974  29.167  14.943
 4791W        W64052  32.396   2.801   4.155
 4792W        W64053  16.802  34.577   2.226
 4793W        W64054  20.265  38.866   1.301
 4794W        W64055   3.890  19.220   4.803
 4795W        W64056  43.798   2.375   2.730
 4796W        W64057  43.947  24.588   5.751
 4797W        W64058  20.767   5.303   2.773
 4798W        W64059  35.064  23.995   2.898
 4799W        W64060  22.069  18.717  11.002
 4800W        W64061  21.756  22.168   3.222
 4801W        W64062   7.890  22.192   2.821
 4802W        W64063  28.474   6.898  14.300
 4803W        W64064   8.354  31.142   0.353
 4804W        W64065   5.413  36.577  12.388
 4805W        W64066   4.901  29.463  13.840
 4806W        W64067   2.283  28.599  14.015
 4807W        W64068  28.139   2.339  10.944
 4808W        W64069  20.191  11.639   1.221
 4809W        W64070  27.118   8.349  11.432
 4810W        W64071   3.944   9.763  14.499
 4811W        W64072   2.844  18.574  14.916
 4812W        W64073  35.592  18.619   1.328
 4813W        W64074  40.050   7.853   3.795
 4814W        W64075  11.148   4.446   3.832
 4815W        W64076  34.481  21.571   2.388
 4816W        W64077  28.519  43.809  14.865
 4817W        W64078  15.142  17.257   2.277
 4818W        W64079  16.598  20.654  14.468
 4819W        W64080   2.421  13.305   0.418
 4820W        W64081  44.482   7.800   4.314
 4821W        W64082  18.144   9.252  11.928
 4822W        W64083  10.652  38.489   0.276
 4823W        W64084  12.631  31.939  10.552
 4824W        W64085  13.135  23.661  14.399
 4825W        W64086   3.419  41.400  10.468
 4826W        W64087   0.874  26.700   3.807
 4827W        W64088   5.388  20.171  12.095
 4828W        W64089  41.903   0.277  14.345
 4829W        W64090  19.111   8.306  11.126
 4830W        W64091  25.467  27.140   1.421
 4831W        W64092  20.206  22.504   2.670
 4832W        W64093  23.999  35.949   2.682
 4833W        W64094  28.148  37.558  12.571
 4834W        W64095   5.328  44.378   0.390
 4835W        W64096  21.625  15.223   4.737
 4836W        W64097  23.511  20.622   0.775
 4837W        W64098  41.429  34.006  10.564
 4838W        W64099   9.742  15.298  13.461
 4839W        W64100  16.218  44.481  10.970
 4840W        W64101   7.708  14.659   4.114
 4841W        W64102  27.668  40.843   3.302
 4842W        W64103   5.913  21.597   4.597
 4843W        W64104  44.359  10.840  13.371
 4844W        W64105  20.095  19.753  11.583
 4845W        W64106  13.663   0.446  11.595
 4846W        W64107  40.047   6.888   4.597
 4847W        W64108   5.846  13.263  10.611
 4848W        W64109  16.171  36.929   2.389
 4849W        W64110  28.120  13.800   0.903
 4850W        W64111  21.594  25.024   2.678
 4851W        W64112  15.210   3.230  13.411
 4852W        W64113   7.907  30.457   1.875
 4853W        W64114  10.242  36.088   1.407
 4854W        W64115  11.829  17.267  13.407
 4855W        W64116  37.462   6.216   0.359
 4856W        W64117  13.258   6.712   0.435
 4857W        W64118  42.415  23.493   3.845
 4858W        W64119  39.046  30.099  10.531
 4859W        W64120  17.076  13.146  14.389
 4860W        W64121  12.117   5.715   2.377
 4861W        W64122  24.140  10.816   0.438
 4862W        W64123  16.585  37.969  13.465
 4863W        W64124  43.837  24.495   4.245
 4864W        W64125  12.617  13.146   2.892
 4865W        W64126   8.279  12.199   2.699
 4866W        W64127  21.099  31.044   3.160
 4867W        W64128  13.775  18.742  11.929
 4868W        W64129  13.779   4.833   2.213
 4869W        W64130  40.346   7.702  12.364
 4870W        W64131  26.016  26.151   0.789
 4871W        W64132  34.103  37.002   2.307
 4872W        W64133   3.955  28.136  10.482
 4873W        W64134  16.206  13.819   2.874
 4874W        W64135  20.591  18.108   5.321
 4875W        W64136  19.277  32.986  10.544
 4876W        W64137   5.895  17.649  10.516
 4877W        W64138  16.074  44.469   0.336
 4878W        W64139  31.153  15.660  12.059
 4879W        W64140  13.312  25.128  12.043
 4880W        W64141  13.343  17.746  14.838
 4881W        W64142  18.243  26.961   1.390
 4882W        W64143  19.670  15.140   1.324
 4883W        W64144  14.622  24.569   0.803
 4884W        W64145   2.455   7.412  12.546
 4885W        W64146   3.903  37.075   2.774
 4886W        W64147  23.611  25.175  14.319
 4887W        W64148  24.584  22.233   1.378
 4888W        W64149  17.710  12.696  14.944
 4889W        W64150  19.748  31.980  14.785
 4890W        W64151  11.811  11.314  12.353
 4891W        W64152   6.420  33.473   4.183
 4892W        W64153  22.145  30.427  10.496
 4893W        W64154  32.562  37.992   2.852
 4894W        W64155  44.773  14.685  11.063
 4895W        W64156   8.857  44.353  11.060
 4896W        W64157  10.138  42.474  13.978
 4897W        W64158   8.895  36.480  13.910
 4898W        W64159  39.442  24.114  11.907
 4899W        W64160   7.775  32.948  12.438
 4900W        W64161  27.531   2.459  12.913
 4901W        W64162  23.708  41.469   0.475
 4902W        W64163  32.070   7.302   2.356
 4903W        W64164  42.779   7.803  14.915
 4904W        W64165  13.245  27.117   2.876
 4905W        W64166  32.431  15.187  10.484
 4906W        W64167  20.029  26.192  13.435
 4907W        W64168  30.946  31.610  12.075
 4908W        W64169  29.973  34.530  13.855
 4909W        W64170  19.121  41.990   2.820
 4910W        W64171   3.791  36.441   4.318
 4911W        W64172   9.810  28.116  10.916
 4912W        W64173  30.971  29.008   2.333
 4913W        W64174   9.295  32.411  11.496
 4914W        W64175   5.344  38.533  11.927
 4915W        W64176  10.293  23.217   4.212
 4916W        W64177  12.139  16.598   2.239
 4917W        W64178  40.860   3.898  12.866
 4918W        W64179   9.672   6.831   1.340
 4919W        W64180  30.080  14.691  11.961
 4920W        W64181  24.650  22.542  11.478
 4921W        W64182  31.451  33.385  13.460
 4922W        W64183  31.996  26.055   2.273
 4923W        W64184  22.603  44.905  11.032
 4924W        W64185  28.573  36.510  12.454
 4925W        W64186   6.817   0.891   3.858
 4926W        W64187  25.106   4.700   3.772
 4927W        W64188  13.833  24.699  13.989
 4928W        W64189  43.977  25.571   2.775
 4929W        W64190   1.782  39.027   1.828
 4930W        W64191  35.030  25.047  14.877
 4931W        W64192  15.317   4.837  13.003
 4932W        W64193   1.466  23.579  14.336
 4933W        W64194  37.344  12.800   0.914
 4934W        W64195  15.264   3.221   4.289
 4935W        W64196  10.769   6.216   4.614
 4936W        W64197  37.536  19.662   1.405
 4937W        W64198  33.066   9.778   9.980
 4938W        W64199  43.365  40.027  12.532
 4939W        W64200  23.067   1.922  13.466
 4940W        W64201  29.545  33.560   1.835
 4941W        W64202  41.034  25.000   1.344
 4942W        W64203  11.673  27.061   4.790
 4943W        W64204  17.669  15.240  13.384
 4944W        W64205  23.715  33.083  14.982
 4945W        W64206  25.528  27.124   0.946
 4946W        W64207  18.702  14.133   4.716
 4947W        W64208  34.958   5.414  13.023
 4948W        W64209   1.364   8.289   4.789
 4949W        W64210  41.844   6.221  10.981
 4950W        W64211  13.627  37.385   1.789
 4951W        W64212  26.578   3.332   2.805
 4952W        W64213  12.198  17.742   4.736
 4953W        W64214  24.092  37.861  11.388
 4954W        W64215   4.396  32.061  11.397
 4955W        W64216   5.344  42.318   1.868
 4956W        W64217  25.079  19.046  10.991
 4957W        W64218  35.426  25.133  13.996
 4958W        W64219  43.449   0.446  11.998
 4959W        W64220   5.694  15.114   4.713
 4960W        W64221  43.924  43.509  14.380
 4961W        W64222   3.814  32.561   2.688
 4962W        W64223  44.911  41.527  14.906
 4963W        W64224  43.320   9.192  13.374
 4964W        W64225  41.005  32.949  13.800
 4965W        W64226  21.039  11.290  12.540
 4966W        W64227   7.768  22.560  11.597
 4967W        W64228  35.075  31.560   2.371
 4968W        W64229  29.050  41.040  12.385
 4969W        W64230   5.850  31.596  12.441
 4970W        W64231  24.527  26.081  13.453
 4971W        W64232  30.456  41.889   3.747
 4972W        W64233   3.349   1.332   2.398
 4973W        W64234   2.745  22.100   3.306
 4974W        W64235  10.659   7.796   0.906
 4975W        W64236  41.956  24.692   0.960
 4976W        W64237  17.167  16.308  10.414
 4977W        W64238  35.078  28.543  14.484
 4978W        W64239  22.686  41.868  13.361
 4979W        W64240  12.309  25.629  12.834
 4980W        W64241  43.437  28.584  11.497
 4981W        W64242  19.587  26.583  10.598
 4982W        W64243  12.314  16.230   1.764
 4983W        W64244  10.658   1.787  12.342
 4984W        W64245  32.091  18.231  11.446
 4985W        W64246  17.660  28.058  12.445
 4986W        W64247  33.058   2.361  10.597
 4987W        W64248  37.424   3.725   3.292
 4988W        W64249   9.886  38.462  13.025
 4989W        W64250  24.593   1.885  11.909
 4990W        W64251  30.917  33.882   0.943
 4991W        W64252  31.472   7.896   0.337
 4992W        W64253  18.656  11.848   3.285
 4993W        W64254  25.011  22.112   4.262
 4994W        W64255  36.549   4.744   2.700
 4995W        W64256  16.283  32.586  13.512
 4996W        W64257  20.767   1.823   4.236
 4997W        W64258  13.604   6.411  13.521
 4998W        W64259  29.627  35.891  10.533
 4999W        W64260  43.854  21.648  13.908
 5000W        W64261  15.585  16.661   4.120
 5001W        W64262  44.319  41.800   0.292
 5002W        W64263  16.103  34.540  12.065
 5003W        W64264  34.035  22.619  11.118
 5004W        W64265  43.315   7.766  12.862
 5005W        W64266   6.427  42.446  13.999
 5006W        W64267  10.152  26.043   4.292
 5007W        W64268   0.266  10.236   4.131
 5008W        W64269   4.842  28.502   2.778
 5009W        W64270   0.344  39.997   0.270
 5010W        W64271  22.531  23.656   3.345
 5011W        W64272  36.064   2.947  14.886
 5012W        W64273  39.060   3.712  11.949
 5013W        W64274  27.000  10.365  11.075
 5014W        W64275  14.149  27.627  14.760
 5015W        W64276  32.488  10.381   2.278
 5016W        W64277   3.729  31.480  13.330
 5017W        W64278  20.755  11.762  12.400
 5018W        W64279  21.748  10.156   1.251
 5019W        W64280  19.133  40.409   0.764
 5020W        W64281  11.244  21.103  14.499
 5021W        W64282   7.228  33.936   1.730
 5022W        W64283  14.200   3.738  11.492
 5023W        W64284   9.314  28.515   4.330
 5024W        W64285  24.579  21.174  10.520
 5025W        W64286  30.482  25.662  10.410
 5026W        W64287  22.074   3.956  12.882
 5027W        W64288  33.062  28.003  10.989
 5028W        W64289  32.085   9.820   0.836
 5029W        W64290  22.109   7.813  14.491
 5030W        W64291  21.153  29.068   1.872
 5031W        W64292  37.855  33.382   2.263
 5032W        W64293  42.504  20.690  12.023
 5033W        W64294   6.733  14.259   1.722
 5034W        W64295  34.511  36.474  12.520
 5035W        W64296  39.427  32.405  14.950
 5036W        W64297  10.818   4.809  13.354
 5037W        W64298  42.986   5.224   3.344
 5038W        W64299  42.509  33.017   4.771
 5039W        W64300   6.312   7.741  12.943
 5040W        W64301  17.715  26.091  14.330
 5041W        W64302   6.836  21.244   3.223
 5042W        W64303   6.419  16.720   2.728
 5043W        W64304  32.003  29.487   4.261
 5044W        W64305  29.066  16.566   2.792
 5045W        W64306  40.859  33.942   0.273
 5046W        W64307   2.360  42.400   1.222
 5047W        W64308  10.353  27.584  14.837
 5048W        W64309   1.332  16.269   3.305
 5049W        W64310   9.826  10.825  12.352
 5050W        W64311   8.673  26.462   4.718
 5051W        W64312   3.345  39.831  10.150
 5052W        W64313  33.913  26.518  11.111
 5053W        W64314  31.519  15.130   4.601
 5054W        W64315  14.645   7.872  12.376
 5055W        W64316  15.235   5.235   3.200
 5056W        W64317   8.678  37.918  14.408
 5057W        W64318  10.247  38.938   3.155
 5058W        W64319   1.925  20.169   0.404
 5059W        W64320  31.981   6.293   1.360
 5060W        W64321   6.677   5.309  14.964
 5061W        W64322   6.416  24.213   0.812
 5062W        W64323  23.537  18.660   2.198
 5063W        W64324  20.131  40.935  14.934
 5064W        W64325  29.063  26.654  12.007
 5065W        W64326   1.422   1.978   0.306
 5066W        W64327  37.014  28.081  14.370
 5067W        W64328  25.977  38.499  13.361
 5068W        W64329  29.001  13.620  12.084
 5069W        W64330  12.677  44.993  12.879
 5070W        W64331  11.655   6.779   3.857
 5071W        W64332  13.230  28.038   1.736
 5072W        W64333  42.945   2.435   5.180
 5073W        W64334  30.124   8.671  14.911
 5074W        W64335  22.151  29.123   1.248
 5075W        W64336  35.383   1.746  11.392
 5076W        W64337  24.703  20.660   0.739
 5077W        W64338  36.962  20.573  12.924
 5078W        W64339  39.929   9.223  14.846
 5079W        W64340   9.296  39.941  13.016
 5080W        W64341  18.658  41.956   1.757
 5081W        W64342   9.362  34.443   4.189
 5082W        W64343  34.019  39.512   2.398
 5083W        W64344  14.663  28.134  12.351
 5084W        W64345  30.535   9.362  12.353
 5085W        W64346  25.548  40.000  14.972
 5086W        W64347  18.752  27.611  12.409
 5087W        W64348  10.838  18.570   1.903
 5088W        W64349  27.686  25.189   3.195
 5089W        W64350   8.753   6.843  13.511
 5090W        W64351  20.171  15.711  12.974
 5091W        W64352  28.648  44.501   3.327
 5092W        W64353  26.670  43.786   0.430
 5093W        W64354  27.106  38.030   4.313
 5094W        W64355  29.085  17.688   3.712
 5095W        W64356  13.318  12.709  11.004
 5096W        W64357  16.252  14.271   3.850
 5097W        W64358  28.052  24.602   0.449
 5098W        W64359  21.553  13.749  11.998
 5099W        W64360  17.679  14.606   2.764
 5100W        W64361  10.380  16.204   1.214
 5101W        W64362  24.102  15.097  12.381
 5102W        W64363  25.967  43.479   1.387
 5103W        W64364  10.315   5.803   2.224
 5104W        W64365   0.843  24.693  12.388
 5105W        W64366  34.445  27.525   4.757
 5106W        W64367  16.300   2.403  14.868
 5107W        W64368  11.728   6.346  11.469
 5108W        W64369  34.402  42.810  11.595
 5109W        W64370   5.268  28.049   4.811
 5110W        W64371   8.836  28.622  10.525
 5111W        W64372  37.525  24.608  12.067
 5112W        W64373  44.432  24.608   0.938
 5113W        W64374  29.927  17.615  10.952
 5114W        W64375   4.788  34.063   3.358
 5115W        W64376   9.365  24.525  14.774
 5116W        W64377   9.347  22.671  11.884
 5117W        W64378  22.642  40.368  13.931
 5118W        W64379  16.182   9.827  14.946
 5119W        W64380  28.994  13.270  11.429
 5120W        W64381  34.880   1.764  11.422
 5121W        W64382  13.248  23.028   4.826
 5122W        W64383  14.252  40.946  11.429
 5123W        W64384   3.222  39.432  14.880
 5124W        W64385  28.058  39.887  11.865
 5125W        W64386  13.130  37.564  13.510
 5126W        W64387  38.391  15.328   4.640
 5127W        W64388  20.756   9.240  13.331
 5128W        W64389  36.431   4.799  14.989
 5129W        W64390   3.771  11.144  13.335
 5130W        W64391  32.396  11.305   3.851
 5131W        W64392   3.887  44.825   3.730
 5132W        W64393   4.389   6.384  12.864
 5133W        W64394  37.349  43.897   1.352
 5134W        W64395  21.089  23.099   4.322
 5135W        W64396  31.146   9.228  14.491
 5136W        W64397   8.754  41.903   0.471
 5137W        W64398   8.293  40.465  10.887
 5138W        W64399  18.703  15.281  11.597
 5139W        W64400   5.424   5.697   5.727
 5140W        W64401  36.865  11.722   1.923
 5141W        W64402  23.076  37.430   1.918
 5142W        W64403   6.185  33.391   0.840
 5143W        W64404   3.230  18.591   4.118
 5144W        W64405  27.082   8.204   3.635
 5145W        W64406  28.661  42.930  13.823
 5146W        W64407  30.514  43.802  10.915
 5147W        W64408  23.682   1.757   2.183
 5148W        W64409   7.402  44.915  14.318
 5149W        W64410  33.054  23.708  10.556
 5150W        W64411  44.857  19.044   1.274
 5151W        W64412  16.788  13.325  10.918
 5152W        W64413   7.808  28.613   2.755
 5153W        W64414  17.122  22.529  10.916
 5154W        W64415  32.896  33.066  12.095
 5155W        W64416   3.401  24.554   4.689
 5156W        W64417  36.533   5.741  13.474
 5157W        W64418  39.544  14.664  11.001
 5158W        W64419  32.494   3.826  12.384
 5159W        W64420   7.403  39.384  14.841
 5160W        W64421   4.879  18.232  10.122
 5161W        W64422   3.350  21.252   4.160
 5162W        W64423  34.982  42.780   1.434
 5163W        W64424  37.350  27.988   0.913
 5164W        W64425   8.659   5.822  13.312
 5165W        W64426   0.794  21.191   4.706
 5166W        W64427  20.580   9.244   4.145
 5167W        W64428   6.264  34.898   0.954
 5168W        W64429  30.592  38.916   2.827
 5169W        W64430   6.242  40.926   3.634
 5170W        W64431  42.411  29.159   4.733
 5171W        W64432  27.457  36.861   2.193
 5172W        W64433  42.414  44.868  13.547
 5173W        W64434  25.590  24.993   1.765
 5174W        W64435  23.679   0.372   3.709
 5175W        W64436  31.938  13.223  14.327
 5176W        W64437  11.718  19.685   4.161
 5177W        W64438  26.199  27.954   2.887
 5178W        W64439  11.661  43.409   0.353
 5179W        W64440  21.100  28.008   0.334
 5180W        W64441  44.820  24.986  11.398
 5181W        W64442   2.768  12.662  13.016
 5182W        W64443  34.427   1.955  14.915
 5183W        W64444   7.908  24.639   3.750
 5184W        W64445  13.607  25.467   3.245
 5185W        W64446  20.174  19.097  13.390
 5186W        W64447  23.510  29.962  11.911
 5187W        W64448  44.935   1.352  11.525
 5188W        W64449  14.593   8.347   0.846
 5189W        W64450  16.707  31.940  14.880
 5190W        W64451  17.794  11.206  10.923
 5191W        W64452  37.948  22.180  12.990
 5192W        W64453   8.808  25.007  11.564
 5193W        W64454  14.664  11.699  12.072
 5194W        W64455  13.120  35.077  12.527
 5195W        W64456   9.763  31.640  10.997
 5196W        W64457  14.799  28.680  12.339
 5197W        W64458   6.788  43.363   0.773
 5198W        W64459   5.267   5.917   2.723
 5199W        W64460   0.312   6.887  10.602
 5200W        W64461  17.235  31.594  12.877
 5201W        W64462  19.551  29.982   0.861
 5202W        W64463  25.582  21.569   4.214
 5203W        W64464  34.053  29.162  10.964
 5204W        W64465  14.813   9.817   1.896
 5205W        W64466  44.881  20.122   1.701
 5206W        W64467  32.073  26.539  11.129
 5207W        W64468  32.497  38.838  10.636
 5208W        W64469  41.455  16.303  14.807
 5209W        W64470  19.705  24.492  13.451
 5210W        W64471   4.855  22.745   0.355
 5211W        W64472   2.863  41.884  12.363
 5212W        W64473  33.521  24.079   3.285
 5213W        W64474  19.704  43.779  11.563
 5214W        W64475  29.938  12.778  14.923
 5215W        W64476  33.884  37.950  10.585
 5216W        W64477  33.489  43.965  13.413
 5217W        W64478  12.308  30.490   3.367
 5218W        W64479   0.810   3.407   4.168
 5219W        W64480  41.435   1.374   4.636
 5220W        W64481  38.830   7.273   2.220
 5221W        W64482  30.650  36.043   1.712
 5222W        W64483  41.030  14.317   1.772
 5223W        W64484  34.575  42.900  12.969
 5224W        W64485  20.751  30.589  10.547
 5225W        W64486   9.274  42.952   0.762
 5226W        W64487  18.699   9.221  12.089
 5227W        W64488  31.055  37.382   2.810
 5228W        W64489  22.719  31.012  13.809
 5229W        W64490  25.068   2.307   1.934
 5230W        W64491  15.106  32.923   2.243
 5231W        W64492  34.380  13.707  13.369
 5232W        W64493  40.539  28.610   0.857
 5233W        W64494  22.731  33.504  14.319
 5234W        W64495  27.051  27.056   4.164
 5235W        W64496   1.454  35.856   3.704
 5236W        W64497  25.698  27.086  13.926
 5237W        W64498   1.277  34.539  11.975
 5238W        W64499   5.248  32.071  12.879
 5239W        W64500  29.655  37.433  14.473
 5240W        W64501   6.185  16.171   0.750
 5241W        W64502  19.666  29.518   4.722
 5242W        W64503   2.852  18.269   3.180
 5243W        W64504  34.441  39.411  11.487
 5244W        W64505  29.596   4.260   2.178
 5245W        W64506  32.100  11.266   2.802
 5246W        W64507   5.234  23.592   2.406
 5247W        W64508   5.846  19.756   2.805
 5248W        W64509  37.388   8.318  14.441
 5249W        W64510  13.604   8.749   2.275
 5250W        W64511  18.581  37.476   0.811
 5251W        W64512  28.985  21.241  13.871
 5252W        W64513  24.492  42.956   4.739
 5253W        W64514   5.930  31.072   2.850
 5254W        W64515   2.954  26.666  11.936
 5255W        W64516  12.340  26.164   3.236
 5256W        W64517  19.245  29.606  14.381
 5257W        W64518   7.205  26.670   2.210
 5258W        W64519   1.973  22.129  14.819
 5259W        W64520  17.595  10.229  14.890
 5260W        W64521  34.969  16.300  13.879
 5261W        W64522  11.793   7.763   2.858
 5262W        W64523  35.902  15.264   1.694
 5263W        W64524  31.421  18.621   4.330
 5264W        W64525   5.431  43.299  11.372
 5265W        W64526  12.179   7.820   4.145
 5266W        W64527  34.368  25.611  14.334
 5267W        W64528   1.931  29.464   2.377
 5268W        W64529  16.157  31.419  13.898
 5269W        W64530  12.190  34.098  11.541
 5270W        W64531  42.373  42.904  12.041
 5271W        W64532  44.915  44.322  11.858
 5272W        W64533  40.815  37.387  13.321
 5273W        W64534   5.258  23.124   3.772
 5274W        W64535  38.430   3.273  10.572
 5275W        W64536  11.665  41.343   3.742
 5276W        W64537  38.853  39.970   0.274
 5277W        W64538  22.099  36.349   1.266
 5278W        W64539  31.140  26.488   4.246
 5279W        W64540  24.606  31.147  11.546
 5280W        W64541  23.718  21.244  10.624
 5281W        W64542  23.572   6.423  11.000
 5282W        W64543  29.080  17.204  11.898
 5283W        W64544  34.948  39.900  14.317
 5284W        W64545  30.070  42.403  13.383
 5285W        W64546  27.155  34.024   3.862
 5286W        W64547   1.948  29.546  11.550
 5287W        W64548  25.137  40.377   2.335
 5288W        W64549  15.662  24.549   3.346
 5289W        W64550  16.579  36.368  12.521
 5290W        W64551  14.277  21.143   3.349
 5291W        W64552  15.717  27.018   2.203
 5292W        W64553  10.363  39.535  13.987
 5293W        W64554  31.444  16.176   3.183
 5294W        W64555  35.469  13.666   4.278
 5295W        W64556  34.098  21.665  13.851
 5296W        W64557  15.712  44.890  14.799
 5297W        W64558   9.719   7.268   3.238
 5298W        W64559  42.496  28.996   3.688
 5299W        W64560   4.400  32.026   4.168
 5300W        W64561  10.217  16.148   0.255
 5301W        W64562  39.501  33.880   1.718
 5302W        W64563  30.437  23.627   2.342
 5303W        W64564  23.560  25.092  12.957
 5304W        W64565   2.389  38.862   1.817
 5305W        W64566  18.712  29.538  12.890
 5306W        W64567  22.502  37.883  12.573
 5307W        W64568  32.425  38.891  11.585
 5308W        W64569  34.377  44.415  11.430
 5309W        W64570  30.414   8.311  12.509
 5310W        W64571  40.030   9.378   0.929
 5311W        W64572  12.711  29.122   2.412
 5312W        W64573   8.692  14.684  11.503
 5313W        W64574  29.616  23.580   1.348
 5314W        W64575  33.944  22.630  12.564
 5315W        W64576  32.996  35.079   3.831
 5316W        W64577  19.746  32.950  12.833
 5317W        W64578   7.272  19.221  12.003
 5318W        W64579   8.658   1.392   1.292
 5319W        W64580  31.991  13.622   3.683
 5320W        W64581  13.259  33.004   2.776
 5321W        W64582  16.621  21.026  14.879
 5322W        W64583   3.809  29.574   2.188
 5323W        W64584  41.304  11.249   0.840
 5324W        W64585  10.232   9.199   4.753
 5325W        W64586  29.646  20.088  11.876
 5326W        W64587  35.857  36.860  14.502
 5327W        W64588  30.416  20.195  13.794
 5328W        W64589  23.070  13.208  12.361
 5329W        W64590   5.900  38.476  14.281
 5330W        W64591  18.776  25.678   2.274
 5331W        W64592  19.191  24.213  12.059
 5332W        W64593   8.716  31.051   4.316
 5333W        W64594  15.204  17.102  12.520
 5334W        W64595   1.363  19.070   3.364
 5335W        W64596   0.327   1.343  11.959
 5336W        W64597  13.120  20.569  14.346
 5337W        W64598  32.046  30.440  10.571
 5338W        W64599  39.008  21.111   1.260
 5339W        W64600  37.540  10.777  12.964
 5340W        W64601  11.230  26.010  14.912
 5341W        W64602   3.882  30.600  12.842
 5342W        W64603   0.486  40.055  12.390
 5343W        W64604  16.082  34.456   3.734
 5344W        W64605  21.527   8.181   4.195
 5345W        W64606  26.488  21.031  12.902
 5346W        W64607  32.406  12.692   2.326
 5347W        W64608   9.373   1.923  12.038
 5348W        W64609  28.442  41.536  12.830
 5349W        W64610  43.795  22.073  12.003
 5350W        W64611   6.894  35.946  13.404
 5351W        W64612  13.782   2.730  11.387
 5352W        W64613  11.680  19.132  14.919
 5353W        W64614  13.212  23.687   1.444
 5354W        W64615  23.018  41.988   0.391
 5355W        W64616   5.878   4.891   9.481
 5356W        W64617  27.655   2.753   2.341
 5357W        W64618  23.008  21.213   1.307
 5358W        W64619  40.372  13.311   0.475
 5359W        W64620   0.751  44.761   0.758
 5360W        W64621  39.414  26.478  14.803
 5361W        W64622  36.421   6.247   1.935
 5362W        W64623  13.761  28.606   4.352
 5363W        W64624  30.027  38.484   3.211
 5364W        W64625  24.173  33.559  14.446
 5365W        W64626  16.669  38.842  11.010
 5366W        W64627  41.840  16.201   1.776
 5367W        W64628  22.638   3.870  11.053
 5368W        W64629  16.126  11.320   1.711
 5369W        W64630  19.209  22.081  10.976
 5370W        W64631  29.427   8.290  13.332
 5371W        W64632  19.725   3.855   4.830
 5372W        W64633  32.961  25.992  14.012
 5373W        W64634   9.748  42.307   3.802
 5374W        W64635  12.265  17.182   3.209
 5375W        W64636  30.591  13.839   4.313
 5376W        W64637  38.386  39.449   0.933
 5377W        W64638  24.538  36.999  12.970
 5378W        W64639   6.220  27.021  10.499
 5379W        W64640  22.230  14.827   1.771
 5380W        W64641  23.577  10.144  14.320
 5381W        W64642   7.174  43.883  14.990
 5382W        W64643  36.586  21.514  11.400
 5383W        W64644  31.493  24.511  14.427
 5384W        W64645  44.348  36.504  11.893
 5385W        W64646  38.379  42.340  14.004
 5386W        W64647  18.147  43.410   1.887
 5387W        W64648   5.883   7.769  11.909
 5388W        W64649  31.926  11.144  10.079
 5389W        W64650  31.607  29.965  13.992
 5390W        W64651  26.080   1.402  13.393
 5391W        W64652   2.234  40.512   2.810
 5392W        W64653  29.933   9.793  11.964
 5393W        W64654   4.851  14.828   0.770
 5394W        W64655  21.184  42.977   4.157
 5395W        W64656   8.887  32.627  14.787
 5396W        W64657  30.467  33.400  12.357
 5397W        W64658  35.057  33.505  13.064
 5398W        W64659  37.842   2.774   4.668
 5399W        W64660  15.163  22.529   2.693
 5400W        W64661  21.530  39.985  11.858
 5401W        W64662  23.716  38.842   4.209
 5402W        W64663   8.347  18.155  11.912
 5403W        W64664  11.132  34.914  12.911
 5404W        W64665  14.162  29.949  11.503
 5405W        W64666   9.238  12.338   0.801
 5406W        W64667   9.361  10.383   0.860
 5407W        W64668  39.418  13.236  10.508
 5408W        W64669   2.390  21.217   2.755
 5409W        W64670   0.891   5.750   2.399
 5410W        W64671  28.150   2.359   2.691
 5411W        W64672   1.448  13.791  13.502
 5412W        W64673  12.715  14.722  11.996
 5413W        W64674  12.730  26.045  10.028
 5414W        W64675   4.351  44.354  14.885
 5415W        W64676  30.084  18.655  13.846
 5416W        W64677  28.635  29.615   2.329
 5417W        W64678   3.942  21.144   1.421
 5418W        W64679  26.957   3.313   2.403
 5419W        W64680  25.656  42.900  10.103
 5420W        W64681   1.968  27.049  14.817
 5421W        W64682   3.366  37.048   3.864
 5422W        W64683   6.770  34.523   0.925
 5423W        W64684  43.479   2.930  12.879
 5424W        W64685   1.833  28.162  11.862
 5425W        W64686  28.115  15.085   1.750
 5426W        W64687   0.808  19.184  14.030
 5427W        W64688   0.396  17.739   3.197
 5428W        W64689  32.499  15.656  12.034
 5429W        W64690   7.822   5.247   2.893
 5430W        W64691  10.152  22.625   1.738
 5431W        W64692  31.546  27.990  11.480
 5432W        W64693  39.858  25.650  13.372
 5433W        W64694  10.693   6.374   9.648
 5434W        W64695  32.916   6.904  14.371
 5435W        W64696  37.412  21.212  11.998
 5436W        W64697  30.002  13.131  11.556
 5437W        W64698  28.027  39.017   3.249
 5438W        W64699  34.868  19.564   1.811
 5439W        W64700  37.564  16.105   1.783
 5440W        W64701   6.280  19.615   4.756
 5441W        W64702  23.589   9.827   3.318
 5442W        W64703  33.416  43.808   2.229
 5443W        W64704  19.134  15.121   2.813
 5444W        W64705  36.359   9.179   5.706
 5445W        W64706   1.898  42.495   3.704
 5446W        W64707  30.536   5.788  12.404
 5447W        W64708  31.447  41.420   2.194
 5448W        W64709  29.491  34.593  12.425
 5449W        W64710   4.922  20.037   0.262
 5450W        W64711  22.524  28.459   2.355
 5451W        W64712  15.095  37.502  10.630
 5452W        W64713  41.453  13.786   1.778
 5453W        W64714  39.439  22.557   0.345
 5454W        W64715  26.188  14.699   3.208
 5455W        W64716  15.586  30.029   2.205
 5456W        W64717  24.006  26.065  10.600
 5457W        W64718  17.656  29.008  13.967
 5458W        W64719  11.824  22.012  11.421
 5459W        W64720  32.601  28.088  11.566
 5460W        W64721  40.026  38.948  10.428
 5461W        W64722  19.567   4.366  14.817
 5462W        W64723  36.355  15.803  13.831
 5463W        W64724  14.238  10.655  14.449
 5464W        W64725  31.490  33.552  11.041
 5465W        W64726  21.039  18.736   2.252
 5466W        W64727  23.045  30.022  12.019
 5467W        W64728   8.828  36.584  12.846
 5468W        W64729  26.113  37.023  11.416
 5469W        W64730  11.312  13.833   2.839
 5470W        W64731  43.360  25.587   5.705
 5471W        W64732   9.644  18.271   3.211
 5472W        W64733  23.626   1.428  14.802
 5473W        W64734  38.050   2.413  13.426
 5474W        W64735   0.985  25.191  14.850
 5475W        W64736   4.928  30.627   2.769
 5476W        W64737   2.385  18.714  10.047
 5477W        W64738   6.411  11.803   2.803
 5478W        W64739  10.737   6.428  12.577
 5479W        W64740  28.991  21.037   3.633
 5480W        W64741  33.417  35.970  10.952
 5481W        W64742   9.779  22.183  14.877
 5482W        W64743  21.529  14.287   3.685
 5483W        W64744  41.506  19.145   3.677
 5484W        W64745  40.949  40.458   2.896
 5485W        W64746  35.463  37.512   3.336
 5486W        W64747  12.823  39.449  11.937
 5487W        W64748  15.192   3.751  14.393
 5488W        W64749  29.439  24.197   4.260
 5489W        W64750  24.605  19.705  12.387
 5490W        W64751   4.878  39.383   2.212
 5491W        W64752  16.767   3.739   2.845
 5492W        W64753  20.632  23.179   1.882
 5493W        W64754  24.626  10.749   3.359
 5494W        W64755   2.263  23.593   1.703
 5495W        W64756  37.998  41.984  13.887
 5496W        W64757  30.560   3.931  14.277
 5497W        W64758  14.133  11.359  10.480
 5498W        W64759   8.815  30.997   1.251
 5499W        W64760  21.145  32.031   1.269
 5500W        W64761   7.728  29.077  11.886
 5501W        W64762   1.468   9.790  14.353
 5502W        W64763  36.512  34.393   5.294
 5503W        W64764   5.849  36.017  12.426
 5504W        W64765  37.914  17.777   3.206
 5505W        W64766  24.220  11.129   3.828
 5506W        W64767  26.465   0.312   3.181
 5507W        W64768  42.918  21.233   1.765
 5508W        W64769  39.038   9.826  10.942
 5509W        W64770  30.948  18.129   3.260
 5510W        W64771  27.166  33.950   1.263
 5511W        W64772  36.866  33.042  13.926
 5512W        W64773   1.759  25.484  12.939
 5513W        W64774  28.506  16.188   1.213
 5514W        W64775  24.501   7.883   2.215
 5515W        W64776  30.485  27.470   2.307
 5516W        W64777  27.465  28.629  13.993
 5517W        W64778  20.648  32.986   4.765
 5518W        W64779  33.073  40.856  11.476
 5519W        W64780  40.905  26.035  11.959
 5520W        W64781  31.489  15.165   0.364
 5521W        W64782  13.695  42.527   3.348
 5522W        W64783  22.103  32.499   3.803
 5523W        W64784  28.033  43.775  10.479
 5524W        W64785  26.996  20.671  11.589
 5525W        W64786  24.201  15.596   5.126
 5526W        W64787  18.769  44.368   0.482
 5527W        W64788  35.943   7.906   3.240
 5528W        W64789  42.399  12.287   4.836
 5529W        W64790  12.265  43.015  11.048
 5530W        W64791   7.315  41.994  11.935
 5531W        W64792  17.239  15.255   1.767
 5532W        W64793  34.385   3.819   4.226
 5533W        W64794  14.706  33.949   0.455
 5534W        W64795   6.272  26.019  14.420
 5535W        W64796   1.452  39.483  11.883
 5536W        W64797  30.502  23.076   0.884
 5537W        W64798  41.857   7.389   3.636
 5538W        W64799  29.142  36.082   4.614
 5539W        W64800  19.621  33.598  13.487
 5540W        W64801   3.403   5.428  14.759
 5541W        W64802  31.953  28.999  13.377
 5542W        W64803  14.675  20.071   2.293
 5543W        W64804   8.722  23.029   0.381
 5544W        W64805  37.460  35.992   4.233
 5545W        W64806  39.504  38.537  13.017
 5546W        W64807  25.706  16.651  12.008
 5547W        W64808  25.683   4.257   1.240
 5548W        W64809  28.165  44.989  13.421
 5549W        W64810   3.344   5.245   0.816
 5550W        W64811  10.822  15.130   4.737
 5551W        W64812  29.040  43.361   0.284
 5552W        W64813  35.890   8.810   2.773
 5553W        W64814  20.665  11.216  14.780
 5554W        W64815  33.475   2.291   5.087
 5555W        W64816   7.845   1.794   4.732
 5556W        W64817  43.369  13.617   0.757
 5557W        W64818  41.474  26.086  14.384
 5558W        W64819  43.336  30.487   1.224
 5559W        W64820  18.121  25.183  12.905
 5560W        W64821   3.739  17.114   4.603
 5561W        W64822  44.287  18.071  11.478
 5562W        W64823  30.080   8.870  13.921
 5563W        W64824  41.912  19.085  13.028
 5564W        W64825  42.450  32.035   2.718
 5565W        W64826  38.959  15.720  11.093
 5566W        W64827  21.257   1.273  10.612
 5567W        W64828  38.975  34.946   5.165
 5568W        W64829   9.178  24.513   2.189
 5569W        W64830  42.922  25.571  14.916
 5570W        W64831  25.012  21.124   5.238
 5571W        W64832   9.351   7.873   3.318
 5572W        W64833  28.106  23.183   0.828
 5573W        W64834  23.567  11.138  12.921
 5574W        W64835  19.556  36.437  14.956
 5575W        W64836  34.965  37.414  13.807
 5576W        W64837  11.141  32.995  12.340
 5577W        W64838  25.010  21.113  13.367
 5578W        W64839  20.271   5.359   2.842
 5579W        W64840  31.599  31.980  14.947
 5580W        W64841  43.841  40.941  12.902
 5581W        W64842  36.353  11.142   3.336
 5582W        W64843  14.745  17.762   0.953
 5583W        W64844  19.170  18.286   5.729
 5584W        W64845   2.403   2.862   3.325
 5585W        W64846  31.614  23.038   2.751
 5586W        W64847  17.599   8.373  12.072
 5587W        W64848  38.406  27.477  12.062
 5588W        W64849  26.665  42.982   4.212
 5589W        W64850  11.863  33.493   2.377
 5590W        W64851  41.480  43.958   1.327
 5591W        W64852  11.229  31.486   4.634
 5592W        W64853  30.155   5.756   2.847
 5593W        W64854  40.519  20.110  11.978
 5594W        W64855  43.878  33.446   0.277
 5595W        W64856   5.698  41.976  11.406
 5596W        W64857   6.355  11.646  14.892
 5597W        W64858  34.048  24.065   0.862
 5598W        W64859  11.170  38.884  14.908
 5599W        W64860   2.433  21.719   3.232
 5600W        W64861   4.763  41.933   4.176
 5601W        W64862  44.355  16.767  10.495
 5602W        W64863  26.124   3.226  12.423
 5603W        W64864  26.204  40.480  10.639
 5604W        W64865  43.499  29.115   3.296
 5605W        W64866  20.551  40.999   0.823
 5606W        W64867  27.067  20.565  14.885
 5607W        W64868  25.709  26.155  14.886
 5608W        W64869  16.768  41.457  14.392
 5609W        W64870  43.334   7.187  14.836
 5610W        W64871  26.554  36.362  10.522
 5611W        W64872   7.222  19.586  10.991
 5612W        W64873   0.358  22.075  14.384
 5613W        W64874   0.321   7.880  13.452
 5614W        W64875   3.351  17.724   3.670
 5615W        W64876  28.518  40.048  12.359
 5616W        W64877  32.582  24.674   1.770
 5617W        W64878  44.779  10.330  14.006
 5618W        W64879   6.258  21.644   2.782
 5619W        W64880  43.918   6.372   0.929
 5620W        W64881  37.846  10.730   3.644
 5621W        W64882   1.842   7.330   0.476
 5622W        W64883  10.295   7.369  11.414
 5623W        W64884  15.722  40.955   4.208
 5624W        W64885   4.384  21.654   4.350
 5625W        W64886  32.595  21.198  13.837
 5626W        W64887  14.609  31.959   1.698
 5627W        W64888   4.877  38.939   4.235
 5628W        W64889  13.228  11.782   1.390
 5629W        W64890  13.216  14.773   2.709
 5630W        W64891  34.376  18.247  13.544
 5631W        W64892  33.913  23.233   0.279
 5632W        W64893   3.730  17.579   3.672
 5633W        W64894  27.541  19.091  11.591
 5634W        W64895  37.051  21.572   1.402
 5635W        W64896  12.748  12.851  13.886
 5636W        W64897  16.763  15.763  14.946
 5637W        W64898   3.224  37.981   0.758
 5638W        W64899  12.848  40.864  12.461
 5639W        W64900  32.957  29.665   4.273
 5640W        W64901  25.674  22.668   9.984
 5641W        W64902  20.731  41.980   2.219
 5642W        W64903  12.730   6.780  11.041
 5643W        W64904  35.892  26.154  12.483
 5644W        W64905   6.249   1.928   2.417
 5645W        W64906  18.579  30.093  11.956
 5646W        W64907  31.459  40.992   4.802
 5647W        W64908  41.469  21.151  11.587
 5648W        W64909  15.280   6.728   5.173
 5649W        W64910  28.106  40.805   1.897
 5650W        W64911  15.131  16.245  13.353
 5651W        W64912  13.261  13.802   3.739
 5652W        W64913  21.069  31.960   1.757
 5653W        W64914   2.741  44.415  11.537
 5654W        W64915  16.264  40.885   4.717
 5655W        W64916  29.977   4.749   9.976
 5656W        W64917  33.091  30.632   2.341
 5657W        W64918  19.578   3.265  13.321
 5658W        W64919   6.841  28.545  13.421
 5659W        W64920  18.691  10.223   4.325
 5660W        W64921  34.975  22.564   1.374
 5661W        W64922  42.981  41.343   4.163
 5662W        W64923  11.723  34.573  12.836
 5663W        W64924  34.459  44.857  14.909
 5664W        W64925  34.934   3.394   4.182
 5665W        W64926  23.542  35.441   2.281
 5666W        W64927  32.475   6.850   3.709
 5667W        W64928   2.804  11.693   1.918
 5668W        W64929  25.180  20.090   1.263
 5669W        W64930   7.347  41.940   3.336
 5670W        W64931   5.697  37.481   1.280
 5671W        W64932  38.989   0.868  14.004
 5672W        W64933  32.606  20.133   4.796
 5673W        W64934   7.183  25.507  12.465
 5674W        W64935   7.780  11.854   1.900
 5675W        W64936  24.524  11.283   4.277
 5676W        W64937  32.957  26.958   1.320
 5677W        W64938  11.148  10.877  14.471
 5678W        W64939  25.001  36.982  13.351
 5679W        W64940  25.163  11.230  10.421
 5680W        W64941  19.239  35.891   0.264
 5681W        W64942  21.754  42.482   2.837
 5682W        W64943   6.745  20.524   3.778
 5683W        W64944  33.560  14.745   4.191
 5684W        W64945   4.428  29.617  13.909
 5685W        W64946  33.452  37.859  11.611
 5686W        W64947  27.523   9.302   0.454
 5687W        W64948  17.271   3.771   0.880
 5688W        W64949  20.051  20.702  14.029
 5689W        W64950   6.786  28.123   3.299
 5690W        W64951  25.498   3.359   4.643
 5691W        W64952  36.483  43.508  12.938
 5692W        W64953  11.356  40.895  13.856
 5693W        W64954  17.578  16.169  13.902
 5694W        W64955  12.243  42.835   1.429
 5695W        W64956  26.083  23.631  11.604
 5696W        W64957   4.905  26.042   0.467
 5697W        W64958   6.367  15.789   3.711
 5698W        W64959  27.189   9.386  12.078
 5699W        W64960  33.883  42.303  12.536
 5700W        W64961  15.246  17.074   3.728
 5701W        W64962  30.553  12.757  13.439
 5702W        W64963  37.889   5.874  12.841
 5703W        W64964  14.107  22.168   4.837
 5704W        W64965  43.441  40.903  14.781
 5705W        W64966  37.996  27.547  11.995
 5706W        W64967  20.739  28.453   0.967
 5707W        W64968  29.049   9.329   2.790
 5708W        W64969  44.470  29.957   2.280
 5709W        W64970   1.879  39.851   3.794
 5710W        W64971   7.371   1.317  14.324
 5711W        W64972  15.239  26.523   9.553
 5712W        W64973   2.795  31.144   1.423
 5713W        W64974  34.064   5.779  11.903
 5714W        W64975  38.554   8.793   4.649
 5715W        W64976  28.000  22.033   1.374
 5716W        W64977   3.743   0.465  12.576
 5717W        W64978  31.968  34.501  14.390
 5718W        W64979   2.736   2.960   2.797
 5719W        W64980  32.933  18.066  13.474
 5720W        W64981  11.327  31.477  12.477
 5721W        W64982  21.646   3.381  13.358
 5722W        W64983  11.670   7.814  14.826
 5723W        W64984  22.614  18.771   2.865
 5724W        W64985  40.054  33.455   1.244
 5725W        W64986  15.755   0.908   0.456
 5726W        W64987  17.725   2.925  14.960
 5727W        W64988   3.822  20.698  14.344
 5728W        W64989  26.090  28.517   2.788
 5729W        W64990  14.293  35.941   0.414
 5730W        W64991  29.489  20.696   3.789
 5731W        W64992  33.107   5.210  12.979
 5732W        W64993  18.217  39.886   2.286
 5733W        W64994  20.673  30.098  14.283
 5734W        W64995  22.731  25.975   2.734
 5735W        W64996  17.716  14.596  11.917
 5736W        W64997  36.913  31.505  12.376
 5737W        W64998  19.690  40.902  14.468
 5738W        W64999  22.196  14.266   2.689
 5739W        W65000   4.766  31.096  13.504
 5740W        W65001  24.986  11.158  13.469
 5741W        W65002  26.651  30.650  14.358
 5742W        W65003  39.980  19.700  13.980
 5743W        W65004  21.189  44.966  10.566
 5744W        W65005   3.894  42.932   3.865
 5745W        W65006   5.396   3.267   0.849
 5746W        W65007   2.462  17.136   3.794
 5747W        W65008  41.868  33.987   1.310
 5748W        W65009  22.716  14.750  11.955
 5749W        W65010   9.785   3.883   1.236
 5750W        W65011  12.287  39.497  10.998
 5751W        W65012   5.362  23.703  12.930
 5752W        W65013  23.185  44.451  12.048
 5753W        W65014  23.542  13.289   2.263
 5754W        W65015  16.628   3.871  14.477
 5755W        W65016   2.912  38.888  14.828
 5756W        W65017   6.285  32.893   1.884
 5757W        W65018  17.198  41.505  13.446
 5758W        W65019  34.105   3.770  11.912
 5759W        W65020  31.467  32.556   1.324
 5760W        W65021  24.022  28.187   0.966
 5761W        W65022  31.409  13.733  13.059
 5762W        W65023  32.535  40.052  14.837
 5763W        W65024  18.213  39.388   0.474
 5764W        W65025   0.359   3.348   3.653
 5765W        W65026  38.023  12.252   3.823
 5766W        W65027  18.072  18.205   0.786
 5767W        W65028  18.178  11.146  14.373
 5768W        W65029  10.771  30.457  11.922
 5769W        W65030  24.052  12.660   3.245
 5770W        W65031  34.436  16.178   3.295
 5771W        W65032  17.140  43.898   4.620
 5772W        W65033  22.720  42.900   1.441
 5773W        W65034  13.275  22.136  10.936
 5774W        W65035  21.163  14.599   5.277
 5775W        W65036  18.216  36.443   1.928
 5776W        W65037  40.823   4.400   1.910
 5777W        W65038  27.163  41.515  14.358
 5778W        W65039  15.710  30.482   0.355
 5779W        W65040   8.225  11.694  13.451
 5780W        W65041   7.804  31.504   0.468
 5781W        W65042   2.246  33.132   3.331
 5782W        W65043  37.933   5.243   3.259
 5783W        W65044  18.246  23.064   4.764
 5784W        W65045  24.603  25.052   3.339
 5785W        W65046   7.238  22.235   3.358
 5786W        W65047   4.304  19.069   3.645
 5787W        W65048  25.101  15.164   1.370
 5788W        W65049  11.363   6.264   0.820
 5789W        W65050  23.519   4.415   9.530
 5790W        W65051  35.995  20.273   2.288
 5791W        W65052  41.298  29.425   1.901
 5792W        W65053  44.379  29.454  12.460
 5793W        W65054   5.424   0.804   3.702
 5794W        W65055   6.241  27.195  12.094
 5795W        W65056  32.454   1.410   4.322
 5796W        W65057  30.597   6.757  13.377
 5797W        W65058  38.408  36.468   3.358
 5798W        W65059  16.116   1.923  13.496
 5799W        W65060  20.722  14.603  13.805
 5800W        W65061  42.401  14.805  12.366
 5801W        W65062  38.457  21.651  13.440
 5802W        W65063  28.958  37.549   4.635
 5803W        W65064  11.740  43.398  10.612
 5804W        W65065  10.206  36.484  13.058
 5805W        W65066  41.958   5.231   1.369
 5806W        W65067  37.356   2.940   1.362
 5807W        W65068  27.562  44.420  11.510
 5808W        W65069   1.242   4.711   4.133
 5809W        W65070   3.773   2.892  14.419
 5810W        W65071   3.409   4.276  14.513
 5811W        W65072  19.557  23.118   2.199
 5812W        W65073  44.482   5.920  13.944
 5813W        W65074  14.258   6.303   1.447
 5814W        W65075   5.897   8.730  13.997
 5815W        W65076  13.284  30.112  11.498
 5816W        W65077  37.379  25.598  10.040
 5817W        W65078   5.256  31.574   2.767
 5818W        W65079  40.462   6.204  12.477
 5819W        W65080   2.271  13.677  13.527
 5820W        W65081  40.957  32.090  13.058
 5821W        W65082  27.053  24.128   2.181
 5822W        W65083  22.009  43.893   0.728
 5823W        W65084  19.210  26.676  14.951
 5824W        W65085   2.350  23.012  11.523
 5825W        W65086   5.878   7.195  10.957
 5826W        W65087   4.448  14.217  13.999
 5827W        W65088  33.567  22.673  14.472
 5828W        W65089   5.343  32.952  14.027
 5829W        W65090   8.193  30.624   4.125
 5830W        W65091  42.321  28.595  12.903
 5831W        W65092  23.666  22.172  10.597
 5832W        W65093   1.950  42.031   2.741
 5833W        W65094  23.136  35.914   2.747
 5834W        W65095  19.768  39.914  13.536
 5835W        W65096  13.170   1.443  14.454
 5836W        W65097  14.785  19.617   4.811
 5837W        W65098  31.587  23.614  14.791
 5838W        W65099  42.933  33.968   3.676
 5839W        W65100  18.082  12.835   1.882
 5840W        W65101   7.706   7.281  12.926
 5841W        W65102  41.444   8.299  11.376
 5842W        W65103   6.907   9.211  14.458
 5843W        W65104  20.146  27.999  12.979
 5844W        W65105   3.715  33.983  13.415
 5845W        W65106  38.355  31.423  12.840
 5846W        W65107  36.510   0.279  13.316
 5847W        W65108   9.212  18.283  10.618
 5848W        W65109   3.735  10.702  10.491
 5849W        W65110   6.242   1.393  13.422
 5850W        W65111  16.648  20.052   4.820
 5851W        W65112  25.000  13.788   4.687
 5852W        W65113  27.181  11.740  11.030
 5853W        W65114  43.284  21.744  13.841
 5854W        W65115  40.870  36.515   1.843
 5855W        W65116  16.700  27.630  13.364
 5856W        W65117  10.374  14.673   2.764
 5857W        W65118  28.442  41.477  12.437
 5858W        W65119  33.607  35.363   4.148
 5859W        W65120  16.288  41.407   3.655
 5860W        W65121  27.180   4.371   0.447
 5861W        W65122  43.950   9.819  14.845
 5862W        W65123  13.714  28.099   3.213
 5863W        W65124   4.872  32.943  12.537
 5864W        W65125  16.622  36.403   2.780
 5865W        W65126  25.559  30.485  13.994
 5866W        W65127  28.527  31.565   3.691
 5867W        W65128  30.961  22.741  12.029
 5868W        W65129  29.557  42.986  11.373
 5869W        W65130  23.168  42.781   0.862
 5870W        W65131  35.568  34.589   1.784
 5871W        W65132  33.025  39.496   0.383
 5872W        W65133  28.653  27.516  11.063
 5873W        W65134  32.091  39.443  14.918
 5874W        W65135  22.095  20.269   1.213
 5875W        W65136  22.548  39.937  12.880
 5876W        W65137  28.004   6.370  14.281
 5877W        W65138   6.385   8.281   0.751
 5878W        W65139  14.338  34.510   0.404
 5879W        W65140  30.572  16.636   1.933
 5880W        W65141  17.107  36.504  13.410
 5881W        W65142   9.220  40.958   1.739
 5882W        W65143  28.446  37.965   3.216
 5883W        W65144  36.029  14.338   0.729
 5884W        W65145  29.149  34.498  14.485
 5885W        W65146  17.161  23.119  10.470
 5886W        W65147   5.731  32.091  12.546
 5887W        W65148  42.299  30.065  11.595
 5888W        W65149  12.174  14.718  11.976
 5889W        W65150  27.954  29.452  10.557
 5890W        W65151   5.845  16.259   0.386
 5891W        W65152  40.885  41.534  11.515
 5892W        W65153  44.291  36.389   5.594
 5893W        W65154   6.425  36.560  13.951
 5894W        W65155  16.625  35.089   0.927
 5895W        W65156  34.982  30.943  13.055
 5896W        W65157  25.539  39.347   4.768
 5897W        W65158  42.875  29.115  10.905
 5898W        W65159  38.325  39.381  13.802
 5899W        W65160  24.589   2.233  12.034
 5900W        W65161  10.155  36.082   3.639
 5901W        W65162   1.803  23.540   0.770
 5902W        W65163  16.789   5.899   1.393
 5903W        W65164   8.824  35.369  13.841
 5904W        W65165  43.777  17.101   3.303
 5905W        W65166  11.252  24.164   4.657
 5906W        W65167   4.216  22.115  14.391
 5907W        W65168  21.230  27.065  14.793
 5908W        W65169  15.325   8.404   3.704
 5909W        W65170  43.407  35.938  14.304
 5910W        W65171  33.023  25.007   3.242
 5911W        W65172   3.358  23.009  10.627
 5912W        W65173   2.956  16.799   0.365
 5913W        W65174  16.579  21.745  12.861
 5914W        W65175  10.303  14.767  12.577
 5915W        W65176  32.637  12.679  11.897
 5916W        W65177  16.164   2.404   0.796
 5917W        W65178  29.473  28.991  14.376
 5918W        W65179   5.397  43.272   3.170
 5919W        W65180  16.266  44.405   4.723
 5920W        W65181  13.202   1.943   2.778
 5921W        W65182  44.984  36.360   9.576
 5922W        W65183  30.964  19.662  10.900
 5923W        W65184  23.043  36.868  13.497
 5924W        W65185  19.252  29.136   0.874
 5925W        W65186   5.811   4.243  14.898
 5926W        W65187  38.373  37.026  13.513
 5927W        W65188  39.530  20.260   4.633
 5928W        W65189  18.645  28.546   2.862
 5929W        W65190  12.848  31.975   3.733
 5930W        W65191   5.733  11.271  14.282
 5931W        W65192  26.693  17.608  11.087
 5932W        W65193  30.435  25.551  12.465
 5933W        W65194   0.926  35.387  13.331
 5934W        W65195  12.667   6.755  12.364
 5935W        W65196   0.768  25.582   0.394
 5936W        W65197  37.838  19.582   2.850
 5937W        W65198   1.753  12.694  13.037
 5938W        W65199  33.036  10.226   0.477
 5939W        W65200  23.553  21.024   1.212
 5940W        W65201  41.354  22.737   2.384
 5941W        W65202  39.047  26.971  10.631
 5942W        W65203  26.536  12.847   4.300
 5943W        W65204  18.132  31.576   3.173
 5944W        W65205  24.003  36.443  14.764
 5945W        W65206  21.522   7.837   3.690
 5946W        W65207  42.999   4.345   2.383
 5947W        W65208  19.226  25.699  13.896
 5948W        W65209  17.615  22.220   1.300
 5949W        W65210  16.627  15.726   2.766
 5950W        W65211  24.080  22.109   3.380
 5951W        W65212  18.181  36.896   3.330
 5952W        W65213  34.534   0.359   0.889
 5953W        W65214  20.269  20.070   2.368
 5954W        W65215  18.112   7.374   0.302
 5955W        W65216  39.449  41.524  11.946
 5956W        W65217  24.524   8.297   4.289
 5957W        W65218  26.579  34.600  14.452
 5958W        W65219  17.185  39.005  10.475
 5959W        W65220  24.518   6.915   3.157
 5960W        W65221  31.992  38.026  11.611
 5961W        W65222   3.242  41.508   1.263
 5962W        W65223  39.944  43.945   0.767
 5963W        W65224  18.688  38.034   1.905
 5964W        W65225  16.691  21.117   0.248
 5965W        W65226   8.766  44.425  10.510
 5966W        W65227  21.661  40.464  13.444
 5967W        W65228  34.001  17.700  13.840
 5968W        W65229  20.143  39.924  14.019
 5969W        W65230   8.229  42.498   3.833
 5970W        W65231  11.280  15.185  13.052
 5971W        W65232  16.723  33.592   4.314
 5972W        W65233  42.947  23.612  12.445
 5973W        W65234  27.447  41.874   3.173
 5974W        W65235  34.003  31.585   0.399
 5975W        W65236  35.025   7.403  10.642
 5976W        W65237  31.569  11.326   4.178
 5977W        W65238  37.411  19.593  14.941
 5978W        W65239  16.287  34.386   2.360
 5979W        W65240  29.969  12.838   0.799
 5980W        W65241  19.236  10.838   0.318
 5981W        W65242  31.414   7.239   4.144
 5982W        W65243  30.974  37.936   3.184
 5983W        W65244  30.563  35.055  10.603
 5984W        W65245  21.545  39.987  14.851
 5985W        W65246  18.659  25.157  13.534
 5986W        W65247  13.824   3.317   0.334
 5987W        W65248   1.251   4.930   2.379
 5988W        W65249   8.844  18.633   5.306
 5989W        W65250  18.204   1.242  13.798
 5990W        W65251  17.088  12.823   4.714
 5991W        W65252   5.298  23.117  13.459
 5992W        W65253  23.230   5.289  10.642
 5993W        W65254  23.500  39.831   1.832
 5994W        W65255  16.283  32.889  10.610
 5995W        W65256   0.476  23.024  12.077
 5996W        W65257  13.298  10.282   5.257
 5997W        W65258  31.119  44.800  12.476
 5998W        W65259   1.917  35.547  13.510
 5999W        W65260  17.096  42.854   2.274
 6000W        W65261   4.334  31.898  12.990
 6001W        W65262  24.061  15.226   1.827
 6002W        W65263  31.023  21.107   2.848
 6003W        W65264  31.941  44.969  10.582
 6004W        W65265  19.749  10.878   1.825
 6005W        W65266  18.766  31.073   1.221
 6006W        W65267   6.823   1.313   2.841
 6007W        W65268  43.414  31.927   2.240
 6008W        W65269  17.192  18.102  12.928
 6009W        W65270  42.785  30.648  14.820
 6010W        W65271  38.876  11.849  14.430
 6011W        W65272  38.503   0.756   1.861
 6012W        W65273   4.304  12.732  13.043
 6013W        W65274  19.164  37.053  11.983
 6014W        W65275   8.403  27.987  12.837
 6015W        W65276   8.262  25.158   2.870
 6016W        W65277  17.276   8.698  10.620
 6017W        W65278  17.694  30.145   2.727
 6018W        W65279  29.029   2.311   9.941
 6019W        W65280  16.271  14.223  10.560
 6020W        W65281   1.933   3.822   1.218
 6021W        W65282  29.652   9.650   2.232
 6022W        W65283   5.880  22.195  13.937
 6023W        W65284  36.505  28.559   4.680
 6024W        W65285   3.816   8.856  12.462
 6025W        W65286  28.514  34.485   4.670
 6026W        W65287   5.301  37.452   0.821
 6027W        W65288  27.974   4.318  13.977
 6028W        W65289  37.009   0.883   3.207
 6029W        W65290  39.419  29.606  11.062
 6030W        W65291  13.317  10.274  11.425
 6031W        W65292  26.108  38.371   0.461
 6032W        W65293   0.348  30.562  14.375
 6033W        W65294  28.186  15.143   3.199
 6034W        W65295  32.445  23.549  12.941
 6035W        W65296  40.466   9.207   2.735
 6036W        W65297  40.474  41.337   1.431
 6037W        W65298  41.450  44.851   4.171
 6038W        W65299  14.723  44.384   3.858
 6039W        W65300  30.102  16.785  13.545
 6040W        W65301   5.836  20.685  11.038
 6041W        W65302  23.677  28.080  11.439
 6042W        W65303  12.313  37.508   3.754
 6043W        W65304  11.846  39.554  14.398
 6044W        W65305  25.577   5.312  12.347
 6045W        W65306  37.496   3.923   1.352
 6046W        W65307  22.548  15.307   4.673
 6047W        W65308  14.594  39.500   2.330
 6048W        W65309  15.613  26.110  14.016
 6049W        W65310  34.601   2.850  13.845
 6050W        W65311   5.322  43.921   0.289
 6051W        W65312  28.602   6.720  13.800
 6052W        W65313  13.635  21.600  11.108
 6053W        W65314  25.192   0.254  12.903
 6054W        W65315  19.661  12.716  10.996
 6055W        W65316   3.785  21.569   4.154
 6056W        W65317  30.104  28.020  11.375
 6057W        W65318  25.664   3.300  11.957
 6058W        W65319  34.519  25.568   1.275
 6059W        W65320  38.938  40.997  12.433
 6060W        W65321  16.813  40.964  12.856
 6061W        W65322  12.837  10.289  13.913
 6062W        W65323   4.861   6.714   0.449
 6063W        W65324  12.259  39.905   2.277
 6064W        W65325  11.331  15.755   2.755
 6065W        W65326  23.104   6.742  12.887
 6066W        W65327  13.135  34.912   3.205
 6067W        W65328  19.041  12.299   2.844
 6068W        W65329  25.973  38.526   4.804
 6069W        W65330   2.848  32.131   0.739
 6070W        W65331  18.649  42.365   1.867
 6071W        W65332   1.929   0.269   2.850
 6072W        W65333  35.452   9.730  13.311
 6073W        W65334  39.035  42.790  14.490
 6074W        W65335  18.074  34.561   1.762
 6075W        W65336  44.389  39.504  13.987
 6076W        W65337  36.860  40.798   4.339
 6077W        W65338   7.849  36.511  14.318
 6078W        W65339  19.086  28.629   9.492
 6079W        W65340  33.899  29.119  13.051
 6080W        W65341  22.725  19.267   4.354
 6081W        W65342  11.158  21.121  10.053
 6082W        W65343  27.177   3.800  12.885
 6083W        W65344  32.590  43.012   2.827
 6084W        W65345  12.199  20.749  12.362
 6085W        W65346  42.017   0.785  11.576
 6086W        W65347  31.488  29.548  12.944
 6087W        W65348   2.910  11.861   2.319
 6088W        W65349   0.391  11.308   2.740
 6089W        W65350  12.184   5.225  13.407
 6090W        W65351  13.202  26.553  11.535
 6091W        W65352  19.189  36.461  12.430
 6092W        W65353   1.393  19.716  11.913
 6093W        W65354  21.077  23.556  13.802
 6094W        W65355  19.693  20.672  12.403
 6095W        W65356  35.955   7.215   4.209
 6096W        W65357  16.090  17.160  12.953
 6097W        W65358  14.668  12.728   2.381
 6098W        W65359  14.235  29.104  10.448
 6099W        W65360  19.716  34.579   0.821
 6100W        W65361  14.650  27.137   1.396
 6101W        W65362  32.560  13.741  13.521
 6102W        W65363  36.023  12.625  11.456
 6103W        W65364   7.697  42.480  13.877
 6104W        W65365  16.167  20.701   1.306
 6105W        W65366   2.873   9.358   1.753
 6106W        W65367  43.933  38.844  14.442
 6107W        W65368  19.039  21.124  11.612
 6108W        W65369  12.790  40.365   2.405
 6109W        W65370   0.918  10.267  11.512
 6110W        W65371  38.998  36.465   2.662
 6111W        W65372  14.309  26.626   5.228
 6112W        W65373  20.187  43.331  12.560
 6113W        W65374  18.084  23.606   1.229
 6114W        W65375  29.074  33.889  12.384
 6115W        W65376  16.117  24.163   2.304
 6116W        W65377   4.280  26.196   4.237
 6117W        W65378   2.258  21.527  14.314
 6118W        W65379  38.040  12.732   4.774
 6119W        W65380  12.301  39.846  11.493
 6120W        W65381  16.615  30.136  10.932
 6121W        W65382  30.464  40.438   0.938
 6122W        W65383   9.388  44.786  12.873
 6123W        W65384   6.900  21.152   2.186
 6124W        W65385  35.475  29.127   1.821
 6125W        W65386  13.604  35.943  14.905
 6126W        W65387   9.375  33.921   2.839
 6127W        W65388  31.971  14.099  10.586
 6128W        W65389   2.914  23.526  10.927
 6129W        W65390  12.696   5.315  14.986
 6130W        W65391  25.583  33.546  10.601
 6131W        W65392  13.207  41.899  13.382
 6132W        W65393  30.598   7.209  11.932
 6133W        W65394  34.479  21.139   2.361
 6134W        W65395   4.409   8.374   3.790
 6135W        W65396  11.345  36.916  14.799
 6136W        W65397   9.774   0.965   2.216
 6137W        W65398  14.276  37.937  11.418
 6138W        W65399  10.256  27.038   3.232
 6139W        W65400  17.595  35.102  11.897
 6140W        W65401  19.265  13.636  10.585
 6141W        W65402  40.871  10.191  14.374
 6142W        W65403  36.940  36.514   4.296
 6143W        W65404  22.139  41.921   4.172
 6144W        W65405  17.585   1.833  10.975
 6145W        W65406  35.010  38.974   2.366
 6146W        W65407  27.672   3.286  14.398
 6147W        W65408   8.852  27.606  11.863
 6148W        W65409   0.833  23.051   2.355
 6149W        W65410   3.332  37.886  10.460
 6150W        W65411  43.932   3.309   1.387
 6151W        W65412  22.170  28.524   3.296
 6152W        W65413   0.950  27.469   0.824
 6153W        W65414  38.565  29.430   3.165
 6154W        W65415  44.320  26.952   3.729
 6155W        W65416  32.135   5.271   2.181
 6156W        W65417  33.502  41.369  14.778
 6157W        W65418  33.063   3.369   4.212
 6158W        W65419  40.511  18.628   0.388
 6159W        W65420   6.832  44.289  11.959
 6160W        W65421  26.485  33.007   1.340
 6161W        W65422  24.227  35.565   2.243
 6162W        W65423  24.023  14.648   0.336
 6163W        W65424  38.905   1.422   4.801
 6164W        W65425  11.260  36.026   2.817
 6165W        W65426  38.342  27.065   1.892
 6166W        W65427   5.688  36.025  11.115
 6167W        W65428  10.337   3.768  14.985
 6168W        W65429   1.422  37.063   1.725
 6169W        W65430   7.227  32.506   1.254
 6170W        W65431  40.365   0.335  14.962
 6171W        W65432  37.855  29.064  13.497
 6172W        W65433  28.932   1.809  13.493
 6173W        W65434  13.170  13.629   4.176
 6174W        W65435  21.599  15.255   2.402
 6175W        W65436  15.663  26.571   1.219
 6176W        W65437  34.008   8.186  11.993
 6177W        W65438  13.841  40.029   0.963
 6178W        W65439   1.248  39.527  14.304
 6179W        W65440  27.997  34.874   0.726
 6180W        W65441  40.023   9.254  13.460
 6181W        W65442  33.999  11.856  14.952
 6182W        W65443  35.539  27.536  11.507
 6183W        W65444  21.667  18.596  12.560
 6184W        W65445  43.772  22.642  12.965
 6185W        W65446  22.694  40.011   0.830
 6186W        W65447  41.850   7.387   5.194
 6187W        W65448  19.242  43.454   3.154
 6188W        W65449   2.868  40.341  14.933
 6189W        W65450  42.432  16.113   3.667
 6190W        W65451  42.485  44.977   0.462
 6191W        W65452  25.078   0.785   1.408
 6192W        W65453  29.060  33.510  14.856
 6193W        W65454  35.008  18.668  14.902
 6194W        W65455  37.383   3.401  14.311
 6195W        W65456  23.663  16.147   2.264
 6196W        W65457  36.966  24.617  13.909
 6197W        W65458  41.837  26.173  12.879
 6198W        W65459  13.772  35.601   1.348
 6199W        W65460  14.736  32.026   4.159
 6200W        W65461  12.260  37.411   4.710
 6201W        W65462  41.003   4.369   1.418
 6202W        W65463  17.250  30.965  13.320
 6203W        W65464  13.309   6.252  10.526
 6204W        W65465   1.734  30.082  13.806
 6205W        W65466  31.592  30.414   0.429
 6206W        W65467  16.289  41.508  12.958
 6207W        W65468   1.411  28.947   2.841
 6208W        W65469  43.421  28.983  11.467
 6209W        W65470  23.117  31.432  14.878
 6210W        W65471  42.343  15.606   3.228
 6211W        W65472  38.001  15.237   2.804
 6212W        W65473   8.813  11.720   5.305
 6213W        W65474  31.089  21.067   3.819
 6214W        W65475  22.139   6.273   2.824
 6215W        W65476  32.063  35.374   1.419
 6216W        W65477   2.309   3.304   3.729
 6217W        W65478  30.003   7.795   2.222
 6218W        W65479  23.032  31.480  12.432
 6219W        W65480  23.499  44.343  12.017
 6220W        W65481   5.308  36.515  14.462
 6221W        W65482  11.346  44.834  13.386
 6222W        W65483   1.390   2.815   1.704
 6223W        W65484   8.888  24.500  13.000
 6224W        W65485  13.165   6.225  10.945
 6225W        W65486   1.259  11.195   2.200
 6226W        W65487   5.803  16.281   4.338
 6227W        W65488  38.347  28.114   1.295
 6228W        W65489   4.905  40.964  14.307
 6229W        W65490  12.288   8.197  10.453
 6230W        W65491  36.880  12.172   4.284
 6231W        W65492  21.136  17.130   0.862
 6232W        W65493  44.363  19.205   1.335
 6233W        W65494   4.413  41.967  14.893
 6234W        W65495  25.035   6.299  13.469
 6235W        W65496  26.099  22.618  12.048
 6236W        W65497  37.038   1.258  11.923
 6237W        W65498  10.271  37.449   2.362
 6238W        W65499  30.950   8.280   0.336
 6239W        W65500  14.682   8.702   3.312
 6240W        W65501  32.563  10.846   3.812
 6241W        W65502  23.128  11.648   0.815
 6242W        W65503  15.237  42.416  10.941
 6243W        W65504  37.424   4.318  10.431
 6244W        W65505  10.697  30.510   4.195
 6245W        W65506  41.012  24.217   9.647
 6246W        W65507  16.304  22.204  11.896
 6247W        W65508   5.763  44.261  12.557
 6248W        W65509  28.497  27.532  11.531
 6249W        W65510  17.629   5.868  12.057
 6250W        W65511  38.848  43.478  13.357
 6251W        W65512   2.873  19.653   2.377
 6252W        W65513  38.943  25.996   0.259
 6253W        W65514  13.755  37.387   0.322
 6254W        W65515  35.487  11.128  12.401
 6255W        W65516   9.710  11.801   1.771
 6256W        W65517  29.449  19.071   1.867
 6257W        W65518  39.018  21.114  12.949
 6258W        W65519  39.894  17.599   0.770
 6259W        W65520  43.430   9.374   3.641
 6260W        W65521  23.108  30.431   3.262
 6261W        W65522  34.889  15.101   3.169
 6262W        W65523   0.276  19.571  13.345
 6263W        W65524  23.052   3.821   1.317
 6264W        W65525  43.347   6.794  12.927
 6265W        W65526  11.642  32.566  14.844
 6266W        W65527  26.208  27.614  11.922
 6267W        W65528  40.418  14.102  13.013
 6268W        W65529  33.584  11.653  13.368
 6269W        W65530  42.871  13.224  11.098
 6270W        W65531  31.498  20.075  11.469
 6271W        W65532  22.214  10.795   1.880
 6272W        W65533  38.408   1.391   0.332
 6273W        W65534  30.109  32.543  11.036
 6274W        W65535   6.210  10.334   2.199
 6275W        W65536  11.206   4.804   0.329
 6276W        W65537  43.859  39.838   0.892
 6277W        W65538  33.050   1.830  12.970
 6278W        W65539  28.175  26.091  14.798
 6279W        W65540  12.843   3.412   5.180
 6280W        W65541  36.383  42.449  11.988
 6281W        W65542  21.715  11.662   2.205
 6282W        W65543  42.987  32.947  11.429
 6283W        W65544  23.731  44.876  11.518
 6284W        W65545  41.336  19.276  11.093
 6285W        W65546   4.858  41.888   1.757
 6286W        W65547  37.883  12.191   0.304
 6287W        W65548  24.062  16.628   1.231
 6288W        W65549  16.584  43.841  11.046
 6289W        W65550   6.288  21.742   4.321
 6290W        W65551  19.041  24.155   3.871
 6291W        W65552  41.803   9.754  12.079
 6292W        W65553   7.334   4.842   4.230
 6293W        W65554  28.651  30.536   1.239
 6294W        W65555  32.499  10.281   3.282
 6295W        W65556  12.124   5.741  11.862
 6296W        W65557  40.845  11.676   0.267
 6297W        W65558   2.395  20.563   1.875
 6298W        W65559   7.385  25.010   3.227
 6299W        W65560  42.440  22.136  14.983
 6300W        W65561  11.710  22.085   2.409
 6301W        W65562  17.677  40.819  12.962
 6302W        W65563  19.069  34.874   1.807
 6303W        W65564  19.197  15.131   1.917
 6304W        W65565  20.236  27.514   4.779
 6305W        W65566  38.040  42.970   1.365
 6306W        W65567  27.185  15.127   2.884
 6307W        W65568  15.249  20.612   3.261
 6308W        W65569  31.942  19.246   2.853
 6309W        W65570   9.723  28.931   1.798
 6310W        W65571  11.802  35.967  14.336
 6311W        W65572  36.044  37.831   4.183
 6312W        W65573  30.523  13.125   4.731
 6313W        W65574   2.764  20.634   1.810
 6314W        W65575  17.699  17.759  11.553
 6315W        W65576   0.939   5.305   2.824
 6316W        W65577  22.200  37.531   3.690
 6317W        W65578  13.135  37.363   3.743
 6318W        W65579   6.782  24.641   0.413
 6319W        W65580   8.658  32.555  10.616
 6320W        W65581  30.442  22.124  13.447
 6321W        W65582  13.179  25.614  11.081
 6322W        W65583  32.890  39.462  13.941
 6323W        W65584  21.229  42.940  13.940
 6324W        W65585  26.205   8.894  12.422
 6325W        W65586   3.728  22.681  10.446
 6326W        W65587   2.895  37.472  11.574
 6327W        W65588  24.615  21.692  12.444
 6328W        W65589  10.706  33.100  11.490
 6329W        W65590  24.705  28.489   1.854
 6330W        W65591  28.074  34.404  14.887
 6331W        W65592  25.634  18.240  12.054
 6332W        W65593   7.820  31.402   2.849
 6333W        W65594   8.400  14.231  12.048
 6334W        W65595  19.277  28.997  13.847
 6335W        W65596  32.899  25.584  13.982
 6336W        W65597   6.415  21.217   3.655
 6337W        W65598  37.375  41.466   1.214
 6338W        W65599   3.946  30.599  12.365
 6339W        W65600  43.367  19.272   3.226
 6340W        W65601  26.022  28.182  10.486
 6341W        W65602  10.785  13.602  11.445
 6342W        W65603  25.082  36.405   0.412
 6343W        W65604  17.275  17.682   1.268
 6344W        W65605   6.853  18.145   4.222
 6345W        W65606  12.670  12.693  11.864
 6346W        W65607  27.170  40.973   2.725
 6347W        W65608  17.558  30.030  13.017
 6348W        W65609  14.796  18.550  11.482
 6349W        W65610  13.727  25.191   2.780
 6350W        W65611  26.110  27.089  10.542
 6351W        W65612  34.906  20.549   4.838
 6352W        W65613   0.292   5.303  10.483
 6353W        W65614  23.545  33.465  13.828
 6354W        W65615  11.221   0.843  11.408
 6355W        W65616  32.896  44.772   2.875
 6356W        W65617  12.659  39.346   2.866
 6357W        W65618  14.244  33.984   3.660
 6358W        W65619  23.011  18.293   1.348
 6359W        W65620  34.035  30.085   2.686
 6360W        W65621  12.695  11.350   2.849
 6361W        W65622  24.707  31.961   4.657
 6362W        W65623  21.543   0.831  12.480
 6363W        W65624  12.657  16.710   0.405
 6364W        W65625  37.036  26.689   0.468
 6365W        W65626  14.628  23.154   4.265
 6366W        W65627  37.888  19.669  12.961
 6367W        W65628   8.737   3.869   1.327
 6368W        W65629  25.676  22.084  11.590
 6369W        W65630  29.994  42.907  13.460
 6370W        W65631  40.350  42.932   9.987
 6371W        W65632   9.197   3.379  11.900
 6372W        W65633  13.732   6.695   1.290
 6373W        W65634  21.639   7.248  12.979
 6374W        W65635  23.708  26.201  13.318
 6375W        W65636  44.392   3.256  14.408
 6376W        W65637  40.979   6.343  11.607
 6377W        W65638  29.945  38.415   2.857
 6378W        W65639  10.699  31.918  13.515
 6379W        W65640  44.483   3.766  11.941
 6380W        W65641  42.314   6.782  13.424
 6381W        W65642  11.830  14.710  13.974
 6382W        W65643  44.332  35.088  10.605
 6383W        W65644  32.973  38.499  11.595
 6384W        W65645  35.367  33.458  10.473
 6385W        W65646  44.796  23.599  12.980
 6386W        W65647  44.932  43.362   4.702
 6387W        W65648  17.121  18.657   3.690
 6388W        W65649   2.332  12.331  12.878
 6389W        W65650  44.943  13.349  14.793
 6390W        W65651   1.774   1.776   1.812
 6391W        W65652   0.770  18.762   3.677
 6392W        W65653  43.813  37.846   1.757
 6393W        W65654  40.502  36.591   2.321
 6394W        W65655   9.761  32.569  11.014
 6395W        W65656  26.459   2.749  12.514
 6396W        W65657  12.703  31.124   9.978
 6397W        W65658  10.669  31.027  11.454
 6398W        W65659  23.051   5.691  13.987
 6399W        W65660  16.108  41.883   1.439
 6400W        W65661   6.195   5.250  12.370
 6401W        W65662  29.631  25.676  10.608
 6402W        W65663  11.230  24.504  12.082
 6403W        W65664  37.571  28.134  15.000
 6404W        W65665  13.633  30.034  10.949
 6405W        W65666  14.153  21.122  11.064
 6406W        W65667  25.109  18.567  14.830
 6407W        W65668   0.822   6.266   0.962
 6408W        W65669  20.686   5.751   1.884
 6409W        W65670  33.920  44.842   4.150
 6410W        W65671  42.328   2.893  14.279
 6411W        W65672   4.364  10.668   4.837
 6412W        W65673  20.054   2.337   1.282
 6413W        W65674  35.427  17.769   4.739
 6414W        W65675  22.132   2.358   4.316
 6415W        W65676  14.810  39.028  12.092
 6416W        W65677  13.826  26.169  14.864
 6417W        W65678  31.972   5.756   2.887
 6418W        W65679  22.697  26.472  12.846
 6419W        W65680  33.007  34.500  11.508
 6420W        W65681  43.277  44.759  12.006
 6421W        W65682  37.006  41.309  12.460
 6422W        W65683  23.610  32.118  13.840
 6423W        W65684   1.350  31.126  12.447
 6424W        W65685  11.198  42.302   4.214
 6425W        W65686  24.615  38.941  11.053
 6426W        W65687   8.210  37.053  12.353
 6427W        W65688   3.908  43.350  14.494
 6428W        W65689  11.626  23.639  12.881
 6429W        W65690  10.248  13.626  11.396
 6430W        W65691   8.252  17.580  11.010
 6431W        W65692  40.464  28.931   5.189
 6432W        W65693  25.090   8.258  13.346
 6433W        W65694   0.846  44.830  13.836
 6434W        W65695  29.924  26.117   2.723
 6435W        W65696  32.076   0.986   3.315
 6436W        W65697   8.770   7.352   1.307
 6437W        W65698  33.526  13.273   1.721
 6438W        W65699  18.066  11.174   4.742
 6439W        W65700  27.057  38.525   0.728
 6440W        W65701  15.251  32.511  12.846
 6441W        W65702  37.389  10.301  10.574
 6442W        W65703   6.729   5.785   3.335
 6443W        W65704  35.866  29.527   3.311
 6444W        W65705  26.624   8.247   4.719
 6445W        W65706  24.223   2.734   4.672
 6446W        W65707  25.550  23.681   0.774
 6447W        W65708  13.291  25.623  14.941
 6448W        W65709   1.327   3.732  13.914
 6449W        W65710  10.294  38.357   3.708
 6450W        W65711  20.742   7.729   3.715
 6451W        W65712  28.005  40.513  14.487
 6452W        W65713  23.570  16.189   4.680
 6453W        W65714  43.932  27.589  13.331
 6454W        W65715  33.879  10.341  11.961
 6455W        W65716  34.922  37.924  13.864
 6456W        W65717  12.236  26.005  11.563
 6457W        W65718  42.838  24.107  11.926
 6458W        W65719   4.319  25.214   3.810
 6459W        W65720  44.786   2.318   1.747
 6460W        W65721  15.700  14.109   0.426
 6461W        W65722  34.369  29.636   3.385
 6462W        W65723  39.940  43.373   1.299
 6463W        W65724  41.038  27.520  10.470
 6464W        W65725  29.616  20.049   1.404
 6465W        W65726  19.583  22.034  10.930
 6466W        W65727  36.448  30.575   4.606
 6467W        W65728  13.262  17.784   0.476
 6468W        W65729   4.335  12.752  13.410
 6469W        W65730  24.217  42.855  13.802
 6470W        W65731  28.165  12.630  12.580
 6471W        W65732  36.040   9.286  11.865
 6472W        W65733  42.341  19.680   5.175
 6473W        W65734  30.517  35.367   1.430
 6474W        W65735  24.155  28.021   1.222
 6475W        W65736  26.651   3.916   2.293
 6476W        W65737   2.385  30.024   2.802
 6477W        W65738  39.920   6.365   0.346
 6478W        W65739  34.948  12.117   4.350
 6479W        W65740   5.320  34.095   3.736
 6480W        W65741  38.393   2.947  13.359
 6481W        W65742  23.055  24.165  13.819
 6482W        W65743  23.642  39.997  14.275
 6483W        W65744   1.289  19.202  11.986
 6484W        W65745  27.665  28.162   4.608
 6485W        W65746  32.051  39.379   1.810
 6486W        W65747  16.286  26.967  14.412
 6487W        W65748  37.086  10.360  13.317
 6488W        W65749  13.790  10.146  11.925
 6489W        W65750  37.037  44.836  11.431
 6490W        W65751   2.950  16.207  11.919
 6491W        W65752  43.819  37.532   3.771
 6492W        W65753  43.873  30.974  10.601
 6493W        W65754  36.359  35.899  12.482
 6494W        W65755  13.794   6.780   4.148
 6495W        W65756   7.415   5.748  14.420
 6496W        W65757  20.639  22.214   1.354
 6497W        W65758  39.953  40.344   3.822
 6498W        W65759  13.727   5.393  12.571
 6499W        W65760  19.077  29.548  14.770
 6500W        W65761  38.017  25.569   0.784
 6501W        W65762  15.724  23.216  13.986
 6502W        W65763  43.277  11.171  10.992
 6503W        W65764  40.513  30.445  12.434
 6504W        W65765  33.987  19.680  12.508
 6505W        W65766  11.760  10.213   3.300
 6506W        W65767   7.801   8.793   3.766
 6507W        W65768  31.623  25.030  10.423
 6508W        W65769  42.935   3.829   1.847
 6509W        W65770  30.498  28.117  14.436
 6510W        W65771  24.101  19.571  11.941
 6511W        W65772  13.647  37.027  10.431
 6512W        W65773  20.745  31.409  10.524
 6513W        W65774  19.780  42.381   4.275
 6514W        W65775   4.945  35.580   1.772
 6515W        W65776  38.478   4.406  14.432
 6516W        W65777  27.975  30.921   3.646
 6517W        W65778  42.822  11.213   4.721
 6518W        W65779  12.681  24.002  12.904
 6519W        W65780  25.217   5.354  11.388
 6520W        W65781  40.833   2.275   0.928
 6521W        W65782  44.971  44.933  14.824
 6522W        W65783  21.109  29.040  13.822
 6523W        W65784   7.836  22.550   2.664
 6524W        W65785  35.022  25.471   0.967
 6525W        W65786   3.432   2.912   2.828
 6526W        W65787  18.063  41.043   1.901
 6527W        W65788  22.048   8.322   2.795
 6528W        W65789   4.881  12.329   2.322
 6529W        W65790  24.699  34.114  10.093
 6530W        W65791  33.422   7.379   1.927
 6531W        W65792  17.117  14.208   4.123
 6532W        W65793   7.374   2.266  11.491
 6533W        W65794  11.646   3.891   2.771
 6534W        W65795  41.341  17.165   3.776
 6535W        W65796  28.517  13.714   1.428
 6536W        W65797   4.711  32.944  14.430
 6537W        W65798  33.901  12.204  13.918
 6538W        W65799  19.632  34.075   1.426
 6539W        W65800   3.342   4.809   0.843
 6540W        W65801  26.187  20.182   3.857
 6541W        W65802  30.095  38.392   0.270
 6542W        W65803   9.220   2.952  13.959
 6543W        W65804  32.433  29.499   2.344
 6544W        W65805  16.619   1.468   0.349
 6545W        W65806  28.506   9.206   0.747
 6546W        W65807  18.149  18.064  12.915
 6547W        W65808  36.950  10.633  13.850
 6548W        W65809  26.184  43.398   2.866
 6549W        W65810  38.507   2.268   1.350
 6550W        W65811  33.109  29.478  12.471
 6551W        W65812  37.073  35.941   2.395
 6552W        W65813  32.629  37.017   0.364
 6553W        W65814  19.265  35.492  11.531
 6554W        W65815  17.254   5.240   1.326
 6555W        W65816  17.564  29.554  14.969
 6556W        W65817   7.801  31.632   1.218
 6557W        W65818  20.209   7.863  10.480
 6558W        W65819  42.321  37.475  10.914
 6559W        W65820  22.523  21.027  12.985
 6560W        W65821  17.620  11.720   4.673
 6561W        W65822  17.593   6.806  14.773
 6562W        W65823   2.888  22.525  14.280
 6563W        W65824   6.412  23.705   2.782
 6564W        W65825  27.130  12.821   4.268
 6565W        W65826   4.846  26.003  13.339
 6566W        W65827  19.553  35.014  13.333
 6567W        W65828   5.803  12.732  10.469
 6568W        W65829  36.481   5.842  14.412
 6569W        W65830  36.517   0.383   4.355
 6570W        W65831  27.023  44.762   5.680
 6571W        W65832  11.651  23.557  13.468
 6572W        W65833   1.256  36.362   0.279
 6573W        W65834  26.958   1.767  12.516
 6574W        W65835  18.656  37.002   3.206
 6575W        W65836   2.896  42.322  12.562
 6576W        W65837   0.331  24.697   3.153
 6577W        W65838  34.093  39.856   4.163
 6578W        W65839   0.903  26.189   2.337
 6579W        W65840  23.984   2.398  10.124
 6580W        W65841   8.264   4.332  13.433
 6581W        W65842  35.493  13.664   4.644
 6582W        W65843  15.198  16.713   2.675
 6583W        W65844   9.224  27.594   1.801
 6584W        W65845  39.903   0.775   4.217
 6585W        W65846  28.146  10.675  12.566
 6586W        W65847  37.876   6.883   3.743
 6587W        W65848  18.215  23.677  11.577
 6588W        W65849   5.919   3.713   4.220
 6589W        W65850  36.032  18.273  13.852
 6590W        W65851  18.592  26.501  13.388
 6591W        W65852  14.676  44.317   1.833
 6592W        W65853  41.795  44.406  10.480
 6593W        W65854  16.612  12.257  11.386
 6594W        W65855  39.064  30.564  10.146
 6595W        W65856  11.855  22.552   1.781
 6596W        W65857  28.069  44.007   2.251
 6597W        W65858  31.998   1.834   0.926
 6598W        W65859  33.386  13.718   1.367
 6599W        W65860  36.943   4.833  12.575
 6600W        W65861  37.468   0.333  12.460
 6601W        W65862  19.118  30.510  12.863
 6602W        W65863  14.222  35.080  11.072
 6603W        W65864  20.227   4.882   2.245
 6604W        W65865   7.375   9.394  14.852
 6605W        W65866  12.741  39.925   4.339
 6606W        W65867  35.855  24.663   0.246
 6607W        W65868  44.886  14.613   0.437
 6608W        W65869  23.991  27.552  10.608
 6609W        W65870  15.601  37.849   5.095
 6610W        W65871  37.027  35.553   3.801
 6611W        W65872  35.575  11.685   2.699
 6612W        W65873  30.991  37.944   1.393
 6613W        W65874  40.319  40.342  13.903
 6614W        W65875  18.670   8.245   1.790
 6615W        W65876  10.861  32.073   3.235
 6616W        W65877  39.329  33.544  13.994
 6617W        W65878   7.351   1.749  11.486
 6618W        W65879  34.561   9.807  12.388
 6619W        W65880  15.734   6.752   1.893
 6620W        W65881  10.280  39.999   2.399
 6621W        W65882  12.645   4.886   9.982
 6622W        W65883  12.144  30.550   3.661
 6623W        W65884  40.307  18.581  11.013
 6624W        W65885  39.887  40.869  14.486
 6625W        W65886  13.796   5.331  10.515
 6626W        W65887  22.205  24.197   1.715
 6627W        W65888  30.567  10.271  13.548
 6628W        W65889  33.931  31.496  12.859
 6629W        W65890  39.825   2.332   0.767
 6630W        W65891  28.048  30.541   4.257
 6631W        W65892  30.435  23.501   4.647
 6632W        W65893  17.602  31.945  12.999
 6633W        W65894  42.400  14.812  10.537
 6634W        W65895  39.879   8.284  10.975
 6635W        W65896  11.265   6.308   4.630
 6636W        W65897  34.103  33.554  13.510
 6637W        W65898   6.364   4.266  11.039
 6638W        W65899  29.666  26.528  11.504
 6639W        W65900   6.256  27.006   3.197
 6640W        W65901   5.820  43.289   4.160
 6641W        W65902  18.123  24.141   3.167
 6642W        W65903   7.850  36.584   1.935
 6643W        W65904  32.520  37.491   1.279
 6644W        W65905  19.114  27.660   0.786
 6645W        W65906  36.548   0.391  13.961
 6646W        W65907  29.044  21.133   1.868
 6647W        W65908  14.319  40.930   0.947
 6648W        W65909  21.585  13.749  14.409
 6649W        W65910  23.126  21.236   1.745
 6650W        W65911  36.939  13.788  11.571
 6651W        W65912   5.360  32.597   1.378
 6652W        W65913  24.481  11.253   2.751
 6653W        W65914  12.693  11.133   0.367
 6654W        W65915  44.812  42.790   0.912
 6655W        W65916   1.945   8.279   2.351
 6656W        W65917  35.082   4.743   2.296
 6657W        W65918  32.584   3.313  11.465
 6658W        W65919  24.725  39.823   0.798
 6659W        W65920  30.526  24.576  12.049
 6660W        W65921   1.351  41.795   1.821
 6661W        W65922  16.656  17.067   3.151
 6662W        W65923  37.054   9.330  11.889
 6663W        W65924   2.458  34.503  14.916
 6664W        W65925  22.142  21.575  11.582
 6665W        W65926   1.844  27.961   1.827
 6666W        W65927  20.036  11.305   4.767
 6667W        W65928  27.130   9.800   2.337
 6668W        W65929  44.421  42.454  12.345
 6669W        W65930  24.530  40.026  11.455
 6670W        W65931  27.944  27.504   3.345
 6671W        W65932  29.104  41.513   3.658
 6672W        W65933  34.424  32.451   4.822
 6673W        W65934   6.295  12.250   3.856
 6674W        W65935  40.030   8.382  11.438
 6675W        W65936  14.307  39.417  13.493
 6676W        W65937   0.798  39.839   2.681
 6677W        W65938  20.597   3.717   1.880
 6678W        W65939  22.151   3.725  11.111
 6679W        W65940  40.426  21.582   3.644
 6680W        W65941  15.788   7.348  14.356
 6681W        W65942  40.810  20.586   1.841
 6682W        W65943  25.054  24.176   3.830
 6683W        W65944   3.337  24.712   4.230
 6684W        W65945   3.877  33.958  12.989
 6685W        W65946  43.277   8.352  11.066
 6686W        W65947  15.600  43.852  14.468
 6687W        W65948  25.663  18.635  10.513
 6688W        W65949  40.928   1.240   2.417
 6689W        W65950   3.303   0.894  14.378
 6690W        W65951  11.295  42.472   4.606
 6691W        W65952  24.104  16.707  10.958
 6692W        W65953  41.419   7.696   4.196
 6693W        W65954  13.667  39.504  12.353
 6694W        W65955   3.353  27.477   4.199
 6695W        W65956  44.766  21.051   1.754
 6696W        W65957  29.029  24.978  13.427
 6697W        W65958  39.340  40.958   3.762
 6698W        W65959  17.649  11.762   3.811
 6699W        W65960  34.951   3.412  12.907
 6700W        W65961  29.985  23.606   4.628
 6701W        W65962  33.997  36.965  13.004
 6702W        W65963  20.129  24.016  11.914
 6703W        W65964  11.270  12.194  12.362
 6704W        W65965  11.347  13.608  13.317
 6705W        W65966  25.549  38.384  14.901
 6706W        W65967  30.479  13.219   2.903
 6707W        W65968  35.471  37.496  13.335
 6708W        W65969  26.493  30.991   9.978
 6709W        W65970  13.781  41.445   1.225
 6710W        W65971  27.079  36.589  14.919
 6711W        W65972  15.767  10.874  14.457
 6712W        W65973  32.391  42.507   0.275
 6713W        W65974   2.266  15.674  11.609
 6714W        W65975   7.781   5.797  14.805
 6715W        W65976  43.857  18.604   4.817
 6716W        W65977   5.813  16.568  13.919
 6717W        W65978  30.963  19.194   4.723
 6718W        W65979  21.044  23.717   5.210
 6719W        W65980  20.123  44.914   0.425
 6720W        W65981  18.616  33.533  13.310
 6721W        W65982  32.393  40.445   3.706
 6722W        W65983  21.641  31.422  10.898
 6723W        W65984  27.979   0.900   5.610
 6724W        W65985   4.881  25.679  13.949
 6725W        W65986  10.305  18.295  11.026
 6726W        W65987  12.223  26.492  14.870
 6727W        W65988  18.615  43.845   4.786
 6728W        W65989  31.909  37.012  12.386
 6729W        W65990  28.590  19.143  12.897
 6730W        W65991  31.023   2.889  13.426
 6731W        W65992  24.561  18.642  12.060
 6732W        W65993  40.860   2.262  13.453
 6733W        W65994   3.386  26.072   0.452
 6734W        W65995  41.511  34.497   1.722
 6735W        W65996  37.061   2.881   4.696
 6736W        W65997  39.005  41.442  12.831
 6737W        W65998   1.897  33.886  13.450
 6738W        W65999  28.008  13.249   1.755
 6739W        W66000  40.335  41.449   3.299
 6740W        W66001   2.297  17.138  10.406
 6741W        W66002  31.041  30.447  11.514
 6742W        W66003   9.767  26.205   0.760
 6743W        W66004  37.556  28.649  11.594
 6744W        W66005  11.286  38.919  10.564
 6745W        W66006   3.342   5.800  10.895
 6746W        W66007   9.267  39.318   0.779
 6747W        W66008   1.835  29.124   1.853
 6748W        W66009  24.119   0.448   0.434
 6749W        W66010   4.450  44.767   0.837
 6750W        W66011  20.573  10.806   4.719
 6751W        W66012  18.596  17.144  12.021
 6752W        W66013  11.806  44.791   1.728
 6753W        W66014  16.804  11.828  13.317
 6754W        W66015  16.620  29.014  13.537
 6755W        W66016  26.492   3.406  12.059
 6756W        W66017  33.439  41.377   4.658
 6757W        W66018   0.476  23.021  12.971
 6758W        W66019   9.724  16.304   2.836
 6759W        W66020  10.365  18.284   3.364
 6760W        W66021   6.877  38.484  14.284
 6761W        W66022  16.730  41.944  10.901
 6762W        W66023   2.787  12.727   2.758
 6763W        W66024  37.514  10.736   3.763
 6764W        W66025   8.832  11.280   4.261
 6765W        W66026  29.435  22.685   2.862
 6766W        W66027  38.990  29.623  13.970
 6767W        W66028  24.107  16.614   2.235
 6768W        W66029  38.517  15.299   2.790
 6769W        W66030  31.521  12.214  10.968
 6770W        W66031  18.730  31.548   1.361
 6771W        W66032  10.688  25.211   0.958
 6772W        W66033   2.442   1.350   0.851
 6773W        W66034  20.178  18.564   3.706
 6774W        W66035  27.508  32.945   2.379
 6775W        W66036  40.894  14.321   4.283
 6776W        W66037   3.407   3.438  10.631
 6777W        W66038  42.027   4.904   5.216
 6778W        W66039  26.983   1.375  11.873
 6779W        W66040  40.924  42.435   0.772
 6780W        W66041  35.474  36.991  13.882
 6781W        W66042  13.798  27.688   2.367
 6782W        W66043  25.121  23.201   2.195
 6783W        W66044  23.735  42.788  10.561
 6784W        W66045  27.995   7.688   1.883
 6785W        W66046  26.530   0.480  12.498
 6786W        W66047  31.919  25.526   4.252
 6787W        W66048  42.778  14.783  14.769
 6788W        W66049   4.810   9.824   2.223
 6789W        W66050   3.952  26.640  11.080
 6790W        W66051  33.048  18.733  13.882
 6791W        W66052   9.722  29.015  11.385
 6792W        W66053  10.858  20.755  11.566
 6793W        W66054  34.051  17.092   4.221
 6794W        W66055  15.693   7.851  11.488
 6795W        W66056   6.249  24.982   3.734
 6796W        W66057  17.596  37.966  11.394
 6797W        W66058  25.039  34.015   1.809
 6798W        W66059  22.709   2.347   1.756
 6799W        W66060   8.256  15.267  13.547
 6800W        W66061  26.500   6.282   1.723
 6801W        W66062  33.400  27.566  10.959
 6802W        W66063  25.186   6.185   0.276
 6803W        W66064  31.593  40.434   0.305
 6804W        W66065  41.941  19.696  12.981
 6805W        W66066   9.814  30.955   0.892
 6806W        W66067   9.882  41.021  10.930
 6807W        W66068  42.434  30.095   5.654
 6808W        W66069  24.104   8.263  13.028
 6809W        W66070  37.406  18.567   2.408
 6810W        W66071  44.959   9.685   3.717
 6811W        W66072  35.012  40.925   1.789
 6812W        W66073  13.273   3.804   1.322
 6813W        W66074  24.110   9.736   4.838
 6814W        W66075   9.252  10.294  13.357
 6815W        W66076  34.388  26.958   3.669
 6816W        W66077   6.922   6.815   0.878
 6817W        W66078  15.638  23.165  14.904
 6818W        W66079  22.584  15.200  13.420
 6819W        W66080   7.706  42.893  10.509
 6820W        W66081   3.274  39.497  13.970
 6821W        W66082  44.794  36.964  11.881
 6822W        W66083   3.789   9.885  12.482
 6823W        W66084   6.779   6.732   4.816
 6824W        W66085  33.480  24.209  12.443
 6825W        W66086  39.850  24.663  14.386
 6826W        W66087  27.113  31.915  14.935
 6827W        W66088  40.809  42.936   0.430
 6828W        W66089  17.170  42.821  12.057
 6829W        W66090  38.974  44.836   5.206
 6830W        W66091  26.652  19.618  11.025
 6831W        W66092  23.046  35.103  10.569
 6832W        W66093   7.241  35.408   0.245
 6833W        W66094   5.795  24.486  12.520
 6834W        W66095  23.705  40.318   4.801
 6835W        W66096  23.090   8.378   0.352
 6836W        W66097  20.210  32.026   5.318
 6837W        W66098  21.046  22.579   0.286
 6838W        W66099  15.110  29.923  11.607
 6839W        W66100  12.143  33.567   4.229
 6840W        W66101  41.342  26.538   5.272
 6841W        W66102  16.681  24.667  10.004
 6842W        W66103  16.240  43.492   2.341
 6843W        W66104  14.148  26.136   2.795
 6844W        W66105  31.145  37.852   2.184
 6845W        W66106   4.872  31.412  13.403
 6846W        W66107   0.776  20.261  12.031
 6847W        W66108  12.280  14.275   3.848
 6848W        W66109  11.289  13.160   3.310
 6849W        W66110   8.160   4.330   2.843
 6850W        W66111  25.094   7.380   0.895
 6851W        W66112  14.603  16.293  14.515
 6852W        W66113  26.020  27.656  10.907
 6853W        W66114   8.221   8.847   9.533
 6854W        W66115  30.117  13.609  12.047
 6855W        W66116  12.667   3.400   0.770
 6856W        W66117  17.211  18.694  10.959
 6857W        W66118  30.049  39.888   3.848
 6858W        W66119  20.548  19.259   0.928
 6859W        W66120  16.235  14.266  12.884
 6860W        W66121  23.018   9.282   4.683
 6861W        W66122  23.172  10.644   4.719
 6862W        W66123  30.510  44.498  10.492
 6863W        W66124  36.471  21.529  14.298
 6864W        W66125  25.216  34.545  11.441
 6865W        W66126  20.082  17.749   0.450
 6866W        W66127  40.325  30.580  10.458
 6867W        W66128  38.870  41.845  10.439
 6868W        W66129  36.371   9.845  14.443
 6869W        W66130  13.733  27.172   1.795
 6870W        W66131  30.022  31.562  14.006
 6871W        W66132   1.338  37.361   0.753
 6872W        W66133  32.975  21.085   2.762
 6873W        W66134   6.401  37.982  13.887
 6874W        W66135  25.060  28.645   3.809
 6875W        W66136   4.360  14.758   3.653
 6876W        W66137  32.951  43.424  11.908
 6877W        W66138  29.528  17.563   1.325
 6878W        W66139  22.511  44.888  12.501
 6879W        W66140  38.937  44.452   0.848
 6880W        W66141  39.831  38.466  11.109
 6881W        W66142   2.267   4.709   4.779
 6882W        W66143  13.118  27.951   5.207
 6883W        W66144  37.429   3.763  12.034
 6884W        W66145  33.454   7.228   4.667
 6885W        W66146  23.001   4.265  13.521
 6886W        W66147  13.150  11.365   0.399
 6887W        W66148   7.347  41.017  12.876
 6888W        W66149  34.938  32.964   1.889
 6889W        W66150   2.832  41.021  12.973
 6890W        W66151  10.334  19.587   1.411
 6891W        W66152  39.924  18.740  12.511
 6892W        W66153  18.591  22.205  13.941
 6893W        W66154  33.065  31.923   4.805
 6894W        W66155   7.393   6.335  10.540
 6895W        W66156   0.788  30.513   0.319
 6896W        W66157  38.889  13.324  14.898
 6897W        W66158  44.274  31.498   4.652
 6898W        W66159  22.109  10.641   0.273
 6899W        W66160  23.056   3.714  12.045
 6900W        W66161   4.903  16.620  13.860
 6901W        W66162  34.390   6.283   9.980
 6902W        W66163  24.714   2.458  12.452
 6903W        W66164  32.460  12.622  14.471
 6904W        W66165  21.617   5.908  14.816
 6905W        W66166   9.852   7.816   3.715
 6906W        W66167   6.273  41.958   2.396
 6907W        W66168  18.286  33.086   2.191
 6908W        W66169  20.585  34.375   2.373
 6909W        W66170  41.857  35.954  12.556
 6910W        W66171  44.924  33.451  14.420
 6911W        W66172  28.041  10.359  11.899
 6912W        W66173   7.847  28.944  11.510
 6913W        W66174   0.788   9.836  14.844
 6914W        W66175  27.522  28.578   4.299
 6915W        W66176  24.981   7.682  11.556
 6916W        W66177  21.243   7.271  10.954
 6917W        W66178  30.567  25.979  10.558
 6918W        W66179  31.415  16.108  11.402
 6919W        W66180  19.709  26.998   3.835
 6920W        W66181  43.958  31.566  14.006
 6921W        W66182  24.111  28.947   3.302
 6922W        W66183  27.510  28.586   2.207
 6923W        W66184  36.445  33.567   2.725
 6924W        W66185  41.383  22.501   4.721
 6925W        W66186  40.891  26.482  11.948
 6926W        W66187   6.890  32.056  13.540
 6927W        W66188  10.647  41.845   0.800
 6928W        W66189  26.568  34.599  11.972
 6929W        W66190  31.932  12.666   2.902
 6930W        W66191  32.993  27.455  13.014
 6931W        W66192  28.672  20.685  11.038
 6932W        W66193  24.016   3.276   0.765
 6933W        W66194  35.519  21.213   3.867
 6934W        W66195  10.681  32.400  12.367
 6935W        W66196  14.597   9.832  14.825
 6936W        W66197  19.702  23.617  11.072
 6937W        W66198  25.124  34.052  13.920
 6938W        W66199   9.196   7.381   2.285
 6939W        W66200  14.251  10.345   4.763
 6940W        W66201  37.477   2.920  13.976
 6941W        W66202  43.964  35.590   3.867
 6942W        W66203  28.042  15.598   1.821
 6943W        W66204  42.943  18.173  12.427
 6944W        W66205  38.389  12.128   4.144
 6945W        W66206   3.908  33.407  10.546
 6946W        W66207  17.768  24.973  14.006
 6947W        W66208  32.475  25.030   2.267
 6948W        W66209   8.222   5.779   3.215
 6949W        W66210   5.885  42.368   3.361
 6950W        W66211  37.928   4.900  11.588
 6951W        W66212  21.036  20.703  12.864
 6952W        W66213  39.490  19.539   3.291
 6953W        W66214  38.933  39.406  13.331
 6954W        W66215  41.931  34.570   3.323
 6955W        W66216  30.984   7.744   2.869
 6956W        W66217  38.533  18.691   2.811
 6957W        W66218  20.692  30.063  12.382
 6958W        W66219  41.858  15.595  10.048
 6959W        W66220   0.982  39.375  14.927
 6960W        W66221  29.468   6.229  12.520
 6961W        W66222   7.338  29.664   3.718
 6962W        W66223  29.122  30.092  13.943
 6963W        W66224   7.402  38.354   4.752
 6964W        W66225  23.502  19.163  13.994
 6965W        W66226  16.579  29.118   5.302
 6966W        W66227   7.337  32.552  12.379
 6967W        W66228  30.412  28.507  12.904
 6968W        W66229  36.555  19.622   3.378
 6969W        W66230  14.616  20.029   3.759
 6970W        W66231   7.826   2.397  14.461
 6971W        W66232  28.652  33.592  11.993
 6972W        W66233  27.009  27.563   5.584
 6973W        W66234  39.028  13.189  12.432
 6974W        W66235  25.170  35.443   3.370
 6975W        W66236  11.257  27.634   2.396
 6976W        W66237  34.084  26.522   0.424
 6977W        W66238   7.380   1.400   2.289
 6978W        W66239  38.061  32.398  14.516
 6979W        W66240  41.004  15.668   5.308
 6980W        W66241  15.306  15.310  13.462
 6981W        W66242  33.418  23.121  13.516
 6982W        W66243  41.874  37.934   0.351
 6983W        W66244  22.682   5.413  12.413
 6984W        W66245  23.172  36.496  12.079
 6985W        W66246  23.114  15.627   0.802
 6986W        W66247  38.533  19.761  11.047
 6987W        W66248   1.895   4.866   4.307
 6988W        W66249  14.734  34.436  13.486
 6989W        W66250  10.151   3.352  14.011
 6990W        W66251   1.949  30.921   4.731
 6991W        W66252  36.879   7.296   2.729
 6992W        W66253   8.258  13.803   3.660
 6993W        W66254  29.166   9.277   0.474
 6994W        W66255  25.591   6.224   9.962
 6995W        W66256  42.292  27.524  14.275
 6996W        W66257  23.082  23.175  12.092
 6997W        W66258  25.084  18.193   4.703
 6998W        W66259  42.516  42.911  13.341
 6999W        W66260  17.726   9.765   2.709
 7000W        W66261  33.891  30.977   4.751
 7001W        W66262  17.155   8.766   3.672
 7002W        W66263  35.010  44.420   0.251
 7003W        W66264  41.025  37.850   0.866
 7004W        W66265  33.927  37.563   3.201
 7005W        W66266  25.113  34.977   1.387
 7006W        W66267  18.208  28.126   1.252
 7007W        W66268  33.914   1.317  13.999
 7008W        W66269  18.218   2.945  10.529
 7009W        W66270  15.663   1.732   4.328
 7010W        W66271   9.319  33.424   0.842
 7011W        W66272  25.532  17.701  12.479
 7012W        W66273   3.358  20.117   2.811
 7013W        W66274   5.767  11.259   2.706
 7014W        W66275  11.854  15.286   2.746
 7015W        W66276  19.095  41.007  14.962
 7016W        W66277   7.349  44.917  10.960
 7017W        W66278  31.519   0.804   1.240
 7018W        W66279  32.616  19.208  10.447
 7019W        W66280   8.813   5.926  11.890
 7020W        W66281  25.655  20.632  10.926
 7021W        W66282  24.059  23.239  12.341
 7022W        W66283   1.810  44.817  12.541
 7023W        W66284  32.481  26.060   3.650
 7024W        W66285  15.810  38.439   2.727
 7025W        W66286  17.214  44.496   2.898
 7026W        W66287  39.049  18.753  10.440
 7027W        W66288  19.767   0.389   1.868
 7028W        W66289  24.662   3.415   2.198
 7029W        W66290  26.034  22.534  13.532
 7030W        W66291  23.591  31.969   1.927
 7031W        W66292  38.926  22.111  11.525
 7032W        W66293  43.819   1.400  14.323
 7033W        W66294  37.375  32.033  14.358
 7034W        W66295  27.120  39.959   0.431
 7035W        W66296  15.320  15.822  11.453
 7036W        W66297  10.737  29.140   4.672
 7037W        W66298   9.670  24.631   3.222
 7038W        W66299  43.362  10.331   0.768
 7039W        W66300  12.191  11.327  13.969
 7040W        W66301  44.769   2.283  10.461
 7041W        W66302  22.022  22.578  14.280
 7042W        W66303  19.679  42.416   1.232
 7043W        W66304  27.166  27.104   3.815
 7044W        W66305  40.317  31.469   3.279
 7045W        W66306   0.753  26.644  13.852
 7046W        W66307  42.449  13.605   0.738
 7047W        W66308  39.387  27.090   2.855
 7048W        W66309  27.951  13.669  12.065
 7049W        W66310   5.339  43.433   3.688
 7050W        W66311  32.615   9.694   3.330
 7051W        W66312  15.248   9.774  12.413
 7052W        W66313  35.409   0.848   0.293
 7053W        W66314  23.048  13.805   1.430
 7054W        W66315  44.370  20.560  11.515
 7055W        W66316  12.152  16.676  13.333
 7056W        W66317   3.776  41.031  14.952
 7057W        W66318   5.312  29.112   1.848
 7058W        W66319  10.180  18.129   3.750
 7059W        W66320  23.112  36.094  13.886
 7060W        W66321  15.088  21.186   4.750
 7061W        W66322  17.794  35.894   0.322
 7062W        W66323  39.043  24.646  13.537
 7063W        W66324  11.834  12.214   4.603
 7064W        W66325  37.347   4.247  13.883
 7065W        W66326  28.627  33.068  12.034
 7066W        W66327  43.769  20.601   3.286
 7067W        W66328  38.996  26.154  14.875
 7068W        W66329   0.267  18.187  13.339
 7069W        W66330  20.581  14.706  11.602
 7070W        W66331  43.850  10.223  13.954
 7071W        W66332  41.329   6.778  11.992
 7072W        W66333   0.356   0.417   2.723
 7073W        W66334  16.599  15.699   1.232
 7074W        W66335  21.154   8.401   2.684
 7075W        W66336  21.736  37.927  11.123
 7076W        W66337  11.232  21.046  10.918
 7077W        W66338  13.146  33.454  12.884
 7078W        W66339  32.062  25.979   4.121
 7079W        W66340  37.432   1.323   1.771
 7080W        W66341   0.908  10.326  11.104
 7081W        W66342   7.749   0.751   4.288
 7082W        W66343  28.623  43.407  11.035
 7083W        W66344  36.490  40.356  10.600
 7084W        W66345  32.505  25.011   4.253
 7085W        W66346  13.834  31.089   5.223
 7086W        W66347  16.812  23.061  10.509
 7087W        W66348  42.507  39.400  10.489
 7088W        W66349  25.498  40.314  13.442
 7089W        W66350  29.644  11.732  11.523
 7090W        W66351   0.293  28.093  14.796
 7091W        W66352  34.446   0.762  12.825
 7092W        W66353  16.248  44.259  11.969
 7093W        W66354   9.848  31.511  14.767
 7094W        W66355  15.295   2.807   5.664
 7095W        W66356   9.846  29.607  13.342
 7096W        W66357   6.398  10.716  13.428
 7097W        W66358   5.887  23.659   0.458
 7098W        W66359  34.114  43.883   3.153
 7099W        W66360  40.981  31.899  14.871
 7100W        W66361  23.577  17.209   0.359
 7101W        W66362  20.261  28.568  11.569
 7102W        W66363  25.192  23.992   1.430
 7103W        W66364  30.522   0.319   0.879
 7104W        W66365  13.251  12.174  14.779
 7105W        W66366  34.020  40.022  10.482
 7106W        W66367  25.499  19.773   0.947
 7107W        W66368  29.610  17.569   0.381
 7108W        W66369  22.638  13.831  12.025
 7109W        W66370  28.979  43.513   3.353
 7110W        W66371  41.810  40.930  12.090
 7111W        W66372  29.956   5.822   2.195
 7112W        W66373  43.907  28.454  10.602
 7113W        W66374  35.049  16.796  13.444
 7114W        W66375  27.943   7.223  14.318
 7115W        W66376   5.831  34.979   0.911
 7116W        W66377  36.042  27.011   3.234
 7117W        W66378  22.576   6.311  14.389
 7118W        W66379   6.273  27.650  13.353
 7119W        W66380  25.568  17.738  10.551
 7120W        W66381  36.041   4.919  12.391
 7121W        W66382   9.150   7.413   3.768
 7122W        W66383  39.031  30.523  11.947
 7123W        W66384  15.599  36.997  13.029
 7124W        W66385  36.032  23.687  12.436
 7125W        W66386  16.228  17.783  10.419
 7126W        W66387  15.801  40.333  11.398
 7127W        W66388  18.285  18.777  12.932
 7128W        W66389  37.475  35.036   4.348
 7129W        W66390  21.239  33.514   1.877
 7130W        W66391   0.821  18.687  14.375
 7131W        W66392   0.417  28.636  11.956
 7132W        W66393  17.609  19.580  11.990
 7133W        W66394  11.136   2.237  10.906
 7134W        W66395  33.422  21.257  12.039
 7135W        W66396  38.940  34.946  10.916
 7136W        W66397  31.981  14.195  13.823
 7137W        W66398  19.561  33.987  12.062
 7138W        W66399  33.552  30.120   1.285
 7139W        W66400  26.522  33.965  11.601
 7140W        W66401  44.839  10.382  13.346
 7141W        W66402  41.481  31.964  14.015
 7142W        W66403  42.943  21.529   2.339
 7143W        W66404  14.663  32.603   4.205
 7144W        W66405  19.235  23.178  11.891
 7145W        W66406   3.940  11.143   3.277
 7146W        W66407   0.873  15.594  11.091
 7147W        W66408  16.118  36.028   1.831
 7148W        W66409  21.673  26.190   4.331
 7149W        W66410  19.720   2.790  11.582
 7150W        W66411  38.451   3.409   4.337
 7151W        W66412   6.280  22.185  13.927
 7152W        W66413  23.570  32.010   0.923
 7153W        W66414  19.126  10.296  12.407
 7154W        W66415  20.140  42.457   2.236
 7155W        W66416  19.182  33.970  10.916
 7156W        W66417  11.307  21.602  11.882
 7157W        W66418   1.381  44.996   3.702
 7158W        W66419  41.501   9.250  13.397
 7159W        W66420  43.930  30.473   4.182
 7160W        W66421  44.424  12.314   4.236
 7161W        W66422  15.614  42.824  11.914
 7162W        W66423  38.397   9.284   3.179
 7163W        W66424  33.874   2.802   3.239
 7164W        W66425  14.636   1.976  10.639
 7165W        W66426   0.358  33.081  11.520
 7166W        W66427  39.402   1.354   1.740
 7167W        W66428  25.019  10.874  12.852
 7168W        W66429  13.247   2.892  14.292
 7169W        W66430  13.693  23.126   4.797
 7170W        W66431   5.213   6.331  11.877
 7171W        W66432  12.611   7.762  12.903
 7172W        W66433  24.084  24.542  14.357
 7173W        W66434  30.436  10.323   1.415
 7174W        W66435  29.598  23.557   0.874
 7175W        W66436  30.009  27.117  12.835
 7176W        W66437  16.138  35.090  14.510
 7177W        W66438  40.945  35.008   2.350
 7178W        W66439  24.619  25.963   3.775
 7179W        W66440  30.933  37.946   1.849
 7180W        W66441  33.975  44.269   1.347
 7181W        W66442  43.287  24.703   1.233
 7182W        W66443  29.162   6.733   2.781
 7183W        W66444  36.532  10.355  12.954
 7184W        W66445  14.643  35.938  10.974
 7185W        W66446  13.806  30.449  10.043
 7186W        W66447  41.898   5.807  10.008
 7187W        W66448  28.547  15.805  13.524
 7188W        W66449   2.420  25.000   4.322
 7189W        W66450   5.702   3.768   2.267
 7190W        W66451  10.184  21.165   3.214
 7191W        W66452  19.074  27.666   2.405
 7192W        W66453  28.005  29.105   2.835
 7193W        W66454  20.550  23.079  13.898
 7194W        W66455  16.231   4.863   5.635
 7195W        W66456  13.782  26.626   2.198
 7196W        W66457   5.317   9.677  13.469
 7197W        W66458   3.833  38.045   2.840
 7198W        W66459  36.080  32.119  12.472
 7199W        W66460  15.184  44.297  14.472
 7200W        W66461   0.442  21.044   1.742
 7201W        W66462  36.382   6.283  11.996
 7202W        W66463  22.035  17.082   0.388
 7203W        W66464  21.750  29.099   4.121
 7204W        W66465  32.558   3.766   0.732
 7205W        W66466  34.531  22.103  14.895
 7206W        W66467   9.710   8.161  12.864
 7207W        W66468   6.824  15.201   3.200
 7208W        W66469   9.810   0.881  14.456
 7209W        W66470  30.494  39.037   0.436
 7210W        W66471   2.447   2.405   4.147
 7211W        W66472  20.199  34.456  11.050
 7212W        W66473  41.850   0.897   1.330
 7213W        W66474   9.878  32.479   1.376
 7214W        W66475  22.501  41.491   1.724
 7215W        W66476  31.152   9.663   4.821
 7216W        W66477  10.310  22.611  12.464
 7217W        W66478  29.003  10.746   1.816
 7218W        W66479   9.754  15.170   3.699
 7219W        W66480  39.892  34.376   0.480
 7220W        W66481  29.976  36.851  10.467
 7221W        W66482  43.878  33.928   4.651
 7222W        W66483  21.544   4.408  11.882
 7223W        W66484  33.004  40.797   1.246
 7224W        W66485   8.201  39.923   4.711
 7225W        W66486  25.965  22.512   3.235
 7226W        W66487   3.908   2.726  10.569
 7227W        W66488   9.796  18.281   4.681
 7228W        W66489  26.647  21.223  14.935
 7229W        W66490  12.668  39.878  13.935
 7230W        W66491   9.839  22.098  13.816
 7231W        W66492   0.966  30.947   4.189
 7232W        W66493  12.321  43.424   2.805
 7233W        W66494   7.800  17.258  12.352
 7234W        W66495  27.457  23.182   3.374
 7235W        W66496  34.478  30.638   2.361
 7236W        W66497  14.154  36.485  11.890
 7237W        W66498   4.399  38.552   1.843
 7238W        W66499  15.650  40.530   2.312
 7239W        W66500  26.628  21.616  11.942
 7240W        W66501   1.295  26.012   0.399
 7241W        W66502  20.067  33.513  12.985
 7242W        W66503   1.977  28.657  13.815
 7243W        W66504   2.865   7.900  14.495
 7244W        W66505  16.568  14.623  11.107
 7245W        W66506  25.702  39.997  11.523
 7246W        W66507  16.812  44.368  11.378
 7247W        W66508  24.556  18.110   4.344
 7248W        W66509  35.053  43.940  11.012
 7249W        W66510   2.940  43.430   4.133
 7250W        W66511  32.582  33.112  13.972
 7251W        W66512  11.228  24.496  13.476
 7252W        W66513  14.629  24.175  11.569
 7253W        W66514  43.510   5.290   2.702
 7254W        W66515  21.046  28.943  11.036
 7255W        W66516  10.737  11.128   4.346
 7256W        W66517  39.877  22.216  13.486
 7257W        W66518  19.690  11.837   2.781
 7258W        W66519   3.445  20.095   1.279
 7259W        W66520   5.329  33.535  14.759
 7260W        W66521  20.738  10.711  13.965
 7261W        W66522  23.682   5.828   0.412
 7262W        W66523  15.625  10.172   2.359
 7263W        W66524  21.704  41.842   2.256
 7264W        W66525  29.503   2.453   3.744
 7265W        W66526  20.179  33.053   3.650
 7266W        W66527   8.182   9.648   9.666
 7267W        W66528   3.453   2.913   3.733
 7268W        W66529  44.955  37.838   0.268
 7269W        W66530  10.327   7.361  10.613
 7270W        W66531  34.494  42.462   3.157
 7271W        W66532  34.398  26.596  12.088
 7272W        W66533  10.301  32.942  10.935
 7273W        W66534  43.005  25.700   5.685
 7274W        W66535  15.771  26.596  13.938
 7275W        W66536  16.096   4.283  14.382
 7276W        W66537   8.395  10.676  10.544
 7277W        W66538  10.711   4.442   2.692
 7278W        W66539  17.091   4.367   3.761
 7279W        W66540  26.531  13.107   0.318
 7280W        W66541  44.303  30.476  12.834
 7281W        W66542   8.886  20.609  14.322
 7282W        W66543  18.109   3.422   0.388
 7283W        W66544  43.479  21.677   5.283
 7284W        W66545  17.767   2.295   2.733
 7285W        W66546  33.607  38.958   2.414
 7286W        W66547   8.233  44.912   4.629
 7287W        W66548   4.313  19.682   0.311
 7288W        W66549  16.792   8.206  14.843
 7289W        W66550   1.780  35.516   2.739
 7290W        W66551  20.577  14.611  13.309
 7291W        W66552  32.445  11.216  13.541
 7292W        W66553   2.229  29.663  11.596
 7293W        W66554  39.839   7.210  14.417
 7294W        W66555  33.460  18.735   4.705
 7295W        W66556  25.588   9.732  10.544
 7296W        W66557  21.228   9.236   4.160
 7297W        W66558   3.229  15.097  12.565
 7298W        W66559   8.709  21.182   1.917
 7299W        W66560   3.439  14.217  11.039
 7300W        W66561  11.781  19.564   0.260
 7301W        W66562   9.302   8.667  13.317
 7302W        W66563  24.133  30.016   5.581
 7303W        W66564  40.024  22.016   4.243
 7304W        W66565  42.296  27.675   4.187
 7305W        W66566  10.288   3.777  12.403
 7306W        W66567   2.377  41.532  12.369
 7307W        W66568   8.204  31.538   4.773
 7308W        W66569  28.033  29.502   1.249
 7309W        W66570  36.477  31.536  12.944
 7310W        W66571  12.786  14.237  14.328
 7311W        W66572   2.760   5.206   2.276
 7312W        W66573  24.166  42.006  13.350
 7313W        W66574  44.287  41.954   1.831
 7314W        W66575  16.196  15.091  12.983
 7315W        W66576   3.217  30.942  13.956
 7316W        W66577  25.653   9.350   2.883
 7317W        W66578  16.742   7.320  13.978
 7318W        W66579  36.050  25.966  11.856
 7319W        W66580  20.572  39.814   4.682
 7320W        W66581  19.126  37.577  12.480
 7321W        W66582   0.940  33.454  12.865
 7322W        W66583  39.338  24.637   3.361
 7323W        W66584  23.104  32.926  11.397
 7324W        W66585  38.878   1.733   3.689
 7325W        W66586   9.842  13.105  12.921
 7326W        W66587  43.015  35.469  11.574
 7327W        W66588   2.333  23.230  12.945
 7328W        W66589  22.674  24.147   4.801
 7329W        W66590  31.145  42.824   2.851
 7330W        W66591  24.192  34.062   3.370
 7331W        W66592  21.524   6.225  14.971
 7332W        W66593  17.631  30.481  12.901
 7333W        W66594   0.941  36.026  10.500
 7334W        W66595  16.302  11.313   4.713
 7335W        W66596  27.155   3.883  13.872
 7336W        W66597  27.608   3.334  14.966
 7337W        W66598  33.919  23.999  11.492
 7338W        W66599  22.553   8.823   1.772
 7339W        W66600  38.986  15.294   4.612
 7340W        W66601  22.999  27.162   4.224
 7341W        W66602  25.143  33.104  13.496
 7342W        W66603  29.525  27.136  14.427
 7343W        W66604   2.958  44.795  13.041
 7344W        W66605  41.913  22.030  13.460
 7345W        W66606  35.961  24.075  13.932
 7346W        W66607  22.563  11.649  11.545
 7347W        W66608  40.385  40.894   4.709
 7348W        W66609  25.171  40.378  14.325
 7349W        W66610  14.805  31.640  11.127
 7350W        W66611  26.108   9.760  13.042
 7351W        W66612  37.065   9.887   4.808
 7352W        W66613   6.736  19.232  14.025
 7353W        W66614  38.431  32.117   1.324
 7354W        W66615  23.097   7.359  14.345
 7355W        W66616   3.784  12.320  11.590
 7356W        W66617  38.530  10.162   3.165
 7357W        W66618  16.588  35.455  11.991
 7358W        W66619  12.134   1.338   1.835
 7359W        W66620   7.395  11.285   1.335
 7360W        W66621  38.551  33.380   3.868
 7361W        W66622  40.485  11.347  10.487
 7362W        W66623  44.839  22.153   3.754
 7363W        W66624  18.715  30.019  13.443
 7364W        W66625  33.908  44.816  11.921
 7365W        W66626  38.979   1.474   2.886
 7366W        W66627  14.673  35.456  13.980
 7367W        W66628   1.973  31.580  11.919
 7368W        W66629   7.793   4.765   2.860
 7369W        W66630  17.639   3.936  13.416
 7370W        W66631  13.750  12.694   2.370
 7371W        W66632  12.161  19.096  13.812
 7372W        W66633   7.215  25.018  12.046
 7373W        W66634  15.112  20.745  13.909
 7374W        W66635   8.297  11.866  11.577
 7375W        W66636  34.522  43.905   2.180
 7376W        W66637  20.636  14.280   1.385
 7377W        W66638   4.409  36.364  14.333
 7378W        W66639   0.773  13.625   0.325
 7379W        W66640  26.094  23.206  10.645
 7380W        W66641  21.155   1.967   4.668
 7381W        W66642  27.959  13.835   9.993
 7382W        W66643   4.813  31.412   0.915
 7383W        W66644   4.289  28.655  11.961
 7384W        W66645  18.780   6.696  12.986
 7385W        W66646  43.477   0.910  14.831
 7386W        W66647   7.244   3.354  12.934
 7387W        W66648  23.715  13.178   3.159
 7388W        W66649   5.839   9.268   3.239
 7389W        W66650  44.386   5.893  14.775
 7390W        W66651   1.791  26.100   1.250
 7391W        W66652  19.667  29.126   0.768
 7392W        W66653   2.346  14.137   1.847
 7393W        W66654  21.106  40.388   2.879
 7394W        W66655  13.267  12.729   3.747
 7395W        W66656  34.478  27.983  13.967
 7396W        W66657  21.604   6.915   1.449
 7397W        W66658  30.441  26.574  12.911
 7398W        W66659  33.985  11.268   0.874
 7399W        W66660  29.046  11.333   4.261
 7400W        W66661  33.955   4.790   3.361
 7401W        W66662   5.433  30.649  11.421
 7402W        W66663  16.201  17.199   4.690
 7403W        W66664  39.825  22.713  11.531
 7404W        W66665  27.491  39.458  11.505
 7405W        W66666  18.113  21.239   4.741
 7406W        W66667  42.379   1.743   4.693
 7407W        W66668  35.104  44.927  11.562
 7408W        W66669  32.975  28.665   4.151
 7409W        W66670  28.523  39.894  13.949
 7410W        W66671  29.083  31.569   0.479
 7411W        W66672  28.935   6.762   3.368
 7412W        W66673  18.267  43.291  14.778
 7413W        W66674  31.452  21.651   1.902
 7414W        W66675  30.651  21.022  11.373
 7415W        W66676  16.745   5.270  13.412
 7416W        W66677  14.340  15.314  11.513
 7417W        W66678  18.127  14.244  12.416
 7418W        W66679  27.014  21.618   0.465
 7419W        W66680  33.932  40.936   1.442
 7420W        W66681  40.406  32.906   0.341
 7421W        W66682  20.219  20.617   4.181
 7422W        W66683  15.206   6.745  13.547
 7423W        W66684  28.073  22.017   2.699
 7424W        W66685  16.109   5.288  11.509
 7425W        W66686   9.764  40.478   1.425
 7426W        W66687  37.934  13.844  11.410
 7427W        W66688  33.085  16.121  10.416
 7428W        W66689  18.652  41.954  14.908
 7429W        W66690   6.761  22.670  14.367
 7430W        W66691   4.786  16.098  10.448
 7431W        W66692   7.746  18.767  11.033
 7432W        W66693  25.497  22.252  14.888
 7433W        W66694   9.717  37.075  12.518
 7434W        W66695  25.996   1.308   2.678
 7435W        W66696  14.200  18.064  14.501
 7436W        W66697  27.060  26.004   0.835
 7437W        W66698   2.280   5.238  14.980
 7438W        W66699  14.713  14.639  13.547
 7439W        W66700  21.658  35.581   3.170
 7440W        W66701  18.098  33.878   4.692
 7441W        W66702  11.307   8.877   2.893
 7442W        W66703  38.545  14.654  11.505
 7443W        W66704  24.638  11.864   2.257
 7444W        W66705  13.296   9.209   0.288
 7445W        W66706  16.316  21.518   3.742
 7446W        W66707   9.301  29.464  13.511
 7447W        W66708  26.011  37.359  11.520
 7448W        W66709  18.258  38.980  14.403
 7449W        W66710  19.546  21.692   3.689
 7450W        W66711  15.224  42.489  11.411
 7451W        W66712  29.020  23.541   1.934
 7452W        W66713  13.836  33.050   1.423
 7453W        W66714  42.476   1.975  13.848
 7454W        W66715   0.493  36.943   3.298
 7455W        W66716  12.123  22.249  13.336
 7456W        W66717  40.486  44.418  14.763
 7457W        W66718  16.291   9.724  14.002
 7458W        W66719   4.240  14.189   2.275
 7459W        W66720  13.760  37.421   9.932
 7460W        W66721   8.773  40.530  14.376
 7461W        W66722   3.760  32.903  14.986
 7462W        W66723   6.805  26.036   0.830
 7463W        W66724   3.739  37.961  14.798
 7464W        W66725   5.435   3.369  13.932
 7465W        W66726  11.855   4.796   5.170
 7466W        W66727   2.264  27.592   2.811
 7467W        W66728  37.864  15.283  12.357
 7468W        W66729  38.045  40.008   0.822
 7469W        W66730  28.157  44.391   0.471
 7470W        W66731   6.292  22.612   2.856
 7471W        W66732  28.458  41.997  13.384
 7472W        W66733  33.421  34.980   4.226
 7473W        W66734  13.270  21.103  14.340
 7474W        W66735  26.576  19.689  11.503
 7475W        W66736  23.583  27.476  13.001
 7476W        W66737  44.955  26.176   3.646
 7477W        W66738  18.086  32.541  13.357
 7478W        W66739  16.618  41.035   1.213
 7479W        W66740  33.002  20.091   2.864
 7480W        W66741  42.866  43.793   2.816
 7481W        W66742  19.772  29.011  11.504
 7482W        W66743  18.157  21.598  11.097
 7483W        W66744  29.992  39.495  11.424
 7484W        W66745  22.026  15.126  13.958
 7485W        W66746  24.201  28.155  14.961
 7486W        W66747  32.993  33.121   3.854
 7487W        W66748  18.067  43.803   3.726
 7488W        W66749  19.717  30.095  11.397
 7489W        W66750  25.190  29.584   0.912
 7490W        W66751  18.110  40.895   1.322
 7491W        W66752  43.491  16.116  14.028
 7492W        W66753   0.781  13.754   2.843
 7493W        W66754   6.210  39.518  10.515
 7494W        W66755  31.550  26.099  11.121
 7495W        W66756  26.027  13.284  14.974
 7496W        W66757  35.370  40.525   0.782
 7497W        W66758  12.783  16.646  14.772
 7498W        W66759  15.697  44.315  14.507
 7499W        W66760  31.441   1.263  14.897
 7500W        W66761  22.102  20.236  14.845
 7501W        W66762  17.589  24.710  12.974
 7502W        W66763  30.133  23.001   4.701
 7503W        W66764  14.317  16.697   2.390
 7504W        W66765  34.995  22.099  10.567
 7505W        W66766  22.145   6.861  14.490
 7506W        W66767  11.373  14.339  11.922
 7507W        W66768  10.632  25.189  13.042
 7508W        W66769  26.074  22.119   2.292
 7509W        W66770   2.373   4.785  12.578
 7510W        W66771  15.232  13.662   3.309
 7511W        W66772   4.398   1.459   4.826
 7512W        W66773   0.753  12.229  12.471
 7513W        W66774  37.381   4.377   4.236
 7514W        W66775  42.825  23.131  14.337
 7515W        W66776  28.616  21.722   1.902
 7516W        W66777  31.902  24.542  14.025
 7517W        W66778  28.105  37.408   1.859
 7518W        W66779  43.277  11.820   0.805
 7519W        W66780  41.538  40.847   4.136
 7520W        W66781  38.494   5.243   2.355
 7521W        W66782  19.261  28.988   4.832
 7522W        W66783  43.319   9.853  13.014
 7523W        W66784  25.555  44.382   3.346
 7524W        W66785   9.241  41.516  12.967
 7525W        W66786  34.612  37.083  11.128
 7526W        W66787  27.472  37.074  12.440
 7527W        W66788  32.452  35.946  14.320
 7528W        W66789  12.162  10.176  10.574
 7529W        W66790   0.849  30.113  11.087
 7530W        W66791   6.845  43.997  13.962
 7531W        W66792  16.748   6.289   0.914
 7532W        W66793  21.579  12.682  14.015
 7533W        W66794  32.534  18.741   4.719
 7534W        W66795  17.119  23.203   1.321
 7535W        W66796   1.733  23.222  14.363
 7536W        W66797   7.761  12.127  11.900
 7537W        W66798   2.368  32.058  11.541
 7538W        W66799  19.653  30.435   2.357
 7539W        W66800  18.762  32.041   3.858
 7540W        W66801  36.466   1.957  10.970
 7541W        W66802  21.237  16.805  10.441
 7542W        W66803   4.323   0.931  12.963
 7543W        W66804  40.906  11.842  10.562
 7544W        W66805  16.728  30.540  12.020
 7545W        W66806  30.049  20.131  12.083
 7546W        W66807  11.681  41.989   0.829
 7547W        W66808   8.343  15.144   4.190
 7548W        W66809  17.728  16.107   1.796
 7549W        W66810  18.706  34.077   3.301
 7550W        W66811   3.861  15.179  13.986
 7551W        W66812  38.042  11.185   2.697
 7552W        W66813  41.364  16.078   4.211
 7553W        W66814  34.103  29.955  14.467
 7554W        W66815  42.902  12.714  14.851
 7555W        W66816  37.543  25.606  14.767
 7556W        W66817  40.419  38.472  10.920
 7557W        W66818  18.140  35.109  12.468
 7558W        W66819   2.822  35.901   0.260
 7559W        W66820  28.022  11.718   0.842
 7560W        W66821  17.254  18.235  12.456
 7561W        W66822  15.117  22.636   3.350
 7562W        W66823  13.642  21.514  13.320
 7563W        W66824  11.129  23.060   1.744
 7564W        W66825  40.353  38.496   3.272
 7565W        W66826  39.324  24.172  14.780
 7566W        W66827  25.162  10.835  12.461
 7567W        W66828  40.025  24.992   3.361
 7568W        W66829   6.197  16.612   0.400
 7569W        W66830  21.533  10.742  12.865
 7570W        W66831  26.515  19.745   1.252
 7571W        W66832  43.886  11.857  14.974
 7572W        W66833  43.810   3.786   0.734
 7573W        W66834  44.815  18.653  10.617
 7574W        W66835  21.603  11.300  14.975
 7575W        W66836  18.099  10.150  11.975
 7576W        W66837  42.904  36.412   0.349
 7577W        W66838  10.734  19.551   0.250
 7578W        W66839  24.087   1.289   2.358
 7579W        W66840  28.545  44.337  12.966
 7580W        W66841  40.055  30.090   0.320
 7581W        W66842   8.254  44.392   0.926
 7582W        W66843  44.977  42.007   1.272
 7583W        W66844  29.091  44.983   3.342
 7584W        W66845  12.679   8.867  10.969
 7585W        W66846  20.131  12.703   3.716
 7586W        W66847  40.889  12.663  10.556
 7587W        W66848  38.475   8.218   4.795
 7588W        W66849  26.172  21.045  14.407
 7589W        W66850  29.078  22.121   2.800
 7590W        W66851  26.567   3.793  14.357
 7591W        W66852   9.839  34.117   0.336
 7592W        W66853  10.745  22.530  13.954
 7593W        W66854   8.366   6.244  11.954
 7594W        W66855  39.395   4.448  13.898
 7595W        W66856  23.078  27.649  14.417
 7596W        W66857  32.138   9.384   0.294
 7597W        W66858  43.440  16.647   1.443
 7598W        W66859  28.573  25.654   1.417
 7599W        W66860  40.538  30.045  14.450
 7600W        W66861  36.511  33.454  12.570
 7601W        W66862  41.397  38.862   2.210
 7602W        W66863  36.353   5.877  11.569
 7603W        W66864  40.346  41.457  11.109
 7604W        W66865  36.493  17.161  14.972
 7605W        W66866  13.112  34.044   3.821
 7606W        W66867  31.106   8.321  11.985
 7607W        W66868  41.954   8.887   4.783
 7608W        W66869  12.173  31.587   1.929
 7609W        W66870  16.657   5.771  13.816
 7610W        W66871  20.599   2.340   2.840
 7611W        W66872  41.822  30.081  11.509
 7612W        W66873  17.186   5.864   0.779
 7613W        W66874  35.525  44.983  12.437
 7614W        W66875   7.379  26.468  14.898
 7615W        W66876  42.340  23.120  13.417
 7616W        W66877  10.332  38.847  14.923
 7617W        W66878  17.615  13.258  14.354
 7618W        W66879   8.366   6.782  14.434
 7619W        W66880  35.384  16.768   3.262
 7620W        W66881  10.682  11.654   3.247
 7621W        W66882  18.723  27.098   9.969
 7622W        W66883   0.743  36.517   2.873
 7623W        W66884  33.115   6.403  10.151
 7624W        W66885  10.343  12.732  10.482
 7625W        W66886  19.227  33.916   1.756
 7626W        W66887  12.283  37.387  12.844
 7627W        W66888  42.472  23.660  12.059
 7628W        W66889  39.838   2.898  14.915
 7629W        W66890   7.719  43.787  11.110
 7630W        W66891  24.534   2.314   2.751
 7631W        W66892  39.017  44.453   3.810
 7632W        W66893   6.781   9.155  12.383
 7633W        W66894  29.554   9.702   1.396
 7634W        W66895   8.345  22.144   2.793
 7635W        W66896  41.913  42.000   0.823
 7636W        W66897  31.433  43.360   0.300
 7637W        W66898   2.804  13.822  14.493
 7638W        W66899   7.910  10.287   1.293
 7639W        W66900   9.371  31.099  11.081
 7640W        W66901   3.287  23.638   3.170
 7641W        W66902  39.995   6.334   4.599
 7642W        W66903  40.343   4.204   4.350
 7643W        W66904  21.613  21.240   4.278
 7644W        W66905   5.246  19.615  13.472
 7645W        W66906  37.467  38.923  13.047
 7646W        W66907  11.706  18.626   2.732
 7647W        W66908  35.467  29.111  10.643
 7648W        W66909  12.298  35.928   2.384
 7649W        W66910  44.496   7.768   0.381
 7650W        W66911  28.494  39.550  14.843
 7651W        W66912  26.102  24.584   1.704
 7652W        W66913  15.131  38.346   1.228
 7653W        W66914  23.186   7.317  13.994
 7654W        W66915  41.868  27.602   3.237
 7655W        W66916  28.967  30.623  14.463
 7656W        W66917  12.347   4.283  12.532
 7657W        W66918  43.775  31.936   4.206
 7658W        W66919   0.856   5.851   0.832
 7659W        W66920  14.785  20.268   3.358
 7660W        W66921  34.524  18.119  13.826
 7661W        W66922  43.327  14.115  12.862
 7662W        W66923  26.167  30.082   0.388
 7663W        W66924  44.806  11.340  12.354
 7664W        W66925  39.398  33.071  12.381
 7665W        W66926   5.856  27.057   3.847
 7666W        W66927  20.040  25.639  13.061
 7667W        W66928  32.949  43.986  10.546
 7668W        W66929   5.213  24.145  14.385
 7669W        W66930  28.946  37.433  12.985
 7670W        W66931  33.549   1.237   2.297
 7671W        W66932  20.239  42.474   3.196
 7672W        W66933   2.439  14.673  11.014
 7673W        W66934  44.999  10.801   3.637
 7674W        W66935  38.544  37.910  14.773
 7675W        W66936  24.493   8.249  14.448
 7676W        W66937  24.079  31.931  11.921
 7677W        W66938  39.962  35.414   3.266
 7678W        W66939   2.450  13.799   0.330
 7679W        W66940  29.032  32.112  13.975
 7680W        W66941  40.392  13.342   3.343
 7681W        W66942   8.774  23.193  10.405
 7682W        W66943  15.646  33.602  12.568
 7683W        W66944  13.317  26.512  14.282
 7684W        W66945  43.846  13.211  11.988
 7685W        W66946   8.874  19.755   2.208
 7686W        W66947   1.970  24.123  13.988
 7687W        W66948  21.568  31.466  13.447
 7688W        W66949  22.113  21.198  10.942
 7689W        W66950   8.399   0.422  13.899
 7690W        W66951  38.876  36.434   5.293
 7691W        W66952  12.709  25.111  12.875
 7692W        W66953  42.014  39.994  10.461
 7693W        W66954  11.204  13.280   0.463
 7694W        W66955  26.457  23.067  12.902
 7695W        W66956  15.174  26.098  12.448
 7696W        W66957  22.146   0.393  10.492
 7697W        W66958  41.329  27.532   1.391
 7698W        W66959  27.482  41.440  14.851
 7699W        W66960   9.204  27.020   2.343
 7700W        W66961  15.166  35.102   3.255
 7701W        W66962  37.073  40.954  11.486
 7702W        W66963   7.866  42.493   2.275
 7703W        W66964  21.201  44.833   3.193
 7704W        W66965  33.876  11.625   4.744
 7705W        W66966   7.361   0.373   2.825
 7706W        W66967  10.345  35.972  13.513
 7707W        W66968  15.211  40.019   1.836
 7708W        W66969  29.430  37.082  11.418
 7709W        W66970  29.553  33.127  13.846
 7710W        W66971  14.238  30.614   2.754
 7711W        W66972  20.150  25.648   0.874
 7712W        W66973  19.760  18.744   3.770
 7713W        W66974  40.339   6.324   5.223
 7714W        W66975  12.159  14.224  10.540
 7715W        W66976  34.456   3.921   0.813
 7716W        W66977  16.186  31.023  11.454
 7717W        W66978  19.750  14.096  12.035
 7718W        W66979  39.006  32.561   3.658
 7719W        W66980  34.375  19.730   0.401
 7720W        W66981   1.397  19.728   2.378
 7721W        W66982  42.456  43.339   2.312
 7722W        W66983   7.704  18.102   0.758
 7723W        W66984  44.270  12.247  13.474
 7724W        W66985  34.940  35.595   1.870
 7725W        W66986   4.435  18.565   2.820
 7726W        W66987  38.357  17.782   3.369
 7727W        W66988   4.831  19.560   4.687
 7728W        W66989   1.468  32.093   0.359
 7729W        W66990  19.567  43.828   4.695
 7730W        W66991   5.291  25.620  13.038
 7731W        W66992  38.890   2.954  11.529
 7732W        W66993  10.760   7.875   4.160
 7733W        W66994   3.822  43.784  14.826
 7734W        W66995   2.932  43.004   4.139
 7735W        W66996  40.335  33.618  11.568
 7736W        W66997  35.583  27.065  13.952
 7737W        W66998  13.687  40.402  12.564
 7738W        W66999   7.669  18.064   1.906
 7739W        W67000   3.755   0.757   3.176
 7740W        W67001  30.463  38.864   2.244
 7741W        W67002  40.848  37.944  13.845
 7742W        W67003  32.614   0.263   1.705
 7743W        W67004   3.725  25.588   2.313
 7744W        W67005  15.656  32.130   1.740
 7745W        W67006  24.495  36.889  14.921
 7746W        W67007  29.611  34.506  11.930
 7747W        W67008  37.841  14.672  14.880
 7748W        W67009  25.600  11.262   4.205
 7749W        W67010   3.904  13.670  11.863
 7750W        W67011  29.016   3.322   1.293
 7751W        W67012  16.761  34.376   1.715
 7752W        W67013  41.388  14.621   1.324
 7753W        W67014  32.916  14.157  12.877
 7754W        W67015  25.138  11.655  11.554
 7755W        W67016  30.083  23.634   0.369
 7756W        W67017  36.854  25.212   3.701
 7757W        W67018  43.872  19.646   4.332
 7758W        W67019  26.677   7.307  14.472
 7759W        W67020  40.036  44.842   0.465
 7760W        W67021  11.853  10.290   3.707
 7761W        W67022  36.091  29.013  12.082
 7762W        W67023   0.873  33.473  10.028
 7763W        W67024   0.764  43.935   1.840
 7764W        W67025  23.637   3.852   5.709
 7765W        W67026  28.476  44.269   0.754
 7766W        W67027  20.181  34.103  10.438
 7767W        W67028   7.318  43.399  13.542
 7768W        W67029  13.790  13.137  13.969
 7769W        W67030  14.307  17.595  12.083
 7770W        W67031  38.510  21.026  11.985
 7771W        W67032  10.743   7.328  13.536
 7772W        W67033  42.411  16.755  13.436
 7773W        W67034   8.374  39.001  10.975
 7774W        W67035  37.949  10.824   3.177
 7775W        W67036  37.456  27.620  11.588
 7776W        W67037  26.636   6.758   2.207
 7777W        W67038  27.501  15.304  12.482
 7778W        W67039  21.620  16.148   3.175
 7779W        W67040  12.270  29.101  10.994
 7780W        W67041  36.092  27.002   4.769
 7781W        W67042  25.662  11.734   1.914
 7782W        W67043  26.982  18.776   4.123
 7783W        W67044  13.814  17.219   4.619
 7784W        W67045  16.631  34.975  14.461
 7785W        W67046   2.918  43.416   3.376
 7786W        W67047   4.214  21.616   4.618
 7787W        W67048  30.012  11.802   1.292
 7788W        W67049  28.062   6.911  11.990
 7789W        W67050   2.444  14.759   4.128
 7790W        W67051  36.492  35.545  10.640
 7791W        W67052  35.546  16.238  14.409
 7792W        W67053  33.959   4.840  12.344
 7793W        W67054  43.767  13.176  12.369
 7794W        W67055  44.322  37.853  12.058
 7795W        W67056  11.866  15.725   4.786
 7796W        W67057  23.070   6.249   0.921
 7797W        W67058  30.518  30.512   2.851
 7798W        W67059  42.901  24.157   1.933
 7799W        W67060   7.885   7.213  14.869
 7800W        W67061  38.998   0.753   5.173
 7801W        W67062  39.399  38.560   0.411
 7802W        W67063  25.994  34.998  13.032
 7803W        W67064  26.126  33.969   0.807
 7804W        W67065   5.866  39.338   4.175
 7805W        W67066  13.169  34.107  11.105
 7806W        W67067  30.446  33.083  12.062
 7807W        W67068  27.565  15.278  11.591
 7808W        W67069  25.470   0.960  10.631
 7809W        W67070  13.153  39.877  12.553
 7810W        W67071  30.521  30.966   5.123
 7811W        W67072  37.371  20.162   3.352
 7812W        W67073   7.719   4.247   3.276
 7813W        W67074   2.887  26.703  12.833
 7814W        W67075  29.633  16.196  12.989
 7815W        W67076  31.478  20.168   2.710
 7816W        W67077  43.483  18.742  11.055
 7817W        W67078  10.373  28.059   0.959
 7818W        W67079   8.227   5.354   0.860
 7819W        W67080   4.931   2.751   2.230
 7820W        W67081  16.784  37.873  14.810
 7821W        W67082   4.924  26.478  14.778
 7822W        W67083  12.317  31.111  12.546
 7823W        W67084   5.902   2.730  13.021
 7824W        W67085  11.826  44.781  12.059
 7825W        W67086  29.938  31.576  11.436
 7826W        W67087   9.874  15.784  11.414
 7827W        W67088  39.394  10.180   3.725
 7828W        W67089  27.655  20.595  14.996
 7829W        W67090  40.917  44.911  10.997
 7830W        W67091   8.342  28.014   3.203
 7831W        W67092  25.620  43.454  11.402
 7832W        W67093  43.953  43.431  12.861
 7833W        W67094  21.068  30.462   4.192
 7834W        W67095  42.850  18.653   0.946
 7835W        W67096  19.229  10.248  10.585
 7836W        W67097  43.937  43.404   0.956
 7837W        W67098  17.104  24.999   4.319
 7838W        W67099  33.412  28.000  10.473
 7839W        W67100  31.147  26.615  14.455
 7840W        W67101   4.364  10.734  14.327
 7841W        W67102  23.046  42.354   0.346
 7842W        W67103   9.755   2.925   1.327
 7843W        W67104  19.665  10.872   2.775
 7844W        W67105   9.755  27.574  11.866
 7845W        W67106  38.508  21.178   2.345
 7846W        W67107   0.275  30.998  10.533
 7847W        W67108  19.774   9.335   4.818
 7848W        W67109  14.328  10.355  14.793
 7849W        W67110  31.933   3.406   0.267
 7850W        W67111  35.077  23.214  14.917
 7851W        W67112  40.511  24.696  10.913
 7852W        W67113  43.314  19.643   0.298
 7853W        W67114  16.720  40.914   3.783
 7854W        W67115   7.759  38.933   4.835
 7855W        W67116   0.830  11.811   3.352
 7856W        W67117  16.608   7.322  14.413
 7857W        W67118  30.416  19.131   0.731
 7858W        W67119  17.103   1.407   4.142
 7859W        W67120   8.321  32.441   2.834
 7860W        W67121  20.744  10.683  14.401
 7861W        W67122  29.466  41.031   2.882
 7862W        W67123  14.784   1.935   3.762
 7863W        W67124  44.850  25.580   3.187
 7864W        W67125  36.472   9.247  10.076
 7865W        W67126  29.083  24.571   2.786
 7866W        W67127   2.350  36.931  11.545
 7867W        W67128   5.316  36.947  14.388
 7868W        W67129   8.823  22.008  14.401
 7869W        W67130  32.508  20.658  12.553
 7870W        W67131  15.587  14.732  11.990
 7871W        W67132  35.548   2.827   0.299
 7872W        W67133   1.835   1.866   2.283
 7873W        W67134  44.766   9.347   4.670
 7874W        W67135  26.140   5.916  13.034
 7875W        W67136   5.439   8.665   1.242
 7876W        W67137  42.452  15.227   4.244
 7877W        W67138  30.612   7.677  13.481
 7878W        W67139  43.818  17.148  14.935
 7879W        W67140  35.034   1.931  14.767
 7880W        W67141   4.328  30.417  11.381
 7881W        W67142  22.015  22.143  14.960
 7882W        W67143  23.717   1.792  11.003
 7883W        W67144  11.216  36.074   3.727
 7884W        W67145  27.011  21.031   1.891
 7885W        W67146   4.761   3.911   1.882
 7886W        W67147   1.797  21.562   2.891
 7887W        W67148  25.519  27.511  10.570
 7888W        W67149  29.427  22.092   3.377
 7889W        W67150  33.120  39.825   0.268
 7890W        W67151  24.546  39.429   1.727
 7891W        W67152  19.226  39.541  14.307
 7892W        W67153  23.524  16.596  11.502
 7893W        W67154  30.089  12.767  11.448
 7894W        W67155  14.802  15.318   1.381
 7895W        W67156  28.589   1.818   0.934
 7896W        W67157  27.655  12.335   4.285
 7897W        W67158  29.615  27.617   4.780
 7898W        W67159  39.406  20.527   2.668
 7899W        W67160  42.921  25.548   0.358
 7900W        W67161   7.829  16.289   2.716
 7901W        W67162  27.060  22.160  12.460
 7902W        W67163  22.545   0.376  11.015
 7903W        W67164  36.961  25.108   1.916
 7904W        W67165   9.333   2.442   2.688
 7905W        W67166   6.227  10.670   0.886
 7906W        W67167  20.597   2.833   4.269
 7907W        W67168  30.961  13.105   4.167
 7908W        W67169  43.400  10.853   1.855
 7909W        W67170  14.248  35.456   1.406
 7910W        W67171  25.658  23.704  10.643
 7911W        W67172  16.641   0.325  12.948
 7912W        W67173   3.823   4.927  11.070
 7913W        W67174  41.348  16.122  13.545
 7914W        W67175  32.518   8.664  14.898
 7915W        W67176  14.211   1.478   4.830
 7916W        W67177  43.889  17.780   9.582
 7917W        W67178  39.825   7.303  11.994
 7918W        W67179  14.267  36.523  12.973
 7919W        W67180  11.684  20.231   2.896
 7920W        W67181  18.099  26.701   4.246
 7921W        W67182  18.691  14.652   4.186
 7922W        W67183  44.944  32.505  11.431
 7923W        W67184  24.714  31.989   1.441
 7924W        W67185  34.939   9.847  12.078
 7925W        W67186   9.683  39.905  14.991
 7926W        W67187   1.901  31.471   2.209
 7927W        W67188  36.374   7.899  12.934
 7928W        W67189  41.509   0.771   2.329
 7929W        W67190  34.389  11.838   3.226
 7930W        W67191  44.933  23.228  11.105
 7931W        W67192  36.583  10.853   4.277
 7932W        W67193  19.609  17.088   5.196
 7933W        W67194   6.867  26.508   0.890
 7934W        W67195  30.022   6.919   3.753
 7935W        W67196   2.442  21.626  12.078
 7936W        W67197  11.808  33.396  13.894
 7937W        W67198  17.697   4.826   0.383
 7938W        W67199  27.655  17.260  11.115
 7939W        W67200  39.951  42.435   1.933
 7940W        W67201  10.641  11.196   1.799
 7941W        W67202  37.047  31.407   0.291
 7942W        W67203   5.863  35.042   1.217
 7943W        W67204  29.053  31.600  10.629
 7944W        W67205  31.086  20.549  14.431
 7945W        W67206  40.996  19.208   2.326
 7946W        W67207  17.691  19.173   1.858
 7947W        W67208   3.881  20.590  12.975
 7948W        W67209  35.050   6.214   2.399
 7949W        W67210  41.295  38.022   0.406
 7950W        W67211  33.505   3.920   3.679
 7951W        W67212   3.803  40.008   0.870
 7952W        W67213  43.964  36.075  14.290
 7953W        W67214  32.484  27.489  13.985
 7954W        W67215  29.016  31.980  11.873
 7955W        W67216   4.375   2.348  14.881
 7956W        W67217  21.026  36.550  13.379
 7957W        W67218  24.010   5.758  13.876
 7958W        W67219  23.157  14.114  13.324
 7959W        W67220  32.012  33.105   4.796
 7960W        W67221   2.349  20.666   4.795
 7961W        W67222  38.394  27.595  12.444
 7962W        W67223  32.392  44.346  11.577
 7963W        W67224  10.877   2.920  11.904
 7964W        W67225  44.375  16.672   2.688
 7965W        W67226  43.859  39.413  12.452
 7966W        W67227  12.677  34.393  10.932
 7967W        W67228  26.575  41.998   1.812
 7968W        W67229  37.065  43.874  11.590
 7969W        W67230  26.133  22.080  11.127
 7970W        W67231  18.643  28.980   0.333
 7971W        W67232  10.780  20.547   1.295
 7972W        W67233  34.933  13.757  14.864
 7973W        W67234  21.049  17.637  13.825
 7974W        W67235  36.513  24.110   2.687
 7975W        W67236  15.778  41.875  10.629
 7976W        W67237  20.588  17.086  14.425
 7977W        W67238   8.741  37.536  13.988
 7978W        W67239   6.694   8.661  11.865
 7979W        W67240  34.089   5.329  13.514
 7980W        W67241  44.496   1.269  12.556
 7981W        W67242  43.408  21.206   9.991
 7982W        W67243  25.670  28.969  11.122
 7983W        W67244  40.916  26.523   3.311
 7984W        W67245  40.521  32.510  13.855
 7985W        W67246   9.812  28.658   2.319
 7986W        W67247  44.845  37.471  14.341
 7987W        W67248  24.602  29.157   3.740
 7988W        W67249  28.659   0.830   3.813
 7989W        W67250  42.399   0.309  14.843
 7990W        W67251  31.581  15.779   0.933
 7991W        W67252  19.206  18.177   1.314
 7992W        W67253  19.243  31.961  12.350
 7993W        W67254  30.586  38.046  12.531
 7994W        W67255   7.318  38.884  10.973
 7995W        W67256   4.215  36.538   4.748
 7996W        W67257   4.241  23.017  10.502
 7997W        W67258  40.821  16.577   0.839
 7998W        W67259  32.566  14.791  12.374
 7999W        W67260  19.665  27.613   0.296
 8000W        W67261  16.670   0.804   4.757
 8001W        W67262   4.920  11.344  12.372
 8002W        W67263   4.784  35.925  10.493
 8003W        W67264  22.098  32.619   4.277
 8004W        W67265  15.745  35.014   4.799
 8005W        W67266  20.603   3.288  14.505
 8006W        W67267  26.959  20.231  10.934
 8007W        W67268   2.235  15.818  10.567
 8008W        W67269   4.944  27.076  12.889
 8009W        W67270  20.609  11.771   2.767
 8010W        W67271  27.543   7.237   4.611
 8011W        W67272  25.550  32.496  13.443
 8012W        W67273   6.236  22.248   1.361
 8013W        W67274  44.987  15.622   4.226
 8014W        W67275   4.750  23.529  14.346
 8015W        W67276  19.551  38.073   0.900
 8016W        W67277  31.071  11.141   2.229
 8017W        W67278  42.440  25.037  12.075
 8018W        W67279  14.791  33.409  10.591
 8019W        W67280  32.490   9.849   0.848
 8020W        W67281  36.907  32.907  14.423
 8021W        W67282  17.673  30.521  14.989
 8022W        W67283  35.431  36.499  13.413
 8023W        W67284  14.656   3.401   4.733
 8024W        W67285   7.876  38.845  13.548
 8025W        W67286  25.142  22.611   4.236
 8026W        W67287  44.782  19.261  14.478
 8027W        W67288  40.993  44.916  13.486
 8028W        W67289  24.123  16.170   4.749
 8029W        W67290  29.000  11.237  13.382
 8030W        W67291   1.834   7.680   0.477
 8031W        W67292  31.088  17.202  14.283
 8032W        W67293  41.957   4.421  12.374
 8033W        W67294  19.584   1.362   0.871
 8034W        W67295  39.021   0.802  12.913
 8035W        W67296  38.936  20.685   0.824
 8036W        W67297  33.905   9.659   4.177
 8037W        W67298   5.222  44.459   9.963
 8038W        W67299  14.315   0.745  13.982
 8039W        W67300  36.389  15.753  10.011
 8040W        W67301   0.902  30.107   0.382
 8041W        W67302  38.938  26.464   1.441
 8042W        W67303  36.584   8.331   5.233
 8043W        W67304  32.408  21.068  10.064
 8044W        W67305  25.566  44.425  11.554
 8045W        W67306  37.400  19.736  13.504
 8046W        W67307  22.564  33.609  14.950
 8047W        W67308   4.273  24.063  11.612
 8048W        W67309  37.881  30.108  10.642
 8049W        W67310  12.745   7.364   9.972
 8050W        W67311  33.562  44.832  10.032
 8051W        W67312   5.911  36.407   2.855
 8052W        W67313  27.650  24.065   4.264
 8053W        W67314  44.809  17.585  11.458
 8054W        W67315  38.073  27.484  13.966
 8055W        W67316   9.861  41.362   0.763
 8056W        W67317  41.522  13.278  14.421
 8057W        W67318  25.069  29.610   2.266
 8058W        W67319  22.736  42.924   0.306
 8059W        W67320   3.347   2.856  14.365
 8060W        W67321  10.709  16.211  11.568
 8061W        W67322  22.516  18.160   1.825
 8062W        W67323   0.422  18.137   5.172
 8063W        W67324  17.182   1.961   3.766
 8064W        W67325  30.419  19.571  14.476
 8065W        W67326  33.877  14.763  13.514
 8066W        W67327   3.421  23.124   4.647
 8067W        W67328  13.239  34.524   3.858
 8068W        W67329  32.118  29.082  12.399
 8069W        W67330  32.437   9.843  10.438
 8070W        W67331  36.968  37.346  11.985
 8071W        W67332   0.493  16.083   5.648
 8072W        W67333  18.241  35.509   2.194
 8073W        W67334  30.972  33.042  13.858
 8074W        W67335   2.754  17.110  12.040
 8075W        W67336   8.785   4.363  11.383
 8076W        W67337  37.446  16.196   2.805
 8077W        W67338   0.826  21.069   2.406
 8078W        W67339  20.200  19.686   2.821
 8079W        W67340  14.097  24.015   3.288
 8080W        W67341  34.930  35.491  13.402
 8081W        W67342  18.700  41.333  13.053
 8082W        W67343   4.378  16.169  13.521
 8083W        W67344  11.353  18.553   2.306
 8084W        W67345  43.449  27.065  13.962
 8085W        W67346  36.502  38.067   1.850
 8086W        W67347  12.276  38.505  11.478
 8087W        W67348  11.746   1.446   0.769
 8088W        W67349  44.950  27.474  14.789
 8089W        W67350  37.978  21.195   4.185
 8090W        W67351   9.240  24.013   3.784
 8091W        W67352  11.302  17.710  13.450
 8092W        W67353  20.763  40.898  14.403
 8093W        W67354   3.949  29.622  13.490
 8094W        W67355   1.774  14.256   4.831
 8095W        W67356  30.120  41.965  14.278
 8096W        W67357  23.990  40.900   0.246
 8097W        W67358  42.450  42.441   0.768
 8098W        W67359  23.171  14.736   3.165
 8099W        W67360  30.986  19.606   1.858
 8100W        W67361  33.058  12.833  10.964
 8101W        W67362  33.041  23.149   1.915
 8102W        W67363  39.423   6.245   1.875
 8103W        W67364  13.679  28.994  11.532
 8104W        W67365  37.906  40.039   9.945
 8105W        W67366  17.125   2.727   0.322
 8106W        W67367  20.727  25.151   3.356
 8107W        W67368  43.976   6.677   4.695
 8108W        W67369  36.858   2.725   0.344
 8109W        W67370  26.561  22.152  13.998
 8110W        W67371  40.443  34.010   4.166
 8111W        W67372  20.215  37.023  14.439
 8112W        W67373  13.117  33.957  14.905
 8113W        W67374  14.293  40.951   1.214
 8114W        W67375  25.555  10.644   4.123
 8115W        W67376  38.538   4.213  13.987
 8116W        W67377  22.187  43.990  12.031
 8117W        W67378  29.632  32.970   2.784
 8118W        W67379   5.854  30.081  11.601
 8119W        W67380  39.381  25.025   0.477
 8120W        W67381   3.936  29.450  14.499
 8121W        W67382  17.197  37.971  10.909
 8122W        W67383  25.061   9.770   2.756
 8123W        W67384  44.931  32.471  14.394
 8124W        W67385   8.713  17.068  10.965
 8125W        W67386   2.378  20.553  10.470
 8126W        W67387  29.549  14.818  13.950
 8127W        W67388  34.093  39.360  11.064
 8128W        W67389  36.417   4.307  12.528
 8129W        W67390   5.246  36.878   0.744
 8130W        W67391  34.466  19.618   3.361
 8131W        W67392  10.809  21.625  13.916
 8132W        W67393  25.105  15.729   1.826
 8133W        W67394  25.682  16.284   1.885
 8134W        W67395   6.877   6.378   1.257
 8135W        W67396   0.437  24.052   0.931
 8136W        W67397  27.031   1.450  14.960
 8137W        W67398   2.726  37.014  14.022
 8138W        W67399  10.334   5.210  10.925
 8139W        W67400  31.026  20.673   1.780
 8140W        W67401   4.395   6.812  10.480
 8141W        W67402   4.756   5.400   1.307
 8142W        W67403  43.270  22.610   2.304
 8143W        W67404  37.347  39.018  12.374
 8144W        W67405   7.729  13.202  10.489
 8145W        W67406   9.806  13.187   0.377
 8146W        W67407   8.352   8.747   5.228
 8147W        W67408  22.105   0.781  13.834
 8148W        W67409   8.379  29.616   0.481
 8149W        W67410  26.563   6.725  14.464
 8150W        W67411  40.471  39.355   2.854
 8151W        W67412  24.590  44.329  13.850
 8152W        W67413  27.128  26.155   4.678
 8153W        W67414  23.491  35.894  14.487
 8154W        W67415   6.803  29.052  14.963
 8155W        W67416  30.532  38.556   1.303
 8156W        W67417   5.826  32.442   3.670
 8157W        W67418  39.555  13.678   4.761
 8158W        W67419  19.659   5.400   9.470
 8159W        W67420  41.971  44.769   4.836
 8160W        W67421   9.228  29.119   5.153
 8161W        W67422  10.642  32.553   0.768
 8162W        W67423  31.966  17.652  14.511
 8163W        W67424  21.154  23.694  12.951
 8164W        W67425  40.968  26.958  14.489
 8165W        W67426  31.629   9.377  11.404
 8166W        W67427  26.144  17.569  14.393
 8167W        W67428  18.139  10.350   0.776
 8168W        W67429  43.890  29.549   4.182
 8169W        W67430  38.373  43.418  14.384
 8170W        W67431  28.440  23.522  12.494
 8171W        W67432  44.850  24.494  13.910
 8172W        W67433  35.494   7.758   1.327
 8173W        W67434  40.868  10.871   4.317
 8174W        W67435  30.926  17.119  10.943
 8175W        W67436   9.348  28.010   1.354
 8176W        W67437  25.519  33.615   2.694
 8177W        W67438  12.758  13.681   0.925
 8178W        W67439  33.122  41.909  11.866
 8179W        W67440  42.857   3.869   2.190
 8180W        W67441  13.697   9.232   0.248
 8181W        W67442  13.206  24.028  11.914
 8182W        W67443  36.932   2.942  11.407
 8183W        W67444  28.127  12.741  12.941
 8184W        W67445  33.442  41.535   1.333
 8185W        W67446  29.655  10.792  12.060
 8186W        W67447  43.835  14.664   0.335
 8187W        W67448  18.639  28.550  10.042
 8188W        W67449   3.801  16.269   1.251
 8189W        W67450  43.900  15.583  11.114
 8190W        W67451   6.271  18.280   3.330
 8191W        W67452  23.198  19.215   0.833
 8192W        W67453  42.373  14.158   9.488
 8193W        W67454   7.392  38.910   1.215
 8194W        W67455   3.319   7.367   1.244
 8195W        W67456  10.291  43.979  11.489
 8196W        W67457   9.178  31.010  13.872
 8197W        W67458  25.078   3.454  11.052
 8198W        W67459   2.384  13.171   3.745
 8199W        W67460  26.967  30.542  14.779
 8200W        W67461  36.477  42.446  12.341
 8201W        W67462  33.062  13.759  10.417
 8202W        W67463   2.365  29.034   5.279
 8203W        W67464  28.022   5.266  12.919
 8204W        W67465  17.573  13.247   2.231
 8205W        W67466   3.865  38.495   1.759
 8206W        W67467  37.571  11.758   0.854
 8207W        W67468  44.287  16.698   2.189
 8208W        W67469  39.917  33.380  11.578
 8209W        W67470  39.010  25.014   0.887
 8210W        W67471   8.663  38.993  10.116
 8211W        W67472  19.230  29.469  12.881
 8212W        W67473  33.946  35.044   0.244
 8213W        W67474  38.031  43.920   3.367
 8214W        W67475  36.933   7.764   0.375
 8215W        W67476  34.562  29.432  13.042
 8216W        W67477  28.603  43.332  13.325
 8217W        W67478  20.151  34.074   0.255
 8218W        W67479  19.236  29.142   9.543
 8219W        W67480  35.467  36.886   2.708
 8220W        W67481  38.964   3.384  11.077
 8221W        W67482  31.494  24.063  12.042
 8222W        W67483  21.238  19.748  12.857
 8223W        W67484  14.760  31.558  13.427
 8224W        W67485  31.619  40.928  14.336
 8225W        W67486  36.579   8.821  12.499
 8226W        W67487  19.270  41.910  11.007
 8227W        W67488   9.222  30.478  10.990
 8228W        W67489  44.953  38.437  13.472
 8229W        W67490  29.155  38.498   2.669
 8230W        W67491  36.918  28.170   4.239
 8231W        W67492  22.564  42.924  11.552
 8232W        W67493  12.754  42.489   1.920
 8233W        W67494  36.029  20.121   3.804
 8234W        W67495  30.071  37.501   1.290
 8235W        W67496  16.176  33.908  13.026
 8236W        W67497  16.142  32.505   4.214
 8237W        W67498  21.581  22.085   2.409
 8238W        W67499  19.733   6.730  10.010
 8239W        W67500  35.937  35.031   3.859
 8240W        W67501  38.980  41.953   2.189
 8241W        W67502  18.553  30.575   2.278
 8242W        W67503  11.656  28.618  12.054
 8243W        W67504  35.017   2.250   1.769
 8244W        W67505  21.686   2.411  11.861
 8245W        W67506  18.743  34.445  14.872
 8246W        W67507  41.332  14.332   0.844
 8247W        W67508  41.377   7.908   4.749
 8248W        W67509  18.220  19.734  13.544
 8249W        W67510  19.122  17.592   5.574
 8250W        W67511  33.896  24.690   0.761
 8251W        W67512  30.513   2.825  11.470
 8252W        W67513  11.207  38.929   4.793
 8253W        W67514  37.344   9.293  14.441
 8254W        W67515  28.612  44.342  12.501
 8255W        W67516  31.125  28.159   0.796
 8256W        W67517  34.577  19.607   4.159
 8257W        W67518  14.701  44.838   2.701
 8258W        W67519  33.392  11.633   1.765
 8259W        W67520  22.033  29.444   3.798
 8260W        W67521  44.813  39.379  13.982
 8261W        W67522  41.003  38.459   3.703
 8262W        W67523  11.301  11.221   3.675
 8263W        W67524  31.920  28.099   2.349
 8264W        W67525  31.586  42.464   4.327
 8265W        W67526  20.529  36.576   1.700
 8266W        W67527  21.676  20.106   0.934
 8267W        W67528  44.899  27.488   3.748
 8268W        W67529  17.609  16.253  10.543
 8269W        W67530  27.654  22.092  13.468
 8270W        W67531  13.797  26.148   4.223
 8271W        W67532  19.619  12.806   2.201
 8272W        W67533   8.742  17.578   3.303
 8273W        W67534  14.646  16.599  12.912
 8274W        W67535   9.750  37.540  10.544
 8275W        W67536   7.368  15.300   1.853
 8276W        W67537  11.194  29.981   3.701
 8277W        W67538   8.327   1.408  14.795
 8278W        W67539  20.693   8.248  11.407
 8279W        W67540  27.622  44.883   1.714
 8280W        W67541   9.313  32.566   1.831
 8281W        W67542  36.941   0.431  10.615
 8282W        W67543  11.827  44.288  11.440
 8283W        W67544  27.680   7.737  11.571
 8284W        W67545  38.444  17.173   2.892
 8285W        W67546  14.214  24.711   1.825
 8286W        W67547   5.215   9.727   1.842
 8287W        W67548   3.800  33.621   0.424
 8288W        W67549  20.584  27.950   4.644
 8289W        W67550   3.394   3.878   3.713
 8290W        W67551  23.086  13.772   0.298
 8291W        W67552  21.522   2.255  14.773
 8292W        W67553   7.373  12.762   1.360
 8293W        W67554  15.702   7.289  10.483
 8294W        W67555  21.544   0.287  14.350
 8295W        W67556  16.087  25.573   2.351
 8296W        W67557  28.570  38.553  14.373
 8297W        W67558  32.422  40.341  10.513
 8298W        W67559   1.316  30.057  13.024
 8299W        W67560   3.823   0.979  13.345
 8300W        W67561  35.031   6.203  11.390
 8301W        W67562  39.876  34.555  10.083
 8302W        W67563  35.056  38.447   0.412
 8303W        W67564  42.943  19.758   3.701
 8304W        W67565   2.728  20.265  10.893
 8305W        W67566  12.251  16.571   3.784
 8306W        W67567  26.477  40.327  11.420
 8307W        W67568   1.949  28.490  11.608
 8308W        W67569  34.436  32.124   4.211
 8309W        W67570  41.007   9.302   1.384
 8310W        W67571  29.595  16.194   4.318
 8311W        W67572  26.601  40.452   5.182
 8312W        W67573  43.964   0.812   1.849
 8313W        W67574   0.277  42.032  11.931
 8314W        W67575  12.331  30.630  14.353
 8315W        W67576  30.622  20.710   4.232
 8316W        W67577  44.437  22.163  14.398
 8317W        W67578  43.294  22.070   0.918
 8318W        W67579  28.012  26.159  10.604
 8319W        W67580  20.056  22.131  11.373
 8320W        W67581   6.676   5.831   2.256
 8321W        W67582  30.646   7.800  13.055
 8322W        W67583  17.183  30.098  10.069
 8323W        W67584   9.686  37.402  13.457
 8324W        W67585  15.250  10.778  14.963
 8325W        W67586   5.260  30.483  13.405
 8326W        W67587  10.202  12.752   2.215
 8327W        W67588  39.976   9.667   1.850
 8328W        W67589   9.878  22.741   3.668
 8329W        W67590  14.708  42.488  12.405
 8330W        W67591  18.626  20.251   3.298
 8331W        W67592  32.091  25.143  12.425
 8332W        W67593  29.950   3.317   1.354
 8333W        W67594  16.210  43.894  10.568
 8334W        W67595  34.453  19.561  12.417
 8335W        W67596  32.510   0.386  13.827
 8336W        W67597  39.059  22.668  11.397
 8337W        W67598  26.208  24.033   3.808
 8338W        W67599  20.750  33.040  11.902
 8339W        W67600  12.345  12.697   3.856
 8340W        W67601   3.344  44.811  14.782
 8341W        W67602  36.060  32.134  12.992
 8342W        W67603  16.279   6.891  13.440
 8343W        W67604  30.413  17.249  10.942
 8344W        W67605   8.780  40.006   4.210
 8345W        W67606  32.508  29.535  10.569
 8346W        W67607  40.498  43.834  13.007
 8347W        W67608  34.958  44.464  12.573
 8348W        W67609   8.706  44.922   2.251
 8349W        W67610  44.353  34.901  12.409
 8350W        W67611  13.221  12.148   4.695
 8351W        W67612  27.137   4.864  13.931
 8352W        W67613   5.246  32.991  12.953
 8353W        W67614  31.472  38.375   3.376
 8354W        W67615   6.865  29.469  12.058
 8355W        W67616  26.552  17.117   5.235
 8356W        W67617  12.275  27.572   0.247
 8357W        W67618  33.499  27.650   3.288
 8358W        W67619  39.863  30.126   1.408
 8359W        W67620  18.052   1.402  11.456
 8360W        W67621  34.893   2.812  11.051
 8361W        W67622  33.094  31.131  13.499
 8362W        W67623   6.819  41.379   2.874
 8363W        W67624  33.575  28.019   4.656
 8364W        W67625  39.346  34.609   4.642
 8365W        W67626  11.232  44.844   3.722
 8366W        W67627   8.799  18.187   0.364
 8367W        W67628  20.173  31.039   2.724
 8368W        W67629   7.713  35.958   1.406
 8369W        W67630  14.617  18.604   2.806
 8370W        W67631  43.011  42.316   4.204
 8371W        W67632  27.604  32.508   1.794
 8372W        W67633   6.337   5.844  13.358
 8373W        W67634  41.944  36.037  10.503
 8374W        W67635   7.696   1.784   0.286
 8375W        W67636   4.227  15.298   4.182
 8376W        W67637  15.145   7.796  12.407
 8377W        W67638   9.711  43.347  10.412
 8378W        W67639  13.187  42.435  12.950
 8379W        W67640   8.208  26.468  10.484
 8380W        W67641  26.588  27.558  12.073
 8381W        W67642  22.571  14.181   0.411
 8382W        W67643  35.010   4.897  10.548
 8383W        W67644  12.142  28.675  13.807
 8384W        W67645  20.708  20.617   1.270
 8385W        W67646  31.558  22.556  14.856
 8386W        W67647  27.614  11.643  14.852
 8387W        W67648  43.480   2.307  14.818
 8388W        W67649  36.982  27.985   4.678
 8389W        W67650   1.746  25.100   4.613
 8390W        W67651  22.245  17.255   2.364
 8391W        W67652  35.104  20.164   3.308
 8392W        W67653   7.789  12.253  14.966
 8393W        W67654   1.249  11.636   0.264
 8394W        W67655   3.400  24.567   3.729
 8395W        W67656  22.563  44.923   1.854
 8396W        W67657  21.757   6.257   3.208
 8397W        W67658  39.861  18.221  12.848
 8398W        W67659  12.313  22.523   2.343
 8399W        W67660  40.526  35.413   0.439
 8400W        W67661  42.902  28.083   2.384
 8401W        W67662   8.288  19.627   1.325
 8402W        W67663   9.156  33.591   2.371
 8403W        W67664  15.202  16.648   0.860
 8404W        W67665  27.011  32.127   2.849
 8405W        W67666  33.942  20.034   3.386
 8406W        W67667   9.336  30.035   2.411
 8407W        W67668   5.389  19.271  13.528
 8408W        W67669  39.953  30.025  14.816
 8409W        W67670   2.291  30.532  14.763
 8410W        W67671   3.245  38.478  11.577
 8411W        W67672  43.003  38.402  12.903
 8412W        W67673  38.875  14.719  13.389
 8413W        W67674  18.250  39.888   1.750
 8414W        W67675  37.976  22.593  12.844
 8415W        W67676  28.464  29.511   4.637
 8416W        W67677  42.479  42.396  13.374
 8417W        W67678   6.757  24.117   1.801
 8418W        W67679   2.460  28.496   1.401
 8419W        W67680   4.913  12.267  14.028
 8420W        W67681  15.319  19.096   2.864
 8421W        W67682  38.896   3.905   1.700
 8422W        W67683  10.197  37.448   1.737
 8423W        W67684   7.380  33.919   2.239
 8424W        W67685  38.433  15.664   4.345
 8425W        W67686  16.269  11.857  14.014
 8426W        W67687   6.821  40.485   0.890
 8427W        W67688  44.784  22.147  12.361
 8428W        W67689   7.671   5.822  12.468
 8429W        W67690  21.557  42.402  14.348
 8430W        W67691  25.058   3.359   0.243
 8431W        W67692  35.980  33.404   2.706
 8432W        W67693  19.713  10.162   0.431
 8433W        W67694  28.587  26.987  14.016
 8434W        W67695  17.306  20.540  12.356
 8435W        W67696  15.248   3.864   0.439
 8436W        W67697  16.783  21.693  13.483
 8437W        W67698  23.217  17.690   0.321
 8438W        W67699  23.124  14.262   0.412
 8439W        W67700  44.947  38.390   3.313
 8440W        W67701   4.329  30.647   0.918
 8441W        W67702  42.011  29.438  11.013
 8442W        W67703  34.532  43.320   0.837
 8443W        W67704  28.524  19.559   4.276
 8444W        W67705  26.986  22.624   3.707
 8445W        W67706  18.653  14.226  12.402
 8446W        W67707  16.672  40.502  13.943
 8447W        W67708  23.023   6.229  13.058
 8448W        W67709  36.975  19.280  10.544
 8449W        W67710  10.220   6.354   2.757
 8450W        W67711  34.510  21.237   5.246
 8451W        W67712  18.646  38.030  11.436
 8452W        W67713  29.661   0.266  11.000
 8453W        W67714   9.223  22.606   0.247
 8454W        W67715  17.186  41.902  13.426
 8455W        W67716  42.499  43.998   2.829
 8456W        W67717  22.155   7.665  13.866
 8457W        W67718  42.840  41.929   0.914
 8458W        W67719  14.756  44.430   4.347
 8459W        W67720   1.842  18.290   3.737
 8460W        W67721  13.811  19.641  13.961
 8461W        W67722  34.932   9.315   3.345
 8462W        W67723  19.148  23.674   1.448
 8463W        W67724   2.812  44.290   1.378
 8464W        W67725  42.304   2.909   1.767
 8465W        W67726  34.592  44.821   1.698
 8466W        W67727  44.269  43.299   4.819
 8467W        W67728  18.254  36.480  12.873
 8468W        W67729  13.220   0.458  12.580
 8469W        W67730  40.485  12.234  13.907
 8470W        W67731  16.205  26.661  13.379
 8471W        W67732  28.940  36.543  14.425
 8472W        W67733  43.783  33.400  11.110
 8473W        W67734  16.197   6.859  11.560
 8474W        W67735  43.483  35.454   1.721
 8475W        W67736  44.873   8.176   2.818
 8476W        W67737  32.992  40.399   0.471
 8477W        W67738  24.028  32.632  11.089
 8478W        W67739  14.207   5.270   9.580
 8479W        W67740  19.756  29.926  10.111
 8480W        W67741  12.740   0.968  14.380
 8481W        W67742   0.894  37.976  13.877
 8482W        W67743  29.055  26.517  13.889
 8483W        W67744   5.701  23.131  10.958
 8484W        W67745  40.919  33.971   3.338
 8485W        W67746  31.596  44.268   2.236
 8486W        W67747  34.386  31.110   1.916
 8487W        W67748  13.334  16.092   3.316
 8488W        W67749  11.324  35.863  14.468
 8489W        W67750  26.611  41.400  10.064
 8490W        W67751  34.523  29.003   2.758
 8491W        W67752  12.151  10.367   4.755
 8492W        W67753  22.509  18.786  12.509
 8493W        W67754   0.796  34.939  13.858
 8494W        W67755  42.848  13.157  10.460
 8495W        W67756  17.284  42.306  11.456
 8496W        W67757  44.923  39.362   4.736
 8497W        W67758  18.224  31.112  12.518
 8498W        W67759  24.121   7.171  12.413
 8499W        W67760  35.447   1.390   2.268
 8500W        W67761  36.402   7.312   2.286
 8501W        W67762  17.188  21.696   4.345
 8502W        W67763   8.171  36.492   1.239
 8503W        W67764  40.309   8.666  13.023
 8504W        W67765  33.416  39.340   3.857
 8505W        W67766  25.497   0.889   2.737
 8506W        W67767  13.601  28.479  11.869
 8507W        W67768  27.005  22.085   0.303
 8508W        W67769  30.624  35.963   4.127
 8509W        W67770  27.506  12.284  11.059
 8510W        W67771  30.491  35.377  14.018
 8511W        W67772  21.513  27.448  10.991
 8512W        W67773  21.169   3.737   3.670
 8513W        W67774   0.447  18.591  11.530
 8514W        W67775   0.479  10.752   3.630
 8515W        W67776  16.193  11.341   3.196
 8516W        W67777   3.900   1.477   3.656
 8517W        W67778  40.862  36.028  13.002
 8518W        W67779  31.543  27.596  12.069
 8519W        W67780  27.000  34.045  13.906
 8520W        W67781  43.947  28.144   0.903
 8521W        W67782  11.790  38.543  11.446
 8522W        W67783  43.787  30.467   1.355
 8523W        W67784  31.622  39.046   3.159
 8524W        W67785  28.595  15.783  11.401
 8525W        W67786  28.009  41.313   1.799
 8526W        W67787  25.529  15.329  14.872
 8527W        W67788  40.307  35.485   1.924
 8528W        W67789   2.364   3.937  14.012
 8529W        W67790  24.078  23.574  13.011
 8530W        W67791  11.686  27.477  12.968
 8531W        W67792  15.615  38.555  11.119
 8532W        W67793  43.366  14.282  13.995
 8533W        W67794   5.761  40.350   4.186
 8534W        W67795  21.053  39.974  10.910
 8535W        W67796  14.339  14.235  12.989
 8536W        W67797  38.040  10.716  14.885
 8537W        W67798  29.116  34.100   4.273
 8538W        W67799  15.093  19.059  12.446
 8539W        W67800  17.199   4.218   0.737
 8540W        W67801  43.436   4.825  14.831
 8541W        W67802  16.703  20.576   4.170
 8542W        W67803   6.706  43.362  10.544
 8543W        W67804   2.722  42.957  12.028
 8544W        W67805  16.811  18.202  11.029
 8545W        W67806  14.781  24.006  14.473
 8546W        W67807  14.272  31.541   2.239
 8547W        W67808   5.896  24.496  11.561
 8548W        W67809   6.279   7.765   1.370
 8549W        W67810  19.699  42.803   2.240
 8550W        W67811  10.844  12.230  13.489
 8551W        W67812  43.938  26.137   9.928
 8552W        W67813  16.292  32.508  12.495
 8553W        W67814  32.428  37.865   2.271
 8554W        W67815   6.807  27.469  13.466
 8555W        W67816  29.446  36.550  13.527
 8556W        W67817  16.574  15.671   0.763
 8557W        W67818   6.318  35.980  14.931
 8558W        W67819  15.095  33.607  13.402
 8559W        W67820  42.480  19.095  12.542
 8560W        W67821   3.784  10.797  11.585
 8561W        W67822  12.635   5.381  13.441
 8562W        W67823  36.888  44.452  14.853
 8563W        W67824  12.307  22.160   0.926
 8564W        W67825  37.930  23.175  12.067
 8565W        W67826  40.821  12.299  12.919
 8566W        W67827  42.522  42.869  10.553
 8567W        W67828  44.952  17.762  10.494
 8568W        W67829  27.084  24.050  11.583
 8569W        W67830   6.421  39.892  10.891
 8570W        W67831  14.802   4.716   3.342
 8571W        W67832  35.374   8.790   3.295
 8572W        W67833   5.426  21.608   4.638
 8573W        W67834  28.443   0.362  11.017
 8574W        W67835  35.525  32.977   4.321
 8575W        W67836   2.724  29.432   1.878
 8576W        W67837   9.698  38.950   2.408
 8577W        W67838  35.091  16.667   0.472
 8578W        W67839  29.107   5.230   3.260
 8579W        W67840  13.708  16.615   1.862
 8580W        W67841  21.135  36.398   3.672
 8581W        W67842   5.781   6.823  13.817
 8582W        W67843  34.981  36.500   4.741
 8583W        W67844  36.019  10.846   1.841
 8584W        W67845  15.704   6.716  13.546
 8585W        W67846  27.021   7.836  10.565
 8586W        W67847  12.144  23.047   0.413
 8587W        W67848  25.153  43.922  12.024
 8588W        W67849  25.656  24.187   0.929
 8589W        W67850   6.875  43.481   0.395
 8590W        W67851  17.210   8.312   4.248
 8591W        W67852   8.226   7.730   0.835
 8592W        W67853   7.700  15.675   2.873
 8593W        W67854   8.389  39.448  14.843
 8594W        W67855  19.146  29.058  11.945
 8595W        W67856   9.227  38.841   1.893
 8596W        W67857   4.298  25.489  12.075
 8597W        W67858  18.123   5.272  12.912
 8598W        W67859   1.259  34.369  13.530
 8599W        W67860   8.673  31.967  14.833
 8600W        W67861  29.110   2.388   0.786
 8601W        W67862   9.329  14.305  11.416
 8602W        W67863  16.073   3.928  12.568
 8603W        W67864  30.494   8.217   3.760
 8604W        W67865   4.708  12.166  11.111
 8605W        W67866   1.818  21.526  14.814
 8606W        W67867  43.319  24.504  13.825
 8607W        W67868  41.854  21.114   1.216
 8608W        W67869  37.914  41.938  14.886
 8609W        W67870   9.820   6.821   4.171
 8610W        W67871  27.151  15.661  12.415
 8611W        W67872  32.524  44.378  13.524
 8612W        W67873  17.585   3.792   2.230
 8613W        W67874  39.496  19.667   4.262
 8614W        W67875  24.692  24.621  11.868
 8615W        W67876  36.426  32.899  12.564
 8616W        W67877  25.529  12.764   5.109
 8617W        W67878  25.083  19.657  11.875
 8618W        W67879  28.041   4.349  12.095
 8619W        W67880  10.663  11.847  13.474
 8620W        W67881  14.140  17.215   1.932
 8621W        W67882  34.048  15.700   3.855
 8622W        W67883   6.413  28.184  12.427
 8623W        W67884  16.747  44.430  12.084
 8624W        W67885  31.127   5.438  12.568
 8625W        W67886  10.304  13.812  10.471
 8626W        W67887   0.871  14.788   1.911
 8627W        W67888   3.461  44.843  13.984
 8628W        W67889  20.042   5.732   2.763
 8629W        W67890   9.192  29.560  12.458
 8630W        W67891  22.596  31.920  14.291
 8631W        W67892  31.466   3.414   4.692
 8632W        W67893   8.242  28.668  11.388
 8633W        W67894  33.075   8.260  13.333
 8634W        W67895  19.717  40.991  14.962
 8635W        W67896   6.267   9.249  13.054
 8636W        W67897  27.104  43.907   2.360
 8637W        W67898  41.978   4.918  12.962
 8638W        W67899   4.352  28.046  11.601
 8639W        W67900  41.883  25.127   3.178
 8640W        W67901   9.744  13.629   0.913
 8641W        W67902   7.370  16.697  10.448
 8642W        W67903  10.334  21.642   3.303
 8643W        W67904  40.332  11.728  13.490
 8644W        W67905   2.346  26.971   2.869
 8645W        W67906  22.134  23.130  12.999
 8646W        W67907  41.321  24.182  11.483
 8647W        W67908  10.874  38.522  13.349
 8648W        W67909  30.419   3.910   3.247
 8649W        W67910  41.957  42.024   2.680
 8650W        W67911  43.392  42.292  10.543
 8651W        W67912   5.814  22.108  11.108
 8652W        W67913  35.533   4.392   2.879
 8653W        W67914  25.002  21.551  12.928
 8654W        W67915  14.150  44.769   3.785
 8655W        W67916  11.679  28.641   2.761
 8656W        W67917  34.928   6.705   2.214
 8657W        W67918  43.875   3.358   3.869
 8658W        W67919  25.021  30.582   0.939
 8659W        W67920  42.954   7.283   0.930
 8660W        W67921  22.121  36.028   0.304
 8661W        W67922   5.391   4.771  11.861
 8662W        W67923   6.789  33.040   1.428
 8663W        W67924   6.422  38.828   5.208
 8664W        W67925   5.307   2.290   2.301
 8665W        W67926  28.558  26.534   3.286
 8666W        W67927  22.566  23.587   4.210
 8667W        W67928  20.168  17.725  14.005
 8668W        W67929  27.640  44.264   2.835
 8669W        W67930  40.340   7.878  13.050
 8670W        W67931   4.828  23.229   3.803
 8671W        W67932   1.364  29.451   1.245
 8672W        W67933   2.279   0.862   1.860
 8673W        W67934   1.842   7.863   0.822
 8674W        W67935  39.821  13.833   3.258
 8675W        W67936  20.095  29.545   4.273
 8676W        W67937  37.555  29.111   4.313
 8677W        W67938  34.928  39.397  13.032
 8678W        W67939   8.733  32.966  13.962
 8679W        W67940  23.023   8.391  13.836
 8680W        W67941  11.658  15.808  10.113
 8681W        W67942  32.606  23.562  13.363
 8682W        W67943  10.296   4.824  13.493
 8683W        W67944  36.506  35.981   0.426
 8684W        W67945  22.075  11.741  11.955
 8685W        W67946  11.208  27.608   3.356
 8686W        W67947   9.310  29.089  10.597
 8687W        W67948  17.708  28.443  13.042
 8688W        W67949  44.443  37.042   1.825
 8689W        W67950  43.331   6.819   0.933
 8690W        W67951  37.412  29.001  14.999
 8691W        W67952  16.168  31.027   0.467
 8692W        W67953   3.858  11.266   2.674
 8693W        W67954  23.126  29.141   3.165
 8694W        W67955  10.738  14.253  12.073
 8695W        W67956  17.632  12.696  10.500
 8696W        W67957  32.455  26.456   4.699
 8697W        W67958  31.444  19.266   2.748
 8698W        W67959  23.564  24.633   3.308
 8699W        W67960  33.069  29.946   0.292
 8700W        W67961   3.227  14.673   3.784
 8701W        W67962  35.094   7.318  14.502
 8702W        W67963  42.346  42.015   1.334
 8703W        W67964  22.208   3.809  14.313
 8704W        W67965  43.970  41.956  10.584
 8705W        W67966   6.344  30.625   3.203
 8706W        W67967   7.177  36.387   3.268
 8707W        W67968  15.109  30.937   3.867
 8708W        W67969  14.156   1.357  12.371
 8709W        W67970  32.106  35.065  13.847
 8710W        W67971  43.914  39.018   0.268
 8711W        W67972  36.990   9.384  13.451
 8712W        W67973  27.527  32.460  12.926
 8713W        W67974  10.178  17.190  11.890
 8714W        W67975  27.079  44.975  14.960
 8715W        W67976  36.036  20.572   1.430
 8716W        W67977  28.001  38.566   1.222
 8717W        W67978   4.705  25.171   2.378
 8718W        W67979  43.485  13.224  11.576
 8719W        W67980   4.711  33.509  10.602
 8720W        W67981   8.288  31.956   3.656
 8721W        W67982  10.374  44.342  10.896
 8722W        W67983   5.223  41.531  11.590
 8723W        W67984  30.031  37.050  12.382
 8724W        W67985  19.130   9.289   4.766
 8725W        W67986  33.415   4.820  10.160
 8726W        W67987  25.974   6.366   2.879
 8727W        W67988   8.372   5.250   2.301
 8728W        W67989  41.334  32.139  11.959
 8729W        W67990   9.390  41.882   3.632
 8730W        W67991   2.746  24.568   3.356
 8731W        W67992  26.494   0.964   4.650
 8732W        W67993  17.183  29.985   2.312
 8733W        W67994  43.877  28.556   2.196
 8734W        W67995   3.833  33.124  13.503
 8735W        W67996  16.587  19.245  10.493
 8736W        W67997  19.564  33.524  14.998
 8737W        W67998   2.755  24.516  10.492
 8738W        W67999  28.103   3.774   4.799
 8739W        W68000  21.230  40.038  14.956
 8740W        W68001   3.291  14.233   0.776
 8741W        W68002  18.259   8.830  11.444
 8742W        W68003   2.903  40.949  13.976
 8743W        W68004  39.887  37.399  14.861
 8744W        W68005  41.461  40.944  11.008
 8745W        W68006  21.749  13.108  11.015
 8746W        W68007  13.347   3.954   0.869
 8747W        W68008   3.340  39.001  12.874
 8748W        W68009  43.904  19.185  13.946
 8749W        W68010  19.673  18.746  10.076
 8750W        W68011  36.985   6.384   4.154
 8751W        W68012  33.934  30.044  14.999
 8752W        W68013  43.470   9.149   4.645
 8753W        W68014  20.267  20.144   1.279
 8754W        W68015   7.763  36.510   4.743
 8755W        W68016  28.135  13.105  11.398
 8756W        W68017  36.406  41.037  11.454
 8757W        W68018  15.603  22.221   2.193
 8758W        W68019  38.027  22.085  10.937
 8759W        W68020  32.560  40.402   2.288
 8760W        W68021  10.692   9.336  11.108
 8761W        W68022  25.153  17.262   0.430
 8762W        W68023  32.567  41.932  11.905
 8763W        W68024  11.211  27.458   1.838
 8764W        W68025  11.713  44.774  14.458
 8765W        W68026  34.924  40.473   9.947
 8766W        W68027  43.975  19.623  14.346
 8767W        W68028   1.338  16.173  11.569
 8768W        W68029  29.462  43.275   4.712
 8769W        W68030  14.157  41.303  11.455
 8770W        W68031  20.723  38.340  13.960
 8771W        W68032  29.170  32.031  14.904
 8772W        W68033  40.527  18.058   2.363
 8773W        W68034   5.257  11.802   2.287
 8774W        W68035  33.090  18.625  11.443
 8775W        W68036  27.605  17.103   0.408
 8776W        W68037  22.069  37.033  12.522
 8777W        W68038  39.035  33.881  12.070
 8778W        W68039  21.609  35.959  10.902
 8779W        W68040   1.296  14.822   2.880
 8780W        W68041  13.109  42.470   4.709
 8781W        W68042   5.915  43.314  11.567
 8782W        W68043  28.016  16.139  13.993
 8783W        W68044  24.090  27.592  12.838
 8784W        W68045  21.245  19.256  14.476
 8785W        W68046   8.259  23.095  10.963
 8786W        W68047  18.176  21.737   1.750
 8787W        W68048  35.514  21.193  11.074
 8788W        W68049  18.667  41.957  12.476
 8789W        W68050  23.663  11.638   4.331
 8790W        W68051  31.960   2.463  13.405
 8791W        W68052   5.913  37.427   1.719
 8792W        W68053  12.842  11.847   3.855
 8793W        W68054  32.984  27.685   2.824
 8794W        W68055  44.852  32.113  10.417
 8795W        W68056  17.622  36.062   0.959
 8796W        W68057  19.678  15.795   4.702
 8797W        W68058  16.173  25.037  10.567
 8798W        W68059  43.923  35.972   0.360
 8799W        W68060  25.590  20.216   1.431
 8800W        W68061   4.900  25.663  12.573
 8801W        W68062   9.693  19.596   3.268
 8802W        W68063  16.108   4.208   3.735
 8803W        W68064  44.345  27.657  11.566
 8804W        W68065  18.551  38.965  13.885
 8805W        W68066  30.507  33.075   3.771
 8806W        W68067  34.443   8.794  10.903
 8807W        W68068  39.867   9.887   0.794
 8808W        W68069  12.633  13.124   1.756
 8809W        W68070  25.994   6.199   0.278
 8810W        W68071  33.947   7.753   9.640
 8811W        W68072  44.803   3.849  11.075
 8812W        W68073  39.905   3.780   3.357
 8813W        W68074  15.261  29.134  14.474
 8814W        W68075  17.613   1.361  13.362
 8815W        W68076   5.357   8.270  11.490
 8816W        W68077  40.846  40.521  13.393
 8817W        W68078  27.969  28.931   1.284
 8818W        W68079   8.789  43.867  10.511
 8819W        W68080   7.213  38.565   1.881
 8820W        W68081  42.851   6.830   0.819
 8821W        W68082   3.254  32.612  14.825
 8822W        W68083  26.619  39.030  14.926
 8823W        W68084  36.509  32.521   2.311
 8824W        W68085  35.941  31.599   0.882
 8825W        W68086  41.421  31.103   1.702
 8826W        W68087   1.473  23.033  13.999
 8827W        W68088   0.290  43.469   0.955
 8828W        W68089  10.838  16.109   1.699
 8829W        W68090  28.948  32.470  10.615
 8830W        W68091  18.629   9.862   2.892
 8831W        W68092  36.365  29.589   1.224
 8832W        W68093  37.834  44.982   4.682
 8833W        W68094  36.970  27.030   0.951
 8834W        W68095  38.446   0.860  13.448
 8835W        W68096  23.530   7.705   4.118
 8836W        W68097  20.706   3.750   4.181
 8837W        W68098  21.107  22.999   0.743
 8838W        W68099   7.806  12.618  14.342
 8839W        W68100   7.816  10.841   4.262
 8840W        W68101  28.161  20.070   3.741
 8841W        W68102   3.334  12.359   2.811
 8842W        W68103   8.674  19.201  12.451
 8843W        W68104  33.116  10.849  12.830
 8844W        W68105  29.609  36.377  11.967
 8845W        W68106  18.646  43.812  12.006
 8846W        W68107  22.176  19.059  13.828
 8847W        W68108  23.023  22.251   3.239
 8848W        W68109  31.407   2.351  14.840
 8849W        W68110  25.610  27.658  13.970
 8850W        W68111  13.298  34.504   3.235
 8851W        W68112  28.677   2.455   2.859
 8852W        W68113   3.451  29.990  13.450
 8853W        W68114  32.906   6.301   1.449
 8854W        W68115  27.184  44.355   3.192
 8855W        W68116  41.931  36.479   0.349
 8856W        W68117  43.440  36.938   1.711
 8857W        W68118   3.742  43.396   2.370
 8858W        W68119  36.532  44.412  10.154
 8859W        W68120  41.815   0.278  10.474
 8860W        W68121  11.342  19.210   4.816
 8861W        W68122   3.394  21.615  13.455
 8862W        W68123  29.000   1.734  12.908
 8863W        W68124   4.445  18.693  12.965
 8864W        W68125  25.547  32.941   3.377
 8865W        W68126  37.009  36.909   2.370
 8866W        W68127  13.659  16.262   0.302
 8867W        W68128  15.214   1.342  13.052
 8868W        W68129  13.738  39.880  11.474
 8869W        W68130  33.428   3.735  11.023
 8870W        W68131  14.763  17.562   3.207
 8871W        W68132  17.211   7.694  14.390
 8872W        W68133  11.780  25.973  13.932
 8873W        W68134  26.998  18.623   2.267
 8874W        W68135   1.852  37.380  11.095
 8875W        W68136  30.029  26.057  10.536
 8876W        W68137  36.862  22.067   3.201
 8877W        W68138  37.943  24.060   3.780
 8878W        W68139  13.228  27.556  11.886
 8879W        W68140  26.647  15.187  14.787
 8880W        W68141   5.427  12.320   0.365
 8881W        W68142  26.468  13.739   3.777
 8882W        W68143   2.337  13.168   2.322
 8883W        W68144   8.223  24.064  14.849
 8884W        W68145  16.272  15.801  14.333
 8885W        W68146  27.110   0.401   4.724
 8886W        W68147   6.427  12.766   0.800
 8887W        W68148  44.340   5.907  13.416
 8888W        W68149  38.027  42.439  11.004
 8889W        W68150   8.349  19.039   0.931
 8890W        W68151  10.844  14.810  12.899
 8891W        W68152  34.912  44.799  12.561
 8892W        W68153  11.673  12.797   0.317
 8893W        W68154   6.903  10.383   2.336
 8894W        W68155  43.379  43.488  10.499
 8895W        W68156  28.675  24.149   0.748
 8896W        W68157  13.208  23.104  13.540
 8897W        W68158  37.084  16.772   0.793
 8898W        W68159  37.351   0.870   3.304
 8899W        W68160  27.450  16.731  12.999
 8900W        W68161  18.215  35.981  14.921
 8901W        W68162  38.003  26.674   4.239
 8902W        W68163  33.966  11.304  11.519
 8903W        W68164   4.858   9.750   3.808
 8904W        W68165   5.707  29.042  12.444
 8905W        W68166  34.863  29.095   1.232
 8906W        W68167   6.864  15.744  11.969
 8907W        W68168  42.394  22.702   3.300
 8908W        W68169  42.523  39.421  14.424
 8909W        W68170   4.309  36.019   4.683
 8910W        W68171  39.848   4.849   2.675
 8911W        W68172  41.997  23.595  12.933
 8912W        W68173  20.102  42.456  12.544
 8913W        W68174  44.837  15.705  14.910
 8914W        W68175  32.991  27.614   0.885
 8915W        W68176  40.998  18.264  14.017
 8916W        W68177  11.333   7.278   2.278
 8917W        W68178  12.359  20.205   2.307
 8918W        W68179  43.469  36.397   2.287
 8919W        W68180  30.633   9.151  12.068
 8920W        W68181  12.648  29.498  10.587
 8921W        W68182  32.907   3.317  10.420
 8922W        W68183  25.009  38.389   0.750
 8923W        W68184   9.812   2.844   0.350
 8924W        W68185  19.216   9.331   3.307
 8925W        W68186   1.914  39.835  14.954
 8926W        W68187  16.585  27.104  12.880
 8927W        W68188  40.547   7.862  13.996
 8928W        W68189  31.554  32.456  12.890
 8929W        W68190  22.111  24.189   2.696
 8930W        W68191  23.026   4.935  10.485
 8931W        W68192  21.623   1.878   0.244
 8932W        W68193  34.461  41.028  12.510
 8933W        W68194  29.016  33.564  14.373
 8934W        W68195  37.087  27.486  13.937
 8935W        W68196  13.320   4.878  11.501
 8936W        W68197  18.745  41.406   4.648
 8937W        W68198  12.224  22.540   4.727
 8938W        W68199  21.602  21.090   1.377
 8939W        W68200  10.210   0.468  10.453
 8940W        W68201   7.324  10.823   3.809
 8941W        W68202  24.189  27.141  11.106
 8942W        W68203  29.500  19.714   0.822
 8943W        W68204   4.329  12.220  13.353
 8944W        W68205  11.184   1.399  11.455
 8945W        W68206  34.871  17.799  11.892
 8946W        W68207  29.936  10.277  10.560
 8947W        W68208  42.906  26.488  13.965
 8948W        W68209   8.777  14.272  13.874
 8949W        W68210  12.258   5.809  12.502
 8950W        W68211   0.276  22.744  11.490
 8951W        W68212  31.141   3.302   2.668
 8952W        W68213   1.745  11.322   0.877
 8953W        W68214  19.154   8.289   2.811
 8954W        W68215  30.157  42.924  12.914
 8955W        W68216  24.199  17.107  13.922
 8956W        W68217  20.586   1.452  10.605
 8957W        W68218   5.323  12.737   1.300
 8958W        W68219  40.829  39.020  13.378
 8959W        W68220  40.395  38.958  13.007
 8960W        W68221  27.167  43.278   2.335
 8961W        W68222  31.911  27.951   1.233
 8962W        W68223  44.901  35.965  10.516
 8963W        W68224  12.620  20.760  13.445
 8964W        W68225  33.421  22.523  14.999
 8965W        W68226  10.374  24.498  11.959
 8966W        W68227  23.551  43.348   1.892
 8967W        W68228   8.237  21.703   0.356
 8968W        W68229  34.971   0.369   2.232
 8969W        W68230   8.868   3.231  13.538
 8970W        W68231  32.636  11.660  13.541
 8971W        W68232  36.974  40.922  13.308
 8972W        W68233  31.581  10.680  12.943
 8973W        W68234  21.085  35.928  10.628
 8974W        W68235  17.293   3.935  11.406
 8975W        W68236   5.259   1.276  11.946
 8976W        W68237   2.289   3.379   1.855
 8977W        W68238  24.578  44.358  11.956
 8978W        W68239  40.469  33.602   5.175
 8979W        W68240  22.525  34.578  14.788
 8980W        W68241  41.024   0.764   4.298
 8981W        W68242  16.569  25.066   3.301
 8982W        W68243  33.909  38.057   4.754
 8983W        W68244  39.988  24.688  11.571
 8984W        W68245  33.555  31.102  13.042
 8985W        W68246   2.349  18.566   3.219
 8986W        W68247  36.923  22.169   1.809
 8987W        W68248  24.532   5.331   0.305
 8988W        W68249  28.498  20.732  12.540
 8989W        W68250   2.359   7.678   0.908
 8990W        W68251  20.121  43.435  12.095
 8991W        W68252  37.887  19.040   2.703
 8992W        W68253  35.028   3.884  12.511
 8993W        W68254  11.346  12.123  11.430
 8994W        W68255  15.673  31.058  12.984
 8995W        W68256  18.098  39.401   1.768
 8996W        W68257  24.212  28.519  13.980
 8997W        W68258  18.233  25.167   4.666
 8998W        W68259  38.000  34.923   1.819
 8999W        W68260   7.813  41.839   1.283
 9000W        W68261  25.635  43.312   1.849
 9001W        W68262  30.527  33.401  13.800
 9002W        W68263   3.217  31.416  10.951
 9003W        W68264  17.124  11.721  11.584
 9004W        W68265   5.322  33.012  11.413
 9005W        W68266  19.714  39.447  12.000
 9006W        W68267   6.318  25.521   2.888
 9007W        W68268  27.487   6.301  13.841
 9008W        W68269  30.071  34.592  14.317
 9009W        W68270  35.408  31.482  11.120
 9010W        W68271   9.361  11.767   2.806
 9011W        W68272   4.864  39.488  10.554
 9012W        W68273  16.156  34.480  11.107
 9013W        W68274  32.615  36.002   2.191
 9014W        W68275  38.019  37.339   4.305
 9015W        W68276   1.739  15.800   1.390
 9016W        W68277   8.768  20.701  13.814
 9017W        W68278  11.688   4.775   3.730
 9018W        W68279   1.349   2.304  11.550
 9019W        W68280   5.800  40.471  13.437
 9020W        W68281  19.658  30.984  13.965
 9021W        W68282  35.382  10.309   3.228
 9022W        W68283  34.991   7.827  13.428
 9023W        W68284  35.852  20.580  11.531
 9024W        W68285  38.971  41.807  10.918
 9025W        W68286  28.060  42.909   4.197
 9026W        W68287   7.706   0.301   2.852
 9027W        W68288  11.262   3.850  14.856
 9028W        W68289  11.186  16.591  11.532
 9029W        W68290  13.175   5.426  12.409
 9030W        W68291   6.215  11.746   4.752
 9031W        W68292  41.319  27.689  14.426
 9032W        W68293  26.995  21.067  13.533
 9033W        W68294  43.867  15.159  14.960
 9034W        W68295  24.573  21.674   4.196
 9035W        W68296  17.204   8.235   3.278
 9036W        W68297   1.450  12.715  14.373
 9037W        W68298  20.219  43.350  10.558
 9038W        W68299   1.861  30.155   3.808
 9039W        W68300  34.562  10.192   1.736
 9040W        W68301  18.088  37.434  12.540
 9041W        W68302  29.950  24.982  10.987
 9042W        W68303  11.849  39.367   0.755
 9043W        W68304  34.914  41.301   0.411
 9044W        W68305  38.837  17.163  13.944
 9045W        W68306  30.100  10.289  14.302
 9046W        W68307  32.056  40.547  11.491
 9047W        W68308   9.341   5.732   3.168
 9048W        W68309  32.390  26.183  13.887
 9049W        W68310  44.854   6.345  12.972
 9050W        W68311   9.232  10.828  13.466
 9051W        W68312  12.705  39.522   0.756
 9052W        W68313  20.161   4.852  11.896
 9053W        W68314   9.204  44.771   3.837
 9054W        W68315  13.298  36.863   1.390
 9055W        W68316  15.589   1.350   0.428
 9056W        W68317  28.476  13.703  12.864
 9057W        W68318   3.833   3.403   2.742
 9058W        W68319  39.351   3.243  11.536
 9059W        W68320  32.917  38.862  12.973
 9060W        W68321  36.389  32.125  13.882
 9061W        W68322  43.279  34.445   2.854
 9062W        W68323   8.279  39.816  11.950
 9063W        W68324  16.289  11.794  11.437
 9064W        W68325  28.952  23.190  12.543
 9065W        W68326  28.617  24.038  10.510
 9066W        W68327   6.343  27.147   4.682
 9067W        W68328  12.736  30.506   1.272
 9068W        W68329   4.930  30.076   4.308
 9069W        W68330  37.344  30.520   2.393
 9070W        W68331  11.703  25.214  14.016
 9071W        W68332  39.464   2.276  13.029
 9072W        W68333  22.207  29.160  14.416
 9073W        W68334  28.182   0.366   3.780
 9074W        W68335  42.351  28.679   9.541
 9075W        W68336  38.501  27.670   2.806
 9076W        W68337  19.603  27.567  11.112
 9077W        W68338  19.247  43.277  12.379
 9078W        W68339  28.055  27.029  13.453
 9079W        W68340  23.080   7.282   0.403
 9080W        W68341  32.409  19.608  14.501
 9081W        W68342  26.036   7.353   1.422
 9082W        W68343  40.528  24.722   3.219
 9083W        W68344  41.799  18.243  13.882
 9084W        W68345  17.696  21.598   3.635
 9085W        W68346   2.365  38.925   2.232
 9086W        W68347  28.931   4.713  12.964
 9087W        W68348  43.810  28.586   5.161
 9088W        W68349   2.296   3.335   3.279
 9089W        W68350  15.776  33.070  13.885
 9090W        W68351  21.103  42.855  12.546
 9091W        W68352   9.784  20.603  12.029
 9092W        W68353  30.081  14.157  13.922
 9093W        W68354  20.250  37.041   2.730
 9094W        W68355  26.498   0.882   1.860
 9095W        W68356  31.644  23.063   0.439
 9096W        W68357   1.914   5.856  14.400
 9097W        W68358  30.628  14.673   1.350
 9098W        W68359  22.155  22.739   1.828
 9099W        W68360  12.617  12.318  10.940
 9100W        W68361  41.534  37.867  10.091
 9101W        W68362  42.979  12.168   3.723
 9102W        W68363  13.175  15.287   0.877
 9103W        W68364  14.667   9.200  12.966
 9104W        W68365   5.896  23.725  13.538
 9105W        W68366   1.846  17.291   4.121
 9106W        W68367   3.433  24.016  12.830
 9107W        W68368   2.440  35.374  11.089
 9108W        W68369  20.577  13.641   1.804
 9109W        W68370   3.317   2.467   2.281
 9110W        W68371  39.815  22.549   4.608
 9111W        W68372   3.253  18.645  13.911
 9112W        W68373  27.502   8.847   2.711
 9113W        W68374  41.492   7.818  10.577
 9114W        W68375  32.478  41.353  12.478
 9115W        W68376  14.607   0.768  12.507
 9116W        W68377  35.049  26.665  13.374
 9117W        W68378  31.516  17.592   4.653
 9118W        W68379  24.629  42.862  13.350
 9119W        W68380   2.882   4.425  14.771
 9120W        W68381  16.271   8.730  11.030
 9121W        W68382  31.540  44.959   3.777
 9122W        W68383  43.776  13.813   1.259
 9123W        W68384  27.670   7.693   2.338
 9124W        W68385   9.671  28.151   4.247
 9125W        W68386  21.251  24.111  10.553
 9126W        W68387   4.710  23.181  10.430
 9127W        W68388  26.000  14.280  13.507
 9128W        W68389  27.507  31.475  14.363
 9129W        W68390  21.695   2.766   3.750
 9130W        W68391  19.221  10.315   3.834
 9131W        W68392   1.842   9.177   1.711
 9132W        W68393  27.027  41.479  13.410
 9133W        W68394  15.163  31.642   4.244
 9134W        W68395  33.457   0.271  12.390
 9135W        W68396  34.514  14.733   0.873
 9136W        W68397  31.150  43.976  13.326
 9137W        W68398  30.064  10.375  13.458
 9138W        W68399   7.895   7.355   2.391
 9139W        W68400  35.470  30.041  10.420
 9140W        W68401  44.488  27.954  12.051
 9141W        W68402  27.181  16.669   4.659
 9142W        W68403  11.207  21.667   1.832
 9143W        W68404  30.158  17.220  14.419
 9144W        W68405  12.214  36.937  14.486
 9145W        W68406  11.219  20.731   4.677
 9146W        W68407  13.718  10.651  14.362
 9147W        W68408  43.874  21.693  12.983
 9148W        W68409  19.620  22.719  12.060
 9149W        W68410  21.200  18.100  12.382
 9150W        W68411  12.634   6.377  14.843
 9151W        W68412  11.693  20.679  12.523
 9152W        W68413  36.006  38.007   3.367
 9153W        W68414  18.240  15.324   2.238
 9154W        W68415  17.254   5.264   2.720
 9155W        W68416  13.698  38.931   0.802
 9156W        W68417  22.187  19.734  12.985
 9157W        W68418  26.620   7.769  14.017
 9158W        W68419  21.043  26.522  10.558
 9159W        W68420   4.940  14.301  13.842
 9160W        W68421   1.479  40.036  13.307
 9161W        W68422  35.378   0.344  14.310
 9162W        W68423  23.154  23.632   2.189
 9163W        W68424  26.461  25.090  11.009
 9164W        W68425  27.673   8.188   2.318
 9165W        W68426  44.262  23.050  13.811
 9166W        W68427  18.758  43.887   0.900
 9167W        W68428  25.601   2.282   5.727
 9168W        W68429  37.525  38.445  10.471
 9169W        W68430  27.608  43.311  13.547
 9170W        W68431  32.027   4.366   1.816
 9171W        W68432  11.225  21.215   4.187
 9172W        W68433  28.475  39.504  14.026
 9173W        W68434  27.514  40.473  11.067
 9174W        W68435  32.992   6.774   1.279
 9175W        W68436   5.793  22.537   4.273
 9176W        W68437   3.845  18.722  11.425
 9177W        W68438  33.573  15.094  11.411
 9178W        W68439  44.378  20.034  14.386
 9179W        W68440  41.807  38.823  12.459
 9180W        W68441  22.519  28.134   4.131
 9181W        W68442  21.046  33.930   2.348
 9182W        W68443  12.698  28.935   1.364
 9183W        W68444  15.144  25.089   1.425
 9184W        W68445  13.814   3.423   4.174
 9185W        W68446  36.472  41.452   2.402
 9186W        W68447  38.389  15.610   0.758
 9187W        W68448  30.481  10.856  11.966
 9188W        W68449  41.494  34.418   0.816
 9189W        W68450  39.375  41.460  12.347
 9190W        W68451  36.086  42.436   1.872
 9191W        W68452  20.557  20.166   2.393
 9192W        W68453  26.615  22.628  13.944
 9193W        W68454  23.228  16.179   2.883
 9194W        W68455  24.038   7.373   0.270
 9195W        W68456  38.876  30.150   4.228
 9196W        W68457  19.773   2.906   4.824
 9197W        W68458  17.074  19.182  13.406
 9198W        W68459  15.725   4.760  14.278
 9199W        W68460  24.544   4.269  12.089
 9200W        W68461  33.895  21.201   9.977
 9201W        W68462  37.354  24.206   4.724
 9202W        W68463  33.973  32.933   1.284
 9203W        W68464  32.054  24.046  14.793
 9204W        W68465  31.117  17.627   1.372
 9205W        W68466  23.701  28.500   1.330
 9206W        W68467  14.166   9.172   2.413
 9207W        W68468   6.766   4.299   3.333
 9208W        W68469  27.665  30.066   0.311
 9209W        W68470  23.089  17.714  14.307
 9210W        W68471   1.355  13.712   4.188
 9211W        W68472  26.616  42.789   0.848
 9212W        W68473  14.148  26.597   0.295
 9213W        W68474  30.534  35.483  14.285
 9214W        W68475   0.789   5.917  11.121
 9215W        W68476  22.235  25.098   1.277
 9216W        W68477  43.000   1.352  13.854
 9217W        W68478  16.284  29.441   2.888
 9218W        W68479  20.757  37.366  13.923
 9219W        W68480  39.430   2.358   2.350
 9220W        W68481  30.552  39.008   4.235
 9221W        W68482  40.854   9.217  12.074
 9222W        W68483  40.327  21.698  12.393
 9223W        W68484  29.152  16.711  14.283
 9224W        W68485  13.233  23.020   4.167
 9225W        W68486   4.910  14.642  11.607
 9226W        W68487   7.863  33.528   0.880
 9227W        W68488   5.308  33.116  12.561
 9228W        W68489  19.227  31.951   4.692
 9229W        W68490   9.874  23.691  13.406
 9230W        W68491  10.690  22.036   2.256
 9231W        W68492  22.588   1.310  14.897
 9232W        W68493  23.124  12.120   1.350
 9233W        W68494  38.512  38.967   3.230
 9234W        W68495   7.385  10.759   2.295
 9235W        W68496  28.025  39.879   3.210
 9236W        W68497  21.130   7.303   1.819
 9237W        W68498  44.771  38.412   4.670
 9238W        W68499  21.262   5.411   1.713
 9239W        W68500   4.422  17.277   3.644
 9240W        W68501  18.774  22.245   3.651
 9241W        W68502  19.186  44.839  12.828
 9242W        W68503  36.433  22.526  13.934
 9243W        W68504  18.164  44.348  10.430
 9244W        W68505  19.154   1.411  12.431
 9245W        W68506  22.520  23.087   4.118
 9246W        W68507  29.980  10.856  13.414
 9247W        W68508  23.668   6.333   2.853
 9248W        W68509  27.515  44.002   2.342
 9249W        W68510  41.385   4.744  13.940
 9250W        W68511  17.597   7.737  10.413
 9251W        W68512  19.608  23.165  11.432
 9252W        W68513  44.908  21.171  13.015
 9253W        W68514  10.247   3.804  13.804
 9254W        W68515  39.361  41.465  14.820
 9255W        W68516   6.185  34.474   1.340
 9256W        W68517   4.325  30.154   3.257
 9257W        W68518  22.538  30.988   2.388
 9258W        W68519   0.456  18.583  12.871
 9259W        W68520  21.148   9.174  12.417
 9260W        W68521  27.123  44.348  13.418
 9261W        W68522  10.178  10.159  11.469
 9262W        W68523   1.890  27.043  13.541
 9263W        W68524  15.745  11.803   0.367
 9264W        W68525   9.671  40.894   1.278
 9265W        W68526  21.557  21.751   2.871
 9266W        W68527  40.526  42.516   4.795
 9267W        W68528  39.888  37.878  12.471
 9268W        W68529  40.959   7.239  13.943
 9269W        W68530  37.010  44.946  10.594
 9270W        W68531  28.553  17.757   3.171
 9271W        W68532   2.446   0.811  10.479
 9272W        W68533  28.494  36.565  13.314
 9273W        W68534  26.533  39.491   0.801
 9274W        W68535  35.969   7.360   2.717
 9275W        W68536  26.121   1.449  14.969
 9276W        W68537  35.068  43.981   3.685
 9277W        W68538  36.995   0.429   4.611
 9278W        W68539   5.853  20.762   0.912
 9279W        W68540  43.365  10.798  12.391
 9280W        W68541  30.940  34.531  10.434
 9281W        W68542   8.787  21.134  11.080
 9282W        W68543  30.084  10.681  11.962
 9283W        W68544  35.876  23.155  10.451
 9284W        W68545   3.255  16.694  11.416
 9285W        W68546  30.490  17.100   5.207
 9286W        W68547   4.407  32.414   4.316
 9287W        W68548  14.724  42.383   1.308
 9288W        W68549  13.831  17.296  14.937
 9289W        W68550  27.995  40.853  13.058
 9290W        W68551  27.117  23.502  11.998
 9291W        W68552  10.722  43.884  11.452
 9292W        W68553  34.550  18.703   3.303
 9293W        W68554  39.510   8.285   1.915
 9294W        W68555  42.458   0.492  12.474
 9295W        W68556  12.781  17.596  10.417
 9296W        W68557  27.135  23.694   0.812
 9297W        W68558  17.169  36.005  12.990
 9298W        W68559  43.419  37.483  14.931
 9299W        W68560  40.485  13.186  13.311
 9300W        W68561   2.853  17.651   0.346
 9301W        W68562  19.264  26.059  10.501
 9302W        W68563   7.857  44.867   0.369
 9303W        W68564  29.525  26.044   0.468
 9304W        W68565  42.327  21.667  11.481
 9305W        W68566   7.867  23.095  11.090
 9306W        W68567   5.861  14.591  14.429
 9307W        W68568   5.203  35.956  12.884
 9308W        W68569  18.183  16.778   3.634
 9309W        W68570  18.234  11.628  12.432
 9310W        W68571  28.170   4.747   4.249
 9311W        W68572  33.048  40.988  12.078
 9312W        W68573  28.516   3.436   2.770
 9313W        W68574  32.603  19.657  13.043
 9314W        W68575  23.584  35.512  13.417
 9315W        W68576  36.367  22.039  12.571
 9316W        W68577  12.705  15.296  13.395
 9317W        W68578  31.012  29.067  10.403
 9318W        W68579  34.053  14.589  11.374
 9319W        W68580   4.262   7.689  13.384
 9320W        W68581  36.559  37.407  10.513
 9321W        W68582  20.664  13.206  11.899
 9322W        W68583  18.187  32.548   4.616
 9323W        W68584  30.569  41.340   3.629
 9324W        W68585  21.205   0.287   2.295
 9325W        W68586  26.181  38.418   2.807
 9326W        W68587  26.042  28.179   4.760
 9327W        W68588   3.272   6.261   1.424
 9328W        W68589  40.537  41.043  14.892
 9329W        W68590   9.333  29.044  11.003
 9330W        W68591  28.505  29.576  12.379
 9331W        W68592  10.831  29.018  12.405
 9332W        W68593  40.018  41.400   4.198
 9333W        W68594  17.565   6.683  12.373
 9334W        W68595   3.817  16.192  11.098
 9335W        W68596  34.555  29.464  14.830
 9336W        W68597   8.277  34.446  13.956
 9337W        W68598  42.023  41.839   2.188
 9338W        W68599  23.033  42.804   3.639
 9339W        W68600   3.448   7.196  14.887
 9340W        W68601  16.224  42.010  10.423
 9341W        W68602   3.850  10.644  12.438
 9342W        W68603  21.689   2.802  13.427
 9343W        W68604  37.915  40.464  13.484
 9344W        W68605  38.057   7.774  14.293
 9345W        W68606  30.419  13.798   3.691
 9346W        W68607  40.364  28.515   1.424
 9347W        W68608  40.509  32.078   1.858
 9348W        W68609  16.245  12.141   3.379
 9349W        W68610  12.643  26.457  10.515
 9350W        W68611  15.647   2.774   1.720
 9351W        W68612  41.786  33.537   2.266
 9352W        W68613  25.470  25.034  12.504
 9353W        W68614  38.899   3.814   0.334
 9354W        W68615   7.700  28.532  10.454
 9355W        W68616  14.815  33.535  10.137
 9356W        W68617  34.060  19.718  14.012
 9357W        W68618   5.916   3.821  11.967
 9358W        W68619  32.121  16.214  14.760
 9359W        W68620  30.535  35.929  13.533
 9360W        W68621   1.309   9.388   2.834
 9361W        W68622  30.603  28.652  12.386
 9362W        W68623  40.463  35.883  11.940
 9363W        W68624  39.405  16.612   2.218
 9364W        W68625  24.088  33.616  12.044
 9365W        W68626  26.967  14.170  14.383
 9366W        W68627  38.964  22.577  11.943
 9367W        W68628  30.476  24.012   4.181
 9368W        W68629  28.639  17.558   2.761
 9369W        W68630  12.813  31.102   3.204
 9370W        W68631  34.515  14.745  13.844
 9371W        W68632  13.717   3.921   3.658
 9372W        W68633  22.693  37.556   0.461
 9373W        W68634  40.930  29.071  12.002
 9374W        W68635  44.280  13.775  13.893
 9375W        W68636  10.373  40.305  10.459
 9376W        W68637  38.945  11.796   4.217
 9377W        W68638  27.957   8.209  13.441
 9378W        W68639  15.814  14.308  13.514
 9379W        W68640  14.679   9.654   0.773
 9380W        W68641  13.122  24.049  12.476
 9381W        W68642  17.669  23.097   4.817
 9382W        W68643  13.343  11.868   2.366
 9383W        W68644   3.947  34.390   2.886
 9384W        W68645  24.529   4.289   9.629
 9385W        W68646  36.430  35.864   3.772
 9386W        W68647  10.219  22.544  13.489
 9387W        W68648  25.043  17.588  12.918
 9388W        W68649  28.680  12.807   1.378
 9389W        W68650  22.098  23.024  11.110
 9390W        W68651  17.599  37.900  14.490
 9391W        W68652  36.046  20.746  12.339
 9392W        W68653   9.392  10.161   0.445
 9393W        W68654  36.422  29.058   9.971
 9394W        W68655  43.883  10.170   0.480
 9395W        W68656  42.947  33.014  12.049
 9396W        W68657   8.838  28.510  12.952
 9397W        W68658   1.976  33.391   4.760
 9398W        W68659   4.450  20.238  14.028
 9399W        W68660   9.348   4.418  11.119
 9400W        W68661  38.990  36.076   1.393
 9401W        W68662  23.016  11.736   4.784
 9402W        W68663   1.748  39.317  12.505
 9403W        W68664  32.885  21.665  12.561
 9404W        W68665  15.314  13.205   4.334
 9405W        W68666  18.657  11.255  11.508
 9406W        W68667  18.714  43.294   0.363
 9407W        W68668   7.190  25.714  14.837
 9408W        W68669   2.966   8.892   0.838
 9409W        W68670  43.270   3.439   3.184
 9410W        W68671   2.859  10.382   0.905
 9411W        W68672  35.357  24.019   2.772
 9412W        W68673  41.522  23.593   1.293
 9413W        W68674  36.056  43.902   2.844
 9414W        W68675  36.880  29.091  12.422
 9415W        W68676  33.612  34.455  14.784
 9416W        W68677   5.352  17.177  14.814
 9417W        W68678   2.469  14.314  11.402
 9418W        W68679  12.224  18.125  11.052
 9419W        W68680  10.643  28.980  10.481
 9420W        W68681   5.381  37.399  12.379
 9421W        W68682  14.733  17.140  12.374
 9422W        W68683  25.122   5.837  10.568
 9423W        W68684  44.830  19.757   4.351
 9424W        W68685  24.046  31.562  13.815
 9425W        W68686  14.812   9.218  14.799
 9426W        W68687  21.524   7.276   5.200
 9427W        W68688  13.175   9.362  14.000
 9428W        W68689  16.753  12.847   0.769
 9429W        W68690  43.316  11.319  10.624
 9430W        W68691   6.844  31.531  12.844
 9431W        W68692  20.247  33.046   2.349
 9432W        W68693  14.210   0.363  14.934
 9433W        W68694  14.742  15.184  11.613
 9434W        W68695  27.472  12.843  10.441
 9435W        W68696  35.495  23.196   1.369
 9436W        W68697  32.012  43.451   3.232
 9437W        W68698  19.147  17.065   4.699
 9438W        W68699   7.269   2.226   2.213
 9439W        W68700  23.543   2.731   3.173
 9440W        W68701  16.287  30.517   4.685
 9441W        W68702  23.600  24.079   0.427
 9442W        W68703   8.171  32.547   2.332
 9443W        W68704  32.520   3.838   1.224
 9444W        W68705  28.497  31.057   3.736
 9445W        W68706  23.134  20.034  13.797
 9446W        W68707  42.826  13.631  11.555
 9447W        W68708  22.196  31.056  13.511
 9448W        W68709  36.529  14.311  13.791
 9449W        W68710  27.566   2.792  12.845
 9450W        W68711  16.575  28.037  10.447
 9451W        W68712   9.828  44.840  13.372
 9452W        W68713  21.546  18.193   4.758
 9453W        W68714  20.537   3.220  10.145
 9454W        W68715  30.535  35.963  10.574
 9455W        W68716  16.118   7.312  10.602
 9456W        W68717   6.272  35.975  13.793
 9457W        W68718  24.689   0.960  12.395
 9458W        W68719  11.704  44.781   2.780
 9459W        W68720  20.730  11.633   0.817
 9460W        W68721  37.903  19.648   2.344
 9461W        W68722  12.174   1.736  12.365
 9462W        W68723  38.497  43.933   3.740
 9463W        W68724  28.184  23.489  12.917
 9464W        W68725  37.920  39.520   3.179
 9465W        W68726  14.136  25.528   0.881
 9466W        W68727  15.265  28.965   1.344
 9467W        W68728  26.069  29.516   3.717
 9468W        W68729  11.781  37.882   4.143
 9469W        W68730   8.196  37.833   4.252
 9470W        W68731  21.558  32.521  12.989
 9471W        W68732  41.487  27.597   1.741
 9472W        W68733  34.108  26.191  12.890
 9473W        W68734  40.800  42.508  11.436
 9474W        W68735   3.716  25.594   1.848
 9475W        W68736   1.463  11.251  13.329
 9476W        W68737  32.489  28.016  14.900
 9477W        W68738  29.507  37.973  12.982
 9478W        W68739   8.688  12.803   1.404
 9479W        W68740  33.580  41.007  12.064
 9480W        W68741  30.920   4.298   3.834
 9481W        W68742  37.831  17.745  14.308
 9482W        W68743  14.720  10.668  12.388
 9483W        W68744  29.543  13.197  13.889
 9484W        W68745  25.059  42.364  11.440
 9485W        W68746   2.424  32.596  13.489
 9486W        W68747   6.801  38.885  11.889
 9487W        W68748   7.665  11.758   0.934
 9488W        W68749  12.336  15.810   1.785
 9489W        W68750  41.875  10.341  11.922
 9490W        W68751  18.279  36.058  13.317
 9491W        W68752  18.072  33.000  11.404
 9492W        W68753  32.527  25.690   3.777
 9493W        W68754   7.177  28.443  10.967
 9494W        W68755  27.477  22.011   0.276
 9495W        W68756  40.879  25.512  11.000
 9496W        W68757  32.976  10.805  12.361
 9497W        W68758  35.005   3.216   1.335
 9498W        W68759  19.741  18.088   4.306
 9499W        W68760  37.429   1.425   2.830
 9500W        W68761  29.640  29.474  12.063
 9501W        W68762  39.345  42.289  11.415
 9502W        W68763  13.718  37.386   5.090
 9503W        W68764  38.849  21.533  13.907
 9504W        W68765   6.363  28.504   3.380
 9505W        W68766  33.418  23.617  10.919
 9506W        W68767  44.766  33.916  12.009
 9507W        W68768   9.283  25.691  14.486
 9508W        W68769  16.106  39.502   1.736
 9509W        W68770  40.855  17.677   0.259
 9510W        W68771  20.251  32.565   4.771
 9511W        W68772  22.253  18.069   2.339
 9512W        W68773  36.389  14.697   2.419
 9513W        W68774  44.958  19.681  14.804
 9514W        W68775  30.633  40.034   0.903
 9515W        W68776  13.343   6.887   0.959
 9516W        W68777   5.194  30.645   2.396
 9517W        W68778  10.203  39.427   2.290
 9518W        W68779  17.745  42.794   1.288
 9519W        W68780  22.589   4.841  10.644
 9520W        W68781  38.377  17.559   1.698
 9521W        W68782  41.935  23.118   4.601
 9522W        W68783  32.595  39.403   2.301
 9523W        W68784  13.661  26.587   1.892
 9524W        W68785  42.020  38.870   3.184
 9525W        W68786  40.887  27.479   2.326
 9526W        W68787  39.418  31.543  10.612
 9527W        W68788  37.372  13.275   3.730
 9528W        W68789  11.230  14.805  10.449
 9529W        W68790   4.805  31.142   0.295
 9530W        W68791  38.536  36.048  12.557
 9531W        W68792  11.864  20.079   2.298
 9532W        W68793   3.838  19.534  10.466
 9533W        W68794  37.473  27.605   1.313
 9534W        W68795  37.953  16.772  13.041
 9535W        W68796  37.479   9.189   0.881
 9536W        W68797  15.816  38.480  11.947
 9537W        W68798  15.268  36.893   0.412
 9538W        W68799  34.581  39.810   2.865
 9539W        W68800  16.120  26.208  10.934
 9540W        W68801  25.693  41.966   2.663
 9541W        W68802  43.416   9.295   2.729
 9542W        W68803  15.139  32.458   3.850
 9543W        W68804  13.126   9.287  12.887
 9544W        W68805   6.897  37.916   4.223
 9545W        W68806  33.414   3.274  14.779
 9546W        W68807   2.311  22.611   3.833
 9547W        W68808  16.225   5.218   2.276
 9548W        W68809   0.878   4.355  10.459
 9549W        W68810  12.172   8.788  14.323
 9550W        W68811  24.542   2.914   9.997
 9551W        W68812  43.838  13.136   2.298
 9552W        W68813   2.888  27.639   1.751
 9553W        W68814  13.779   5.735  11.104
 9554W        W68815   3.853  20.584   2.740
 9555W        W68816  13.840  36.881   1.845
 9556W        W68817  40.046  30.437  10.464
 9557W        W68818  41.436  43.376   2.786
 9558W        W68819   8.307  12.191   4.767
 9559W        W68820  44.417  34.403   4.798
 9560W        W68821  43.922  41.453  11.004
 9561W        W68822  24.106  22.709  12.349
 9562W        W68823  21.241  22.741  10.961
 9563W        W68824  41.885  21.746  13.433
 9564W        W68825  12.250  17.613  14.513
 9565W        W68826  32.426  19.572  12.504
 9566W        W68827  40.376   5.861  13.844
 9567W        W68828  40.912  16.155  12.429
 9568W        W68829  21.521   6.344  12.380
 9569W        W68830  31.571  26.189   4.628
 9570W        W68831  41.392  30.045   3.289
 9571W        W68832  18.251  22.643   2.870
 9572W        W68833  42.811   4.934  12.044
 9573W        W68834  23.490  38.974   2.703
 9574W        W68835   4.803  39.065   0.480
 9575W        W68836  31.999   8.295   2.247
 9576W        W68837  31.636  38.439   4.609
 9577W        W68838  24.199  18.787  10.045
 9578W        W68839   7.724  40.327  10.619
 9579W        W68840  24.696  12.757  13.929
 9580W        W68841  30.045  16.700  11.892
 9581W        W68842  11.130   2.344   2.833
 9582W        W68843  28.449   1.968  13.868
 9583W        W68844  12.795   6.842  14.333
 9584W        W68845  14.116   2.382  11.086
 9585W        W68846  44.301  23.160   4.697
 9586W        W68847  17.667   8.706   5.608
 9587W        W68848  19.126   7.696  10.570
 9588W        W68849   8.327  25.079   1.281
 9589W        W68850  29.580  13.716  11.439
 9590W        W68851  27.680  34.074   4.699
 9591W        W68852  30.102  28.455   0.375
 9592W        W68853   0.423   5.392  12.938
 9593W        W68854   0.276   4.361  13.416
 9594W        W68855   5.240  27.502  14.443
 9595W        W68856  44.434   2.936  12.470
 9596W        W68857  38.465  21.696  14.451
 9597W        W68858  39.838   8.802   4.631
 9598W        W68859  41.337   7.330   3.699
 9599W        W68860  11.363  26.619  13.956
 9600W        W68861  28.436  16.725   4.709
 9601W        W68862  17.101   2.285   2.367
 9602W        W68863  44.379  44.784   2.279
 9603W        W68864  11.797  41.947   1.301
 9604W        W68865  36.523  38.522   0.341
 9605W        W68866   5.716  34.005  10.633
 9606W        W68867  20.114  18.626  14.871
 9607W        W68868  21.569  42.526   4.199
 9608W        W68869  20.183  42.881   0.285
 9609W        W68870  29.946  41.908   0.882
 9610W        W68871  40.048  26.165  14.940
 9611W        W68872   5.758  20.539  10.515
 9612W        W68873  44.427  11.252  13.511
 9613W        W68874  34.521  32.540  11.389
 9614W        W68875   7.858  37.582  14.978
 9615W        W68876  20.531  17.094   1.787
 9616W        W68877  17.215  43.488   4.771
 9617W        W68878  16.731  25.641   2.262
 9618W        W68879   2.825   3.908   0.307
 9619W        W68880  11.657  27.556   3.640
 9620W        W68881  27.014  32.132   3.237
 9621W        W68882  31.905  31.616  12.858
 9622W        W68883   5.765  44.880   2.232
 9623W        W68884  28.186   0.895  11.857
 9624W        W68885  42.366  43.833   4.244
 9625W        W68886  16.097  40.462   1.801
 9626W        W68887  17.182  15.088   4.264
 9627W        W68888  14.645  36.877  13.804
 9628W        W68889  30.637  30.125  12.042
 9629W        W68890  12.342  44.755  13.872
 9630W        W68891   9.885  38.536   0.944
 9631W        W68892  18.669  23.678   0.749
 9632W        W68893   0.435   2.350  12.988
 9633W        W68894  13.746  19.604   3.308
 9634W        W68895  21.082  22.197  13.966
 9635W        W68896  21.757  23.573   0.753
 9636W        W68897  32.472  10.160  11.510
 9637W        W68898  21.219  12.810   0.251
 9638W        W68899  28.526  14.097   4.310
 9639W        W68900  11.650  25.517  11.997
 9640W        W68901  15.266  43.339   4.327
 9641W        W68902  34.918  37.369  14.502
 9642W        W68903  43.373  18.247  13.878
 9643W        W68904  32.537  19.196  10.974
 9644W        W68905  20.238   3.449   3.239
 9645W        W68906  40.423  21.101  12.339
 9646W        W68907  41.865  25.566   0.953
 9647W        W68908  29.006  35.982  10.496
 9648W        W68909  34.033  16.715  11.423
 9649W        W68910  40.446  27.103  14.490
 9650W        W68911  35.934  30.647   2.189
 9651W        W68912  31.963  26.133   4.787
 9652W        W68913  39.321   1.789   2.398
 9653W        W68914  41.881  43.827  14.797
 9654W        W68915  10.260  37.418  11.868
 9655W        W68916  36.447  29.958  10.420
 9656W        W68917  36.421  40.853  11.908
 9657W        W68918  10.149  35.884  11.419
 9658W        W68919  24.007   6.893  14.432
 9659W        W68920  34.612   1.391   4.152
 9660W        W68921  19.145  40.505   4.768
 9661W        W68922   3.760  41.426  10.471
 9662W        W68923  25.481  19.551  12.496
 9663W        W68924  44.489  38.409   0.286
 9664W        W68925  12.192  11.726  10.957
 9665W        W68926  35.032  22.698   4.685
 9666W        W68927   1.904   9.875  13.845
 9667W        W68928  36.971   3.233  13.404
 9668W        W68929  32.062  23.546   3.202
 9669W        W68930  29.604  16.772   0.815
 9670W        W68931  32.485  20.204  14.978
 9671W        W68932  39.820  34.477  11.569
 9672W        W68933  25.184  38.829  12.400
 9673W        W68934  24.003  15.592  11.886
 9674W        W68935  34.514  12.326  12.983
 9675W        W68936  31.903   3.440   4.245
 9676W        W68937   4.367   9.717  12.095
 9677W        W68938  36.436  42.344   1.330
 9678W        W68939  14.671  36.914  13.449
 9679W        W68940  12.636   2.826   3.771
 9680W        W68941  27.500  12.141  11.899
 9681W        W68942  37.452   4.910  14.336
 9682W        W68943  39.540  21.135  12.552
 9683W        W68944  32.473  18.294   1.850
 9684W        W68945  30.480  29.089  10.583
 9685W        W68946   1.421  20.574   1.762
 9686W        W68947   2.945  28.015   3.673
 9687W        W68948  37.565   7.224   9.613
 9688W        W68949  14.822   2.734  14.910
 9689W        W68950   1.841   0.322  12.861
 9690W        W68951  33.003   2.252  12.055
 9691W        W68952  10.675   0.378   4.714
 9692W        W68953  18.570  31.084   0.448
 9693W        W68954  11.736  23.628   0.482
 9694W        W68955   1.839  30.037  13.481
 9695W        W68956  29.130  39.909  13.029
 9696W        W68957  10.170   5.306   4.300
 9697W        W68958  24.043   5.925  13.500
 9698W        W68959  40.827  15.235  10.105
 9699W        W68960  20.131  26.983  12.981
 9700W        W68961  15.674   0.777  14.891
 9701W        W68962   1.809  31.590  11.601
 9702W        W68963  18.605  43.508  12.961
 9703W        W68964  29.954   9.768  14.974
 9704W        W68965  22.017  19.146   1.232
 9705W        W68966  15.607  41.441  14.877
 9706W        W68967  32.915  21.256  13.519
 9707W        W68968  13.654   3.819   0.337
 9708W        W68969   7.899  34.957  13.465
 9709W        W68970  21.189  34.520  12.960
 9710W        W68971  37.561  32.955  14.846
 9711W        W68972  11.258  10.681   1.803
 9712W        W68973  14.715  25.582  14.817
 9713W        W68974   7.842   6.815  11.379
 9714W        W68975  40.343  34.029   3.682
 9715W        W68976  25.560   6.790   4.714
 9716W        W68977  42.936  36.918   3.243
 9717W        W68978   4.813  25.121  14.906
 9718W        W68979  10.369  26.099  11.484
 9719W        W68980  16.623  37.035  10.903
 9720W        W68981  28.174  35.488   3.357
 9721W        W68982   7.796  29.173  14.451
 9722W        W68983  18.290  35.360  11.561
 9723W        W68984  36.593  18.668  13.010
 9724W        W68985   1.475  32.894   3.850
 9725W        W68986  32.980   1.392   2.272
 9726W        W68987   8.746  30.613  14.906
 9727W        W68988  31.422  28.939  11.376
 9728W        W68989  28.459   8.343  12.426
 9729W        W68990  24.495  41.918  14.323
 9730W        W68991   8.779   9.699  12.858
 9731W        W68992   4.742  34.020  14.965
 9732W        W68993   8.882   2.284   3.757
 9733W        W68994  15.583  40.388  14.337
 9734W        W68995   4.868  20.762   0.927
 9735W        W68996  31.553  23.153  11.527
 9736W        W68997  32.509   5.296   0.733
 9737W        W68998   6.739  30.033  10.519
 9738W        W68999   9.651  22.106   0.803
 9739W        W69000  16.682  27.993   2.205
 9740W        W69001  27.994  38.505   1.804
 9741W        W69002   3.724  10.746  11.085
 9742W        W69003  36.531   3.924   3.640
 9743W        W69004  39.440   0.878   1.301
 9744W        W69005  41.390  38.044   3.703
 9745W        W69006  22.515  20.054   0.481
 9746W        W69007  26.580  12.783   2.181
 9747W        W69008  44.294  37.551   1.783
 9748W        W69009  32.500  11.624   0.792
 9749W        W69010  14.279   3.275  13.441
 9750W        W69011  42.983  14.275   2.404
 9751W        W69012  35.469  22.076  12.487
 9752W        W69013  32.443  32.952   1.821
 9753W        W69014   3.245  10.743  14.311
 9754W        W69015  41.978  41.457  12.087
 9755W        W69016   9.782  34.529   3.764
 9756W        W69017  12.746  33.602   5.090
 9757W        W69018  25.662  15.770   4.147
 9758W        W69019  29.579  31.572   5.720
 9759W        W69020  29.094   7.349   3.668
 9760W        W69021   2.814  24.115   2.340
 9761W        W69022  36.895  30.433  10.961
 9762W        W69023  38.071  40.321   3.766
 9763W        W69024  37.553  16.155  14.880
 9764W        W69025   3.301  33.454   4.209
 9765W        W69026  37.484  25.034   0.774
 9766W        W69027  23.635   9.701   4.292
 9767W        W69028   5.835   7.378   0.919
 9768W        W69029  36.843  10.240   3.164
 9769W        W69030  37.871  18.740  12.424
 9770W        W69031  23.070  42.920  12.396
 9771W        W69032   6.713  24.075   4.275
 9772W        W69033   5.757   6.302  13.338
 9773W        W69034  36.081  30.433   1.376
 9774W        W69035  33.432  11.648   2.779
 9775W        W69036  38.904  17.634  12.529
 9776W        W69037  33.579  12.714  13.023
 9777W        W69038   2.328  16.791   3.657
 9778W        W69039  12.853   9.660   2.774
 9779W        W69040  31.021   5.395  14.294
 9780W        W69041   1.757  37.906  11.562
 9781W        W69042  35.887  29.934   3.155
 9782W        W69043   7.273  20.639  12.857
 9783W        W69044  44.262  36.372  12.979
 9784W        W69045  33.918  18.636   3.366
 9785W        W69046   8.365  34.088  11.893
 9786W        W69047  32.106  36.895  14.425
 9787W        W69048  39.329   6.340   0.730
 9788W        W69049  23.690  41.829  11.920
 9789W        W69050  14.825  20.167   1.935
 9790W        W69051  32.035   3.781   4.740
 9791W        W69052  37.012   8.790   1.359
 9792W        W69053  42.030  16.294  11.529
 9793W        W69054  22.204  43.940  10.640
 9794W        W69055  30.962  25.149  14.375
 9795W        W69056   7.803  37.574   0.475
 9796W        W69057   3.753   9.315   3.672
 9797W        W69058  20.622  39.359   1.927
 9798W        W69059   4.300  27.482   3.651
 9799W        W69060  18.786  35.583  13.862
 9800W        W69061  13.244  21.098  13.919
 9801W        W69062  16.795   4.325  11.611
 9802W        W69063  44.372  44.772  14.385
 9803W        W69064  10.725  25.013  11.504
 9804W        W69065  16.686  38.981  13.998
 9805W        W69066  12.658  31.151  12.991
 9806W        W69067   8.294  19.197   4.652
 9807W        W69068  32.016  15.779   1.249
 9808W        W69069  22.083   9.843  12.851
 9809W        W69070  10.865  29.529  11.911
 9810W        W69071  40.511  13.821   3.173
 9811W        W69072   2.825  27.123   3.207
 9812W        W69073   4.214  16.579  11.878
 9813W        W69074   2.935  30.456  12.511
 9814W        W69075  29.964  34.446  12.510
 9815W        W69076  33.451   6.229   2.721
 9816W        W69077  18.177  44.859   0.458
 9817W        W69078  21.137  34.392  13.969
 9818W        W69079  37.382   6.682  11.124
 9819W        W69080  31.418  43.007  13.883
 9820W        W69081  25.535  14.119   1.771
 9821W        W69082  24.000  37.437   1.731
 9822W        W69083  14.760   1.962   3.269
 9823W        W69084  16.146   0.841  13.500
 9824W        W69085  28.669  33.555  10.101
 9825W        W69086   0.316  34.573   2.694
 9826W        W69087  20.205  24.018  13.971
 9827W        W69088  34.454  28.529   3.799
 9828W        W69089  11.737   2.310  12.406
 9829W        W69090  24.128  39.437   4.167
 9830W        W69091   0.772   7.409  10.098
 9831W        W69092  17.557  24.542  14.509
 9832W        W69093  34.967  25.044   0.339
 9833W        W69094  39.496  23.164   2.903
 9834W        W69095  42.818  20.686  10.134
 9835W        W69096  20.695  32.392  12.489
 9836W        W69097  26.065  38.877   0.338
 9837W        W69098  37.054  33.117   0.355
 9838W        W69099  12.299  24.653  13.050
 9839W        W69100   8.722   7.398  14.025
 9840W        W69101  33.985  23.592   3.208
 9841W        W69102  26.516  10.735   1.422
 9842W        W69103  42.489  41.947   0.340
 9843W        W69104   0.439  21.641   1.785
 9844W        W69105  27.680   5.804  12.046
 9845W        W69106  28.976  33.966  11.868
 9846W        W69107  33.415  24.067   1.883
 9847W        W69108  13.281   0.340   4.750
 9848W        W69109  25.663  25.693  11.978
 9849W        W69110  25.000  30.985   1.301
 9850W        W69111   4.443  11.211  12.411
 9851W        W69112  13.807  16.741   2.294
 9852W        W69113  31.147   1.480   2.209
 9853W        W69114   2.825  41.335  12.912
 9854W        W69115  15.314  14.630  14.425
 9855W        W69116  22.627  39.953  14.834
 9856W        W69117  12.329  18.062   0.467
 9857W        W69118  16.132   5.210   0.388
 9858W        W69119  35.954  37.886  14.764
 9859W        W69120  11.665  36.465  14.999
 9860W        W69121  24.166   8.743  12.533
 9861W        W69122   5.775   0.425  13.868
 9862W        W69123   8.375  23.023   3.840
 9863W        W69124  24.202  16.604  14.876
 9864W        W69125  33.503   3.764  10.061
 9865W        W69126  28.557  41.302   4.243
 9866W        W69127  15.118   8.218   1.725
 9867W        W69128  21.758  18.286  13.815
 9868W        W69129   5.310   1.433  13.042
 9869W        W69130  14.595  16.158   2.359
 9870W        W69131  10.223  37.857  13.485
 9871W        W69132   1.760   1.382   4.346
 9872W        W69133  25.067  41.014   4.767
 9873W        W69134  19.646  15.737   2.403
 9874W        W69135   0.409  10.772   1.803
 9875W        W69136  34.570  17.271   4.791
 9876W        W69137  21.127   8.696  13.033
 9877W        W69138  41.029  35.477   1.241
 9878W        W69139  38.929   9.668   4.312
 9879W        W69140  36.090  31.447  14.380
 9880W        W69141  12.269  19.080  12.416
 9881W        W69142  25.033  32.398   4.786
 9882W        W69143  29.114  10.336  12.409
 9883W        W69144  24.097  12.783  10.137
 9884W        W69145  43.965  23.612  12.070
 9885W        W69146   1.270  34.518   0.777
 9886W        W69147  39.809  24.087  14.359
 9887W        W69148  43.987  16.701   3.838
 9888W        W69149   1.862  38.338  10.614
 9889W        W69150  43.330  32.992   4.217
 9890W        W69151  40.316  38.390   4.670
 9891W        W69152  44.811  12.320   2.329
 9892W        W69153  31.024  25.044   2.836
 9893W        W69154   1.921  16.157  12.375
 9894W        W69155  32.976   2.789  10.967
 9895W        W69156  42.797  25.634   9.520
 9896W        W69157   4.877   4.227   2.772
 9897W        W69158  39.034  12.713   1.420
 9898W        W69159  29.601  42.350  14.825
 9899W        W69160  43.332  15.707   2.668
 9900W        W69161  26.690   7.364   3.836
 9901W        W69162   5.409   2.942  13.830
 9902W        W69163   4.338  20.226   0.842
 9903W        W69164  15.670  18.137  10.930
 9904W        W69165  38.971   6.839   2.816
 9905W        W69166  31.110   5.318  12.013
 9906W        W69167   5.230   6.701   1.811
 9907W        W69168  33.582  27.032  12.893
 9908W        W69169  25.035   5.359   4.624
 9909W        W69170  18.635  21.105   4.285
 9910W        W69171  27.513  40.464   4.698
 9911W        W69172  16.655  35.081  13.485
 9912W        W69173  29.530  11.329   4.351
 9913W        W69174  38.451   1.325  14.341
 9914W        W69175  11.370   7.737   2.278
 9915W        W69176  41.341  42.348   4.625
 9916W        W69177  42.323   2.937   2.723
 9917W        W69178  13.232  27.990  12.418
 9918W        W69179  43.489  40.000  11.037
 9919W        W69180  18.761  38.973  11.869
 9920W        W69181  43.786  21.592  12.445
 9921W        W69182  40.937  19.772   0.855
 9922W        W69183  26.675  23.523   2.744
 9923W        W69184   8.810  33.568  11.472
 9924W        W69185  41.985  37.893  11.541
 9925W        W69186  24.135  11.298   4.244
 9926W        W69187  38.523  22.573  13.885
 9927W        W69188  25.523  23.196   4.347
 9928W        W69189   9.649   0.372  14.774
 9929W        W69190   9.734  12.278   4.785
 9930W        W69191  20.748  35.464  12.910
 9931W        W69192  24.535   1.974   1.864
 9932W        W69193  26.087   1.346   1.851
 9933W        W69194  33.901  18.614  12.928
 9934W        W69195  31.605   4.227   0.830
 9935W        W69196   6.756   5.701  13.867
 9936W        W69197  17.672  34.887   1.230
 9937W        W69198   4.248  34.575   0.803
 9938W        W69199   2.967   2.813  14.364
 9939W        W69200  21.171  26.638   2.187
 9940W        W69201  35.085  12.725   3.260
 9941W        W69202  25.496  27.577   2.764
 9942W        W69203  30.162  32.118   3.855
 9943W        W69204   7.402  24.617  14.816
 9944W        W69205   3.803  15.602   1.236
 9945W        W69206   3.906  44.933   0.869
 9946W        W69207  32.620  36.479   2.229
 9947W        W69208  13.211   6.880  11.471
 9948W        W69209  24.616  33.605   0.262
 9949W        W69210   2.860  23.211  12.359
 9950W        W69211  33.435   0.323   3.275
 9951W        W69212  26.066  21.056   0.878
 9952W        W69213  17.675   5.254  12.995
 9953W        W69214   6.261  27.588   9.956
 9954W        W69215  33.409  32.620   0.861
 9955W        W69216  14.696  33.973   2.828
 9956W        W69217  24.973   8.218   0.933
 9957W        W69218  37.976  29.012  13.846
 9958W        W69219  14.821  21.664   1.289
 9959W        W69220  43.886  23.546   4.252
 9960W        W69221  38.871   4.417  13.370
 9961W        W69222   5.763  22.062   3.840
 9962W        W69223  30.998  33.402  10.988
 9963W        W69224  35.500  43.387   0.818
 9964W        W69225  41.011  20.072  14.995
 9965W        W69226  40.901  22.080   1.845
 9966W        W69227  43.376  32.615  13.343
 9967W        W69228  11.763  40.428  13.490
 9968W        W69229  12.343  40.018   4.754
 9969W        W69230  22.737  43.888  12.916
 9970W        W69231  39.339  35.565  14.936
 9971W        W69232  17.668  20.171   2.407
 9972W        W69233   2.800  11.782  12.827
 9973W        W69234  23.592  16.245   0.349
 9974W        W69235  34.492   6.370  14.956
 9975W        W69236  12.347  37.932   1.896
 9976W        W69237  41.326  16.717  14.026
 9977W        W69238  14.190   2.928   0.846
 9978W        W69239  24.508  16.201   4.692
 9979W        W69240  19.715  26.466  12.963
 9980W        W69241  15.201   2.949  12.480
 9981W        W69242  44.892   1.943   3.149
 9982W        W69243  17.080  18.125   4.652
 9983W        W69244  27.467  28.137   4.335
 9984W        W69245  14.180   2.415   4.130
 9985W        W69246  39.997  18.089   1.904
 9986W        W69247   1.343  33.937   1.770
 9987W        W69248   8.719  32.447   1.901
 9988W        W69249  27.660  40.860  10.956
 9989W        W69250  10.644  41.040   3.273
 9990W        W69251  12.314   8.248  11.529
 9991W        W69252  35.106  27.647  13.409
 9992W        W69253   9.667  42.858   0.794
 9993W        W69254  30.927   1.402  11.499
 9994W        W69255   4.938  28.946  12.021
 9995W        W69256  36.028  26.082  11.478
 9996W        W69257  16.653  25.640  10.571
 9997W        W69258  42.792  21.704   0.393
 9998W        W69259  29.091  17.088  10.990
 9999W        W69260  25.468  19.644   4.601
10000W        W69261  10.381  10.650  13.389
10001W        W69262  24.623  28.104  11.934
10002W        W69263  24.538  37.406  13.902
10003W        W69264  13.341   8.185  13.002
10004W        W69265  37.897  34.529   4.744
10005W        W69266   7.684  34.509  12.498
10006W        W69267  34.070  12.835   1.251
10007W        W69268   9.859  11.335   4.730
10008W        W69269   9.388  31.939   1.909
10009W        W69270   8.375   0.407   4.334
10010W        W69271  35.432  24.170   2.246
10011W        W69272  16.783  39.881   4.282
10012W        W69273  33.124  17.774  11.587
10013W        W69274  13.295  14.147  10.979
10014W        W69275  33.386  26.522   2.678
10015W        W69276  13.841  27.663  14.401
10016W        W69277  34.573  14.272   5.180
10017W        W69278  32.572  13.811  12.484
10018W        W69279  24.087  41.970   3.814
10019W        W69280  27.997  39.901  14.797
10020W        W69281  28.675  22.594   4.739
10021W        W69282  42.423  31.979   4.284
10022W        W69283  25.176  44.769   3.219
10023W        W69284   9.306  25.467   0.797
10024W        W69285  44.952  19.768   4.642
10025W        W69286  24.572   4.904  14.013
10026W        W69287   9.150   4.707   3.865
10027W        W69288   7.670  21.693   3.221
10028W        W69289  25.645  15.591  14.926
10029W        W69290  40.441  34.514  12.867
10030W        W69291  43.313  37.049   2.737
10031W        W69292  19.607  36.376   2.302
10032W        W69293  38.908  29.519   1.285
10033W        W69294  27.680  40.345  10.578
10034W        W69295  22.085  30.573   2.710
10035W        W69296  34.566   6.198   5.163
10036W        W69297  16.610   0.977   3.307
10037W        W69298  30.504  10.216  12.580
10038W        W69299  35.983  34.512  11.539
10039W        W69300  12.154  19.073   4.169
10040W        W69301  30.657   9.664  12.876
10041W        W69302  23.006  29.018   1.394
10042W        W69303  30.657  13.812   1.334
10043W        W69304  41.848  22.631   1.771
10044W        W69305  34.575  37.977  10.448
10045W        W69306  17.240  26.062   2.828
10046W        W69307  32.512  32.578   0.858
10047W        W69308  11.324  25.201  11.546
10048W        W69309  27.657  29.600  13.964
10049W        W69310  17.657  27.001   4.136
10050W        W69311  32.887  23.216   1.326
10051W        W69312  16.310  24.609  11.114
10052W        W69313   1.939  14.755   4.645
10053W        W69314  21.222  42.442   3.251
10054W        W69315  21.088  13.745  10.587
10055W        W69316  18.661  15.159  14.981
10056W        W69317  28.157  30.638   2.792
10057W        W69318  39.854  27.119  13.352
10058W        W69319  27.116  26.663   0.808
10059W        W69320  40.037   9.157   4.756
10060W        W69321  18.612  14.310   0.296
10061W        W69322  17.214  12.144   1.727
10062W        W69323  31.137   8.248   4.646
10063W        W69324  23.527   1.783  13.427
10064W        W69325  31.913  44.910  14.900
10065W        W69326   6.328   3.459  11.495
10066W        W69327  20.717  11.652   4.284
10067W        W69328  15.708  12.796  14.478
10068W        W69329  12.226  11.217   1.373
10069W        W69330   7.772  38.412  10.937
10070W        W69331  27.677  35.381  10.641
10071W        W69332  41.363  24.178  13.795
10072W        W69333  20.142  43.493  13.003
10073W        W69334   1.433   1.827   1.375
10074W        W69335  15.228  42.369  13.940
10075W        W69336  10.877  39.839  12.058
10076W        W69337  43.864   1.929  12.079
10077W        W69338   6.404  44.394   3.302
10078W        W69339  29.090   9.150   3.652
10079W        W69340  24.528  18.273   1.298
10080W        W69341  16.625  42.872  10.017
10081W        W69342   5.430  14.742   0.299
10082W        W69343  15.147   6.773   0.759
10083W        W69344  23.045  39.873   2.250
10084W        W69345  42.918  23.618   2.821
10085W        W69346  44.860  16.673  12.444
10086W        W69347  30.529  39.912  10.991
10087W        W69348   4.318  11.159  11.944
10088W        W69349  16.153   8.330   0.311
10089W        W69350   0.465  37.367   1.324
10090W        W69351   6.687  40.380  12.491
10091W        W69352  34.075  24.653   0.455
10092W        W69353  13.342  35.961   3.233
10093W        W69354   6.219  30.455   5.220
10094W        W69355  26.075  29.162  14.823
10095W        W69356  10.825   8.346   9.978
10096W        W69357  25.190  39.848  10.407
10097W        W69358  15.139  10.831   0.356
10098W        W69359   5.752   0.859  13.313
10099W        W69360  40.421  13.259   2.707
10100W        W69361  12.704   6.731   4.285
10101W        W69362  33.507  11.647   5.126
10102W        W69363  44.806  26.603  11.590
10103W        W69364   5.274  13.821   2.323
10104W        W69365   1.796   7.219  10.485
10105W        W69366  27.615  10.826   1.880
10106W        W69367  25.649  38.331   4.683
10107W        W69368  17.576  34.009   4.230
10108W        W69369   6.813  31.149  12.955
10109W        W69370  21.146  44.290  11.081
10110W        W69371  12.348  21.255   3.367
10111W        W69372  32.522  12.234   2.854
10112W        W69373   4.823  42.904  11.128
10113W        W69374  38.878  10.181  12.530
10114W        W69375  26.517  31.404  11.457
10115W        W69376  12.821  10.329   3.314
10116W        W69377  20.731  33.483  14.954
10117W        W69378  10.217   9.240   1.294
10118W        W69379  11.691   1.797  10.928
10119W        W69380  26.599  25.146   0.830
10120W        W69381   6.411   2.802  11.939
10121W        W69382  42.860  25.089  13.365
10122W        W69383   9.703   0.830  13.450
10123W        W69384  35.358   8.287   1.423
10124W        W69385  21.619   4.885   2.321
10125W        W69386   9.297  17.613   0.466
10126W        W69387  18.115  10.730   4.731
10127W        W69388  32.503  32.475  14.968
10128W        W69389  25.482  20.541   3.749
10129W        W69390  20.555  12.726  11.462
10130W        W69391  16.618  22.666   3.743
10131W        W69392   7.287  17.566  14.412
10132W        W69393  38.513  41.001  10.919
10133W        W69394  22.559  34.415  14.339
10134W        W69395   3.394  16.756   3.735
10135W        W69396  29.484  19.683   3.796
10136W        W69397   2.355  16.149  11.407
10137W        W69398   1.738  41.353   3.673
10138W        W69399  40.943   6.885  12.509
10139W        W69400  38.007  41.883   3.301
10140W        W69401  13.331   4.755  12.978
10141W        W69402  18.771  30.657  12.545
10142W        W69403  12.126  11.323   4.722
10143W        W69404  29.059   5.370  11.011
10144W        W69405  44.962  39.979   4.633
10145W        W69406  20.715  33.503  10.990
10146W        W69407  12.614  29.042   9.531
10147W        W69408  12.193  23.528  12.546
10148W        W69409  41.919   6.823  11.129
10149W        W69410  43.326  21.691  14.340
10150W        W69411   8.715  30.428   2.842
10151W        W69412  23.075   9.854   0.246
10152W        W69413  14.644  11.740  14.803
10153W        W69414  33.974  24.685  14.393
10154W        W69415  39.391  32.526   0.888
10155W        W69416   3.370  44.356  10.053
10156W        W69417  16.220  35.905   1.341
10157W        W69418  35.886  36.453  13.492
10158W        W69419  20.577  37.885  14.801
10159W        W69420  41.432  19.193  12.559
10160W        W69421  21.070  30.972   4.611
10161W        W69422  19.060  32.446   3.694
10162W        W69423   8.704  28.088  13.948
10163W        W69424   7.859   1.899   1.862
10164W        W69425  24.142   1.865  10.889
10165W        W69426  40.020  38.329   0.466
10166W        W69427  39.062  25.623   2.900
10167W        W69428   7.366  21.064  13.502
10168W        W69429  36.581  37.836  13.536
10169W        W69430  42.809  24.719  12.488
10170W        W69431  37.072  22.103  11.593
10171W        W69432  12.624   2.840  11.985
10172W        W69433  22.016  31.624   4.153
10173W        W69434   4.429  39.540   0.909
10174W        W69435  12.744  21.152  11.877
10175W        W69436  17.670  21.620  13.927
10176W        W69437  36.415  14.628  13.954
10177W        W69438  33.004  21.091  11.000
10178W        W69439   2.746  36.080  12.846
10179W        W69440  38.561   5.757  11.402
10180W        W69441  16.077  20.267   1.316
10181W        W69442  21.241  43.406  11.089
10182W        W69443  26.999  15.212   4.311
10183W        W69444   5.381  23.658  11.422
10184W        W69445  30.103  24.590   4.321
10185W        W69446  39.904  21.189   2.370
10186W        W69447  41.807  21.605   1.780
10187W        W69448  36.037  39.930  12.410
10188W        W69449  16.584  35.900   1.356
10189W        W69450  21.020  18.213   4.704
10190W        W69451  13.672  31.955   3.382
10191W        W69452  20.728  40.906  13.851
10192W        W69453  27.478  37.999   3.667
10193W        W69454   0.412   3.392  13.396
10194W        W69455  10.251  26.074  12.376
10195W        W69456   8.265  20.607  10.556
10196W        W69457  11.854   8.726   1.238
10197W        W69458  12.291  37.350  13.331
10198W        W69459   0.348  44.857  12.017
10199W        W69460  11.622  30.921  11.899
10200W        W69461   0.354   2.348  11.517
10201W        W69462   4.720  14.590   2.787
10202W        W69463  12.277  37.052   1.257
10203W        W69464   7.898  38.541   4.627
10204W        W69465  18.636  18.219  13.482
10205W        W69466  35.585  28.153  14.779
10206W        W69467   4.746  43.356  14.842
10207W        W69468  44.980   3.449   0.904
10208W        W69469  37.340  43.932  11.520
10209W        W69470   6.796  30.443  10.513
10210W        W69471  13.300  38.914  12.026
10211W        W69472  10.736  21.258  12.493
10212W        W69473   8.893   2.733   4.222
10213W        W69474  27.185   0.925  11.925
10214W        W69475  37.843  29.971   4.218
10215W        W69476  10.149  14.728  13.800
10216W        W69477  33.590  27.955   1.785
10217W        W69478  14.829   6.772   0.782
10218W        W69479   9.268  41.006  11.970
10219W        W69480  10.828  43.399   1.842
10220W        W69481  28.092  22.622  13.036
10221W        W69482  23.046  33.606   3.777
10222W        W69483  44.485   8.317   2.740
10223W        W69484   1.340  33.611  14.969
10224W        W69485  32.482   6.196   2.232
10225W        W69486  26.610  10.648   0.331
10226W        W69487  34.563   0.792  13.539
10227W        W69488  25.997  38.859  13.356
10228W        W69489  15.280  11.266   2.286
10229W        W69490  26.619  26.114  10.617
10230W        W69491  12.164  21.584  13.930
10231W        W69492  39.556  35.600   0.466
10232W        W69493  24.643  11.714  11.937
10233W        W69494  17.695  22.060   9.989
10234W        W69495  33.498   5.728  13.382
10235W        W69496   6.850  43.424   2.377
10236W        W69497  30.105  42.819  11.864
10237W        W69498  29.659  33.602  10.949
10238W        W69499  18.721  28.680  11.470
10239W        W69500  31.972  25.714  14.352
10240W        W69501  28.067  26.985   4.127
10241W        W69502   3.937   6.357  11.124
10242W        W69503   6.755  18.765  11.551
10243W        W69504  20.735  26.575   3.761
10244W        W69505  31.483  21.107   3.179
10245W        W69506  40.813  24.582   4.205
10246W        W69507  44.890  20.100  10.160
10247W        W69508  34.891   9.867   1.872
10248W        W69509  11.800   3.372   0.900
10249W        W69510  41.319   4.914  11.540
10250W        W69511  19.587   3.783   3.164
10251W        W69512   1.919  32.505   1.700
10252W        W69513  23.000  11.163   4.301
10253W        W69514  30.163  32.396   1.863
10254W        W69515  44.907  37.008   3.638
10255W        W69516  42.848  42.826  14.315
10256W        W69517  31.588  26.996   3.146
10257W        W69518   0.804  19.533  12.578
10258W        W69519   9.707  38.989   3.814
10259W        W69520  29.599  33.082   3.227
10260W        W69521  44.375   3.422   1.263
10261W        W69522  20.590   3.828   0.757
10262W        W69523  22.174  10.139   3.731
10263W        W69524  11.269  42.497   3.301
10264W        W69525  12.276  23.612  12.887
10265W        W69526  26.651  34.437   3.177
10266W        W69527  12.234   3.444  13.354
10267W        W69528  20.680   1.426   3.239
10268W        W69529  33.089   0.744  14.445
10269W        W69530  19.166  21.748  14.298
10270W        W69531  17.135  26.011   1.758
10271W        W69532  19.191  12.836  13.364
10272W        W69533   7.315  35.106  10.989
10273W        W69534  11.150  27.023  13.872
10274W        W69535  22.736   7.274   2.737
10275W        W69536   9.377  32.061   2.357
10276W        W69537   4.408  37.386  12.468
10277W        W69538  35.396  28.112  13.843
10278W        W69539   8.182  27.185   3.707
10279W        W69540  36.033   0.828  11.541
10280W        W69541  36.464  42.948   3.864
10281W        W69542  12.147  22.715   1.405
10282W        W69543   4.917   8.790  10.982
10283W        W69544  40.517  22.722  11.875
10284W        W69545  25.179   6.223  12.834
10285W        W69546  36.550   2.232   4.215
10286W        W69547  30.990  43.420   4.640
10287W        W69548  44.462   4.270  13.827
10288W        W69549  23.019  30.083  12.425
10289W        W69550  12.170  29.434  12.948
10290W        W69551  36.347   1.401  12.839
10291W        W69552  29.445   1.426   5.772
10292W        W69553   0.253  22.588  11.040
10293W        W69554  26.184   8.840  12.964
10294W        W69555  30.968  18.553  12.940
10295W        W69556  36.954  43.404  10.921
10296W        W69557  33.475  22.225   2.663
10297W        W69558  44.851   6.316  12.376
10298W        W69559   3.411  29.055  13.836
10299W        W69560   5.820  22.699  10.410
10300W        W69561  16.232  42.331  10.642
10301W        W69562  35.551  32.122  11.470
10302W        W69563   2.820  44.822  11.484
10303W        W69564  25.074   2.230   3.783
10304W        W69565  43.912  36.428   3.837
10305W        W69566  23.078  32.510  12.011
10306W        W69567  25.609   8.358  13.060
10307W        W69568   5.404  17.577   4.782
10308W        W69569  38.839  14.176  11.020
10309W        W69570  40.486  44.264   4.331
10310W        W69571   2.250   7.824  12.476
10311W        W69572   5.323   2.340   0.424
10312W        W69573  21.048  34.563   9.994
10313W        W69574  30.476  26.000   2.889
10314W        W69575   8.197  12.190   3.860
10315W        W69576   9.250  19.145  13.959
10316W        W69577  13.144   5.398   1.855
10317W        W69578  29.108  41.866  14.328
10318W        W69579  27.991  21.037  12.863
10319W        W69580  27.574  12.327   4.802
10320W        W69581  26.650  10.173   0.848
10321W        W69582  37.017  14.602   4.608
10322W        W69583   6.328   9.318  11.910
10323W        W69584  33.385   1.390   3.343
10324W        W69585  40.540  24.520   5.171
10325W        W69586  30.538  31.570  12.993
10326W        W69587  32.974  29.960  13.044
10327W        W69588  39.867  44.442  11.011
10328W        W69589  23.495  21.750   3.241
10329W        W69590  41.303  33.497  13.392
10330W        W69591  37.013  35.031  14.885
10331W        W69592  43.866   1.829   2.881
10332W        W69593  24.189   6.275   2.739
10333W        W69594   8.278  19.189  11.380
10334W        W69595   9.841  44.360  11.880
10335W        W69596  34.112  27.993   1.243
10336W        W69597   8.264   0.753   2.884
10337W        W69598  10.367  23.627   1.899
10338W        W69599  17.627  40.825   2.798
10339W        W69600  15.815   7.693   4.291
10340W        W69601  20.211   6.880  14.449
10341W        W69602  40.532  39.524   0.903
10342W        W69603  14.627  11.298   4.816
10343W        W69604  20.647  26.113  12.517
10344W        W69605   1.827   5.297  14.863
10345W        W69606  23.024   1.749   4.751
10346W        W69607  38.387  21.613  11.035
10347W        W69608  34.431   2.336  11.932
10348W        W69609   2.761  15.094   2.767
10349W        W69610  31.076  23.494  12.026
10350W        W69611   6.224   1.906  11.543
10351W        W69612  18.269  18.593  13.880
10352W        W69613   9.750   8.187  14.394
10353W        W69614  11.813  24.214   5.282
10354W        W69615  14.722  12.190   3.386
10355W        W69616  15.658   3.270  12.025
10356W        W69617   0.752  26.009  13.934
10357W        W69618   3.850   4.392  14.981
10358W        W69619  21.064  20.227   2.381
10359W        W69620  19.155  41.325   4.214
10360W        W69621   1.969  35.852  13.968
10361W        W69622  22.694  18.207  14.364
10362W        W69623  25.115  13.259   1.431
10363W        W69624  28.496  40.415   4.761
10364W        W69625   1.299   6.685  10.554
10365W        W69626  42.848  16.248  14.378
10366W        W69627   3.893  37.945   2.361
10367W        W69628  21.082  43.505   0.819
10368W        W69629  19.758  27.953   2.840
10369W        W69630  34.382  32.916   0.261
10370W        W69631  38.826  35.077   0.401
10371W        W69632  31.977   6.771  13.980
10372W        W69633  39.421  31.472   4.277
10373W        W69634   1.427  28.474  13.365
10374W        W69635  28.635  18.664   0.342
10375W        W69636  20.065   5.368   0.746
10376W        W69637  14.746  23.602  14.376
10377W        W69638  43.896  43.418  12.429
10378W        W69639  21.517  24.997  11.539
10379W        W69640   1.438  28.487   3.741
10380W        W69641  42.407  11.192   2.824
10381W        W69642   7.198  32.050  11.052
10382W        W69643   3.847  27.031   3.751
10383W        W69644  43.849  42.489   0.849
10384W        W69645  43.887  32.545   3.748
10385W        W69646  38.066  17.256   4.151
10386W        W69647  26.586   2.943   3.168
10387W        W69648  36.068   2.397  14.910
10388W        W69649  22.084  24.122  11.456
10389W        W69650  39.491   1.239   2.198
10390W        W69651  16.308  27.191   4.146
10391W        W69652  29.976  16.147  12.494
10392W        W69653  44.482  38.333   4.334
10393W        W69654   8.697   3.718  11.426
10394W        W69655  35.871  17.099   0.789
10395W        W69656  42.404   9.177  11.080
10396W        W69657  40.889  22.655   0.952
10397W        W69658  28.512  26.613  10.906
10398W        W69659  35.038  26.494  14.881
10399W        W69660   8.324  16.247  14.771
10400W        W69661   5.914  33.618   1.854
10401W        W69662   6.269  10.633  14.425
10402W        W69663  42.940  21.214  13.937
10403W        W69664  31.646  28.522   1.441
10404W        W69665  38.430   8.309   2.229
10405W        W69666  33.915   8.305  12.876
10406W        W69667  24.651  19.592   4.669
10407W        W69668   8.303   3.313  12.400
10408W        W69669  32.473  13.112   0.925
10409W        W69670   7.795   8.733   1.853
10410W        W69671  27.087  11.348   4.711
10411W        W69672  12.703  13.790   0.403
10412W        W69673  32.412  32.473   2.693
10413W        W69674  39.426  29.012  14.494
10414W        W69675  28.946  42.334  11.561
10415W        W69676  21.227  33.966  13.307
10416W        W69677  33.454   2.732   2.270
10417W        W69678   8.275  31.611   1.261
10418W        W69679  42.934  37.046   0.930
10419W        W69680   3.815  17.636  11.004
10420W        W69681  28.646  27.500  13.857
10421W        W69682  34.870  39.055  11.412
10422W        W69683  44.943  27.082  11.568
10423W        W69684  26.047  23.514  13.477
10424W        W69685  21.043  29.961  10.457
10425W        W69686   8.821  32.505   3.250
10426W        W69687  42.967  22.170  14.907
10427W        W69688   6.782  13.116  12.017
10428W        W69689  11.698  37.357   2.825
10429W        W69690   1.925   2.322   1.839
10430W        W69691  12.163  29.625  12.394
10431W        W69692  32.969   9.230  14.892
10432W        W69693  19.266  16.193   1.299
10433W        W69694  31.081  44.925   3.359
10434W        W69695  18.688  13.135   0.475
10435W        W69696  13.635  42.801   0.283
10436W        W69697  41.835  18.546  10.482
10437W        W69698   6.777   8.766   4.271
10438W        W69699  11.275  38.371  10.607
10439W        W69700  42.908  29.035   3.669
10440W        W69701  41.474  29.625  10.071
10441W        W69702  21.514  34.602  11.438
10442W        W69703   8.207   1.345  13.817
10443W        W69704   1.414  41.299  10.498
10444W        W69705  23.239  33.563  14.841
10445W        W69706  24.203  26.064   1.260
10446W        W69707   2.921  23.674  14.942
10447W        W69708  10.855  44.947  11.598
10448W        W69709   2.917  12.732   1.435
10449W        W69710  40.009   2.258   2.246
10450W        W69711   8.370  20.591  14.446
10451W        W69712  31.545  43.501  13.442
10452W        W69713  17.244  20.586  11.994
10453W        W69714  32.030  42.999   1.698
10454W        W69715  15.129  31.535   4.738
10455W        W69716  36.074  33.566   4.205
10456W        W69717  18.782  36.929  13.821
10457W        W69718  20.533  25.669   3.284
10458W        W69719   4.337   5.877   1.814
10459W        W69720  43.922   9.259  10.935
10460W        W69721  44.991  27.568   1.829
10461W        W69722  12.671   7.677   5.159
10462W        W69723   5.845   4.431  12.025
10463W        W69724  24.487   1.898   1.285
10464W        W69725  32.519  16.774  11.474
10465W        W69726  20.640  33.947  10.641
10466W        W69727  14.660  14.615   0.813
10467W        W69728   0.331  39.378   2.861
10468W        W69729   8.742  16.304   1.259
10469W        W69730   3.921  31.000  13.870
10470W        W69731  43.328  12.662   0.890
10471W        W69732   1.789  17.228   0.460
10472W        W69733  39.865  23.656   2.376
10473W        W69734  43.963  32.527   0.429
10474W        W69735  43.442  15.682   0.751
10475W        W69736  19.727  15.177  14.016
10476W        W69737  34.971  44.377  10.550
10477W        W69738  41.474  23.556  13.462
10478W        W69739   1.791  23.081  10.969
10479W        W69740  23.596  31.071   0.295
10480W        W69741   8.160  42.001  10.969
10481W        W69742  15.716  25.636   0.269
10482W        W69743  41.444  12.223   2.838
10483W        W69744   9.241  11.135  11.439
10484W        W69745  16.626  30.974  13.309
10485W        W69746  33.078  20.042   0.859
10486W        W69747  21.750  40.315  12.532
10487W        W69748  28.625  35.601  12.026
10488W        W69749  24.169   0.970   2.228
10489W        W69750   6.360  16.615   3.145
10490W        W69751  37.857   5.690  14.355
10491W        W69752  11.290  16.196   2.400
10492W        W69753   5.797  29.478  11.932
10493W        W69754  33.423  10.178   2.767
10494W        W69755  34.582  43.795   4.217
10495W        W69756  21.187  40.810   2.774
10496W        W69757  15.734  34.441  12.917
10497W        W69758   2.812   2.863   3.163
10498W        W69759  34.023  40.388  11.018
10499W        W69760   2.337  43.374   4.639
10500W        W69761  32.635  19.061  12.863
10501W        W69762  25.177  13.786  13.853
10502W        W69763   1.753  28.464   3.661
10503W        W69764  41.929  23.624  14.875
10504W        W69765  35.511  18.739   4.207
10505W        W69766  19.659  28.672  12.456
10506W        W69767  36.906  28.955   2.333
10507W        W69768  36.046  28.639   2.195
10508W        W69769  41.468   8.695  10.536
10509W        W69770  33.885  11.326  14.438
10510W        W69771  42.511  31.989  10.454
10511W        W69772  30.627  34.096   1.773
10512W        W69773  16.813   9.746   0.280
10513W        W69774   3.347   4.865   4.309
10514W        W69775   9.775  10.681  11.020
10515W        W69776  12.187  30.143  14.283
10516W        W69777  26.670  43.365   2.838
10517W        W69778   0.273  11.721  12.574
10518W        W69779  22.511  14.096   3.855
10519W        W69780   0.310  12.831   4.256
10520W        W69781  16.125  24.004  13.829
10521W        W69782  11.367  36.945   1.902
10522W        W69783  11.186  37.545   2.231
10523W        W69784   6.821  14.324  12.072
10524W        W69785   8.673   7.333   0.300
10525W        W69786   4.864  42.025  11.125
10526W        W69787  27.504   4.725   3.248
10527W        W69788  42.960   6.387   3.170
10528W        W69789  10.659  44.404   1.935
10529W        W69790   4.872  22.250  12.946
10530W        W69791  44.407  26.662  14.006
10531W        W69792  19.272   5.787   2.379
10532W        W69793   4.757  22.234   3.354
10533W        W69794  42.383  24.021  12.439
10534W        W69795   2.888  13.687  12.996
10535W        W69796  28.437  34.935   0.737
10536W        W69797  10.724  16.239  13.524
10537W        W69798   3.222   2.736   4.751
10538W        W69799  23.554  10.877  14.408
10539W        W69800  27.461  35.110   2.374
10540W        W69801  30.045  14.267   1.881
10541W        W69802  12.302   2.410  13.468
10542W        W69803  25.029  44.954   1.212
10543W        W69804  34.933  15.321  12.026
10544W        W69805   6.280  32.140  14.483
10545W        W69806  22.080   7.396   1.897
10546W        W69807  39.405  23.226  14.315
10547W        W69808  14.791  41.014  10.542
10548W        W69809  26.471  11.745  13.984
10549W        W69810  27.476  15.677  10.518
10550W        W69811  40.011   3.445  10.985
10551W        W69812   8.227  44.291  12.920
10552W        W69813  19.109  42.490  12.888
10553W        W69814   3.790  37.894  14.306
10554W        W69815  19.163  32.006  14.030
10555W        W69816  26.569   5.847   0.839
10556W        W69817  23.736  33.444   3.185
10557W        W69818  42.888  44.297   0.897
10558W        W69819  33.580  28.510   0.314
10559W        W69820  17.144  26.557   9.994
10560W        W69821   1.745   1.953  12.967
10561W        W69822  35.554  39.872  13.906
10562W        W69823  41.870  29.425   2.232
10563W        W69824   0.880  32.524  12.962
10564W        W69825  27.188   1.959   3.296
10565W        W69826   0.915  43.908   0.728
10566W        W69827  13.133   1.795  13.420
10567W        W69828   9.386  17.701   1.747
10568W        W69829  31.466  23.705   4.658
10569W        W69830  15.791  14.795   1.214
10570W        W69831  34.045  29.940  11.886
10571W        W69832  31.527  34.073   0.893
10572W        W69833  34.112  30.155  12.468
10573W        W69834   9.342   8.223   0.965
10574W        W69835  23.536   4.333  12.986
10575W        W69836  34.076  17.750  10.478
10576W        W69837  16.631   0.867  14.443
10577W        W69838  22.587  26.045  13.955
10578W        W69839   6.688  26.507  10.997
10579W        W69840  19.543   9.200  12.079
10580W        W69841   5.328  28.032   2.669
10581W        W69842  30.022  44.387   4.715
10582W        W69843  14.299  39.848   2.291
10583W        W69844  30.161  42.823   1.277
10584W        W69845  34.038   7.341   0.839
10585W        W69846  39.467  44.366   0.952
10586W        W69847  21.587  31.034   3.648
10587W        W69848  40.314   4.436   3.289
10588W        W69849  27.171  26.588  14.860
10589W        W69850  24.143  21.110  11.943
10590W        W69851  12.621  35.018  14.804
10591W        W69852   2.747  42.890  11.534
10592W        W69853   0.469  44.972  10.463
10593W        W69854  16.137  39.028   4.758
10594W        W69855  35.566  26.129   3.715
10595W        W69856   0.428  29.967  10.935
10596W        W69857  38.561  36.968   5.804
10597W        W69858  12.251  29.542  10.439
10598W        W69859  30.002  44.842   1.386
10599W        W69860  20.705  39.946  10.481
10600W        W69861   6.380  30.123   2.267
10601W        W69862   4.268  42.990  13.496
10602W        W69863  39.477  36.487  12.072
10603W        W69864  19.732  37.514   3.237
10604W        W69865   4.916  19.184   0.802
10605W        W69866  42.851  44.994  11.995
10606W        W69867  29.099  36.893   4.214
10607W        W69868   2.722   6.692  10.474
10608W        W69869  19.122  42.881   0.845
10609W        W69870  42.515  26.986  11.998
10610W        W69871  42.915  29.434  13.912
10611W        W69872   0.335  32.905   4.784
10612W        W69873   9.395  21.148   3.749
10613W        W69874  15.189  23.062   0.445
10614W        W69875   5.192  37.909   3.696
10615W        W69876  17.198  31.415  14.422
10616W        W69877  25.480  44.829  12.434
10617W        W69878  28.959  24.108  12.991
10618W        W69879  23.091  33.480   4.793
10619W        W69880   9.889   7.852  12.030
10620W        W69881  15.250  44.283  13.880
10621W        W69882  15.142  11.712   2.297
10622W        W69883  20.096   9.204  12.899
10623W        W69884  31.507  10.669  10.980
10624W        W69885  44.479  33.124   2.811
10625W        W69886  17.130  12.322  13.511
10626W        W69887  34.433   6.325   3.819
10627W        W69888   8.891   2.469   0.359
10628W        W69889   6.337  34.084   0.944
10629W        W69890  27.186  11.748  10.519
10630W        W69891  16.195  16.137  14.433
10631W        W69892   1.295  24.701  11.536
10632W        W69893   2.329  44.786   2.354
10633W        W69894  22.086  20.720  14.382
10634W        W69895  19.163   4.845  10.427
10635W        W69896   0.439  17.260  13.796
10636W        W69897  12.324  32.066   4.767
10637W        W69898   6.282  24.228  11.442
10638W        W69899  42.912  16.781   0.264
10639W        W69900  11.642  24.224   3.168
10640W        W69901  27.506  17.238  14.479
10641W        W69902   0.481   9.826  10.598
10642W        W69903   2.914   5.205  11.128
10643W        W69904   7.299  31.043  10.557
10644W        W69905  17.668  34.501  11.110
10645W        W69906   8.785  40.311   3.323
10646W        W69907   8.299  23.229   2.315
10647W        W69908  20.543  31.940  13.548
10648W        W69909  18.078  40.816  14.919
10649W        W69910  20.185  13.730  10.461
10650W        W69911  15.732  34.896  13.378
10651W        W69912   2.457  33.096  14.499
10652W        W69913   3.230  23.986  14.345
10653W        W69914  21.595  11.843   0.404
10654W        W69915   5.211  43.894   1.812
10655W        W69916  20.237  13.295  14.479
10656W        W69917  18.253   7.888  14.417
10657W        W69918  30.089   1.244   2.807
10658W        W69919   4.437  41.390   1.340
10659W        W69920  28.993  22.028   2.275
10660W        W69921  37.005  24.214  10.638
10661W        W69922  11.308  22.210  10.890
10662W        W69923  33.383   0.293   2.278
10663W        W69924  15.745  17.105   0.367
10664W        W69925  10.641   9.646  10.939
10665W        W69926  21.669  37.502   3.643
10666W        W69927  31.592  23.061  13.937
10667W        W69928  26.548   0.379   9.982
10668W        W69929  18.682   8.878  11.568
10669W        W69930   8.234  38.408   3.732
10670W        W69931   7.338   9.388  10.552
10671W        W69932   3.417  22.113   3.172
10672W        W69933  37.461  33.576   5.167
10673W        W69934   8.813   1.913   0.938
10674W        W69935  26.670  44.917  14.460
10675W        W69936  23.689  22.085   0.376
10676W        W69937   6.882  29.942   1.424
10677W        W69938  43.493  43.437   1.888
10678W        W69939  42.343  24.538  14.980
10679W        W69940  41.816  29.437  13.342
10680W        W69941  37.063  23.712   0.408
10681W        W69942  24.523  34.893  14.802
10682W        W69943  38.337  30.129   2.254
10683W        W69944   2.839  20.207  11.984
10684W        W69945   5.365   3.726   1.294
10685W        W69946  16.724   6.862   0.403
10686W        W69947   6.327  33.619  12.572
10687W        W69948  43.321  13.341  12.467
10688W        W69949  22.051  31.002   1.335
10689W        W69950  11.359  13.620   4.689
10690W        W69951   4.886  24.551   0.446
10691W        W69952  44.440  44.393   1.769
10692W        W69953  27.090   9.322  12.906
10693W        W69954  30.911  36.510   2.191
10694W        W69955  19.090  27.673  12.379
10695W        W69956   1.824  17.730   0.943
10696W        W69957  25.212  33.027  12.388
10697W        W69958  33.029  11.733  13.480
10698W        W69959  17.756  37.411   1.444
10699W        W69960  14.179  31.909   0.373
10700W        W69961  38.927  14.627  12.902
10701W        W69962  29.641   8.808   3.783
10702W        W69963  29.162   8.368   3.154
10703W        W69964   3.929  20.564   4.234
10704W        W69965  40.840  12.253   2.878
10705W        W69966   4.313   4.785  13.023
10706W        W69967   4.892  42.922   1.348
10707W        W69968  11.723   9.276   0.735
10708W        W69969  25.488  12.623  12.029
10709W        W69970  20.073  38.074   4.770
10710W        W69971  19.190   1.788  12.869
10711W        W69972  43.355  36.885   0.371
10712W        W69973   8.674  32.969  10.562
10713W        W69974  11.222  13.190  10.981
10714W        W69975  17.204  36.028  13.878
10715W        W69976   6.214  10.207  13.356
10716W        W69977  29.524  27.035  13.876
10717W        W69978  30.086  21.605   0.386
10718W        W69979   6.721  19.756   3.273
10719W        W69980  14.164  33.403  10.488
10720W        W69981  21.585  36.949  11.959
10721W        W69982   9.644  18.790   4.228
10722W        W69983  16.652   6.760  12.044
10723W        W69984   4.224  19.147   0.759
10724W        W69985  16.712   6.388  14.990
10725W        W69986  14.139  43.815   3.813
10726W        W69987   5.285  40.014   0.961
10727W        W69988  35.508  11.805  11.005
10728W        W69989   4.320  41.464   4.262
10729W        W69990  24.554  37.033  11.390
10730W        W69991  24.563  15.808  11.930
10731W        W69992   4.278  17.783  12.968
10732W        W69993  20.768  20.219  13.908
10733W        W69994  22.653  42.929   4.312
10734W        W69995  36.028  15.715   4.328
10735W        W69996  30.977  42.854  13.530
10736W        W69997  15.204  20.160  11.890
10737W        W69998  14.101  32.137   2.277
10738W        W69999  14.683  21.087   0.242
10739W        W70000  38.435   4.269   1.314
10740W        W70001  43.297  25.653   5.163
10741W        W70002  24.031  38.909  14.470
10742W        W70003   2.458  38.966   3.832
10743W        W70004   5.891  43.862   1.295
10744W        W70005  16.805  25.193   2.847
10745W        W70006  33.893  19.193  11.906
10746W        W70007  36.863   1.890   2.187
10747W        W70008  26.700  24.565   1.264
10748W        W70009  12.684  18.631   4.831
10749W        W70010  42.519   7.865  13.833
10750W        W70011  16.779  30.963   4.598
10751W        W70012   0.849  38.491   2.193
10752W        W70013  31.132  29.007   4.729
10753W        W70014  24.702   9.856  12.430
10754W        W70015  39.008  16.761   5.743
10755W        W70016  28.015  17.731   4.676
10756W        W70017  34.927  23.652  10.995
10757W        W70018  21.249  12.657  11.387
10758W        W70019  38.472  39.953  13.502
10759W        W70020  17.733   8.717   0.838
10760W        W70021  40.410  31.983  11.584
10761W        W70022  15.672  40.851   2.700
10762W        W70023  31.576  22.563  10.522
10763W        W70024  14.240  16.123  13.358
10764W        W70025  42.842  37.366   4.333
10765W        W70026  44.782  41.810   0.305
10766W        W70027   5.254  42.028  12.342
10767W        W70028  14.250  27.477   1.796
10768W        W70029  33.895  39.913   1.423
10769W        W70030  28.443  22.513  12.080
10770W        W70031  16.683  39.882   3.342
10771W        W70032  10.267  31.896  12.361
10772W        W70033  31.918  36.038  11.455
10773W        W70034  36.361  15.136   2.266
10774W        W70035  15.749  10.666  13.531
10775W        W70036   2.341   4.396  11.010
10776W        W70037  25.621   0.824   0.332
10777W        W70038   1.305  32.083   2.318
10778W        W70039  44.354  16.189  11.054
10779W        W70040  25.695  39.888   1.781
10780W        W70041  17.224  35.439  12.444
10781W        W70042   9.211  17.072   2.232
10782W        W70043   4.381   5.388   2.678
10783W        W70044  31.916  39.347  10.633
10784W        W70045  32.041  39.963  12.502
10785W        W70046  23.635  15.311  11.417
10786W        W70047   9.260   4.316  12.492
10787W        W70048  38.506  21.574  11.491
10788W        W70049  26.682  42.367   0.928
10789W        W70050  21.606   3.411  13.039
10790W        W70051  33.620   0.868   3.187
10791W        W70052  43.472  25.622  10.526
10792W        W70053  28.155  26.954   2.223
10793W        W70054  36.354  34.446  14.805
10794W        W70055  39.060  26.627   3.308
10795W        W70056  40.050   0.294  14.500
10796W        W70057  31.482  31.456   2.729
10797W        W70058  28.129   4.800   2.272
10798W        W70059  18.758  41.538  12.521
10799W        W70060  36.392  35.932   0.852
10800W        W70061  26.683  14.599  14.767
10801W        W70062  23.034  35.097   0.831
10802W        W70063   2.721  19.194   1.317
10803W        W70064  29.485  43.788   0.835
10804W        W70065  43.516  44.505  13.541
10805W        W70066  39.926   9.236   2.808
10806W        W70067  14.258  34.118  12.530
10807W        W70068   2.898  38.992   3.292
10808W        W70069   9.772  14.264   3.284
10809W        W70070   5.719  13.781   4.126
10810W        W70071  29.620  37.944  10.564
10811W        W70072  40.808  40.005   1.234
10812W        W70073  29.043  19.658   3.292
10813W        W70074  42.868  32.481   1.839
10814W        W70075  41.421  30.648   1.753
10815W        W70076  13.197  34.438  12.560
10816W        W70077   9.242  18.142   0.889
10817W        W70078  26.482  39.516   2.834
10818W        W70079  42.435  41.809  12.443
10819W        W70080   4.763  25.502   4.299
10820W        W70081  41.886  19.248  11.451
10821W        W70082  17.284  21.736  11.989
10822W        W70083  37.898  34.392   2.688
10823W        W70084  19.620  11.645   3.855
10824W        W70085   4.384   5.381   4.834
10825W        W70086  24.606  24.201  14.364
10826W        W70087  42.815   6.758   4.224
10827W        W70088  13.136  40.515  13.985
10828W        W70089   5.344  24.982   1.332
10829W        W70090  25.546  19.773   0.295
10830W        W70091   7.303  19.134   2.801
10831W        W70092   2.280   7.380  13.323
10832W        W70093  12.291  27.136   1.807
10833W        W70094   7.261  11.235   3.769
10834W        W70095  29.576   3.225  14.415
10835W        W70096   8.686  37.893  11.525
10836W        W70097  20.537  34.937  11.121
10837W        W70098  26.561  33.044   3.377
10838W        W70099  13.699   1.264   1.796
10839W        W70100  19.279  26.994   1.934
10840W        W70101  29.481   2.295  13.432
10841W        W70102  13.334  29.628   1.735
10842W        W70103  13.259   6.912  12.459
10843W        W70104  31.989   7.402  14.947
10844W        W70105  13.131  42.839   3.806
10845W        W70106  28.062  17.703   4.218
10846W        W70107   3.710   7.399   4.169
10847W        W70108  27.543  34.902  14.857
10848W        W70109  21.134  41.402  14.023
10849W        W70110   8.232  35.036  13.895
10850W        W70111  39.026  14.725  14.825
10851W        W70112  42.867  39.034   1.905
10852W        W70113  10.844  31.485   1.760
10853W        W70114  22.641  38.860  14.321
10854W        W70115  39.479  21.615   0.784
10855W        W70116   0.750  35.902   0.242
10856W        W70117  43.980  28.510   3.377
10857W        W70118  12.238  23.141   4.321
10858W        W70119  15.237  21.594  14.413
10859W        W70120  19.677  21.589  11.948
10860W        W70121  16.696  11.864   4.121
10861W        W70122   2.894  32.920  13.432
10862W        W70123  31.965   7.255  14.363
10863W        W70124  28.436  35.875   4.248
10864W        W70125  42.906  26.526   3.155
10865W        W70126  10.202  26.547   2.407
10866W        W70127  20.132  11.235   0.873
10867W        W70128  14.153  14.820  10.458
10868W        W70129  39.423  32.574   4.352
10869W        W70130  36.558  44.380  12.485
10870W        W70131  16.627  19.536  10.980
10871W        W70132   6.819  24.109   0.447
10872W        W70133  35.410  32.636   2.246
10873W        W70134  38.451  39.507  12.453
10874W        W70135  32.546  42.350   1.752
10875W        W70136  41.962  42.393   4.612
10876W        W70137  24.720  42.976   1.918
10877W        W70138  21.563  36.440  12.514
10878W        W70139  38.855   6.888   1.879
10879W        W70140  13.265  35.388   2.831
10880W        W70141  22.535  25.704  14.925
10881W        W70142  17.161  38.925   0.736
10882W        W70143  44.944   3.401  12.884
10883W        W70144  13.198  27.079   4.684
10884W        W70145  19.613  18.788  10.489
10885W        W70146  25.557  35.397   0.957
10886W        W70147  44.431  17.658   2.251
10887W        W70148   7.252  37.046  13.505
10888W        W70149  30.507   0.339  14.795
10889W        W70150   6.859  24.086  10.614
10890W        W70151  34.595  16.723  12.989
10891W        W70152   7.244   5.354   2.869
10892W        W70153   7.231   5.385   0.268
10893W        W70154   7.280   6.707   0.928
10894W        W70155  28.497   6.307  13.989
10895W        W70156  36.896   3.765   4.336
10896W        W70157   9.789  16.641   2.879
10897W        W70158   7.822   0.947   2.264
10898W        W70159   8.738  35.038  13.855
10899W        W70160  36.422  11.284  13.492
10900W        W70161   4.760  32.079   1.399
10901W        W70162   6.813  19.097   0.919
10902W        W70163  40.454  18.142  14.457
10903W        W70164  34.961  12.760   2.406
10904W        W70165  30.577   7.703   3.200
10905W        W70166  28.542  40.526  13.438
10906W        W70167  24.060   1.810   1.901
10907W        W70168  33.623  24.226   4.232
10908W        W70169  33.052  30.988   2.874
10909W        W70170   3.775  30.009   0.372
10910W        W70171  31.485  22.641  13.903
10911W        W70172  44.785  21.640  14.398
10912W        W70173  11.741  18.294   2.776
10913W        W70174  42.353  30.575   1.368
10914W        W70175  36.576  38.456   2.717
10915W        W70176   0.294  17.128   2.668
10916W        W70177  26.009  34.398   0.427
10917W        W70178  13.174  40.438  11.944
10918W        W70179  12.762  15.595  11.455
10919W        W70180  23.559  11.741  13.966
10920W        W70181  39.560   0.488   1.331
10921W        W70182  12.778  15.273  14.028
10922W        W70183  15.821  20.611  12.492
10923W        W70184  26.022   9.375  11.127
10924W        W70185  14.614  15.667   4.616
10925W        W70186  32.928   9.845   5.292
10926W        W70187  44.367   8.860   4.753
10927W        W70188  28.055  39.824  11.087
10928W        W70189   0.386  15.755   4.174
10929W        W70190  27.491   8.886  10.446
10930W        W70191  24.663   1.335  14.341
10931W        W70192   2.722   0.867  11.373
10932W        W70193  18.601  30.126   1.812
10933W        W70194  39.060  41.429  13.983
10934W        W70195   4.367   3.278  14.506
10935W        W70196  23.997  43.897   3.791
10936W        W70197  19.632  37.031  10.959
10937W        W70198  14.670  38.363  10.940
10938W        W70199  28.459   6.697   3.790
10939W        W70200  15.681  41.323  10.112
10940W        W70201   4.757  23.538  11.050
10941W        W70202  11.688   3.833  12.969
10942W        W70203  36.443   5.829   3.864
10943W        W70204  31.062  34.519   3.303
10944W        W70205   7.864  14.762  13.425
10945W        W70206  44.378  28.067   1.409
10946W        W70207   1.969  33.986  11.097
10947W        W70208  34.103  20.558  11.879
10948W        W70209   8.669  24.017  12.541
10949W        W70210  27.067  21.555  14.373
10950W        W70211  38.995  22.219   3.746
10951W        W70212  37.993  42.913   3.377
10952W        W70213  23.510  22.231  10.938
10953W        W70214  23.029   3.880  14.367
10954W        W70215  34.020  21.065   4.774
10955W        W70216  41.349  11.700   2.378
10956W        W70217  43.926  25.075   3.864
10957W        W70218  24.225  29.071   1.734
10958W        W70219   4.865   7.859   0.945
10959W        W70220  31.042  33.422  13.476
10960W        W70221  41.493  31.432  12.937
10961W        W70222  43.414  42.989   1.230
10962W        W70223  37.855  38.019   2.236
10963W        W70224  19.197  29.638   2.209
10964W        W70225   2.378  37.854  14.003
10965W        W70226  13.717   9.791  13.492
10966W        W70227  34.074  44.324   4.736
10967W        W70228   8.293  24.162  14.348
10968W        W70229  43.345   0.487   3.299
10969W        W70230  36.541   8.365   3.347
10970W        W70231   4.926   9.232  10.039
10971W        W70232   6.732   2.760  11.599
10972W        W70233  16.141  31.464  13.000
10973W        W70234   7.178   7.372   3.273
10974W        W70235  34.590  12.353  13.396
10975W        W70236  41.986   6.240  12.494
10976W        W70237  19.607  11.304   1.328
10977W        W70238   6.265  30.996  14.335
10978W        W70239  26.666  41.398  10.969
10979W        W70240   4.222  37.956  14.009
10980W        W70241   3.734  17.192   4.203
10981W        W70242  34.992   3.738  11.409
10982W        W70243   3.912   3.864  11.865
10983W        W70244   4.388  20.636   2.700
10984W        W70245   8.290  32.552   3.150
10985W        W70246  38.980   5.386  11.421
10986W        W70247  37.450  35.952  11.862
10987W        W70248  35.936   4.893   0.263
10988W        W70249  16.666  18.211   1.267
10989W        W70250  43.989  42.984  14.999
10990W        W70251  19.213  11.847  12.352
10991W        W70252   4.761   6.774   4.618
10992W        W70253   3.758  18.221   1.809
10993W        W70254   9.705   4.745   2.767
10994W        W70255  40.333  30.032   3.337
10995W        W70256   4.235  28.150   1.269
10996W        W70257  43.294   7.391   1.776
10997W        W70258  12.172  14.235  14.908
10998W        W70259  38.009   5.276  13.519
10999W        W70260  30.164  32.991   4.673
11000W        W70261   0.857  31.517  11.472
11001W        W70262  37.830  11.841   4.626
11002W        W70263  20.597   5.273  12.974
11003W        W70264  36.057  23.522   1.893
11004W        W70265  34.524  25.092  11.927
11005W        W70266  38.365  28.516  10.036
11006W        W70267   1.334  23.560  13.020
11007W        W70268  10.829  23.227   3.728
11008W        W70269  27.974   8.706  10.519
11009W        W70270  20.137  44.325   0.447
11010W        W70271  29.563  10.677  14.484
11011W        W70272   0.912  42.837  12.436
11012W        W70273   7.194  16.609   2.758
11013W        W70274  13.608  42.295  11.529
11014W        W70275   7.268  13.143   2.671
11015W        W70276  41.040  23.697   3.357
11016W        W70277  41.297  40.841   3.715
11017W        W70278  20.563  19.686   1.430
11018W        W70279  42.489  37.016   0.940
11019W        W70280  35.901  43.853   2.303
11020W        W70281  39.504   3.810  11.019
11021W        W70282  24.039  20.665   0.946
11022W        W70283  38.914   6.314  14.321
11023W        W70284  19.622  36.395   3.251
11024W        W70285  28.106  19.717   0.777
11025W        W70286   5.283  32.072  14.851
11026W        W70287   8.394  21.705   2.247
11027W        W70288  21.632   8.337  11.398
11028W        W70289  37.845  15.697  10.581
11029W        W70290   0.936  11.757  13.415
11030W        W70291  37.086  28.998  13.876
11031W        W70292  44.864  15.654  11.936
11032W        W70293  33.500  26.524  14.761
11033W        W70294  26.602  39.937  14.415
11034W        W70295   5.208  44.363  13.866
11035W        W70296  39.323  12.332  14.821
11036W        W70297  38.832   1.866  14.281
11037W        W70298   7.171  27.989  13.315
11038W        W70299  38.365  41.936   3.694
11039W        W70300   8.305  34.375   0.779
11040W        W70301  26.457  31.622  14.353
11041W        W70302  37.968   4.704  12.529
11042W        W70303  39.386  17.655   1.851
11043W        W70304   1.838  37.014   2.803
11044W        W70305  39.355  24.223   1.698
11045W        W70306  40.923  23.583   2.285
11046W        W70307  37.994  35.523   9.969
11047W        W70308  37.855  38.908   9.956
11048W        W70309   3.436  20.081   4.211
11049W        W70310  18.259  19.227  12.339
11050W        W70311  25.092  39.894   1.277
11051W        W70312  41.814   2.465   1.856
11052W        W70313  43.338   9.759   2.868
11053W        W70314   0.962  13.169   1.804
11054W        W70315  33.040   2.361  11.414
11055W        W70316  32.401  42.383  10.553
11056W        W70317   0.753   9.663  11.448
11057W        W70318  28.601   9.294   4.151
11058W        W70319  29.462   9.799  14.785
11059W        W70320  13.767  22.522   1.302
11060W        W70321   7.362  18.247   1.390
11061W        W70322  33.379  22.166  12.381
11062W        W70323   6.911  16.159   1.853
11063W        W70324  41.894  39.475  14.301
11064W        W70325  20.537   7.192   3.298
11065W        W70326  12.647   6.182   4.170
11066W        W70327  20.235   9.188   2.760
11067W        W70328   7.872  37.085  12.461
11068W        W70329  20.535  21.649   4.312
11069W        W70330  10.292  13.661  13.399
11070W        W70331   0.296  37.957   0.355
11071W        W70332   8.784  35.013   1.291
11072W        W70333   0.752  35.985   2.794
11073W        W70334   9.304  40.454   0.343
11074W        W70335  32.547   5.245   4.770
11075W        W70336   9.768  15.268  11.553
11076W        W70337  11.292  33.617  13.356
11077W        W70338   4.800  23.716   3.254
11078W        W70339  18.211  28.503   4.169
11079W        W70340   6.724  11.825   1.436
11080W        W70341  26.488  20.187   1.347
11081W        W70342  41.468  33.064   0.362
11082W        W70343  17.289  12.132  14.812
11083W        W70344  17.750  23.669  12.986
11084W        W70345  27.960  37.370   2.257
11085W        W70346  40.032  33.091  13.364
11086W        W70347  37.342  15.175   4.195
11087W        W70348  15.116  26.492   5.309
11088W        W70349  34.407  18.281   3.866
11089W        W70350  33.489  20.038  11.393
11090W        W70351  36.564  22.686  13.375
11091W        W70352  25.146  13.726   3.160
11092W        W70353  10.819  44.938   4.817
11093W        W70354  17.210  24.045  14.319
11094W        W70355  28.470  34.612  13.818
11095W        W70356  41.301  10.852   2.842
11096W        W70357  19.059   8.866   9.960
11097W        W70358  16.726   7.358   2.331
11098W        W70359   2.371  35.955  14.361
11099W        W70360   5.835  30.023   2.687
11100W        W70361   7.328  13.137  10.924
11101W        W70362   9.821  15.697  13.444
11102W        W70363   4.756  44.329   3.641
11103W        W70364  41.474  44.887  12.001
11104W        W70365  24.592  22.601   0.384
11105W        W70366  26.661  23.205   4.830
11106W        W70367  14.272  15.792   4.193
11107W        W70368  39.435  34.881  11.107
11108W        W70369  13.306  19.272  10.977
11109W        W70370   4.332  31.147  11.477
11110W        W70371  40.906   0.947   4.836
11111W        W70372  42.944   4.779   3.184
11112W        W70373  41.340  13.323   4.178
11113W        W70374   0.777  38.857   3.171
11114W        W70375   9.736  19.073   3.247
11115W        W70376  18.622  11.712   4.742
11116W        W70377  38.549  38.414  10.417
11117W        W70378   1.391   9.154  13.514
11118W        W70379  21.221  20.230   1.295
11119W        W70380  29.035  43.907   2.216
11120W        W70381   0.856  35.989   0.938
11121W        W70382  15.744  34.947  12.898
11122W        W70383   9.726  10.759   2.729
11123W        W70384  33.569  41.496  10.128
11124W        W70385  40.996  40.807   3.359
11125W        W70386  31.639  34.877   3.817
11126W        W70387  39.459  26.583   0.866
11127W        W70388  43.338  12.178   0.479
11128W        W70389  37.522  19.567  11.064
11129W        W70390  44.468  10.150   3.300
11130W        W70391   7.691   4.244   1.750
11131W        W70392  17.731  40.962  11.391
11132W        W70393  42.854  30.951   4.353
11133W        W70394   6.223  35.954   2.276
11134W        W70395  15.745  43.832   1.706
11135W        W70396  33.389  23.135  10.609
11136W        W70397   5.715  29.039   0.391
11137W        W70398  38.394  20.552   2.203
11138W        W70399   7.305  12.179   1.700
11139W        W70400  39.524   7.194  12.569
11140W        W70401   6.239  39.898   3.799
11141W        W70402  20.247  25.619   2.415
11142W        W70403  30.450   8.215  13.817
11143W        W70404  29.515   7.707  10.895
11144W        W70405  21.613  12.211   4.294
11145W        W70406  31.973   4.347   0.727
11146W        W70407  21.656  34.915  11.401
11147W        W70408  18.261   0.489   2.811
11148W        W70409   5.786   8.817  12.397
11149W        W70410  16.122   2.396  14.404
11150W        W70411  28.443  18.568  14.771
11151W        W70412  33.393  27.595   1.707
11152W        W70413  26.633  24.620   2.845
11153W        W70414  16.186  23.192  11.491
11154W        W70415  23.220  16.615   3.233
11155W        W70416  18.701  32.118  14.397
11156W        W70417   8.730   8.888   1.414
11157W        W70418   6.208  26.593  13.409
11158W        W70419  26.475  19.180  13.053
11159W        W70420  24.542  26.180  14.962
11160W        W70421   6.287  17.622   2.723
11161W        W70422  15.730   1.324   3.780
11162W        W70423  20.105  25.633  11.051
11163W        W70424  27.479  18.629   4.735
11164W        W70425  41.363  34.112   5.645
11165W        W70426  22.664   2.922  14.320
11166W        W70427  12.291  14.207  13.009
11167W        W70428   2.356  28.135  11.939
11168W        W70429  33.393   6.786   0.888
11169W        W70430  27.164  42.798  14.282
11170W        W70431  41.849  26.594  14.000
11171W        W70432  39.041   9.685   1.345
11172W        W70433  37.955  12.206  12.006
11173W        W70434  26.021  19.553  12.888
11174W        W70435  22.649  24.048  11.396
11175W        W70436  36.923  20.178  12.955
11176W        W70437  40.948  35.033   3.202
11177W        W70438  26.550  28.182  12.470
11178W        W70439  44.853  29.614   4.311
11179W        W70440  31.138  36.917  10.574
11180W        W70441  31.484  32.585   3.869
11181W        W70442   4.701  22.246  11.531
11182W        W70443  24.584  18.293  13.801
11183W        W70444   8.668  20.693   0.935
11184W        W70445  12.136  24.532  11.480
11185W        W70446  14.297  15.108  10.556
11186W        W70447  17.112  44.955   3.289
11187W        W70448   6.253  13.299  11.884
11188W        W70449  31.626  12.785  12.361
11189W        W70450  30.532  11.743   1.442
11190W        W70451  21.559  31.083   0.749
11191W        W70452  16.191  34.889   2.883
11192W        W70453  32.612  41.292   3.821
11193W        W70454   4.744  43.803   0.418
11194W        W70455  10.147  10.863   0.410
11195W        W70456  28.953   0.351  10.964
11196W        W70457   5.250  37.060   3.862
11197W        W70458  16.589  10.138   1.769
11198W        W70459  20.685   8.247  11.121
11199W        W70460  26.003  17.151  13.048
11200W        W70461  32.620  18.098   3.341
11201W        W70462  29.023  41.346  10.936
11202W        W70463   7.280  13.178   1.713
11203W        W70464  19.594  33.905   4.609
11204W        W70465  35.532  41.359  13.977
11205W        W70466  10.669  32.959  14.344
11206W        W70467  15.700  36.928   2.304
11207W        W70468   4.921  29.988  10.462
11208W        W70469  28.140  23.499   0.917
11209W        W70470  22.209  33.004   4.237
11210W        W70471  24.106  13.176  11.547
11211W        W70472  29.037  25.071   4.215
11212W        W70473   2.331   7.254   0.304
11213W        W70474   9.239  16.314  12.525
11214W        W70475  21.624   6.919  11.068
11215W        W70476  35.993   5.919  11.999
11216W        W70477  41.883  19.132  14.409
11217W        W70478  12.705  21.244   3.232
11218W        W70479  37.053   1.885  13.912
11219W        W70480  44.897  13.350   3.798
11220W        W70481   5.203  12.226  10.638
11221W        W70482   8.785  34.944   5.226
11222W        W70483  13.632  40.878   2.284
11223W        W70484  44.395   5.928  11.868
11224W        W70485   8.279   3.734  13.004
11225W        W70486  10.645   9.342  13.897
11226W        W70487  33.131  22.606  14.505
11227W        W70488  27.666  39.504   2.242
11228W        W70489  42.883  37.435   1.359
11229W        W70490  38.498   6.842   1.232
11230W        W70491  43.474  21.712  10.576
11231W        W70492  34.515   4.714  10.586
11232W        W70493  39.973  16.207   3.704
11233W        W70494  21.134  25.984   0.850
11234W        W70495  18.743  14.103  14.028
11235W        W70496  13.609  27.546   2.891
11236W        W70497  27.604  34.428  14.850
11237W        W70498  13.271  39.490   3.705
11238W        W70499  18.192   9.179   3.280
11239W        W70500  33.914  32.063  11.110
11240W        W70501  33.407  40.309   2.216
11241W        W70502  16.574  35.409  10.942
11242W        W70503  26.063  14.133   3.190
11243W        W70504   8.863  11.373   2.245
11244W        W70505  11.181  30.599   4.221
11245W        W70506   4.812  19.189   0.375
11246W        W70507  13.689  13.340   1.736
11247W        W70508   5.717  33.551  13.390
11248W        W70509  11.790   3.868   3.150
11249W        W70510  15.210  41.022  10.584
11250W        W70511  30.107   2.472   3.859
11251W        W70512  12.800  22.596  11.554
11252W        W70513   0.474   5.391   0.271
11253W        W70514  25.606  29.436   5.755
11254W        W70515   7.787   2.412  14.940
11255W        W70516   3.283  32.488   1.703
11256W        W70517  44.362  30.479   2.186
11257W        W70518  30.123  16.680   0.862
11258W        W70519  14.197   4.334  12.875
11259W        W70520  44.840  30.130  11.043
11260W        W70521  11.266  44.453  14.848
11261W        W70522  33.601  23.672  14.971
11262W        W70523  28.680   8.798   3.373
11263W        W70524   3.236  16.212  14.432
11264W        W70525  20.151  15.735  10.038
11265W        W70526  19.175  17.161   4.182
11266W        W70527  32.546  35.587  14.372
11267W        W70528  36.866  18.719   4.783
11268W        W70529  25.079  38.543  11.125
11269W        W70530  15.180  35.901  14.944
11270W        W70531  12.149  29.447  14.898
11271W        W70532  24.481  32.987   3.182
11272W        W70533   7.306  43.516  12.575
11273W        W70534   6.193  24.159  13.540
11274W        W70535  24.615   3.856  13.454
11275W        W70536   7.327  30.115   0.341
11276W        W70537  32.599  20.636   2.288
11277W        W70538  41.007  41.534   2.826
11278W        W70539  22.100  42.819  14.894
11279W        W70540   5.225  35.463  10.481
11280W        W70541  20.610  12.818  13.536
11281W        W70542  13.324  43.351   4.316
11282W        W70543  22.081   8.276  10.998
11283W        W70544  19.234  36.994  13.966
11284W        W70545   8.756  10.291   2.337
11285W        W70546   3.240  28.115  10.952
11286W        W70547  41.841   4.854   4.783
11287W        W70548  40.020  13.647   0.405
11288W        W70549  42.851  22.504  10.951
11289W        W70550   2.292   1.299   1.744
11290W        W70551  30.520  13.349  11.438
11291W        W70552  27.587  36.453  11.585
11292W        W70553  37.033   6.884   3.760
11293W        W70554  26.165  34.601   4.345
11294W        W70555  36.369  41.432  13.940
11295W        W70556  25.190  42.026   3.158
11296W        W70557   9.157   8.705   3.286
11297W        W70558  23.679   5.253   4.732
11298W        W70559   5.717  24.125   3.257
11299W        W70560  30.963  16.709   1.213
11300W        W70561  18.772  13.302   2.755
11301W        W70562  21.613  27.148  11.995
11302W        W70563  41.872  15.674  11.455
11303W        W70564  19.588   2.824  12.463
11304W        W70565   3.894   9.355  13.358
11305W        W70566   5.308   3.832  14.474
11306W        W70567  13.706  43.910   3.839
11307W        W70568  17.175  39.534   2.826
11308W        W70569  40.498  16.736  14.395
11309W        W70570   1.405  27.074  10.420
11310W        W70571  18.125  14.739   1.866
11311W        W70572  11.828   4.864  13.471
11312W        W70573  24.227   8.777  14.850
11313W        W70574  12.305   5.699  13.801
11314W        W70575  35.048  27.472   3.848
11315W        W70576  13.254  11.684  12.536
11316W        W70577  34.087  34.559  13.512
11317W        W70578  17.601  39.921   1.813
11318W        W70579   4.781  13.678   1.893
11319W        W70580   6.922  18.553  13.431
11320W        W70581  34.510  19.042   4.630
11321W        W70582  38.496  31.033  14.474
11322W        W70583  17.721   7.408   4.716
11323W        W70584  22.649  22.244   0.338
11324W        W70585  27.620  42.785  14.276
11325W        W70586  25.477  24.535  13.952
11326W        W70587  23.000   2.411   3.220
11327W        W70588  10.218   5.819  14.777
11328W        W70589  31.620  32.627   2.734
11329W        W70590  20.708  36.041  14.507
11330W        W70591  13.211  34.956   4.249
11331W        W70592   4.805  15.306  11.393
11332W        W70593  22.715  11.284  12.404
11333W        W70594  35.028  44.410  14.993
11334W        W70595  40.430   5.890   4.766
11335W        W70596  36.377  13.243   0.913
11336W        W70597  30.499  11.863   0.260
11337W        W70598  40.903  42.807  13.481
11338W        W70599   5.202  34.437  11.509
11339W        W70600   1.297  16.646  10.626
11340W        W70601  19.099  20.250   1.783
11341W        W70602  43.857  23.512   1.248
11342W        W70603   1.256  38.028  11.487
11343W        W70604  37.085  26.112   3.822
11344W        W70605  25.583  27.140  14.930
11345W        W70606  24.150   9.694   4.233
11346W        W70607   5.916  14.832  12.887
11347W        W70608   7.773  13.772   2.705
11348W        W70609  22.685  36.921   4.621
11349W        W70610  25.609  40.460  11.884
11350W        W70611  18.790  24.480   0.787
11351W        W70612  40.320   8.740   5.101
11352W        W70613   9.798  32.889  11.070
11353W        W70614  43.491   4.427   2.340
11354W        W70615  24.215  11.797   5.125
11355W        W70616   2.462  42.417  14.922
11356W        W70617  13.281  29.171  13.863
11357W        W70618  23.610   5.706  11.406
11358W        W70619  25.031  43.347   0.823
11359W        W70620  22.545  25.705  11.860
11360W        W70621  28.625   3.757  11.984
11361W        W70622  30.510  42.402   1.804
11362W        W70623  25.598   8.722   0.798
11363W        W70624   1.932   4.917   4.609
11364W        W70625   8.681  20.645   1.251
11365W        W70626  11.330  12.316  12.867
11366W        W70627  18.698  10.297  12.935
11367W        W70628  35.536  41.036  13.453
11368W        W70629  36.432   4.226  14.413
11369W        W70630  25.093  29.116  14.793
11370W        W70631  13.733  20.728  12.072
11371W        W70632  17.172  39.401  12.578
11372W        W70633  17.246  15.168   0.954
11373W        W70634  20.631  16.788   4.254
11374W        W70635  38.894   5.291   2.759
11375W        W70636   8.755  13.710   1.347
11376W        W70637   7.174  33.976   4.301
11377W        W70638  16.276  30.534   1.788
11378W        W70639  33.032  42.469   0.940
11379W        W70640  35.525  24.480   4.779
11380W        W70641  11.185  31.540   3.349
11381W        W70642  20.125  40.825  10.411
11382W        W70643  42.504  28.648   1.398
11383W        W70644   2.427   3.911  12.466
11384W        W70645   5.817  29.112   3.632
11385W        W70646  12.125  26.692  11.874
11386W        W70647  35.464  27.566  13.021
11387W        W70648  18.273  24.479  12.075
11388W        W70649   0.485  33.034  12.394
11389W        W70650  36.376  34.385   3.828
11390W        W70651   3.353  41.806   4.767
11391W        W70652  10.673  32.115   2.298
11392W        W70653   8.848  24.664  10.970
11393W        W70654  25.546  16.075   0.354
11394W        W70655  21.052  22.646   0.734
11395W        W70656  23.133  17.118   3.739
11396W        W70657  44.974  41.996   2.714
11397W        W70658  27.457  38.990  13.367
11398W        W70659  19.215   8.219   3.700
11399W        W70660  43.416  28.462   1.864
11400W        W70661  32.626  33.977   2.273
11401W        W70662  44.852   4.419   4.819
11402W        W70663   8.338  17.651   0.910
11403W        W70664  34.997  10.676  13.410
11404W        W70665  12.625  37.538  11.952
11405W        W70666   0.851   6.850  10.522
11406W        W70667  31.457   1.413   0.471
11407W        W70668  32.087  41.920  14.409
11408W        W70669   9.704  27.598   4.786
11409W        W70670  20.523   5.769   0.829
11410W        W70671   6.335  43.896  14.913
11411W        W70672  34.536   7.698   2.736
11412W        W70673  27.188  19.088  11.568
11413W        W70674  32.065  32.477  13.923
11414W        W70675  39.863  39.433  14.436
11415W        W70676  25.711  34.538   4.694
11416W        W70677   5.323   9.220   4.116
11417W        W70678  11.179  29.148  11.128
11418W        W70679  34.033  22.108  11.463
11419W        W70680  19.280  15.755   2.259
11420W        W70681  41.334  24.607  12.407
11421W        W70682   9.646  11.355   1.369
11422W        W70683  29.594  39.896  14.829
11423W        W70684   3.897  22.076  13.897
11424W        W70685   4.431  38.918   0.873
11425W        W70686  27.145  25.120   0.381
11426W        W70687  27.457  11.322  14.971
11427W        W70688  13.307  27.463   0.936
11428W        W70689  17.711  41.970  13.008
11429W        W70690  27.547  37.535  14.407
11430W        W70691  18.677  27.549   2.726
11431W        W70692  37.522  30.042   1.310
11432W        W70693  26.966  28.661  11.419
11433W        W70694   0.362  39.476  13.426
11434W        W70695  10.855  21.218   2.715
11435W        W70696   0.848  29.958  13.516
11436W        W70697  39.357   4.410  11.580
11437W        W70698   4.842  29.098  14.002
11438W        W70699  42.371   0.761  14.461
11439W        W70700  11.144  15.764  14.001
11440W        W70701  35.374  36.484   1.212
11441W        W70702  21.751  42.307   0.480
11442W        W70703  12.180  20.754  10.905
11443W        W70704  13.821  21.556  14.429
11444W        W70705  18.074  14.717  10.593
11445W        W70706  28.087  33.106   1.891
11446W        W70707   4.871  12.241  11.437
11447W        W70708  33.591  22.580  13.008
11448W        W70709  11.369  14.291  14.915
11449W        W70710  20.605  30.119   3.796
11450W        W70711  34.034  32.984   2.235
11451W        W70712  34.865  23.108  12.343
11452W        W70713   8.801  16.771   0.958
11453W        W70714  20.721  16.599   0.909
11454W        W70715  41.512   5.731  10.953
11455W        W70716  32.079  35.859   0.835
11456W        W70717  17.218  30.419  14.777
11457W        W70718  41.799  13.139   4.172
11458W        W70719  18.669  44.474  12.479
11459W        W70720  30.428   3.891   3.814
11460W        W70721  44.490  16.167   1.443
11461W        W70722  20.748  23.198  12.578
11462W        W70723  33.508  41.514   0.902
11463W        W70724  36.505  19.120   0.360
11464W        W70725  17.740  43.801  11.937
11465W        W70726   8.761  16.121   0.325
11466W        W70727  13.669  23.105  12.859
11467W        W70728  33.572   2.304  12.939
11468W        W70729  40.353  22.572   4.286
11469W        W70730  17.651  42.483  11.509
11470W        W70731  22.628  36.916  11.125
11471W        W70732  13.647   1.906   3.247
11472W        W70733  16.219  43.447   1.351
11473W        W70734  31.609  27.127   2.284
11474W        W70735  44.812   6.862   2.672
11475W        W70736  30.526  24.217  13.321
11476W        W70737  22.188  21.514   2.358
11477W        W70738  25.144  14.280   4.273
11478W        W70739   2.841  34.983  14.880
11479W        W70740  37.882   9.834   2.795
11480W        W70741  10.308   7.233   0.447
11481W        W70742   6.683   0.985   0.927
11482W        W70743  10.320  13.804  14.515
11483W        W70744  44.840  25.534   2.726
11484W        W70745  37.993  41.459   1.802
11485W        W70746  22.167  39.050  14.353
11486W        W70747   0.448  36.852  14.400
11487W        W70748  27.977  39.822   0.296
11488W        W70749   2.361  42.957   3.381
11489W        W70750  27.478  44.973  14.458
11490W        W70751  28.120  21.719  10.893
11491W        W70752  28.557   6.224  14.487
11492W        W70753   1.912  37.065  13.390
11493W        W70754  30.158   5.696   0.773
11494W        W70755  36.544   6.391  12.995
11495W        W70756  30.652  25.178  12.433
11496W        W70757  12.726  41.842   3.351
11497W        W70758  15.618  18.080  12.901
11498W        W70759   2.420   4.812   1.383
11499W        W70760   8.732  11.698  11.595
11500W        W70761  39.401   0.451  10.538
11501W        W70762  27.643   6.282   0.959
11502W        W70763  33.550  41.483  14.465
11503W        W70764  14.216   5.408  13.844
11504W        W70765  20.768   8.867   3.315
11505W        W70766  28.126  17.299   9.954
11506W        W70767  38.472  18.740  14.300
11507W        W70768  22.067  14.699   2.886
11508W        W70769  20.139  30.015   4.334
11509W        W70770   4.726  39.913   3.755
11510W        W70771  37.079  31.925  13.975
11511W        W70772   9.218   9.734  11.920
11512W        W70773   4.738  23.641   0.460
11513W        W70774  34.059  11.359  13.906
11514W        W70775  26.646   0.357  11.571
11515W        W70776  18.222  22.613  13.311
11516W        W70777  39.959  42.357   0.814
11517W        W70778   4.734  25.034  13.861
11518W        W70779   0.365   5.200  11.583
11519W        W70780  31.086  20.120   0.912
11520W        W70781  28.446  38.835  14.384
11521W        W70782  25.123   5.244  13.366
11522W        W70783  32.934   6.221   2.775
11523W        W70784  23.720  32.516   2.352
11524W        W70785  29.523   1.943   3.311
11525W        W70786   3.237  32.126   0.441
11526W        W70787   6.230  32.101   2.813
11527W        W70788   3.797  10.642  14.510
11528W        W70789  32.970   2.807   3.812
11529W        W70790  15.252   5.704   2.677
11530W        W70791  32.479  26.191   1.818
11531W        W70792  13.759  23.002  13.399
11532W        W70793  23.635  35.503   0.430
11533W        W70794  26.469  17.228  12.038
11534W        W70795   7.382   1.920  14.499
11535W        W70796  16.804  20.185   1.257
11536W        W70797  29.032  32.076   3.694
11537W        W70798  16.221  42.452  14.364
11538W        W70799  34.474  27.065  13.465
11539W        W70800  23.714  12.162  11.420
11540W        W70801   0.468  34.045   1.777
11541W        W70802  40.463   3.430  10.565
11542W        W70803  12.707  39.456  12.383
11543W        W70804  35.943  15.815   0.457
11544W        W70805  22.579  33.582   4.742
11545W        W70806  23.020  27.051   3.170
11546W        W70807  23.052  16.567  10.936
11547W        W70808  32.499  32.482  11.917
11548W        W70809  14.268  42.486  10.461
11549W        W70810  40.891  29.972  14.882
11550W        W70811  32.003  35.438   0.466
11551W        W70812  40.993  13.284  12.898
11552W        W70813  40.481  10.244   0.348
11553W        W70814  10.879   4.823   4.787
11554W        W70815  14.192  39.920  14.032
11555W        W70816  37.954  32.405   1.856
11556W        W70817  42.924  30.576  13.832
11557W        W70818  11.299  36.012  13.010
11558W        W70819  28.154  36.041  13.954
11559W        W70820  40.942  20.066  12.938
11560W        W70821  42.522  18.631  13.314
11561W        W70822  21.586  26.083   1.226
11562W        W70823  27.195  33.528  11.028
11563W        W70824  13.842  20.660   3.724
11564W        W70825  26.035  16.602   0.741
11565W        W70826   7.373  27.632   0.390
11566W        W70827  16.718   4.354   1.356
11567W        W70828  33.568  44.329  11.492
11568W        W70829  35.521  21.628  11.446
11569W        W70830   8.774   6.262  13.544
11570W        W70831   2.233  36.063  10.114
11571W        W70832  32.016  34.952   0.431
11572W        W70833  10.369  22.205  12.071
11573W        W70834  15.175  24.021  13.874
11574W        W70835   0.412   3.279  13.918
11575W        W70836   2.342  18.777   2.786
11576W        W70837  12.716  32.995  12.425
11577W        W70838  12.728  34.380   0.780
11578W        W70839   9.165  38.341  13.545
11579W        W70840   0.773  44.345  13.332
11580W        W70841   5.691  38.055   4.620
11581W        W70842   7.793  23.130   0.826
11582W        W70843   6.379  12.770   3.321
11583W        W70844  26.990  44.772   0.865
11584W        W70845  35.891  30.416   3.714
11585W        W70846  23.023  41.957  12.409
11586W        W70847  38.861  30.577   4.139
11587W        W70848  38.454  12.857  12.986
11588W        W70849  26.684   6.915  11.078
11589W        W70850  19.542   4.398  11.939
11590W        W70851  12.315  26.959   9.664
11591W        W70852  38.901  28.982  13.518
11592W        W70853  33.916  34.517   1.728
11593W        W70854  24.543  26.468   1.715
11594W        W70855  37.081  21.670  13.505
11595W        W70856   9.803  14.100  14.806
11596W        W70857  14.208  37.853   2.263
11597W        W70858  43.765  44.440  13.845
11598W        W70859   2.755  25.024  14.773
11599W        W70860   9.185  43.290  10.576
11600W        W70861   3.843  32.404   1.432
11601W        W70862  19.650  30.600  14.319
11602W        W70863  28.546  35.921  13.402
11603W        W70864  43.892  23.086   5.670
11604W        W70865  22.527  33.985  10.941
11605W        W70866  39.879  33.091   4.202
11606W        W70867  39.547  15.314  13.544
11607W        W70868  13.335  38.867  13.011
11608W        W70869  13.193  27.164  14.825
11609W        W70870  31.527   3.837   0.253
11610W        W70871  27.586  23.571  12.368
11611W        W70872  12.318   4.384  12.981
11612W        W70873  33.478   2.237   3.853
11613W        W70874  20.230  35.463  14.016
11614W        W70875  18.572  25.626  13.475
11615W        W70876  32.964  37.348   0.920
11616W        W70877  35.500  24.163   1.364
11617W        W70878  20.574  13.683  11.473
11618W        W70879  29.513  39.510   4.790
11619W        W70880  12.683   3.756   4.759
11620W        W70881  27.052  38.488   3.286
11621W        W70882  27.496  10.633  12.860
11622W        W70883  22.667  32.054   3.149
11623W        W70884  35.046  31.438  11.602
11624W        W70885  27.590   9.240  11.053
11625W        W70886  15.320   4.715   4.344
11626W        W70887  25.618  12.347  11.097
11627W        W70888  24.582   8.882  10.920
11628W        W70889   9.361  29.604  14.375
11629W        W70890  27.005  29.648   3.153
11630W        W70891  16.230  16.280   1.225
11631W        W70892  34.479  22.586  14.982
11632W        W70893  43.010  20.737   5.748
11633W        W70894  13.257  31.513   0.948
11634W        W70895  22.592   6.862   1.220
11635W        W70896  22.225   6.712  14.002
11636W        W70897   9.676  31.008  12.867
11637W        W70898   1.864   9.324  10.453
11638W        W70899  43.949  23.721  12.442
11639W        W70900  19.181  23.028   2.892
11640W        W70901   3.878  17.616   0.911
11641W        W70902  36.859  44.344   3.312
11642W        W70903  44.006  17.722  12.048
11643W        W70904  43.456  41.377   0.271
11644W        W70905  16.192  24.666   4.632
11645W        W70906  19.182  44.501  10.079
11646W        W70907   4.898  28.025  12.096
11647W        W70908   5.319  12.679   2.227
11648W        W70909  17.726  32.547  14.978
11649W        W70910  10.374   6.756   1.244
11650W        W70911   9.879  26.007  12.531
11651W        W70912   8.306  14.627  12.894
11652W        W70913  43.773  22.015   1.842
11653W        W70914  17.308  22.573   3.707
11654W        W70915   0.815  20.231  11.506
11655W        W70916  31.002  10.206   3.640
11656W        W70917  40.361   3.412  12.033
11657W        W70918  35.066  15.805   2.383
11658W        W70919  26.569  21.174  10.967
11659W        W70920  27.623   8.669  12.351
11660W        W70921   5.235   2.254   3.364
11661W        W70922  33.624  20.222  10.565
11662W        W70923  11.276  43.981   0.822
11663W        W70924   8.365   2.360   1.267
11664W        W70925  14.678  12.255   2.672
11665W        W70926   1.936  28.981  13.381
11666W        W70927  14.703  32.910  11.009
11667W        W70928  39.879  40.009  14.979
11668W        W70929   1.891   5.222   3.158
11669W        W70930  29.985  21.567  12.443
11670W        W70931  16.223  10.262   2.323
11671W        W70932  31.142  11.766   5.119
11672W        W70933   5.857  27.459   4.256
11673W        W70934  21.047   4.871   2.748
11674W        W70935  27.981  29.600   1.876
11675W        W70936  35.931  30.565   0.777
11676W        W70937  21.053  40.894  12.344
11677W        W70938  11.681  16.682   1.282
11678W        W70939   7.723   2.862   2.825
11679W        W70940   8.812  35.551   0.801
11680W        W70941  13.271   0.378   1.236
11681W        W70942  44.925  28.453   1.859
11682W        W70943   4.700  36.488   1.909
11683W        W70944   0.905  16.309   2.392
11684W        W70945  12.161   1.809   3.731
11685W        W70946  14.278  23.605   2.686
11686W        W70947  19.698  20.185   3.685
11687W        W70948   9.811   2.799  11.990
11688W        W70949  36.901  29.498  12.874
11689W        W70950  18.716  31.054   1.825
11690W        W70951  23.230  26.574   0.893
11691W        W70952  40.376  23.639  10.624
11692W        W70953   8.743  26.022  13.931
11693W        W70954   1.809  43.918   3.313
11694W        W70955   8.389  14.651  11.027
11695W        W70956  15.233  15.818  14.400
11696W        W70957   1.817  14.207  14.923
11697W        W70958  44.418  24.111  10.918
11698W        W70959  20.555   5.216  10.425
11699W        W70960  28.136   6.293   1.795
11700W        W70961  23.236  26.166   0.754
11701W        W70962  41.332  22.250   4.335
11702W        W70963  24.689  34.041  12.074
11703W        W70964   0.336  11.754  14.931
11704W        W70965  17.279   0.487   3.313
11705W        W70966  23.075  37.909  13.493
11706W        W70967  22.574  41.789  14.806
11707W        W70968  10.286  39.373  11.984
11708W        W70969   8.662   7.202   3.643
11709W        W70970  33.507  27.474  13.541
11710W        W70971  41.793  38.019   1.787
11711W        W70972   4.708  19.254   2.327
11712W        W70973  38.031  44.818   3.296
11713W        W70974  32.112  21.075   5.203
11714W        W70975  19.123  18.650   1.290
11715W        W70976  26.560  24.211  12.412
11716W        W70977  38.831  19.710   0.785
11717W        W70978   2.886  17.663  13.369
11718W        W70979  36.565   2.398  12.885
11719W        W70980  16.314  10.292   0.406
11720W        W70981  14.742  35.460   4.240
11721W        W70982  29.140  43.513  10.962
11722W        W70983  26.593  28.105   3.769
11723W        W70984  10.848  38.325  12.050
11724W        W70985   8.708  44.884  11.108
11725W        W70986  37.933   6.723  10.152
11726W        W70987  19.131  16.150  13.484
11727W        W70988   2.468  34.978   0.273
11728W        W70989  19.243   3.724  12.986
11729W        W70990   6.380  32.603  10.155
11730W        W70991  15.733  14.297   2.335
11731W        W70992  14.799  30.929  12.954
11732W        W70993  20.645  13.833   0.364
11733W        W70994   1.809  38.033  12.985
11734W        W70995   2.769   1.864   4.723
11735W        W70996  32.100   2.382  14.918
11736W        W70997  25.058   1.336   4.341
11737W        W70998  41.468  35.475   4.246
11738W        W70999  43.376   5.427  12.856
11739W        W71000  12.295  31.405   4.144
11740W        W71001   0.387  10.799  14.889
11741W        W71002   7.876  34.926   4.348
11742W        W71003  15.797  38.334   3.844
11743W        W71004   5.378   4.310   4.191
11744W        W71005   6.787  12.772  11.927
11745W        W71006  11.827  25.967   2.714
11746W        W71007  19.114   8.766   2.796
11747W        W71008  43.944  29.427   0.436
11748W        W71009   8.824   7.174   3.352
11749W        W71010  13.836  10.863   4.318
11750W        W71011  37.375  41.358   4.699
11751W        W71012  10.159  18.157  12.995
11752W        W71013  19.740  10.877   3.207
11753W        W71014  32.914   5.888  13.314
11754W        W71015  31.590  36.412   1.328
11755W        W71016  31.939  40.027   9.986
11756W        W71017   1.841  30.044   4.116
11757W        W71018  30.154  31.062   0.246
11758W        W71019   1.241   3.828  11.898
11759W        W71020  16.270  39.890   1.729
11760W        W71021   6.342  44.469   4.719
11761W        W71022  32.420  34.056  12.926
11762W        W71023  26.613   9.804  14.398
11763W        W71024  18.150   9.220  14.812
11764W        W71025  26.553  14.240   4.725
11765W        W71026   7.833  13.317  14.507
11766W        W71027  37.398  44.980  12.934
11767W        W71028  33.991  32.036   4.806
11768W        W71029   9.729  33.070   4.281
11769W        W71030  17.261  34.087  12.472
11770W        W71031  39.392  41.378   2.817
11771W        W71032  11.829  32.122  10.127
11772W        W71033   3.881  39.402  13.333
11773W        W71034  35.363  11.701  10.526
11774W        W71035   8.237  42.927  14.283
11775W        W71036  23.193  29.920   0.909
11776W        W71037  28.152  29.118   3.710
11777W        W71038  28.082  17.162  12.416
11778W        W71039  42.812  38.384  13.508
11779W        W71040  41.934  37.481  12.052
11780W        W71041  14.164  25.176   2.725
11781W        W71042  35.520  17.307  11.388
11782W        W71043  22.599  39.946   3.328
11783W        W71044  23.043  32.563   1.802
11784W        W71045  19.533  26.021   2.288
11785W        W71046  11.814  13.264   3.708
11786W        W71047  23.507  30.551   9.925
11787W        W71048  26.685   2.262   2.262
11788W        W71049  10.853   4.248   1.371
11789W        W71050  16.580  12.723  12.038
11790W        W71051  38.490  33.954  13.544
11791W        W71052  13.771  19.102  11.099
11792W        W71053   7.181  32.629  14.888
11793W        W71054  32.543  25.182  12.403
11794W        W71055  37.840  39.855   1.294
11795W        W71056  13.842  18.641  14.319
11796W        W71057  13.794  15.757  10.564
11797W        W71058   5.319   2.811  11.885
11798W        W71059  28.570  22.507  13.434
11799W        W71060  43.316  26.081   2.677
11800W        W71061  36.093  27.006  13.043
11801W        W71062   4.407  11.748  12.885
11802W        W71063  27.494  30.936   2.197
11803W        W71064  40.454  11.312   2.833
11804W        W71065  36.466  23.493   3.168
11805W        W71066  13.335  44.400  10.033
11806W        W71067  29.053  24.621   3.244
11807W        W71068  15.102   3.722  12.409
11808W        W71069  22.688  11.658  10.047
11809W        W71070  20.098   2.865   2.249
11810W        W71071  39.041  16.637   0.277
11811W        W71072   2.755  30.933  11.064
11812W        W71073  34.444  44.310   0.258
11813W        W71074  27.980  14.261  11.950
11814W        W71075  26.609   3.289   3.384
11815W        W71076  21.114  42.381   3.839
11816W        W71077  26.134   1.792  13.001
11817W        W71078  42.333  25.011   4.284
11818W        W71079  23.608  22.112  12.934
11819W        W71080  27.178  28.165  11.871
11820W        W71081  31.621  17.139   4.332
11821W        W71082  30.138  32.490  10.126
11822W        W71083  32.914  25.098  14.784
11823W        W71084  14.339  33.594  13.796
11824W        W71085   8.293  34.509   2.365
11825W        W71086  21.516  32.997  10.924
11826W        W71087  26.198  17.608   3.238
11827W        W71088  25.629  40.350   4.132
11828W        W71089  32.133  27.940   0.779
11829W        W71090  14.669  42.023   2.816
11830W        W71091  32.064  28.007  13.901
11831W        W71092  28.526  39.030  11.898
11832W        W71093  33.461  41.886  14.359
11833W        W71094  29.989   9.377  14.853
11834W        W71095  41.340  26.464  13.797
11835W        W71096  28.585  41.502  14.788
11836W        W71097  12.145   5.415  14.352
11837W        W71098  28.564  13.613   3.665
11838W        W71099  19.230  10.146  13.821
11839W        W71100  33.955  41.003  11.016
11840W        W71101  38.070  14.761   4.682
11841W        W71102   8.330  14.219  14.936
11842W        W71103  35.968  20.166  11.563
11843W        W71104  24.155  25.644   1.849
11844W        W71105  31.606   4.912   2.289
11845W        W71106  11.134  26.668  10.547
11846W        W71107   2.816   5.354   3.249
11847W        W71108  18.163  43.391  12.828
11848W        W71109  19.776  28.074   4.266
11849W        W71110  43.852  25.154   2.315
11850W        W71111  16.599  27.962   9.948
11851W        W71112  12.816  31.511  13.364
11852W        W71113  14.312   3.302   2.727
11853W        W71114  22.236   3.940  13.974
11854W        W71115  30.076   3.867   3.783
11855W        W71116  29.544   4.899  12.908
11856W        W71117  43.874  21.734  10.444
11857W        W71118  39.948   8.899  11.938
11858W        W71119  34.954   0.881   2.264
11859W        W71120   8.195  37.343  14.395
11860W        W71121  40.304  11.731  10.921
11861W        W71122  16.642  37.528   0.918
11862W        W71123  20.590  13.655   3.317
11863W        W71124  11.237   1.451   1.415
11864W        W71125  18.125  16.618   2.854
11865W        W71126  20.113  19.063   3.760
11866W        W71127  13.319   6.187  14.334
11867W        W71128  37.502  13.825  13.831
11868W        W71129  18.243  24.517  13.836
11869W        W71130  21.586  27.068   4.138
11870W        W71131   2.932   7.671  12.076
11871W        W71132  13.616  43.944  12.997
11872W        W71133  26.192  34.934  12.481
11873W        W71134  36.433   8.172  14.955
11874W        W71135  34.894  38.046  14.324
11875W        W71136   5.207  11.788   0.308
11876W        W71137  25.608  43.516  14.357
11877W        W71138  21.044  31.900  12.849
11878W        W71139  43.819   5.424   0.787
11879W        W71140  38.928  12.273  12.523
11880W        W71141  14.189   3.453  10.076
11881W        W71142  18.171   8.271   3.249
11882W        W71143   7.800  29.434  12.473
11883W        W71144  12.770   5.872  11.054
11884W        W71145  44.363   8.703   1.275
11885W        W71146  30.096  34.387   1.889
11886W        W71147   2.461  15.718  12.941
11887W        W71148  21.556  14.744   3.687
11888W        W71149  41.501  34.928  10.422
11889W        W71150   0.271  35.037   1.373
11890W        W71151  10.685   6.923   5.653
11891W        W71152   8.786  13.749   2.899
11892W        W71153  33.022  13.714  14.334
11893W        W71154  38.446  22.520   3.315
11894W        W71155  43.976   9.695  11.942
11895W        W71156  29.502  23.059   2.178
11896W        W71157  39.880  33.069   2.333
11897W        W71158   0.387   1.911   4.168
11898W        W71159  36.537  22.734   2.412
11899W        W71160  34.024  44.471  11.985
11900W        W71161  19.758  40.810   1.357
11901W        W71162   5.217  38.914  10.967
11902W        W71163   6.390  19.730   9.971
11903W        W71164   2.246  29.450  11.991
11904W        W71165  37.388  26.657   3.301
11905W        W71166  29.933   3.936  14.973
11906W        W71167  15.622  34.594   0.343
11907W        W71168   6.387  30.008  14.806
11908W        W71169   5.231  35.063  13.956
11909W        W71170   8.195  32.424  14.967
11910W        W71171  25.058  32.636   2.730
11911W        W71172  41.327  25.607   3.384
11912W        W71173   2.406   1.921  12.009
11913W        W71174  20.673  30.510  13.366
11914W        W71175  38.537  33.405   0.893
11915W        W71176  36.919  14.742   2.780
11916W        W71177   6.723  28.098  14.999
11917W        W71178  33.030  14.157  14.335
11918W        W71179  42.002   2.829   3.669
11919W        W71180  18.108  27.048   4.642
11920W        W71181   6.793  25.028   4.115
11921W        W71182  31.554  21.671   3.857
11922W        W71183  41.482  34.453   9.980
11923W        W71184  37.499  42.903  12.535
11924W        W71185  17.182   6.362   1.379
11925W        W71186  30.493  37.478  10.894
11926W        W71187  17.797  44.759   0.933
11927W        W71188  18.151  31.540  14.776
11928W        W71189  44.890  20.160   0.302
11929W        W71190  26.051  43.883  12.061
11930W        W71191  42.326  28.495   2.826
11931W        W71192   2.255   8.192  14.372
11932W        W71193   4.406  23.153   4.699
11933W        W71194   5.217  18.545   4.282
11934W        W71195  17.272  20.049   1.222
11935W        W71196  13.692  16.643  11.874
11936W        W71197   4.281   7.367  10.977
11937W        W71198  13.622  24.043   1.701
11938W        W71199   5.795   2.382   4.330
11939W        W71200  43.813  12.146   4.663
11940W        W71201  17.796  35.502  13.016
11941W        W71202   5.335   2.840   4.668
11942W        W71203  33.513  24.554  12.345
11943W        W71204  32.007  39.466  14.324
11944W        W71205   8.838  12.825  12.405
11945W        W71206  35.400  32.600  11.372
11946W        W71207  11.356  39.833   0.432
11947W        W71208  21.618  25.688  11.942
11948W        W71209  18.292  11.345  12.896
11949W        W71210  21.233  18.195   0.799
11950W        W71211  29.996  44.404  12.019
11951W        W71212  31.015  16.299   1.844
11952W        W71213  27.141   8.772  14.000
11953W        W71214   4.365  24.703   2.834
11954W        W71215  14.188  27.072  10.052
11955W        W71216   3.765  42.784  11.427
11956W        W71217  10.209  40.520   2.688
11957W        W71218  44.296  41.834  11.876
11958W        W71219  24.178   9.704  14.366
11959W        W71220  10.780  41.441  12.574
11960W        W71221  31.094  38.359   3.859
11961W        W71222  43.981  14.249   3.854
11962W        W71223  28.184  41.811  13.943
11963W        W71224  41.488  21.547   1.886
11964W        W71225   5.830  11.340   3.329
11965W        W71226  20.739  12.247  10.438
11966W        W71227   1.316  10.863  13.973
11967W        W71228   5.402  35.050  13.417
11968W        W71229  21.099  31.434   9.920
11969W        W71230  17.300  16.179   4.149
11970W        W71231  38.001   0.897   2.665
11971W        W71232  41.799  19.156   4.827
11972W        W71233  42.446   7.891  11.440
11973W        W71234  24.646  11.234   0.783
11974W        W71235  25.994  27.090  13.360
11975W        W71236  15.665  31.942  11.106
11976W        W71237  31.498  35.907   0.376
11977W        W71238  44.311  23.173   9.970
11978W        W71239  33.625  22.650   2.701
11979W        W71240  18.689  11.858   5.197
11980W        W71241  28.517  17.082  10.444
11981W        W71242  24.590  12.855  12.081
11982W        W71243  14.105  17.800  14.437
11983W        W71244  40.899  29.055   3.857
11984W        W71245  40.506  15.588  12.962
11985W        W71246  30.451  11.311   3.171
11986W        W71247  35.508  16.774  14.944
11987W        W71248   3.295  41.984   3.350
11988W        W71249  34.521  32.052  13.309
11989W        W71250  26.093   7.853  14.442
11990W        W71251  33.510   7.807  12.570
11991W        W71252  27.119   6.721  13.792
11992W        W71253  30.552  33.416   4.344
11993W        W71254  36.056  23.723  11.024
11994W        W71255  37.559   3.854   0.351
11995W        W71256  21.694  11.340   2.781
11996W        W71257  14.620  33.935  11.463
11997W        W71258  29.971  19.632  12.964
11998W        W71259   1.908  40.525  13.415
11999W        W71260  31.965  20.188   3.865
12000W        W71261  31.492  38.921  12.532
12001W        W71262  39.485  42.498   0.790
12002W        W71263   1.962  43.821   0.461
12003W        W71264  11.298  13.279  14.783
12004W        W71265  19.614   0.436  10.602
12005W        W71266  19.557  26.703   2.361
12006W        W71267  16.122  18.100  14.809
12007W        W71268  39.541  13.613   3.281
12008W        W71269  42.492  25.514  11.553
12009W        W71270  42.790  11.636   0.246
12010W        W71271  27.664  29.655   0.416
12011W        W71272  12.341  18.119   3.221
12012W        W71273  21.054  14.743  12.509
12013W        W71274  10.335   4.868   3.767
12014W        W71275  18.143   4.922   1.829
12015W        W71276  31.940  38.903   4.676
12016W        W71277  14.775  38.432  14.985
12017W        W71278   4.861  27.515  12.046
12018W        W71279  39.855  39.369  11.945
12019W        W71280  26.462  11.297  13.418
12020W        W71281  18.662   6.854  10.602
12021W        W71282  36.367  31.123  14.304
12022W        W71283  37.528   7.838   9.643
12023W        W71284  33.579  22.099  10.955
12024W        W71285  26.628  15.760  11.075
12025W        W71286   6.811  34.432   4.730
12026W        W71287  12.323  36.063  11.092
12027W        W71288  21.713  20.265   3.384
12028W        W71289  35.034   7.703   0.322
12029W        W71290   7.328  34.519  12.834
12030W        W71291   4.281  16.707  13.056
12031W        W71292  33.489  34.884   0.364
12032W        W71293  14.319  39.470   1.307
12033W        W71294  35.449  20.639   2.363
12034W        W71295   0.310  37.941   4.697
12035W        W71296  26.482  29.475  12.574
12036W        W71297  15.089  22.695  14.874
12037W        W71298  42.909  14.148   4.603
12038W        W71299   8.218  40.411   3.848
12039W        W71300   7.361  26.958  14.880
12040W        W71301  12.665   9.163   4.117
12041W        W71302  31.562  20.056   0.414
12042W        W71303   0.439  40.865   4.752
12043W        W71304   6.853   8.677  14.879
12044W        W71305  29.427  26.505  12.882
12045W        W71306  29.458  37.894   4.778
12046W        W71307  33.476   8.712   3.199
12047W        W71308   5.923  42.942  13.905
12048W        W71309  17.079   0.777   0.302
12049W        W71310  20.653  23.210  14.331
12050W        W71311  13.345  39.869   3.799
12051W        W71312  27.557  42.829  11.392
12052W        W71313  16.637   3.272   3.695
12053W        W71314  44.503  18.050   3.716
12054W        W71315  34.521  32.020   2.315
12055W        W71316  37.032   6.701   1.711
12056W        W71317   9.764  18.597   3.716
12057W        W71318  31.979   7.683  11.440
12058W        W71319  11.340  26.149  13.445
12059W        W71320  12.761  10.639   2.680
12060W        W71321  27.187  23.635   4.748
12061W        W71322   5.415  26.612   4.339
12062W        W71323   1.887  21.638  13.511
12063W        W71324   5.740  27.131   1.401
12064W        W71325  18.134   9.219  14.353
12065W        W71326  35.378  34.079  11.015
12066W        W71327  36.567  39.038  11.567
12067W        W71328  25.508  32.891  11.115
12068W        W71329  40.862   2.292   2.296
12069W        W71330  12.272   8.346   3.212
12070W        W71331  38.024  40.969   4.322
12071W        W71332  41.010  38.346   2.359
12072W        W71333  44.771  22.220   4.775
12073W        W71334  37.862  28.044  11.900
12074W        W71335   3.346  11.860   2.347
12075W        W71336   8.794  36.406   2.866
12076W        W71337  14.619   0.769  14.898
12077W        W71338  14.225   8.735   0.752
12078W        W71339  42.891  13.688  10.428
12079W        W71340   0.455  44.445   3.164
12080W        W71341  30.623  12.620  11.898
12081W        W71342  42.932  30.616  12.472
12082W        W71343  24.681  19.248  13.825
12083W        W71344   2.315  34.461   3.711
12084W        W71345  33.096  17.293   3.324
12085W        W71346  35.445   9.331  10.575
12086W        W71347  15.773  20.177  12.912
12087W        W71348  25.620  16.215   3.261
12088W        W71349   0.913  39.397  10.972
12089W        W71350  20.596  20.522   5.297
12090W        W71351  43.014  34.884   2.870
12091W        W71352  10.220  18.683  12.348
12092W        W71353   7.893  27.629   2.748
12093W        W71354  21.229  12.362   4.615
12094W        W71355  26.591   1.940   0.258
12095W        W71356  34.913   4.866   9.955
12096W        W71357  34.106   7.694   2.783
12097W        W71358   9.824  41.791  14.776
12098W        W71359   1.362   6.367  12.887
12099W        W71360  12.838  33.430  12.076
12100W        W71361  31.136  13.225  12.467
12101W        W71362   7.325  12.122   4.160
12102W        W71363  27.504  34.964   0.360
12103W        W71364   9.331  31.943   4.762
12104W        W71365  19.583  40.417   3.325
12105W        W71366  42.840  20.114   3.207
12106W        W71367   3.236  14.338   0.449
12107W        W71368  23.175  31.470  14.354
12108W        W71369   6.405  28.649  13.859
12109W        W71370  11.710  43.340  10.986
12110W        W71371  21.048   8.201  12.989
12111W        W71372   4.781  26.969   1.373
12112W        W71373  19.641   3.308   0.352
12113W        W71374  39.861   6.914   0.449
12114W        W71375   5.853  25.562  11.408
12115W        W71376   7.806  40.311   1.272
12116W        W71377  40.999  26.129  14.824
12117W        W71378  17.578  44.788  10.509
12118W        W71379  21.116  19.109   1.269
12119W        W71380  11.341  25.978   4.275
12120W        W71381   9.734  39.065   4.686
12121W        W71382  39.349  14.321  12.433
12122W        W71383  19.664  32.445  12.829
12123W        W71384  31.551  26.188   3.327
12124W        W71385  27.123  17.555  12.406
12125W        W71386  13.614  13.311   3.272
12126W        W71387  34.405  11.804   4.168
12127W        W71388  13.249   0.336   0.742
12128W        W71389  44.455  20.054   4.688
12129W        W71390  16.265  40.824  10.959
12130W        W71391  43.953   4.325   0.451
12131W        W71392  18.182   3.737   1.225
12132W        W71393  38.411  27.500  12.957
12133W        W71394  33.928  14.120  14.504
12134W        W71395  29.064  19.726   3.708
12135W        W71396   9.198  38.483   0.407
12136W        W71397   9.253  15.625   2.237
12137W        W71398   5.340  30.056   1.838
12138W        W71399   0.471  14.331   3.357
12139W        W71400  44.997  32.030   2.320
12140W        W71401  11.173  20.715  10.577
12141W        W71402  32.143  19.772   4.340
12142W        W71403  11.634  28.649  11.427
12143W        W71404  19.087   8.398   0.879
12144W        W71405  40.489  30.932  12.892
12145W        W71406  23.177   2.455   2.306
12146W        W71407  37.439   4.836  11.013
12147W        W71408  10.692  21.547   0.825
12148W        W71409  25.514  34.505  14.850
12149W        W71410  32.047  15.772  12.843
12150W        W71411  41.018  27.115   2.313
12151W        W71412  15.681  23.057   2.848
12152W        W71413  35.063  34.105   3.186
12153W        W71414  36.097   7.819   0.441
12154W        W71415  19.746   3.900   2.786
12155W        W71416  38.336  13.258   3.253
12156W        W71417  21.179  15.629  13.890
12157W        W71418  24.984   4.863   2.308
12158W        W71419   7.363  25.616   2.387
12159W        W71420   4.259  25.568   0.871
12160W        W71421   0.333   6.322  11.014
12161W        W71422   3.250   3.382   0.267
12162W        W71423  21.171   9.725  14.295
12163W        W71424   3.767  20.175   3.363
12164W        W71425  16.590  28.461  11.092
12165W        W71426  36.052  11.743   0.761
12166W        W71427  15.192  35.574   2.861
12167W        W71428   8.674  10.659  13.516
12168W        W71429  11.794   7.695  14.445
12169W        W71430  29.631   5.218  13.958
12170W        W71431  22.657  41.020   1.257
12171W        W71432  29.486  31.439  10.896
12172W        W71433  12.322  12.666  10.452
12173W        W71434  38.832  12.328  13.859
12174W        W71435  30.433   5.751   2.810
12175W        W71436  32.500  42.402  14.510
12176W        W71437   8.751  39.904  11.584
12177W        W71438  27.648   3.236   3.285
12178W        W71439  10.639  13.343   2.270
12179W        W71440   9.875  10.384   9.975
12180W        W71441  23.544  13.626   3.808
12181W        W71442  35.545  34.936  12.041
12182W        W71443  39.469   9.855  14.964
12183W        W71444  39.434   8.730  12.469
12184W        W71445  23.601  26.121   3.763
12185W        W71446  15.120  37.896  14.794
12186W        W71447   0.428   5.204   1.346
12187W        W71448   6.349  18.183  13.365
12188W        W71449  30.426  42.776  14.851
12189W        W71450  39.349  14.112  14.314
12190W        W71451  28.159  41.532  13.947
12191W        W71452  38.944  39.455   2.876
12192W        W71453  15.651  10.361   0.253
12193W        W71454   4.724  37.896   3.333
12194W        W71455  37.925  42.848  13.962
12195W        W71456  25.567  32.919   2.780
12196W        W71457  29.453  31.484  14.957
12197W        W71458   5.884  30.087  12.420
12198W        W71459  39.874  24.523  12.436
12199W        W71460   1.317  16.156  13.981
12200W        W71461  39.854  44.413  12.529
12201W        W71462  40.493   4.319   0.431
12202W        W71463  27.004  44.816   4.727
12203W        W71464  26.509  27.556  11.579
12204W        W71465  38.068  42.338   3.746
12205W        W71466  11.823   0.324   0.254
12206W        W71467  14.215  25.060   4.223
12207W        W71468  44.774  28.968  11.953
12208W        W71469   6.209  21.119  12.424
12209W        W71470  15.316  18.286  12.991
12210W        W71471  36.873  39.907  12.975
12211W        W71472  41.436  34.598   9.557
12212W        W71473  18.286   7.221  10.996
12213W        W71474   5.777   8.172   3.158
12214W        W71475  41.885  15.606   0.415
12215W        W71476   9.690   1.763  12.402
12216W        W71477   3.260  27.051  14.449
12217W        W71478  28.126  18.241  10.154
12218W        W71479  23.193  38.919   4.315
12219W        W71480  31.404  43.886  12.990
12220W        W71481  10.644  42.399  13.006
12221W        W71482  31.501  35.493  13.909
12222W        W71483   4.380  26.549  13.434
12223W        W71484  26.092  12.631   0.881
12224W        W71485  36.987  30.620   1.284
12225W        W71486   2.851  38.389  14.005
12226W        W71487  18.277   1.332  14.286
12227W        W71488  13.739  39.549   4.289
12228W        W71489   5.704  29.174  14.427
12229W        W71490  33.983  10.878  10.067
12230W        W71491   7.828  11.170   4.170
12231W        W71492  16.267   8.333  12.943
12232W        W71493  43.310  33.042   1.252
12233W        W71494   6.297  20.098   4.186
12234W        W71495  10.838  19.276  12.348
12235W        W71496   7.788  15.277  14.472
12236W        W71497  26.140  14.185   1.413
12237W        W71498  20.660  27.459   3.819
12238W        W71499  33.016  26.970   4.118
12239W        W71500  32.012  34.561  14.866
12240W        W71501  11.199  10.316   4.340
12241W        W71502  23.524  30.527  12.984
12242W        W71503  41.366  26.623  13.495
12243W        W71504   6.297   2.339   5.099
12244W        W71505   9.343  33.564   3.148
12245W        W71506  41.800  26.952  13.404
12246W        W71507   2.389  41.835   0.403
12247W        W71508  31.949  36.521  11.029
12248W        W71509  41.868  16.582  12.953
12249W        W71510  29.460  42.447   2.255
12250W        W71511  11.175   2.235   2.191
12251W        W71512  13.122   2.311  14.420
12252W        W71513  17.129  37.952   3.751
12253W        W71514  23.639  23.531   1.386
12254W        W71515   8.371  43.355   0.425
12255W        W71516  30.587  39.894   1.391
12256W        W71517  42.013  19.692   2.902
12257W        W71518  42.876  23.699  10.548
12258W        W71519  37.993  30.097   1.256
12259W        W71520  24.602  20.569  14.976
12260W        W71521  22.056   2.748   2.300
12261W        W71522  29.619   4.784  13.992
12262W        W71523  15.717  44.847  12.344
12263W        W71524  24.163   5.809  11.379
12264W        W71525  31.046  34.431   1.873
12265W        W71526  36.393   7.792   5.223
12266W        W71527  17.203  31.575   0.243
12267W        W71528  35.100  19.110   4.265
12268W        W71529  30.612  41.953  10.618
12269W        W71530  41.401  33.918   1.256
12270W        W71531  35.866  38.363  10.634
12271W        W71532  27.098  21.251  14.882
12272W        W71533   6.258  17.145  11.566
12273W        W71534  24.979  31.915   5.260
12274W        W71535  14.196  28.482  11.109
12275W        W71536  42.821  10.377  11.403
12276W        W71537  25.129  40.947   0.825
12277W        W71538  40.335  12.756   4.316
12278W        W71539  17.303  15.580   4.151
12279W        W71540  25.496   2.783   4.794
12280W        W71541  33.438  17.601  11.074
12281W        W71542  23.532  36.503   3.235
12282W        W71543  36.432  20.098  13.930
12283W        W71544  36.456   5.334   0.474
12284W        W71545  42.919  17.245  12.385
12285W        W71546   0.410  43.377   4.662
12286W        W71547   9.852  12.173   4.310
12287W        W71548  37.406  41.401  14.760
12288W        W71549  25.088  17.213  12.465
12289W        W71550  43.501  20.734   4.823
12290W        W71551  12.840  42.011  10.526
12291W        W71552  34.021  15.663  13.004
12292W        W71553   4.284  37.916  12.956
12293W        W71554  30.498   9.315   0.778
12294W        W71555  17.182  43.770  11.420
12295W        W71556  19.073  35.546   3.256
12296W        W71557  12.636  20.540  12.441
12297W        W71558  40.475   7.176  11.931
12298W        W71559  22.640  22.734  13.455
12299W        W71560  26.533   0.449  12.004
12300W        W71561  43.979   7.821   4.148
12301W        W71562   7.830  37.570  12.563
12302W        W71563  17.165   6.677   5.769
12303W        W71564  22.509  17.671   3.671
12304W        W71565  38.986  40.422   1.341
12305W        W71566  23.126   3.304  14.393
12306W        W71567   0.753  44.951  14.786
12307W        W71568   2.360   6.401   2.816
12308W        W71569  15.702  18.259  11.563
12309W        W71570  37.544   7.230   0.898
12310W        W71571  44.424  40.340   1.780
12311W        W71572  19.049  15.788  10.433
12312W        W71573  36.002  33.557   3.643
12313W        W71574  21.742   7.689   1.329
12314W        W71575  26.154  28.034  14.866
12315W        W71576  24.650  17.244  13.435
12316W        W71577  39.042  10.319  11.485
12317W        W71578   6.256  21.557  10.527
12318W        W71579   5.920  19.592   3.214
12319W        W71580  13.845   2.268  13.041
12320W        W71581  38.951  39.524  13.906
12321W        W71582  18.637   4.322   1.215
12322W        W71583  43.984  32.027   2.738
12323W        W71584   4.853   5.198   3.787
12324W        W71585   4.301  23.501   3.383
12325W        W71586  30.533  44.010  13.061
12326W        W71587  43.387   5.310  13.932
12327W        W71588  25.069  14.145  12.429
12328W        W71589   2.878   1.332  14.978
12329W        W71590  34.386  42.393  13.862
12330W        W71591  26.013  29.492   0.311
12331W        W71592  29.074  11.166   4.758
12332W        W71593  39.525   1.911   3.293
12333W        W71594   4.899  17.770  12.028
12334W        W71595  10.235  40.896   1.901
12335W        W71596  35.083  41.878   1.861
12336W        W71597  30.076  22.652   1.832
12337W        W71598   7.673  27.015  10.461
12338W        W71599   9.885  37.512  14.393
12339W        W71600  21.581   9.236  11.054
12340W        W71601  26.703  18.147   9.944
12341W        W71602  29.132   7.327  11.988
12342W        W71603   0.328  31.480  13.318
12343W        W71604  29.122  41.527   4.195
12344W        W71605  43.490   9.266  11.550
12345W        W71606   0.441  28.060   0.470
12346W        W71607  27.122  13.607   3.353
12347W        W71608   8.665  38.966   1.903
12348W        W71609  21.117   9.339  12.855
12349W        W71610  44.386  38.553  10.408
12350W        W71611  41.498   0.350   1.247
12351W        W71612  22.738  28.642  11.922
12352W        W71613  37.545  29.664  13.937
12353W        W71614  18.194  16.725  10.525
12354W        W71615  27.633   0.470   3.792
12355W        W71616  34.369  10.234  14.785
12356W        W71617  25.629  43.385  12.063
12357W        W71618  39.051  24.088  13.914
12358W        W71619  25.603  27.685   3.783
12359W        W71620  38.349  30.069   0.737
12360W        W71621  39.927   0.954  11.942
12361W        W71622  21.035  24.716   0.753
12362W        W71623  42.385   3.460   3.264
12363W        W71624  40.969  38.054  13.514
12364W        W71625  31.924   5.777   2.349
12365W        W71626  17.631   8.690  13.492
12366W        W71627  41.869   0.758   1.808
12367W        W71628  15.104  15.186   4.268
12368W        W71629  17.785   9.703   3.791
12369W        W71630   9.307  32.473  14.428
12370W        W71631  37.052  22.056  10.942
12371W        W71632  39.506  29.574  11.977
12372W        W71633  20.231  43.769  13.400
12373W        W71634  20.696  15.807   3.329
12374W        W71635  11.165   9.353  11.604
12375W        W71636  19.200  18.772   1.891
12376W        W71637  30.512   7.212   3.646
12377W        W71638  39.964   1.825  13.541
12378W        W71639   4.266  30.527  14.989
12379W        W71640  10.262  29.595  14.434
12380W        W71641  27.990   9.191   4.738
12381W        W71642   1.793  36.392  13.486
12382W        W71643  44.312  35.559  13.458
12383W        W71644  18.094   3.721  12.532
12384W        W71645  34.872  17.704   4.152
12385W        W71646  10.755  41.927  12.898
12386W        W71647  12.126  41.316  13.375
12387W        W71648  17.167  27.553  12.894
12388W        W71649  36.480  28.443  13.904
12389W        W71650  41.358  13.261   3.868
12390W        W71651  27.185   4.219  12.938
12391W        W71652  42.015  25.530  12.953
12392W        W71653   7.343   9.704  12.360
12393W        W71654   2.859   0.388   4.336
12394W        W71655  32.982  29.924  14.846
12395W        W71656  23.047   1.448   4.127
12396W        W71657  27.115  28.541   1.912
12397W        W71658   7.769  14.297  14.893
12398W        W71659  20.754  19.095   2.887
12399W        W71660  21.247  42.978  14.404
12400W        W71661  33.010   5.374   9.563
12401W        W71662  31.029   1.912   1.774
12402W        W71663   0.890   8.759   1.791
12403W        W71664  11.622   3.833   3.770
12404W        W71665   5.299  41.418   1.214
12405W        W71666  19.587  11.253   2.213
12406W        W71667  24.722  37.493   0.385
12407W        W71668  41.845  12.120  11.442
12408W        W71669  41.352   9.348   1.310
12409W        W71670  20.742  34.570   1.283
12410W        W71671  13.799  36.934   1.349
12411W        W71672  29.004  34.557  12.352
12412W        W71673  31.506   8.853  14.777
12413W        W71674   7.839  19.618   3.368
12414W        W71675  15.731   9.244  12.051
12415W        W71676  21.530  12.301  13.901
12416W        W71677  16.717   3.849   1.721
12417W        W71678  13.185   8.221   9.976
12418W        W71679  36.407   8.813  11.954
12419W        W71680   5.725  16.696  12.523
12420W        W71681  42.822  42.843  10.980
12421W        W71682  16.141  39.455   2.689
12422W        W71683  12.736  27.113   2.417
12423W        W71684  29.023   8.659   0.777
12424W        W71685  34.597  44.276   1.799
12425W        W71686  38.075  35.412  11.025
12426W        W71687  26.025  33.416  12.349
12427W        W71688  33.444  23.636  14.395
12428W        W71689   7.838  31.939   2.215
12429W        W71690  20.136   2.829  10.991
12430W        W71691  19.561  11.804   3.213
12431W        W71692   2.442  35.038  12.386
12432W        W71693   3.375  17.770   2.306
12433W        W71694   3.350  23.542   1.758
12434W        W71695  40.405  40.862  14.430
12435W        W71696  25.147  27.466   2.663
12436W        W71697  37.444  27.144   3.833
12437W        W71698  19.220   2.735  12.439
12438W        W71699   8.198  26.028  14.456
12439W        W71700  25.081   4.283   1.831
12440W        W71701  25.202   2.941  11.509
12441W        W71702  43.001  20.560  12.422
12442W        W71703  19.613  19.771  13.027
12443W        W71704  32.436  10.808   2.795
12444W        W71705   4.318  23.627   1.776
12445W        W71706  18.677  30.522   5.150
12446W        W71707   6.796  15.751   4.690
12447W        W71708  12.345   6.272   3.349
12448W        W71709  12.200   7.396   0.314
12449W        W71710  27.141   7.317  14.959
12450W        W71711  11.819   1.818   3.318
12451W        W71712   6.842  44.771  12.376
12452W        W71713  27.034  35.560   0.438
12453W        W71714  36.847   7.256  12.441
12454W        W71715   4.851  36.036   3.791
12455W        W71716  37.972  30.441  13.937
12456W        W71717  33.460  33.001  11.917
12457W        W71718  11.361  28.526   2.216
12458W        W71719  29.049  39.811   0.773
12459W        W71720  37.059  16.250  14.015
12460W        W71721  13.334  36.055  13.996
12461W        W71722  39.358  35.883  12.932
12462W        W71723  27.543   3.710   0.886
12463W        W71724   9.255  13.669  10.522
12464W        W71725  13.218   9.761   3.803
12465W        W71726  25.638  33.415   3.808
12466W        W71727  41.339  16.572   3.207
12467W        W71728  36.386  16.748  14.445
12468W        W71729  10.215   2.850   0.874
12469W        W71730  26.203   7.267   2.313
12470W        W71731  24.054  29.639  14.350
12471W        W71732   1.915  39.467  14.762
12472W        W71733  18.663  36.422   3.273
12473W        W71734  26.478   5.387   4.212
12474W        W71735  31.920   1.326   2.878
12475W        W71736  21.586   7.378  13.812
12476W        W71737  27.480  28.034   0.845
12477W        W71738   4.862  17.798   1.341
12478W        W71739  40.002  44.903  12.041
12479W        W71740  18.725  34.970   0.968
12480W        W71741  28.640  43.360   3.259
12481W        W71742  27.026  44.875  10.608
12482W        W71743  24.658  11.721  12.485
12483W        W71744  30.511  29.975  13.998
12484W        W71745  23.011   8.381  11.922
12485W        W71746  12.759  41.791   1.826
12486W        W71747  30.638  40.348  11.080
12487W        W71748  16.197  30.073  12.460
12488W        W71749  11.292  22.674  11.035
12489W        W71750   6.903  20.268  14.494
12490W        W71751   2.314  18.263   3.176
12491W        W71752   1.332  13.231   0.762
12492W        W71753  12.758  10.833   3.634
12493W        W71754  33.947   2.823   1.368
12494W        W71755  25.539   6.806   4.347
12495W        W71756  26.608   1.296  13.848
12496W        W71757  36.567  35.488   1.430
12497W        W71758  34.913  25.978  13.859
12498W        W71759  36.435  38.994   2.795
12499W        W71760  35.533  26.093   4.690
12500W        W71761  10.381  36.373   4.204
12501W        W71762   8.707  32.587   0.262
12502W        W71763  11.651  31.031   1.805
12503W        W71764   5.765  21.603  11.873
12504W        W71765  36.507   5.731  10.083
12505W        W71766  23.024  35.591  14.443
12506W        W71767  33.947  20.740  14.933
12507W        W71768  29.131  44.974  10.020
12508W        W71769  39.891  30.109   4.222
12509W        W71770  33.966  22.637   2.409
12510W        W71771  34.019   9.344   3.827
12511W        W71772  28.546  40.800  13.808
12512W        W71773  20.543   1.477   0.289
12513W        W71774  43.473  44.768   1.926
12514W        W71775  25.643  15.254  14.509
12515W        W71776  13.310  35.865   4.766
12516W        W71777  32.499  25.670  11.859
12517W        W71778  27.084  16.620   1.289
12518W        W71779  26.527  27.071   1.380
12519W        W71780   1.311  35.032   4.278
12520W        W71781   2.913  18.621  10.450
12521W        W71782  24.512  17.622   4.662
12522W        W71783  24.084  20.175   4.192
12523W        W71784  15.118  24.682  10.029
12524W        W71785  17.196  37.966  14.408
12525W        W71786   0.920  22.671   5.299
12526W        W71787  18.750   9.206   2.804
12527W        W71788  23.146  12.361  10.909
12528W        W71789  15.097   4.269   1.895
12529W        W71790  15.302  23.638   2.336
12530W        W71791   4.215  20.238   0.286
12531W        W71792   2.725   7.353  14.373
12532W        W71793   4.275  27.128   2.305
12533W        W71794   5.796  31.039   2.396
12534W        W71795  21.161  36.966   3.817
12535W        W71796  14.101  37.910  13.401
12536W        W71797  43.339  42.825   3.334
12537W        W71798   6.789  12.355   4.643
12538W        W71799  25.176   1.949   2.191
12539W        W71800   7.360   1.250   2.865
12540W        W71801  32.000   5.305  11.376
12541W        W71802  43.855  29.498   0.857
12542W        W71803   1.738  13.611  14.849
12543W        W71804  27.977  41.473  10.978
12544W        W71805  43.442  42.921   4.814
12545W        W71806   0.806  30.658   3.225
12546W        W71807  32.471  32.041  14.491
12547W        W71808  31.937  23.120  14.308
12548W        W71809  13.107  27.552   5.731
12549W        W71810   7.345  16.179  13.957
12550W        W71811  33.385  34.449   0.945
12551W        W71812   1.424  30.063  11.905
12552W        W71813   9.236   7.274   3.306
12553W        W71814  41.307  28.464  10.996
12554W        W71815  15.089   1.437  10.617
12555W        W71816  31.148  10.710   3.316
12556W        W71817  31.442  39.925   1.450
12557W        W71818   5.219  19.278  12.355
12558W        W71819  34.864  31.094  12.476
12559W        W71820  21.543  11.783  14.899
12560W        W71821  29.043  18.554  14.890
12561W        W71822   3.367  11.224   0.411
12562W        W71823  17.557   1.737  13.425
12563W        W71824  38.491  37.486  14.850
12564W        W71825   3.783   0.434   2.209
12565W        W71826  44.421  24.045  11.444
12566W        W71827  14.650  30.588  13.466
12567W        W71828  34.504  26.007  11.515
12568W        W71829   0.802  28.042  13.961
12569W        W71830  40.408  31.929   3.654
12570W        W71831  29.121  34.589   2.259
12571W        W71832   2.424  23.521   3.768
12572W        W71833  23.988   6.267  12.418
12573W        W71834  19.767  30.514  14.808
12574W        W71835   8.863  33.936   4.268
12575W        W71836  14.644  21.533  13.498
12576W        W71837  23.576  36.475   1.392
12577W        W71838  12.800  38.012  10.438
12578W        W71839  44.394  36.946  11.931
12579W        W71840  22.743  43.900   4.168
12580W        W71841  14.302  25.635   2.378
12581W        W71842  10.216  29.114   1.275
12582W        W71843  12.743  14.590  12.929
12583W        W71844  14.191  14.697  13.060
12584W        W71845  40.040  23.201  11.376
12585W        W71846  24.083  34.052  12.544
12586W        W71847  14.609  21.518   1.838
12587W        W71848  14.107  21.039   4.758
12588W        W71849  24.495  27.452  13.310
12589W        W71850  37.354  25.684   3.639
12590W        W71851  17.729  32.566  13.496
12591W        W71852  18.775  37.058   1.437
12592W        W71853  39.823   5.801   3.260
12593W        W71854   5.840   3.908  12.975
12594W        W71855  24.599  12.128  12.493
12595W        W71856   8.298   2.903  13.026
12596W        W71857   0.275  13.654  14.388
12597W        W71858  31.488   7.778   1.815
12598W        W71859  24.688  29.581   2.279
12599W        W71860  37.357  36.366  12.494
12600W        W71861  30.908  23.150  14.367
12601W        W71862  21.036  40.397   3.692
12602W        W71863  12.802  21.643  12.419
12603W        W71864   4.749  24.068  13.313
12604W        W71865  36.368  25.508  14.450
12605W        W71866   7.696  44.315  13.416
12606W        W71867  12.352  30.516  10.477
12607W        W71868  27.168  31.576  12.958
12608W        W71869  13.176  35.579   4.813
12609W        W71870  27.942  24.181  10.123
12610W        W71871  31.965  18.553   1.356
12611W        W71872  29.947  14.645  14.289
12612W        W71873  36.965   5.874  11.604
12613W        W71874  35.501  43.855  12.080
12614W        W71875  36.993  14.307   1.313
12615W        W71876   9.182   7.805  14.388
12616W        W71877  39.496   5.260  12.997
12617W        W71878  16.264   0.875  13.808
12618W        W71879  13.738  32.624  14.792
12619W        W71880   3.776  44.852   2.380
12620W        W71881  33.492  43.938   3.174
12621W        W71882  13.232  39.389  14.889
12622W        W71883  32.435   1.845   2.764
12623W        W71884   0.771  35.420  10.628
12624W        W71885  40.863   0.914   0.812
12625W        W71886  12.179  11.360  11.553
12626W        W71887  42.880   0.371  14.968
12627W        W71888  31.076  15.203   3.311
12628W        W71889   0.445   0.812   1.347
12629W        W71890  36.467  32.010  12.033
12630W        W71891  35.567  44.790  14.300
12631W        W71892  15.720   5.934  12.937
12632W        W71893   5.325  14.614  11.046
12633W        W71894  29.046  10.864  10.566
12634W        W71895  38.995   8.208   4.187
12635W        W71896   6.263  14.810  11.374
12636W        W71897  44.330  42.512  11.524
12637W        W71898   9.231  33.029  11.038
12638W        W71899   6.311  23.636  13.060
12639W        W71900  27.143  29.667   2.865
12640W        W71901  43.274  26.199   9.539
12641W        W71902  29.000   5.353   2.288
12642W        W71903  42.398  10.372   1.273
12643W        W71904  34.118  20.081   0.734
12644W        W71905   7.202   9.311  11.538
12645W        W71906  21.034  17.700   1.928
12646W        W71907  33.130   3.761  12.092
12647W        W71908  22.055   3.874   0.323
12648W        W71909  27.675  42.315   0.955
12649W        W71910  12.823  19.657   4.670
12650W        W71911   2.936   3.772  13.338
12651W        W71912  33.411  11.346  11.470
12652W        W71913  10.336  28.932  12.976
12653W        W71914   3.781  12.715  13.366
12654W        W71915  17.069   9.794   2.214
12655W        W71916  26.057  28.933   4.617
12656W        W71917   2.293  17.624  11.992
12657W        W71918  18.210  29.623   1.362
12658W        W71919  34.930  31.527  10.579
12659W        W71920  33.574  41.460  13.367
12660W        W71921  11.714  21.565   2.782
12661W        W71922  10.806  13.140  11.076
12662W        W71923   2.339  19.575   0.290
12663W        W71924  32.985  21.690   1.877
12664W        W71925  24.164  32.140  10.956
12665W        W71926  41.948  12.675  14.359
12666W        W71927  27.078  36.374  11.936
12667W        W71928  39.358  41.999  11.398
12668W        W71929  23.695  28.948  12.844
12669W        W71930  44.356  37.382  14.850
12670W        W71931   2.917  44.319  14.952
12671W        W71932  37.569  18.676   0.347
12672W        W71933  24.178  16.746   3.838
12673W        W71934   1.257  27.662  11.512
12674W        W71935  37.067  43.479  12.451
12675W        W71936   1.303   8.365  12.509
12676W        W71937  25.062  28.668  13.995
12677W        W71938  42.023  13.185  11.559
12678W        W71939   6.710   3.876   2.389
12679W        W71940  28.636  44.480  12.018
12680W        W71941  29.448  26.985  12.504
12681W        W71942  42.916   8.183   2.676
12682W        W71943  11.127   7.374  13.896
12683W        W71944  40.358  36.383   1.211
12684W        W71945  15.799  21.078  13.396
12685W        W71946  32.555  30.562  14.890
12686W        W71947   1.382   3.924   0.476
12687W        W71948  24.049  24.677   1.695
12688W        W71949  13.779  23.678   3.171
12689W        W71950  34.595   4.406   0.789
12690W        W71951  27.620  40.445  14.372
12691W        W71952  29.093  13.646   4.759
12692W        W71953  29.957  36.084   4.616
12693W        W71954  44.396  36.561  14.768
12694W        W71955  29.597  20.631  14.464
12695W        W71956  23.523  23.230   4.819
12696W        W71957  26.991  12.826   4.628
12697W        W71958  19.241   3.884   4.217
12698W        W71959  35.569  19.768  13.500
12699W        W71960  29.661   7.316   4.680
12700W        W71961  22.510  23.067   1.732
12701W        W71962  13.138  38.357   0.894
12702W        W71963  26.000  26.519   1.298
12703W        W71964  28.092   9.314   0.299
12704W        W71965  24.076  43.871   3.269
12705W        W71966  23.617   1.241  12.505
12706W        W71967  43.004  38.374   3.164
12707W        W71968  35.938  27.035   2.242
12708W        W71969  43.814  12.620  13.502
12709W        W71970  35.489  12.143  12.357
12710W        W71971  33.418  42.914   2.815
12711W        W71972   0.980  20.172   4.325
12712W        W71973  26.502  10.636   1.741
12713W        W71974  27.003  29.499   4.129
12714W        W71975  37.436  38.846   3.319
12715W        W71976  15.133  23.658  11.596
12716W        W71977  22.210  12.315   1.716
12717W        W71978  40.324  42.864  13.010
12718W        W71979   5.389  31.615   3.692
12719W        W71980  31.508   7.239  11.521
12720W        W71981  37.563  32.418   2.896
12721W        W71982  21.578  26.182  11.390
12722W        W71983  19.099   8.834  14.455
12723W        W71984  30.443  40.986  11.544
12724W        W71985  27.940  19.067   3.181
12725W        W71986   3.395  23.212   1.256
12726W        W71987   0.776  25.072   3.282
12727W        W71988  43.872  26.669   3.193
12728W        W71989  25.693  18.767   0.309
12729W        W71990  26.109  15.733  10.519
12730W        W71991  13.271  37.395  11.406
12731W        W71992  38.458   4.416  12.410
12732W        W71993  26.054   9.855   1.714
12733W        W71994  28.011  33.932   4.742
12734W        W71995   1.762  29.483   4.152
12735W        W71996  14.818  29.456   1.449
12736W        W71997  25.472   6.679   1.230
12737W        W71998   9.764  26.564  10.637
12738W        W71999  10.677  26.133   4.322
12739W        W72000   6.730  39.483  13.342
12740W        W72001  44.889  25.176   3.234
12741W        W72002  31.950  25.970   3.831
12742W        W72003  18.204   2.808   2.377
12743W        W72004  44.899  33.547  11.067
12744W        W72005  13.278  42.806   0.432
12745W        W72006   6.291   9.226   4.261
12746W        W72007  18.110  19.585  12.383
12747W        W72008  13.758  35.534   4.672
12748W        W72009  30.596  44.770  10.411
12749W        W72010  31.975  16.285  13.001
12750W        W72011  22.577  29.029   3.225
12751W        W72012   4.432  23.706  14.969
12752W        W72013  22.165   4.782   2.230
12753W        W72014  10.364  25.607  13.825
12754W        W72015  14.205  16.282   4.784
12755W        W72016  30.045   9.709   3.758
12756W        W72017  12.345  39.480   3.712
12757W        W72018  18.576  35.465   4.776
12758W        W72019   5.803  36.417  10.550
12759W        W72020   6.875  31.534   1.835
12760W        W72021  33.381  36.384  13.413
12761W        W72022  12.702  43.855  14.344
12762W        W72023  26.190  13.636   1.845
12763W        W72024  33.445  27.639   0.448
12764W        W72025  11.687  20.726   0.435
12765W        W72026  21.178  31.081  11.069
12766W        W72027  10.738  11.312   1.220
12767W        W72028  10.286   5.226   1.303
12768W        W72029  27.550  10.829  11.923
12769W        W72030  22.682   0.979   0.870
12770W        W72031  29.514   8.785  14.984
12771W        W72032  38.047  24.020  14.440
12772W        W72033   5.781  10.831  11.536
12773W        W72034   4.413  23.989  12.383
12774W        W72035  21.560  10.153  10.943
12775W        W72036  21.118  32.935  12.461
12776W        W72037   6.689  36.965   3.740
12777W        W72038   6.813  25.579   3.256
12778W        W72039  27.614   6.423  14.421
12779W        W72040  27.661  34.525   0.962
12780W        W72041  19.624  11.330   2.898
12781W        W72042  17.195  43.473  13.872
12782W        W72043  10.845  33.459  13.034
12783W        W72044  10.304  43.815  12.966
12784W        W72045  34.880  22.199  10.996
12785W        W72046  31.100  31.471  12.557
12786W        W72047  40.360   4.444   1.930
12787W        W72048   2.724  20.639   4.307
12788W        W72049  24.128  25.626  11.122
12789W        W72050  29.570  26.043  13.043
12790W        W72051  33.098  42.396  10.981
12791W        W72052  24.528   3.303   4.126
12792W        W72053  27.640  27.979  12.034
12793W        W72054  33.571  24.998   4.132
12794W        W72055  34.533  37.874  11.511
12795W        W72056   8.172  40.984  10.434
12796W        W72057  20.634   0.407   4.215
12797W        W72058  39.348  22.167   2.240
12798W        W72059   4.717  38.913  13.802
12799W        W72060   7.326   3.859   0.835
12800W        W72061  36.901  20.695  12.409
12801W        W72062  38.910   5.306  13.978
12802W        W72063  20.134  22.661  10.581
12803W        W72064  15.105  31.912  13.455
12804W        W72065  29.157  35.385  12.348
12805W        W72066  35.374  36.357   4.319
12806W        W72067  14.600  11.236  12.020
12807W        W72068  13.325  15.675   3.725
12808W        W72069  32.010  44.801   0.918
12809W        W72070  41.876   7.885   1.712
12810W        W72071  44.934  41.329   3.277
12811W        W72072  19.178  15.320  13.982
12812W        W72073  14.268   1.944   3.841
12813W        W72074  36.848  38.558   4.645
12814W        W72075  26.961  11.745   4.263
12815W        W72076  13.161  14.127   0.755
12816W        W72077  23.501  34.959   3.182
12817W        W72078  30.582  29.918   2.757
12818W        W72079  16.786  33.920  11.126
12819W        W72080  15.083  27.065  13.535
12820W        W72081   2.282  14.601   0.811
12821W        W72082  41.849  16.259  10.571
12822W        W72083  26.626  10.250  14.792
12823W        W72084  21.668  25.600   3.776
12824W        W72085  42.436   1.758   2.885
12825W        W72086   2.811   7.412   1.273
12826W        W72087  29.477  42.437  10.535
12827W        W72088  31.065   6.796   0.343
12828W        W72089   3.865  44.817  14.975
12829W        W72090   0.949  24.071   0.360
12830W        W72091  29.640  13.308  12.424
12831W        W72092   0.268  27.618   3.869
12832W        W72093   1.262  35.470   4.608
12833W        W72094   8.223  18.097   1.297
12834W        W72095  11.656  11.840  10.896
12835W        W72096  18.669  10.156  10.523
12836W        W72097  27.129  15.817   0.268
12837W        W72098   6.691   8.244   0.936
12838W        W72099   9.739  32.505  14.474
12839W        W72100  34.530  36.541   0.367
12840W        W72101  29.969   7.794  11.467
12841W        W72102  42.778   2.797  12.974
12842W        W72103   1.811  30.525  12.954
12843W        W72104  36.501   5.763   4.619
12844W        W72105   8.382  36.470  14.885
12845W        W72106  18.152  15.173   3.175
12846W        W72107   1.391  40.856   1.407
12847W        W72108   2.315  26.527  13.919
12848W        W72109  20.233  13.702   3.205
12849W        W72110  19.634  12.676   1.908
12850W        W72111   7.808  10.215   4.162
12851W        W72112  22.506  41.336   2.406
12852W        W72113   1.856  29.033   4.345
12853W        W72114  21.546  28.671   4.252
12854W        W72115  13.275  42.025  11.472
12855W        W72116  25.989  29.103   3.744
12856W        W72117  14.591  41.341   2.349
12857W        W72118  27.131  43.838  12.447
12858W        W72119  26.530  20.243   3.734
12859W        W72120  31.605  41.851   2.724
12860W        W72121  40.389  15.609  14.932
12861W        W72122  41.482  24.130  10.437
12862W        W72123  24.099  15.631  14.893
12863W        W72124  42.020   2.259  12.364
12864W        W72125  31.070   4.852  14.840
12865W        W72126  42.334   9.872  11.529
12866W        W72127   1.448  39.972  13.922
12867W        W72128   0.256  12.639   1.814
12868W        W72129  12.197  43.279  10.976
12869W        W72130  12.263  13.673  14.879
12870W        W72131  43.288  37.914  14.966
12871W        W72132  12.293   1.377   2.373
12872W        W72133  21.226  43.391  10.578
12873W        W72134   4.862  34.993  14.875
12874W        W72135  25.581   3.729   1.393
12875W        W72136  20.252  41.889   1.396
12876W        W72137  28.633  27.192  11.382
12877W        W72138  39.438  23.497  14.966
12878W        W72139  24.213  21.688  11.886
12879W        W72140  16.265   9.850   4.732
12880W        W72141  43.872   8.371   0.355
12881W        W72142  24.558  43.455   2.414
12882W        W72143  35.057  43.773   1.296
12883W        W72144   0.880  14.123  13.502
12884W        W72145  30.011  14.621  14.777
12885W        W72146  44.938  13.323   2.388
12886W        W72147  23.061  36.051   0.431
12887W        W72148  20.767  11.299   1.392
12888W        W72149  35.485  31.127  11.977
12889W        W72150  11.323  23.629  13.443
12890W        W72151   8.777   1.317  14.815
12891W        W72152  29.001  28.068   0.745
12892W        W72153  23.609   0.484  11.530
12893W        W72154  22.707  35.947   2.703
12894W        W72155  29.045  37.509  14.416
12895W        W72156   3.320  26.030   2.691
12896W        W72157  39.361  27.495   1.270
12897W        W72158  28.024  14.669   2.791
12898W        W72159   0.863  24.717   1.241
12899W        W72160  32.458  43.914   2.344
12900W        W72161   4.402  13.646  11.497
12901W        W72162  33.918  40.858   3.383
12902W        W72163  21.552  13.647   3.300
12903W        W72164   4.710  13.687  14.328
12904W        W72165  21.729  42.003  14.327
12905W        W72166   1.948  26.058  12.939
12906W        W72167  23.096  38.412   4.734
12907W        W72168   7.833   0.978  12.984
12908W        W72169  39.977  32.492  12.900
12909W        W72170  16.772   4.936  11.018
12910W        W72171   2.949  20.718   3.865
12911W        W72172   6.877  19.222  13.422
12912W        W72173  37.077   1.761  10.452
12913W        W72174  39.032  32.008  10.981
12914W        W72175  29.974   9.714   2.329
12915W        W72176  30.631  41.909  12.900
12916W        W72177  33.391  13.626  12.357
12917W        W72178  27.500   7.777   2.665
12918W        W72179  33.939  12.257   1.726
12919W        W72180  28.090  23.613   4.667
12920W        W72181  18.650  28.966  13.822
12921W        W72182   2.275  30.098   0.411
12922W        W72183  21.622  36.366   0.801
12923W        W72184  22.624  41.353   0.828
12924W        W72185   2.795  11.854  13.453
12925W        W72186  27.060  35.876  11.030
12926W        W72187  28.629  27.657  11.964
12927W        W72188  39.969  28.930   0.870
12928W        W72189   0.289  33.014  10.585
12929W        W72190  37.975  29.659  14.895
12930W        W72191  29.073   8.781  13.919
12931W        W72192  26.978  27.554   0.742
12932W        W72193  25.625  36.578  13.833
12933W        W72194  30.980   4.841  11.888
12934W        W72195  39.994  41.490  14.019
12935W        W72196  23.238  37.034  12.922
12936W        W72197  26.962   2.264  11.935
12937W        W72198  22.739  11.308  10.445
12938W        W72199  10.173   6.701  11.379
12939W        W72200   9.157  19.066   2.293
12940W        W72201  18.545  20.248   0.737
12941W        W72202   3.315   0.879   0.916
12942W        W72203  34.468   7.238  14.896
12943W        W72204  42.396  13.792   1.925
12944W        W72205  34.546  11.312   4.747
12945W        W72206  36.545  21.721  12.008
12946W        W72207   4.817   4.235  12.990
12947W        W72208   4.268  39.833   1.381
12948W        W72209   7.810  20.206   1.927
12949W        W72210  20.190  22.233  10.562
12950W        W72211  42.997   9.749   1.213
12951W        W72212   2.741  30.031  14.872
12952W        W72213  35.381  11.818   1.883
12953W        W72214   6.229  24.171   1.445
12954W        W72215  27.196  32.051   0.417
12955W        W72216  40.943  43.019  11.995
12956W        W72217  16.130  28.027  12.374
12957W        W72218   7.770  22.725  10.567
12958W        W72219   1.249   5.728  13.924
12959W        W72220  11.812   0.397   1.787
12960W        W72221  14.159  18.283  12.463
12961W        W72222  31.641  42.926   3.190
12962W        W72223  44.892  24.169  11.925
12963W        W72224  25.482  17.279  12.848
12964W        W72225  38.000   8.401   4.745
12965W        W72226  17.615  32.020  14.813
12966W        W72227  22.712  22.573   0.802
12967W        W72228  12.200  10.298  11.993
12968W        W72229  35.087  28.182  10.097
12969W        W72230  25.707   1.769  14.341
12970W        W72231  20.749  15.779   2.843
12971W        W72232  33.005  41.850   4.778
12972W        W72233  16.702  30.461   0.271
12973W        W72234   9.689  18.783   2.680
12974W        W72235  42.423  12.621   4.276
12975W        W72236   4.245   6.186  11.449
12976W        W72237  21.143  12.126  13.354
12977W        W72238  14.239  26.673  13.893
12978W        W72239  23.562  34.444   1.921
12979W        W72240  10.768  35.998  13.390
12980W        W72241  43.934  25.975   3.722
12981W        W72242  44.866  30.561   4.605
12982W        W72243   2.333  24.168  11.956
12983W        W72244  32.550  23.710   4.662
12984W        W72245  21.521  41.319  11.983
12985W        W72246  38.537  14.103  13.014
12986W        W72247  40.399  26.475  14.795
12987W        W72248  16.754  44.791   0.283
12988W        W72249  21.221  10.146   5.246
12989W        W72250   4.820  33.108   1.262
12990W        W72251  17.728  10.277   5.229
12991W        W72252   7.300  15.696   1.332
12992W        W72253  33.968  24.097   3.676
12993W        W72254  24.705  23.131   0.754
12994W        W72255  20.213  24.659  10.552
12995W        W72256  20.045  35.993   1.396
12996W        W72257  39.347  31.413   0.830
12997W        W72258  25.173  36.867   3.688
12998W        W72259  42.283  34.468   2.222
12999W        W72260  34.523  20.587   2.236
13000W        W72261   8.292  11.211  13.483
13001W        W72262  16.723  19.166  13.954
13002W        W72263  39.838  32.917   2.686
13003W        W72264  18.253   4.845   4.168
13004W        W72265  34.935  28.159  14.947
13005W        W72266  24.061  43.329   0.392
13006W        W72267   7.308  15.578   1.852
13007W        W72268   5.922  24.069  10.951
13008W        W72269  31.934   9.159   1.378
13009W        W72270  11.252  15.227   1.720
13010W        W72271  33.525   9.352  11.914
13011W        W72272  41.382  33.048  10.443
13012W        W72273   9.654  12.630   1.913
13013W        W72274  23.081  44.294   1.402
13014W        W72275   1.893  34.094  12.038
13015W        W72276  25.604  41.867   1.420
13016W        W72277  35.055  17.198  10.614
13017W        W72278  33.518  23.240  12.061
13018W        W72279  38.476   5.393  14.979
13019W        W72280  38.881  35.855  10.125
13020W        W72281   7.852  31.082   2.765
13021W        W72282   1.374  28.626   1.257
13022W        W72283  43.909  18.595  10.937
13023W        W72284  17.764   4.914   3.669
13024W        W72285  41.328  12.239   1.314
13025W        W72286  30.419  44.947  13.857
13026W        W72287  22.229  35.056  14.950
13027W        W72288  30.035   5.312   2.723
13028W        W72289  39.045  25.712  12.969
13029W        W72290  44.764  44.467   0.316
13030W        W72291  23.056   2.282   2.684
13031W        W72292  23.534   4.864   3.294
13032W        W72293  30.918  30.984  10.525
13033W        W72294   9.781  22.047  11.438
13034W        W72295   0.393  28.630   3.219
13035W        W72296  15.140  36.429  12.023
13036W        W72297  23.224  43.430  11.544
13037W        W72298   9.709  38.854   0.823
13038W        W72299   2.785  33.505   4.218
13039W        W72300  11.631  42.831   3.305
13040W        W72301  23.533  44.908   0.771
13041W        W72302  15.640  11.688   1.772
13042W        W72303  11.803   4.848  14.443
13043W        W72304  36.972  22.555  12.853
13044W        W72305  17.200  21.234  12.571
13045W        W72306   2.966  21.602  13.371
13046W        W72307  11.822  20.704   2.317
13047W        W72308   8.866  29.470   5.262
13048W        W72309  10.871  23.718  11.003
13049W        W72310  14.608  16.099   0.288
13050W        W72311  13.343  44.429  11.480
13051W        W72312  11.744  34.111  13.057
13052W        W72313  30.542  26.516  11.504
13053W        W72314  25.062  23.048  13.015
13054W        W72315  41.394  18.698  12.514
13055W        W72316  16.154  18.586  10.456
13056W        W72317  21.211  33.543   4.211
13057W        W72318  10.278  37.438  11.605
13058W        W72319  23.997  43.788  10.935
13059W        W72320  40.977   9.847  13.333
13060W        W72321  30.523  41.524   4.756
13061W        W72322  15.677  24.015   2.720
13062W        W72323   8.816  11.225   3.796
13063W        W72324  10.727  35.929  14.811
13064W        W72325  11.854  11.743   4.323
13065W        W72326  10.685  31.140  14.898
13066W        W72327  13.640  24.618   2.293
13067W        W72328  40.845  24.154   3.841
13068W        W72329  23.186  22.684   3.825
13069W        W72330  23.532  24.537  14.499
13070W        W72331   8.865   9.713  12.035
13071W        W72332   4.237  14.304   0.327
13072W        W72333  38.937  23.031  11.541
13073W        W72334   5.882  33.002   3.361
13074W        W72335  31.611  18.698   0.461
13075W        W72336  22.719  13.265  11.514
13076W        W72337   3.901  32.112  14.376
13077W        W72338   7.236   4.436  14.028
13078W        W72339   1.346  36.381   1.786
13079W        W72340  18.212  28.552  14.818
13080W        W72341  12.333  19.570  10.480
13081W        W72342  22.619   4.365   2.863
13082W        W72343  31.914  15.823   4.724
13083W        W72344   3.887  34.059  14.866
13084W        W72345  22.677  30.972  10.635
13085W        W72346   0.856  43.307   3.195
13086W        W72347  31.489  20.568   1.439
13087W        W72348  39.871  39.002  11.103
13088W        W72349  36.031  33.061  12.531
13089W        W72350  25.600  14.112  12.358
13090W        W72351   2.393   1.806  12.968
13091W        W72352   0.403  19.128  11.574
13092W        W72353  23.141  13.734   2.765
13093W        W72354  11.161   8.839   1.380
13094W        W72355  37.868  11.835   0.381
13095W        W72356  36.923  40.468  12.525
13096W        W72357  29.130  28.655   2.679
13097W        W72358   1.854  36.867  13.795
13098W        W72359  26.643  15.675   0.396
13099W        W72360  28.109  22.162   0.902
13100W        W72361  19.625  39.488   0.423
13101W        W72362  14.279   8.189  10.927
13102W        W72363  18.155   5.358   4.296
13103W        W72364  41.533   5.827  13.027
13104W        W72365  28.104  12.317   3.703
13105W        W72366  22.046  34.109   2.770
13106W        W72367   4.845  13.790  14.871
13107W        W72368   6.771  15.700   2.900
13108W        W72369  17.618  39.333   2.276
13109W        W72370  25.523  24.997  11.067
13110W        W72371  22.055  13.315  11.598
13111W        W72372   3.946   1.837  14.004
13112W        W72373   9.308  21.533  14.506
13113W        W72374  10.665  12.137   0.890
13114W        W72375  31.007  28.540  13.428
13115W        W72376  36.041   9.314  11.611
13116W        W72377  38.840   9.224   2.729
13117W        W72378  37.458  34.430  10.945
13118W        W72379  14.125  42.026   2.306
13119W        W72380   8.896  25.473  12.013
13120W        W72381  34.885  29.161  13.011
13121W        W72382  32.958  10.285   1.260
13122W        W72383  28.678   5.355  13.864
13123W        W72384  19.210  34.463   0.342
13124W        W72385  31.449  10.847  11.471
13125W        W72386   0.784  30.060   1.378
13126W        W72387  25.692  16.749   2.733
13127W        W72388  14.330   0.299   4.624
13128W        W72389  13.156  33.048   2.300
13129W        W72390  11.624  15.802  14.842
13130W        W72391  25.156   6.345   1.212
13131W        W72392   2.856  28.677  14.795
13132W        W72393   0.299  16.233   9.592
13133W        W72394   6.312  14.293   3.318
13134W        W72395   0.885  41.381  10.478
13135W        W72396  14.337  43.780  12.355
13136W        W72397   4.273   4.932   1.912
13137W        W72398  17.632   3.312  11.023
13138W        W72399   8.278  24.129  10.458
13139W        W72400  36.389  35.969  13.017
13140W        W72401  20.245  19.749  14.303
13141W        W72402  44.760  26.140  10.016
13142W        W72403   0.750   2.338   2.236
13143W        W72404  43.798  16.203   5.138
13144W        W72405  15.773   1.786  12.025
13145W        W72406   8.323  31.626  11.499
13146W        W72407  32.554   0.758  12.567
13147W        W72408  24.647  22.186  11.532
13148W        W72409  36.006  35.866   2.804
13149W        W72410  44.778   1.956  12.872
13150W        W72411  31.592  16.123   3.793
13151W        W72412  39.360  10.254  13.034
13152W        W72413  28.540  19.175  13.476
13153W        W72414   7.874  30.157   0.841
13154W        W72415  29.485  16.299   1.314
13155W        W72416  44.756  14.310  13.440
13156W        W72417  17.787  19.558   1.264
13157W        W72418   1.383  35.939   2.825
13158W        W72419  40.944  11.720   0.753
13159W        W72420   3.915  11.833   1.326
13160W        W72421  40.924  44.930   4.173
13161W        W72422  29.624  42.461  11.058
13162W        W72423  27.537  32.575   1.356
13163W        W72424   7.294  30.488   2.787
13164W        W72425  40.364  40.517   0.766
13165W        W72426  40.428  42.419   4.317
13166W        W72427  43.482  33.389   1.813
13167W        W72428  29.556  25.529  11.984
13168W        W72429  13.711  44.904   3.202
13169W        W72430  16.812   0.473  10.509
13170W        W72431  40.413  10.156   2.278
13171W        W72432  26.648  27.944  13.852
13172W        W72433  13.230   7.838  10.516
13173W        W72434  15.262  12.791  13.373
13174W        W72435  10.846  44.286  13.493
13175W        W72436  33.920  15.282   0.361
13176W        W72437   1.381  39.839   2.711
13177W        W72438  23.597  29.464  14.419
13178W        W72439  31.438  38.503  12.398
13179W        W72440  43.479  10.717  11.524
13180W        W72441  25.534  35.509  12.952
13181W        W72442  17.671  31.566  11.604
13182W        W72443  23.544  28.480   4.771
13183W        W72444  27.503  40.875   4.203
13184W        W72445  21.035  18.293   1.730
13185W        W72446  19.628  43.321  11.482
13186W        W72447  16.095   9.192   1.913
13187W        W72448  34.542  18.607  11.549
13188W        W72449  17.649  21.063  11.600
13189W        W72450  27.097   5.870  14.930
13190W        W72451  29.055  27.979  10.437
13191W        W72452   1.482  37.532  14.786
13192W        W72453  29.102  40.023   2.665
13193W        W72454  26.009  41.395  12.947
13194W        W72455  13.762  42.343   2.732
13195W        W72456  14.107  18.576  14.503
13196W        W72457  15.120  22.502  10.593
13197W        W72458  29.942  19.271   3.158
13198W        W72459  40.315  22.508  12.390
13199W        W72460  38.820  35.007   4.167
13200W        W72461  37.893   7.675   2.354
13201W        W72462   8.296  34.520  10.406
13202W        W72463  29.992  18.662  13.366
13203W        W72464  28.120  33.040   3.229
13204W        W72465  17.076   7.173   1.901
13205W        W72466  23.112   5.771   1.826
13206W        W72467  34.117  34.885   2.835
13207W        W72468  44.373  14.804  11.060
13208W        W72469  40.025  37.982  11.436
13209W        W72470  34.564  22.703  10.555
13210W        W72471  20.101  15.083   3.719
13211W        W72472  30.641  27.104   1.797
13212W        W72473  18.117  23.199   0.768
13213W        W72474  36.049  18.189  11.016
13214W        W72475  44.329  11.753  10.572
13215W        W72476  26.992   6.729  14.361
13216W        W72477  23.207   3.309  13.898
13217W        W72478  36.010  25.079  13.918
13218W        W72479  10.319  34.078   1.423
13219W        W72480  42.471  24.996  14.931
13220W        W72481  40.343  32.941   0.808
13221W        W72482  36.583  36.876   0.377
13222W        W72483  26.695  13.661  14.001
13223W        W72484  25.000  33.879   2.866
13224W        W72485  36.485  17.097   1.773
13225W        W72486   5.256   1.924  11.094
13226W        W72487  14.703  31.493  13.026
13227W        W72488  39.383  11.129   3.698
13228W        W72489  35.472  28.509   0.962
13229W        W72490  39.556   5.736   4.292
13230W        W72491   6.905   0.384  10.980
13231W        W72492  17.721  18.717  10.120
13232W        W72493   2.942  26.102  13.484
13233W        W72494   9.680  32.053  11.373
13234W        W72495   1.367  10.668   3.229
13235W        W72496  28.499  28.163  13.492
13236W        W72497   0.966   8.772   3.237
13237W        W72498  20.051  39.974  10.585
13238W        W72499   6.425   7.306  11.535
13239W        W72500  24.039  34.610  12.515
13240W        W72501   3.826  18.162   9.950
13241W        W72502   7.286  16.657   1.255
13242W        W72503  33.118  35.877   3.832
13243W        W72504   6.337  42.032  12.360
13244W        W72505   6.734  35.885   2.666
13245W        W72506  20.712  28.614  11.079
13246W        W72507   5.250  28.041   3.217
13247W        W72508  29.583  21.143  11.964
13248W        W72509  29.118  29.932   3.184
13249W        W72510  24.490  21.220  10.900
13250W        W72511  26.197  18.615   4.231
13251W        W72512  33.567   4.828  13.907
13252W        W72513  44.965   5.260  10.527
13253W        W72514  31.994  31.553  10.428
13254W        W72515  38.830  43.932  12.944
13255W        W72516  14.786  11.332   1.432
13256W        W72517   0.931  32.913   3.747
13257W        W72518   6.289  15.810  12.542
13258W        W72519  25.059  14.819   1.422
13259W        W72520  25.205  20.229  11.080
13260W        W72521   6.349  16.684  14.811
13261W        W72522  37.454  10.327  12.412
13262W        W72523  15.637  41.883   3.271
13263W        W72524  15.742  30.555   4.314
13264W        W72525  26.184  41.452   2.755
13265W        W72526  13.284  33.043   3.826
13266W        W72527  38.944  32.393   1.923
13267W        W72528  10.644  19.196   3.325
13268W        W72529  16.701   7.183  12.420
13269W        W72530  36.570  37.958   4.735
13270W        W72531   3.349  32.626   3.793
13271W        W72532  14.216   2.397   5.317
13272W        W72533  37.473  27.169   4.161
13273W        W72534  31.948  37.887   0.278
13274W        W72535   6.205  34.996  11.883
13275W        W72536   5.849  32.465   2.787
13276W        W72537  44.777  26.015  11.378
13277W        W72538  29.137  20.761  13.840
13278W        W72539  37.990  20.066  14.289
13279W        W72540  16.608  20.122  13.848
13280W        W72541  27.501  18.683  13.018
13281W        W72542  42.926  39.505   2.306
13282W        W72543   3.745  41.031   2.309
13283W        W72544  11.706  31.044   0.360
13284W        W72545  21.145  38.400  11.552
13285W        W72546  29.928  32.581  14.802
13286W        W72547  17.224  11.320  11.569
13287W        W72548  21.738   7.723   0.831
13288W        W72549  25.999  15.613   4.292
13289W        W72550   2.883  21.695   3.232
13290W        W72551  13.218  44.936   1.917
13291W        W72552  33.525  28.548  12.038
13292W        W72553  30.922  24.111  13.924
13293W        W72554   7.687   9.761   1.777
13294W        W72555  13.744  23.622  12.417
13295W        W72556  14.126  43.815   3.288
13296W        W72557   4.927  44.277  14.772
13297W        W72558  21.233  15.316   3.659
13298W        W72559  23.024  18.179  13.043
13299W        W72560  32.061  39.431  12.854
13300W        W72561  16.176   6.733   5.307
13301W        W72562   0.955   9.823  10.942
13302W        W72563  43.866  11.296  11.082
13303W        W72564  34.071   4.898   4.661
13304W        W72565   5.799  26.204  11.380
13305W        W72566  32.510  14.325   4.808
13306W        W72567   2.790  15.103   3.770
13307W        W72568  29.964  37.518  13.481
13308W        W72569  26.055  32.903  11.873
13309W        W72570  43.391  30.050   2.304
13310W        W72571  33.005  25.124   3.688
13311W        W72572  27.153  13.786  14.300
13312W        W72573  40.819  33.500   4.346
13313W        W72574   4.882  39.363  11.543
13314W        W72575  13.113  36.490  14.802
13315W        W72576  20.124   8.774   1.431
13316W        W72577  22.649  37.375   0.759
13317W        W72578   4.341  12.127   0.889
13318W        W72579  27.526  11.782  13.013
13319W        W72580   4.942   6.253  13.041
13320W        W72581  10.667  24.616  13.984
13321W        W72582  35.009  44.422  11.490
13322W        W72583   0.439  24.632   2.349
13323W        W72584   8.725  12.290  14.866
13324W        W72585   9.244  15.663   4.762
13325W        W72586  14.649   5.308  10.634
13326W        W72587  21.176   5.284  14.429
13327W        W72588   5.776  35.519   3.323
13328W        W72589  42.989  37.540   3.299
13329W        W72590  27.962   7.297   3.660
13330W        W72591  27.580  12.715  12.357
13331W        W72592  11.214   3.323  11.526
13332W        W72593  11.147  39.837   2.396
13333W        W72594  29.938  24.718   3.736
13334W        W72595   7.373   0.460  12.850
13335W        W72596   2.783  38.393  10.577
13336W        W72597   3.349  22.198  10.077
13337W        W72598  19.043  29.069   1.429
13338W        W72599  12.645  37.525   2.718
13339W        W72600  30.923  10.722   4.808
13340W        W72601  35.500   7.333  11.961
13341W        W72602   5.263  42.451   3.312
13342W        W72603  38.528  21.550   2.736
13343W        W72604   1.892   2.446  13.450
13344W        W72605   5.733   1.421   2.754
13345W        W72606   4.732  40.346  14.324
13346W        W72607  26.050   4.365  13.316
13347W        W72608  33.936  39.443   1.897
13348W        W72609  25.196  42.014   0.283
13349W        W72610  21.729  41.336  11.010
13350W        W72611   6.919  28.484   0.434
13351W        W72612  40.344  44.468  11.535
13352W        W72613  10.149  29.627   1.309
13353W        W72614  16.705  26.132  11.971
13354W        W72615  30.033  42.285  11.013
13355W        W72616  11.273   4.438   2.858
13356W        W72617  23.688  20.213  14.314
13357W        W72618  31.106  18.188  13.952
13358W        W72619   7.409  43.964  11.414
13359W        W72620  37.864  30.144  11.586
13360W        W72621   2.352  34.379   1.212
13361W        W72622   6.914  28.003   2.388
13362W        W72623  16.180  34.004   0.469
13363W        W72624  43.975  15.297   0.732
13364W        W72625  12.284  41.950  14.838
13365W        W72626  25.674   3.225  14.350
13366W        W72627  13.251  23.191   0.826
13367W        W72628  35.098  19.122   2.710
13368W        W72629   9.860  27.996   3.328
13369W        W72630  13.736   4.241   3.638
13370W        W72631   8.730   2.432  11.398
13371W        W72632  32.006  42.786  13.059
13372W        W72633  25.615  34.059  14.466
13373W        W72634  43.960   4.922  14.869
13374W        W72635  26.092   7.767   2.715
13375W        W72636   7.740  27.159  11.883
13376W        W72637  43.923  38.381   1.778
13377W        W72638  41.840  39.389   1.784
13378W        W72639  31.899  42.366   4.681
13379W        W72640  22.655  28.646  11.078
13380W        W72641  23.137  35.374  13.478
13381W        W72642  20.751  11.255   3.380
13382W        W72643   6.777  43.421  14.888
13383W        W72644  26.699   7.339   3.235
13384W        W72645   6.324   6.749  12.527
13385W        W72646   3.866   4.913  10.153
13386W        W72647  42.805  24.165  12.370
13387W        W72648  37.084  31.948   0.294
13388W        W72649   6.331  20.064   3.251
13389W        W72650  20.064  40.357  14.018
13390W        W72651  29.489   9.291  14.296
13391W        W72652  20.551  23.622   9.574
13392W        W72653  34.399  32.449  13.409
13393W        W72654  24.016  16.199   1.747
13394W        W72655  22.147  35.559   0.288
13395W        W72656   6.757   8.294  14.321
13396W        W72657   0.943  35.980   1.758
13397W        W72658   2.839  29.604   4.760
13398W        W72659   1.950   5.410  10.438
13399W        W72660  42.965  38.869  14.334
13400W        W72661  24.539  43.309  10.416
13401W        W72662   0.336   6.360  13.521
13402W        W72663  43.995  37.351  14.021
13403W        W72664  10.676   2.465   0.786
13404W        W72665  35.927   4.899   4.293
13405W        W72666  12.215  32.885   3.152
13406W        W72667   6.237  26.487   5.129
13407W        W72668  14.187   6.748  11.499
13408W        W72669   3.740  44.868  14.480
13409W        W72670   3.891  19.540   0.482
13410W        W72671  19.690   6.217   3.763
13411W        W72672  12.770   7.336   5.206
13412W        W72673  17.722  38.006   0.919
13413W        W72674  16.290  16.720   1.277
13414W        W72675  19.625  15.243  12.025
13415W        W72676  10.846  30.522   2.781
13416W        W72677  34.896  36.534   0.802
13417W        W72678  41.877  20.143   1.784
13418W        W72679  38.425   9.329   1.406
13419W        W72680  17.143  37.942   2.386
13420W        W72681  18.706  29.432   0.794
13421W        W72682  36.927  42.779   3.345
13422W        W72683   0.414  41.790   0.336
13423W        W72684  39.058   5.929  14.321
13424W        W72685  34.111  13.737  13.357
13425W        W72686  26.120  16.272   1.280
13426W        W72687  18.243  27.495   0.811
13427W        W72688  23.715  25.644  13.961
13428W        W72689  17.132  10.300  14.886
13429W        W72690  17.670  38.533  14.471
13430W        W72691  12.226  27.677  11.453
13431W        W72692   9.233  21.183  14.778
13432W        W72693  15.117  40.408  13.451
13433W        W72694  25.568  14.212   2.400
13434W        W72695  29.424  19.265   4.342
13435W        W72696   8.790  25.489   2.711
13436W        W72697  42.399  39.339  10.956
13437W        W72698  32.071   0.301  10.624
13438W        W72699  38.023  12.846   1.931
13439W        W72700  29.110   4.262  13.836
13440W        W72701  25.219  38.467  11.600
13441W        W72702   9.801   5.776   1.339
13442W        W72703  25.167  16.280  14.478
13443W        W72704  10.758   2.385   2.418
13444W        W72705  24.143  23.143   3.247
13445W        W72706  44.321  27.158   0.898
13446W        W72707  33.876  29.621  12.078
13447W        W72708   7.215  21.692   4.822
13448W        W72709  16.155  27.978  10.105
13449W        W72710  43.793  29.066   0.353
13450W        W72711  38.334  19.218   4.692
13451W        W72712  30.429   1.767  14.031
13452W        W72713  28.009   6.724   4.764
13453W        W72714   4.446   2.868   2.344
13454W        W72715  44.815  38.472   1.866
13455W        W72716  31.104  31.979   1.310
13456W        W72717  39.422  30.457   4.753
13457W        W72718  31.997  35.566   1.883
13458W        W72719  26.601   2.909  10.933
13459W        W72720  43.993   1.847  10.966
13460W        W72721   2.470  29.036  12.035
13461W        W72722  38.981  12.362  13.419
13462W        W72723  12.713   2.889   4.126
13463W        W72724  15.754  34.424  12.548
13464W        W72725   5.878   5.882  13.802
13465W        W72726  11.801  11.272   1.231
13466W        W72727   6.884  16.579  10.411
13467W        W72728   4.369   4.805   9.521
13468W        W72729  44.852  28.093   3.770
13469W        W72730  34.561  13.228  14.300
13470W        W72731  37.515  40.976   0.797
13471W        W72732  21.057   2.414   4.278
13472W        W72733   6.832  10.681   3.167
13473W        W72734   6.233  14.298  13.963
13474W        W72735  30.554  20.697  13.468
13475W        W72736  25.147  44.499   1.729
13476W        W72737  35.075  43.353   0.800
13477W        W72738  13.670  16.215  10.612
13478W        W72739  37.831  17.690  11.493
13479W        W72740   7.221  41.307  10.979
13480W        W72741   6.787   4.720  14.825
13481W        W72742  35.545  34.869   0.368
13482W        W72743   9.779  15.663  10.890
13483W        W72744  21.577   5.398   1.786
13484W        W72745  12.147  41.365  12.020
13485W        W72746  26.029  35.455   0.882
13486W        W72747   3.405  11.371  13.498
13487W        W72748  32.072  15.797  14.348
13488W        W72749  40.973  43.989   2.809
13489W        W72750  40.820  33.484  13.808
13490W        W72751  41.810  44.758   2.785
13491W        W72752  34.429  36.505   2.845
13492W        W72753  11.186  14.202   2.835
13493W        W72754  40.823  25.469  12.977
13494W        W72755  30.068  33.125   1.365
13495W        W72756   2.281   9.218   4.249
13496W        W72757  41.313  18.263  14.870
13497W        W72758   9.879  36.990   1.241
13498W        W72759  33.460  16.680   3.803
13499W        W72760  14.140  15.630  14.768
13500W        W72761  19.214  30.572  12.053
13501W        W72762  13.753  25.700   1.909
13502W        W72763  41.938  33.951   2.701
13503W        W72764  36.000  39.060   1.885
13504W        W72765  40.036  27.450   2.844
13505W        W72766  15.717  24.223  13.043
13506W        W72767  44.875  35.951   0.253
13507W        W72768  41.367   8.314  10.937
13508W        W72769  25.064  23.574   2.826
13509W        W72770  30.636  14.723  12.426
13510W        W72771   2.806  13.348   3.694
13511W        W72772  29.024  26.196  13.465
13512W        W72773  20.707  18.658   1.232
13513W        W72774  30.990  26.638  13.060
13514W        W72775  10.329   4.299   1.701
13515W        W72776   1.865  31.531   0.397
13516W        W72777  27.950  21.143   1.419
13517W        W72778  20.653  13.629  13.436
13518W        W72779  38.463  29.947  11.127
13519W        W72780  23.547  30.920   4.133
13520W        W72781  12.172  12.276  13.851
13521W        W72782  29.091  39.956   3.680
13522W        W72783  20.241   6.783   5.758
13523W        W72784  34.935  11.280   4.172
13524W        W72785  13.185   4.869  13.814
13525W        W72786  35.855  25.195   4.325
13526W        W72787  27.681  23.225  10.914
13527W        W72788  31.490   9.240   0.838
13528W        W72789  42.453  12.241   4.193
13529W        W72790   4.722  24.503  13.948
13530W        W72791  29.989   5.360  13.370
13531W        W72792  44.766  24.117   2.854
13532W        W72793   4.238  37.485   3.180
13533W        W72794  43.463   7.230  13.932
13534W        W72795  23.996  33.545   1.386
13535W        W72796  30.939  17.086  12.457
13536W        W72797   4.890  13.321   1.882
13537W        W72798   3.768   2.752   4.637
13538W        W72799   3.848   1.737  11.597
13539W        W72800  41.017  23.209  13.056
13540W        W72801  21.160  20.168   9.930
13541W        W72802  42.397  19.233   3.660
13542W        W72803   8.655  35.376  14.469
13543W        W72804  43.928  28.510   0.372
13544W        W72805  21.654  42.464  13.436
13545W        W72806  18.665  22.128  14.796
13546W        W72807  21.077   3.420  14.380
13547W        W72808  15.617  13.318   2.329
13548W        W72809  23.535  27.475  13.405
13549W        W72810  18.146  31.552   0.304
13550W        W72811   3.779  34.484   3.647
13551W        W72812  44.835  31.614   2.730
13552W        W72813  19.769  40.486  12.489
13553W        W72814  41.426   3.340  13.037
13554W        W72815  26.036  22.742  14.436
13555W        W72816   8.309   8.887  11.912
13556W        W72817  21.559  19.057   2.402
13557W        W72818  27.609   6.318   4.686
13558W        W72819   4.440  35.018   3.367
13559W        W72820  35.573   3.396  12.980
13560W        W72821  41.853  38.989  13.357
13561W        W72822  44.357  42.389   0.268
13562W        W72823   5.243   3.784   4.207
13563W        W72824  12.744  16.754  13.054
13564W        W72825  27.465  39.907  14.759
13565W        W72826  27.163  26.501  10.586
13566W        W72827  40.052   6.398  11.604
13567W        W72828  38.844  24.533  10.454
13568W        W72829  15.631  19.710   2.277
13569W        W72830   2.818  38.875  10.987
13570W        W72831  21.053  41.793  10.984
13571W        W72832  13.281   3.304   0.310
13572W        W72833  32.599   6.245   3.825
13573W        W72834  39.371   6.819  13.022
13574W        W72835  15.330   2.943   1.770
13575W        W72836  24.986   5.205   1.761
13576W        W72837  13.689  33.115  14.934
13577W        W72838   4.849  18.281  13.902
13578W        W72839   8.717  30.978  12.501
13579W        W72840  18.773   3.941  13.017
13580W        W72841  32.974  37.552  13.819
13581W        W72842  28.570  13.318   2.686
13582W        W72843  14.814  20.599   2.348
13583W        W72844  20.110  13.675  14.478
13584W        W72845  16.648  27.996  14.393
13585W        W72846  24.521  30.569   0.826
13586W        W72847  13.307  36.073  11.455
13587W        W72848  36.877   9.663   0.308
13588W        W72849  36.405  25.090  10.953
13589W        W72850  21.646  35.056  14.359
13590W        W72851  19.541  36.910  13.935
13591W        W72852   3.906  42.008   2.234
13592W        W72853  39.811  28.984  12.993
13593W        W72854  34.551  24.612  12.866
13594W        W72855  40.035  37.560   1.306
13595W        W72856   2.407  43.886   3.259
13596W        W72857  29.623  38.866  10.031
13597W        W72858  16.693  40.986   0.413
13598W        W72859  17.225  42.896  14.310
13599W        W72860  25.657  34.521   4.173
13600W        W72861  31.477   9.360   4.657
13601W        W72862  35.544  10.310  12.550
13602W        W72863   9.644   4.420   4.642
13603W        W72864  43.997  32.050  12.483
13604W        W72865  15.756   2.448  11.445
13605W        W72866  40.980   1.808   0.472
13606W        W72867  12.642  42.308  10.558
13607W        W72868  27.561  24.997   0.332
13608W        W72869  11.223   2.950  13.327
13609W        W72870  28.029  36.946   1.255
13610W        W72871  24.646  33.929  12.550
13611W        W72872  34.572  23.064  10.430
13612W        W72873  28.973  36.017  13.806
13613W        W72874  20.145  35.554  11.065
13614W        W72875  37.934  37.907  13.433
13615W        W72876  20.110  23.550  11.583
13616W        W72877  14.268  30.146  12.997
13617W        W72878  39.877   4.417   1.694
13618W        W72879  38.368  16.096   4.623
13619W        W72880  16.667  21.694   1.399
13620W        W72881  33.521  26.200  11.578
13621W        W72882  26.976  39.408   2.401
13622W        W72883  25.078  42.893  13.438
13623W        W72884   8.163  43.016  11.399
13624W        W72885  40.929   8.385   0.911
13625W        W72886   9.389  26.466  11.443
13626W        W72887  33.041  29.942  10.908
13627W        W72888   7.266   0.984   4.274
13628W        W72889  26.666  26.600   4.675
13629W        W72890  38.976   8.193  11.402
13630W        W72891   6.830  19.149  10.968
13631W        W72892  30.501  12.158   1.864
13632W        W72893  18.573  23.114  10.943
13633W        W72894  38.032  27.470  14.318
13634W        W72895  38.848  20.109  11.968
13635W        W72896  25.137   7.675  11.953
13636W        W72897   2.343  15.299  13.041
13637W        W72898   5.691   2.398   3.695
13638W        W72899  11.756  19.744  10.983
13639W        W72900   8.390  35.931   3.838
13640W        W72901   4.438  26.044  13.385
13641W        W72902  34.578  19.130   1.896
13642W        W72903  43.917  24.065   2.729
13643W        W72904  20.600  41.038   0.419
13644W        W72905   0.338  15.740   2.857
13645W        W72906  23.643  28.643  12.002
13646W        W72907  39.480  43.971  12.026
13647W        W72908   8.257  17.593   1.332
13648W        W72909  21.250   7.182  10.479
13649W        W72910  27.074  42.953   1.410
13650W        W72911  44.886   1.395   3.756
13651W        W72912  40.337  20.659  11.978
13652W        W72913  37.552  22.552  13.845
13653W        W72914  38.070  11.656   3.641
13654W        W72915  37.502  44.844   2.339
13655W        W72916  39.009  10.155   5.243
13656W        W72917   9.330  35.986   3.844
13657W        W72918  32.472  28.123  13.449
13658W        W72919  37.436   1.771  14.890
13659W        W72920   6.709  32.960   0.339
13660W        W72921  37.465  15.105  13.316
13661W        W72922  18.177  36.042   0.350
13662W        W72923  17.705  43.953  14.470
13663W        W72924  42.915  33.391  13.398
13664W        W72925  42.436  13.205   0.287
13665W        W72926  33.472  29.650  13.898
13666W        W72927  19.609  21.032   4.153
13667W        W72928  18.742  15.274   2.221
13668W        W72929  30.659  41.326  13.982
13669W        W72930  44.293   0.455  12.061
13670W        W72931   0.913   2.756   1.695
13671W        W72932  42.523  21.084   1.396
13672W        W72933   9.305  38.896  11.115
13673W        W72934  32.467  14.730  13.392
13674W        W72935   2.928  14.099   1.751
13675W        W72936  29.107   9.220   1.260
13676W        W72937   8.834  29.571   4.811
13677W        W72938  17.180   8.894   2.887
13678W        W72939  39.424  44.391  12.065
13679W        W72940  15.795  34.029   1.342
13680W        W72941  35.446  24.539  11.915
13681W        W72942  22.547   9.847   4.241
13682W        W72943  27.965  18.621   4.828
13683W        W72944  37.446   3.901   2.846
13684W        W72945   2.348  16.743  14.839
13685W        W72946   2.796  14.594   3.654
13686W        W72947  14.817  41.317  14.871
13687W        W72948  21.141  40.516   5.238
13688W        W72949   3.376  42.396  14.833
13689W        W72950  28.438  44.259  14.977
13690W        W72951  30.933  31.121   3.277
13691W        W72952  32.005  37.024   2.374
13692W        W72953   4.378  23.516   2.301
13693W        W72954   5.359  43.484   1.439
13694W        W72955  20.524   1.897  11.031
13695W        W72956  14.261  44.000  10.960
13696W        W72957   6.713  18.653  14.760
13697W        W72958  41.028  30.617  12.935
13698W        W72959  36.886  39.494   1.349
13699W        W72960  39.019  31.631   4.814
13700W        W72961   5.228   7.198   0.965
13701W        W72962  24.599   2.748  12.514
13702W        W72963  41.819  31.627  13.906
13703W        W72964  31.633  29.539  14.907
13704W        W72965   8.227  18.723  11.582
13705W        W72966  23.106  22.250   3.825
13706W        W72967  25.710  28.646   5.133
13707W        W72968  24.481  21.126  11.502
13708W        W72969   9.311  15.303   2.385
13709W        W72970  27.563  19.726   2.333
13710W        W72971  17.731  16.109  11.523
13711W        W72972   4.871   8.811   2.869
13712W        W72973   7.734   0.849  12.466
13713W        W72974   8.831  43.767  11.422
13714W        W72975  30.060  29.064  14.917
13715W        W72976  23.039   8.212   1.396
13716W        W72977   1.880   7.265   4.229
13717W        W72978  34.061  16.749   2.689
13718W        W72979  39.920  34.584   3.204
13719W        W72980  27.982  27.962  14.322
13720W        W72981  13.133  18.590   4.613
13721W        W72982  36.584   1.812  10.148
13722W        W72983  42.902  23.634  14.478
13723W        W72984   9.814  17.576   0.457
13724W        W72985  38.419  41.389   2.408
13725W        W72986  33.507  15.182   0.775
13726W        W72987   2.744  10.807   3.288
13727W        W72988  14.148  23.731   4.686
13728W        W72989  32.133  11.772  12.357
13729W        W72990  38.485  33.973   2.755
13730W        W72991  10.696  31.085   0.249
13731W        W72992   0.940  13.770  10.940
13732W        W72993  33.106  33.621   3.188
13733W        W72994  35.942  32.607   1.699
13734W        W72995  41.798  31.101  13.033
13735W        W72996  43.961   8.342   3.807
13736W        W72997  32.900  30.519  13.385
13737W        W72998  14.295  21.538   2.393
13738W        W72999  16.120  12.129   2.272
13739W        W73000  22.656  44.325  13.008
13740W        W73001  27.620  41.984   2.857
13741W        W73002   4.707  21.710   2.774
13742W        W73003   7.702  39.836   0.893
13743W        W73004  39.372  28.597   5.302
13744W        W73005   9.289   4.816  11.918
13745W        W73006  37.471  13.201   2.223
13746W        W73007  18.607  28.513  13.451
13747W        W73008   8.772   7.824  12.421
13748W        W73009  19.746  24.065   1.929
13749W        W73010  11.272  35.050   4.622
13750W        W73011  41.493   0.972  13.858
13751W        W73012  28.616  30.051   3.662
13752W        W73013   5.724  30.418   0.268
13753W        W73014  14.330   2.384   0.758
13754W        W73015   6.323  12.296   0.256
13755W        W73016  43.837  29.575   4.611
13756W        W73017  34.471   9.381   2.881
13757W        W73018   3.410   1.966  11.523
13758W        W73019  20.558  34.939   3.742
13759W        W73020  18.050  24.596   4.318
13760W        W73021  21.221  13.199  12.502
13761W        W73022  17.715   2.445  13.878
13762W        W73023  29.516  24.134  12.559
13763W        W73024  41.808   2.733  10.988
13764W        W73025   5.310  39.840  13.918
13765W        W73026  12.731   7.842   0.922
13766W        W73027  21.612  38.925   3.167
13767W        W73028  16.278  24.554   2.777
13768W        W73029  18.724  40.029   4.611
13769W        W73030   1.420  11.324   0.841
13770W        W73031  26.613  28.557  11.481
13771W        W73032  34.403  23.036   3.277
13772W        W73033  20.191  37.391  10.645
13773W        W73034  20.151  17.705  13.533
13774W        W73035  21.643  32.015   2.301
13775W        W73036   5.745  30.631   2.902
13776W        W73037   0.983  18.254  12.429
13777W        W73038   2.782  17.138   3.205
13778W        W73039   3.459  28.669  13.007
13779W        W73040  20.599  42.479   0.309
13780W        W73041   2.772  22.206   4.611
13781W        W73042   5.818  32.531  13.530
13782W        W73043  31.428   6.229   0.426
13783W        W73044  28.675  28.930  12.440
13784W        W73045   5.318  26.630  14.496
13785W        W73046   3.361  43.472   0.420
13786W        W73047  13.651  27.142   2.817
13787W        W73048  26.125  26.606  14.979
13788W        W73049  21.651  38.467  10.950
13789W        W73050   5.405   3.822   2.359
13790W        W73051  20.642  29.163   0.295
13791W        W73052   8.296  43.342   2.860
13792W        W73053  41.916  15.187   1.837
13793W        W73054  11.807  32.547  14.487
13794W        W73055   2.763   0.343   4.719
13795W        W73056  43.774  12.275   1.391
13796W        W73057  21.243  41.296   0.382
13797W        W73058  42.462  13.819  14.288
13798W        W73059   8.322  22.133  14.285
13799W        W73060  21.169   9.784  14.763
13800W        W73061  35.505  42.807  11.468
13801W        W73062   1.353  13.112  13.350
13802W        W73063  20.692  44.491   3.857
13803W        W73064   2.827  27.457   3.664
13804W        W73065  28.462  31.059  14.499
13805W        W73066  14.338  33.594   4.767
13806W        W73067  28.441  34.966   2.869
13807W        W73068  32.561  35.371  12.388
13808W        W73069  34.018  24.595   4.758
13809W        W73070  16.701  15.706   0.362
13810W        W73071   8.874  38.345   4.162
13811W        W73072   8.368   5.760  11.525
13812W        W73073  16.157  38.017   0.803
13813W        W73074   9.392  41.938   4.635
13814W        W73075  21.238  26.606  11.969
13815W        W73076   1.434  17.183   0.465
13816W        W73077  22.559   2.778   4.342
13817W        W73078  35.070   8.396   0.355
13818W        W73079  35.997   1.357   1.378
13819W        W73080  22.539  20.675   1.807
13820W        W73081  14.266  11.800   3.788
13821W        W73082  23.724  20.165  13.859
13822W        W73083  26.099  38.951  13.892
13823W        W73084  38.059  13.753   0.842
13824W        W73085  13.727   0.772  11.450
13825W        W73086   0.371  11.350  14.007
13826W        W73087  13.620  34.908  13.364
13827W        W73088  34.528  41.042   4.823
13828W        W73089  26.090  36.434  13.957
13829W        W73090  29.968   9.154  11.963
13830W        W73091  26.110  18.675  10.931
13831W        W73092  19.676  16.092   2.335
13832W        W73093  40.800  42.479  12.091
13833W        W73094  37.416   2.372  12.979
13834W        W73095  19.230  41.464   4.748
13835W        W73096  39.986  25.557   3.378
13836W        W73097  20.616  42.940  12.902
13837W        W73098  26.622  15.251  12.431
13838W        W73099  39.494  32.586  11.926
13839W        W73100  13.775  39.867  12.874
13840W        W73101  15.199   9.707  11.486
13841W        W73102  27.042  10.280  11.502
13842W        W73103  16.276  10.175  12.924
13843W        W73104  38.558  14.251   2.763
13844W        W73105  35.471  44.462   0.760
13845W        W73106  10.680   1.425  11.398
13846W        W73107  24.609   0.374   3.194
13847W        W73108  36.483  43.892  11.417
13848W        W73109  24.123  17.144   4.176
13849W        W73110  37.420  11.164   2.731
13850W        W73111  17.632  37.982   3.211
13851W        W73112  15.739  22.103   3.852
13852W        W73113  42.947  42.958   4.187
13853W        W73114  44.296  36.900  10.585
13854W        W73115  40.331  28.042   4.780
13855W        W73116  39.427  23.018   4.751
13856W        W73117  16.205  14.696   0.827
13857W        W73118  22.209  32.529   3.329
13858W        W73119  18.623  25.590   4.336
13859W        W73120  10.695  37.446   2.801
13860W        W73121  12.198  27.685  11.057
13861W        W73122   8.285  30.158  10.436
13862W        W73123  28.106   5.403  13.511
13863W        W73124  19.043  41.350  13.982
13864W        W73125   5.386   1.465   0.743
13865W        W73126  26.162  12.319   2.344
13866W        W73127  38.008  32.457  11.539
13867W        W73128  24.162  24.213   2.750
13868W        W73129  11.265  22.185  13.943
13869W        W73130  18.136  15.748   3.836
13870W        W73131  36.352  33.013   4.693
13871W        W73132  41.367  30.139   4.799
13872W        W73133  26.987  44.386   4.263
13873W        W73134  37.899  13.177  14.867
13874W        W73135  11.188   5.387   4.281
13875W        W73136  33.603  19.614   0.967
13876W        W73137  16.608   6.689   3.371
13877W        W73138  41.449  20.031  13.352
13878W        W73139   4.274  39.817  11.117
13879W        W73140  13.743  29.098  11.108
13880W        W73141  38.983  27.968  10.932
13881W        W73142  16.137  28.620   0.330
13882W        W73143   8.172  35.072   4.183
13883W        W73144  36.028   5.250   4.170
13884W        W73145  13.250  23.180   3.349
13885W        W73146   7.779  29.464  10.417
13886W        W73147  10.199  16.760  12.071
13887W        W73148  11.141  34.604   0.830
13888W        W73149  22.725  19.120  12.073
13889W        W73150  43.964  42.433  13.534
13890W        W73151  43.391  44.762   3.206
13891W        W73152  39.957  37.997   3.384
13892W        W73153  10.848  36.098   0.948
13893W        W73154  11.640  18.265  13.410
13894W        W73155  24.089  10.757  13.059
13895W        W73156  12.635  16.627   1.699
13896W        W73157  16.131  44.495  14.367
13897W        W73158  17.286   0.840  14.930
13898W        W73159  13.790  36.553   4.668
13899W        W73160  37.475  21.591   3.366
13900W        W73161   7.730   1.465  11.423
13901W        W73162   5.197   2.905   2.352
13902W        W73163  43.885   0.890   2.863
13903W        W73164  33.978   9.778   3.745
13904W        W73165  39.819   4.331   2.290
13905W        W73166  37.435  19.697  11.922
13906W        W73167  13.315  44.979  14.995
13907W        W73168  29.942  37.866   2.298
13908W        W73169  30.048  24.627  10.608
13909W        W73170  42.961   7.832   0.726
13910W        W73171   7.404  41.892  13.307
13911W        W73172  35.545  21.093   1.240
13912W        W73173  22.512   8.260  14.511
13913W        W73174  43.779  15.758   2.354
13914W        W73175   0.418  22.639  13.479
13915W        W73176  29.554  33.916  13.391
13916W        W73177   8.294  35.552   2.224
13917W        W73178  19.767  25.035   4.327
13918W        W73179  16.803  19.219   3.372
13919W        W73180  12.690  42.933   0.418
13920W        W73181   1.341   0.254   2.741
13921W        W73182  31.924  41.959   0.368
13922W        W73183   5.325  35.427   4.761
13923W        W73184  15.719  19.148   4.703
13924W        W73185   8.884  21.043   5.086
13925W        W73186  32.047  18.599  13.054
13926W        W73187  13.156   4.373  11.983
13927W        W73188  35.069  29.495  12.386
13928W        W73189   1.292  28.674  14.408
13929W        W73190  28.653  23.180  14.291
13930W        W73191  44.820   9.187   1.851
13931W        W73192  27.179  37.898  14.306
13932W        W73193  13.772  41.948  11.389
13933W        W73194  15.613   4.839  11.943
13934W        W73195  24.494  25.507   3.196
13935W        W73196  16.604   3.419   1.884
13936W        W73197  40.527  30.414  14.489
13937W        W73198  30.939  12.763   5.210
13938W        W73199  16.609   0.390  12.496
13939W        W73200   8.243   2.447  14.333
13940W        W73201  44.974  35.037   3.222
13941W        W73202   2.458  15.300  12.489
13942W        W73203  24.612  34.916   2.862
13943W        W73204  15.680  34.030   4.707
13944W        W73205   1.421   4.222   4.723
13945W        W73206  15.663  33.571   3.289
13946W        W73207  12.152  28.173   0.436
13947W        W73208  30.948  44.446  14.903
13948W        W73209   8.390  34.410  11.419
13949W        W73210   1.341  12.612   0.347
13950W        W73211  26.024   9.755   4.213
13951W        W73212  32.008  40.328  13.957
13952W        W73213  33.020   1.346   1.847
13953W        W73214   6.429  11.647   0.957
13954W        W73215  31.938  41.010  12.884
13955W        W73216  44.870  20.164   3.293
13956W        W73217  43.891   6.902  14.992
13957W        W73218  42.372  37.839  13.504
13958W        W73219  36.496  43.915  12.349
13959W        W73220  28.672  44.809  12.041
13960W        W73221  14.765   8.829  11.967
13961W        W73222  21.222  20.061  13.793
13962W        W73223  14.733  23.594   4.273
13963W        W73224  33.462   0.297  11.389
13964W        W73225  24.551  27.981   4.145
13965W        W73226  10.698   2.284   0.458
13966W        W73227  36.438   9.255   0.795
13967W        W73228  44.912  14.291  12.898
13968W        W73229  30.942  36.987   3.685
13969W        W73230  33.485  19.104   3.799
13970W        W73231  27.195  13.742  13.426
13971W        W73232  17.631  12.293   1.786
13972W        W73233  20.138  31.406  14.945
13973W        W73234   6.845  31.571   3.832
13974W        W73235  41.916  38.331  12.869
13975W        W73236  40.359   0.810   2.398
13976W        W73237  37.575  36.376  13.482
13977W        W73238   5.228  36.888  13.854
13978W        W73239   7.389   9.736   1.739
13979W        W73240  22.076  31.500  11.092
13980W        W73241  22.664  13.805  10.125
13981W        W73242  38.910   3.879   0.788
13982W        W73243   5.321  39.022   0.775
13983W        W73244  17.688  37.993   3.651
13984W        W73245  13.619  41.455  10.478
13985W        W73246  16.208  42.439  11.059
13986W        W73247  38.443   3.804   3.711
13987W        W73248   4.317  43.275   4.323
13988W        W73249  15.322  11.149   3.678
13989W        W73250   1.948  41.463   2.839
13990W        W73251  35.392  13.345   0.404
13991W        W73252  19.552  22.509  14.803
13992W        W73253   7.804  21.183  12.559
13993W        W73254  43.774  27.950  10.971
13994W        W73255  20.206  36.016  11.489
13995W        W73256  40.539  29.947  11.479
13996W        W73257   5.784  27.566  10.462
13997W        W73258   7.184  30.031  12.915
13998W        W73259   8.183  16.742   3.801
13999W        W73260  13.760  41.820  13.544
14000W        W73261  37.952   3.814   0.918
14001W        W73262  17.609   1.390   0.749
14002W        W73263  13.329   1.814   0.328
14003W        W73264   3.831  34.585  14.348
14004W        W73265   3.292  28.470  11.075
14005W        W73266  11.200  10.725  12.533
14006W        W73267  18.695  21.198  12.479
14007W        W73268   1.481  44.827   3.371
14008W        W73269  31.044  37.839  14.437
14009W        W73270  33.905   5.260   1.368
14010W        W73271  19.261  14.758   3.365
14011W        W73272  43.409  24.221  14.943
14012W        W73273  17.791  26.624  14.321
14013W        W73274  15.734   5.780  14.389
14014W        W73275  20.762  36.371  14.327
14015W        W73276   7.411  15.598   3.780
14016W        W73277  25.561  14.741   1.435
14017W        W73278   0.908   8.688  11.515
14018W        W73279  32.406  24.592  11.562
14019W        W73280   7.686  43.830   0.439
14020W        W73281  43.948  18.635   0.877
14021W        W73282   9.780   9.341  12.824
14022W        W73283   5.881  25.051  13.910
14023W        W73284  26.960  10.266  13.913
14024W        W73285   9.698   8.799  14.032
14025W        W73286   3.388  36.951   0.406
14026W        W73287  38.001   6.747   9.504
14027W        W73288  16.750  43.341  13.924
14028W        W73289  27.553  29.487   2.322
14029W        W73290  21.623  32.907   3.746
14030W        W73291  14.160  44.895  12.968
14031W        W73292  11.713  41.377  14.419
14032W        W73293   5.838  31.550  13.468
14033W        W73294  30.079  20.239   4.134
14034W        W73295   0.988   8.673  14.512
14035W        W73296  38.547  24.201  10.982
14036W        W73297  17.689  15.766  10.469
14037W        W73298  42.809  35.074  13.324
14038W        W73299  10.356  35.959   9.928
14039W        W73300  27.137  10.825  14.900
14040W        W73301   0.494  35.854  12.966
14041W        W73302  40.879  27.053   1.305
14042W        W73303  32.412  40.874   1.240
14043W        W73304  21.539  34.387  13.844
14044W        W73305   7.847  42.398  12.386
14045W        W73306  36.397  26.082  13.360
14046W        W73307  36.367  23.547   1.827
14047W        W73308  34.455   9.671   3.762
14048W        W73309  33.506  14.658  13.991
14049W        W73310  21.622   3.911   1.918
14050W        W73311  33.877   3.272  11.561
14051W        W73312  16.569  38.052   1.708
14052W        W73313   9.353  34.904  11.556
14053W        W73314  24.985  14.729   4.612
14054W        W73315  44.958  27.158   0.347
14055W        W73316  22.540  42.336   1.420
14056W        W73317  17.306  12.296  12.396
14057W        W73318  22.614   8.887  14.930
14058W        W73319  26.592  30.436   1.868
14059W        W73320  41.511  25.097   2.694
14060W        W73321  38.480  32.467   1.231
14061W        W73322  18.257  30.500   4.169
14062W        W73323   3.855  37.034  14.920
14063W        W73324  29.055  31.079   2.382
14064W        W73325  19.619   7.243  14.026
14065W        W73326  14.295  38.432  13.799
14066W        W73327  42.397   3.341  14.004
14067W        W73328  31.589  21.616  12.531
14068W        W73329  30.527   6.425   2.290
14069W        W73330   1.394  11.779   1.381
14070W        W73331  21.163   9.759   2.853
14071W        W73332  33.568  36.458   2.889
14072W        W73333  20.569  40.878   1.738
14073W        W73334  37.527  15.753  13.432
14074W        W73335   0.371  25.504  11.453
14075W        W73336   5.850  19.644  10.556
14076W        W73337  24.586  34.958   0.322
14077W        W73338  27.649  13.756  11.936
14078W        W73339  11.752  26.546   4.233
14079W        W73340  28.494  41.312  12.082
14080W        W73341  28.162  43.296   3.871
14081W        W73342  28.667   9.374  10.508
14082W        W73343  11.319  22.620  12.357
14083W        W73344  36.519  43.366   4.667
14084W        W73345  38.020  26.188  11.567
14085W        W73346  31.548  10.160  10.571
14086W        W73347  38.460  16.608   9.965
14087W        W73348  23.589  35.999   1.435
14088W        W73349  17.174  18.571  14.884
14089W        W73350  30.915  37.854   2.788
14090W        W73351  10.827  13.215  14.451
14091W        W73352  27.134  27.044  13.816
14092W        W73353  22.634  28.030  10.538
14093W        W73354   6.268  42.915  10.523
14094W        W73355  42.885  13.208  12.340
14095W        W73356   7.669  26.514  11.522
14096W        W73357  28.668  36.539  10.566
14097W        W73358   0.474  31.978   3.784
14098W        W73359  20.596  34.003  14.870
14099W        W73360  28.474   4.337   3.307
14100W        W73361  24.529  26.560   3.685
14101W        W73362  27.557  33.542   2.677
14102W        W73363  37.486  38.987  13.433
14103W        W73364  30.649  26.152  13.806
14104W        W73365  19.736  17.202  13.847
14105W        W73366   7.257   3.428   1.393
14106W        W73367   1.483  28.108   3.189
14107W        W73368  35.994   0.944   2.330
14108W        W73369  21.046  31.116  13.451
14109W        W73370   8.665  10.355   4.824
14110W        W73371   3.898  40.034   2.402
14111W        W73372   1.821  17.118  10.523
14112W        W73373  19.586  12.789  11.986
14113W        W73374   9.712  20.711  10.946
14114W        W73375  31.084  41.444  13.531
14115W        W73376  23.239  38.053   2.225
14116W        W73377   9.151  13.802  11.093
14117W        W73378  30.547  23.733  12.075
14118W        W73379   7.762  26.582   4.150
14119W        W73380  28.088  43.271  14.789
14120W        W73381  42.295   7.692   4.149
14121W        W73382  12.144  41.956   3.252
14122W        W73383  14.676   3.271   1.850
14123W        W73384   2.885  23.612   3.764
14124W        W73385  26.993  36.884  11.939
14125W        W73386  15.150   5.779  13.808
14126W        W73387  31.946  11.744  13.965
14127W        W73388  38.508  16.690  13.806
14128W        W73389  40.798   0.369  10.645
14129W        W73390  28.546  21.693  10.447
14130W        W73391  26.170  40.997  11.526
14131W        W73392  27.650  39.548   3.688
14132W        W73393  13.811   2.886   3.310
14133W        W73394  40.865  24.139   0.324
14134W        W73395   1.801  17.118  14.497
14135W        W73396  34.085   8.730  11.599
14136W        W73397   4.249  17.788   4.171
14137W        W73398  16.217  36.485   3.854
14138W        W73399   0.821   6.774  13.837
14139W        W73400  12.845   8.231  14.452
14140W        W73401  34.055  38.542  14.980
14141W        W73402  41.421   6.846  11.586
14142W        W73403  19.564   9.179   1.710
14143W        W73404  35.063  32.569  14.441
14144W        W73405  22.623  23.017  10.511
14145W        W73406  21.158  31.966  14.443
14146W        W73407  15.123   2.745   2.314
14147W        W73408  15.125  12.324  13.424
14148W        W73409  36.890  28.013  13.904
14149W        W73410  14.805  44.753   0.472
14150W        W73411  36.044  19.635  10.485
14151W        W73412   4.282   4.212  10.418
14152W        W73413  24.513   5.307   3.682
14153W        W73414  40.349   6.334  11.057
14154W        W73415  11.250  43.315   1.769
14155W        W73416  40.807   2.466   0.452
14156W        W73417  42.966   5.915  10.953
14157W        W73418  10.378  31.442  14.911
14158W        W73419  35.854  25.676   1.885
14159W        W73420  35.920  34.962  12.472
14160W        W73421   9.316  21.679   2.395
14161W        W73422  17.574  11.641   1.898
14162W        W73423  10.807  39.324   4.813
14163W        W73424  37.569  29.071  13.516
14164W        W73425  23.622  18.763   5.717
14165W        W73426   2.307  10.688   1.383
14166W        W73427  13.339  25.662  14.429
14167W        W73428  17.304  44.352  10.034
14168W        W73429  17.624  21.117  14.367
14169W        W73430  26.607  40.983  14.972
14170W        W73431  30.539   1.860  14.927
14171W        W73432  31.454  33.029  10.918
14172W        W73433  28.469  44.268  14.280
14173W        W73434   5.209  36.854  11.609
14174W        W73435   3.362  12.128   2.257
14175W        W73436  31.122  21.546  12.991
14176W        W73437   4.342   0.326  13.922
14177W        W73438  23.215  39.934  13.427
14178W        W73439  13.810  23.594   2.396
14179W        W73440  34.062   2.349   4.205
14180W        W73441  22.244  13.652   4.827
14181W        W73442  13.726  40.885   1.344
14182W        W73443  36.520  10.715  13.422
14183W        W73444   7.735  22.127  13.466
14184W        W73445  14.324  44.458  11.916
14185W        W73446  39.354   4.322  14.958
14186W        W73447  16.721   5.695  11.122
14187W        W73448  33.005  33.450  10.924
14188W        W73449   1.787  42.777   4.709
14189W        W73450  36.004  35.517  12.563
14190W        W73451  21.239  14.743   2.879
14191W        W73452  12.267  17.662  10.462
14192W        W73453   0.851  17.631  10.911
14193W        W73454  14.168  23.718  13.328
14194W        W73455  44.360  22.725   2.739
14195W        W73456  16.707  41.842   0.743
14196W        W73457  37.337  27.033  10.615
14197W        W73458  26.968  33.590  11.394
14198W        W73459   8.829  25.092   3.190
14199W        W73460  13.128  36.497  12.377
14200W        W73461  15.240   9.793  13.792
14201W        W73462  14.775  36.869   3.690
14202W        W73463   6.266   6.710   4.684
14203W        W73464  33.535  32.075  13.465
14204W        W73465  24.076  31.440  14.901
14205W        W73466  39.321  10.244   2.347
14206W        W73467  23.053  31.029   0.772
14207W        W73468  19.766   0.944  13.467
14208W        W73469   5.334  13.788  14.963
14209W        W73470  17.163  12.767  11.880
14210W        W73471  27.967  42.939  14.877
14211W        W73472  44.800  18.169   1.240
14212W        W73473   9.875  27.470   1.835
14213W        W73474   6.684  41.462   0.318
14214W        W73475  42.812  13.669   0.879
14215W        W73476  44.372  17.201  12.466
14216W        W73477  38.521  39.850  11.546
14217W        W73478  44.995  43.375   3.829
14218W        W73479  19.704  15.662   1.830
14219W        W73480   3.779   3.785   1.894
14220W        W73481   9.758  10.868   3.722
14221W        W73482  41.407  44.907   0.355
14222W        W73483   8.182  33.949   4.657
14223W        W73484  21.702  44.845   1.437
14224W        W73485   3.239  34.023   1.233
14225W        W73486  18.179  24.593   1.696
14226W        W73487  14.283  39.966  14.393
14227W        W73488  31.128   3.327  10.096
14228W        W73489  16.805   4.297  12.840
14229W        W73490  27.669  38.069   1.226
14230W        W73491  16.744  39.441   1.917
14231W        W73492  22.699  43.335   2.387
14232W        W73493  40.480   5.376  13.992
14233W        W73494  41.023  23.085   3.812
14234W        W73495  27.511  44.770   2.393
14235W        W73496  20.071  31.035   3.344
14236W        W73497  41.510  41.496   0.400
14237W        W73498   7.177  17.086   1.713
14238W        W73499  40.445  10.673  12.905
14239W        W73500  11.862  42.287  14.868
14240W        W73501  43.001  20.243  11.073
14241W        W73502  40.888  35.975   1.915
14242W        W73503   4.801  33.029   4.667
14243W        W73504  17.689  39.946  13.022
14244W        W73505  44.320   3.378  14.771
14245W        W73506  11.756  38.414   4.237
14246W        W73507   7.414  33.063   1.430
14247W        W73508  24.508   2.414   5.580
14248W        W73509   3.242  12.638   0.341
14249W        W73510  25.508  29.501  12.071
14250W        W73511  15.159  23.550   1.349
14251W        W73512   3.902  23.651   1.243
14252W        W73513  22.734   9.220  11.015
14253W        W73514  31.152   4.803  13.407
14254W        W73515  43.270  38.410   1.277
14255W        W73516  28.035  23.060  13.896
14256W        W73517   9.755  17.168   4.742
14257W        W73518  28.135   0.482   1.904
14258W        W73519  21.698   0.869   1.322
14259W        W73520  29.049  36.480  11.979
14260W        W73521  18.084  28.590  12.054
14261W        W73522   3.384  28.963  12.376
14262W        W73523   0.969  44.394  10.530
14263W        W73524   2.923  33.519  11.050
14264W        W73525  24.106  41.818  14.775
14265W        W73526   9.250  32.933  13.533
14266W        W73527   3.338  14.296   3.313
14267W        W73528  26.964  42.971  10.511
14268W        W73529  41.327   5.276   4.616
14269W        W73530  25.640  43.907  14.767
14270W        W73531  30.916  21.584  14.366
14271W        W73532  25.963  17.153   3.354
14272W        W73533   8.838  25.467   1.290
14273W        W73534  38.449   8.284  12.393
14274W        W73535  13.617   2.333  11.927
14275W        W73536  44.950  33.902   2.234
14276W        W73537  13.172  42.492   3.159
14277W        W73538  14.658  37.386   4.222
14278W        W73539  19.642  36.508  12.431
14279W        W73540  35.982  23.017   4.778
14280W        W73541  12.173  12.254   4.168
14281W        W73542  29.962  27.161  11.126
14282W        W73543  28.571  26.127  14.357
14283W        W73544  34.038   8.762   2.350
14284W        W73545  26.491  35.425  13.860
14285W        W73546  17.188  19.241   5.623
14286W        W73547  27.669  32.622  13.810
14287W        W73548  14.762  25.583   1.364
14288W        W73549  18.224   1.945  13.403
14289W        W73550  12.310  28.531   2.680
14290W        W73551  43.913  26.199  12.466
14291W        W73552  33.019  12.118   2.254
14292W        W73553  38.025  14.182  13.366
14293W        W73554  35.580  44.320   4.183
14294W        W73555  20.708   8.237   3.744
14295W        W73556  23.609  32.005   3.214
14296W        W73557  23.729  24.984  13.938
14297W        W73558   2.258  36.936   2.363
14298W        W73559  28.608   5.797  12.475
14299W        W73560  21.588   6.393  10.443
14300W        W73561  24.638   8.879   0.728
14301W        W73562  34.562  24.999   0.944
14302W        W73563   9.797  33.620  11.603
14303W        W73564  17.715  30.936   3.222
14304W        W73565   1.849  35.057  11.437
14305W        W73566  36.946  10.833  10.529
14306W        W73567  41.815  43.515   0.271
14307W        W73568  27.021   0.305  10.609
14308W        W73569  26.158  18.786   2.358
14309W        W73570  16.570  39.936   2.381
14310W        W73571  20.255  16.664   2.315
14311W        W73572  23.641  31.644   4.301
14312W        W73573   0.784  37.337  13.348
14313W        W73574  32.998  32.110  14.489
14314W        W73575  26.964  42.515   3.184
14315W        W73576  13.802   3.855   4.128
14316W        W73577  39.997  34.875   3.304
14317W        W73578  20.631  25.015  11.017
14318W        W73579   0.922  18.661  10.554
14319W        W73580  42.979   8.672   0.474
14320W        W73581   7.207  23.624   0.788
14321W        W73582  24.595  17.184  13.917
14322W        W73583  33.107  38.984  12.575
14323W        W73584  38.516  44.839  13.880
14324W        W73585   2.728   9.271  12.977
14325W        W73586  21.254  11.855   1.436
14326W        W73587  25.083  18.574   0.781
14327W        W73588  27.669  18.207   1.409
14328W        W73589   6.919  27.465   2.778
14329W        W73590  22.114  28.487   1.898
14330W        W73591  31.517  11.786  13.325
14331W        W73592  23.053  12.662   3.742
14332W        W73593   8.728  22.176   3.858
14333W        W73594   9.674  15.227  12.532
14334W        W73595  20.061  41.943   1.870
14335W        W73596  31.629  32.106  13.466
14336W        W73597  30.516  44.480  12.911
14337W        W73598  32.014   8.803   3.341
14338W        W73599  33.906  32.002  12.830
14339W        W73600   3.843  25.007   3.669
14340W        W73601   2.742  28.487  12.053
14341W        W73602  23.668  31.411   0.946
14342W        W73603  10.273  42.793  11.120
14343W        W73604  30.532  25.033  14.309
14344W        W73605  15.707  10.785   4.607
14345W        W73606  17.118  41.403  11.545
14346W        W73607  18.554  39.024   1.901
14347W        W73608  24.045  31.637  13.530
14348W        W73609  36.055  37.527  14.275
14349W        W73610  17.790   0.841  14.319
14350W        W73611  22.628  11.737  10.917
14351W        W73612   3.457  30.120  13.017
14352W        W73613  18.119  44.845  14.278
14353W        W73614   1.449  30.650   4.291
14354W        W73615  23.501  38.374  14.366
14355W        W73616  32.128  16.656   0.443
14356W        W73617   9.761  39.422  14.768
14357W        W73618   3.875  43.969   3.203
14358W        W73619  44.929  16.707   1.898
14359W        W73620  33.038  26.144  11.420
14360W        W73621   0.765  26.955  14.353
14361W        W73622  26.996   1.925  14.275
14362W        W73623  42.019  15.802   5.251
14363W        W73624  29.491   3.779   3.168
14364W        W73625  35.438  19.044   2.238
14365W        W73626  42.422   2.370  13.450
14366W        W73627  33.909  38.431  13.966
14367W        W73628   6.422   9.776  12.561
14368W        W73629  28.573  18.280  11.105
14369W        W73630  13.720  44.847  12.990
14370W        W73631  16.684   7.786   5.162
14371W        W73632  32.100  20.146   0.297
14372W        W73633  19.182  41.328   1.387
14373W        W73634   3.955  11.799  10.115
14374W        W73635  20.261  26.013   3.353
14375W        W73636  14.681  14.624  14.892
14376W        W73637  19.235  16.659  13.931
14377W        W73638  23.166  14.641  13.494
14378W        W73639   0.848  16.152   2.853
14379W        W73640  24.605  32.540   0.370
14380W        W73641  21.623  26.104  14.405
14381W        W73642   8.665  16.256  13.431
14382W        W73643  30.431  14.616   2.320
14383W        W73644  39.006  18.658   0.338
14384W        W73645   3.934  22.121   0.826
14385W        W73646   6.854   1.916  12.853
14386W        W73647  26.030  44.456  10.083
14387W        W73648  39.836  32.399   0.446
14388W        W73649  35.523  38.896   0.802
14389W        W73650  40.401   2.869  10.588
14390W        W73651  12.615  27.636   1.915
14391W        W73652  23.107  20.530  12.942
14392W        W73653  14.267  34.404  14.441
14393W        W73654  31.986   5.392   4.322
14394W        W73655  43.859  20.084  10.916
14395W        W73656   3.875  26.493   1.335
14396W        W73657   6.870   7.723  11.126
14397W        W73658  18.627  13.642   2.394
14398W        W73659  35.093  13.646   0.784
14399W        W73660   4.421   9.810   4.338
14400W        W73661  11.683  12.679  10.935
14401W        W73662   8.818  10.684   0.435
14402W        W73663  28.995  18.740  11.946
14403W        W73664  20.169  26.049  11.492
14404W        W73665   0.798  34.942  12.356
14405W        W73666  21.256  19.683   1.791
14406W        W73667  19.272  15.106  12.068
14407W        W73668  42.395  33.044  11.959
14408W        W73669  21.127  15.624   0.884
14409W        W73670  22.573  28.148  13.504
14410W        W73671  37.352  40.536   3.644
14411W        W73672  18.648  21.560  11.572
14412W        W73673  40.543  39.959  12.501
14413W        W73674  19.108  25.162  11.860
14414W        W73675   2.862  23.029   3.648
14415W        W73676  44.270  28.516  12.001
14416W        W73677  29.599  38.466  12.350
14417W        W73678  36.578   1.733   1.888
14418W        W73679  27.060  28.460  14.415
14419W        W73680   8.190  15.712  14.961
14420W        W73681  38.868  30.912  11.408
14421W        W73682  25.964  18.608   3.175
14422W        W73683  29.471  17.304  14.793
14423W        W73684  15.614   2.861   5.635
14424W        W73685   3.421  20.236   1.768
14425W        W73686  37.050  41.532   2.804
14426W        W73687  30.113  21.073   1.841
14427W        W73688  19.595  18.748   3.291
14428W        W73689  38.327  24.697   3.786
14429W        W73690  32.925  39.384  14.856
14430W        W73691  35.374  15.261  13.827
14431W        W73692   2.763  27.982  14.374
14432W        W73693   6.190   6.695  10.526
14433W        W73694  27.115  29.526   4.713
14434W        W73695  24.630  20.571  12.851
14435W        W73696  18.102  37.481  13.343
14436W        W73697   7.849  40.334   2.328
14437W        W73698  31.505  41.527   3.826
14438W        W73699   0.866  24.057  11.969
14439W        W73700  11.695  31.560   4.155
14440W        W73701  41.420  28.477  10.507
14441W        W73702  31.561  22.630   0.284
14442W        W73703  37.857  33.508  11.548
14443W        W73704  21.556  16.278   2.215
14444W        W73705  32.545  19.603   0.966
14445W        W73706   6.736  37.946   0.380
14446W        W73707  18.205  31.438   1.244
14447W        W73708  37.518  28.011   3.775
14448W        W73709  10.850   3.252  12.387
14449W        W73710  27.620   8.259   0.830
14450W        W73711  31.506  21.543   4.689
14451W        W73712  22.187  34.478   2.376
14452W        W73713   1.817  29.581  11.021
14453W        W73714  18.675  36.046  12.452
14454W        W73715   4.780   8.843   1.346
14455W        W73716  33.563  13.283   3.235
14456W        W73717  12.749  33.460  13.903
14457W        W73718  19.545  13.700  10.908
14458W        W73719   1.746  12.749   2.198
14459W        W73720   3.800  37.392   2.255
14460W        W73721  16.127   9.787  11.009
14461W        W73722  34.561   0.767  10.557
14462W        W73723  13.322  33.057  12.534
14463W        W73724  44.486   3.290   3.709
14464W        W73725  33.123  22.539   0.367
14465W        W73726  29.625   1.825  10.486
14466W        W73727   2.951  20.524  13.793
14467W        W73728  12.224  27.027   1.412
14468W        W73729  41.926   8.247  14.473
14469W        W73730   6.263   9.645  14.331
14470W        W73731  13.692   3.364  11.042
14471W        W73732  39.906   7.302  11.426
14472W        W73733  19.105  13.693  12.917
14473W        W73734  29.030   7.370  11.562
14474W        W73735  32.001   3.396   3.631
14475W        W73736   5.912   0.819  11.120
14476W        W73737  14.663  38.979  10.960
14477W        W73738  22.174   5.293  13.481
14478W        W73739   8.890  44.962   0.349
14479W        W73740  33.455   5.915  10.118
14480W        W73741  32.505  33.479  13.421
14481W        W73742  38.006  24.050  11.050
14482W        W73743  35.069  43.497   3.838
14483W        W73744  19.736   6.841  12.485
14484W        W73745  24.210  40.390   0.908
14485W        W73746   6.711  39.857  11.079
14486W        W73747  13.811  13.208  13.445
14487W        W73748  41.532  15.263  14.767
14488W        W73749  35.493  43.962   0.245
14489W        W73750  15.286  27.622  11.925
14490W        W73751  39.415  37.520   3.149
14491W        W73752  32.475  37.494  10.014
14492W        W73753  30.437  34.072   3.827
14493W        W73754  38.042  44.361  14.803
14494W        W73755   9.360  13.803  14.389
14495W        W73756  39.544   2.925   4.725
14496W        W73757  29.984   2.782   2.778
14497W        W73758   8.310  33.621   1.340
14498W        W73759  24.583  26.475   5.275
14499W        W73760  28.521  21.153   4.303
14500W        W73761  20.549  31.136   2.808
14501W        W73762  19.168  25.563  10.984
14502W        W73763   2.825   9.663   2.316
14503W        W73764  38.850  11.309   1.393
14504W        W73765  10.774   8.815  14.436
14505W        W73766  16.578  18.596  13.998
14506W        W73767   7.686   9.303  11.862
14507W        W73768  30.428  24.565  10.435
14508W        W73769  31.575  34.879  14.441
14509W        W73770  22.672  35.598   0.951
14510W        W73771   2.412  33.406   1.405
14511W        W73772  41.312   5.803  13.476
14512W        W73773  20.195  41.008   0.268
14513W        W73774   0.446  34.981   2.875
14514W        W73775  11.191  16.274  13.324
14515W        W73776  30.551   3.447  14.004
14516W        W73777  22.584   2.875  11.918
14517W        W73778   9.830  34.604  11.863
14518W        W73779   7.768  27.029  13.861
14519W        W73780  26.498   5.225   3.809
14520W        W73781  13.780  12.664  10.979
14521W        W73782  11.140  29.067   3.329
14522W        W73783  19.562  34.532   1.723
14523W        W73784  38.055  12.623  10.584
14524W        W73785  31.616  37.455  10.607
14525W        W73786  26.188  26.036  14.386
14526W        W73787  10.640  16.731   4.136
14527W        W73788  42.776  39.552  14.973
14528W        W73789  30.112  18.567   1.284
14529W        W73790  16.247  29.049   3.830
14530W        W73791  17.243  11.141   2.762
14531W        W73792  13.239  35.906   2.665
14532W        W73793  34.487   7.390   4.713
14533W        W73794  19.625  21.729   9.628
14534W        W73795  41.042  31.583  14.969
14535W        W73796  36.981  42.799   0.454
14536W        W73797  16.147  38.963   4.260
14537W        W73798  36.936  44.282   2.238
14538W        W73799   5.911  19.177  13.989
14539W        W73800  19.731  10.210   3.161
14540W        W73801  21.659  25.544   0.354
14541W        W73802   5.439  44.870   3.825
14542W        W73803  39.032  34.016  10.471
14543W        W73804  17.234   2.245  12.375
14544W        W73805  15.791   9.775  14.003
14545W        W73806  42.288   0.869  12.973
14546W        W73807  35.381   6.817   3.717
14547W        W73808   8.819  38.824  13.541
14548W        W73809  40.486  27.618  10.986
14549W        W73810  37.068   3.878  12.882
14550W        W73811  18.702  19.614  13.062
14551W        W73812   8.813  26.465   0.259
14552W        W73813   0.316  11.256  14.932
14553W        W73814  26.475  23.703  10.975
14554W        W73815  25.998  38.330  11.521
14555W        W73816  23.097  35.516  13.023
14556W        W73817   1.245  42.285   2.377
14557W        W73818   4.905  26.636  10.439
14558W        W73819  42.898   2.791   1.272
14559W        W73820  44.924  38.523   2.794
14560W        W73821   9.875  11.143  13.988
14561W        W73822  22.037  14.645   2.182
14562W        W73823   4.861  21.227   1.412
14563W        W73824  32.131  16.142  12.448
14564W        W73825  29.050  21.734  10.987
14565W        W73826  38.326  11.649  10.492
14566W        W73827  43.896  29.575  14.983
14567W        W73828   3.382  10.209  11.975
14568W        W73829   7.847   6.331  10.523
14569W        W73830  36.417  37.500  13.413
14570W        W73831  27.539  35.376  13.912
14571W        W73832  31.949  11.834   4.718
14572W        W73833  23.536  34.466  12.412
14573W        W73834  43.821   7.297  11.079
14574W        W73835   7.753  17.797  14.491
14575W        W73836  35.944   9.886   0.892
14576W        W73837  38.483  12.839  10.924
14577W        W73838   9.389  36.893  11.934
14578W        W73839  25.569  40.980  11.962
14579W        W73840  13.279  18.610   1.234
14580W        W73841  26.663  36.909   2.880
14581W        W73842  14.621  16.614  11.435
14582W        W73843  10.382  26.626   4.836
14583W        W73844  15.676  25.676   2.198
14584W        W73845  29.002  22.221  10.984
14585W        W73846  33.974   9.867  10.010
14586W        W73847   6.299  28.107   0.425
14587W        W73848   8.782  26.064  11.472
14588W        W73849  43.383  32.994  12.955
14589W        W73850  27.515  20.249  14.299
14590W        W73851  28.987   7.683  10.458
14591W        W73852  14.257  11.825   1.742
14592W        W73853  40.950  31.039   1.241
14593W        W73854   0.881  39.892   3.380
14594W        W73855  17.281  44.946   2.372
14595W        W73856  15.622  24.183  13.856
14596W        W73857  40.916   7.886   3.371
14597W        W73858  15.632  43.942   3.709
14598W        W73859   3.909  16.656  13.889
14599W        W73860  15.699  10.703  10.998
14600W        W73861  29.956   3.341   9.640
14601W        W73862  41.340   4.448  10.430
14602W        W73863   2.926  13.164   4.781
14603W        W73864  37.961   1.974   1.447
14604W        W73865  38.877   1.348  12.513
14605W        W73866  18.157  18.612   4.805
14606W        W73867  29.969  36.004  14.777
14607W        W73868  14.816   0.431  11.393
14608W        W73869  16.279  26.088  10.541
14609W        W73870  30.990  11.769   3.161
14610W        W73871  39.339  11.277   4.343
14611W        W73872  15.823  28.024  12.066
14612W        W73873   3.932  43.318  14.002
14613W        W73874  35.965  31.120   0.868
14614W        W73875  14.767   4.353  14.345
14615W        W73876   0.452   0.949  14.777
14616W        W73877  23.550   2.830  13.014
14617W        W73878   5.387  13.761  14.409
14618W        W73879  38.450  21.622   0.310
14619W        W73880  42.899   4.850  12.391
14620W        W73881  14.264   6.689   3.232
14621W        W73882  13.267   1.342  10.961
14622W        W73883  20.743  11.221   2.343
14623W        W73884   3.246  39.445   3.761
14624W        W73885   6.206  12.827   3.680
14625W        W73886  27.657  36.896  14.367
14626W        W73887  28.612  26.573  13.037
14627W        W73888  19.628  44.900   3.370
14628W        W73889  26.599  19.282   2.355
14629W        W73890  12.342  44.423  11.950
14630W        W73891   2.923  19.170   0.771
14631W        W73892  14.104  14.794   0.775
14632W        W73893  10.285  30.112  14.945
14633W        W73894  38.903  11.826  11.539
14634W        W73895  29.616  17.673  11.420
14635W        W73896  25.695  43.776   3.827
14636W        W73897  23.714  35.399  13.989
14637W        W73898  43.336  17.763  14.767
14638W        W73899  40.448  19.613  14.946
14639W        W73900   6.731  19.273   2.789
14640W        W73901   4.844  19.779  10.548
14641W        W73902  38.511  12.847  13.529
14642W        W73903   0.439   1.372  13.363
14643W        W73904  39.511  14.216   4.799
14644W        W73905  33.572   9.715   2.835
14645W        W73906  25.686  42.915  13.928
14646W        W73907  11.721   9.842  10.420
14647W        W73908   1.366   4.444  11.602
14648W        W73909  15.174  10.760   0.775
14649W        W73910  14.601  44.412  10.460
14650W        W73911  22.686   6.282  11.607
14651W        W73912  17.735  35.439  13.384
14652W        W73913  28.964  35.094   3.366
14653W        W73914  17.590   8.406   3.348
14654W        W73915  13.821  30.945   2.818
14655W        W73916  33.099  17.793  10.608
14656W        W73917  14.741  41.377   3.364
14657W        W73918  42.799  11.864  14.382
14658W        W73919  13.778  32.509   2.201
14659W        W73920  17.683  28.532  14.817
14660W        W73921  21.700  26.195  14.992
14661W        W73922  11.648   5.821   1.718
14662W        W73923  44.504  13.350  10.933
14663W        W73924   0.327  44.371  14.276
14664W        W73925   1.466   1.898  14.274
14665W        W73926  38.857  24.217  14.820
14666W        W73927  39.835   0.756   0.945
14667W        W73928  32.898   8.174   2.236
14668W        W73929  19.193  32.948  14.997
14669W        W73930  25.473   7.774  12.083
14670W        W73931  30.640  38.546   1.836
14671W        W73932  43.928  10.379   1.374
14672W        W73933  36.544  40.893   0.895
14673W        W73934   8.344  38.403  11.040
14674W        W73935   8.784  22.048  12.013
14675W        W73936  42.937  23.636   2.275
14676W        W73937  14.804  21.129   2.197
14677W        W73938   6.800  44.977   0.386
14678W        W73939  42.934   2.240  12.833
14679W        W73940  23.657   5.743   1.770
14680W        W73941  15.308   3.423   2.845
14681W        W73942  41.878  19.123  14.030
14682W        W73943   9.250  32.941   3.249
14683W        W73944   5.288  24.209  10.432
14684W        W73945  38.408  21.228  11.040
14685W        W73946  21.232  14.300   2.314
14686W        W73947  12.752  37.554   4.315
14687W        W73948  29.119  35.445  14.888
14688W        W73949  10.876  17.116  13.318
14689W        W73950   0.312  20.204   2.806
14690W        W73951  15.275   2.934   3.718
14691W        W73952  25.678   6.361  14.379
14692W        W73953  37.887  26.665   1.735
14693W        W73954   7.876   5.336   3.642
14694W        W73955   0.845  23.054   1.872
14695W        W73956  14.332  44.494   2.712
14696W        W73957  10.220  34.924   4.282
14697W        W73958  23.677  31.641   2.881
14698W        W73959  43.996  13.835  11.961
14699W        W73960  31.947  12.153  10.032
14700W        W73961  23.513  42.509   2.728
14701W        W73962  34.902  29.077   0.790
14702W        W73963  29.533   9.824  13.338
14703W        W73964   7.891  26.146  11.999
14704W        W73965  29.653  19.676  13.462
14705W        W73966  22.032  31.024   3.259
14706W        W73967  34.865  17.174   3.756
14707W        W73968  40.003  19.137  14.456
14708W        W73969  10.745  44.282  11.022
14709W        W73970  12.853   2.722  13.970
14710W        W73971  33.555  21.107   4.774
14711W        W73972   4.885   4.813  14.883
14712W        W73973  30.483  34.021  14.503
14713W        W73974  23.150  14.835   2.358
14714W        W73975  34.400  42.359   0.395
14715W        W73976  34.583  33.440   0.960
14716W        W73977  43.856  27.587   2.814
14717W        W73978  14.762  44.903   1.300
14718W        W73979   0.482  17.237   1.260
14719W        W73980  19.538  36.582   3.844
14720W        W73981  12.175  28.451  10.460
14721W        W73982   4.743  35.010   4.240
14722W        W73983   6.392  24.711   3.332
14723W        W73984  10.646  28.014  10.540
14724W        W73985  25.138  35.985   3.754
14725W        W73986  18.719  25.552   3.862
14726W        W73987  44.942  21.126  10.570
14727W        W73988  14.666  35.990   3.837
14728W        W73989  36.438  32.507  13.366
14729W        W73990  38.985  38.881   3.367
14730W        W73991   1.294  38.833   0.894
14731W        W73992  27.070  42.424   1.425
14732W        W73993   0.260  27.046  12.575
14733W        W73994  40.336  28.477  14.401
14734W        W73995  12.307   1.864  14.361
14735W        W73996   9.804  43.893   3.640
14736W        W73997  14.277  22.575   4.297
14737W        W73998  16.082  29.074  14.856
14738W        W73999  43.378  27.076  11.094
14739W        W74000  44.495  12.221  14.872
14740W        W74001  33.909  26.951   2.217
14741W        W74002  35.499  41.980  13.832
14742W        W74003  31.100  30.060  14.883
14743W        W74004  22.555   2.775  14.023
14744W        W74005  26.103  22.238  13.977
14745W        W74006  32.048  20.089   4.300
14746W        W74007  19.184  30.422   4.202
14747W        W74008   3.753   3.389   4.244
14748W        W74009   0.754  18.283  13.951
14749W        W74010  17.135   7.250   4.216
14750W        W74011  42.323  43.964  13.811
14751W        W74012  29.937  26.131  14.018
14752W        W74013  15.583  39.893   2.397
14753W        W74014  41.912   6.197  11.532
14754W        W74015  30.941   3.311   1.319
14755W        W74016   1.882  11.659   4.710
14756W        W74017  26.683  12.353  13.395
14757W        W74018  19.711  29.433  14.939
14758W        W74019  23.987  13.689   2.240
14759W        W74020  10.648   2.283   4.354
14760W        W74021  16.304  27.118  11.559
14761W        W74022  39.479  12.252  13.458
14762W        W74023  10.333  37.085  13.406
14763W        W74024  15.598   7.740   0.946
14764W        W74025  42.502   4.337   1.801
14765W        W74026  36.948  14.694  12.039
14766W        W74027  17.651   9.184  14.402
14767W        W74028  43.343  36.890  12.064
14768W        W74029  22.141  27.987   0.443
14769W        W74030  29.506   3.879   0.381
14770W        W74031  16.615  37.977   2.859
14771W        W74032   0.970  23.040  11.044
14772W        W74033   2.727  23.684  11.860
14773W        W74034  25.002  32.549  13.377
14774W        W74035  42.951   8.339   4.305
14775W        W74036  31.074   4.388  11.602
14776W        W74037  39.393  38.991   0.447
14777W        W74038   3.328  11.140   1.243
14778W        W74039  39.866  25.701  14.482
14779W        W74040   3.798  36.540   2.753
14780W        W74041  24.026  12.286  14.315
14781W        W74042   3.348   6.413  11.081
14782W        W74043  19.751   8.797  12.369
14783W        W74044   2.730  43.847  13.493
14784W        W74045   4.792  24.486  12.568
14785W        W74046  34.909  16.731   3.230
14786W        W74047  30.139  13.270  14.945
14787W        W74048   5.928  38.563   0.890
14788W        W74049  26.464  31.986   2.229
14789W        W74050  18.653  16.083   2.663
14790W        W74051  33.564  32.569  10.600
14791W        W74052  37.927  42.847   3.792
14792W        W74053   6.287  33.539  10.984
14793W        W74054  22.524  24.082   0.864
14794W        W74055  20.196  24.703  12.911
14795W        W74056  13.707   1.476   2.758
14796W        W74057   8.788   2.850  12.053
14797W        W74058  28.498  24.649  13.420
14798W        W74059  10.300   6.697   1.824
14799W        W74060  33.446  35.573  10.586
14800W        W74061  19.109  37.406  14.357
14801W        W74062   2.426  41.440   3.669
14802W        W74063  31.046  16.566  12.833
14803W        W74064  20.105  26.622  11.442
14804W        W74065  25.136  42.934   3.178
14805W        W74066  19.094  16.204   2.780
14806W        W74067   1.911   9.816   4.180
14807W        W74068  19.094   9.361   1.253
14808W        W74069  19.770  16.161   2.706
14809W        W74070  19.645  11.655  10.632
14810W        W74071  28.540  33.943   5.184
14811W        W74072  37.071  26.611  10.617
14812W        W74073  42.851  35.508  12.033
14813W        W74074  22.628  31.144   4.682
14814W        W74075  15.633  30.047  13.005
14815W        W74076  43.856  41.841   0.736
14816W        W74077  13.829   8.700   1.699
14817W        W74078  27.620  44.003  14.307
14818W        W74079  32.044  18.744   3.790
14819W        W74080  44.879   3.278   2.832
14820W        W74081  37.548  32.969   4.302
14821W        W74082   2.370  35.370   1.264
14822W        W74083   2.793  12.633  14.443
14823W        W74084  41.030  16.192   1.358
14824W        W74085  37.016  19.189   1.262
14825W        W74086  22.040  42.514  14.467
14826W        W74087  32.538  27.638  14.417
14827W        W74088  44.001  39.355   3.866
14828W        W74089  28.073   9.868  14.376
14829W        W74090  40.526  12.723   2.819
14830W        W74091  18.690  37.866   4.251
14831W        W74092   1.890   1.249  13.955
14832W        W74093  17.677  18.549   1.839
14833W        W74094  26.532  22.541   2.197
14834W        W74095  13.232  25.091   3.191
14835W        W74096   3.932  42.481  11.492
14836W        W74097  15.163  38.535  10.492
14837W        W74098  13.823   5.324   1.363
14838W        W74099   7.862  15.814  13.982
14839W        W74100  19.190  17.569  13.015
14840W        W74101  27.655  12.306   2.736
14841W        W74102  33.920  36.061  12.526
14842W        W74103  26.010  10.870  14.912
14843W        W74104  33.420  12.710   0.441
14844W        W74105  34.979  12.169  11.912
14845W        W74106  17.703  28.667  11.473
14846W        W74107   2.745   8.829  13.918
14847W        W74108  30.634  19.043   0.421
14848W        W74109   3.797   1.305   2.183
14849W        W74110  30.058   1.930  14.491
14850W        W74111  22.568  38.448   3.310
14851W        W74112  13.181   4.813  10.895
14852W        W74113  25.539  40.883   3.635
14853W        W74114  21.085  13.321   5.304
14854W        W74115  18.616   4.410  11.075
14855W        W74116   5.885  42.867   3.745
14856W        W74117  19.640  41.449  14.874
14857W        W74118   1.256  43.496   2.201
14858W        W74119  10.817  35.075  11.061
14859W        W74120  20.191  35.381  11.983
14860W        W74121  34.435  16.087  14.393
14861W        W74122  34.397  13.293   3.721
14862W        W74123  25.209   2.758  12.497
14863W        W74124   0.867  44.916  14.483
14864W        W74125  28.145  25.033  12.065
14865W        W74126  15.579  32.509  12.407
14866W        W74127  42.945  28.037  13.509
14867W        W74128  40.361   1.474   0.934
14868W        W74129  26.003  40.475   1.792
14869W        W74130  19.101  11.277   0.804
14870W        W74131  25.561  16.633   3.733
14871W        W74132  14.184  17.278   2.375
14872W        W74133  42.000  11.303   1.227
14873W        W74134  19.279  16.074   3.744
14874W        W74135  21.069  13.782   1.734
14875W        W74136  33.562   8.373  12.375
14876W        W74137  14.666   3.869   3.670
14877W        W74138  44.347   4.396   4.657
14878W        W74139  29.670  22.183   0.289
14879W        W74140  27.049  40.349  10.542
14880W        W74141   0.280   2.924  12.018
14881W        W74142  22.173  18.191   2.724
14882W        W74143   3.850  38.977   2.867
14883W        W74144   7.304  30.087   4.822
14884W        W74145   3.889   0.778  14.967
14885W        W74146  19.222   2.265   1.706
14886W        W74147  36.507   0.339  12.501
14887W        W74148   9.305  34.380   2.384
14888W        W74149  36.487  37.833  10.450
14889W        W74150   2.785  23.047  10.953
14890W        W74151  36.456  41.892  12.080
14891W        W74152  13.826  44.393   4.157
14892W        W74153  11.146  34.599   2.254
14893W        W74154  35.863   1.373   3.839
14894W        W74155   3.752  14.698   0.948
14895W        W74156   0.811   3.240  12.997
14896W        W74157  17.179  35.602  11.475
14897W        W74158  40.881  40.417  14.876
14898W        W74159  12.349  37.036   3.328
14899W        W74160   4.845   4.824  13.977
14900W        W74161  35.037  30.592   2.385
14901W        W74162  13.181   3.843   2.693
14902W        W74163  34.043  20.138  12.088
14903W        W74164  21.651  24.148   2.414
14904W        W74165  37.442   4.207  14.881
14905W        W74166  44.359  40.872  10.416
14906W        W74167  17.272  15.638  10.410
14907W        W74168  36.072  33.128   4.319
14908W        W74169  14.200   7.747   2.292
14909W        W74170  28.567  16.609  13.790
14910W        W74171  11.685  37.980  13.938
14911W        W74172  41.458  35.064   0.421
14912W        W74173  44.326   7.839  10.069
14913W        W74174  18.564  17.621  12.919
14914W        W74175  19.068   6.385  11.920
14915W        W74176  12.320  43.958  14.846
14916W        W74177  17.572  13.239   1.809
14917W        W74178  35.546  40.005  11.899
14918W        W74179   6.284  23.057  11.605
14919W        W74180  25.018   6.295  11.610
14920W        W74181  40.363  36.055  14.031
14921W        W74182  42.493  24.641  14.295
14922W        W74183  43.511  32.067   0.766
14923W        W74184  23.064  37.914   4.677
14924W        W74185   2.865  17.118  14.805
14925W        W74186  33.076  29.974   1.749
14926W        W74187  23.574  28.982  11.072
14927W        W74188   9.865   9.321   3.837
14928W        W74189  40.873  23.579   0.784
14929W        W74190   0.797  20.613   1.407
14930W        W74191  26.545  16.235  12.341
14931W        W74192  30.025  13.622   3.369
14932W        W74193  30.037  14.282   4.818
14933W        W74194   4.251  42.806  10.428
14934W        W74195  29.478  43.835   1.402
14935W        W74196  27.576  14.129  12.545
14936W        W74197  42.909   1.962  13.332
14937W        W74198  29.493  30.058   3.801
14938W        W74199  44.819  30.022   0.824
14939W        W74200  33.072  35.580  13.311
14940W        W74201  21.237  13.232  11.942
14941W        W74202   9.387  17.777   2.383
14942W        W74203  21.149  17.105   1.793
14943W        W74204  31.623  38.509  14.018
14944W        W74205  16.616   5.834  12.359
14945W        W74206  34.606  21.614  13.511
14946W        W74207  40.958  30.002   4.758
14947W        W74208   7.267  39.418  10.572
14948W        W74209  36.090  21.629  12.859
14949W        W74210  20.102  28.031  11.014
14950W        W74211  18.636  40.890   2.737
14951W        W74212  34.568  41.004   2.847
14952W        W74213  35.040   2.961  11.902
14953W        W74214  20.109  28.518  12.545
14954W        W74215  36.874  24.135  13.430
14955W        W74216   5.321   7.700   4.751
14956W        W74217  37.351  20.068   3.671
14957W        W74218   4.724  12.630   3.373
14958W        W74219  39.913  13.680  12.565
14959W        W74220  31.456  16.738   3.694
14960W        W74221  37.546  24.667  14.410
14961W        W74222   9.729  26.204   2.849
14962W        W74223  37.007  14.749  12.454
14963W        W74224   4.450   0.743  10.645
14964W        W74225  43.281  40.367   2.417
14965W        W74226  35.873   2.752   4.303
14966W        W74227  39.366  44.971   4.138
14967W        W74228   0.475   8.363   4.801
14968W        W74229  36.033  21.138   4.299
14969W        W74230  44.309  20.219   2.765
14970W        W74231  35.071  32.031   5.121
14971W        W74232  25.037  26.695   4.744
14972W        W74233   1.461  33.892   1.433
14973W        W74234  13.170  17.132   5.163
14974W        W74235  17.601  40.961   3.728
14975W        W74236  17.154   2.403  13.823
14976W        W74237  25.498  38.413   0.441
14977W        W74238  21.653  28.654   2.196
14978W        W74239  28.931  37.966   1.306
14979W        W74240   0.755   3.911   1.269
14980W        W74241  37.971  35.032  11.990
14981W        W74242  14.308  44.803  13.943
14982W        W74243  11.203  11.708  11.941
14983W        W74244  15.784   4.824  13.832
14984W        W74245  14.751   7.910  13.404
14985W        W74246  39.930   9.358   1.364
14986W        W74247  29.134  32.139   0.864
14987W        W74248  29.616  30.135  10.437
14988W        W74249   3.267  25.134  12.894
14989W        W74250  26.606  36.888   1.272
14990W        W74251  35.897  13.121  12.401
14991W        W74252  12.274  19.113   0.406
14992W        W74253  21.707  28.648   3.795
14993W        W74254  28.086   6.704  14.974
14994W        W74255   0.795  35.373   2.862
14995W        W74256   4.916  15.731   3.651
14996W        W74257  35.067   5.802   4.804
14997W        W74258  15.089  41.031  14.357
14998W        W74259  25.487  44.945  12.046
14999W        W74260  13.677  20.171  10.584
15000W        W74261  39.539  28.142  12.081
15001W        W74262   5.761  23.662  12.469
15002W        W74263   4.860  12.676  12.577
15003W        W74264   7.241  12.202   2.845
15004W        W74265  36.383   3.811   2.323
15005W        W74266  34.956  43.873   2.844
15006W        W74267  43.492   0.823   2.314
15007W        W74268  40.899  25.509   0.846
15008W        W74269  17.091   1.931   5.205
15009W        W74270  39.036  18.136   0.759
15010W        W74271  15.665   1.974  11.508
15011W        W74272   0.258   8.377   0.762
15012W        W74273   9.841  19.602   1.439
15013W        W74274  13.207  42.916   0.907
15014W        W74275  28.668  41.007  11.537
15015W        W74276   9.394  27.039  11.124
15016W        W74277  39.040   8.747  14.492
15017W        W74278  24.188  36.426   0.302
15018W        W74279  15.314  20.247   4.267
15019W        W74280  30.570  12.297  12.402
15020W        W74281  21.636  43.402  10.515
15021W        W74282   1.253   0.775  14.876
15022W        W74283  17.758  12.186  14.779
15023W        W74284   0.778  19.665   1.341
15024W        W74285  44.871  31.433   4.222
15025W        W74286  17.576  42.481   3.146
15026W        W74287  12.188   0.856  10.971
15027W        W74288  27.950   3.766  10.993
15028W        W74289  10.727   2.253  11.442
15029W        W74290  43.860  24.518   3.791
15030W        W74291  11.367  17.091  14.401
15031W        W74292  41.531  43.893  10.542
15032W        W74293   2.821  41.292  13.380
15033W        W74294  24.044  10.318  14.003
15034W        W74295  25.973   4.862  14.933
15035W        W74296  43.906  20.250  11.488
15036W        W74297  25.678  16.667  13.861
15037W        W74298  41.885  31.508   0.310
15038W        W74299   5.439  34.517  14.358
15039W        W74300   5.422  15.188  13.383
15040W        W74301   2.294   5.248   0.440
15041W        W74302   4.788  12.753  10.105
15042W        W74303  30.992  19.131  10.902
15043W        W74304  35.537  10.349  14.429
15044W        W74305  34.505   5.290   4.247
15045W        W74306  26.163  14.330  10.591
15046W        W74307  21.045  36.064   2.251
15047W        W74308  22.060  17.624  12.073
15048W        W74309  33.897  34.512  11.544
15049W        W74310   5.362  10.809  11.865
15050W        W74311  26.180  21.567  11.897
15051W        W74312   3.868   9.880  14.815
15052W        W74313  17.271   9.295  12.965
15053W        W74314  38.878  24.001   0.317
15054W        W74315  43.895  30.118   1.821
15055W        W74316   8.174  29.632  12.359
15056W        W74317  36.431  13.802  14.331
15057W        W74318  33.474   3.902   1.820
15058W        W74319  33.997  10.766   0.826
15059W        W74320  15.170  18.657   4.272
15060W        W74321  40.342  23.137  13.837
15061W        W74322  36.496  11.816  10.463
15062W        W74323   4.833  28.516  10.590
15063W        W74324  27.498  20.592   3.188
15064W        W74325  40.922  27.596   9.988
15065W        W74326   7.346  43.860  12.060
15066W        W74327  26.992  38.912  11.124
15067W        W74328   3.318  37.488  13.968
15068W        W74329  34.900  19.736  13.884
15069W        W74330  43.860  34.515  12.462
15070W        W74331  33.621   4.723   3.300
15071W        W74332   4.762  14.816   3.803
15072W        W74333   5.250  31.595  12.056
15073W        W74334  40.343   4.866   5.304
15074W        W74335  17.689   8.827  13.850
15075W        W74336  23.540  18.220   9.924
15076W        W74337  26.651  44.864  14.871
15077W        W74338  13.699   5.241   2.272
15078W        W74339  26.014  23.736  11.988
15079W        W74340  22.543  20.556  13.440
15080W        W74341   6.373  37.481  11.997
15081W        W74342   6.286  12.321   0.892
15082W        W74343   9.877  42.858   3.317
15083W        W74344  38.978   6.187   2.187
15084W        W74345   0.452  19.718  11.880
15085W        W74346  24.075  18.764   1.347
15086W        W74347  15.112  34.896   1.772
15087W        W74348  19.085  30.418  14.307
15088W        W74349  40.379   9.716   3.279
15089W        W74350  40.911   5.875  13.535
15090W        W74351  32.503  18.575   3.184
15091W        W74352  17.739  26.561   2.345
15092W        W74353  30.952  13.819  11.923
15093W        W74354  44.485  25.141  12.405
15094W        W74355  34.931  36.572   2.756
15095W        W74356  24.593  21.184   1.373
15096W        W74357  25.583   0.892   2.390
15097W        W74358  33.435  32.124   3.211
15098W        W74359  18.058  12.748   2.263
15099W        W74360  39.496   4.810  11.463
15100W        W74361  10.838  24.143  13.855
15101W        W74362   8.837  41.924  13.404
15102W        W74363  35.920  29.605  11.002
15103W        W74364  31.441  35.093   2.777
15104W        W74365  13.294  16.749  13.358
15105W        W74366   6.210  38.033  14.819
15106W        W74367  43.414   1.403   2.316
15107W        W74368  41.314   0.838   1.314
15108W        W74369  40.915  34.038   2.195
15109W        W74370  35.968  19.046   1.373
15110W        W74371   6.787   2.833  14.952
15111W        W74372  34.540   1.481  10.609
15112W        W74373  25.467  39.430   0.376
15113W        W74374  25.672  44.767   0.442
15114W        W74375  29.125  11.822   2.394
15115W        W74376  29.042  10.381   3.833
15116W        W74377  25.686  32.632  13.058
15117W        W74378  21.121  21.740   1.732
15118W        W74379  14.253  14.179  13.917
15119W        W74380  20.683  14.600   2.726
15120W        W74381   2.323   0.291  12.431
15121W        W74382   7.675  36.878  13.989
15122W        W74383  43.456   0.809   0.929
15123W        W74384  31.036   0.757  12.384
15124W        W74385   4.932   0.835  14.775
15125W        W74386  41.043   4.817   1.316
15126W        W74387  44.862  23.515  12.008
15127W        W74388  16.285   5.926   2.419
15128W        W74389  21.259   7.276   4.219
15129W        W74390  28.532   7.346   4.608
15130W        W74391  23.579   0.367  14.487
15131W        W74392  36.094   7.669   4.706
15132W        W74393  28.653  23.213   4.836
15133W        W74394  38.955  40.946   3.833
15134W        W74395  14.164  30.518  11.396
15135W        W74396  17.130  38.065   0.410
15136W        W74397  32.119  26.121   1.320
15137W        W74398  23.042  20.550   0.810
15138W        W74399  37.057  44.907   2.702
15139W        W74400  25.123  19.550  12.847
15140W        W74401  40.433  23.224   2.803
15141W        W74402  28.060   4.734   0.760
15142W        W74403  24.702  38.499  11.435
15143W        W74404  30.934  34.415  12.016
15144W        W74405  20.241  11.269  12.365
15145W        W74406   0.340  41.923  10.613
15146W        W74407  12.802  44.968   0.740
15147W        W74408  26.643  38.874  12.384
15148W        W74409   7.403  28.647  10.571
15149W        W74410  16.751  22.135  10.126
15150W        W74411  39.460  24.118  14.331
15151W        W74412  14.700  34.531   1.735
15152W        W74413  14.688  40.837   2.344
15153W        W74414   3.279   2.892  10.451
15154W        W74415   4.934   9.210   3.708
15155W        W74416  16.596  16.227   4.695
15156W        W74417  22.568  17.746  10.964
15157W        W74418  42.970  41.021  11.525
15158W        W74419  27.070  12.322   0.330
15159W        W74420  22.130  39.912   2.185
15160W        W74421  44.762  32.054  14.477
15161W        W74422  37.566  21.153  11.027
15162W        W74423  26.607  20.581  14.820
15163W        W74424   8.294  20.072  11.110
15164W        W74425  43.867  21.736  11.437
15165W        W74426  12.218  14.788   1.421
15166W        W74427  28.455  44.296   2.293
15167W        W74428  27.494  27.682  12.347
15168W        W74429  25.622  29.625  14.991
15169W        W74430  24.064  34.437  11.120
15170W        W74431  40.402  33.531   9.546
15171W        W74432  40.799  26.523   4.837
15172W        W74433  20.148  36.509   3.372
15173W        W74434   8.362  34.469   1.922
15174W        W74435  38.911   6.812   2.263
15175W        W74436  44.465   7.704   1.868
15176W        W74437  34.918  41.496  14.463
15177W        W74438  21.069  15.126  12.474
15178W        W74439  15.092  35.492   4.799
15179W        W74440  41.953   2.785   0.929
15180W        W74441   1.261  34.976  14.388
15181W        W74442  10.384  15.631   3.808
15182W        W74443  30.998  37.866  12.543
15183W        W74444  29.504  27.115   1.258
15184W        W74445  26.042   3.310   4.602
15185W        W74446  43.480  40.407  14.435
15186W        W74447   2.743  27.579  11.077
15187W        W74448   2.852  14.328  13.402
15188W        W74449  15.247  12.767  14.030
15189W        W74450   6.677  40.508   3.830
15190W        W74451  32.568  22.510  13.837
15191W        W74452   1.262  24.171  14.855
15192W        W74453  14.644  32.545   0.787
15193W        W74454   8.694  38.911   0.905
15194W        W74455  25.138  44.901   0.876
15195W        W74456  34.973  23.734   4.730
15196W        W74457  28.042   2.424  13.980
15197W        W74458  32.576  11.831   5.226
15198W        W74459  23.114  35.098   4.816
15199W        W74460  39.317  21.578  10.556
15200W        W74461  36.950  43.947  12.429
15201W        W74462  39.937  38.949  13.044
15202W        W74463   4.281  19.683   3.274
15203W        W74464   9.234  21.633   3.184
15204W        W74465  35.431  12.227   0.312
15205W        W74466  23.210  18.068   2.377
15206W        W74467  14.143  16.258  11.963
15207W        W74468  37.346   8.891  12.510
15208W        W74469  13.691   5.748  11.595
15209W        W74470   4.369  30.141   2.219
15210W        W74471   4.379  14.810  12.364
15211W        W74472  21.124  21.537  12.076
15212W        W74473  40.493  14.772  10.590
15213W        W74474  13.184  15.129   2.693
15214W        W74475   1.444   2.427   4.697
15215W        W74476   1.318   3.219   4.259
15216W        W74477  13.228   3.285   1.874
15217W        W74478  10.805  23.736  10.640
15218W        W74479  27.016   8.231   4.161
15219W        W74480  39.538  40.305  10.523
15220W        W74481  43.843  24.140   1.430
15221W        W74482   0.259  32.446   3.294
15222W        W74483  22.089   3.923   3.291
15223W        W74484  29.659  21.150  11.442
15224W        W74485  25.044  33.598  14.841
15225W        W74486  34.969  39.949   2.246
15226W        W74487   0.838  25.038  12.878
15227W        W74488  20.559  14.271   0.271
15228W        W74489   7.174  37.949  14.306
15229W        W74490  19.660  29.441  13.970
15230W        W74491  13.628  15.107  11.513
15231W        W74492  17.072  43.378   2.861
15232W        W74493  12.213  27.547  13.486
15233W        W74494  35.013   4.820  13.875
15234W        W74495  35.571  36.536   3.384
15235W        W74496  15.118   4.338   2.261
15236W        W74497  31.496  23.572  13.014
15237W        W74498   1.888  41.865  14.377
15238W        W74499  25.489  12.243   4.225
15239W        W74500   5.301   9.658  13.969
15240W        W74501  27.543  19.095  14.328
15241W        W74502  12.703  12.789  13.328
15242W        W74503  22.691   6.699   2.724
15243W        W74504   1.452  31.539   4.176
15244W        W74505  40.411  16.687   0.884
15245W        W74506   2.363  22.245  11.928
15246W        W74507  43.940  35.948  12.372
15247W        W74508  26.466  11.696   1.812
15248W        W74509  24.675  25.676   1.253
15249W        W74510  15.784   5.689  14.952
15250W        W74511   6.860   6.837   1.240
15251W        W74512  27.114   9.827  13.045
15252W        W74513  36.863  14.167  12.972
15253W        W74514   6.828  14.636  14.343
15254W        W74515  35.542  34.452   4.173
15255W        W74516   6.401  21.168  13.998
15256W        W74517   1.812   5.317   4.641
15257W        W74518  10.772  10.314   1.915
15258W        W74519  31.029  12.626   0.739
15259W        W74520  16.665  15.117  14.942
15260W        W74521  43.851  40.799   3.328
15261W        W74522  37.060  10.369   1.285
15262W        W74523  21.524  19.648   5.727
15263W        W74524  18.069  18.761   9.470
15264W        W74525  20.106  44.454  10.987
15265W        W74526  27.035  16.221  10.503
15266W        W74527  41.311  25.140  13.323
15267W        W74528   4.895  41.354  11.382
15268W        W74529  24.512  20.239  10.525
15269W        W74530  24.040  38.353  13.909
15270W        W74531  37.492  40.042  12.532
15271W        W74532   4.417  24.091  14.357
15272W        W74533   1.404   5.404   3.697
15273W        W74534   7.313  29.120   4.764
15274W        W74535  43.270  29.624  10.520
15275W        W74536  16.214   7.329   0.943
15276W        W74537  33.447  21.129  12.949
15277W        W74538  43.457  32.485  11.554
15278W        W74539  12.741  39.919   2.304
15279W        W74540  25.000   6.827  10.961
15280W        W74541  43.302  23.596   0.419
15281W        W74542   6.920  29.436  14.334
15282W        W74543  44.011  12.232   3.244
15283W        W74544  32.600  15.272   1.269
15284W        W74545  15.216   1.469  14.955
15285W        W74546  19.681  32.928   2.204
15286W        W74547  43.836  10.276   3.859
15287W        W74548  22.612   4.775   2.800
15288W        W74549  17.169  23.180  10.896
15289W        W74550  12.672  39.383   1.351
15290W        W74551  16.307  24.050   4.348
15291W        W74552  27.013   0.925   0.964
15292W        W74553  24.663  40.855   0.426
15293W        W74554  28.563  36.037  10.540
15294W        W74555  40.819  18.248   3.386
15295W        W74556  11.704  22.576   1.308
15296W        W74557   5.872  15.126   0.738
15297W        W74558  14.263  44.885  11.855
15298W        W74559  30.453   0.427   4.273
15299W        W74560   5.369  22.573  10.155
15300W        W74561  13.772   2.231  14.813
15301W        W74562   7.879  11.632   2.823
15302W        W74563  21.665  40.498   3.824
15303W        W74564   3.925  38.484   4.642
15304W        W74565  13.271  21.678   2.296
15305W        W74566  22.631  43.765  11.971
15306W        W74567  26.973   1.758  13.977
15307W        W74568  40.023   7.844  14.303
15308W        W74569  13.282  28.001  14.483
15309W        W74570  16.291  28.590  11.948
15310W        W74571  13.730  21.211  11.439
15311W        W74572  19.214   0.252   3.681
15312W        W74573  37.049  30.608  13.871
15313W        W74574  19.192   4.735   4.309
15314W        W74575  14.808  33.576   0.888
15315W        W74576  40.047  24.182  14.788
15316W        W74577  18.078  15.762   1.698
15317W        W74578   1.296  17.097  11.566
15318W        W74579  40.849   3.889   3.374
15319W        W74580  36.009  29.553   1.440
15320W        W74581  38.007  24.168   2.389
15321W        W74582   3.387  34.997   1.293
15322W        W74583  13.827  13.749   1.414
15323W        W74584  25.705  10.194  12.047
15324W        W74585   1.261  32.135   4.340
15325W        W74586  44.936  40.400  13.960
15326W        W74587  36.424   3.232  10.892
15327W        W74588  30.416  16.256  14.458
15328W        W74589   9.885  18.054   1.430
15329W        W74590  43.368  25.040   2.802
15330W        W74591  43.443  30.043   4.706
15331W        W74592  38.907  31.476  13.320
15332W        W74593  36.542  10.691   0.347
15333W        W74594  38.020  43.407  10.414
15334W        W74595  14.321  38.842  13.365
15335W        W74596  16.666  42.913  13.831
15336W        W74597  31.521   9.251   1.234
15337W        W74598  14.758  23.152   1.231
15338W        W74599   3.924  15.615   4.767
15339W        W74600  34.415  30.650  10.477
15340W        W74601   9.245  21.121  13.481
15341W        W74602  23.106  30.553  10.584
15342W        W74603  12.275   6.782  11.090
15343W        W74604  26.529  16.699  11.122
15344W        W74605  29.666  31.473  13.056
15345W        W74606  41.012  36.452   3.195
15346W        W74607  38.937  10.237  12.025
15347W        W74608  33.933  14.251  11.877
15348W        W74609  43.469  31.037  14.875
15349W        W74610  36.584   8.704  14.460
15350W        W74611  27.178  13.751  14.008
15351W        W74612  15.655  42.320  14.017
15352W        W74613  28.963  12.658   0.262
15353W        W74614  44.928  18.252  14.004
15354W        W74615  12.669   7.278  12.827
15355W        W74616  29.530  29.471   2.872
15356W        W74617  28.025  33.399  13.479
15357W        W74618  44.492  44.973   1.817
15358W        W74619  16.116   9.243   2.250
15359W        W74620  17.126  20.247  13.905
15360W        W74621  22.148  34.927   4.685
15361W        W74622   0.963  22.736   1.366
15362W        W74623  34.481  22.553   0.747
15363W        W74624  32.956  10.667  14.889
15364W        W74625  30.907  41.478  14.929
15365W        W74626  37.947  11.296   3.823
15366W        W74627  21.541  39.046  10.519
15367W        W74628  24.221  42.434   4.723
15368W        W74629  39.340  41.999  13.530
15369W        W74630  21.740  21.165   3.818
15370W        W74631  13.791  12.685  12.009
15371W        W74632  42.404  30.972   4.829
15372W        W74633  24.523  12.634   4.693
15373W        W74634  12.334  42.366  11.414
15374W        W74635  32.059  20.669   0.433
15375W        W74636  21.514  18.591  11.481
15376W        W74637   1.761  39.931  13.980
15377W        W74638  13.729  44.923  13.848
15378W        W74639  28.943   0.838  13.865
15379W        W74640  40.033  16.257  10.980
15380W        W74641  22.537  42.807   2.325
15381W        W74642   7.859   2.447  13.826
15382W        W74643  37.477  40.914  10.991
15383W        W74644  31.030  35.958   1.329
15384W        W74645  35.996  29.940  14.906
15385W        W74646  33.411  20.139   4.710
15386W        W74647  35.048   2.864   1.367
15387W        W74648  33.995  12.716  11.464
15388W        W74649  32.459  38.908   3.817
15389W        W74650  25.210  32.046   2.256
15390W        W74651  30.132   9.737   0.768
15391W        W74652  12.322  23.689   0.307
15392W        W74653   1.831   6.891   4.646
15393W        W74654   0.403  42.340  12.998
15394W        W74655   8.831  11.311  14.907
15395W        W74656  19.271  12.705   0.436
15396W        W74657  22.133  25.572   2.836
15397W        W74658  38.405  41.295  11.076
15398W        W74659  44.349  34.101  12.914
15399W        W74660  27.013  23.115  12.531
15400W        W74661  17.217  40.838   3.820
15401W        W74662  16.186  34.868  11.601
15402W        W74663  43.440   2.903  11.510
15403W        W74664  21.133   5.717  12.352
15404W        W74665  42.374   0.414  13.355
15405W        W74666  16.711  38.560   4.696
15406W        W74667  20.238  25.148  11.590
15407W        W74668  15.230  21.046  11.095
15408W        W74669  42.316  11.684   2.281
15409W        W74670   7.231  19.599   2.409
15410W        W74671  16.626   7.776  10.520
15411W        W74672  12.179  36.480   1.801
15412W        W74673  29.656  10.740  13.369
15413W        W74674  39.418   8.719  13.332
15414W        W74675  39.390  23.016   9.496
15415W        W74676  37.392  27.945   4.711
15416W        W74677   3.266  15.302  10.103
15417W        W74678   0.932  24.561   0.344
15418W        W74679   6.327   6.344  13.931
15419W        W74680   0.424  39.013  13.918
15420W        W74681  17.185   4.285  11.385
15421W        W74682  11.150   6.920  13.945
15422W        W74683   7.796  18.750   2.407
15423W        W74684  23.637  40.428  14.485
15424W        W74685  19.139  39.382   2.226
15425W        W74686   6.802  15.290   1.751
15426W        W74687   5.816  24.000   4.829
15427W        W74688   3.941  38.414   0.327
15428W        W74689  41.822  44.954  14.961
15429W        W74690   2.261  12.142   2.238
15430W        W74691  33.915  33.064   1.717
15431W        W74692  27.618  15.716   4.805
15432W        W74693  23.124  20.553   1.414
15433W        W74694  20.547  30.606   4.835
15434W        W74695  19.073   7.320   4.749
15435W        W74696  31.472   1.734   1.448
15436W        W74697  44.942   1.862   3.657
15437W        W74698  24.096  17.111   1.344
15438W        W74699  37.087   0.980  11.040
15439W        W74700   8.169   9.872   3.712
15440W        W74701  33.108  21.049   2.386
15441W        W74702  11.698  37.880  12.951
15442W        W74703  40.802  20.677  11.551
15443W        W74704  42.815  32.943   0.395
15444W        W74705  28.453  14.266   0.403
15445W        W74706  33.546  44.791   0.275
15446W        W74707  42.977   0.449   4.176
15447W        W74708  44.331  11.246   0.429
15448W        W74709  10.324  12.200  13.517
15449W        W74710  23.004   3.454   2.875
15450W        W74711  25.091  27.132  11.907
15451W        W74712  30.491  26.997  11.605
15452W        W74713  41.501  35.558  10.160
15453W        W74714  18.723  38.515  14.424
15454W        W74715  14.642  30.940   2.212
15455W        W74716  23.704  26.972   0.873
15456W        W74717  21.591   6.281   2.387
15457W        W74718  33.411   2.324   2.365
15458W        W74719   2.388  14.800  14.334
15459W        W74720  38.925   1.972   0.800
15460W        W74721  32.515   2.721  10.609
15461W        W74722   7.687  16.571   0.835
15462W        W74723  34.368   9.168  12.360
15463W        W74724  35.468  38.001   1.921
15464W        W74725  39.021  16.228   2.762
15465W        W74726  26.590  18.578  11.471
15466W        W74727  23.720   7.332  11.579
15467W        W74728   5.252  17.567  13.474
15468W        W74729  36.928  19.712  11.985
15469W        W74730  16.081   4.721  14.276
15470W        W74731  19.080  40.458   0.349
15471W        W74732  11.133  28.627   4.648
15472W        W74733  14.263  42.027  14.470
15473W        W74734   4.834  13.233  12.034
15474W        W74735  32.061   8.363   2.802
15475W        W74736  39.909   4.885  10.004
15476W        W74737   5.319   5.405  13.020
15477W        W74738  35.556  31.487   2.830
15478W        W74739  41.836  19.110  12.542
15479W        W74740  43.939  44.967   4.828
15480W        W74741  18.608  14.162   2.867
15481W        W74742  24.112  14.609  11.996
15482W        W74743  42.960  29.574  14.425
15483W        W74744  17.208  38.832   4.834
15484W        W74745  28.681  30.150   5.686
15485W        W74746  30.459  21.535  10.893
15486W        W74747  18.574  25.125  13.042
15487W        W74748   1.742  22.029   4.784
15488W        W74749  41.945   7.870   4.826
15489W        W74750  18.742  40.479   5.181
15490W        W74751  26.633  11.725  12.065
15491W        W74752  15.300  40.968  12.578
15492W        W74753  37.386  12.778  14.336
15493W        W74754  25.199  33.117  11.397
15494W        W74755  24.202  44.850   0.762
15495W        W74756  12.305  40.408   3.155
15496W        W74757   6.717  28.007  13.344
15497W        W74758  25.577  11.284  10.635
15498W        W74759  27.500  10.261  13.383
15499W        W74760  20.668  40.009  14.479
15500W        W74761  24.570   0.483  12.968
15501W        W74762  22.231  32.068   4.693
15502W        W74763   5.283  25.993   1.934
15503W        W74764  10.232  39.342   3.205
15504W        W74765  32.453  16.741  12.049
15505W        W74766  42.319  22.013   9.516
15506W        W74767   6.351  41.788   3.670
15507W        W74768  27.555   3.831   1.227
15508W        W74769  24.568  12.185  13.357
15509W        W74770  31.097  35.457  13.850
15510W        W74771   9.323  44.439  11.411
15511W        W74772  34.512  43.504  13.537
15512W        W74773  20.208  28.154  13.896
15513W        W74774  22.240  44.389   2.838
15514W        W74775   4.727  12.236  12.417
15515W        W74776  23.153  35.879   1.277
15516W        W74777  33.576  44.393   0.263
15517W        W74778   9.267  15.808   2.878
15518W        W74779  44.486  19.624   1.280
15519W        W74780  32.017  12.847   3.782
15520W        W74781  43.455   8.371   3.256
15521W        W74782  30.922  25.989   0.323
15522W        W74783  17.099  19.139  14.405
15523W        W74784  34.925  43.784  12.987
15524W        W74785   3.744   3.375   2.398
15525W        W74786  35.467  21.248   4.125
15526W        W74787  29.011  27.084   1.801
15527W        W74788  30.619  15.644   3.185
15528W        W74789  29.091   7.903  14.314
15529W        W74790  31.904   8.239   0.881
15530W        W74791  25.081  27.467  10.974
15531W        W74792  10.307  11.671   1.335
15532W        W74793  43.415  29.019   4.127
15533W        W74794  12.812   4.710   3.170
15534W        W74795  26.129  43.373  10.952
15535W        W74796   9.883  17.139  10.598
15536W        W74797  39.999  13.776   4.650
15537W        W74798  20.180  29.662   3.358
15538W        W74799  31.492  19.618   1.282
15539W        W74800   2.404  44.816   3.370
15540W        W74801  38.426  26.668   4.128
15541W        W74802  39.343  37.034  13.917
15542W        W74803   1.381   5.297  12.950
15543W        W74804  31.073   5.233   2.829
15544W        W74805   8.855   9.760  10.596
15545W        W74806  23.160  44.999   1.753
15546W        W74807  22.237   7.893   1.699
15547W        W74808  31.633   0.961   0.865
15548W        W74809  32.030   1.457  14.446
15549W        W74810  39.060  28.014   0.916
15550W        W74811  37.447  22.245   0.254
15551W        W74812  20.114  31.990  14.415
15552W        W74813   0.423   0.489   2.392
15553W        W74814  31.959  18.202   1.876
15554W        W74815  31.936  32.104   0.316
15555W        W74816  36.501  37.849   3.758
15556W        W74817   7.846   2.742   1.696
15557W        W74818  25.520   0.453   1.293
15558W        W74819  38.350  12.664   3.292
15559W        W74820  39.939  16.187   9.939
15560W        W74821   1.452  22.682  13.051
15561W        W74822   1.824  16.186  11.888
15562W        W74823  23.174  18.264  14.896
15563W        W74824  38.065  11.266  13.858
15564W        W74825  12.818  29.465   0.819
15565W        W74826  40.312  26.680   9.974
15566W        W74827  25.217  36.437  12.433
15567W        W74828  40.998  27.091   2.710
15568W        W74829   3.884  14.243   0.956
15569W        W74830  31.538  25.525  13.531
15570W        W74831   6.224  32.519   1.812
15571W        W74832   9.689  42.362  10.535
15572W        W74833   5.210  39.378  11.428
15573W        W74834  19.249   8.718  12.832
15574W        W74835  14.260   9.858   2.354
15575W        W74836  34.040   6.400   1.309
15576W        W74837   1.359  21.597  11.899
15577W        W74838  29.605  32.126  12.906
15578W        W74839  39.503  36.878   4.129
15579W        W74840  24.196   5.783   4.185
15580W        W74841   1.811  21.103  10.562
15581W        W74842  16.700   3.289  11.388
15582W        W74843  24.658  11.753   1.761
15583W        W74844  20.636   6.883  11.965
15584W        W74845  16.136  27.951   4.138
15585W        W74846  36.922  37.437  14.313
15586W        W74847  44.437  16.212   4.216
15587W        W74848  35.371  39.368   0.274
15588W        W74849  35.396  23.069  14.290
15589W        W74850  33.955  13.722  14.875
15590W        W74851  39.454  34.939   1.445
15591W        W74852  39.414   2.746  14.450
15592W        W74853  16.691  41.408  10.614
15593W        W74854  28.524  20.057   3.687
15594W        W74855  43.511  21.049   2.749
15595W        W74856  22.056  43.297   0.480
15596W        W74857  17.689  25.976   1.276
15597W        W74858  42.334  24.713   5.248
15598W        W74859  41.951   3.761   3.849
15599W        W74860  12.829  44.478   3.238
15600W        W74861   7.718  35.449  14.428
15601W        W74862  30.132  37.541  11.428
15602W        W74863  11.366  18.088  14.406
15603W        W74864  37.469  24.492  12.826
15604W        W74865   6.337   9.731   2.680
15605W        W74866  36.876  14.627  14.983
15606W        W74867  24.142  15.766   1.220
15607W        W74868  26.561  22.525  13.492
15608W        W74869   9.176  24.179   2.238
15609W        W74870  20.069  13.665   2.849
15610W        W74871  20.636   0.412   1.349
15611W        W74872  24.668  29.545  11.418
15612W        W74873   6.892  14.174  10.985
15613W        W74874  18.070  19.083   2.676
15614W        W74875  36.887  27.467   0.361
15615W        W74876  42.891   3.729   1.270
15616W        W74877  42.367  39.065   1.358
15617W        W74878   4.792   4.279  11.016
15618W        W74879   9.690  20.578   1.850
15619W        W74880  32.403  20.144  14.027
15620W        W74881  19.594   6.849  14.996
15621W        W74882  19.591  17.136  10.585
15622W        W74883  20.167   9.190   2.352
15623W        W74884  30.959  38.938   0.288
15624W        W74885  35.523  21.681   1.364
15625W        W74886  36.496  28.174   5.213
15626W        W74887  36.949  40.950  12.436
15627W        W74888  39.508   8.850  12.866
15628W        W74889  27.009  37.936   2.398
15629W        W74890  39.336  27.027   3.369
15630W        W74891   0.808  41.354  14.978
15631W        W74892  40.549  24.194  11.079
15632W        W74893   6.408  19.246  14.833
15633W        W74894  18.295  10.246  11.470
15634W        W74895  27.146   4.889   2.903
15635W        W74896  42.967  22.693   2.394
15636W        W74897  33.986  29.962   4.766
15637W        W74898  37.494  21.714   4.821
15638W        W74899  13.347  29.512  13.850
15639W        W74900  20.052  24.118  12.424
15640W        W74901  43.890  44.299   9.973
15641W        W74902  23.007  22.109  11.884
15642W        W74903  10.806  28.603   0.736
15643W        W74904  35.942   6.375   0.791
15644W        W74905  22.181   6.737  11.930
15645W        W74906  26.097  29.423   1.754
15646W        W74907  38.447  19.137   4.137
15647W        W74908   0.287  28.938   1.735
15648W        W74909  41.949  35.867   0.395
15649W        W74910  29.168   9.809  14.780
15650W        W74911  29.140  21.066  11.014
15651W        W74912  31.942  10.878  11.457
15652W        W74913  22.091  11.257   0.364
15653W        W74914  28.570   9.700  11.062
15654W        W74915  17.669   1.301   0.309
15655W        W74916  24.020  13.782  13.524
15656W        W74917   2.956  29.035   2.342
15657W        W74918  34.487  33.519   1.789
15658W        W74919   9.233  37.975   4.792
15659W        W74920  40.876   1.948  13.524
15660W        W74921  20.167  43.905   3.720
15661W        W74922   2.393  33.533   2.178
15662W        W74923  38.002   6.417  13.881
15663W        W74924  10.873  18.282  12.564
15664W        W74925  10.346  30.115   1.805
15665W        W74926  14.679   7.710  11.442
15666W        W74927  42.883  31.530  11.432
15667W        W74928  35.957   8.671  14.294
15668W        W74929  22.677  25.601  11.067
15669W        W74930  11.723  11.689   0.953
15670W        W74931  31.948  18.790   4.247
15671W        W74932  43.959  21.129  10.472
15672W        W74933  22.672  10.332  14.828
15673W        W74934  32.932  34.507   1.919
15674W        W74935  19.760  36.366  11.414
15675W        W74936  36.059  19.226  13.875
15676W        W74937   6.259  36.464   4.665
15677W        W74938   6.264   7.196  14.831
15678W        W74939  29.561  41.883   0.743
15679W        W74940   7.792   0.794   1.818
15680W        W74941  17.740  29.996   1.817
15681W        W74942  23.082  27.118   0.784
15682W        W74943  16.584  15.116  13.836
15683W        W74944  29.093  16.222  11.477
15684W        W74945  29.668  11.266  14.881
15685W        W74946  23.083  36.959  10.918
15686W        W74947  10.340  39.829  11.589
15687W        W74948  20.141  22.039  12.436
15688W        W74949  10.262  14.269  14.360
15689W        W74950  40.362  19.204  14.776
15690W        W74951  44.408  17.672  12.452
15691W        W74952  13.318  11.274  11.416
15692W        W74953  38.445  28.041  11.877
15693W        W74954  10.264  16.301   4.726
15694W        W74955  15.738  34.969  14.832
15695W        W74956  23.655  44.957   4.597
15696W        W74957  27.057  37.373  13.014
15697W        W74958  29.603  26.577   4.158
15698W        W74959  11.662   7.715  10.891
15699W        W74960  33.469  37.982  12.350
15700W        W74961  37.572  20.135   4.133
15701W        W74962  42.986   9.384   3.338
15702W        W74963  29.156  18.181   4.746
15703W        W74964   6.296  35.426   3.180
15704W        W74965  23.019  16.729   4.191
15705W        W74966  19.183  12.245   4.347
15706W        W74967   8.212  14.279   3.308
15707W        W74968   9.666  29.627   1.769
15708W        W74969  20.636  36.075  10.454
15709W        W74970   4.233  13.278   3.732
15710W        W74971  13.156   0.758  13.997
15711W        W74972  42.946  21.585  13.810
15712W        W74973  21.678  24.560   3.855
15713W        W74974  21.076  10.226   0.924
15714W        W74975  40.351  42.835   4.170
15715W        W74976   3.296  34.073   4.330
15716W        W74977  13.168  38.328  12.882
15717W        W74978   7.826   2.440  10.446
15718W        W74979   1.736  42.379   2.725
15719W        W74980  29.074  22.099  12.393
15720W        W74981  26.567  43.904   4.153
15721W        W74982  25.026   0.757   1.897
15722W        W74983  39.367  41.789  10.631
15723W        W74984  31.596   7.696  10.546
15724W        W74985   5.377  22.226  10.417
15725W        W74986  31.466  30.601   3.701
15726W        W74987   8.665  28.067  14.887
15727W        W74988  39.368  41.027  12.344
15728W        W74989  38.043  44.321  13.960
15729W        W74990  40.987  24.638  13.956
15730W        W74991   9.663   2.952   1.745
15731W        W74992  21.078  12.245   1.860
15732W        W74993   0.839  12.732   0.885
15733W        W74994  17.197  37.436   5.317
15734W        W74995  23.490  18.664   5.112
15735W        W74996   8.398  13.319  10.894
15736W        W74997  38.463  26.459  13.817
15737W        W74998  35.376  37.581   4.322
15738W        W74999  35.022  42.385  12.861
15739W        W75000  13.111  15.286   2.292
15740W        W75001  10.836   6.680  14.346
15741W        W75002  15.662  23.567  14.000
15742W        W75003   2.949  17.668  14.975
15743W        W75004  21.110   9.647  12.934
15744W        W75005   6.839   3.303   3.823
15745W        W75006   6.396  28.020  14.371
15746W        W75007  19.558  17.730   9.603
15747W        W75008  31.531   2.316  10.529
15748W        W75009   9.217  29.986   3.688
15749W        W75010   5.806  43.386   3.229
15750W        W75011  37.009  34.449   0.753
15751W        W75012  41.838   7.837  11.890
15752W        W75013  36.586   4.364   3.203
15753W        W75014  19.146  31.538   3.842
15754W        W75015  15.150  16.296  10.932
15755W        W75016  30.139   5.301   2.263
15756W        W75017  20.577   8.744  12.040
15757W        W75018  20.632   6.335  11.592
15758W        W75019  38.521  12.196  12.530
15759W        W75020  34.534   3.305  14.859
15760W        W75021  13.175   1.866  12.929
15761W        W75022  43.912   8.182  12.897
15762W        W75023  23.120  36.578  11.613
15763W        W75024  21.592  33.021  12.010
15764W        W75025  16.118  15.687   2.730
15765W        W75026  12.306  15.138   4.309
15766W        W75027   3.802  13.290  14.905
15767W        W75028  13.322  39.435  14.320
15768W        W75029   8.326  40.845   2.797
15769W        W75030  27.157  15.735   1.793
15770W        W75031   3.453   4.920  14.801
15771W        W75032  15.210  35.021  11.406
15772W        W75033  40.833  34.541  13.049
15773W        W75034   2.408  15.596  10.956
15774W        W75035  15.769  18.179  10.619
15775W        W75036  35.083   4.853   5.109
15776W        W75037  17.570  38.405  11.488
15777W        W75038  10.367  29.573   5.220
15778W        W75039  18.174  14.251   1.804
15779W        W75040  38.431  31.076   3.856
15780W        W75041   8.320  23.506  14.496
15781W        W75042  43.393  29.936   4.252
15782W        W75043  40.351   9.681  14.290
15783W        W75044  23.158  23.107   4.658
15784W        W75045  11.623  22.505   4.342
15785W        W75046  25.710  44.494  10.466
15786W        W75047   7.887  13.709   1.919
15787W        W75048  38.560  25.143   3.850
15788W        W75049  22.134  16.567  11.001
15789W        W75050  16.776  34.071  14.327
15790W        W75051  42.879  18.127   3.232
15791W        W75052   7.797   9.762  14.305
15792W        W75053   1.888  27.562  11.426
15793W        W75054  26.579  26.072  12.999
15794W        W75055  16.578  28.576   2.879
15795W        W75056  15.306  10.144  10.430
15796W        W75057   4.333   5.919  13.963
15797W        W75058   1.415  13.339  14.349
15798W        W75059  29.631  27.460  14.393
15799W        W75060   2.326  25.518   1.743
15800W        W75061  41.024  41.982  11.027
15801W        W75062  27.120  34.555   5.721
15802W        W75063  13.835  26.607   2.898
15803W        W75064  23.063  20.098  14.989
15804W        W75065  25.015  16.306  10.594
15805W        W75066  11.839  35.587   2.318
15806W        W75067  42.351  42.887   4.758
15807W        W75068  41.878  15.250   2.750
15808W        W75069  21.128  40.990   1.892
15809W        W75070   8.839   0.800  13.973
15810W        W75071  16.298   4.221   1.797
15811W        W75072  38.517  39.885  12.052
15812W        W75073  44.491  41.422  13.821
15813W        W75074  31.150  37.055   4.193
15814W        W75075   3.853  19.060  10.592
15815W        W75076  12.852  10.224   0.450
15816W        W75077  26.615  38.977  13.976
15817W        W75078  28.591   7.349  13.919
15818W        W75079  24.130  42.515   0.948
15819W        W75080  38.342  11.813   4.720
15820W        W75081  19.682  20.192   0.810
15821W        W75082  19.194  28.041   2.415
15822W        W75083   9.847  38.941  12.354
15823W        W75084  42.444   8.210   0.965
15824W        W75085  44.830  39.356  13.543
15825W        W75086  32.563  28.587  14.918
15826W        W75087   4.844   4.224  12.387
15827W        W75088  35.388  43.313  12.020
15828W        W75089  35.444  27.118  13.343
15829W        W75090  37.482  37.472  13.416
15830W        W75091  23.118  39.345   3.739
15831W        W75092  40.877  39.383  13.000
15832W        W75093  40.309  40.510   1.858
15833W        W75094   6.291   6.404   1.803
15834W        W75095  32.411  19.105   1.733
15835W        W75096  10.657  12.658   4.713
15836W        W75097  38.402  16.156  14.926
15837W        W75098  32.627  31.993   1.794
15838W        W75099  32.026   9.215   0.806
15839W        W75100  39.401  36.432   3.818
15840W        W75101  44.503  38.435  13.402
15841W        W75102  31.963   7.207   4.316
15842W        W75103   3.223  11.733  13.805
15843W        W75104  21.638   3.852  13.468
15844W        W75105  40.975   0.981  12.929
15845W        W75106  14.125   3.772   0.479
15846W        W75107  20.188  14.673  10.541
15847W        W75108   6.732  39.997   3.185
15848W        W75109   0.821  30.446  11.901
15849W        W75110  40.427   1.301  13.459
15850W        W75111  22.609  25.208   2.249
15851W        W75112  40.393  17.273   3.215
15852W        W75113  28.046   1.964  14.818
15853W        W75114  22.107  42.307  12.914
15854W        W75115   0.922  42.376  14.916
15855W        W75116  28.107   8.341   0.754
15856W        W75117  41.503  19.150   2.729
15857W        W75118  40.538  32.598   4.206
15858W        W75119  24.009  29.987   5.195
15859W        W75120  14.131  16.214   2.662
15860W        W75121  43.493  14.150   5.301
15861W        W75122  16.650  11.315   3.753
15862W        W75123  11.263  17.125   0.873
15863W        W75124  30.530  21.092   2.745
15864W        W75125  23.597  42.901   0.428
15865W        W75126  13.298  35.567  11.006
15866W        W75127  17.595  36.846   0.299
15867W        W75128  44.849  35.984   4.142
15868W        W75129  23.051  38.930   0.832
15869W        W75130  30.024  27.107  10.548
15870W        W75131  30.162  28.950  10.967
15871W        W75132  33.483  23.504   5.250
15872W        W75133   8.841  32.093  13.001
15873W        W75134  19.074  12.804   4.201
15874W        W75135   3.837  44.503  11.056
15875W        W75136  24.572  38.984   3.704
15876W        W75137  23.677  33.566  12.953
15877W        W75138   7.847  18.297   5.293
15878W        W75139  13.250   4.233  14.002
15879W        W75140  21.599  31.474  11.485
15880W        W75141  33.552  40.984   0.945
15881W        W75142  19.583  27.094   1.237
15882W        W75143  11.762  25.490  13.920
15883W        W75144  43.002  19.063  10.028
15884W        W75145  33.584  36.858  13.792
15885W        W75146  24.621  11.300  14.028
15886W        W75147  44.328  32.968   4.778
15887W        W75148  37.016  44.927   0.959
15888W        W75149  12.716  40.864   1.385
15889W        W75150   7.881  29.005   1.360
15890W        W75151  28.078   3.445   3.212
15891W        W75152  22.605  40.845   2.278
15892W        W75153  14.593  44.416  11.995
15893W        W75154   9.343  44.284   1.884
15894W        W75155  28.501  35.491  14.415
15895W        W75156  14.198   6.682   1.400
15896W        W75157  13.320   8.852   3.683
15897W        W75158  35.604  21.553   1.881
15898W        W75159  11.151   1.758   0.309
15899W        W75160   8.891  44.768  12.425
15900W        W75161  44.977  24.664  11.935
15901W        W75162   2.759   7.413  10.947
15902W        W75163   8.874   0.755  10.519
15903W        W75164  40.501   0.315   1.804
15904W        W75165   7.750  40.362   3.822
15905W        W75166   8.803  31.965   0.401
15906W        W75167  38.429   4.786   9.931
15907W        W75168  41.925  13.112  11.877
15908W        W75169  29.136  38.479   4.224
15909W        W75170  16.115  34.068  10.905
15910W        W75171  35.049  34.105   1.822
15911W        W75172  28.060  23.709  10.434
15912W        W75173   8.350  29.158  11.595
15913W        W75174  13.727   4.738   3.154
15914W        W75175  29.572  42.325  12.985
15915W        W75176  24.534   8.674   3.225
15916W        W75177   1.813  34.506  11.971
15917W        W75178  26.531   4.299   9.920
15918W        W75179   3.766  21.643  13.398
15919W        W75180  31.489   8.661   5.570
15920W        W75181  26.600   6.327  11.895
15921W        W75182  25.674  40.016  11.035
15922W        W75183  11.848  13.171   1.243
15923W        W75184  33.571  13.789   3.788
15924W        W75185  31.507  29.961   2.824
15925W        W75186  13.148  13.235   4.297
15926W        W75187   7.783   3.348   3.647
15927W        W75188  39.481  35.861  11.481
15928W        W75189  10.655  20.077   3.797
15929W        W75190  20.262  25.075  12.385
15930W        W75191   9.852  16.804  14.944
15931W        W75192  28.147  30.415   3.677
15932W        W75193  14.742  44.951   4.339
15933W        W75194  14.105  33.446  13.062
15934W        W75195  19.664  39.423   1.787
15935W        W75196  35.000  43.283   4.747
15936W        W75197  32.908  26.101  12.417
15937W        W75198  27.649  42.495   4.835
15938W        W75199  10.767  30.994   1.735
15939W        W75200  12.243  16.700  14.778
15940W        W75201  21.711  40.950   1.931
15941W        W75202   8.860  34.411   0.244
15942W        W75203  13.308   3.788   4.737
15943W        W75204  35.862  33.887  14.016
15944W        W75205  12.806   9.286   0.852
15945W        W75206  26.966  35.935   3.808
15946W        W75207  36.038  33.486   2.374
15947W        W75208  12.760  20.708  14.949
15948W        W75209  27.149  38.965   0.300
15949W        W75210  35.367   9.378  11.588
15950W        W75211  44.877  31.645   1.896
15951W        W75212  13.742  34.088   0.387
15952W        W75213  15.739  18.785  12.475
15953W        W75214  37.989  29.426  14.468
15954W        W75215  24.495   2.303   1.341
15955W        W75216  30.149  38.877  14.950
15956W        W75217  22.662  34.500   1.788
15957W        W75218  34.467  23.102   2.415
15958W        W75219  16.642  19.088  12.894
15959W        W75220  19.237  42.487   4.162
15960W        W75221  28.498  15.146   2.803
15961W        W75222  29.921   2.874   5.712
15962W        W75223  40.516  27.561  10.414
15963W        W75224   3.361  20.116  13.840
15964W        W75225  19.270  38.961   2.254
15965W        W75226  24.187  26.580   1.233
15966W        W75227  44.945   2.720   0.951
15967W        W75228   1.887  11.134   4.809
15968W        W75229  12.829   4.781  10.426
15969W        W75230  27.030  21.250   2.392
15970W        W75231  19.102   2.942  12.046
15971W        W75232  25.004  30.137   2.220
15972W        W75233  22.120  44.469  12.354
15973W        W75234   4.368  22.731   1.273
15974W        W75235  33.105  31.970   3.258
15975W        W75236  14.220  35.384  11.933
15976W        W75237  16.221  37.398   5.221
15977W        W75238  18.732  31.415  11.383
15978W        W75239   8.851  15.215  14.310
15979W        W75240  25.479  19.623  13.352
15980W        W75241  43.867  20.605   1.423
15981W        W75242  17.646  19.082   3.161
15982W        W75243  14.834   3.252   2.308
15983W        W75244  23.570  10.656  11.396
15984W        W75245  37.908   6.912   1.730
15985W        W75246  41.507  18.545   2.392
15986W        W75247  41.798  23.648   1.787
15987W        W75248  41.995   7.757  10.427
15988W        W75249  42.874   0.451  14.375
15989W        W75250  39.407  21.546   3.283
15990W        W75251   7.671  21.153   2.380
15991W        W75252  40.341   9.703   0.830
15992W        W75253   0.937  42.315  12.054
15993W        W75254   0.291  22.628  13.985
15994W        W75255  26.651  43.883  14.796
15995W        W75256  22.093  44.280   0.477
15996W        W75257   9.733  44.005  11.129
15997W        W75258  32.401  37.865   1.845
15998W        W75259  23.190  25.962  13.981
15999W        W75260   9.867  33.575   2.355
16000W        W75261  15.741  31.544   1.438
16001W        W75262  29.998  33.878  10.422
16002W        W75263  25.168  20.216   4.728
16003W        W75264   2.379  24.087  14.426
16004W        W75265  29.491  28.605   3.840
16005W        W75266  32.094  26.026   2.797
16006W        W75267  31.475  28.952   2.781
16007W        W75268  35.860  17.672  11.885
16008W        W75269  43.284  43.852  14.956
16009W        W75270  16.805  18.134  12.901
16010W        W75271  15.597  21.598  12.859
16011W        W75272  30.652  15.251  12.961
16012W        W75273   4.820  42.423  13.872
16013W        W75274  44.383  30.484   1.755
16014W        W75275   1.452   9.373   4.291
16015W        W75276  41.387  24.121  14.432
16016W        W75277  37.434   2.439   0.435
16017W        W75278  16.253  26.679  10.087
16018W        W75279  17.768   0.828  12.911
16019W        W75280   5.416  23.535   4.817
16020W        W75281  31.986  40.901  13.379
16021W        W75282  24.564  44.969  14.851
16022W        W75283   2.378  29.489  14.383
16023W        W75284   6.286  27.954   4.627
16024W        W75285  11.312   2.280  14.378
16025W        W75286  38.829  11.729  12.885
16026W        W75287  37.848  30.951  14.339
16027W        W75288  28.978   7.218   3.324
16028W        W75289  17.154  32.895  11.894
16029W        W75290  41.426   7.811  14.785
16030W        W75291  27.597  34.017  14.884
16031W        W75292  25.057  35.508  11.548
16032W        W75293  36.557  16.191  12.095
16033W        W75294   0.328  19.587   2.264
16034W        W75295  11.792  29.034   1.774
16035W        W75296  35.404  23.038  11.470
16036W        W75297  27.470   5.290  14.422
16037W        W75298  17.191  39.492  11.029
16038W        W75299  25.562  20.188   2.266
16039W        W75300  36.849  42.847  11.917
16040W        W75301  28.597  30.931   0.449
16041W        W75302   9.382  23.115  10.941
16042W        W75303  30.500   8.208  10.032
16043W        W75304   3.773  41.038   0.762
16044W        W75305   9.808  33.919  13.477
16045W        W75306  41.977  43.872  11.512
16046W        W75307  11.231  43.765   4.629
16047W        W75308  34.946  31.477  13.384
16048W        W75309  35.995  10.718   1.430
16049W        W75310  29.503  13.258   3.347
16050W        W75311   5.909  36.581   4.327
16051W        W75312  10.709   7.193   4.233
16052W        W75313  17.558  39.388   4.249
16053W        W75314  23.207   0.442  11.442
16054W        W75315  34.406   3.292   1.920
16055W        W75316   0.770  26.115   1.324
16056W        W75317  20.243  27.514   2.753
16057W        W75318   5.434  22.676  14.506
16058W        W75319  21.262  16.105   4.186
16059W        W75320  43.447  26.553  10.031
16060W        W75321   4.286  12.696   4.256
16061W        W75322  16.244  33.478   1.253
16062W        W75323  13.232  38.861  13.308
16063W        W75324  24.689  14.716   1.365
16064W        W75325  32.584  40.972  13.918
16065W        W75326  31.972  41.526   3.783
16066W        W75327   7.203   8.891  13.969
16067W        W75328  41.843  31.495  10.575
16068W        W75329  35.940  44.835  10.431
16069W        W75330  37.484  16.705   0.309
16070W        W75331   1.469   8.691  14.820
16071W        W75332  26.690  14.122  12.421
16072W        W75333  40.389  26.545  11.429
16073W        W75334  32.593   9.757   3.807
16074W        W75335  24.536  26.462   0.929
16075W        W75336  17.558  34.567   3.757
16076W        W75337  40.868  43.953   0.802
16077W        W75338  15.325   7.255   2.776
16078W        W75339   9.279   0.374  10.567
16079W        W75340  34.568  22.040  11.410
16080W        W75341   9.728  15.777  10.474
16081W        W75342  37.554  33.105  13.868
16082W        W75343   7.372  39.025   0.907
16083W        W75344   8.239  34.385  11.857
16084W        W75345  41.833  17.184  12.861
16085W        W75346  17.763  18.276   1.337
16086W        W75347   8.863   3.734  11.986
16087W        W75348  32.136  20.570   1.804
16088W        W75349  12.688   6.808  11.956
16089W        W75350  42.419   1.958   3.271
16090W        W75351  13.195  37.956   3.285
16091W        W75352   8.343  40.801   4.200
16092W        W75353  28.164  18.746  14.317
16093W        W75354  33.529  33.975   1.265
16094W        W75355  29.471  20.225   0.311
16095W        W75356  40.359   6.822   2.857
16096W        W75357   7.885  31.107  10.948
16097W        W75358  43.953  18.762  13.993
16098W        W75359  15.646  42.506   1.438
16099W        W75360  18.741  41.370  13.360
16100W        W75361  12.180  30.115   0.375
16101W        W75362  12.722  18.556  13.490
16102W        W75363   1.285   2.913   0.930
16103W        W75364   2.722   8.164  10.534
16104W        W75365  37.338   6.291  11.406
16105W        W75366  25.604  30.563   0.261
16106W        W75367  44.876  28.068   3.214
16107W        W75368  10.672   0.344   1.427
16108W        W75369  20.184   5.911  12.356
16109W        W75370  27.646  41.471   3.811
16110W        W75371  18.199  25.092  10.450
16111W        W75372  26.102  17.291   2.212
16112W        W75373  26.649  18.263  12.032
16113W        W75374  20.148  28.155  10.565
16114W        W75375  16.734  43.773   0.867
16115W        W75376   7.236   2.961   0.327
16116W        W75377  38.076  23.539   2.404
16117W        W75378  36.976  27.093   3.784
16118W        W75379   0.357  43.840  11.597
16119W        W75380   6.697  42.837   4.308
16120W        W75381  42.315  43.891  10.921
16121W        W75382  30.494  14.189  14.853
16122W        W75383  13.341   5.891   4.794
16123W        W75384  30.157   0.453   3.280
16124W        W75385  20.202  22.677   4.261
16125W        W75386  41.893   6.297   4.306
16126W        W75387   5.745  13.226   2.251
16127W        W75388  35.088  34.374  10.957
16128W        W75389  36.871   5.288  12.916
16129W        W75390  28.076  33.439  10.985
16130W        W75391  20.565  26.508   1.335
16131W        W75392  20.173  24.642   4.248
16132W        W75393  30.109  40.493  13.520
16133W        W75394  19.058  42.999  10.966
16134W        W75395  41.955   8.285   4.758
16135W        W75396  30.636  30.102  12.473
16136W        W75397  35.926  12.843  14.908
16137W        W75398  25.673  40.523  14.280
16138W        W75399  41.397  21.743  14.962
16139W        W75400  38.894  20.710   9.920
16140W        W75401  40.483  28.563   4.663
16141W        W75402  16.633   1.850  10.432
16142W        W75403  32.548  37.528   2.244
16143W        W75404  42.882  14.617   2.222
16144W        W75405   3.308  12.153   1.360
16145W        W75406  14.331  18.717   3.292
16146W        W75407  16.704  17.236  11.401
16147W        W75408   1.785   1.337  14.309
16148W        W75409  10.306  14.237   4.243
16149W        W75410  36.531   9.207   2.687
16150W        W75411  33.620  16.133  13.434
16151W        W75412   1.785  35.481   1.348
16152W        W75413  31.564  15.240   1.235
16153W        W75414  15.749  26.059  11.934
16154W        W75415  23.180  32.624   0.900
16155W        W75416   1.433  22.160   0.783
16156W        W75417   3.939  13.816  14.883
16157W        W75418  18.195   4.793   4.610
16158W        W75419  23.578   3.445  10.524
16159W        W75420  16.589   3.890   2.325
16160W        W75421  34.074  18.201   3.286
16161W        W75422  12.856  23.628  10.472
16162W        W75423  17.627  38.820  11.405
16163W        W75424   4.235  33.964   0.931
16164W        W75425   4.240  29.516   2.215
16165W        W75426  29.476  23.057  12.074
16166W        W75427  40.831  15.687   0.917
16167W        W75428  27.645  30.013   5.580
16168W        W75429  33.513  10.206  13.816
16169W        W75430  32.619  15.264   1.750
16170W        W75431  31.951   0.248  13.803
16171W        W75432   3.377  25.597   4.226
16172W        W75433  12.190  41.310   3.320
16173W        W75434  38.457  44.896   1.311
16174W        W75435  16.712  24.989  14.485
16175W        W75436   3.740  15.093  12.937
16176W        W75437  10.175   9.791  10.153
16177W        W75438  32.993   1.948   3.713
16178W        W75439  14.136   8.400  14.864
16179W        W75440   7.409  39.441   2.883
16180W        W75441  26.503   9.368   2.753
16181W        W75442  41.011   6.340   3.201
16182W        W75443  35.991  13.758   1.833
16183W        W75444  35.477  12.258   3.314
16184W        W75445  24.558   9.369   3.250
16185W        W75446  22.103   6.901  11.566
16186W        W75447  26.145  25.204   1.358
16187W        W75448   4.922  29.592  13.388
16188W        W75449  32.948  15.218  13.972
16189W        W75450  22.231  33.059  12.521
16190W        W75451  33.963  33.413  14.287
16191W        W75452  18.261  22.558   5.171
16192W        W75453  24.504  32.548   2.866
16193W        W75454  37.427   1.745   0.881
16194W        W75455  27.025  40.830   3.664
16195W        W75456  37.975  25.647  11.029
16196W        W75457  31.582  38.935   2.201
16197W        W75458  39.884  36.590   2.410
16198W        W75459  12.804  38.458   4.742
16199W        W75460   1.298  41.994  14.885
16200W        W75461  39.333   0.983  13.508
16201W        W75462  11.207   7.192   0.739
16202W        W75463  26.561   7.262   9.945
16203W        W75464   1.411  29.448   3.288
16204W        W75465  33.891   3.759  14.350
16205W        W75466  12.356   0.915   2.361
16206W        W75467  14.103  17.225   5.095
16207W        W75468  34.120  32.581  12.999
16208W        W75469  24.549  14.671  14.419
16209W        W75470  26.074  15.255   4.282
16210W        W75471  11.185  38.496  12.904
16211W        W75472   7.672  20.222  12.829
16212W        W75473  43.413  20.631  11.528
16213W        W75474  18.126  12.618  12.971
16214W        W75475  38.065   0.942  10.931
16215W        W75476  23.177   0.254  13.969
16216W        W75477  33.892  39.437  11.436
16217W        W75478  36.935  18.265  11.473
16218W        W75479   6.825  43.954   1.305
16219W        W75480  40.018  43.395  11.416
16220W        W75481  10.858   4.767  11.894
16221W        W75482  25.972  31.548  11.910
16222W        W75483  13.287  26.012   1.405
16223W        W75484  30.658  32.930  13.982
16224W        W75485  33.410  31.405  12.911
16225W        W75486  25.552   8.341   4.705
16226W        W75487  10.276  19.700  12.077
16227W        W75488   0.345  28.534   2.759
16228W        W75489   8.400  16.728   4.777
16229W        W75490  33.006  25.213   4.191
16230W        W75491  22.620  22.727   4.294
16231W        W75492  39.960  28.569   4.646
16232W        W75493  20.082  18.118  10.599
16233W        W75494  13.241  28.023  11.109
16234W        W75495  16.189   7.178   4.147
16235W        W75496  44.966  27.950   1.922
16236W        W75497   7.800  10.235   0.807
16237W        W75498   0.266  25.668   2.367
16238W        W75499  11.174  11.221  13.339
16239W        W75500  19.665  27.633  13.369
16240W        W75501   5.838  26.473   2.405
16241W        W75502  17.113  39.490   0.750
16242W        W75503  41.403  35.485  11.477
16243W        W75504  43.918  25.642  14.316
16244W        W75505  21.676  42.468   3.718
16245W        W75506  26.609   6.278  11.482
16246W        W75507   0.864  18.747   5.320
16247W        W75508  31.598   6.810  11.019
16248W        W75509  31.016  23.628  13.810
16249W        W75510  12.210  23.145  11.120
16250W        W75511   2.353  30.579  11.974
16251W        W75512   8.288  15.210  14.970
16252W        W75513  36.467   3.762  12.955
16253W        W75514  39.835  28.143   2.229
16254W        W75515  22.067   8.872   2.772
16255W        W75516  13.120  10.832   3.633
16256W        W75517  33.446   4.827   4.338
16257W        W75518  15.135   3.281   1.261
16258W        W75519  33.017  36.566  12.877
16259W        W75520  41.951  17.611  11.882
16260W        W75521  16.674  13.819  12.869
16261W        W75522   7.837  31.627  11.058
16262W        W75523  36.537  33.049   4.232
16263W        W75524  38.990   8.668   3.709
16264W        W75525  10.274  16.195   3.160
16265W        W75526  12.268  29.171  12.982
16266W        W75527  34.897  20.688   0.315
16267W        W75528   4.390  43.513   2.342
16268W        W75529   3.458  20.105   0.736
16269W        W75530  16.587  15.213   0.349
16270W        W75531   5.793  17.189  12.056
16271W        W75532  26.188  27.475  14.486
16272W        W75533   9.317  28.437  11.100
16273W        W75534  15.681  29.500   3.850
16274W        W75535  10.697  12.667  12.010
16275W        W75536  33.061  23.217   4.283
16276W        W75537  33.046  43.998   4.670
16277W        W75538   7.721  11.646  13.889
16278W        W75539  16.680  22.734   1.258
16279W        W75540  32.544  20.663  14.329
16280W        W75541  35.026  43.379  12.888
16281W        W75542  22.096  12.131   4.744
16282W        W75543  36.028  43.891  14.849
16283W        W75544  42.983   9.823   2.236
16284W        W75545  28.025  42.998  13.845
16285W        W75546  42.281  22.740   3.634
16286W        W75547  29.995  26.119   1.308
16287W        W75548  11.138  12.130   1.785
16288W        W75549  16.120  23.149   3.838
16289W        W75550  40.517  12.835  14.491
16290W        W75551  11.636  19.276  12.930
16291W        W75552  13.621   4.325  12.466
16292W        W75553  13.754  26.960   3.315
16293W        W75554  14.644  21.166  10.118
16294W        W75555  21.027  10.299   3.153
16295W        W75556   9.783   6.881  11.537
16296W        W75557  19.271  31.140  14.910
16297W        W75558  11.659  12.820  13.329
16298W        W75559   2.729   4.255  14.283
16299W        W75560   3.224  34.494  13.890
16300W        W75561  42.349  31.448  13.984
16301W        W75562  19.068  41.326  14.918
16302W        W75563  14.715  34.476  14.442
16303W        W75564  41.465   7.811   0.735
16304W        W75565  10.228  44.262  11.901
16305W        W75566  36.022  14.095   4.231
16306W        W75567  43.322  42.301  11.378
16307W        W75568  19.245  18.228   9.671
16308W        W75569   3.920  19.596   3.679
16309W        W75570  10.684  43.928   2.398
16310W        W75571  12.850  12.298  11.536
16311W        W75572  41.923  26.125  11.423
16312W        W75573  12.795  12.353  12.965
16313W        W75574  43.905   8.693  10.574
16314W        W75575  39.449  41.457  13.328
16315W        W75576  13.645  39.905   3.287
16316W        W75577  37.439  13.141  14.851
16317W        W75578  22.721  43.813   1.704
16318W        W75579  21.194   0.273   1.263
16319W        W75580  29.628  21.642  12.912
16320W        W75581  35.077  43.322   1.331
16321W        W75582  15.088  20.606  13.332
16322W        W75583  30.959  42.829  14.299
16323W        W75584  21.662  44.382   4.218
16324W        W75585  15.694  17.561   1.340
16325W        W75586   0.921  35.035   1.339
16326W        W75587  31.488   1.785   2.746
16327W        W75588  18.765  43.780   1.285
16328W        W75589  33.461  30.935   0.269
16329W        W75590   7.878  36.847   1.875
16330W        W75591  24.105  26.970   0.409
16331W        W75592  14.109  13.110   5.105
16332W        W75593  31.490  18.699   3.343
16333W        W75594   4.904   9.266   1.921
16334W        W75595  22.694  38.957   5.238
16335W        W75596  40.520  19.196   3.324
16336W        W75597   5.742  30.444   1.792
16337W        W75598  39.386  32.139   0.775
16338W        W75599   5.218  24.521  13.904
16339W        W75600  33.087   7.224   9.978
16340W        W75601  14.192   0.941   0.294
16341W        W75602  21.582  30.521  13.034
16342W        W75603  30.915  29.650  10.916
16343W        W75604   1.360  41.294   3.715
16344W        W75605  33.439   1.403   2.811
16345W        W75606   5.863  28.060  10.436
16346W        W75607   2.932  23.100  11.554
16347W        W75608  28.026   1.405  14.380
16348W        W75609   6.710  39.895   4.620
16349W        W75610  10.299  37.043   0.329
16350W        W75611  44.974   0.481   0.383
16351W        W75612  20.060  19.229  11.950
16352W        W75613  11.245  43.430   4.346
16353W        W75614  16.242  13.803   0.774
16354W        W75615  21.748  40.047  10.894
16355W        W75616   9.806  27.988  10.525
16356W        W75617   3.804   9.235  14.891
16357W        W75618  10.219  32.078   2.678
16358W        W75619   4.797   2.826   5.132
16359W        W75620   1.750   9.831   4.723
16360W        W75621  26.117  14.095   2.741
16361W        W75622  28.041  23.617   3.700
16362W        W75623  28.175   6.843  12.875
16363W        W75624   5.778  17.169   3.839
16364W        W75625  42.914   9.306   0.396
16365W        W75626   2.463  16.606   4.824
16366W        W75627  33.513  12.179   0.256
16367W        W75628   7.315  37.035  14.759
16368W        W75629  35.999  18.187   4.707
16369W        W75630  24.488   7.397   2.334
16370W        W75631  21.559  44.831   2.691
16371W        W75632  29.511  39.526   0.735
16372W        W75633  41.349  15.682  11.955
16373W        W75634  14.792  40.864  11.080
16374W        W75635  17.779  23.107   3.846
16375W        W75636  12.160   0.853  12.361
16376W        W75637  37.042  40.361  13.011
16377W        W75638  10.277  36.508  11.592
16378W        W75639  35.109   8.665  12.030
16379W        W75640  12.269  17.129  11.023
16380W        W75641  32.531  18.559  14.334
16381W        W75642   4.334   0.334   4.628
16382W        W75643  36.096  38.373   1.760
16383W        W75644  41.353  34.534   5.292
16384W        W75645   4.705  35.864  11.462
16385W        W75646  40.864  28.496  13.480
16386W        W75647  28.178  15.131  10.531
16387W        W75648  34.484  29.645  11.095
16388W        W75649  28.992  17.770  11.865
16389W        W75650  20.545  44.810   1.850
16390W        W75651  24.008  15.117  12.856
16391W        W75652   3.726  38.968   1.731
16392W        W75653  12.735   4.845  10.968
16393W        W75654  20.653  22.699   2.890
16394W        W75655  44.950  25.629   4.825
16395W        W75656  29.981  33.023  12.368
16396W        W75657   9.726   0.252  12.476
16397W        W75658   9.254   7.709   4.230
16398W        W75659  11.642   6.679  10.613
16399W        W75660  14.297   0.757   4.827
16400W        W75661   3.240   8.684  12.459
16401W        W75662  37.342  14.812   2.786
16402W        W75663  41.414  23.207   5.241
16403W        W75664  40.029  14.803  11.403
16404W        W75665  24.635  38.545   3.301
16405W        W75666  20.631  21.742  11.554
16406W        W75667  29.992   4.911  13.313
16407W        W75668  28.524   6.879  12.038
16408W        W75669  35.945   4.945   1.708
16409W        W75670  11.248  38.390   3.157
16410W        W75671  12.220  20.084  13.860
16411W        W75672  18.668   8.661   0.729
16412W        W75673  23.532  35.950   0.924
16413W        W75674  34.404  15.287   2.853
16414W        W75675  21.527  28.952   0.763
16415W        W75676   8.221  19.040  13.814
16416W        W75677  15.119   4.333   3.729
16417W        W75678   2.920   7.792  11.444
16418W        W75679  14.673  36.093   2.681
16419W        W75680  25.634   0.416  14.883
16420W        W75681  32.509  29.964   1.932
16421W        W75682  32.962  40.413  12.456
16422W        W75683  12.323  41.853  11.882
16423W        W75684  25.635  14.642  13.419
16424W        W75685  27.486  13.345  13.980
16425W        W75686   1.447  38.500   1.811
16426W        W75687  29.978  14.679  12.837
16427W        W75688   9.172   6.874  11.121
16428W        W75689   8.203  36.980  13.426
16429W        W75690  34.442  14.324  14.848
16430W        W75691  43.316  31.598  11.598
16431W        W75692  15.262   6.690  13.810
16432W        W75693  27.550   7.872  11.914
16433W        W75694  39.923  13.233  12.472
16434W        W75695  20.197  26.703   1.374
16435W        W75696  29.594  12.134   4.787
16436W        W75697  31.579  40.387   0.819
16437W        W75698  32.139  28.589  12.509
16438W        W75699  42.871  21.216   4.694
16439W        W75700  19.204   4.849  11.588
16440W        W75701  11.688  14.118   0.290
16441W        W75702  37.349  27.606  13.388
16442W        W75703  26.696   3.279  12.928
16443W        W75704  38.467  24.606  12.399
16444W        W75705  16.672  13.770   4.812
16445W        W75706  21.677  19.706   0.804
16446W        W75707  28.496  12.152   0.921
16447W        W75708  30.430  37.956  14.019
16448W        W75709   8.213  10.858  12.427
16449W        W75710  32.623  35.583   4.656
16450W        W75711  19.208  21.719   4.138
16451W        W75712  30.042  36.510  12.456
16452W        W75713  29.553  17.790  12.830
16453W        W75714  40.386   3.750  11.513
16454W        W75715  43.319  27.987   3.736
16455W        W75716   5.272  38.419  14.004
16456W        W75717  19.563  20.124   4.836
16457W        W75718  15.181  25.481   0.326
16458W        W75719  37.888  27.968   1.307
16459W        W75720   8.857  26.051  14.482
16460W        W75721  22.732  40.821   4.342
16461W        W75722  37.051  19.689   0.357
16462W        W75723  37.344  23.087   3.804
16463W        W75724  22.062  37.837   3.709
16464W        W75725  37.845  30.936   0.903
16465W        W75726  14.648  24.042  11.117
16466W        W75727  27.987  23.997  11.572
16467W        W75728  28.144   8.350   2.825
16468W        W75729   1.344  38.423   0.813
16469W        W75730  34.946  21.087   1.708
16470W        W75731   6.712  10.808  10.563
16471W        W75732  17.695  33.569   0.340
16472W        W75733  33.031  21.031   4.834
16473W        W75734  17.267  44.465   3.235
16474W        W75735   9.821  40.020  12.933
16475W        W75736  42.367  33.000   1.257
16476W        W75737   3.930  20.170   4.669
16477W        W75738  19.213  43.499  12.870
16478W        W75739  24.012  43.824   1.910
16479W        W75740  31.450  38.928   0.926
16480W        W75741  36.525   5.299   1.245
16481W        W75742  20.720   0.867  11.068
16482W        W75743  15.118  13.294  14.394
16483W        W75744   8.242  39.474  14.276
16484W        W75745  24.647   3.339  13.515
16485W        W75746  31.605  35.966  11.576
16486W        W75747  16.598  18.167   3.643
16487W        W75748  26.515  24.145  14.872
16488W        W75749  41.456   0.836   0.863
16489W        W75750   3.848  25.156   4.192
16490W        W75751  30.911  30.472   4.790
16491W        W75752  11.315  16.097  13.911
16492W        W75753  27.974  37.563  10.483
16493W        W75754  39.536   7.178  11.911
16494W        W75755  20.609   7.306  14.011
16495W        W75756  24.665  41.019  12.046
16496W        W75757  31.090  34.464  14.978
16497W        W75758  15.764  25.978   3.182
16498W        W75759  12.325  34.369  14.354
16499W        W75760  42.800  30.444   0.465
16500W        W75761  10.698  38.995  13.312
16501W        W75762  23.201   1.901   3.663
16502W        W75763  42.420  11.177   1.875
16503W        W75764   8.762  37.862   2.256
16504W        W75765  20.107  37.052   1.417
16505W        W75766   7.186  32.523   0.952
16506W        W75767  19.718  36.949   4.256
16507W        W75768  29.015   7.737   3.680
16508W        W75769   9.774   9.774   2.345
16509W        W75770  34.513  21.202  14.321
16510W        W75771  19.711  33.904  11.611
16511W        W75772  11.300   6.207   2.314
16512W        W75773   1.420  42.852  14.370
16513W        W75774  27.647  36.400  12.859
16514W        W75775  17.614  13.830  11.443
16515W        W75776   0.825  43.934  11.434
16516W        W75777  29.089  26.532  12.932
16517W        W75778  20.083  12.689  14.853
16518W        W75779  27.669  37.496   5.093
16519W        W75780   3.320   9.880  11.066
16520W        W75781  32.542   2.251  13.420
16521W        W75782  22.136  13.268  13.964
16522W        W75783  37.002  37.424   2.299
16523W        W75784  43.981  15.792   4.179
16524W        W75785  29.030  20.564   2.794
16525W        W75786  15.113  38.470  11.460
16526W        W75787  25.012  31.957   4.622
16527W        W75788  24.523  20.176   1.772
16528W        W75789  32.133  26.596  11.863
16529W        W75790  37.487  33.604   3.283
16530W        W75791  37.403  21.120   3.194
16531W        W75792  29.654  40.388  14.991
16532W        W75793  17.634   7.318  13.990
16533W        W75794   0.782  26.472   4.770
16534W        W75795   0.823   8.777  14.762
16535W        W75796   0.424  38.386   4.705
16536W        W75797  37.062  30.656   2.231
16537W        W75798  30.088  44.493  14.438
16538W        W75799   8.716  19.085   2.316
16539W        W75800  38.552   0.318  10.409
16540W        W75801  20.248  10.691  12.835
16541W        W75802   9.655  17.109  12.526
16542W        W75803  18.594  43.364  14.908
16543W        W75804   5.888   1.357  10.547
16544W        W75805  15.593   0.420   3.676
16545W        W75806  27.960  25.035   1.215
16546W        W75807  10.836  23.085  14.440
16547W        W75808   0.743   1.930  14.502
16548W        W75809   5.237  31.139   3.180
16549W        W75810   3.810  31.148   4.675
16550W        W75811  39.555  22.207  10.595
16551W        W75812  19.747  42.411  12.977
16552W        W75813  35.484   5.690   1.708
16553W        W75814   8.749   2.935   2.662
16554W        W75815   5.260  42.949  14.967
16555W        W75816   3.762  42.922   1.246
16556W        W75817  27.175   1.443   4.137
16557W        W75818  35.885  36.948   0.931
16558W        W75819   1.481  30.067   4.679
16559W        W75820  38.415  36.935  13.983
16560W        W75821  18.613  35.451   2.739
16561W        W75822  38.954  19.140   0.406
16562W        W75823  10.224  34.549  14.932
16563W        W75824   7.670   7.742   0.406
16564W        W75825  27.981   6.747   1.443
16565W        W75826  11.723  39.041   5.123
16566W        W75827  36.048  40.826   0.867
16567W        W75828  29.451  37.926  13.428
16568W        W75829  30.624   2.934   4.329
16569W        W75830  28.534  43.298  13.986
16570W        W75831  19.650  30.059  14.392
16571W        W75832  16.770   7.767  10.020
16572W        W75833  33.130  21.179  11.985
16573W        W75834  15.821  27.045  11.574
16574W        W75835  22.146  43.387  12.566
16575W        W75836  16.801  40.925  13.971
16576W        W75837  43.896   9.202  10.552
16577W        W75838  11.738  23.687   1.908
16578W        W75839  19.752  16.277  13.938
16579W        W75840  25.476   3.954   1.828
16580W        W75841  24.032  35.523   0.754
16581W        W75842  38.945  34.119  14.345
16582W        W75843  29.539  14.608  12.935
16583W        W75844  30.540  39.481  12.029
16584W        W75845   3.769  23.050  10.638
16585W        W75846  16.280  25.504  13.959
16586W        W75847   9.822  20.105   0.244
16587W        W75848  19.131  38.033   0.411
16588W        W75849  23.615  31.026  12.888
16589W        W75850  27.636  11.663  11.397
16590W        W75851  25.713  32.578   1.229
16591W        W75852   2.357   2.367  14.438
16592W        W75853  18.257  18.751  10.153
16593W        W75854  17.583   4.258   4.609
16594W        W75855  15.274  26.963   1.268
16595W        W75856  26.640   0.358   4.779
16596W        W75857  19.695   6.204  13.398
16597W        W75858   8.320   4.757  14.880
16598W        W75859  42.844  44.799   2.693
16599W        W75860  19.097  43.281  11.449
16600W        W75861  39.377  37.979   1.758
16601W        W75862  15.082  41.368  13.441
16602W        W75863  35.909  31.410  13.847
16603W        W75864  17.764  15.268   0.296
16604W        W75865  14.685  11.845   3.739
16605W        W75866  13.739  11.236  12.927
16606W        W75867  40.880  10.665  13.992
16607W        W75868  30.567  11.628   4.174
16608W        W75869  27.567  13.773   1.430
16609W        W75870  29.163  39.885  13.328
16610W        W75871  36.990  19.773   4.765
16611W        W75872  41.317  32.988  13.031
16612W        W75873  44.885  24.543   2.342
16613W        W75874  15.159  29.651   2.834
16614W        W75875  11.328  31.620   4.284
16615W        W75876   0.340  12.636  14.926
16616W        W75877  44.470  30.996  12.989
16617W        W75878  12.794  25.963  12.011
16618W        W75879   1.472  24.109   3.648
16619W        W75880  35.408  17.133  14.791
16620W        W75881   6.881   8.219  11.057
16621W        W75882   7.214  33.567   0.292
16622W        W75883  26.498  44.355   1.245
16623W        W75884  26.014  40.027  11.918
16624W        W75885   2.927  10.318   3.767
16625W        W75886  36.934  16.230  11.024
16626W        W75887  33.048  15.264  10.639
16627W        W75888  11.344  41.041  12.517
16628W        W75889   7.405  32.546  11.879
16629W        W75890  27.553   4.770  10.467
16630W        W75891  32.459  26.619   2.331
16631W        W75892  15.197  34.044  14.426
16632W        W75893   4.304  14.119   2.748
16633W        W75894  28.124  34.881   4.230
16634W        W75895  37.507   4.927   1.428
16635W        W75896  24.106  34.498   9.949
16636W        W75897  13.730   6.427   1.215
16637W        W75898   4.221  24.006   3.643
16638W        W75899  28.126  24.025  12.054
16639W        W75900  30.091   8.727   3.294
16640W        W75901  20.542  10.666   3.207
16641W        W75902  16.309  24.539  14.392
16642W        W75903   7.722   9.697   1.268
16643W        W75904  41.400  41.538  11.883
16644W        W75905   8.862   5.919   0.829
16645W        W75906  41.367  32.444  10.592
16646W        W75907  30.081  36.092  13.510
16647W        W75908  44.995   3.815  10.475
16648W        W75909  42.482  12.206   1.341
16649W        W75910  26.159   6.229  10.994
16650W        W75911   3.838  33.431   2.238
16651W        W75912  24.574  12.612  12.849
16652W        W75913  41.880  35.508  13.940
16653W        W75914  22.743  37.357   9.987
16654W        W75915  42.016   9.842   1.361
16655W        W75916  38.051  22.105   1.351
16656W        W75917  36.857  40.336  11.934
16657W        W75918  27.183  42.002  12.971
16658W        W75919   5.274  24.131   1.395
16659W        W75920  23.644  42.873  11.417
16660W        W75921  15.751   2.376  10.437
16661W        W75922   3.760  12.284   4.729
16662W        W75923  29.138  13.337   1.317
16663W        W75924  20.547  41.388  14.830
16664W        W75925  29.019  39.867   3.270
16665W        W75926  41.455  26.092  13.473
16666W        W75927  12.301  10.235  11.062
16667W        W75928  44.839  14.259  13.984
16668W        W75929  21.118  35.082  13.388
16669W        W75930  44.460   3.447  10.991
16670W        W75931  30.479   8.401  10.992
16671W        W75932  43.331  24.121  12.418
16672W        W75933   7.231  12.261  10.918
16673W        W75934  32.934   8.383   1.280
16674W        W75935  34.118  15.787   2.789
16675W        W75936  26.633  23.048   4.341
16676W        W75937  12.838  19.538  10.983
16677W        W75938   6.776   5.218   3.189
16678W        W75939  22.703   6.317  11.032
16679W        W75940  19.769   8.819   4.326
16680W        W75941  42.853  20.706  10.451
16681W        W75942  43.816  25.103  13.857
16682W        W75943  42.526   8.267  12.434
16683W        W75944   7.727  33.603   5.211
16684W        W75945   3.773  17.782  11.444
16685W        W75946  16.307  38.450   2.380
16686W        W75947  24.607   0.755  14.340
16687W        W75948   1.917  34.981   4.833
16688W        W75949  14.104   5.735   0.762
16689W        W75950  37.538  44.944   0.272
16690W        W75951  10.721   6.917  13.943
16691W        W75952  21.529  32.076   4.289
16692W        W75953  31.098  27.102   2.902
16693W        W75954   1.449  25.094   4.769
16694W        W75955  27.448  34.986   0.916
16695W        W75956  18.160  11.213   4.288
16696W        W75957  29.456  37.843  14.794
16697W        W75958   0.899  38.550  13.496
16698W        W75959  30.943   4.720  10.080
16699W        W75960   0.780  38.893  12.579
16700W        W75961   3.896  12.847   3.188
16701W        W75962   5.792  16.764   4.130
16702W        W75963  23.492  18.606  14.379
16703W        W75964  35.594   1.356  10.562
16704W        W75965  18.733  36.919  11.553
16705W        W75966  28.082  17.140   0.815
16706W        W75967  37.990  37.967   1.704
16707W        W75968  19.143   0.338   2.191
16708W        W75969  43.496  14.172  10.439
16709W        W75970  22.616   0.780  14.378
16710W        W75971  44.784  24.109  14.341
16711W        W75972  41.479  44.464  12.875
16712W        W75973  19.085  30.073   2.691
16713W        W75974  23.557  32.622  11.963
16714W        W75975  19.608   7.721  10.988
16715W        W75976  36.978  43.449   3.636
16716W        W75977  41.298  38.831   1.349
16717W        W75978   0.322  10.346  13.319
16718W        W75979  38.865  28.959   9.995
16719W        W75980   1.829  29.542   4.678
16720W        W75981   7.172  39.971  13.986
16721W        W75982  30.544  34.399   2.277
16722W        W75983  44.901  36.995   9.605
16723W        W75984   1.924   3.730  14.769
16724W        W75985  21.069  21.582  14.806
16725W        W75986  14.266  20.215  10.623
16726W        W75987   5.436  11.624   2.671
16727W        W75988  29.055  37.855   1.710
16728W        W75989  36.464  39.377  13.333
16729W        W75990  30.567  44.363   1.918
16730W        W75991  29.573  12.321  13.424
16731W        W75992   7.802  14.275   2.203
16732W        W75993  38.036  43.878  14.893
16733W        W75994   1.909  22.651  14.290
16734W        W75995  25.481  25.185   1.361
16735W        W75996  30.580  20.214   0.358
16736W        W75997  28.170  33.492   3.775
16737W        W75998   6.786  22.115   1.373
16738W        W75999   9.235   8.345  14.923
16739W        W76000  43.329   0.311   2.283
16740W        W76001  18.567  31.039  13.321
16741W        W76002  38.941  40.491   0.445
16742W        W76003  16.749  25.109  11.023
16743W        W76004   2.943   6.329   2.704
16744W        W76005   1.258   5.433  14.944
16745W        W76006  42.855  44.304   2.271
16746W        W76007   2.350  25.107  10.408
16747W        W76008   8.314   6.323   1.732
16748W        W76009  27.032  24.175  14.845
16749W        W76010  43.346   9.701  11.496
16750W        W76011  38.904  36.561  13.912
16751W        W76012  35.473   4.699  12.006
16752W        W76013  19.733   3.796   0.477
16753W        W76014  14.676  41.422   3.819
16754W        W76015   8.879  17.156   3.716
16755W        W76016  25.195  28.060   4.278
16756W        W76017  42.366   4.859  14.324
16757W        W76018  12.175  38.426  13.062
16758W        W76019   6.744  24.609   1.227
16759W        W76020   2.895  31.985   2.766
16760W        W76021  31.646  15.272  13.825
16761W        W76022  16.781  42.788  12.040
16762W        W76023   0.335  22.563  14.324
16763W        W76024  28.453  13.177   1.287
16764W        W76025   1.460  12.687   3.815
16765W        W76026  33.490  35.878  12.060
16766W        W76027  16.173  26.578   1.895
16767W        W76028  37.004  13.170   2.882
16768W        W76029  14.607   4.868   9.569
16769W        W76030   1.744   5.733   2.364
16770W        W76031  11.675   6.314   4.158
16771W        W76032  34.933  30.560   4.179
16772W        W76033  29.977  41.863  10.934
16773W        W76034  14.318  26.540  10.971
16774W        W76035  19.134  35.857   1.273
16775W        W76036   6.348  32.599  10.465
16776W        W76037  24.607  13.785   2.686
16777W        W76038  18.125   8.285   2.285
16778W        W76039  24.004  17.795  14.486
16779W        W76040   7.807  32.891   3.856
16780W        W76041  21.646  24.683   0.746
16781W        W76042   0.474  28.485   4.232
16782W        W76043  18.550  30.048   4.624
16783W        W76044  26.702  23.048  12.402
16784W        W76045  41.815  43.903  11.907
16785W        W76046  33.535   6.905  14.028
16786W        W76047  20.157  26.099  10.942
16787W        W76048   9.157   3.794  12.495
16788W        W76049  20.225  29.031   3.777
16789W        W76050   7.250   7.297   0.751
16790W        W76051  37.981  26.667  13.950
16791W        W76052   6.703  39.014   1.777
16792W        W76053   7.825  18.721  12.519
16793W        W76054  26.623  41.490   4.698
16794W        W76055   2.798   5.842   0.844
16795W        W76056  37.956  12.837  14.974
16796W        W76057   8.860  14.252   4.334
16797W        W76058  42.961   8.370   0.435
16798W        W76059  15.749  34.968  10.499
16799W        W76060  23.112   9.799   4.338
16800W        W76061  20.260  22.542  12.479
16801W        W76062  33.529  16.111   0.774
16802W        W76063  31.133   8.397   0.916
16803W        W76064   4.254  23.228  11.520
16804W        W76065  34.878  22.634   0.297
16805W        W76066  40.321  23.646   1.716
16806W        W76067  40.954  30.133   9.575
16807W        W76068  26.014  31.136  11.046
16808W        W76069  21.113   6.789   4.769
16809W        W76070   3.387  22.652   1.774
16810W        W76071   1.820  44.319  12.548
16811W        W76072  19.626   6.378   3.278
16812W        W76073  34.002  42.838   2.299
16813W        W76074  41.514  14.667  12.579
16814W        W76075  33.451  18.123   0.915
16815W        W76076  43.927  13.813  10.550
16816W        W76077  36.569   0.791   2.214
16817W        W76078  36.074  13.618  13.034
16818W        W76079  44.826  22.157   2.321
16819W        W76080  19.620  27.136   5.692
16820W        W76081  39.020  36.089   0.251
16821W        W76082   6.401  12.339  12.022
16822W        W76083   0.467   3.407   1.451
16823W        W76084  32.923  25.674  11.985
16824W        W76085  39.004  17.091  10.556
16825W        W76086  17.267  29.494  13.438
16826W        W76087  14.655  34.021   0.853
16827W        W76088   4.914  36.989   0.300
16828W        W76089   6.894  32.944  11.544
16829W        W76090  15.808  21.727   2.283
16830W        W76091  36.065  30.076   3.689
16831W        W76092  40.872  13.621  11.970
16832W        W76093  13.791   3.382  10.007
16833W        W76094  22.510  22.606   3.814
16834W        W76095  29.596  13.825   3.289
16835W        W76096   5.251  15.768  14.799
16836W        W76097  36.071   5.804  14.511
16837W        W76098   7.243   5.801  10.937
16838W        W76099  35.089  11.831   4.725
16839W        W76100  42.928  19.100  10.420
16840W        W76101   6.891  13.695  10.901
16841W        W76102   5.801   4.285  11.465
16842W        W76103  26.622  38.441  12.086
16843W        W76104  10.239   6.212  13.332
16844W        W76105  37.838  35.965  13.818
16845W        W76106  22.131  42.793   2.838
16846W        W76107  25.631  23.122   2.196
16847W        W76108  10.311  26.621  13.021
16848W        W76109  24.699   5.398  12.851
16849W        W76110  36.079   3.280   1.276
16850W        W76111  37.390  20.560   1.738
16851W        W76112  41.890  15.249  12.538
16852W        W76113  44.500  34.541  10.642
16853W        W76114  13.146   7.232   9.924
16854W        W76115  36.853  22.625   1.737
16855W        W76116  14.708   7.232   4.783
16856W        W76117  24.200  11.816  14.901
16857W        W76118  25.186  34.438   2.333
16858W        W76119  31.610  30.082   0.749
16859W        W76120  23.232   8.885  11.016
16860W        W76121  44.981  14.638   1.840
16861W        W76122  23.073  35.005  12.537
16862W        W76123  42.996  17.583  13.916
16863W        W76124   9.236   5.295  13.036
16864W        W76125  39.507  10.878  12.467
16865W        W76126  11.754   5.830  13.869
16866W        W76127  24.196  26.208  14.852
16867W        W76128   8.363  39.842   2.880
16868W        W76129   0.406  20.613  13.398
16869W        W76130  24.200  20.589   4.240
16870W        W76131  31.019  33.105   3.192
16871W        W76132   4.779  40.851  12.889
16872W        W76133  36.488   9.171   3.725
16873W        W76134  13.724   5.931  11.992
16874W        W76135  33.966  37.036   1.814
16875W        W76136  11.141  17.693   4.310
16876W        W76137   2.772  24.658   2.253
16877W        W76138  19.717  42.338  12.032
16878W        W76139  35.422   9.338  13.497
16879W        W76140   4.419   2.448   4.308
16880W        W76141  15.789  32.558   4.679
16881W        W76142  36.380  11.278   3.718
16882W        W76143  40.471   3.780   3.642
16883W        W76144  28.091  31.525   5.088
16884W        W76145   2.837  17.102   0.305
16885W        W76146  25.508  37.415  13.378
16886W        W76147  38.959  24.482   0.808
16887W        W76148  10.212  14.677   4.234
16888W        W76149  13.770   4.347  13.319
16889W        W76150  40.449   6.854  11.580
16890W        W76151  41.445  10.877  11.122
16891W        W76152   9.362  22.996  10.561
16892W        W76153  39.525  37.513   0.771
16893W        W76154  16.683   8.173   4.644
16894W        W76155  34.470   0.901   0.968
16895W        W76156  21.626  16.731  10.118
16896W        W76157  36.509  25.494  13.851
16897W        W76158  10.342   5.793   2.711
16898W        W76159  33.397   8.699  11.976
16899W        W76160  16.722  10.828  13.513
16900W        W76161  34.593  31.982   1.809
16901W        W76162  29.149  31.024  13.010
16902W        W76163  14.314  16.597  14.898
16903W        W76164  38.336  13.754   4.132
16904W        W76165   2.233  42.353  12.463
16905W        W76166  39.025   5.343   4.806
16906W        W76167   4.837  37.850   0.415
16907W        W76168   3.456  33.573   4.821
16908W        W76169  34.897   0.777   5.154
16909W        W76170  30.437  23.709  10.464
16910W        W76171  32.913  36.062   1.321
16911W        W76172  32.429  14.798   3.659
16912W        W76173   2.905  14.823   0.423
16913W        W76174   5.733  37.576   2.673
16914W        W76175  23.602  36.516   4.771
16915W        W76176  43.773  34.097   3.147
16916W        W76177  40.842   1.424   1.330
16917W        W76178  31.471  15.815  12.346
16918W        W76179  29.614  13.130  12.039
16919W        W76180  11.144  37.022  12.482
16920W        W76181  36.464  17.124  14.006
16921W        W76182  38.820  30.518   1.434
16922W        W76183   8.867  11.130  13.358
16923W        W76184  21.256  38.063   4.696
16924W        W76185  22.076   5.247   0.374
16925W        W76186  19.136   0.774   3.257
16926W        W76187  34.940  36.425  11.112
16927W        W76188   6.186  29.111  10.449
16928W        W76189  27.671  13.721  12.422
16929W        W76190   8.354  13.685   1.333
16930W        W76191  31.592  12.117   0.964
16931W        W76192  12.615   4.236  14.879
16932W        W76193   8.802  44.287  14.960
16933W        W76194  30.134  40.950   4.600
16934W        W76195   8.287  35.591  10.569
16935W        W76196   0.455  37.026   4.150
16936W        W76197   4.829   8.208   0.482
16937W        W76198   2.280  43.954  13.913
16938W        W76199  19.639  10.341   2.378
16939W        W76200  40.347  35.927  12.882
16940W        W76201  25.018  44.936   1.773
16941W        W76202  36.401  14.323  10.590
16942W        W76203  36.892  26.518   1.902
16943W        W76204  17.291  14.690  11.122
16944W        W76205  39.364  33.481  11.030
16945W        W76206  35.536   6.733   1.304
16946W        W76207  34.896  17.065  12.086
16947W        W76208  40.885   9.740   3.371
16948W        W76209   8.887  14.762  10.976
16949W        W76210  44.945  24.025  12.946
16950W        W76211   3.420  20.094  12.824
16951W        W76212  22.161   5.758   0.769
16952W        W76213  12.730   5.384  11.437
16953W        W76214   1.886  27.155  10.455
16954W        W76215   7.245  33.104  11.454
16955W        W76216  44.441   1.283  12.881
16956W        W76217  21.675  20.531  13.909
16957W        W76218  37.998  16.166   2.201
16958W        W76219   8.285  39.514  12.538
16959W        W76220  31.572  24.511   4.179
16960W        W76221   7.272  35.912  13.389
16961W        W76222  28.567  11.215  12.915
16962W        W76223  22.166  38.022   1.416
16963W        W76224  34.433  19.165  10.555
16964W        W76225  30.999  30.967   4.145
16965W        W76226  37.495  26.998   1.744
16966W        W76227  14.766  23.691  10.996
16967W        W76228  18.731  44.483   3.376
16968W        W76229   6.307  36.540  14.330
16969W        W76230  34.454  22.022   1.390
16970W        W76231  17.305  24.033  13.326
16971W        W76232   3.892  11.826   2.180
16972W        W76233   7.790  23.649   4.135
16973W        W76234  10.307  34.096   1.813
16974W        W76235  14.653  44.884   1.920
16975W        W76236  14.259  40.352  11.551
16976W        W76237  22.545  22.519  11.895
16977W        W76238  26.130  35.099   1.217
16978W        W76239  16.202   5.221  14.390
16979W        W76240  32.053  39.558   2.292
16980W        W76241  23.516  32.480  13.997
16981W        W76242  32.610   5.276   1.279
16982W        W76243  29.471  17.212   1.306
16983W        W76244  13.757  30.575   0.731
16984W        W76245   5.841  40.351  14.382
16985W        W76246  14.805  10.790   2.280
16986W        W76247  10.662   7.727  13.394
16987W        W76248  20.684  32.952  13.349
16988W        W76249  25.176  23.514  14.797
16989W        W76250  40.801   8.238  10.500
16990W        W76251  16.741  12.750   0.399
16991W        W76252  28.139  16.721  12.494
16992W        W76253  24.546  38.825   4.135
16993W        W76254  38.513  27.158   3.188
16994W        W76255  22.526  17.244  10.565
16995W        W76256  12.637  18.629   1.801
16996W        W76257  27.045  33.981   4.836
16997W        W76258  20.529  40.477   1.808
16998W        W76259  35.881  42.819  14.508
16999W        W76260  31.980  27.126  13.028
17000W        W76261  12.286  20.254  12.897
17001W        W76262   0.821   5.270  12.897
17002W        W76263  41.475  35.403   3.293
17003W        W76264  36.024  44.275   1.355
17004W        W76265   6.906  20.230   4.339
17005W        W76266  17.763  32.967   0.300
17006W        W76267  24.998  14.334  10.915
17007W        W76268   1.849  13.188  13.863
17008W        W76269  21.253  41.943  11.587
17009W        W76270   6.865  36.963   2.834
17010W        W76271   7.253  19.655   2.689
17011W        W76272  41.337  33.621   3.228
17012W        W76273  35.062  39.555   1.428
17013W        W76274  42.833  20.670  13.919
17014W        W76275  27.189   9.686   0.475
17015W        W76276  27.496   4.730  12.016
17016W        W76277  22.155  38.965   1.769
17017W        W76278   4.335  13.830   0.386
17018W        W76279  12.356  11.677   0.278
17019W        W76280  17.751  41.378  14.365
17020W        W76281  11.858  44.820   3.850
17021W        W76282  11.853  18.256   1.767
17022W        W76283  42.464   1.822   3.696
17023W        W76284  11.196  39.955  12.986
17024W        W76285  33.953   1.288   4.123
17025W        W76286  13.232  40.428   5.321
17026W        W76287  24.678   0.948   0.773
17027W        W76288  27.956  27.647   9.958
17028W        W76289  10.731   7.676   2.216
17029W        W76290  31.494  32.462  11.436
17030W        W76291   7.324   4.291   9.521
17031W        W76292  17.652  14.163  10.935
17032W        W76293  18.087   9.214  10.558
17033W        W76294  44.900  23.668  11.490
17034W        W76295   4.925   0.763   2.798
17035W        W76296  31.566  17.673   0.332
17036W        W76297  30.644   8.762   1.443
17037W        W76298  29.626   7.734  14.881
17038W        W76299  10.207   8.826   3.708
17039W        W76300  24.702   1.812  14.279
17040W        W76301  11.721  28.616  13.542
17041W        W76302  40.440  16.273   3.730
17042W        W76303  10.288  11.659   2.694
17043W        W76304  18.184  39.544   3.212
17044W        W76305  19.057  37.391  10.442
17045W        W76306  10.761  38.481  10.940
17046W        W76307   8.846  29.141   2.358
17047W        W76308  24.019   2.322   1.891
17048W        W76309  34.472  25.157  11.407
17049W        W76310   5.712  29.627   0.386
17050W        W76311  32.138  41.967   0.786
17051W        W76312  18.283  23.155  14.820
17052W        W76313   3.731  23.600  12.083
17053W        W76314  12.173  30.060   2.868
17054W        W76315  14.769  32.015  11.980
17055W        W76316   3.781  33.428  14.331
17056W        W76317   8.885   5.390   0.367
17057W        W76318   0.338  14.820  11.424
17058W        W76319   3.930   3.801  13.949
17059W        W76320  36.985  17.757   1.262
17060W        W76321  39.813  11.860   1.846
17061W        W76322  37.038  36.532  14.512
17062W        W76323  29.002   0.905  14.344
17063W        W76324  38.450   8.168  13.540
17064W        W76325  37.411  32.958   3.254
17065W        W76326  23.703   3.313  14.921
17066W        W76327  22.007  13.256   1.765
17067W        W76328  33.131  37.478   3.264
17068W        W76329  20.679   4.834   3.200
17069W        W76330  14.744  13.617   4.736
17070W        W76331   1.892  29.155  13.027
17071W        W76332  27.041  39.353  14.890
17072W        W76333  17.671  40.900   3.244
17073W        W76334  21.127  22.576   1.765
17074W        W76335  44.953  30.527  14.371
17075W        W76336  37.446   6.893   1.387
17076W        W76337  31.117  14.277  11.856
17077W        W76338  11.151   9.655  10.630
17078W        W76339  23.038  23.033   3.825
17079W        W76340  32.040  28.097   5.186
17080W        W76341  32.138  36.483   4.676
17081W        W76342  10.355  30.160   4.118
17082W        W76343  41.040  33.573  12.956
17083W        W76344  41.000  40.933  13.920
17084W        W76345   7.218  14.717  13.454
17085W        W76346  24.046  38.036  12.087
17086W        W76347  16.582  22.077   4.658
17087W        W76348  43.346  43.355  13.898
17088W        W76349  23.582  29.989  14.859
17089W        W76350   3.785  22.251   4.158
17090W        W76351  10.329  33.066   0.859
17091W        W76352   7.744  37.507  13.396
17092W        W76353  19.663   8.899  14.841
17093W        W76354  25.209  21.731  14.781
17094W        W76355   6.882  37.361   2.697
17095W        W76356  34.958  32.399   3.842
17096W        W76357  19.725   4.874  10.067
17097W        W76358  20.761  22.209  14.867
17098W        W76359   1.354   2.409   2.799
17099W        W76360  25.538   4.723  12.561
17100W        W76361   9.733  32.519   2.209
17101W        W76362  17.258   7.177   3.657
17102W        W76363  17.070   6.682   3.234
17103W        W76364  39.473  18.598   2.849
17104W        W76365   9.237   2.269   2.306
17105W        W76366   1.802  42.501  14.876
17106W        W76367  32.549  24.215   0.275
17107W        W76368  34.470  23.635   1.448
17108W        W76369  18.095   3.368  11.432
17109W        W76370  16.734  19.174  12.071
17110W        W76371  34.557  40.524  14.005
17111W        W76372  22.587   8.213  13.405
17112W        W76373  31.014  14.716   2.795
17113W        W76374   0.275  32.922  14.882
17114W        W76375  25.679   0.435   4.785
17115W        W76376   5.728  13.313   0.955
17116W        W76377  35.477  39.001  10.476
17117W        W76378  28.128  32.505  12.084
17118W        W76379  23.721  15.219   4.665
17119W        W76380  26.112  42.504  14.353
17120W        W76381  31.559  39.031   3.833
17121W        W76382  13.774   1.889  11.508
17122W        W76383  11.860  28.565   3.277
17123W        W76384  40.949   1.326  11.902
17124W        W76385  23.005  33.976   4.297
17125W        W76386  34.916  42.964   0.374
17126W        W76387   0.830   1.256  10.620
17127W        W76388  10.208   7.295  13.994
17128W        W76389  26.474  33.100  10.147
17129W        W76390  13.253  34.070   4.167
17130W        W76391  16.785  25.558   0.784
17131W        W76392  32.964  11.340  14.932
17132W        W76393  30.028  32.511   9.484
17133W        W76394   3.815  20.630   0.374
17134W        W76395  15.813  32.968  11.974
17135W        W76396  22.124  38.335   3.656
17136W        W76397  16.803  15.626  10.414
17137W        W76398  13.124  15.617  10.036
17138W        W76399   4.306   4.391  12.552
17139W        W76400  32.534  31.568   4.643
17140W        W76401  30.653  40.821  12.435
17141W        W76402  11.156  18.786  13.820
17142W        W76403  13.193   6.193  12.867
17143W        W76404   9.197  10.720   1.398
17144W        W76405   5.914   4.903  12.566
17145W        W76406  15.265  13.733   2.895
17146W        W76407  22.517  21.158   1.725
17147W        W76408   7.873  31.586  11.971
17148W        W76409   8.882  34.876  14.977
17149W        W76410  30.908   0.745  14.274
17150W        W76411  28.976  10.729   4.294
17151W        W76412  10.769  12.276   4.180
17152W        W76413  28.547  44.471   1.341
17153W        W76414  16.252  28.631   5.598
17154W        W76415  24.602  30.941  14.812
17155W        W76416  26.177  40.839   3.680
17156W        W76417  35.021  31.485   3.318
17157W        W76418  40.526   6.368   2.862
17158W        W76419  19.762  14.642  13.513
17159W        W76420  19.538  37.350  14.813
17160W        W76421  20.241  41.376   0.863
17161W        W76422  34.401  31.002   4.171
17162W        W76423  41.029  26.606  13.358
17163W        W76424   5.742  43.873  13.864
17164W        W76425  19.060  39.929  14.761
17165W        W76426   2.286   3.451  12.060
17166W        W76427   4.772  42.896  13.485
17167W        W76428   7.359  27.580  12.987
17168W        W76429  43.886  13.214  14.824
17169W        W76430  37.560  14.592   1.914
17170W        W76431  41.436   2.331   4.671
17171W        W76432  28.567  22.149   0.275
17172W        W76433  32.941  31.001   4.120
17173W        W76434  42.821  24.670   3.258
17174W        W76435  38.462   9.703  14.938
17175W        W76436   4.241   4.858   5.259
17176W        W76437  15.679   3.369   3.797
17177W        W76438   3.935  25.500  14.493
17178W        W76439  37.363  42.950  13.805
17179W        W76440   4.328  32.084   0.469
17180W        W76441  29.465  10.719   1.364
17181W        W76442  16.153  44.343   0.890
17182W        W76443   1.835  40.361   3.633
17183W        W76444  29.466  20.550  12.928
17184W        W76445   8.672  44.967  14.386
17185W        W76446  17.724  21.726   2.298
17186W        W76447  22.240  19.742   2.690
17187W        W76448  38.864  16.671  12.494
17188W        W76449  12.309  14.739  14.476
17189W        W76450  19.249  14.830  13.493
17190W        W76451  38.843  27.518   3.291
17191W        W76452  27.167  25.059  10.997
17192W        W76453   8.817  31.450  10.531
17193W        W76454  17.187   0.929  10.071
17194W        W76455  12.707  11.307  10.950
17195W        W76456  31.098  19.545   2.248
17196W        W76457  36.925   4.266   2.258
17197W        W76458  12.204  36.011   4.660
17198W        W76459  32.590  39.477   4.718
17199W        W76460  38.962   7.690   1.843
17200W        W76461  17.598  41.812  13.462
17201W        W76462  10.196   6.709  10.053
17202W        W76463   2.323  22.207  12.519
17203W        W76464  43.415  42.838  13.372
17204W        W76465  17.176   9.700  13.005
17205W        W76466  15.140  39.331   0.943
17206W        W76467  23.236  32.471  12.436
17207W        W76468  14.757  19.188   2.257
17208W        W76469  41.482  30.990   4.162
17209W        W76470   0.307  34.012  13.055
17210W        W76471  10.236  10.796   0.738
17211W        W76472  29.989  30.029   4.266
17212W        W76473  12.319   3.766   4.719
17213W        W76474  23.723  15.683   3.184
17214W        W76475  24.051  41.308  12.848
17215W        W76476  31.570   8.178  13.371
17216W        W76477   2.354   0.332  11.980
17217W        W76478  40.346   0.264  11.033
17218W        W76479  38.519   2.456  11.917
17219W        W76480   4.271  33.591   0.961
17220W        W76481  31.993   0.472   3.387
17221W        W76482  36.433  39.817  10.135
17222W        W76483   8.770  12.340  12.428
17223W        W76484   6.404  27.971   2.319
17224W        W76485   2.468  30.996  10.897
17225W        W76486   6.885   7.753   2.752
17226W        W76487  29.129  22.668   2.347
17227W        W76488  43.444  26.609  10.948
17228W        W76489   0.412  15.672  10.903
17229W        W76490  31.017  36.466  10.519
17230W        W76491  43.872  14.758  13.876
17231W        W76492  40.857  26.091   4.122
17232W        W76493  43.769  40.882  11.898
17233W        W76494   6.290  17.670   3.730
17234W        W76495  22.590  15.735  12.400
17235W        W76496  31.475  27.542   0.476
17236W        W76497   9.888   4.386  10.892
17237W        W76498  39.964  41.459   0.733
17238W        W76499  20.558   0.294  13.926
17239W        W76500  32.416  30.052   2.326
17240W        W76501  35.459  14.640   0.352
17241W        W76502  31.019  16.134   0.276
17242W        W76503  11.184  34.389   1.761
17243W        W76504   4.221  33.043   1.324
17244W        W76505  39.328  17.178  12.011
17245W        W76506  11.650  28.545   1.839
17246W        W76507  27.617  33.035   2.750
17247W        W76508   9.690  14.700   1.820
17248W        W76509  40.863   9.153   1.777
17249W        W76510  23.024  18.623  13.378
17250W        W76511  26.188  43.304   9.604
17251W        W76512   6.783  25.969  14.944
17252W        W76513  24.182  42.793   3.161
17253W        W76514  42.488  15.780   1.396
17254W        W76515  14.672  17.285  10.966
17255W        W76516  41.797  42.830   5.201
17256W        W76517  36.574   6.325   0.365
17257W        W76518  35.026  40.319   2.267
17258W        W76519  13.190   8.387  12.387
17259W        W76520  25.534  37.034   2.231
17260W        W76521  38.435  23.150   3.665
17261W        W76522  24.012  44.286   0.732
17262W        W76523  44.290  44.888   2.702
17263W        W76524  13.603  27.456  13.434
17264W        W76525  37.940  14.278  13.831
17265W        W76526  42.934  38.326   2.328
17266W        W76527   9.337  42.319   2.355
17267W        W76528  18.769  35.902   4.331
17268W        W76529  23.530   2.432   0.957
17269W        W76530   2.442  18.567   1.280
17270W        W76531   7.911  42.015   4.625
17271W        W76532  11.294  18.595  11.970
17272W        W76533  11.739  30.413  13.812
17273W        W76534  11.269   8.681  10.530
17274W        W76535  41.791  28.441   1.739
17275W        W76536  24.050  25.194  12.992
17276W        W76537  33.432   1.920  10.519
17277W        W76538   6.301  39.478   1.823
17278W        W76539  33.960  16.222   0.849
17279W        W76540  36.879   4.797   2.841
17280W        W76541  11.623  31.525  11.915
17281W        W76542   0.952  40.492   4.644
17282W        W76543  28.542  21.082  11.533
17283W        W76544  11.145  28.598   4.296
17284W        W76545   6.285  31.922  10.135
17285W        W76546  24.101   4.873  14.014
17286W        W76547  38.361  25.524  12.991
17287W        W76548  42.847  13.178  12.065
17288W        W76549  44.473  33.041   2.363
17289W        W76550  30.637  20.578   3.673
17290W        W76551  12.746  27.592   9.963
17291W        W76552   9.826  12.345  14.342
17292W        W76553  25.473  29.586  12.976
17293W        W76554  36.886  22.063   4.244
17294W        W76555   7.881   3.919   1.767
17295W        W76556  12.745   6.246   1.408
17296W        W76557  32.628  12.313   5.263
17297W        W76558  24.699  21.100   3.734
17298W        W76559  21.138   0.815   2.349
17299W        W76560  15.726  22.735   0.886
17300W        W76561   5.876  38.999  10.447
17301W        W76562  33.404  39.939   1.803
17302W        W76563  12.677  35.867   0.884
17303W        W76564   4.702   0.375  10.469
17304W        W76565  29.961  20.741  13.894
17305W        W76566  30.589   9.795   1.432
17306W        W76567   1.914  30.591  14.374
17307W        W76568  24.542  41.517   1.261
17308W        W76569  40.410  39.481   4.235
17309W        W76570  34.450  26.484  12.543
17310W        W76571   5.202  16.219   0.939
17311W        W76572  26.463   5.259  12.437
17312W        W76573  44.904  40.799   4.627
17313W        W76574  25.045  36.426  11.078
17314W        W76575  30.502  22.676   2.785
17315W        W76576  18.216   7.366   4.270
17316W        W76577  40.046  11.684  12.419
17317W        W76578  36.016  21.130   2.665
17318W        W76579  37.375  44.362   4.774
17319W        W76580   2.819  40.959  12.083
17320W        W76581  33.075  17.579  13.825
17321W        W76582  33.623  15.270  13.867
17322W        W76583  20.058  44.360  13.850
17323W        W76584  41.346  39.065  11.374
17324W        W76585   9.251  34.949   2.225
17325W        W76586  25.662  37.034   4.306
17326W        W76587  25.012  37.506  14.294
17327W        W76588  11.357  25.184   4.172
17328W        W76589  10.338   8.275   0.475
17329W        W76590  44.270  33.062   0.910
17330W        W76591  14.744  17.719   0.321
17331W        W76592  32.401  40.429   4.288
17332W        W76593  42.846   1.732  11.524
17333W        W76594  23.550  39.920   2.896
17334W        W76595  14.829   6.192  12.952
17335W        W76596  32.955  11.318   4.256
17336W        W76597   2.943  44.804   3.384
17337W        W76598  11.251  31.027  10.465
17338W        W76599  43.459  13.340   2.860
17339W        W76600  44.366  36.961   4.686
17340W        W76601  15.088  19.615   4.714
17341W        W76602   1.251  14.651  11.099
17342W        W76603   8.761  15.615   2.833
17343W        W76604   3.927  23.672   4.136
17344W        W76605  19.592  15.627  11.012
17345W        W76606  28.082  11.368  12.059
17346W        W76607  31.078  21.257  14.836
17347W        W76608  31.009  19.193  14.012
17348W        W76609  28.497  29.485   2.753
17349W        W76610  33.914  22.171   2.287
17350W        W76611  43.438  15.262  11.997
17351W        W76612  30.640  25.629   1.700
17352W        W76613   2.735  11.300  11.032
17353W        W76614  32.558  27.490   1.344
17354W        W76615  41.968   4.698   0.298
17355W        W76616   1.281  21.067   2.385
17356W        W76617  21.718  37.421   2.696
17357W        W76618  34.427  41.470  14.943
17358W        W76619  10.183   1.860  14.827
17359W        W76620   7.272   5.719  10.586
17360W        W76621  22.020  31.936   5.276
17361W        W76622  21.528  31.521   1.294
17362W        W76623  10.189  13.681   0.891
17363W        W76624   8.247  39.905  11.426
17364W        W76625  17.118  24.597   4.635
17365W        W76626   8.768  19.755  10.588
17366W        W76627   9.708  18.073   1.740
17367W        W76628   4.914  10.650   2.756
17368W        W76629   5.285   4.408  11.496
17369W        W76630  21.536  14.750   4.834
17370W        W76631  31.552  12.335  13.040
17371W        W76632  27.940   3.321  14.438
17372W        W76633   3.350  37.870   4.292
17373W        W76634  24.614   2.886   1.436
17374W        W76635   1.929   8.693   4.210
17375W        W76636  20.039   7.831   2.253
17376W        W76637  43.795  21.583   0.328
17377W        W76638   8.708   4.448  14.023
17378W        W76639  17.074  37.506  10.553
17379W        W76640  37.570  10.669  10.993
17380W        W76641  11.128  34.944  11.876
17381W        W76642   9.877  30.624  13.414
17382W        W76643  29.471   3.796  14.880
17383W        W76644  29.455  41.372   2.751
17384W        W76645   6.782  10.295   3.651
17385W        W76646  34.056  29.007   1.331
17386W        W76647  23.624  39.000   0.797
17387W        W76648  33.598  23.565   3.652
17388W        W76649  13.173  40.870   0.465
17389W        W76650  16.672  19.138   4.754
17390W        W76651  39.521  32.422   3.301
17391W        W76652   9.843  13.821  13.849
17392W        W76653   2.390  19.577   4.766
17393W        W76654  13.704  10.264   3.669
17394W        W76655  20.158  41.410  14.942
17395W        W76656  33.580  11.268  14.943
17396W        W76657  33.534  36.435   0.909
17397W        W76658  25.607   2.753   9.924
17398W        W76659  14.595  25.567  12.857
17399W        W76660  16.794   0.365   4.167
17400W        W76661   8.400   9.166  14.872
17401W        W76662   7.266   2.939   0.887
17402W        W76663  34.409  25.577  13.535
17403W        W76664  21.129  19.642  11.511
17404W        W76665  38.831  21.654   3.189
17405W        W76666  27.523  44.472  14.903
17406W        W76667  10.373   9.781  11.404
17407W        W76668  13.621  32.556   2.830
17408W        W76669  12.271  32.935   2.836
17409W        W76670  24.682  15.686  11.476
17410W        W76671   8.807  24.046   0.742
17411W        W76672   8.355  29.140  14.363
17412W        W76673  19.114  10.149  11.868
17413W        W76674  29.522   5.846   2.306
17414W        W76675  22.721  19.627  13.491
17415W        W76676   8.763   0.760   3.280
17416W        W76677   5.734  34.106   1.862
17417W        W76678   2.288  20.271   0.277
17418W        W76679   0.870  29.536  10.622
17419W        W76680   0.798   1.467  12.878
17420W        W76681  42.857   1.251  11.056
17421W        W76682   8.191  37.852  13.858
17422W        W76683  40.910  30.436  13.541
17423W        W76684  19.720  25.106   1.403
17424W        W76685  27.556  22.662  13.451
17425W        W76686  43.808  41.354  12.994
17426W        W76687  37.876  14.778   4.276
17427W        W76688   7.280  10.867  13.821
17428W        W76689   8.160  41.376  14.821
17429W        W76690   6.804   8.303  14.886
17430W        W76691   0.444  41.493  12.012
17431W        W76692  15.096  43.012  10.628
17432W        W76693  11.319  22.205   0.326
17433W        W76694   3.240  29.537   4.266
17434W        W76695  41.299  26.996  13.314
17435W        W76696  29.018  40.438   2.344
17436W        W76697  43.965  30.116  12.469
17437W        W76698   8.269  21.732   1.363
17438W        W76699  23.237  42.366   4.217
17439W        W76700  25.534  31.629  13.968
17440W        W76701  33.620  22.052  14.922
17441W        W76702  17.700   6.705   2.799
17442W        W76703  24.170  17.182  11.473
17443W        W76704  35.978  18.642  12.458
17444W        W76705  27.499  36.391   3.818
17445W        W76706   6.199  42.953   0.954
17446W        W76707   4.365  42.287   4.247
17447W        W76708  13.297  29.153  14.409
17448W        W76709  15.781  42.865  10.980
17449W        W76710   0.422  18.587  14.499
17450W        W76711   0.317  35.524  12.470
17451W        W76712  10.727  20.138   2.344
17452W        W76713  38.924  16.653   9.632
17453W        W76714  27.644  16.079  12.503
17454W        W76715  29.647   5.757  14.374
17455W        W76716  18.607  27.619   0.801
17456W        W76717   0.854  14.169  12.001
17457W        W76718   2.349  28.579  10.429
17458W        W76719  30.050   7.909  13.958
17459W        W76720  19.152   6.866  13.457
17460W        W76721   0.258  35.873   2.872
17461W        W76722  20.673  30.525  14.856
17462W        W76723  38.550  26.953   3.712
17463W        W76724   3.225  13.731   2.792
17464W        W76725   4.742  20.119  14.913
17465W        W76726  35.857  15.177  14.870
17466W        W76727   9.722  34.454   1.247
17467W        W76728   8.366  39.331  13.531
17468W        W76729   2.763   7.748  10.515
17469W        W76730  33.937  22.560   3.236
17470W        W76731  35.563  14.719   0.837
17471W        W76732  39.055  23.632   4.116
17472W        W76733  23.595   8.895   9.972
17473W        W76734  24.028  16.272   4.139
17474W        W76735  20.193  29.991  13.826
17475W        W76736  29.607   9.259   0.346
17476W        W76737  41.911  32.536   0.369
17477W        W76738  35.488  35.981  14.842
17478W        W76739  25.654  27.691  13.498
17479W        W76740  26.586   5.340  13.367
17480W        W76741  16.644  17.627   0.317
17481W        W76742  40.937  30.454  14.362
17482W        W76743  24.148  10.662  12.536
17483W        W76744  36.444  38.412   3.304
17484W        W76745  10.668  44.288  11.496
17485W        W76746  24.225   6.897  12.013
17486W        W76747  19.076  23.674   4.597
17487W        W76748   5.287  25.214   4.296
17488W        W76749   3.415  32.034   0.914
17489W        W76750  31.450  27.572  12.418
17490W        W76751  27.197   6.244   2.232
17491W        W76752   1.946  16.226   4.261
17492W        W76753  30.469  30.053  13.023
17493W        W76754  21.686  20.548  11.876
17494W        W76755  42.801  13.113   4.184
17495W        W76756   7.749  15.144   4.354
17496W        W76757  30.942  32.636   0.803
17497W        W76758  42.869  19.076  12.048
17498W        W76759   0.451  39.352   4.319
17499W        W76760   7.810  43.872  12.530
17500W        W76761  31.467  21.244   3.636
17501W        W76762  21.134  18.284   2.248
17502W        W76763  15.231  28.679  14.847
17503W        W76764  24.134  17.659  10.993
17504W        W76765  15.204  35.492  14.964
17505W        W76766  29.007   8.734   3.634
17506W        W76767   5.409  27.648   4.769
17507W        W76768  44.803   5.229  14.472
17508W        W76769   6.831  30.155   3.746
17509W        W76770  35.979  28.964  14.327
17510W        W76771   2.251  29.013   1.374
17511W        W76772  32.002  21.550   0.318
17512W        W76773  43.462  41.023   4.780
17513W        W76774  20.584  35.431   4.222
17514W        W76775  13.114  21.095   1.881
17515W        W76776   3.326  20.605  10.148
17516W        W76777  27.562   3.435   1.211
17517W        W76778  27.156  31.493   3.180
17518W        W76779  42.470  15.246  11.556
17519W        W76780  35.524  43.792   2.401
17520W        W76781  41.307  38.347  13.918
17521W        W76782  21.102   9.826   0.442
17522W        W76783  35.885  40.955   3.771
17523W        W76784  14.722  13.700  14.327
17524W        W76785  12.161   6.412   1.379
17525W        W76786  15.318  21.639  11.911
17526W        W76787  44.353   1.818  14.477
17527W        W76788  12.288  31.964   1.411
17528W        W76789   9.214  31.472  12.903
17529W        W76790  16.080  22.228   0.884
17530W        W76791  11.145  11.362   1.249
17531W        W76792  34.460   7.371  14.362
17532W        W76793  34.555  44.365  14.283
17533W        W76794   0.840   2.801  11.913
17534W        W76795   8.823  19.181  14.453
17535W        W76796  10.197  32.514   3.158
17536W        W76797   9.333  41.986   4.290
17537W        W76798   5.208  14.319   1.250
17538W        W76799  40.865  16.313  12.918
17539W        W76800  32.940  10.767   1.763
17540W        W76801  16.671   6.794   2.825
17541W        W76802   3.811  42.369   0.418
17542W        W76803  31.450   9.836  12.400
17543W        W76804  44.761  31.407   3.318
17544W        W76805  16.183  12.136   1.356
17545W        W76806  23.028  44.488  13.455
17546W        W76807  25.599  21.156  14.004
17547W        W76808  23.530  37.952  11.600
17548W        W76809  33.099  29.446  11.989
17549W        W76810  17.706  44.504  12.925
17550W        W76811   7.375   6.710  12.837
17551W        W76812  22.746  28.059  10.117
17552W        W76813  30.006  32.100   5.695
17553W        W76814   1.271   2.934  12.828
17554W        W76815  42.424  40.003  11.402
17555W        W76816  11.865  38.915   4.184
17556W        W76817  38.941  30.593   0.276
17557W        W76818  44.442  20.071  12.084
17558W        W76819  21.030   8.376  14.957
17559W        W76820  16.655  10.711  13.997
17560W        W76821  44.867  40.464  12.828
17561W        W76822  38.361  20.744  13.055
17562W        W76823   7.712   3.437   5.217
17563W        W76824  18.193  32.122   3.729
17564W        W76825  11.215  34.402   3.219
17565W        W76826   5.759  11.344   0.790
17566W        W76827  36.576   0.301  14.368
17567W        W76828  44.787  17.667   4.139
17568W        W76829  32.485  35.937   3.359
17569W        W76830  41.345  21.653   0.284
17570W        W76831  17.132  26.085  13.939
17571W        W76832  24.201  11.848   2.735
17572W        W76833  11.674   4.268  14.996
17573W        W76834  29.488  40.434  12.092
17574W        W76835  37.340  33.565   4.195
17575W        W76836  38.524  13.766  10.945
17576W        W76837  39.843  12.768   1.818
17577W        W76838   5.276  27.450  11.089
17578W        W76839  30.456   9.319  10.465
17579W        W76840  31.994  33.034  11.045
17580W        W76841  17.061  22.543   1.921
17581W        W76842   9.203  29.134   1.224
17582W        W76843  29.659  38.487   0.353
17583W        W76844  14.598  34.402   4.350
17584W        W76845  24.078  14.206  12.925
17585W        W76846  14.276  13.294  13.917
17586W        W76847  13.637  14.761   2.771
17587W        W76848  39.351  37.938  11.560
17588W        W76849  41.928  20.246  13.385
17589W        W76850  38.396  38.050   3.355
17590W        W76851  32.944  18.066  12.396
17591W        W76852   8.763  38.887  12.484
17592W        W76853   2.301   5.814   0.282
17593W        W76854  16.613  18.289  13.459
17594W        W76855  34.501   4.927   4.263
17595W        W76856  11.286  29.442  12.453
17596W        W76857  23.211  32.552   4.646
17597W        W76858  23.542  10.713   1.917
17598W        W76859  13.820  35.028  12.039
17599W        W76860  29.981  30.649  10.578
17600W        W76861   7.824  10.649  11.938
17601W        W76862   3.907   0.958   4.805
17602W        W76863  35.865  17.178  13.318
17603W        W76864  11.650  39.506   1.847
17604W        W76865  16.787  22.137   3.243
17605W        W76866  23.214  38.030  10.520
17606W        W76867  40.850   4.785  13.353
17607W        W76868   2.743  41.908   2.193
17608W        W76869  10.148  23.511  13.353
17609W        W76870  12.694  17.741   2.674
17610W        W76871  35.547   4.235   3.299
17611W        W76872  43.817   8.345   4.788
17612W        W76873  25.689  16.720   4.630
17613W        W76874  36.968   3.940  12.409
17614W        W76875   4.897  30.492  11.967
17615W        W76876  42.352   1.827  14.925
17616W        W76877  15.096  28.454   0.349
17617W        W76878   0.466  36.848  11.943
17618W        W76879  40.409   9.275  13.494
17619W        W76880  27.060  16.172   4.678
17620W        W76881   2.470  43.769  14.987
17621W        W76882  12.671  44.943   0.279
17622W        W76883  24.689  34.546  13.400
17623W        W76884   9.263  10.232  12.080
17624W        W76885  36.981  19.054  14.484
17625W        W76886   1.420  27.148   1.908
17626W        W76887  29.485   8.680  10.072
17627W        W76888  35.061  40.910   0.310
17628W        W76889   7.668  10.194  14.769
17629W        W76890  16.589  17.660  13.859
17630W        W76891  15.629  14.677   0.743
17631W        W76892  44.932   5.219   4.640
17632W        W76893  32.634  35.369   3.304
17633W        W76894  27.499  10.692  14.886
17634W        W76895  29.986  43.275   1.783
17635W        W76896  17.716  20.543   1.427
17636W        W76897  27.175   2.433  13.344
17637W        W76898  12.638   4.270   3.791
17638W        W76899  30.536  41.975   5.155
17639W        W76900   7.219  10.140  11.582
17640W        W76901  28.640  28.946  14.352
17641W        W76902  24.623  39.814   3.318
17642W        W76903  38.502  19.073  13.380
17643W        W76904  31.037  20.578   3.667
17644W        W76905  18.264  30.104  12.945
17645W        W76906  44.980  40.828  12.967
17646W        W76907  30.921   6.273   1.341
17647W        W76908   3.939  42.839  13.893
17648W        W76909  17.692  18.749   3.671
17649W        W76910  23.234  26.148  14.873
17650W        W76911  37.534   0.475   1.837
17651W        W76912  44.325  32.010   3.371
17652W        W76913   4.759  40.473  12.828
17653W        W76914   6.272  32.499  14.990
17654W        W76915  42.942  42.007   4.167
17655W        W76916  20.557   3.266   0.269
17656W        W76917  33.397  17.231   2.821
17657W        W76918  20.107  17.624  11.937
17658W        W76919  42.801   5.362  12.072
17659W        W76920  20.188  34.610  12.479
17660W        W76921  36.091   1.331   0.749
17661W        W76922  30.436  37.446   2.871
17662W        W76923   6.342  12.638   2.244
17663W        W76924  16.582  25.091  12.009
17664W        W76925   2.287  25.009   2.394
17665W        W76926  33.603  36.581   1.827
17666W        W76927  25.093  32.086  10.552
17667W        W76928   6.757  28.016   0.888
17668W        W76929  16.271   4.926  14.900
17669W        W76930  25.631  28.168   4.130
17670W        W76931  22.022  26.504  14.348
17671W        W76932  38.958  39.062   4.141
17672W        W76933  11.854  21.125   2.705
17673W        W76934  33.087  31.068  10.448
17674W        W76935  21.093  10.255  11.106
17675W        W76936  29.476  18.147  13.840
17676W        W76937   5.267  30.588  10.980
17677W        W76938  39.345  17.705  13.410
17678W        W76939  22.669  41.338  12.077
17679W        W76940  32.549  24.980   0.911
17680W        W76941  30.156  26.200  11.123
17681W        W76942  22.251  25.543  11.517
17682W        W76943  26.172  25.166  10.558
17683W        W76944  24.575   9.217  14.459
17684W        W76945  15.141  35.589  11.064
17685W        W76946   7.745  23.998   4.681
17686W        W76947  40.883  20.715  11.988
17687W        W76948   1.423   4.334   3.823
17688W        W76949  27.015   1.838  10.492
17689W        W76950  11.692  22.610   0.959
17690W        W76951  43.933  22.678   1.933
17691W        W76952  15.815  17.595   4.826
17692W        W76953  24.551   2.332   2.344
17693W        W76954  33.119  43.795   2.343
17694W        W76955  11.802  44.305  12.943
17695W        W76956  28.459  12.651  14.481
17696W        W76957  32.037  31.081  13.373
17697W        W76958   2.400   3.364   5.219
17698W        W76959   0.807   1.437   2.796
17699W        W76960  31.091  33.497  11.559
17700W        W76961  28.487  32.585  12.549
17701W        W76962  37.397  23.049  13.403
17702W        W76963  26.467  16.108   3.183
17703W        W76964  10.773  39.388   3.648
17704W        W76965  40.342  30.008  10.897
17705W        W76966   8.223  24.083  12.930
17706W        W76967  12.614   4.272  11.610
17707W        W76968   2.869  41.829   3.170
17708W        W76969   8.299  27.977   4.838
17709W        W76970   3.948  17.734  14.010
17710W        W76971  11.362  41.880   1.444
17711W        W76972   1.939  28.643  14.989
17712W        W76973   5.277  33.550   2.744
17713W        W76974  13.259  34.377   0.818
17714W        W76975  31.411  16.611   1.335
17715W        W76976  27.990  35.858  12.535
17716W        W76977  15.582  28.019  14.277
17717W        W76978   5.816  19.667  14.511
17718W        W76979  42.343  11.316   2.386
17719W        W76980   7.206  37.482  10.006
17720W        W76981  39.863  19.573  10.014
17721W        W76982  39.379  13.680  11.913
17722W        W76983  17.254  21.186  14.851
17723W        W76984  28.460  24.095   1.230
17724W        W76985  17.748  35.476  12.488
17725W        W76986  13.187  29.432   2.688
17726W        W76987  44.993  14.271   0.727
17727W        W76988   4.336  34.875   3.717
17728W        W76989   2.878  41.883  12.957
17729W        W76990  22.651  37.035  13.864
17730W        W76991   8.670   1.948   3.663
17731W        W76992  30.109  36.399   2.771
17732W        W76993  19.719  25.498  11.960
17733W        W76994  43.306  41.904  13.425
17734W        W76995  42.946  34.076  12.856
17735W        W76996  31.520  18.681   4.661
17736W        W76997  41.981  42.364  12.973
17737W        W76998  36.504  16.717   3.737
17738W        W76999   3.920  39.840  13.824
17739W        W77000   8.381  31.912   2.676
17740W        W77001  22.600   7.860  11.863
17741W        W77002  39.513  39.028   3.866
17742W        W77003  13.216  19.095   3.226
17743W        W77004  40.534  37.944  14.005
17744W        W77005   0.314  38.330   3.787
17745W        W77006  15.664  18.774   0.269
17746W        W77007  28.012  38.486   2.816
17747W        W77008  19.256   7.400   0.810
17748W        W77009  20.172  12.284  14.482
17749W        W77010   0.417  14.794  14.506
17750W        W77011  25.085  21.251   0.254
17751W        W77012  34.002  41.432  11.086
17752W        W77013   2.819   0.289   2.849
17753W        W77014  13.331  43.477   0.433
17754W        W77015  20.584  30.945  13.905
17755W        W77016   7.774  25.694   3.681
17756W        W77017   4.717   3.726   0.444
17757W        W77018  33.903  19.277   4.277
17758W        W77019  41.298  18.186   4.775
17759W        W77020  33.960  34.613  10.478
17760W        W77021  20.694  14.667   4.126
17761W        W77022  21.120  40.900  12.913
17762W        W77023  25.494  35.980  10.619
17763W        W77024   8.323  29.136   2.184
17764W        W77025   9.284  16.762   1.900
17765W        W77026  20.113  17.066  13.527
17766W        W77027  30.528   8.812  10.479
17767W        W77028   1.755  17.621   2.308
17768W        W77029  38.021  31.134   0.250
17769W        W77030  39.445  14.649  14.355
17770W        W77031  16.688  14.695   1.351
17771W        W77032  38.935  27.151  11.440
17772W        W77033  16.615  21.695   3.654
17773W        W77034  11.649   8.314  12.870
17774W        W77035  38.384  23.998   2.882
17775W        W77036  24.016  15.821   1.782
17776W        W77037  13.223  27.075  12.361
17777W        W77038  28.588  26.128   1.430
17778W        W77039  25.686  25.471   0.807
17779W        W77040  29.032  39.530   2.663
17780W        W77041  14.776   9.805   0.294
17781W        W77042  33.397  30.020  12.937
17782W        W77043  31.968  40.875  14.004
17783W        W77044  15.296  34.414  13.012
17784W        W77045  38.399  27.047   2.313
17785W        W77046  43.474   7.249   3.303
17786W        W77047   6.707   2.834  10.589
17787W        W77048  42.292  27.980   0.747
17788W        W77049  10.236  17.082   2.806
17789W        W77050   4.400   3.292  10.948
17790W        W77051   9.313  12.658  11.447
17791W        W77052  13.652   6.321   0.451
17792W        W77053  27.164  17.076   3.777
17793W        W77054  16.633   7.315   1.394
17794W        W77055  10.678  16.643  12.043
17795W        W77056  17.297   4.856  12.913
17796W        W77057  25.153  15.174   4.181
17797W        W77058  40.331  21.688  11.416
17798W        W77059  35.073  35.873   4.745
17799W        W77060  43.887  26.042   3.283
17800W        W77061  26.586  32.560   0.915
17801W        W77062  36.877  22.694   3.151
17802W        W77063   8.377  29.631   4.814
17803W        W77064   0.917  28.603   4.635
17804W        W77065  35.857  40.905   0.264
17805W        W77066  12.236  17.757   4.289
17806W        W77067  29.432  31.031  11.576
17807W        W77068  38.858  22.023   1.771
17808W        W77069   1.799  11.817  13.797
17809W        W77070  17.685  44.327   0.934
17810W        W77071  16.220   3.937   3.223
17811W        W77072  21.628  25.471   2.329
17812W        W77073  40.484  28.653   4.280
17813W        W77074  29.480  11.766  13.523
17814W        W77075   1.777   3.456   0.876
17815W        W77076  15.742   0.397   4.702
17816W        W77077  19.634  14.834   0.728
17817W        W77078   9.181  11.283  14.841
17818W        W77079  44.890  34.602  14.923
17819W        W77080  39.022  11.152  11.494
17820W        W77081  25.665  43.971  10.563
17821W        W77082   5.364  28.968   4.302
17822W        W77083  43.798  34.109   1.238
17823W        W77084   5.896  27.125  10.466
17824W        W77085  16.617  43.833   2.773
17825W        W77086  15.759   7.272   4.768
17826W        W77087   8.339   7.409   0.358
17827W        W77088  18.067   6.812   1.383
17828W        W77089  33.391  43.311   4.304
17829W        W77090  31.502   1.756  14.005
17830W        W77091  26.464   8.163   1.765
17831W        W77092  24.220  38.337  12.021
17832W        W77093   8.400  24.628  14.868
17833W        W77094  37.492  36.508   4.681
17834W        W77095  32.082  34.936  12.898
17835W        W77096  29.574  26.630   9.979
17836W        W77097   0.873  19.548  14.316
17837W        W77098  37.899   8.282  10.629
17838W        W77099  29.024  33.557  13.060
17839W        W77100  14.113  36.915   1.792
17840W        W77101  19.269  22.092   2.856
17841W        W77102   6.390  20.559  10.982
17842W        W77103  15.642  34.426  11.916
17843W        W77104  17.096  19.606   4.305
17844W        W77105  21.514  32.566  14.460
17845W        W77106   2.351  29.155  14.468
17846W        W77107   1.743  14.766   4.172
17847W        W77108   2.444  41.009   1.806
17848W        W77109  22.529  24.112  13.885
17849W        W77110  22.999  14.778  10.463
17850W        W77111  14.104  25.053   1.703
17851W        W77112  31.986  13.808   0.310
17852W        W77113  33.482  14.186  13.820
17853W        W77114  19.276  28.025   4.682
17854W        W77115  23.584  30.147   0.287
17855W        W77116  33.079  32.416   2.311
17856W        W77117  15.695  20.036  14.980
17857W        W77118  42.416  20.715  14.417
17858W        W77119   9.687  44.873   0.906
17859W        W77120  32.889   3.813  12.850
17860W        W77121  25.626   7.722   1.723
17861W        W77122  20.580  44.889  13.545
17862W        W77123  37.958  28.124  13.940
17863W        W77124  14.183  19.059   0.328
17864W        W77125  29.669  21.575  14.427
17865W        W77126  38.386  17.156  14.494
17866W        W77127  27.156  19.280   3.816
17867W        W77128  10.868  13.167   1.313
17868W        W77129  42.300  36.999   4.725
17869W        W77130  14.592   1.767   1.249
17870W        W77131  33.990  22.638  13.477
17871W        W77132  43.966   0.417  11.023
17872W        W77133  24.209  31.917  11.600
17873W        W77134  28.108  36.543  13.525
17874W        W77135   3.725  24.510  14.480
17875W        W77136  15.592  32.036   0.397
17876W        W77137  19.223  20.708  10.914
17877W        W77138  41.333  43.401   1.379
17878W        W77139  18.779  10.261   2.859
17879W        W77140  13.286  30.526  12.393
17880W        W77141   9.803  23.099   4.598
17881W        W77142   0.772  38.943   0.354
17882W        W77143  33.936   3.417   3.164
17883W        W77144  37.517  35.527   1.272
17884W        W77145   2.770  10.797  13.450
17885W        W77146   2.311  41.814   4.662
17886W        W77147   4.394  30.000   4.166
17887W        W77148   1.798   9.732   1.764
17888W        W77149  28.045  19.589  11.577
17889W        W77150  38.907  15.667   0.408
17890W        W77151  41.470  34.912  13.824
17891W        W77152  39.376  39.977  13.791
17892W        W77153   5.697  15.319   1.447
17893W        W77154  34.962  23.085  11.909
17894W        W77155  21.149  11.152  12.034
17895W        W77156  28.641   1.264   2.285
17896W        W77157  21.633  38.063  11.559
17897W        W77158  26.565  17.177  13.547
17898W        W77159  11.798   9.738  14.934
17899W        W77160  28.103  41.872   4.280
17900W        W77161  29.462  25.027  10.543
17901W        W77162  36.999  44.793   2.418
17902W        W77163  37.403   1.834   2.877
17903W        W77164  21.682  22.650   0.458
17904W        W77165  19.187  12.757   4.726
17905W        W77166  13.755  39.022   4.333
17906W        W77167  31.505  10.668   0.800
17907W        W77168   0.414  15.734   1.748
17908W        W77169  12.793  42.013  10.988
17909W        W77170  25.605  11.153  13.003
17910W        W77171  36.855   5.802   3.327
17911W        W77172  41.423  23.050   3.247
17912W        W77173  17.682  42.884  10.530
17913W        W77174  15.143  41.815   4.276
17914W        W77175  39.908  17.084  13.438
17915W        W77176  39.037  39.849   4.195
17916W        W77177  24.666  28.047  11.589
17917W        W77178  27.656  37.372  14.906
17918W        W77179  11.778  15.631  12.824
17919W        W77180   3.785  39.820   3.204
17920W        W77181  40.523   1.444   1.736
17921W        W77182  16.136   5.431  13.042
17922W        W77183  33.010  38.890  14.955
17923W        W77184  36.496  25.693   4.705
17924W        W77185  10.852  26.622   5.089
17925W        W77186  18.142   7.765   3.645
17926W        W77187  20.186  11.675  13.922
17927W        W77188   3.431  24.217   4.142
17928W        W77189  29.470   0.459  13.354
17929W        W77190  21.539  33.510   2.792
17930W        W77191  13.695  39.023  14.948
17931W        W77192  17.306  42.976   3.833
17932W        W77193  42.912   4.356   2.859
17933W        W77194  35.052  39.940   2.749
17934W        W77195  18.586  26.647   0.402
17935W        W77196  37.417  43.504   1.280
17936W        W77197  24.005   3.898  14.436
17937W        W77198  19.191  36.385  11.577
17938W        W77199  21.254  39.528   4.185
17939W        W77200  30.158  32.898   2.695
17940W        W77201  23.619  27.057  14.005
17941W        W77202  34.958  33.091  10.556
17942W        W77203   5.780  35.056  13.899
17943W        W77204  33.438  31.992  14.997
17944W        W77205   1.364   7.681   2.863
17945W        W77206  11.157  29.567   1.904
17946W        W77207  24.025  12.615   2.239
17947W        W77208   7.779  32.039   5.256
17948W        W77209  39.818   2.359  12.517
17949W        W77210  30.610  17.739   0.409
17950W        W77211  21.518  36.584  13.438
17951W        W77212   8.847   5.693  14.348
17952W        W77213  27.157  15.789  13.997
17953W        W77214  19.680  10.198   0.742
17954W        W77215  41.943  10.838   4.624
17955W        W77216  24.202  43.478  14.811
17956W        W77217  24.147  11.171   2.738
17957W        W77218  25.494  35.520  13.349
17958W        W77219   5.313  23.220  10.467
17959W        W77220  43.446   2.814   2.894
17960W        W77221   2.823  40.053   4.298
17961W        W77222  19.690   5.792  13.374
17962W        W77223  13.625  30.959  14.438
17963W        W77224  38.540  29.101   0.830
17964W        W77225  11.645   2.269   2.178
17965W        W77226  44.005  35.969  14.787
17966W        W77227  17.602  43.898  11.078
17967W        W77228  38.843  13.612  13.419
17968W        W77229  44.342  35.005   0.483
17969W        W77230  37.418  28.080   4.127
17970W        W77231  42.407   6.858  13.821
17971W        W77232   6.692   8.252   1.765
17972W        W77233  23.216  18.117  11.932
17973W        W77234   0.797   1.478  11.590
17974W        W77235  25.503  19.206  11.612
17975W        W77236   5.723  29.549  13.356
17976W        W77237  13.784  41.906   3.359
17977W        W77238  21.127  34.005  14.780
17978W        W77239  17.231  14.116  12.831
17979W        W77240  34.038   9.213  11.446
17980W        W77241  32.629   7.207  13.920
17981W        W77242  11.210  12.627  12.439
17982W        W77243   5.235  29.427  12.862
17983W        W77244  13.605   5.194  11.048
17984W        W77245  33.571  25.654   2.779
17985W        W77246  19.545  12.716  11.534
17986W        W77247  14.216  32.521   1.379
17987W        W77248  33.531  31.002  11.863
17988W        W77249  13.639  44.934  14.358
17989W        W77250  13.281   2.938   2.666
17990W        W77251  15.647  30.932   0.356
17991W        W77252   8.161  37.921   0.478
17992W        W77253  14.659  17.270  10.017
17993W        W77254  39.850  25.104  14.487
17994W        W77255  14.261  42.969  11.904
17995W        W77256  20.185  30.139  12.483
17996W        W77257  14.721  34.487  12.931
17997W        W77258  13.326  27.492   1.784
17998W        W77259  19.041  12.718  12.923
17999W        W77260   4.400  14.152  14.939
18000W        W77261  20.718   8.263  14.953
18001W        W77262   9.807  22.721   3.241
18002W        W77263  14.159  20.602   2.785
18003W        W77264  30.937   2.245   2.332
18004W        W77265  16.262  15.679  12.515
18005W        W77266  10.642   3.390  11.898
18006W        W77267  36.885  21.615  12.897
18007W        W77268   4.269  33.059  14.438
18008W        W77269  19.566  30.089  14.982
18009W        W77270  17.590  14.819   0.475
18010W        W77271   5.876   6.680   4.161
18011W        W77272  22.009   6.352  12.939
18012W        W77273  12.323  11.220  12.438
18013W        W77274  18.627  41.444  11.091
18014W        W77275  37.066   5.230  10.914
18015W        W77276  29.526   5.310  10.903
18016W        W77277  42.985  21.232  13.002
18017W        W77278  24.002  38.852   5.290
18018W        W77279  10.646  36.446   2.280
18019W        W77280  15.290  23.718   3.718
18020W        W77281  23.580  36.042  14.981
18021W        W77282  35.041  17.189  11.006
18022W        W77283  42.350  38.557   3.381
18023W        W77284  44.481  43.341  11.090
18024W        W77285  11.666  11.200   0.866
18025W        W77286   3.721  12.303   2.762
18026W        W77287   5.369   3.808  12.833
18027W        W77288  32.055  17.097   2.189
18028W        W77289  27.616   2.957   3.223
18029W        W77290  21.262  21.170  13.850
18030W        W77291  41.970  30.048   1.704
18031W        W77292  16.648   5.861  10.511
18032W        W77293  30.010  31.626   9.592
18033W        W77294  17.651  26.187   0.796
18034W        W77295  37.831  37.012   5.607
18035W        W77296  20.571   3.436  14.840
18036W        W77297  10.797  31.123   4.115
18037W        W77298  16.800  17.613   2.826
18038W        W77299  19.051   5.381   0.357
18039W        W77300  17.773  42.786   3.683
18040W        W77301  11.208   8.379   2.378
18041W        W77302   2.831  28.556  14.406
18042W        W77303  10.647  27.574  11.454
18043W        W77304  22.621  31.007  11.878
18044W        W77305  18.626  21.758   3.776
18045W        W77306  24.641   6.324  13.871
18046W        W77307  15.719  32.889  10.906
18047W        W77308  21.112   0.440   4.256
18048W        W77309  27.997  28.044   4.280
18049W        W77310   9.842  44.880  14.935
18050W        W77311  16.619   9.717  12.458
18051W        W77312  11.629  10.272  12.975
18052W        W77313   6.827  16.644  11.547
18053W        W77314  15.657   4.780   9.443
18054W        W77315  33.048  44.862   4.233
18055W        W77316   1.744  41.816   2.336
18056W        W77317   7.389  43.457   3.647
18057W        W77318  17.561  22.636   4.741
18058W        W77319   9.716  28.978  10.551
18059W        W77320  43.388  15.228   0.470
18060W        W77321  38.464  35.562   4.179
18061W        W77322  12.839  38.516  12.366
18062W        W77323   2.829  14.145  13.846
18063W        W77324  31.491  33.103  12.852
18064W        W77325   2.848  18.601   3.216
18065W        W77326   2.954  21.700  14.314
18066W        W77327  30.074  15.254   1.432
18067W        W77328   7.875  19.553  11.920
18068W        W77329   1.861   6.831   1.410
18069W        W77330  44.462  29.598   0.439
18070W        W77331  17.709  24.568   2.771
18071W        W77332  41.934   4.849  11.576
18072W        W77333  13.309  42.299   0.256
18073W        W77334  30.421  40.996   0.446
18074W        W77335  22.568   2.318  11.917
18075W        W77336  18.102  37.082   1.262
18076W        W77337  29.141  37.552   0.767
18077W        W77338  18.625  39.504   3.796
18078W        W77339  38.839   8.709  12.567
18079W        W77340  21.542   2.946   2.790
18080W        W77341  30.570  29.043   4.169
18081W        W77342  13.792  33.437  13.928
18082W        W77343  28.521  11.138  14.820
18083W        W77344  38.929   3.371   4.342
18084W        W77345  23.536   2.773   2.706
18085W        W77346  41.511   6.744   1.350
18086W        W77347  12.706  24.036  13.405
18087W        W77348  38.944  22.659  12.391
18088W        W77349   9.281   1.411  11.474
18089W        W77350  42.884   4.917  14.763
18090W        W77351  43.508  21.571  13.495
18091W        W77352  14.814  34.519   3.160
18092W        W77353   5.233  12.777  11.085
18093W        W77354  11.867  10.696  14.784
18094W        W77355  26.033  40.956  10.569
18095W        W77356   0.311  34.465  10.446
18096W        W77357  34.936  33.392   2.788
18097W        W77358  34.076   7.713   3.695
18098W        W77359  42.477  15.180  14.292
18099W        W77360  32.013  16.775   3.755
18100W        W77361  23.658   4.823  14.451
18101W        W77362  35.930  35.920   0.329
18102W        W77363  43.450  22.514   1.836
18103W        W77364   4.794  10.327  13.419
18104W        W77365  40.867  10.165  11.969
18105W        W77366  13.143  37.024   0.851
18106W        W77367  29.025  34.005  11.118
18107W        W77368   6.749  20.091  12.894
18108W        W77369  37.501  22.214  12.922
18109W        W77370   3.301  32.020   5.129
18110W        W77371  39.473   3.292   3.769
18111W        W77372   2.380   0.323  13.881
18112W        W77373  27.581  33.622   3.215
18113W        W77374  13.688  12.801  10.505
18114W        W77375  17.261  44.857  13.419
18115W        W77376  29.655  21.107   0.411
18116W        W77377  24.993  22.546   0.416
18117W        W77378  31.137  18.171  13.487
18118W        W77379  16.285  37.365   1.892
18119W        W77380  22.177  18.767   4.190
18120W        W77381  39.461  25.548  14.481
18121W        W77382  36.587   4.789   0.471
18122W        W77383  34.023  32.437  14.868
18123W        W77384   0.483  24.117   1.800
18124W        W77385   0.935  12.304  14.920
18125W        W77386  10.717  24.637   2.337
18126W        W77387  21.520  41.875   3.651
18127W        W77388   1.469  29.434  10.475
18128W        W77389  38.867  39.556  14.342
18129W        W77390   9.231  31.619  11.912
18130W        W77391   8.804  37.580   2.739
18131W        W77392  21.224  32.906   1.839
18132W        W77393  20.632  26.025  13.530
18133W        W77394  37.861  23.669   0.959
18134W        W77395  11.261   3.914  13.546
18135W        W77396   4.924  37.498   4.310
18136W        W77397  32.013   7.692   3.742
18137W        W77398  29.653   1.245   1.298
18138W        W77399  24.614  13.824   1.728
18139W        W77400  11.743  16.206  11.509
18140W        W77401  32.057  44.963  13.966
18141W        W77402  32.950  37.008  12.535
18142W        W77403   7.903  43.859  11.575
18143W        W77404  26.638  12.697   0.767
18144W        W77405  19.219  24.198   0.326
18145W        W77406   6.297  23.151   0.782
18146W        W77407  43.467  44.977   3.854
18147W        W77408  31.104  41.831  14.792
18148W        W77409  34.431  40.998   3.326
18149W        W77410   8.247  29.559   2.867
18150W        W77411  37.401  14.213   0.278
18151W        W77412  23.692   6.724  12.973
18152W        W77413  15.666  13.734  13.849
18153W        W77414  10.692  10.379   0.465
18154W        W77415  12.256  21.623  14.487
18155W        W77416   6.399  24.138  12.339
18156W        W77417  33.471  44.888   1.260
18157W        W77418  28.671  30.973  13.379
18158W        W77419  14.275  27.073  12.999
18159W        W77420   9.661  23.153  14.921
18160W        W77421  21.733  12.332   1.726
18161W        W77422   3.298   9.667  10.457
18162W        W77423  36.983  39.049   3.348
18163W        W77424   0.427  25.118   4.275
18164W        W77425  23.697  29.117   1.435
18165W        W77426  18.743   6.838   0.349
18166W        W77427  33.625  19.729   0.454
18167W        W77428  37.527  18.270  11.515
18168W        W77429  37.892  10.142  14.296
18169W        W77430  25.195  42.857   1.833
18170W        W77431   9.272   1.244  13.497
18171W        W77432  11.287  12.855  11.408
18172W        W77433  22.643  33.930  12.007
18173W        W77434  35.957  41.915   0.430
18174W        W77435  25.539  41.381  13.383
18175W        W77436   7.761   7.789   4.777
18176W        W77437  44.779   5.747   3.159
18177W        W77438  25.085  29.482  10.034
18178W        W77439   8.277  34.597   3.730
18179W        W77440   6.858  25.098  13.064
18180W        W77441  43.960  35.001  10.511
18181W        W77442  12.259   0.966   0.928
18182W        W77443  44.454  32.104  10.628
18183W        W77444  21.595  27.601   3.639
18184W        W77445  10.870  35.963   4.624
18185W        W77446  14.269  24.190   1.917
18186W        W77447  25.696  35.017   2.409
18187W        W77448  41.321  41.808  13.901
18188W        W77449  11.838  19.679  10.514
18189W        W77450   0.315  30.659   0.911
18190W        W77451  11.132  37.435  13.038
18191W        W77452  16.144  27.589   4.297
18192W        W77453  21.187  38.937   4.122
18193W        W77454  13.111  10.862  12.373
18194W        W77455  43.336  14.245   2.773
18195W        W77456  31.012  30.987  13.958
18196W        W77457  34.378   2.238  12.546
18197W        W77458  41.893  22.018  11.062
18198W        W77459   8.727   2.341  11.077
18199W        W77460  25.514  25.503   1.257
18200W        W77461   0.352  23.702   4.297
18201W        W77462  39.405  10.786  14.499
18202W        W77463  35.942  34.505   1.833
18203W        W77464  36.853  27.013   3.312
18204W        W77465   1.323  11.132  11.412
18205W        W77466  11.266  18.068  13.894
18206W        W77467  32.974  40.869  13.027
18207W        W77468  12.207  24.614   4.340
18208W        W77469   8.802   5.910   2.374
18209W        W77470  26.484  22.594  11.577
18210W        W77471  12.764  42.999  12.055
18211W        W77472  36.970  44.873  11.079
18212W        W77473  26.695  10.743   3.776
18213W        W77474   6.243  30.007  11.082
18214W        W77475  13.286  35.492  14.405
18215W        W77476  41.886  41.790   4.755
18216W        W77477  18.662  41.367   3.178
18217W        W77478  11.303   7.281  10.464
18218W        W77479  19.640  28.659   4.194
18219W        W77480  17.765  11.698  10.607
18220W        W77481   6.418  27.008   0.767
18221W        W77482  14.282  39.030   4.132
18222W        W77483  34.008  39.957   3.726
18223W        W77484   0.488  30.609   1.313
18224W        W77485  35.955   7.349   0.812
18225W        W77486  21.551  40.984   1.224
18226W        W77487  25.517  28.058   1.317
18227W        W77488  40.383   2.850   2.774
18228W        W77489  36.057  11.838   4.243
18229W        W77490  41.527  11.283   0.260
18230W        W77491   0.394   7.865   0.956
18231W        W77492  30.495   2.954  13.535
18232W        W77493  16.720   7.353  13.543
18233W        W77494  18.622  13.777   0.967
18234W        W77495  21.710   9.768  10.577
18235W        W77496  23.114  24.682  10.559
18236W        W77497   6.791   6.210  13.517
18237W        W77498   1.934   5.930  11.068
18238W        W77499  24.987   0.987  14.894
18239W        W77500  27.150  20.692   2.377
18240W        W77501  20.029   5.254   5.663
18241W        W77502  19.134  15.151   3.792
18242W        W77503  36.985  44.307   3.855
18243W        W77504  12.173  33.556   0.413
18244W        W77505  33.476  29.504  11.393
18245W        W77506  26.610  30.936   1.827
18246W        W77507  26.663  12.173   2.843
18247W        W77508  10.380  37.402  12.428
18248W        W77509   8.185   9.296   5.750
18249W        W77510  35.956  13.833   2.863
18250W        W77511  15.181  39.813   3.832
18251W        W77512  24.500  23.601  12.347
18252W        W77513   5.300   9.155  11.579
18253W        W77514   9.171  10.260  10.902
18254W        W77515  32.571   0.886  12.979
18255W        W77516   4.363   7.800   0.378
18256W        W77517  12.655  22.065   4.189
18257W        W77518  42.332  34.021   1.399
18258W        W77519  29.430  28.584   4.679
18259W        W77520  30.078  12.703   1.751
18260W        W77521  39.820  36.520   0.268
18261W        W77522   4.360  39.933  10.465
18262W        W77523  30.100  10.299   0.891
18263W        W77524  13.264   8.325   4.701
18264W        W77525   7.840   4.892  11.576
18265W        W77526  30.463  24.693  12.968
18266W        W77527  15.142  40.516  14.919
18267W        W77528  20.537  12.787  12.483
18268W        W77529  20.073  39.434  11.582
18269W        W77530  36.990  21.706  10.993
18270W        W77531   9.727  41.949  13.925
18271W        W77532  31.599  43.968  11.427
18272W        W77533  32.534  35.467   0.829
18273W        W77534  27.587  33.129   1.243
18274W        W77535  16.230  39.957   0.339
18275W        W77536   3.370  26.008  11.481
18276W        W77537  43.397  42.897   0.833
18277W        W77538  37.431  19.119  12.380
18278W        W77539  23.543  30.434  13.473
18279W        W77540  43.353  41.860  14.953
18280W        W77541  38.922   7.381  12.955
18281W        W77542   4.377  24.100   0.849
18282W        W77543   8.852  17.633   2.833
18283W        W77544  34.874  15.177   4.626
18284W        W77545  18.718  42.876  11.079
18285W        W77546  30.539  29.518  14.381
18286W        W77547  10.202  12.165   3.166
18287W        W77548  22.679   5.312   2.298
18288W        W77549  10.166  35.371   2.825
18289W        W77550  34.001   7.360   5.088
18290W        W77551  37.980  29.435  12.420
18291W        W77552  11.366  40.509  11.421
18292W        W77553  12.314   8.837  10.506
18293W        W77554  11.361  19.078   3.355
18294W        W77555  22.736  31.926   3.806
18295W        W77556  30.019  13.351  13.539
18296W        W77557  34.868   0.373   3.815
18297W        W77558  44.489  42.873  13.368
18298W        W77559  34.115   7.179  10.909
18299W        W77560  12.653  36.573   0.788
18300W        W77561  38.489  18.653  12.342
18301W        W77562  28.932  14.098   2.297
18302W        W77563  32.075  34.483   0.263
18303W        W77564  29.998  36.053  11.993
18304W        W77565  36.012  42.972   3.227
18305W        W77566   8.683  15.100   2.351
18306W        W77567  11.645  29.932  11.937
18307W        W77568  41.876  24.538   1.388
18308W        W77569  31.563   7.708   0.749
18309W        W77570  35.966   5.892   0.961
18310W        W77571  31.976  38.931  12.901
18311W        W77572  34.476   1.432   2.242
18312W        W77573  14.141  13.194   1.340
18313W        W77574   9.152  39.926   9.940
18314W        W77575  36.865  37.898   1.818
18315W        W77576  18.596  39.948   1.311
18316W        W77577   8.169   0.812   0.747
18317W        W77578  18.116  26.168   1.859
18318W        W77579  30.658   9.733   5.307
18319W        W77580  43.408  30.610  10.931
18320W        W77581  23.081  13.827  13.307
18321W        W77582  38.023   7.219  13.449
18322W        W77583   9.224  29.087   3.707
18323W        W77584  22.678  30.475  14.924
18324W        W77585  28.060  20.730   4.348
18325W        W77586  15.795  10.714  10.502
18326W        W77587  33.945  34.985   0.800
18327W        W77588  34.037  35.471   2.319
18328W        W77589  21.248  39.057   3.711
18329W        W77590  36.369  38.062  11.104
18330W        W77591  27.127  37.383  13.860
18331W        W77592   7.854   9.818  12.836
18332W        W77593  26.487  21.648  12.381
18333W        W77594  24.004  16.733  10.567
18334W        W77595  15.750   2.915   4.783
18335W        W77596  25.096  31.949  13.544
18336W        W77597  20.636  29.053   1.324
18337W        W77598   9.265  34.929   2.864
18338W        W77599  21.112  15.716   2.191
18339W        W77600  39.947  34.074   0.306
18340W        W77601  28.046  33.524   1.914
18341W        W77602  29.425  15.647   1.711
18342W        W77603  10.291  30.450  10.597
18343W        W77604  30.472  39.518   3.862
18344W        W77605  27.659  27.992  13.489
18345W        W77606   4.714  20.195  10.571
18346W        W77607  43.872  24.511   2.687
18347W        W77608  17.134  10.213   2.883
18348W        W77609  31.514   2.934   2.379
18349W        W77610   4.860   6.740  14.841
18350W        W77611  24.146   3.341  12.090
18351W        W77612   6.421  38.041   3.308
18352W        W77613   4.285  18.695  14.977
18353W        W77614  13.336  28.056   1.451
18354W        W77615  21.538  30.426   1.881
18355W        W77616  34.476  11.810  11.520
18356W        W77617  16.624  32.953  13.330
18357W        W77618  42.407   2.394   1.298
18358W        W77619  34.424  26.622   0.893
18359W        W77620  41.968  36.066   1.419
18360W        W77621   6.722  10.667  12.993
18361W        W77622  11.790  43.000  10.636
18362W        W77623  22.542   3.393  13.313
18363W        W77624  12.665  32.595   0.248
18364W        W77625  18.132  33.976  13.063
18365W        W77626  12.645   5.422   3.692
18366W        W77627   0.323  16.200   2.878
18367W        W77628  39.903  16.295  14.773
18368W        W77629  30.635   6.345   4.607
18369W        W77630   8.823  44.357  13.536
18370W        W77631  33.054  21.047  14.806
18371W        W77632   7.784   0.325   4.686
18372W        W77633   6.765  23.202  10.980
18373W        W77634   4.741  31.020   1.307
18374W        W77635  18.753  23.550  13.025
18375W        W77636   3.298  32.997  11.856
18376W        W77637   2.904  14.280   3.833
18377W        W77638  17.608  11.201   3.264
18378W        W77639   4.251  24.559  11.873
18379W        W77640  38.868   8.304   4.638
18380W        W77641  31.005   3.430   4.619
18381W        W77642  24.191  23.681   3.192
18382W        W77643  25.076  36.013   2.385
18383W        W77644  20.259  36.093   4.197
18384W        W77645  33.384   3.920   4.353
18385W        W77646  31.606  39.959   1.843
18386W        W77647   6.194   4.269   1.427
18387W        W77648  27.607  21.573   2.193
18388W        W77649  31.031   5.869   2.383
18389W        W77650   5.324  27.021   4.681
18390W        W77651  16.136  19.135  13.809
18391W        W77652  41.834   4.422   0.777
18392W        W77653  17.199   8.724   1.858
18393W        W77654  20.063  17.126   2.296
18394W        W77655   7.289  35.972  12.053
18395W        W77656  13.241  11.345   2.323
18396W        W77657  23.700  16.782   3.284
18397W        W77658  21.200  20.681   2.681
18398W        W77659  36.543  22.227  13.412
18399W        W77660  34.988  13.136   2.738
18400W        W77661  43.344   7.743   2.378
18401W        W77662  33.102  41.489  12.393
18402W        W77663  21.215  39.846  10.122
18403W        W77664   9.350  25.482  13.519
18404W        W77665  29.108  33.437  10.993
18405W        W77666  14.647   8.812  12.861
18406W        W77667  38.010  37.087   3.170
18407W        W77668  14.659  36.399   0.445
18408W        W77669  15.111  19.127   1.316
18409W        W77670  18.564  16.313   3.658
18410W        W77671  38.557  43.290   4.638
18411W        W77672  13.688  28.019   2.405
18412W        W77673  43.418  21.650   0.748
18413W        W77674  37.900   0.363   4.144
18414W        W77675  16.172  18.115  12.926
18415W        W77676  35.516  11.848   0.453
18416W        W77677   4.206   5.238   5.581
18417W        W77678   2.726  21.112  13.985
18418W        W77679  41.522   8.313   3.788
18419W        W77680  34.108  44.005   2.314
18420W        W77681   8.357  41.371   0.784
18421W        W77682  14.114   2.836   3.220
18422W        W77683  30.540  44.753  11.107
18423W        W77684  18.718   0.769  14.994
18424W        W77685   0.910  28.534   0.353
18425W        W77686  22.618  12.800  13.861
18426W        W77687  39.936  23.222  14.772
18427W        W77688  44.326   1.457   2.260
18428W        W77689  29.098  37.044  14.472
18429W        W77690  17.302  31.509   0.911
18430W        W77691   0.926   5.861   0.431
18431W        W77692  35.856  30.529  13.504
18432W        W77693  15.703  25.557  13.515
18433W        W77694  32.973   4.875   1.904
18434W        W77695  23.137  22.252   1.831
18435W        W77696  25.193  40.311   5.178
18436W        W77697  11.173  40.000  13.999
18437W        W77698  39.903  17.290   3.747
18438W        W77699   5.771  20.643  14.362
18439W        W77700  25.667  20.603   1.239
18440W        W77701  37.074  35.485   3.276
18441W        W77702  27.475   2.357  12.063
18442W        W77703  35.070  38.430  11.454
18443W        W77704  20.740   1.836  11.414
18444W        W77705  25.694  21.264  10.907
18445W        W77706  13.272  40.405   0.327
18446W        W77707   7.800  33.481   1.389
18447W        W77708  19.556  33.532   1.353
18448W        W77709  30.068  20.090   1.816
18449W        W77710  32.939   5.791   0.944
18450W        W77711   3.724   7.898   0.255
18451W        W77712  42.517  37.528  13.886
18452W        W77713  40.507   9.210  10.441
18453W        W77714  35.525  18.277  13.916
18454W        W77715   8.287  27.113  12.869
18455W        W77716  38.371   8.200   3.740
18456W        W77717   2.245   4.907   0.379
18457W        W77718  22.537  14.178   2.870
18458W        W77719   1.752  42.290  11.455
18459W        W77720  25.189  24.056  12.486
18460W        W77721  22.192  34.442  12.894
18461W        W77722  33.549  21.059  14.858
18462W        W77723  27.040  33.888  14.788
18463W        W77724  42.505   9.240  12.059
18464W        W77725  16.093   3.935   0.949
18465W        W77726  22.628   7.873  13.949
18466W        W77727  26.136   6.677   2.722
18467W        W77728  17.098  37.061   0.303
18468W        W77729  11.671  15.283  10.050
18469W        W77730  20.073  11.235   3.783
18470W        W77731  26.562  19.725   1.860
18471W        W77732  20.559   9.242   2.199
18472W        W77733   5.796  33.044   0.953
18473W        W77734  37.079  30.641  10.554
18474W        W77735  30.986  23.622   0.255
18475W        W77736   5.904  11.287  10.547
18476W        W77737  32.593  26.524   3.741
18477W        W77738  12.127  39.530   0.417
18478W        W77739  41.998  20.555  12.475
18479W        W77740   3.459  31.426   4.294
18480W        W77741  31.519  39.480  10.499
18481W        W77742  37.843  30.506   0.798
18482W        W77743  29.489  18.735  13.048
18483W        W77744  12.798  11.133  13.435
18484W        W77745  20.244  12.826  10.487
18485W        W77746   4.782   5.431  14.365
18486W        W77747  40.525  40.018   0.368
18487W        W77748  24.105   0.840  10.473
18488W        W77749  24.063  40.001  11.109
18489W        W77750   1.440  31.124   3.861
18490W        W77751  34.578  12.683  12.393
18491W        W77752   6.332  35.373   4.115
18492W        W77753  23.664  40.841   3.211
18493W        W77754  43.931   3.229  12.346
18494W        W77755  36.053  32.979  10.530
18495W        W77756   6.422   2.825   0.428
18496W        W77757  18.287  29.088  11.021
18497W        W77758  32.436  37.931   0.349
18498W        W77759  15.321   9.704   0.756
18499W        W77760   3.442  39.530   2.880
18500W        W77761   7.405   1.868   3.254
18501W        W77762  13.192  14.258   4.785
18502W        W77763  32.502  38.446   3.661
18503W        W77764   0.796  12.247  12.091
18504W        W77765   8.776  14.308   2.755
18505W        W77766  10.325  28.622   2.794
18506W        W77767   6.227  37.566   3.848
18507W        W77768  24.978   8.760  12.070
18508W        W77769  18.587   0.399  10.974
18509W        W77770  25.179  27.572   5.182
18510W        W77771   9.375   3.939   0.327
18511W        W77772  12.624  38.510   0.466
18512W        W77773   4.298  16.092   4.805
18513W        W77774  38.948  17.651  13.482
18514W        W77775  17.792  42.938   2.898
18515W        W77776  17.266  33.540   5.128
18516W        W77777   5.772   9.761   3.856
18517W        W77778  26.634  32.440   0.330
18518W        W77779  39.425  36.571   2.768
18519W        W77780   3.292  43.817   1.794
18520W        W77781  40.950  27.040   1.817
18521W        W77782  11.212  16.740  13.525
18522W        W77783  20.704   1.249  14.437
18523W        W77784  25.002  25.488  14.018
18524W        W77785  35.446  19.587  11.089
18525W        W77786  23.170  11.374   1.878
18526W        W77787  19.066  40.495  12.846
18527W        W77788  29.020  34.087   3.854
18528W        W77789  25.018  13.678   2.239
18529W        W77790  23.638  20.617  13.378
18530W        W77791  19.593  41.875   3.844
18531W        W77792   0.459   5.799   4.150
18532W        W77793   8.343   3.248  10.631
18533W        W77794  36.866  35.555   1.246
18534W        W77795  14.738  27.052  13.962
18535W        W77796  15.790   4.853  14.798
18536W        W77797  13.695   4.390   1.285
18537W        W77798  22.594  13.834  10.956
18538W        W77799  20.110  41.875   3.748
18539W        W77800  19.055   1.901  12.552
18540W        W77801   0.985  27.573  14.465
18541W        W77802  38.883  43.938  10.536
18542W        W77803  12.332  23.547  13.383
18543W        W77804  20.754  36.354   1.221
18544W        W77805  43.014  26.499   2.311
18545W        W77806  29.034  31.115   4.745
18546W        W77807  43.009   6.769   1.372
18547W        W77808   9.201  38.054  14.485
18548W        W77809  38.937  27.650  12.929
18549W        W77810   0.281  41.006  12.954
18550W        W77811  30.463  22.197   3.734
18551W        W77812  34.933   2.347  13.928
18552W        W77813  40.805  44.853   3.187
18553W        W77814   8.840   8.236  12.950
18554W        W77815  13.661  20.606   3.303
18555W        W77816  40.364  11.636  10.542
18556W        W77817  31.994  23.537  14.002
18557W        W77818  17.064  36.539  10.440
18558W        W77819  37.577  12.253  10.497
18559W        W77820  39.471  28.014   4.145
18560W        W77821  40.522  38.493  13.455
18561W        W77822  26.680  14.748   3.637
18562W        W77823  16.083  43.300   2.876
18563W        W77824  38.452  12.306  14.289
18564W        W77825   8.812  32.028  12.423
18565W        W77826   5.802  15.120   2.206
18566W        W77827  36.883  11.741   2.419
18567W        W77828  32.083   3.344  13.545
18568W        W77829  43.455  11.139   4.767
18569W        W77830  10.356  44.891   4.259
18570W        W77831  18.196  14.818  11.939
18571W        W77832   3.227  10.709   0.869
18572W        W77833  20.168   6.395  14.281
18573W        W77834  21.149  44.330   2.859
18574W        W77835  18.121  38.871   0.914
18575W        W77836  44.358   6.246   4.667
18576W        W77837  15.284  22.204   4.264
18577W        W77838  27.602   8.348   4.151
18578W        W77839   7.230  15.816  14.021
18579W        W77840  34.434  32.106   1.384
18580W        W77841  21.147  26.060   0.390
18581W        W77842  22.527  27.027  11.417
18582W        W77843   1.442  39.415  11.503
18583W        W77844  15.144  30.437  10.429
18584W        W77845  23.192  14.201  13.835
18585W        W77846  32.908   4.736  12.561
18586W        W77847  20.227  37.991  14.311
18587W        W77848   9.186   0.424   0.464
18588W        W77849  29.454  20.239   2.362
18589W        W77850  34.007   0.470  12.944
18590W        W77851  16.118  19.285   2.827
18591W        W77852  34.506  42.873  14.499
18592W        W77853   8.198  22.508   4.160
18593W        W77854  44.324   6.300   0.909
18594W        W77855  36.439  34.027   0.483
18595W        W77856   7.236  20.202  12.073
18596W        W77857  23.223  44.966   4.782
18597W        W77858  11.198  30.148  13.435
18598W        W77859  13.681  40.420  11.909
18599W        W77860  30.646   7.204   4.622
18600W        W77861  23.217  33.967   1.310
18601W        W77862  19.050  20.125   2.235
18602W        W77863  21.029  41.846  12.920
18603W        W77864  17.626  28.631   0.478
18604W        W77865  32.965  32.986   4.302
18605W        W77866  18.729   3.231   5.216
18606W        W77867   7.694  24.039   0.957
18607W        W77868  37.949   7.335   1.406
18608W        W77869  38.836   4.938  13.043
18609W        W77870  23.641   3.883  12.500
18610W        W77871  32.479  37.452  14.361
18611W        W77872  37.383   4.732   4.601
18612W        W77873  17.275  36.064  10.427
18613W        W77874  22.110   6.425  10.911
18614W        W77875  41.964   8.306   4.211
18615W        W77876   0.288  39.024  14.333
18616W        W77877  30.586  29.457   2.232
18617W        W77878  40.985  41.501  12.439
18618W        W77879  38.047  42.297  10.465
18619W        W77880  42.939  42.868   4.811
18620W        W77881   3.930  34.373   0.746
18621W        W77882   9.825  27.161  12.560
18622W        W77883  27.091   9.700  14.765
18623W        W77884  43.310  32.544   0.288
18624W        W77885   1.353  25.172   1.846
18625W        W77886  16.301  13.128   2.748
18626W        W77887  38.360  39.553  12.956
18627W        W77888   4.734   5.778  13.469
18628W        W77889  37.496  26.509   2.851
18629W        W77890  37.992   9.783  11.914
18630W        W77891   6.820   1.397  11.399
18631W        W77892  12.771   2.280  11.944
18632W        W77893   9.217   8.765  12.569
18633W        W77894  28.948  40.545  12.955
18634W        W77895   3.368  30.983   0.323
18635W        W77896  30.950  16.661   4.758
18636W        W77897  19.670  30.608   3.869
18637W        W77898  43.781  27.971   5.173
18638W        W77899  29.085  18.788   3.734
18639W        W77900  39.397  17.259   1.352
18640W        W77901  39.940  39.875  12.925
18641W        W77902  24.139  21.025  10.420
18642W        W77903  21.610   2.443  10.618
18643W        W77904  32.480  38.446  12.992
18644W        W77905  40.400   7.315  14.030
18645W        W77906  21.143  23.060   3.693
18646W        W77907  28.979   3.747  13.993
18647W        W77908   5.735   5.804  13.028
18648W        W77909  22.201  39.871   3.162
18649W        W77910   2.845  36.585  12.945
18650W        W77911   6.885   0.767  10.985
18651W        W77912   6.340  12.799   4.270
18652W        W77913  38.990   9.377  11.878
18653W        W77914  10.656   3.443  14.940
18654W        W77915  22.202  16.185  12.580
18655W        W77916  32.033  44.850   1.234
18656W        W77917   3.237   9.315   4.151
18657W        W77918  25.702   9.697  13.384
18658W        W77919  20.196  33.880  14.864
18659W        W77920  10.152  32.081   5.104
18660W        W77921  43.829   0.744   3.339
18661W        W77922  36.908   8.340   3.345
18662W        W77923   5.203  32.560   1.807
18663W        W77924  10.874   3.864   2.737
18664W        W77925  20.750   7.280   0.940
18665W        W77926   1.792  20.191   4.172
18666W        W77927   4.368   3.725   3.273
18667W        W77928  26.684  23.594  12.543
18668W        W77929  23.995  10.791   1.758
18669W        W77930  30.415  34.397   1.913
18670W        W77931  43.911  30.978   3.384
18671W        W77932   1.748  26.542  13.393
18672W        W77933  17.638  33.945  11.410
18673W        W77934  25.550  29.570  14.474
18674W        W77935  14.828  43.279   2.255
18675W        W77936   0.259  25.982   0.871
18676W        W77937   0.430  25.636  12.050
18677W        W77938   9.650   6.875   4.672
18678W        W77939  20.570  18.290  12.564
18679W        W77940  11.795  39.847  12.574
18680W        W77941   3.920  30.547  11.879
18681W        W77942  44.777  19.226   2.221
18682W        W77943  25.612  15.285  11.434
18683W        W77944   8.349  27.197  12.403
18684W        W77945   4.443  37.370  12.092
18685W        W77946   5.915  39.326   4.708
18686W        W77947   0.985  16.584  13.841
18687W        W77948  41.024  29.160   4.655
18688W        W77949  37.407  40.010   3.812
18689W        W77950   9.739  13.279  12.348
18690W        W77951  37.944  24.037  12.978
18691W        W77952  24.058  38.490  14.439
18692W        W77953  20.678   1.297   3.699
18693W        W77954  33.070  20.119   1.819
18694W        W77955  25.995  34.516   0.924
18695W        W77956  37.977  23.993   0.376
18696W        W77957  16.707  16.567   3.218
18697W        W77958  40.431   5.914  10.594
18698W        W77959  30.014  12.116  13.901
18699W        W77960  38.021  13.320  12.522
18700W        W77961   9.180   8.370  11.873
18701W        W77962   8.168  29.566  12.947
18702W        W77963   6.836  37.548  10.914
18703W        W77964  22.162  38.393  13.999
18704W        W77965  19.274  24.180  14.337
18705W        W77966  12.746  24.525  14.504
18706W        W77967  21.109   7.906  12.473
18707W        W77968  44.397   8.253   4.325
18708W        W77969  19.688  42.014   3.218
18709W        W77970  38.394  31.535  12.569
18710W        W77971   9.783  35.568   1.257
18711W        W77972  31.983  10.252  13.341
18712W        W77973  16.792   1.263  10.563
18713W        W77974  25.501  27.146   1.722
18714W        W77975  32.512  30.589   5.182
18715W        W77976  36.506  43.281  12.384
18716W        W77977  29.482  27.491   4.304
18717W        W77978  31.050   2.916   4.639
18718W        W77979  19.625   7.817   0.357
18719W        W77980  42.911  16.791   1.387
18720W        W77981  25.111  35.547  14.289
18721W        W77982  30.078  43.383  12.009
18722W        W77983  40.866  12.201  14.487
18723W        W77984  43.484  11.741  14.385
18724W        W77985   9.272   8.812   5.222
18725W        W77986   6.417  34.446   4.341
18726W        W77987   4.292  35.513   0.883
18727W        W77988  18.634  30.065   2.209
18728W        W77989  16.674  30.062   3.180
18729W        W77990  17.281   3.236   3.781
18730W        W77991   3.886  14.799   4.340
18731W        W77992  36.964   4.703   1.707
18732W        W77993  41.016  26.458   1.739
18733W        W77994  42.014  32.112  10.615
18734W        W77995  12.219   9.883   1.901
18735W        W77996  21.107  20.085  10.973
18736W        W77997  34.580  39.464  13.056
18737W        W77998  15.131  25.556  11.888
18738W        W77999  31.113  26.468   3.238
18739W        W78000  38.400   3.319   3.358
18740W        W78001  14.764   6.841  12.000
18741W        W78002  41.359  38.892   0.286
18742W        W78003   7.287  26.497  13.414
18743W        W78004  34.943  14.221   0.283
18744W        W78005  39.502   3.225   2.383
18745W        W78006  24.097   6.252  10.929
18746W        W78007   4.364  17.598   0.921
18747W        W78008  18.565   8.297   1.295
18748W        W78009  26.632  10.691  10.552
18749W        W78010   8.854  15.670  13.855
18750W        W78011   0.414  44.342   0.435
18751W        W78012   7.346  30.965   3.350
18752W        W78013  33.527  15.763   2.765
18753W        W78014  15.679  13.158   3.339
18754W        W78015  27.489  22.554   1.342
18755W        W78016  38.944   2.834   2.867
18756W        W78017  29.059  22.128  12.990
18757W        W78018  24.586  35.533   1.826
18758W        W78019  11.627  25.660   4.279
18759W        W78020  17.564  12.835   4.340
18760W        W78021  11.641  10.382  13.987
18761W        W78022  15.763  10.163   1.293
18762W        W78023  13.308  28.628  12.935
18763W        W78024  13.777  38.001   0.810
18764W        W78025  19.753  30.942   4.790
18765W        W78026  37.546   0.827   2.895
18766W        W78027  19.156  10.148   3.288
18767W        W78028  43.775  26.103   2.667
18768W        W78029  10.361  14.160  13.460
18769W        W78030  41.426   6.908  10.486
18770W        W78031  36.475  20.204  12.373
18771W        W78032  21.674  21.188  12.903
18772W        W78033  15.087   9.385  11.384
18773W        W78034  27.968   1.921   0.398
18774W        W78035   8.886  11.751   1.226
18775W        W78036  10.143  20.743  10.527
18776W        W78037  38.022  25.096   1.772
18777W        W78038   5.849  38.552   3.221
18778W        W78039  35.498  15.283  12.437
18779W        W78040  28.020  29.648  11.428
18780W        W78041  31.522   9.737   5.196
18781W        W78042  39.037   0.292  13.417
18782W        W78043   0.977   8.353   4.605
18783W        W78044  14.191  42.354   3.702
18784W        W78045  36.886  22.238  10.471
18785W        W78046  13.711  30.437   3.852
18786W        W78047   1.311   6.297  11.107
18787W        W78048  31.466  14.759  14.862
18788W        W78049  43.351  19.760  11.394
18789W        W78050  42.946  24.659   1.893
18790W        W78051  22.193  38.378  11.877
18791W        W78052  38.436  44.779  14.337
18792W        W78053  32.396  21.090   3.844
18793W        W78054  19.066  26.047  14.409
18794W        W78055  41.885   5.715   1.877
18795W        W78056  39.445  25.537   2.832
18796W        W78057  34.973  33.443   4.658
18797W        W78058  11.803   7.248  12.865
18798W        W78059  30.943  25.216  11.950
18799W        W78060   9.793  17.723   3.869
18800W        W78061   2.918   9.864  12.030
18801W        W78062  12.145  36.992   4.258
18802W        W78063  33.929  25.669   1.438
18803W        W78064   3.770   5.277  11.044
18804W        W78065   0.441  29.119  13.007
18805W        W78066   5.193  11.292   0.814
18806W        W78067  41.333   9.367  10.986
18807W        W78068   3.281  16.581  13.944
18808W        W78069  44.943  25.558   0.870
18809W        W78070  38.004   2.928   3.184
18810W        W78071  25.531  41.793   3.170
18811W        W78072  41.008  13.680   3.775
18812W        W78073  42.339  33.983   4.176
18813W        W78074   6.227  39.970  14.288
18814W        W78075  38.399  12.765  14.390
18815W        W78076  10.867   5.748  12.469
18816W        W78077  36.526   3.237  14.459
18817W        W78078  38.064  29.146  12.862
18818W        W78079  13.728  33.961   0.937
18819W        W78080  22.087  44.425  12.911
18820W        W78081   8.395   4.324  10.111
18821W        W78082  17.716  31.013  14.285
18822W        W78083  35.472   8.885   2.744
18823W        W78084   7.794  28.671   3.373
18824W        W78085  31.117   2.232   1.785
18825W        W78086  42.451  32.097   3.200
18826W        W78087  16.695   1.795  14.871
18827W        W78088  24.204  11.721  10.897
18828W        W78089  28.184  19.254  10.591
18829W        W78090   3.748   0.406  10.446
18830W        W78091  30.592  27.472  12.501
18831W        W78092  12.672  30.564  14.954
18832W        W78093   9.802  23.558   2.414
18833W        W78094  30.062  16.187   0.966
18834W        W78095  32.957  13.660   0.738
18835W        W78096  29.935  18.175  13.358
18836W        W78097   0.788  36.386   3.158
18837W        W78098  21.204  29.007  13.405
18838W        W78099  15.229  33.612   1.851
18839W        W78100  43.386   0.383  13.514
18840W        W78101  14.206  33.427   3.309
18841W        W78102  42.413  22.541  11.463
18842W        W78103  25.501   4.940   0.812
18843W        W78104   0.275  43.332  11.489
18844W        W78105   0.912  41.858   3.689
18845W        W78106   7.781  43.854  12.878
18846W        W78107  24.589  22.724  13.425
18847W        W78108  33.110   3.924  12.457
18848W        W78109  32.891  13.842   3.849
18849W        W78110  33.472  13.788   2.188
18850W        W78111  12.222  36.879  11.579
18851W        W78112  24.525   4.269   0.371
18852W        W78113  44.425  15.286  12.363
18853W        W78114  36.883  31.930   1.364
18854W        W78115   6.890  10.332   2.690
18855W        W78116  36.577  44.324   4.202
18856W        W78117  14.635   0.909   2.257
18857W        W78118  35.869  14.764  12.025
18858W        W78119  19.224  25.559   4.247
18859W        W78120  14.144   9.254  13.916
18860W        W78121   5.899  41.324  14.287
18861W        W78122  17.284  11.248   1.254
18862W        W78123  34.939   1.819  13.927
18863W        W78124  28.642  42.513  14.880
18864W        W78125   4.834  13.816  10.443
18865W        W78126  15.213  26.085   4.256
18866W        W78127   4.838  35.976   2.251
18867W        W78128   0.300   0.767   3.660
18868W        W78129  12.201  29.650   0.440
18869W        W78130   0.377   1.972  11.873
18870W        W78131  37.062  19.696  13.804
18871W        W78132  22.717  11.216   4.613
18872W        W78133  32.580  44.304  11.916
18873W        W78134  43.982   7.843   4.610
18874W        W78135  21.066  38.423   1.725
18875W        W78136  10.838  44.810   3.331
18876W        W78137  12.252  12.804   0.324
18877W        W78138  27.467   2.456   0.425
18878W        W78139   2.806   9.790  13.034
18879W        W78140  29.525   7.699  12.367
18880W        W78141  44.420  29.466  13.958
18881W        W78142  38.833   0.319  12.495
18882W        W78143  42.821  15.588  12.408
18883W        W78144   8.283  42.514   2.713
18884W        W78145  39.012   2.449  11.088
18885W        W78146  40.878  21.111  13.059
18886W        W78147  40.328  24.489   9.620
18887W        W78148   2.914  29.031  13.899
18888W        W78149   7.755   3.813   5.161
18889W        W78150   8.370  21.245   0.484
18890W        W78151  39.053  40.353  10.618
18891W        W78152  27.544  23.576   3.697
18892W        W78153  39.453  27.123  11.865
18893W        W78154   4.773  41.533   0.897
18894W        W78155  21.161   2.467  14.382
18895W        W78156   9.196  14.742  12.019
18896W        W78157  19.718  44.781   1.780
18897W        W78158  14.183  19.172   4.182
18898W        W78159  32.637  44.435  14.821
18899W        W78160  26.108  39.503  11.548
18900W        W78161  25.153  21.094   2.693
18901W        W78162  26.687  40.348   4.131
18902W        W78163  16.806  14.697  12.535
18903W        W78164  43.012  36.035   9.980
18904W        W78165  26.092  35.940   4.826
18905W        W78166  18.078  32.049  13.050
18906W        W78167  40.545  22.183  14.824
18907W        W78168  39.022  27.038  14.944
18908W        W78169  12.237  41.319  10.908
18909W        W78170  36.435  14.314  11.395
18910W        W78171  21.117  40.912  10.940
18911W        W78172  39.016  41.788  14.401
18912W        W78173  10.774  39.465   3.322
18913W        W78174  29.947  44.824  12.855
18914W        W78175  30.956   6.837  11.469
18915W        W78176  16.698  33.078  10.910
18916W        W78177   7.408  17.559  13.359
18917W        W78178  24.205   0.339  13.873
18918W        W78179  42.457  11.320  12.847
18919W        W78180  34.539  16.085   3.734
18920W        W78181   5.928   3.901   0.282
18921W        W78182  27.020  16.789  12.932
18922W        W78183  15.633   8.724  10.931
18923W        W78184  31.519  27.160  10.455
18924W        W78185  18.237  16.315   3.266
18925W        W78186  22.135  38.024  12.925
18926W        W78187  17.684  27.152  11.568
18927W        W78188  23.096  17.231   4.174
18928W        W78189   8.262  15.792  10.632
18929W        W78190   5.285  14.682  12.446
18930W        W78191   3.805  13.225   1.853
18931W        W78192  14.604   3.261  14.342
18932W        W78193  20.127  31.139   4.147
18933W        W78194  12.782   9.682  13.056
18934W        W78195   4.767  18.606  10.624
18935W        W78196   5.324   6.736  10.438
18936W        W78197  10.150   8.358   4.765
18937W        W78198  24.624  11.679  13.955
18938W        W78199  35.536  39.021  12.850
18939W        W78200   7.207  31.466  10.560
18940W        W78201   2.396  40.338  11.930
18941W        W78202  39.904  35.965   4.252
18942W        W78203  43.379  36.858  10.896
18943W        W78204  42.510  21.017  12.550
18944W        W78205  32.628  42.486  11.439
18945W        W78206  38.979  39.422  11.874
18946W        W78207  43.399   3.905   0.867
18947W        W78208  43.883  21.599  14.865
18948W        W78209  41.379  32.897   5.304
18949W        W78210   6.258  26.975   1.698
18950W        W78211  18.184  15.765  13.344
18951W        W78212  14.684   1.957   2.370
18952W        W78213  22.580  39.929   1.232
18953W        W78214  21.536  22.631  12.875
18954W        W78215   3.872  30.598   3.377
18955W        W78216  34.574   5.297  14.995
18956W        W78217  12.721  20.592  10.501
18957W        W78218  33.879  34.870  12.525
18958W        W78219  30.457  43.886  11.861
18959W        W78220   5.297  10.269  12.066
18960W        W78221  44.869  31.017  10.513
18961W        W78222  26.466  31.117  14.915
18962W        W78223  18.057  29.497   4.128
18963W        W78224  33.592  19.761  11.118
18964W        W78225  39.548   9.151  13.880
18965W        W78226  19.713  16.271  11.930
18966W        W78227  33.443  27.189  11.607
18967W        W78228  41.295  22.655  12.500
18968W        W78229   4.403   1.824   0.889
18969W        W78230  39.841  44.957   1.264
18970W        W78231  41.920  29.995  13.031
18971W        W78232  19.650  38.832  13.459
18972W        W78233  24.686  35.910   2.692
18973W        W78234  37.357  16.135  13.802
18974W        W78235  36.906  32.590  13.498
18975W        W78236   9.753  33.061  12.403
18976W        W78237   7.385  32.911   1.886
18977W        W78238  11.718  19.251   1.383
18978W        W78239  44.277   7.793  13.883
18979W        W78240   8.667  21.196  14.797
18980W        W78241   5.919   3.218  13.795
18981W        W78242  27.159  31.622   0.415
18982W        W78243  27.057  29.941  13.442
18983W        W78244  43.511   9.290  13.862
18984W        W78245  11.171   9.362   2.335
18985W        W78246  23.028  10.647   3.856
18986W        W78247  29.543  17.097   3.798
18987W        W78248   1.883  34.599   4.274
18988W        W78249  13.115  38.898   5.169
18989W        W78250   3.824  38.414  13.899
18990W        W78251   2.428  21.193   0.806
18991W        W78252   1.456  27.450   2.352
18992W        W78253  42.825  28.165   0.896
18993W        W78254  20.272  28.979  10.574
18994W        W78255   1.408  29.479  14.894
18995W        W78256   2.396  12.693  12.564
18996W        W78257  37.440  28.568  12.394
18997W        W78258  42.367  40.802  12.486
18998W        W78259  28.510   0.385   0.336
18999W        W78260   5.877   1.317   3.731
19000W        W78261   4.717  21.112  14.011
19001W        W78262   9.748  20.035  13.362
19002W        W78263  27.457  33.052  13.987
19003W        W78264  42.393  12.359   1.911
19004W        W78265  10.717  29.447   1.228
19005W        W78266  25.473   5.770   3.803
19006W        W78267  43.476  26.483  13.867
19007W        W78268  11.168  21.647  11.074
19008W        W78269  43.361  31.582  14.029
19009W        W78270   6.768  31.077  12.426
19010W        W78271   1.941  17.579  14.948
19011W        W78272   1.830  39.401   4.155
19012W        W78273  41.317   4.343   3.210
19013W        W78274  37.967  44.853  13.806
19014W        W78275  16.615  25.106   0.341
19015W        W78276   3.787  41.039   1.406
19016W        W78277  41.292   4.256   1.749
19017W        W78278   1.472  38.032   1.850
19018W        W78279  27.647  23.986   4.651
19019W        W78280  42.891   8.264  14.899
19020W        W78281  11.637   3.415   9.986
19021W        W78282  17.595   7.740  11.092
19022W        W78283  37.525  39.862  13.918
19023W        W78284  10.141  36.852   3.339
19024W        W78285  35.468  15.604  14.977
19025W        W78286  18.739  38.826   5.164
19026W        W78287   9.205  36.386   0.946
19027W        W78288  32.034  38.040  14.373
19028W        W78289   0.272  38.518   0.378
19029W        W78290  16.318  30.571   4.210
19030W        W78291  44.858  17.221  12.404
19031W        W78292   9.653  40.870  13.488
19032W        W78293  25.112  14.126  12.000
19033W        W78294  34.386  37.891   2.365
19034W        W78295  27.594  25.467   2.662
19035W        W78296  33.474  18.660   3.662
19036W        W78297  12.140   5.819   1.401
19037W        W78298  15.598  39.317  14.373
19038W        W78299  41.860   8.834  10.643
19039W        W78300  42.960  36.057   0.278
19040W        W78301  40.904  37.080  14.863
19041W        W78302  29.125  42.020   0.875
19042W        W78303  18.546  16.619  12.002
19043W        W78304  14.286  42.811   4.670
19044W        W78305  44.842   2.321  12.416
19045W        W78306   4.274  36.868   0.303
19046W        W78307  30.442  26.169   0.867
19047W        W78308  12.798  12.644   1.236
19048W        W78309  29.428  25.040   3.382
19049W        W78310   4.836  19.721  11.505
19050W        W78311  42.365  42.380   2.714
19051W        W78312  31.903  16.686  11.512
19052W        W78313  15.599  11.827   3.663
19053W        W78314  25.487   9.652  11.472
19054W        W78315  40.359   8.818   1.779
19055W        W78316   7.810   8.228   5.222
19056W        W78317  37.881  39.865  11.430
19057W        W78318  32.016  17.635   4.749
19058W        W78319  24.719   7.734   0.735
19059W        W78320  10.634  24.108   3.321
19060W        W78321  40.968  37.922  14.932
19061W        W78322  44.936  27.195   9.923
19062W        W78323  44.777  33.520   3.752
19063W        W78324   3.313  31.071   2.847
19064W        W78325  16.160  25.681  14.363
19065W        W78326  43.451   5.390   2.395
19066W        W78327  44.450   0.339   4.748
19067W        W78328  17.079  17.297  12.993
19068W        W78329  10.642  26.647   1.843
19069W        W78330  24.031  25.190  11.527
19070W        W78331  36.086  43.452   0.348
19071W        W78332  30.104  21.080  12.525
19072W        W78333   6.892  30.036  11.894
19073W        W78334  31.964  36.362  13.818
19074W        W78335  28.094  13.657   3.722
19075W        W78336  34.034  38.858  13.433
19076W        W78337  30.105  42.329   4.212
19077W        W78338  13.688  34.959   3.685
19078W        W78339  34.064   7.736   5.156
19079W        W78340  36.974  33.603   0.832
19080W        W78341  33.897  31.944  13.432
19081W        W78342  12.690  42.012  13.410
19082W        W78343  17.161  44.432  14.018
19083W        W78344  22.198  12.265  11.964
19084W        W78345  42.892   3.458  13.980
19085W        W78346  41.487  21.179  12.909
19086W        W78347   0.262  40.520  14.971
19087W        W78348  20.759  30.132   0.958
19088W        W78349   9.852  20.558  13.949
19089W        W78350  14.776   2.903   1.804
19090W        W78351  36.058   9.658   0.372
19091W        W78352  26.021  26.700   0.752
19092W        W78353  12.649   6.685   0.291
19093W        W78354  28.115  16.783  10.493
19094W        W78355   3.417  11.846  11.421
19095W        W78356  36.412  44.993  11.061
19096W        W78357  13.178  16.623  10.985
19097W        W78358  13.210  24.978  10.604
19098W        W78359  12.246  22.131   3.735
19099W        W78360  37.080   8.210  12.995
19100W        W78361  26.650  16.605  10.098
19101W        W78362  41.865  28.990   1.213
19102W        W78363  39.057  22.726   1.709
19103W        W78364  42.393  27.635  13.849
19104W        W78365  35.087   5.719   2.814
19105W        W78366   7.878   1.481   0.779
19106W        W78367   2.870   3.941   3.827
19107W        W78368   6.763   0.851  11.541
19108W        W78369  40.489   0.462  12.546
19109W        W78370  34.433  33.121  12.567
19110W        W78371  21.728  41.999  11.966
19111W        W78372   9.246  36.905  14.843
19112W        W78373  44.887  28.952   1.745
19113W        W78374   8.735  37.530  11.096
19114W        W78375  26.205  43.773  13.022
19115W        W78376  11.868  11.848   4.692
19116W        W78377  39.055  34.504  12.416
19117W        W78378  39.357  13.231   0.889
19118W        W78379   4.702  21.212  10.640
19119W        W78380  18.097   0.949  14.814
19120W        W78381  32.048  41.002  11.947
19121W        W78382  25.189   6.824  14.408
19122W        W78383  37.071   0.902  14.287
19123W        W78384  15.131  21.036   3.182
19124W        W78385  34.067  37.510  10.558
19125W        W78386   5.878  35.100  11.022
19126W        W78387  43.456  20.609  13.530
19127W        W78388  20.674  26.480  14.436
19128W        W78389   0.278  14.145   2.875
19129W        W78390  44.295  19.202   3.291
19130W        W78391   8.743  25.562   3.662
19131W        W78392  33.408  21.092  10.917
19132W        W78393   4.770  23.201   1.348
19133W        W78394   9.644  19.762   4.825
19134W        W78395  27.447  32.046  13.051
19135W        W78396   0.420  11.707   2.902
19136W        W78397  16.771  10.676   1.724
19137W        W78398  22.150  37.374  11.969
19138W        W78399  10.157  35.083  12.475
19139W        W78400  18.271  34.874   3.187
19140W        W78401  44.332  11.228  14.027
19141W        W78402  35.914  36.425   4.342
19142W        W78403   8.204  16.810   4.269
19143W        W78404  24.696   5.826  12.465
19144W        W78405  29.018   6.820  13.529
19145W        W78406  39.409  11.297   3.218
19146W        W78407  14.599  14.114   0.442
19147W        W78408   3.879   3.218   3.645
19148W        W78409   8.376  40.440  12.074
19149W        W78410  13.158  10.706  10.427
19150W        W78411  37.366   0.767   1.325
19151W        W78412  21.031   5.860  12.856
19152W        W78413  39.876  30.567  11.891
19153W        W78414   6.364  30.128   4.597
19154W        W78415  10.345   1.257   1.383
19155W        W78416  30.089   1.383   1.855
19156W        W78417  44.293  44.330  14.776
19157W        W78418   9.756  41.786   3.351
19158W        W78419  28.987   1.324  11.084
19159W        W78420  30.126  31.972  13.795
19160W        W78421  43.913  34.879   0.835
19161W        W78422  28.936   4.402   4.116
19162W        W78423  26.478  25.555   5.278
19163W        W78424  11.817  13.266  13.472
19164W        W78425  15.745  19.043  13.954
19165W        W78426  21.542   7.770  12.404
19166W        W78427  20.600  40.518  13.846
19167W        W78428  37.383  30.025   4.673
19168W        W78429   8.892  44.339  11.575
19169W        W78430  34.891  13.656   1.408
19170W        W78431  24.499   7.306  14.995
19171W        W78432  30.987  24.017   2.760
19172W        W78433  19.098  35.897  14.008
19173W        W78434  34.505  31.052  10.418
19174W        W78435  41.318  19.654  10.948
19175W        W78436  18.690  23.490  10.920
19176W        W78437  29.093   5.696  11.919
19177W        W78438  16.112  16.224   4.760
19178W        W78439  18.699  15.711   2.187
19179W        W78440  36.503  15.181   0.746
19180W        W78441  30.927  35.602  12.492
19181W        W78442  26.015  33.618  10.441
19182W        W78443  17.580  19.657  12.423
19183W        W78444  12.626   5.337  12.474
19184W        W78445  41.463  36.444  10.075
19185W        W78446  10.218  34.037  14.784
19186W        W78447  36.538  36.378  12.873
19187W        W78448  14.693  30.123   0.876
19188W        W78449   5.775  42.919  13.014
19189W        W78450  12.292  21.246  12.512
19190W        W78451   3.912   5.904  12.473
19191W        W78452  28.131  26.196   1.239
19192W        W78453  11.627  16.632   3.333
19193W        W78454  33.479  20.088   0.774
19194W        W78455  34.908  22.170   2.695
19195W        W78456   8.893   1.831   9.982
19196W        W78457  14.799  22.740  13.470
19197W        W78458   7.735  42.991   2.221
19198W        W78459  44.503   2.877  14.282
19199W        W78460  22.251  35.912   0.950
19200W        W78461   0.411   8.343  11.544
19201W        W78462   4.917  11.801  10.631
19202W        W78463  30.152  32.956  13.026
19203W        W78464  10.745   2.424   2.716
19204W        W78465   7.671   8.730  10.935
19205W        W78466  17.292   2.841   1.410
19206W        W78467   7.230  30.096  13.380
19207W        W78468  21.252  17.305   1.316
19208W        W78469   0.328  24.607  10.141
19209W        W78470  20.039  16.241   4.625
19210W        W78471  32.936   0.931   3.278
19211W        W78472  18.068  26.208   0.805
19212W        W78473  42.347  35.947  14.498
19213W        W78474  32.614   2.290   4.771
19214W        W78475  27.516  14.318  14.814
19215W        W78476   1.751  44.468   3.669
19216W        W78477  19.108  36.954  14.451
19217W        W78478  35.594  13.693  13.348
19218W        W78479  37.351  35.450  14.984
19219W        W78480  26.208  30.647  11.085
19220W        W78481  30.912  12.199   3.775
19221W        W78482  38.961  17.671  13.861
19222W        W78483   7.772   9.158  12.487
19223W        W78484   2.357   2.435   3.747
19224W        W78485  38.069  27.559   3.706
19225W        W78486  15.107  37.489   0.261
19226W        W78487  35.054  11.307   3.700
19227W        W78488  15.739   8.730  14.363
19228W        W78489  35.865  18.647  11.929
19229W        W78490  17.772   4.868   0.893
19230W        W78491  34.948  44.369   5.255
19231W        W78492   3.769  31.566  12.371
19232W        W78493   3.831   4.218   1.929
19233W        W78494   1.477  31.960  14.962
19234W        W78495  18.225   6.801  14.838
19235W        W78496  19.598  22.049   1.218
19236W        W78497  18.663  39.393   2.232
19237W        W78498  25.635   3.902  13.518
19238W        W78499  43.016  23.718   3.814
19239W        W78500  16.263  43.825  12.909
19240W        W78501   3.914  29.160  13.831
19241W        W78502  13.767  17.241   1.248
19242W        W78503   4.929   2.945   0.258
19243W        W78504  18.558  35.931   0.289
19244W        W78505   1.378  14.106   5.259
19245W        W78506  43.811  20.743   2.823
19246W        W78507  37.892  19.088   1.904
19247W        W78508   3.743  22.547   2.397
19248W        W78509  39.039  10.675   0.332
19249W        W78510  23.052  23.689  14.422
19250W        W78511  43.766  32.092   3.285
19251W        W78512   1.283  44.987   0.732
19252W        W78513   5.207  39.321   0.950
19253W        W78514  23.100  17.723  11.401
19254W        W78515  22.519  19.089  10.999
19255W        W78516  43.501  27.107   0.281
19256W        W78517  20.544  17.767   4.642
19257W        W78518  29.464  19.625  13.819
19258W        W78519  28.466  41.301   2.399
19259W        W78520  30.527  36.524   2.821
19260W        W78521  16.571  26.040   4.212
19261W        W78522  26.094  39.420   2.849
19262W        W78523  12.288  40.338   1.413
19263W        W78524   9.836  16.803   0.475
19264W        W78525  11.689  34.116  12.347
19265W        W78526  23.005  42.946  14.812
19266W        W78527  25.543  33.605   9.984
19267W        W78528  42.022  36.516   2.894
19268W        W78529  33.501  21.681   3.805
19269W        W78530  42.010  24.543  12.563
19270W        W78531  19.595  31.069   3.304
19271W        W78532   4.764  22.148  12.487
19272W        W78533  43.891  42.380   4.316
19273W        W78534  44.435  11.272   1.370
19274W        W78535  43.476  17.595   9.662
19275W        W78536  22.644  14.162   4.193
19276W        W78537  34.459   7.801  10.596
19277W        W78538  44.410  39.905  11.381
19278W        W78539  27.504   6.226  12.573
19279W        W78540  21.550   4.387  12.369
19280W        W78541  17.587   9.188  13.895
19281W        W78542  19.727  35.996   4.168
19282W        W78543   2.439   6.892  13.896
19283W        W78544   1.309  36.368   2.291
19284W        W78545   8.699  43.504  12.345
19285W        W78546  36.841  15.086   2.243
19286W        W78547  13.105  29.647   3.693
19287W        W78548  41.816   4.849  10.472
19288W        W78549  29.169   1.349  14.776
19289W        W78550  21.522  40.815   4.316
19290W        W78551  15.243   7.731  10.964
19291W        W78552  26.026  33.453  11.945
19292W        W78553  32.104  23.537   3.780
19293W        W78554  23.000  21.621   1.791
19294W        W78555  34.881   8.159  13.942
19295W        W78556   6.227  35.970   9.932
19296W        W78557  24.143   1.948   2.277
19297W        W78558  25.035  22.045   1.835
19298W        W78559  12.793  33.456  12.578
19299W        W78560  37.552  25.140   5.291
19300W        W78561   3.714  34.544   1.392
19301W        W78562  36.351   2.231   0.251
19302W        W78563  20.757   4.329   2.345
19303W        W78564  32.037  25.648   4.700
19304W        W78565   3.846  20.073  11.048
19305W        W78566  20.060  32.027  10.906
19306W        W78567  32.584  24.975  13.024
19307W        W78568  39.835  22.693  14.842
19308W        W78569   6.253  43.771  13.031
19309W        W78570   8.295  39.016  13.006
19310W        W78571  24.642  11.667  14.892
19311W        W78572  27.595  32.090  12.356
19312W        W78573   2.873  32.477   4.327
19313W        W78574  15.808  25.154   1.325
19314W        W78575  33.965  34.579   4.115
19315W        W78576  37.359  39.816   0.400
19316W        W78577  11.761  26.112  14.880
19317W        W78578  17.697  40.343   3.708
19318W        W78579   7.904  14.308   1.729
19319W        W78580  35.995  15.652  11.444
19320W        W78581  31.088  10.787  12.384
19321W        W78582   0.941  24.606  13.378
19322W        W78583  12.266  20.611  13.973
19323W        W78584  44.318  30.995   0.383
19324W        W78585  28.933  36.485  11.569
19325W        W78586   6.391  23.501   2.213
19326W        W78587  27.590  32.985  11.502
19327W        W78588   1.291  23.555  11.105
19328W        W78589  18.204  19.572  11.521
19329W        W78590  38.056  11.726   0.764
19330W        W78591  31.472  36.447  13.822
19331W        W78592  25.141  22.532   3.192
19332W        W78593  13.660   8.820  11.593
19333W        W78594  25.664  41.297  14.782
19334W        W78595  22.047  37.048   4.718
19335W        W78596  44.261  44.904   4.334
19336W        W78597  42.935  37.031  14.397
19337W        W78598  10.212  16.260  12.464
19338W        W78599  41.384  17.629   3.217
19339W        W78600   6.683  18.733   1.907
19340W        W78601  23.527  44.392   2.198
19341W        W78602  35.418  12.632  13.887
19342W        W78603  25.203  28.635  11.553
19343W        W78604   0.450  36.562  14.013
19344W        W78605   1.753  16.618   3.665
19345W        W78606  44.803  25.553  10.905
19346W        W78607  17.566  16.570  12.437
19347W        W78608  23.115  30.117   1.794
19348W        W78609  33.499  28.087   0.325
19349W        W78610   0.472  36.887   1.837
19350W        W78611  17.144  26.956  13.456
19351W        W78612  14.228  11.249   2.710
19352W        W78613   1.910   4.945  14.810
19353W        W78614  30.476   0.926  14.828
19354W        W78615  19.658  44.878   2.333
19355W        W78616  12.612  33.407  13.378
19356W        W78617  25.044  28.601   2.261
19357W        W78618  43.319   9.857   3.635
19358W        W78619  14.737  16.232   3.307
19359W        W78620   6.322  18.160   2.705
19360W        W78621  18.762   8.272  14.913
19361W        W78622  27.155  29.632  11.493
19362W        W78623  27.610  33.035  14.372
19363W        W78624  23.026   3.234  12.488
19364W        W78625  14.324   5.880  11.938
19365W        W78626  10.258   0.366  12.987
19366W        W78627  12.756  14.679  14.019
19367W        W78628  41.810   1.332   1.277
19368W        W78629   2.368  35.003  10.467
19369W        W78630   6.322   3.226  13.936
19370W        W78631  40.975  14.712  10.139
19371W        W78632  43.279  27.690   3.228
19372W        W78633  34.373  34.114  13.978
19373W        W78634  22.220   0.405  13.455
19374W        W78635  44.928  33.071   3.293
19375W        W78636  26.463  26.650   3.334
19376W        W78637  43.952   3.918  10.916
19377W        W78638   3.795  27.624   2.321
19378W        W78639   6.364  44.428   0.468
19379W        W78640  10.740   9.156  12.960
19380W        W78641  31.486  29.943  13.342
19381W        W78642  32.527  10.293  12.414
19382W        W78643   0.983  41.805   4.789
19383W        W78644  25.048  26.542  11.407
19384W        W78645  35.082  10.275   5.107
19385W        W78646  21.195  43.482   3.208
19386W        W78647  19.738   3.904  13.316
19387W        W78648  29.584  33.042   0.847
19388W        W78649  33.101  25.080  13.439
19389W        W78650   5.808  36.534  14.907
19390W        W78651  16.658  21.048  12.392
19391W        W78652  33.442   9.348   0.404
19392W        W78653  35.003  18.272  13.847
19393W        W78654  13.651   3.394   1.391
19394W        W78655   4.739   8.726  11.373
19395W        W78656  39.492  43.454  11.942
19396W        W78657  17.756  17.621   4.153
19397W        W78658  30.562  29.990   3.759
19398W        W78659  16.089  33.050   0.303
19399W        W78660   6.309  24.527  14.868
19400W        W78661  31.637  20.104   0.843
19401W        W78662  35.443  41.904  12.457
19402W        W78663   5.816  15.325   1.934
19403W        W78664   1.921  10.262   2.889
19404W        W78665  40.024  32.996  10.583
19405W        W78666  34.483  37.083   1.256
19406W        W78667  34.932  29.996  13.027
19407W        W78668  19.651  19.659   3.727
19408W        W78669   8.756   0.367   1.763
19409W        W78670  20.585   5.909  13.327
19410W        W78671  40.876  19.564  12.937
19411W        W78672  36.394  30.651   3.791
19412W        W78673  37.556  16.318   0.737
19413W        W78674  23.108  43.974   0.243
19414W        W78675  38.543   3.341   4.768
19415W        W78676  12.699  29.036  13.458
19416W        W78677  36.007  35.903  14.821
19417W        W78678  17.675  33.484  11.410
19418W        W78679  18.196  37.487  11.962
19419W        W78680  38.512  26.701   1.358
19420W        W78681  40.443  22.700  11.045
19421W        W78682  32.488  20.156  10.595
19422W        W78683  30.068  36.005   2.901
19423W        W78684  17.281  29.668   4.799
19424W        W78685  21.059  15.754   3.268
19425W        W78686  36.900  35.386   4.626
19426W        W78687  39.065  44.819  13.883
19427W        W78688  12.716  23.546  14.940
19428W        W78689   0.949  12.690   1.909
19429W        W78690  15.299   4.711   3.723
19430W        W78691  26.963  22.009  12.853
19431W        W78692   6.693  41.339  11.470
19432W        W78693  13.613  30.158  12.978
19433W        W78694   0.464  14.661  14.941
19434W        W78695  44.835  33.123   4.222
19435W        W78696  38.055   1.756  14.900
19436W        W78697   3.337   3.735   3.271
19437W        W78698  14.636  34.096  10.527
19438W        W78699   0.357  34.445   1.372
19439W        W78700  12.758   1.483  11.918
19440W        W78701  11.764  40.861  13.008
19441W        W78702   6.216   4.333   3.224
19442W        W78703  43.849  43.017  10.444
19443W        W78704  13.765  18.761   0.278
19444W        W78705  14.291  43.406   2.340
19445W        W78706  43.321  20.525   4.301
19446W        W78707  16.767   6.786   1.262
19447W        W78708  11.784  32.894  12.975
19448W        W78709   0.839  37.942   3.321
19449W        W78710  38.976  30.934  11.966
19450W        W78711  40.901  33.030   5.188
19451W        W78712   7.288   6.877   2.817
19452W        W78713  15.634  44.935  14.451
19453W        W78714  20.151  16.671   1.901
19454W        W78715  13.127  39.026   1.295
19455W        W78716   9.863  16.162  13.957
19456W        W78717  29.596   6.822  11.451
19457W        W78718  39.381  23.114  11.401
19458W        W78719  24.978  32.443  13.027
19459W        W78720  22.073  20.039  13.842
19460W        W78721  25.038  38.824   3.850
19461W        W78722  10.860  22.726  12.451
19462W        W78723  29.619  10.258  10.543
19463W        W78724  24.489   9.168   2.752
19464W        W78725  10.231  35.505   2.379
19465W        W78726  44.880  20.561   1.443
19466W        W78727  32.410  30.058  12.530
19467W        W78728  31.094  19.119   2.279
19468W        W78729  34.612  11.251   3.288
19469W        W78730  25.642  40.926  11.031
19470W        W78731  44.818  27.579  10.513
19471W        W78732   5.250  42.844  14.371
19472W        W78733  19.115  26.960   4.290
19473W        W78734   5.384  14.800   2.784
19474W        W78735   1.394   1.291  11.024
19475W        W78736  15.277  41.896  13.798
19476W        W78737   3.864  19.142   3.719
19477W        W78738  40.806  34.899  12.384
19478W        W78739   5.269  35.426   4.253
19479W        W78740  40.526  40.547  12.972
19480W        W78741  21.023  27.132  10.483
19481W        W78742  15.146  12.785  14.366
19482W        W78743  27.459  13.837   4.328
19483W        W78744  27.573   0.926  13.984
19484W        W78745  26.038  21.227   3.229
19485W        W78746  39.356  35.604   3.231
19486W        W78747  35.947  15.739   1.765
19487W        W78748  24.573  40.021   2.846
19488W        W78749   1.392  41.293  14.797
19489W        W78750  20.555  23.084  10.156
19490W        W78751  28.156   9.356  12.355
19491W        W78752  39.972  20.071   0.356
19492W        W78753  39.952  21.547  10.517
19493W        W78754  20.698  42.523   0.742
19494W        W78755  20.119  16.805  13.390
19495W        W78756  22.655  26.965  10.471
19496W        W78757  24.584  39.468   4.284
19497W        W78758  13.763  39.471  12.054
19498W        W78759   6.348  17.668  12.843
19499W        W78760  10.267  28.572   0.790
19500W        W78761  16.739  24.039  13.430
19501W        W78762  24.522  13.715   4.808
19502W        W78763   8.748  36.375  11.385
19503W        W78764  32.133  40.433   4.610
19504W        W78765  24.518  24.028  13.413
19505W        W78766  17.771  38.469   0.469
19506W        W78767  25.990  37.847   3.787
19507W        W78768  30.959   8.200  12.455
19508W        W78769   4.241  26.586   3.159
19509W        W78770   5.896  44.476   4.671
19510W        W78771  40.827  24.061  14.816
19511W        W78772   6.777  13.792  11.867
19512W        W78773  34.111  37.043   4.725
19513W        W78774  39.835   0.794   1.280
19514W        W78775   4.448  15.757   3.711
19515W        W78776   1.467  32.078  10.446
19516W        W78777  42.364  21.207  12.009
19517W        W78778  17.100  39.912   2.251
19518W        W78779  41.420  13.171   4.724
19519W        W78780  17.129   7.846  12.952
19520W        W78781  32.915  34.510   4.735
19521W        W78782  32.495   2.427  12.559
19522W        W78783  16.744  20.626   0.891
19523W        W78784  44.380   8.770   2.215
19524W        W78785   7.712  26.021   0.882
19525W        W78786  23.121  10.808  10.559
19526W        W78787  30.052  39.001  12.921
19527W        W78788   1.470  42.895   0.290
19528W        W78789  18.104  12.233  11.072
19529W        W78790   7.862  26.637   3.204
19530W        W78791   8.877  38.393   0.455
19531W        W78792   0.479   3.797   0.389
19532W        W78793  18.248   4.291  11.095
19533W        W78794  25.164  15.792   3.820
19534W        W78795  32.616  29.458  11.105
19535W        W78796   3.872  36.421  12.901
19536W        W78797  23.123  30.614   9.448
19537W        W78798  25.069   2.930   1.791
19538W        W78799   3.731  10.639   4.156
19539W        W78800  41.383  11.824  11.562
19540W        W78801  13.746  29.494  13.359
19541W        W78802  31.557  19.264  12.968
19542W        W78803  32.627  41.916  12.973
19543W        W78804  22.029  37.085   0.433
19544W        W78805  22.029  26.188  13.826
19545W        W78806  25.621  31.116  14.457
19546W        W78807   6.777  27.560   0.396
19547W        W78808   0.800  30.642   2.734
19548W        W78809  32.408  20.534  12.903
19549W        W78810   1.758   1.313  12.568
19550W        W78811  31.569  40.326  11.923
19551W        W78812  13.247   6.381   5.263
19552W        W78813  34.385  19.560   4.655
19553W        W78814  43.437  21.714   5.784
19554W        W78815  42.336  41.913   2.199
19555W        W78816   3.234  26.046  13.798
19556W        W78817  33.900  41.852   0.778
19557W        W78818  29.607  26.194  12.365
19558W        W78819  16.597  26.031  14.473
19559W        W78820  42.286  14.724  13.010
19560W        W78821   8.403  41.855   4.353
19561W        W78822  13.251  18.111  14.913
19562W        W78823  22.596  14.129   1.846
19563W        W78824  28.661  21.153  14.777
19564W        W78825   7.368  19.179   4.296
19565W        W78826  10.831  27.962   3.772
19566W        W78827  16.197   3.225   1.447
19567W        W78828  28.956  25.484   2.293
19568W        W78829  42.916  21.253   3.339
19569W        W78830  13.308   8.208   4.132
19570W        W78831  29.134  27.483   2.205
19571W        W78832   2.399  25.624  14.959
19572W        W78833  15.260  22.507  13.431
19573W        W78834   5.796  42.012  14.460
19574W        W78835  28.622   6.351   4.299
19575W        W78836  10.640  11.235   3.649
19576W        W78837  43.331   0.414  10.509
19577W        W78838  33.464  36.466   2.283
19578W        W78839   4.823   4.205   0.252
19579W        W78840  34.933  38.442  11.100
19580W        W78841  32.446   2.949  14.398
19581W        W78842  16.726  37.950   4.794
19582W        W78843  12.330  11.678  10.436
19583W        W78844  36.000   8.273  11.855
19584W        W78845  36.949  27.967  11.481
19585W        W78846  36.856   8.711   4.177
19586W        W78847  25.601  28.674  13.498
19587W        W78848  10.733   5.894   5.271
19588W        W78849  15.129  23.663  13.807
19589W        W78850  41.939  26.164  12.052
19590W        W78851  29.458  38.970  13.867
19591W        W78852  32.628  25.068   1.705
19592W        W78853  26.081  27.531   2.414
19593W        W78854  19.238  42.824  14.919
19594W        W78855  38.891  28.161   2.369
19595W        W78856  24.228  25.199  12.345
19596W        W78857  24.109  28.542   0.824
19597W        W78858  20.124   4.369  10.594
19598W        W78859   2.266   0.367   1.735
19599W        W78860  19.277  35.388   4.300
19600W        W78861  24.553   8.806   5.099
19601W        W78862   9.156  43.323   1.420
19602W        W78863  22.047  34.865   0.880
19603W        W78864  19.579   1.277  10.907
19604W        W78865   3.898  21.218   4.749
19605W        W78866  34.971  39.954  12.955
19606W        W78867  15.760  20.570   4.279
19607W        W78868  31.904  24.208   2.363
19608W        W78869  27.614  13.746  10.508
19609W        W78870  30.447  42.844   3.162
19610W        W78871  16.073  29.645   0.433
19611W        W78872  43.355  23.493   2.671
19612W        W78873  10.671  35.932  14.434
19613W        W78874  10.847  42.287   3.857
19614W        W78875  27.013  28.095   2.268
19615W        W78876  30.507  13.717  11.041
19616W        W78877  24.088  39.350  13.513
19617W        W78878  40.361   0.938  12.390
19618W        W78879  36.479  30.631   0.272
19619W        W78880  10.255   8.670   0.794
19620W        W78881  22.172  30.598  14.366
19621W        W78882  13.781  32.622  14.446
19622W        W78883  43.915  20.645  10.992
19623W        W78884  37.516  44.916  14.848
19624W        W78885  27.534   4.363   3.287
19625W        W78886   6.377  31.492   4.272
19626W        W78887   6.198   0.469   4.300
19627W        W78888  29.605  25.124  11.490
19628W        W78889  12.700   3.261  13.510
19629W        W78890  41.356  36.946   0.730
19630W        W78891  11.133   6.214   1.227
19631W        W78892  28.595  27.996   2.714
19632W        W78893  21.027   4.801   0.457
19633W        W78894   5.718  26.019   2.845
19634W        W78895  33.054   1.389   4.830
19635W        W78896  43.828  18.270  13.479
19636W        W78897  21.230  30.570  13.029
19637W        W78898  44.002  26.028  11.401
19638W        W78899  42.815  22.521   1.341
19639W        W78900   5.926  41.427   1.379
19640W        W78901   7.880  32.520   3.235
19641W        W78902  21.609   0.834  12.839
19642W        W78903  42.903  39.814   1.789
19643W        W78904  12.154  26.952   3.707
19644W        W78905  21.720  21.594   4.157
19645W        W78906  36.370   7.767  12.084
19646W        W78907   6.319  42.971   1.803
19647W        W78908   8.373  43.287  10.590
19648W        W78909  13.292  21.261   2.760
19649W        W78910   0.391  13.793  13.413
19650W        W78911  31.916  13.844  10.644
19651W        W78912  11.273  20.036   2.407
19652W        W78913   8.171   5.233   1.724
19653W        W78914   1.951   6.719   1.880
19654W        W78915  44.775  19.668  14.012
19655W        W78916  26.585  35.094   1.341
19656W        W78917  11.842  37.509   5.111
19657W        W78918  31.124  35.380  13.541
19658W        W78919  26.182  28.058  14.508
19659W        W78920  25.553  30.932  14.780
19660W        W78921  22.560  10.244  13.033
19661W        W78922   2.754   9.203   2.870
19662W        W78923  40.815  36.359  14.866
19663W        W78924  36.058   0.391  12.920
19664W        W78925  36.988  43.783  14.422
19665W        W78926  22.646   7.193  10.018
19666W        W78927   0.274   6.866   0.806
19667W        W78928  32.987  20.186   3.303
19668W        W78929  10.316   6.829   5.592
19669W        W78930  27.497  20.616  11.521
19670W        W78931  22.724   5.812  12.500
19671W        W78932  15.151  29.506   4.248
19672W        W78933   8.894  22.161  11.077
19673W        W78934  37.886   5.237   2.330
19674W        W78935  26.199  27.565  12.432
19675W        W78936   4.787  23.193   1.916
19676W        W78937  34.478  17.691   0.869
19677W        W78938   2.750   7.188   0.959
19678W        W78939  36.843  22.523  11.485
19679W        W78940  30.654  31.896  10.457
19680W        W78941  20.679  33.889  11.382
19681W        W78942  18.174  27.028  12.489
19682W        W78943  32.514  23.171   2.179
19683W        W78944  12.208  42.495   4.231
19684W        W78945   3.943  41.323  12.462
19685W        W78946  28.944  39.537  11.382
19686W        W78947   8.688  27.055  13.372
19687W        W78948   3.216  20.743  13.418
19688W        W78949  22.531  10.724  13.446
19689W        W78950  17.121  15.317   3.684
19690W        W78951   9.153  19.168  14.911
19691W        W78952  16.106  34.446  13.048
19692W        W78953  30.481  36.858   2.309
19693W        W78954  37.358   1.388  13.908
19694W        W78955  26.560  12.350  10.630
19695W        W78956  11.656  17.106   1.756
19696W        W78957  10.858  21.236   1.827
19697W        W78958  43.822   7.208   1.870
19698W        W78959  29.933  42.362   0.812
19699W        W78960  41.472  43.835  11.490
19700W        W78961  19.731  39.901   2.345
19701W        W78962   0.935  44.318   3.850
19702W        W78963  43.423  38.017  13.834
19703W        W78964   3.744  11.638   3.387
19704W        W78965  34.369  31.416   0.964
19705W        W78966   9.866  10.807  14.869
19706W        W78967  26.628  42.434  14.346
19707W        W78968  29.430  32.629   3.809
19708W        W78969  32.137  10.316  13.983
19709W        W78970  38.975  22.596   0.268
19710W        W78971  39.383  31.900   0.248
19711W        W78972  10.875  39.374  12.376
19712W        W78973  33.942   9.795  14.971
19713W        W78974  21.204   6.359   3.772
19714W        W78975   9.364  18.164   2.864
19715W        W78976  30.951  31.578   4.210
19716W        W78977  13.192  40.814   3.682
19717W        W78978  12.312  41.457   4.342
19718W        W78979  27.459  27.080  10.551
19719W        W78980  38.850  29.434  11.565
19720W        W78981  12.213  24.657   4.718
19721W        W78982  42.499   1.306   4.254
19722W        W78983  25.645  44.340   4.191
19723W        W78984   4.912  42.490   0.311
19724W        W78985   7.776  42.403   2.710
19725W        W78986  18.676  12.786  14.309
19726W        W78987  21.183  14.155   3.204
19727W        W78988  14.322  28.448   2.804
19728W        W78989  22.229  27.042   0.787
19729W        W78990  33.096  14.334  12.074
19730W        W78991  29.159   3.278  13.355
19731W        W78992  16.204  22.179  14.931
19732W        W78993  39.042  22.140  13.947
19733W        W78994  40.456  31.919  14.773
19734W        W78995  11.766  25.656  12.417
19735W        W78996  25.711  40.442  14.905
19736W        W78997  25.553   7.377   0.398
19737W        W78998  36.522  10.748   3.856
19738W        W78999  35.101  17.112   1.412
19739W        W79000  35.451  41.790   0.924
19740W        W79001   6.835  36.962  14.428
19741W        W79002   5.332  20.142   3.784
19742W        W79003   2.767  30.529   0.372
19743W        W79004   5.826  15.658  10.512
19744W        W79005   9.681  14.759  11.095
19745W        W79006  34.451  29.431   2.328
19746W        W79007  32.046  24.191  14.448
19747W        W79008  36.950  24.503   2.206
19748W        W79009   1.801  22.055  13.013
19749W        W79010  32.421  21.150  11.530
19750W        W79011  41.857  15.112   4.193
19751W        W79012  32.520  26.574   0.471
19752W        W79013  14.131  13.813  13.382
19753W        W79014  39.343   2.342   0.358
19754W        W79015  39.861   2.784   1.779
19755W        W79016  17.170  13.247   4.240
19756W        W79017   5.320  29.142   0.445
19757W        W79018   2.240   8.870   3.313
19758W        W79019   4.718  14.118   3.661
19759W        W79020   3.225  15.236   4.343
19760W        W79021  37.375   5.699  10.029
19761W        W79022  30.011   8.199   2.351
19762W        W79023  31.120   5.910   0.738
19763W        W79024  30.568  41.452  10.467
19764W        W79025  39.998   1.347   3.752
19765W        W79026  12.795  30.488  14.476
19766W        W79027   0.793  39.064   1.309
19767W        W79028  23.616   2.879   0.936
19768W        W79029  25.476  25.502  12.920
19769W        W79030  29.431  37.955   2.327
19770W        W79031   7.900   8.682   3.253
19771W        W79032  32.420  40.002   0.272
19772W        W79033  16.806   5.277  14.008
19773W        W79034  11.719  26.103   4.230
19774W        W79035  41.955  29.568   4.122
19775W        W79036  41.404   3.788   4.134
19776W        W79037  30.105  21.675  13.313
19777W        W79038  18.275   9.377   0.249
19778W        W79039  20.216  35.394   4.248
19779W        W79040  36.991  17.205   0.830
19780W        W79041  15.722  35.525  11.026
19781W        W79042   0.969  33.414  14.831
19782W        W79043  10.251  19.684   4.734
19783W        W79044  30.618  13.179   3.802
19784W        W79045  17.127  18.205  10.459
19785W        W79046  31.026  39.843  11.375
19786W        W79047  39.997  44.274   3.178
19787W        W79048   1.444  37.002  11.456
19788W        W79049  21.751  21.649   0.270
19789W        W79050   7.837  30.640   1.442
19790W        W79051  44.927   5.776   2.849
19791W        W79052  19.629  18.716   0.384
19792W        W79053   6.768  13.800   1.869
19793W        W79054  21.187   3.240   0.804
19794W        W79055  42.854   6.844  14.331
19795W        W79056  20.120   0.429  14.896
19796W        W79057  24.637  27.541   3.753
19797W        W79058  21.108  10.877  13.547
19798W        W79059  13.123  23.640  11.890
19799W        W79060  20.689  20.528  14.817
19800W        W79061  35.502   8.228  12.032
19801W        W79062  42.951  10.168  13.850
19802W        W79063  36.957  34.579   3.665
19803W        W79064  32.588  39.934   0.910
19804W        W79065   3.381   6.252  14.515
19805W        W79066  22.025  21.206   1.421
19806W        W79067  24.601  12.170   3.228
19807W        W79068   3.461  12.690  12.993
19808W        W79069  25.585  44.810   1.878
19809W        W79070   1.759   4.720  10.928
19810W        W79071  34.090  27.136   3.639
19811W        W79072  14.806  14.733   4.331
19812W        W79073  44.931   9.851  12.530
19813W        W79074  26.561  18.639   3.323
19814W        W79075   6.799  22.551  13.007
19815W        W79076  21.536   8.217  11.028
19816W        W79077  33.919   0.761   1.722
19817W        W79078  21.215  36.890   2.193
19818W        W79079  35.031  38.334   3.775
19819W        W79080  20.612   1.818  14.909
19820W        W79081  27.523  25.602   3.369
19821W        W79082  31.065  11.702  13.354
19822W        W79083  32.546  19.557  10.914
19823W        W79084  29.561  29.670   3.352
19824W        W79085  24.545  12.179   3.759
19825W        W79086   0.437   7.330  11.398
19826W        W79087  21.567  16.255  13.439
19827W        W79088   6.296  14.171   0.424
19828W        W79089  11.252  10.765  12.852
19829W        W79090  28.501  11.759   0.483
19830W        W79091  31.116  34.957  11.565
19831W        W79092  39.808  40.309   4.605
19832W        W79093  29.006  41.401   2.764
19833W        W79094  31.550  24.711  14.802
19834W        W79095  14.140   7.749   3.231
19835W        W79096  34.398   9.393  11.946
19836W        W79097  29.648  26.577   4.809
19837W        W79098  17.609  23.547  14.835
19838W        W79099  16.145   2.876  14.957
19839W        W79100   0.754  41.360  13.441
19840W        W79101   5.285  40.499  12.577
19841W        W79102  36.023  43.487  11.940
19842W        W79103  13.278  24.152   3.167
19843W        W79104  36.469   0.489   1.210
19844W        W79105  33.019  27.972   2.756
19845W        W79106  13.238  14.134  11.479
19846W        W79107  23.225  30.966  11.466
19847W        W79108  31.106  38.914  11.895
19848W        W79109  40.310   5.849  13.541
19849W        W79110   9.150  13.120   3.654
19850W        W79111  21.262  42.396  13.327
19851W        W79112  22.641  26.098  11.967
19852W        W79113  14.731  17.210   3.337
19853W        W79114  35.388  28.991   3.725
19854W        W79115  40.863  27.600  12.857
19855W        W79116   1.369  23.582   0.786
19856W        W79117  11.818  18.620   0.463
19857W        W79118   2.792  32.951   2.822
19858W        W79119  44.876  43.019  10.407
19859W        W79120   2.261  22.526  10.118
19860W        W79121   8.855  11.847  13.900
19861W        W79122   1.384  33.015   1.716
19862W        W79123  29.530  12.671   1.905
19863W        W79124  38.338  26.582   0.409
19864W        W79125  40.991   8.707   1.314
19865W        W79126  13.844  13.128   0.880
19866W        W79127  33.033  20.064   4.309
19867W        W79128  19.670   2.423   3.228
19868W        W79129   5.814  36.066  11.553
19869W        W79130   0.787  11.636  13.994
19870W        W79131  16.727   7.899   0.257
19871W        W79132   4.426  22.179   2.897
19872W        W79133  13.745  41.923  12.551
19873W        W79134  17.113  29.652   0.254
19874W        W79135   7.398  10.283  13.973
19875W        W79136  17.208  37.965  11.466
19876W        W79137   9.675  34.119  10.516
19877W        W79138   6.182  36.570   1.427
19878W        W79139  21.237  11.654   3.698
19879W        W79140  29.645   9.694   3.753
19880W        W79141   2.336  36.384  12.932
19881W        W79142   1.928  37.027   2.280
19882W        W79143  30.106  40.352  14.025
19883W        W79144  17.651   0.488   2.814
19884W        W79145   2.802  18.230   4.131
19885W        W79146  27.068  15.705   3.637
19886W        W79147   2.768  36.449  12.353
19887W        W79148  13.811  34.368  11.064
19888W        W79149  37.067  44.947  14.436
19889W        W79150  43.983  26.095   0.397
19890W        W79151  39.021  26.463  14.953
19891W        W79152  16.224  21.178   5.275
19892W        W79153   2.403   5.892   4.681
19893W        W79154   8.887  33.499   0.295
19894W        W79155  34.110  20.693  10.644
19895W        W79156  27.646  29.015  12.449
19896W        W79157  16.187  26.035   2.850
19897W        W79158  23.598  15.156   1.872
19898W        W79159  33.995  16.577  13.849
19899W        W79160  13.616  23.046   0.927
19900W        W79161  36.477  12.775   9.950
19901W        W79162  32.109   2.248   3.834
19902W        W79163  29.625  40.467  12.924
19903W        W79164  37.840  37.892  14.291
19904W        W79165  22.609  20.617  14.818
19905W        W79166  22.054  24.096  11.956
19906W        W79167  24.666  28.998  13.356
19907W        W79168  32.958  12.698   0.888
19908W        W79169  38.855  36.371  11.529
19909W        W79170  13.606  38.060  13.442
19910W        W79171  21.179   3.428   2.802
19911W        W79172  12.834  37.495  13.860
19912W        W79173   9.259  32.910  12.060
19913W        W79174   1.265  44.870  14.768
19914W        W79175  10.870   8.818   2.304
19915W        W79176  20.237   1.927  14.009
19916W        W79177  33.418  12.668   5.205
19917W        W79178  27.172   5.375   3.760
19918W        W79179  26.972  27.664   2.695
19919W        W79180  22.153  44.394   4.246
19920W        W79181   8.792  33.947  12.435
19921W        W79182   8.858  23.526  14.874
19922W        W79183  35.081  36.065   0.470
19923W        W79184  18.220  35.890  14.022
19924W        W79185  43.498  20.178   3.346
19925W        W79186   9.871   4.910   4.141
19926W        W79187  44.908  16.592   4.808
19927W        W79188  30.533  35.020  11.464
19928W        W79189  41.439  15.231  13.987
19929W        W79190   8.402  23.039  14.897
19930W        W79191  17.794  28.668  14.438
19931W        W79192  42.821  31.498  12.940
19932W        W79193   7.786  26.963  12.518
19933W        W79194   4.773  28.019   5.298
19934W        W79195  14.108  36.453  11.459
19935W        W79196  15.218  33.984  11.437
19936W        W79197  36.451   9.315   3.250
19937W        W79198  38.498  16.626   3.741
19938W        W79199  12.706  19.723   1.831
19939W        W79200  20.695  16.600   2.277
19940W        W79201  11.275  16.779  13.884
19941W        W79202  28.005  23.635   3.322
19942W        W79203  16.572  44.989  11.388
19943W        W79204   6.415  44.960  12.094
19944W        W79205  33.917  25.136  13.393
19945W        W79206  19.201  44.928   2.831
19946W        W79207  24.217  19.775  12.828
19947W        W79208  33.883  17.650  13.511
19948W        W79209  18.649  33.122  11.904
19949W        W79210   9.710  30.462   0.909
19950W        W79211   0.452  10.743   3.336
19951W        W79212   0.425   6.272  14.920
19952W        W79213  23.690  25.084   2.875
19953W        W79214  36.487  22.605  14.843
19954W        W79215  19.230  21.743   2.288
19955W        W79216  23.546  36.386  12.849
19956W        W79217   7.314  31.536   4.208
19957W        W79218   0.360  15.690   3.350
19958W        W79219  29.130  19.657   2.241
19959W        W79220   1.375  30.970  10.571
19960W        W79221  26.068  17.625  11.460
19961W        W79222   2.416   2.828  14.352
19962W        W79223  41.371   0.439   4.716
19963W        W79224  39.984   8.850  13.423
19964W        W79225  28.625  43.336  14.867
19965W        W79226  41.342   6.356   4.614
19966W        W79227  11.146   7.741  12.068
19967W        W79228   2.363  33.058  10.901
19968W        W79229  41.443  39.013  13.793
19969W        W79230  14.666  42.414  14.946
19970W        W79231  17.753  30.633   3.632
19971W        W79232   2.431  15.202   2.896
19972W        W79233  38.374   7.751  13.463
19973W        W79234  27.050  12.648   2.881
19974W        W79235   3.302  34.922  12.844
19975W        W79236  17.666  43.913   1.422
19976W        W79237   2.417  15.663   4.730
19977W        W79238   6.265  24.690   2.878
19978W        W79239  35.397  25.518   3.336
19979W        W79240  31.412  11.193  14.784
19980W        W79241   0.870  44.881   2.830
19981W        W79242   2.956   3.384  13.366
19982W        W79243  44.953  11.163   1.263
19983W        W79244  16.658  44.442  13.032
19984W        W79245   2.354  34.368  11.422
19985W        W79246   6.845   0.281   4.774
19986W        W79247  30.144  37.501   0.942
19987W        W79248  37.921   1.848   0.299
19988W        W79249  21.164  14.116   1.235
19989W        W79250  13.736  44.811  11.007
19990W        W79251  37.030  39.477  11.586
19991W        W79252   2.388  17.594   4.669
19992W        W79253  39.485   4.424   3.703
19993W        W79254  10.733  26.001  14.909
19994W        W79255  37.873  10.250   4.653
19995W        W79256  41.963  14.158   4.801
19996W        W79257  37.505   8.238   2.897
19997W        W79258   2.921  16.195   1.759
19998W        W79259  37.501  27.176  13.815
19999W        W79260  12.759  41.032   0.344
20000W        W79261  26.073  29.059   5.670
20001W        W79262  22.530  30.498  10.941
20002W        W79263   2.251   8.775  14.997
20003W        W79264  16.103  36.942   4.599
20004W        W79265  30.464  35.583  12.489
20005W        W79266  37.524  25.655   0.956
20006W        W79267  19.732   7.180   3.296
20007W        W79268  23.072  11.270  14.386
20008W        W79269   7.871  18.077  10.951
20009W        W79270   0.828  34.045   4.685
20010W        W79271  12.334  20.679   4.347
20011W        W79272   5.255  28.163   4.134
20012W        W79273  31.928   7.903  12.406
20013W        W79274   7.171  18.726   4.173
20014W        W79275   8.819  22.609   3.225
20015W        W79276  33.933   5.232   2.369
20016W        W79277  23.630  42.973  14.956
20017W        W79278  11.304  41.988   4.760
20018W        W79279  35.057  26.161  13.521
20019W        W79280  42.369   2.913   1.270
20020W        W79281  16.091  28.184  12.899
20021W        W79282  14.195  22.189  10.465
20022W        W79283   1.469  18.051  13.993
20023W        W79284  26.672  25.594   1.787
20024W        W79285  43.943  41.951   3.279
20025W        W79286  23.071  38.505   3.273
20026W        W79287  43.835  32.909  14.949
20027W        W79288  33.498   7.342   2.357
20028W        W79289  21.696   0.886  11.031
20029W        W79290  16.212  20.627  14.422
20030W        W79291  29.001  29.142  11.419
20031W        W79292  25.574   4.770   5.290
20032W        W79293  44.763  20.112  11.431
20033W        W79294  13.298  23.162   2.874
20034W        W79295  32.506  14.645  14.428
20035W        W79296   0.411  14.271   3.732
20036W        W79297  42.993  33.477  14.294
20037W        W79298  32.043  27.500   1.852
20038W        W79299  31.510  44.397   0.944
20039W        W79300  22.249   1.312  12.520
20040W        W79301  43.948  23.728  13.795
20041W        W79302  11.289  20.250  14.955
20042W        W79303  22.063  38.925  13.526
20043W        W79304  31.898  20.599   0.933
20044W        W79305  30.085  12.645   2.278
20045W        W79306  35.961   0.434   2.749
20046W        W79307  21.727  17.565  13.513
20047W        W79308  17.269  23.686   3.633
20048W        W79309  26.966   0.305   1.313
20049W        W79310  16.743  42.512  14.470
20050W        W79311  29.109  32.416   2.865
20051W        W79312  16.728   9.838   3.307
20052W        W79313   0.908  42.854  13.791
20053W        W79314   3.875  16.309  12.398
20054W        W79315   3.285  40.943  11.979
20055W        W79316   7.173   1.861   4.144
20056W        W79317   1.851  28.087   2.336
20057W        W79318  31.482  29.534   0.281
20058W        W79319   1.902  37.911  10.929
20059W        W79320   6.762   4.699   3.271
20060W        W79321   6.691   8.882  11.002
20061W        W79322  15.289  21.070  11.974
20062W        W79323  34.597  11.640   0.390
20063W        W79324  14.725   8.735   2.375
20064W        W79325  41.843  14.700  12.932
20065W        W79326  40.515   4.390   2.275
20066W        W79327  22.235  33.926  12.572
20067W        W79328   3.392  17.711   0.412
20068W        W79329  31.020  35.887  14.329
20069W        W79330  28.990  29.488   4.207
20070W        W79331  10.200   1.836  14.015
20071W        W79332  31.896  26.618  10.533
20072W        W79333  34.501  38.470  10.960
20073W        W79334  34.469  20.724  12.942
20074W        W79335  20.227  22.117  13.545
20075W        W79336   9.265   2.961   4.753
20076W        W79337  38.018  37.406   1.212
20077W        W79338  44.336  17.786   2.677
20078W        W79339  14.624   3.916  13.380
20079W        W79340  42.364  32.079  11.566
20080W        W79341  21.256  33.879  11.079
20081W        W79342  41.953   0.321   1.260
20082W        W79343  43.880   0.488   2.276
20083W        W79344  10.381   4.375  13.490
20084W        W79345  38.842  20.109  13.943
20085W        W79346   8.671  36.437   5.158
20086W        W79347  34.073   2.319   2.834
20087W        W79348  21.585   0.888   0.425
20088W        W79349  33.580   2.269  10.473
20089W        W79350   8.684  42.525  14.915
20090W        W79351  39.384  38.834   1.358
20091W        W79352   7.175  16.109  13.425
20092W        W79353  18.575  27.025   0.263
20093W        W79354  20.234  12.764  13.861
20094W        W79355   0.803  11.269  14.298
20095W        W79356  14.228  32.989   4.259
20096W        W79357  26.129   2.302  12.020
20097W        W79358   9.853  15.731   2.239
20098W        W79359  31.416  10.755   0.289
20099W        W79360  18.655  34.506   2.662
20100W        W79361  10.188  35.013  13.347
20101W        W79362  25.581  15.816   1.242
20102W        W79363  33.033  32.920   1.336
20103W        W79364  10.787  39.819   1.266
20104W        W79365  12.155  40.030  12.395
20105W        W79366  13.253  27.084   0.246
20106W        W79367  40.418  39.489  12.492
20107W        W79368  44.908  15.150   9.585
20108W        W79369  42.334   0.763   0.784
20109W        W79370   2.293  28.638  13.051
20110W        W79371  43.385  26.003  12.384
20111W        W79372  14.297  15.642   9.925
20112W        W79373  25.165  24.111  14.862
20113W        W79374  39.515  29.449  12.957
20114W        W79375  36.025   0.446  11.606
20115W        W79376   0.271   8.311  10.563
20116W        W79377   1.811  14.746  13.339
20117W        W79378   2.793  34.100   3.651
20118W        W79379  24.603  21.530  12.895
20119W        W79380   3.434  43.991   0.937
20120W        W79381  17.636  22.636  12.013
20121W        W79382  38.886  24.039   2.822
20122W        W79383  37.857  17.145   3.790
20123W        W79384   9.861  31.994   9.994
20124W        W79385  29.060  20.046   3.739
20125W        W79386   2.875   4.925   4.604
20126W        W79387  33.447  11.621   0.864
20127W        W79388  16.697  43.486   4.162
20128W        W79389   6.424  34.028  11.565
20129W        W79390  19.231  36.012  14.930
20130W        W79391  19.688   9.255  10.573
20131W        W79392  12.696  35.068   2.685
20132W        W79393  30.095  40.313  14.798
20133W        W79394  30.982  26.636   4.684
20134W        W79395  40.883  37.907   1.223
20135W        W79396  32.053  28.497   1.231
20136W        W79397  17.067   3.728   2.870
20137W        W79398  28.162  37.449  14.459
20138W        W79399  19.201  22.620   3.361
20139W        W79400   1.821  13.755   3.773
20140W        W79401  21.103  27.533   1.220
20141W        W79402  42.009  12.628   3.266
20142W        W79403   4.372  13.806   1.216
20143W        W79404  29.163  26.485  14.434
20144W        W79405  16.619  20.703  13.329
20145W        W79406  40.968  41.390  13.977
20146W        W79407  17.778  42.845   1.764
20147W        W79408  19.159  30.593  12.379
20148W        W79409   7.202   4.238   4.682
20149W        W79410   0.285  13.311   4.777
20150W        W79411   1.305   0.834  13.870
20151W        W79412  14.220   1.256  10.561
20152W        W79413  27.981  27.950   2.230
20153W        W79414  35.084   7.873  12.550
20154W        W79415  35.371   6.902  11.491
20155W        W79416  13.629  27.470  12.545
20156W        W79417  10.262  21.546  14.484
20157W        W79418  10.192   1.465   4.205
20158W        W79419  22.072  37.375   2.293
20159W        W79420  24.690  35.037   0.896
20160W        W79421   8.253  28.044  12.533
20161W        W79422   9.323  22.587  13.902
20162W        W79423  40.455  23.085   1.858
20163W        W79424  37.859  27.963   0.396
20164W        W79425  23.617   3.237   1.227
20165W        W79426  18.242  20.605   0.797
20166W        W79427  16.603  30.921  14.824
20167W        W79428  43.312  19.776   1.817
20168W        W79429  26.561  38.064  12.381
20169W        W79430   5.275  16.805   1.424
20170W        W79431   9.663  20.238  14.422
20171W        W79432  43.768  29.617   3.705
20172W        W79433   3.312  34.111  13.430
20173W        W79434  42.364   6.830   0.372
20174W        W79435  20.236  42.885   5.203
20175W        W79436  11.281   7.349  12.053
20176W        W79437  34.488  38.366   0.858
20177W        W79438  36.543  15.100  14.342
20178W        W79439  34.000  31.947  13.924
20179W        W79440   8.232  39.942   2.416
20180W        W79441  31.042  43.380   0.337
20181W        W79442  39.849  23.520  14.392
20182W        W79443  35.592  30.939   4.690
20183W        W79444  34.010  25.485  14.925
20184W        W79445  36.009  27.669  13.825
20185W        W79446  10.864  35.031  12.442
20186W        W79447  39.922  38.523  12.541
20187W        W79448  22.569  15.131  12.880
20188W        W79449   8.276  29.642   3.193
20189W        W79450  37.356  24.495   0.917
20190W        W79451  28.483  18.086  10.490
20191W        W79452   9.342   9.765  13.007
20192W        W79453   9.230  25.487   2.807
20193W        W79454   3.863  11.197  11.091
20194W        W79455  30.503  22.138   1.835
20195W        W79456  43.899  12.796   0.412
20196W        W79457  30.636  12.344   3.181
20197W        W79458   7.713  19.125   1.709
20198W        W79459   1.321  36.075  12.901
20199W        W79460  39.520  18.780   3.868
20200W        W79461  20.591   5.328  13.424
20201W        W79462   3.431  37.072  12.427
20202W        W79463  11.683   6.701   0.783
20203W        W79464  22.503  28.629   0.336
20204W        W79465  36.413  36.404   0.278
20205W        W79466  39.007  40.854  13.961
20206W        W79467  14.229  19.206  11.397
20207W        W79468   1.343  23.518   2.400
20208W        W79469  13.662  43.470  10.534
20209W        W79470  14.339  43.284  10.588
20210W        W79471  38.846  44.847  14.957
20211W        W79472   6.320  25.085   2.400
20212W        W79473  36.017  21.661   0.878
20213W        W79474  19.231   7.399   1.756
20214W        W79475  41.907  33.490  12.025
20215W        W79476  39.886  21.036   3.234
20216W        W79477   3.766  30.165   3.721
20217W        W79478  30.064  44.266  13.535
20218W        W79479  38.406  41.798   0.372
20219W        W79480  18.268   5.421   0.460
20220W        W79481  17.773  33.507  14.319
20221W        W79482  27.156  41.868   4.117
20222W        W79483  24.011  15.255  10.522
20223W        W79484   0.905   0.850  11.584
20224W        W79485   9.164  18.567  10.638
20225W        W79486  14.790  43.998   1.314
20226W        W79487  13.764  36.046  11.580
20227W        W79488  37.387  31.517   3.382
20228W        W79489  20.589  39.390   4.185
20229W        W79490   8.655  21.150   4.627
20230W        W79491  14.804  38.052  11.888
20231W        W79492  19.197  27.504   3.148
20232W        W79493  39.323  16.668   5.792
20233W        W79494  14.797  39.996   4.807
20234W        W79495  24.704  34.587   3.777
20235W        W79496  20.749  40.827  13.003
20236W        W79497   8.896  23.730   0.952
20237W        W79498  18.168   4.228  14.479
20238W        W79499  34.506   4.714   4.642
20239W        W79500  26.032  17.248   4.832
20240W        W79501  21.707  16.635   2.240
20241W        W79502  40.865  27.076   0.955
20242W        W79503  22.060  33.082  10.595
20243W        W79504  34.539   9.666   4.243
20244W        W79505   8.693   8.756   2.863
20245W        W79506  41.428  39.442   3.186
20246W        W79507   0.819  40.505   5.253
20247W        W79508   8.748  32.535  11.108
20248W        W79509  22.698   0.811   2.265
20249W        W79510  17.684  44.881   4.652
20250W        W79511  18.579  34.000   0.280
20251W        W79512  33.607   1.781   4.658
20252W        W79513   1.373  10.383   0.275
20253W        W79514  31.501  30.066   1.823
20254W        W79515  14.602   2.797   2.265
20255W        W79516  40.939  32.529   4.650
20256W        W79517  43.323  35.107  12.918
20257W        W79518  40.832  31.052   3.661
20258W        W79519   8.775  13.195  12.425
20259W        W79520  34.453   6.385  13.005
20260W        W79521  29.665  22.709  10.989
20261W        W79522  35.950  34.034   0.344
20262W        W79523  28.640  36.989  11.504
20263W        W79524  26.045  19.759   0.436
20264W        W79525   6.720  32.414   1.315
20265W        W79526  29.549  31.926   5.313
20266W        W79527  43.338  36.500   3.685
20267W        W79528   2.778  13.127   2.335
20268W        W79529  20.587  25.628  11.522
20269W        W79530  13.789  28.073  13.001
20270W        W79531  44.364  34.587   9.522
20271W        W79532   9.722  42.443  13.532
20272W        W79533  12.616   9.200   2.347
20273W        W79534  30.559  27.667  10.632
20274W        W79535  25.604  14.134   3.812
20275W        W79536  29.142   8.736  14.845
20276W        W79537  32.504  44.844   4.701
20277W        W79538  26.065  13.743   3.206
20278W        W79539  20.643   4.270   4.155
20279W        W79540  30.130  36.380  12.008
20280W        W79541  27.588  22.572   0.745
20281W        W79542  14.608   1.247  11.943
20282W        W79543  25.699  39.065  12.042
20283W        W79544  15.612  22.616  10.431
20284W        W79545  34.429  28.455   2.396
20285W        W79546  24.117  27.537   0.451
20286W        W79547  15.705  17.609  10.932
20287W        W79548   0.978   3.260   0.381
20288W        W79549  44.940  20.246  13.890
20289W        W79550  32.392  23.730   4.296
20290W        W79551  15.127  36.992   3.673
20291W        W79552  20.111  14.257  13.487
20292W        W79553  36.426  19.717  12.366
20293W        W79554  37.994  14.198   2.729
20294W        W79555  21.596  37.552  14.432
20295W        W79556  41.918  24.625  10.022
20296W        W79557  19.095  14.169  11.506
20297W        W79558  17.256  37.033  12.004
20298W        W79559  34.970   6.773   4.270
20299W        W79560   8.721  14.787   2.778
20300W        W79561  40.334  44.323   3.821
20301W        W79562   5.424   8.305  10.033
20302W        W79563  19.186  13.662   4.692
20303W        W79564  25.017  22.125   0.928
20304W        W79565  38.402  31.000  10.629
20305W        W79566  11.822  13.669  14.031
20306W        W79567  20.182  34.480   3.706
20307W        W79568  27.578  36.041  13.396
20308W        W79569  18.563  13.108   1.300
20309W        W79570   0.750   0.297   4.181
20310W        W79571  24.498  10.168   0.951
20311W        W79572  30.518  15.699   3.691
20312W        W79573  15.761  15.201   4.191
20313W        W79574   5.266  36.533  11.882
20314W        W79575  15.702  25.529  12.353
20315W        W79576  21.608  16.672   3.752
20316W        W79577   2.236   6.415   0.482
20317W        W79578  13.661  32.902   1.696
20318W        W79579  18.658  29.668   4.661
20319W        W79580  14.319  17.740  13.918
20320W        W79581  17.746  16.728   0.734
20321W        W79582  30.651   4.375  14.896
20322W        W79583  21.536  10.328  12.924
20323W        W79584  30.956   4.309  12.004
20324W        W79585  13.686  24.212  12.905
20325W        W79586  39.821   2.365   4.185
20326W        W79587  17.766  28.450   5.230
20327W        W79588  17.755  28.935  13.310
20328W        W79589  32.633   4.208   0.938
20329W        W79590   4.370  35.540  14.908
20330W        W79591  29.455   6.324   5.223
20331W        W79592  31.123  38.981   3.702
20332W        W79593   7.387  13.200  10.459
20333W        W79594   0.841  38.430   3.239
20334W        W79595  43.393  32.037   1.402
20335W        W79596  40.929   6.837  13.424
20336W        W79597  12.293  37.376  11.960
20337W        W79598  15.754  23.234  11.994
20338W        W79599  27.124  17.081   0.834
20339W        W79600  39.545  27.005   2.394
20340W        W79601  35.866  15.733  14.277
20341W        W79602  10.810   1.927  12.936
20342W        W79603  35.946  12.724   2.675
20343W        W79604  22.075  18.632   2.721
20344W        W79605   3.267  25.116  13.419
20345W        W79606   4.401  10.145  11.991
20346W        W79607   7.772  33.546   0.369
20347W        W79608  31.577  19.083   3.305
20348W        W79609  10.688  13.351  12.908
20349W        W79610  36.004  39.415  10.895
20350W        W79611  20.258  21.094  14.347
20351W        W79612  11.649   5.883  14.448
20352W        W79613  37.477  16.179  10.982
20353W        W79614  26.001  23.520   2.702
20354W        W79615  25.025   4.714  13.850
20355W        W79616  26.023  17.709   4.347
20356W        W79617   5.434  38.937   0.397
20357W        W79618  43.820  23.709  13.322
20358W        W79619   6.904  11.253   0.944
20359W        W79620  32.954   8.676   0.314
20360W        W79621   8.230  30.484   0.254
20361W        W79622  11.657  25.096  11.575
20362W        W79623  19.125  40.824  13.475
20363W        W79624  29.450  15.191  14.473
20364W        W79625  35.001   8.781  13.825
20365W        W79626  34.561   6.733  14.819
20366W        W79627   7.342  12.149   0.906
20367W        W79628   4.434  19.624   4.829
20368W        W79629  40.462  34.587  14.826
20369W        W79630  14.688  40.508   1.439
20370W        W79631  36.383   9.863   3.639
20371W        W79632  11.286  38.043   1.913
20372W        W79633  42.512  17.710   1.367
20373W        W79634  29.081  40.977   0.851
20374W        W79635   6.746  36.913   0.810
20375W        W79636  10.870  27.526  13.809
20376W        W79637   6.829  28.942   4.826
20377W        W79638  39.059  30.588   2.265
20378W        W79639  33.101  23.606   0.319
20379W        W79640  25.046  29.155  14.375
20380W        W79641  40.469  29.467  11.129
20381W        W79642  34.098   8.747  14.488
20382W        W79643  15.818  42.844  13.548
20383W        W79644   7.296   8.336   4.147
20384W        W79645   7.294  36.093   3.200
20385W        W79646  18.064   5.417  10.949
20386W        W79647   5.715  10.333  13.968
20387W        W79648  34.452  11.226   4.145
20388W        W79649  10.253  38.934  12.349
20389W        W79650  13.668  38.336   0.252
20390W        W79651  29.543   8.759   1.271
20391W        W79652  36.397  26.096  12.532
20392W        W79653  37.910   3.447  11.041
20393W        W79654  40.975  30.533   1.416
20394W        W79655   6.711  35.905  11.963
20395W        W79656  20.707  22.590   4.199
20396W        W79657   9.845  27.054   0.888
20397W        W79658   1.418  19.681   0.933
20398W        W79659   3.360  32.421  11.904
20399W        W79660   4.294  27.674  14.000
20400W        W79661   2.781   0.919  14.947
20401W        W79662  20.082   6.854   3.706
20402W        W79663  20.163  17.126  14.364
20403W        W79664  18.747   4.439   0.792
20404W        W79665  27.944  15.273  12.950
20405W        W79666  15.725  25.986   0.307
20406W        W79667   5.825  44.326  13.356
20407W        W79668   9.362  18.609  13.000
20408W        W79669  40.906  29.063  12.938
20409W        W79670   5.838  24.492   3.677
20410W        W79671  23.175  11.337   2.241
20411W        W79672   3.840  35.373  10.935
20412W        W79673   4.865  11.183  12.884
20413W        W79674  18.777   2.806   3.357
20414W        W79675   4.309  21.132   3.798
20415W        W79676  24.158  13.289  12.937
20416W        W79677   7.260  25.161   1.363
20417W        W79678  22.584  37.841  13.953
20418W        W79679  27.122  32.071   1.710
20419W        W79680  35.032  10.721   3.278
20420W        W79681  40.534  42.511  11.577
20421W        W79682  36.356   2.266   1.823
20422W        W79683  42.005  21.138  10.933
20423W        W79684  14.643  30.918   4.258
20424W        W79685  37.458  15.731   5.290
20425W        W79686  40.471   3.390   0.891
20426W        W79687   6.703  12.143   3.711
20427W        W79688  41.458   4.411  14.762
20428W        W79689  12.765   9.689  11.480
20429W        W79690  14.795   9.384  11.869
20430W        W79691  36.566  31.512   2.228
20431W        W79692  42.929   7.858  12.871
20432W        W79693  17.740   4.327  14.760
20433W        W79694  35.876   7.900  13.896
20434W        W79695  15.176  14.719  12.072
20435W        W79696  12.299  24.014  13.344
20436W        W79697   4.840  13.187  14.320
20437W        W79698   0.803  42.432  13.995
20438W        W79699   1.797  36.981   1.822
20439W        W79700  31.020  19.615  14.799
20440W        W79701  18.181  38.896  10.993
20441W        W79702  42.289  33.616   0.892
20442W        W79703  43.409  11.340  13.444
20443W        W79704  41.393  44.447   2.716
20444W        W79705  43.950   5.314  12.055
20445W        W79706  14.735  31.088   5.179
20446W        W79707  31.114   5.792  13.533
20447W        W79708   0.479  13.278  14.030
20448W        W79709  39.872  10.834   4.284
20449W        W79710  28.949  16.085   2.740
20450W        W79711  14.672  18.148  10.405
20451W        W79712  29.559   9.334  12.368
20452W        W79713  41.520  15.299   1.743
20453W        W79714   0.797  25.991  10.634
20454W        W79715   2.912  10.662   2.291
20455W        W79716   3.776  34.410  10.408
20456W        W79717  22.715  22.653   1.885
20457W        W79718  30.535  24.619   4.673
20458W        W79719  43.341  16.078   4.671
20459W        W79720  37.906  35.466   1.305
20460W        W79721  15.228  18.630   2.783
20461W        W79722  29.566  12.816  10.620
20462W        W79723  35.107  23.232   3.642
20463W        W79724  13.118  20.560  13.917
20464W        W79725  30.453  37.908  11.882
20465W        W79726  11.243  19.621  13.951
20466W        W79727  18.719  19.669  13.445
20467W        W79728  42.439  26.188  11.428
20468W        W79729   6.749   8.228   3.238
20469W        W79730  37.478   3.377  10.564
20470W        W79731   7.349  40.877  13.975
20471W        W79732   7.347  28.466  14.859
20472W        W79733  32.898  16.090  14.275
20473W        W79734  42.408  13.332  12.492
20474W        W79735   4.798  44.753   1.721
20475W        W79736  43.020  41.367  11.038
20476W        W79737  42.031   2.371   4.784
20477W        W79738  17.296  43.315   2.408
20478W        W79739  34.969  32.472   4.665
20479W        W79740  14.782   9.790  11.020
20480W        W79741  29.032  36.357  13.389
20481W        W79742  20.067  30.994  10.583
20482W        W79743  15.665   7.172   1.721
20483W        W79744  32.619  10.298  10.487
20484W        W79745  41.042   0.816   1.396
20485W        W79746  27.182   2.316   4.274
20486W        W79747   2.332  10.294  10.418
20487W        W79748  31.934   0.904   4.223
20488W        W79749  21.660   8.790   2.718
20489W        W79750  34.426  13.691  11.606
20490W        W79751  40.912   3.845   1.805
20491W        W79752  18.578  38.466   1.844
20492W        W79753  19.182  35.996   3.316
20493W        W79754  32.619  23.141   3.689
20494W        W79755  30.126  24.129  11.973
20495W        W79756  36.962  40.926  11.979
20496W        W79757  30.022   7.370  14.927
20497W        W79758  29.931  30.597   4.309
20498W        W79759  12.681  13.284  13.983
20499W        W79760   6.199  36.581   0.755
20500W        W79761  15.618  10.173   3.781
20501W        W79762   2.840  12.705  12.363
20502W        W79763  37.959  36.554  11.541
20503W        W79764   4.721  11.222  12.041
20504W        W79765  13.233   8.766   2.196
20505W        W79766  41.403  27.093   0.334
20506W        W79767  18.169  14.659  11.535
20507W        W79768  14.640  15.187   3.811
20508W        W79769  11.761   6.262   4.611
20509W        W79770  38.062  29.957   3.847
20510W        W79771  23.692  39.424  14.865
20511W        W79772  15.108   0.973   2.812
20512W        W79773  37.574  10.357  13.335
20513W        W79774  28.125  44.341  12.463
20514W        W79775  33.918  13.124   1.450
20515W        W79776  31.098  14.830   1.394
20516W        W79777  14.621  29.531   2.277
20517W        W79778  31.517   3.858  11.407
20518W        W79779  23.171  39.508  12.454
20519W        W79780   1.860   8.349   3.190
20520W        W79781  36.939  26.023   2.667
20521W        W79782  39.520  13.712  14.468
20522W        W79783  44.276   5.766   1.786
20523W        W79784  23.499  16.620  10.971
20524W        W79785   4.786  21.591   0.966
20525W        W79786  15.774  42.890  11.449
20526W        W79787  36.440  17.621   4.185
20527W        W79788  36.465  29.557   4.342
20528W        W79789  19.573  37.350   1.748
20529W        W79790   6.246  38.056   3.650
20530W        W79791  44.851  10.261  10.437
20531W        W79792  34.479  18.701  13.857
20532W        W79793  32.414  21.743   1.311
20533W        W79794  17.570  38.373  12.963
20534W        W79795  31.454  44.754  11.887
20535W        W79796  43.787  16.812  14.809
20536W        W79797   3.459  33.381  11.408
20537W        W79798   8.723  28.959   3.774
20538W        W79799   8.171   0.867   3.837
20539W        W79800   0.757   8.736   0.278
20540W        W79801  28.515  40.844   0.447
20541W        W79802  23.185  30.921  14.811
20542W        W79803  27.047  16.709  14.379
20543W        W79804  32.995  39.845   3.304
20544W        W79805  42.364   4.920   0.884
20545W        W79806   6.887  42.488  11.964
20546W        W79807  14.330  35.062   5.116
20547W        W79808   9.264  40.835  12.931
20548W        W79809  42.308   7.697  11.892
20549W        W79810  22.724  13.751  13.480
20550W        W79811  20.040  16.315  12.024
20551W        W79812   7.304   8.184  11.466
20552W        W79813   5.287   6.719   2.355
20553W        W79814  33.393  30.621  10.416
20554W        W79815  30.543  20.096  14.957
20555W        W79816  32.972  24.720  10.973
20556W        W79817  16.305   4.934   1.742
20557W        W79818  24.502  39.339   2.214
20558W        W79819  26.533  30.936  12.389
20559W        W79820  25.545  40.043  12.576
20560W        W79821  43.009  34.936   0.401
20561W        W79822  15.657  22.047  11.496
20562W        W79823  13.740  38.563   3.757
20563W        W79824  14.101  10.828   2.736
20564W        W79825   9.788  18.171   4.120
20565W        W79826  29.964   7.328  10.530
20566W        W79827  35.940   0.380   3.261
20567W        W79828  44.490  26.469   5.157
20568W        W79829  21.151  16.108   2.192
20569W        W79830  21.160  25.603  12.035
20570W        W79831  20.043  12.819  12.509
20571W        W79832  14.108  42.360   0.399
20572W        W79833   7.372   9.362   4.281
20573W        W79834  25.562  25.491   1.747
20574W        W79835  44.921  25.026  13.878
20575W        W79836  20.549  36.964   1.767
20576W        W79837  16.178  28.459  10.475
20577W        W79838  42.460  40.981   3.757
20578W        W79839   6.377   4.941   3.367
20579W        W79840  18.668  14.588   2.245
20580W        W79841  27.166  38.862  10.456
20581W        W79842  24.145  41.864   4.296
20582W        W79843  42.446   8.895   0.777
20583W        W79844  38.034  11.134  11.967
20584W        W79845  20.163  20.551   5.677
20585W        W79846  42.850  16.311   3.231
20586W        W79847  10.673  36.366   3.784
20587W        W79848  38.960  40.918   1.441
20588W        W79849  12.831  17.694  11.892
20589W        W79850  29.572  41.819   1.238
20590W        W79851  40.813  29.053   0.944
20591W        W79852   9.228  10.860   2.363
20592W        W79853  21.042  36.411   0.933
20593W        W79854   0.396  39.860   0.860
20594W        W79855  22.214  41.917   2.205
20595W        W79856   9.344  11.730  12.036
20596W        W79857  19.187  24.509   2.759
20597W        W79858  10.149  10.165   2.777
20598W        W79859  36.087  40.815  10.917
20599W        W79860  32.965   9.241   2.283
20600W        W79861  17.222  19.751   0.427
20601W        W79862  31.052  39.317  12.042
20602W        W79863  24.078  28.650  11.898
20603W        W79864  22.554   3.248  13.908
20604W        W79865   7.825  17.065  11.589
20605W        W79866  39.486  42.372   3.692
20606W        W79867   1.752  32.122   4.240
20607W        W79868   1.382  27.665   0.392
20608W        W79869  11.763   1.945  10.135
20609W        W79870   1.315  41.806  14.288
20610W        W79871   6.190  13.270  10.411
20611W        W79872  23.199  35.587   2.364
20612W        W79873  20.068  21.736   1.329
20613W        W79874  39.884   4.309  13.307
20614W        W79875  41.426   4.728   3.817
20615W        W79876  30.101  21.260   0.793
20616W        W79877  42.311  38.382  14.823
20617W        W79878  23.082  31.146  14.501
20618W        W79879  35.981  41.426  12.388
20619W        W79880   9.195  20.712   3.338
20620W        W79881   0.325  28.537   2.216
20621W        W79882  42.385  35.467  14.906
20622W        W79883  27.464  43.445   9.442
20623W        W79884  23.642  21.579  11.425
20624W        W79885  12.741  34.389   3.340
20625W        W79886   8.207  41.036   1.295
20626W        W79887  13.701   5.786  14.379
20627W        W79888  17.592   4.448   0.483
20628W        W79889  21.583  13.821  13.003
20629W        W79890  29.517  34.494  10.492
20630W        W79891   8.269  27.028   1.901
20631W        W79892  44.318  37.436   0.836
20632W        W79893  29.017  12.324   1.870
20633W        W79894   7.377   7.338  14.825
20634W        W79895  38.390  23.103  11.563
20635W        W79896  32.561   2.890   2.867
20636W        W79897  11.161  16.313   1.696
20637W        W79898  28.612   7.672  13.419
20638W        W79899  38.845  38.345  10.560
20639W        W79900   0.838   4.737   4.807
20640W        W79901   7.258  24.092  10.533
20641W        W79902  18.727   6.249   5.290
20642W        W79903  28.491   3.339  10.897
20643W        W79904  23.643  27.583  14.364
20644W        W79905  43.460  41.298   2.723
20645W        W79906   5.427  19.663  12.865
20646W        W79907  36.473  37.352   9.946
20647W        W79908  26.198  32.622   2.403
20648W        W79909   3.228   5.209  10.563
20649W        W79910  15.168  26.536  10.554
20650W        W79911   0.251  38.038   2.824
20651W        W79912  12.801  20.044   1.271
20652W        W79913  42.397  39.819  12.941
20653W        W79914  43.980   0.779   0.836
20654W        W79915  27.176  12.264   0.965
20655W        W79916  18.079  15.282   3.768
20656W        W79917  18.069  37.394  14.777
20657W        W79918  25.687  11.189   3.249
20658W        W79919  28.649  30.631  10.453
20659W        W79920  29.115  31.128   1.422
20660W        W79921  14.631  42.775   4.253
20661W        W79922   4.910  37.362   3.680
20662W        W79923   7.220   9.785   0.890
20663W        W79924  23.708  13.115   4.700
20664W        W79925   5.374  20.129  12.345
20665W        W79926   7.712  35.566  11.492
20666W        W79927  39.326  44.914  13.034
20667W        W79928  32.954   2.455  12.967
20668W        W79929  42.919  29.110   4.315
20669W        W79930  12.165  33.451   2.798
20670W        W79931  16.746   8.231   1.834
20671W        W79932  42.869  24.714  14.810
20672W        W79933   2.305   0.818  12.378
20673W        W79934  29.489   0.887  12.017
20674W        W79935  24.539  21.531  14.370
20675W        W79936   8.739  29.128   2.773
20676W        W79937  20.091   4.440   2.326
20677W        W79938  13.687  35.896  12.541
20678W        W79939   8.834   7.725   3.337
20679W        W79940  42.344  32.899  12.444
20680W        W79941  34.030   4.350  12.507
20681W        W79942  18.715   1.977  12.420
20682W        W79943  35.988   6.820  11.996
20683W        W79944  13.813  19.537   0.443
20684W        W79945  15.724  23.206  11.533
20685W        W79946  44.356  10.380   4.835
20686W        W79947  22.251  18.644  12.574
20687W        W79948   7.707  12.235   4.195
20688W        W79949  27.687  25.644  13.807
20689W        W79950  26.523  16.662  12.951
20690W        W79951  43.820  43.906   0.403
20691W        W79952  13.715  31.102   4.798
20692W        W79953  41.876  24.667   1.915
20693W        W79954  20.193  16.726  14.948
20694W        W79955  19.108  26.032  14.963
20695W        W79956  26.086  24.983   3.151
20696W        W79957  27.959  33.515   0.772
20697W        W79958  24.041  23.193   3.679
20698W        W79959  32.028  21.217  12.364
20699W        W79960  11.808  16.760   3.658
20700W        W79961  37.837   2.305   2.872
20701W        W79962  37.894  33.516  14.384
20702W        W79963  42.849  40.373   5.311
20703W        W79964  13.122  27.507  11.402
20704W        W79965  25.595   2.269  14.767
20705W        W79966   0.257  41.991  13.867
20706W        W79967  23.226  38.871  10.505
20707W        W79968  19.670  26.548   1.311
20708W        W79969  26.132  44.985   0.838
20709W        W79970  36.422  11.663  13.495
20710W        W79971  15.601  27.523   3.179
20711W        W79972  36.481  31.565   2.818
20712W        W79973   1.841  44.786  13.370
20713W        W79974  25.164  22.589  12.510
20714W        W79975   8.853  17.255   4.760
20715W        W79976  38.961   5.375  13.503
20716W        W79977  14.122  14.618  12.055
20717W        W79978   3.926  24.667   3.176
20718W        W79979  12.279   1.846  13.832
20719W        W79980  27.033  27.675   0.363
20720W        W79981  31.626  17.574  11.411
20721W        W79982  36.476  35.994   2.180
20722W        W79983  26.056  22.526   2.799
20723W        W79984   0.477  13.163  12.951
20724W        W79985  26.014  43.362   4.189
20725W        W79986  36.961  41.462   3.674
20726W        W79987  18.157  23.692  12.979
20727W        W79988  24.643   9.188  10.980
20728W        W79989   8.852  36.921   2.685
20729W        W79990  38.369  39.348  14.429
20730W        W79991   5.712   9.834   0.891
20731W        W79992  14.597   9.226  12.421
20732W        W79993  24.630  29.495   0.244
20733W        W79994   4.763   1.290   0.472
20734W        W79995   8.273  30.066   1.267
20735W        W79996  12.345  23.547   4.628
20736W        W79997  38.358  30.647   0.800
20737W        W79998  31.905  20.036  13.451
20738W        W79999  23.188   6.756  12.028
20739W        W80000  26.954  41.951  10.515
20740W        W80001  20.617  43.934  11.479
20741W        W80002  18.164  22.502   2.336
20742W        W80003   4.395  44.347   3.181
20743W        W80004  44.429  34.526  13.989
20744W        W80005   3.729  44.282  12.047
20745W        W80006  11.335  35.090  14.912
20746W        W80007   0.913  39.052  13.403
20747W        W80008  20.055  15.697   2.361
20748W        W80009   1.877  31.604  14.312
20749W        W80010   0.835  18.194   4.709
20750W        W80011  37.363  20.214  13.890
20751W        W80012  43.986  31.474   3.257
20752W        W80013  32.083  13.313  14.008
20753W        W80014   6.827  11.689  13.378
20754W        W80015  40.875  17.200  12.401
20755W        W80016  12.269  24.668   1.883
20756W        W80017  32.093  14.268  10.018
20757W        W80018  12.330  14.697  12.872
20758W        W80019  30.101  39.865  14.006
20759W        W80020  33.935  39.389  13.864
20760W        W80021   3.776   9.704  12.994
20761W        W80022  18.245  19.045  12.070
20762W        W80023   8.303  39.480   4.269
20763W        W80024  42.976   5.382   4.215
20764W        W80025  17.567  15.815  12.529
20765W        W80026   9.684  27.948  11.895
20766W        W80027  33.544   3.391   3.703
20767W        W80028  28.939  22.741  11.493
20768W        W80029   6.246  41.416   2.849
20769W        W80030  39.839  44.259   3.791
20770W        W80031  10.258  32.477   4.271
20771W        W80032  25.509  13.831  10.460
20772W        W80033  15.731  28.986  13.983
20773W        W80034  41.828  17.084  12.377
20774W        W80035  24.558   1.816  13.798
20775W        W80036  20.581  21.741   2.224
20776W        W80037   7.328  21.119   1.266
20777W        W80038  12.139   7.285   0.805
20778W        W80039  12.691  34.896   3.794
20779W        W80040   7.301  15.802  12.007
20780W        W80041  43.364  18.758   2.359
20781W        W80042  13.198  24.050   1.795
20782W        W80043  17.277  32.591   2.756
20783W        W80044   0.404  12.703  13.358
20784W        W80045  19.718  29.486  12.423
20785W        W80046  18.631  10.228  13.935
20786W        W80047  34.087  31.517  11.868
20787W        W80048  21.568  36.031   4.343
20788W        W80049  26.175  39.061  12.348
20789W        W80050  39.063   3.783  13.055
20790W        W80051  38.444  43.299  14.787
20791W        W80052  16.128   3.937  11.435
20792W        W80053  22.998  15.279  10.472
20793W        W80054  18.736  17.598   0.348
20794W        W80055  16.812   9.859   4.756
20795W        W80056  37.840   2.913   1.342
20796W        W80057  19.113  18.727  14.891
20797W        W80058  16.647   2.815   1.271
20798W        W80059   9.315  14.306   0.733
20799W        W80060  27.611   0.339  14.866
20800W        W80061   2.965  25.131   4.646
20801W        W80062  38.056  12.633  13.427
20802W        W80063   4.802  37.555   1.319
20803W        W80064  19.629   3.253  12.519
20804W        W80065   2.393   5.899  12.871
20805W        W80066  13.813  10.856   0.909
20806W        W80067  38.493   6.734   2.314
20807W        W80068  29.142   5.710  11.018
20808W        W80069  26.618  36.862   0.837
20809W        W80070  17.173   5.776   3.300
20810W        W80071   7.251   0.375  12.010
20811W        W80072  34.108  44.448   2.230
20812W        W80073   9.303  40.366  10.533
20813W        W80074  17.593  12.268   0.249
20814W        W80075  40.394   9.839  14.987
20815W        W80076  39.347  11.738   0.847
20816W        W80077  30.106  38.514   2.403
20817W        W80078  34.038  39.503  14.318
20818W        W80079  29.657  15.700   0.759
20819W        W80080   2.796   2.373   0.250
20820W        W80081  17.649  26.499  12.966
20821W        W80082  10.312  29.536  10.582
20822W        W80083  31.564   6.398  11.985
20823W        W80084  37.549  10.198   1.813
20824W        W80085  21.589  21.196  14.290
20825W        W80086  25.113  26.977   2.667
20826W        W80087  14.835  25.073   3.354
20827W        W80088   2.730  16.694  13.902
20828W        W80089  10.312   1.455   2.388
20829W        W80090   1.276  43.874   4.182
20830W        W80091   4.243   1.771  11.401
20831W        W80092  22.151   5.413  10.891
20832W        W80093  31.558   9.158  14.824
20833W        W80094  12.756  37.938   4.139
20834W        W80095   7.287  27.658  13.461
20835W        W80096  26.168  35.400   0.400
20836W        W80097   0.311  22.051   4.728
20837W        W80098  17.139   4.711  11.595
20838W        W80099  23.550  29.440   4.702
20839W        W80100  22.035  25.968  13.527
20840W        W80101  22.537  34.516  13.955
20841W        W80102  39.908  22.092   3.757
20842W        W80103   2.265   3.811   4.712
20843W        W80104  20.236   8.708  14.012
20844W        W80105  34.534   7.907   3.811
20845W        W80106  23.555  21.221   3.638
20846W        W80107  40.848  15.791   4.314
20847W        W80108  11.852  31.064   3.285
20848W        W80109  28.948  23.195  14.992
20849W        W80110   8.891  29.126  10.551
20850W        W80111  43.469  31.459  12.833
20851W        W80112   9.267  22.196  11.446
20852W        W80113  27.690  24.642  13.385
20853W        W80114  37.400  26.962   0.377
20854W        W80115  24.069  17.763  12.407
20855W        W80116  21.728  22.090   1.910
20856W        W80117  20.121  13.180   0.291
20857W        W80118  10.364  19.653  10.905
20858W        W80119  42.435  19.250  11.038
20859W        W80120  27.609  36.039   0.323
20860W        W80121  36.395  17.179   5.159
20861W        W80122   3.879  35.447   2.178
20862W        W80123  30.081   0.249  13.404
20863W        W80124  12.321  34.116   4.804
20864W        W80125  14.329  12.647   0.918
20865W        W80126  42.351   5.367   2.665
20866W        W80127  38.427  17.121  14.909
20867W        W80128  21.222  32.458  13.426
20868W        W80129  12.821  21.148  10.625
20869W        W80130  25.541  24.038  11.046
20870W        W80131  40.022  41.501  12.931
20871W        W80132  33.381   4.447  13.932
20872W        W80133   5.341  11.683   4.821
20873W        W80134  22.225   0.340   1.700
20874W        W80135  37.050  20.668   3.266
20875W        W80136  10.157  44.876   2.378
20876W        W80137   6.247  23.027  14.304
20877W        W80138  13.323  43.824  14.941
20878W        W80139  44.932   4.803   3.352
20879W        W80140  32.611  30.086  10.409
20880W        W80141  20.667  32.001   1.881
20881W        W80142  30.970  11.821   1.214
20882W        W80143  41.931  23.096  12.506
20883W        W80144  27.153  38.496  14.018
20884W        W80145   8.842  18.719   4.156
20885W        W80146  34.088   4.403  13.821
20886W        W80147   3.269  34.043   3.675
20887W        W80148  42.923  35.592   1.417
20888W        W80149  23.693   8.855   3.182
20889W        W80150   7.897   2.921   5.166
20890W        W80151  37.363   5.320  11.856
20891W        W80152  30.618  18.140   2.779
20892W        W80153  41.452  20.106  11.433
20893W        W80154   5.863  16.103  13.421
20894W        W80155  18.155  32.499   1.346
20895W        W80156  27.522   9.678   0.745
20896W        W80157  18.667   3.251  12.557
20897W        W80158  20.231   5.221   9.593
20898W        W80159   1.369  13.616   3.182
20899W        W80160  35.578  31.910  12.548
20900W        W80161  19.560  21.692   5.773
20901W        W80162  11.243   5.379   0.733
20902W        W80163  36.486  26.638  13.844
20903W        W80164  38.934  40.512  12.045
20904W        W80165  35.468   2.910   4.715
20905W        W80166  25.117  24.688  11.917
20906W        W80167  15.762   3.446  14.945
20907W        W80168  31.424  12.303   3.333
20908W        W80169  18.750  35.537   4.283
20909W        W80170   9.230  34.011   2.191
20910W        W80171  27.612   4.742   4.301
20911W        W80172  11.746  23.580   3.383
20912W        W80173  25.113  37.409   4.798
20913W        W80174  23.191  42.955  12.955
20914W        W80175  34.408  16.167  10.420
20915W        W80176  27.183  11.791  14.301
20916W        W80177  16.197  16.697   4.313
20917W        W80178  38.851  26.091   3.217
20918W        W80179   4.209  35.983  12.856
20919W        W80180   3.294   8.714  13.516
20920W        W80181  37.578  22.109   3.837
20921W        W80182  21.133  32.137  11.887
20922W        W80183  34.004   3.435  13.462
20923W        W80184  13.270   7.269   2.878
20924W        W80185  41.395  35.856   3.294
20925W        W80186  12.162  44.805  10.527
20926W        W80187  35.534  33.923  11.986
20927W        W80188  34.084   8.895   4.300
20928W        W80189  31.021  11.791   4.750
20929W        W80190  10.837  33.609   0.449
20930W        W80191  18.080  42.415  14.500
20931W        W80192  19.160  12.156   0.374
20932W        W80193  11.358  26.203   2.766
20933W        W80194  30.617   6.922  12.042
20934W        W80195  29.946   4.744   4.214
20935W        W80196  42.415  36.530   5.240
20936W        W80197   2.908  15.114   4.735
20937W        W80198  35.015  25.664   4.280
20938W        W80199  42.317   8.386   4.307
20939W        W80200  13.302   7.875  11.882
20940W        W80201   7.179   4.945   1.753
20941W        W80202  28.026  35.975   3.171
20942W        W80203  34.046   1.327  12.971
20943W        W80204  15.231  11.738  11.462
20944W        W80205  10.813  31.405  13.534
20945W        W80206  25.612  40.541  12.567
20946W        W80207  41.840   8.819   5.168
20947W        W80208  24.674  18.767  14.316
20948W        W80209  20.526  23.133   2.739
20949W        W80210  13.215   3.316   9.928
20950W        W80211  37.900   3.841  14.403
20951W        W80212   9.756   4.854   1.385
20952W        W80213   3.792  44.432  12.946
20953W        W80214  19.611  20.545   4.763
20954W        W80215  43.387   8.266  13.944
20955W        W80216  27.473  22.718   3.764
20956W        W80217  44.405  22.608   4.821
20957W        W80218  28.672  13.744  11.579
20958W        W80219  29.971  30.909   1.801
20959W        W80220   2.457  14.795  13.050
20960W        W80221  25.148  36.408  10.559
20961W        W80222  12.855  18.106  10.631
20962W        W80223   7.676  43.844  13.465
20963W        W80224   2.401   3.897   2.363
20964W        W80225  29.540   7.204  10.034
20965W        W80226  21.114   3.713  12.484
20966W        W80227  42.863  29.093  10.567
20967W        W80228  34.121  20.264  11.603
20968W        W80229  17.562  15.688   4.296
20969W        W80230  22.612  35.940  13.877
20970W        W80231  38.891  22.647  14.912
20971W        W80232  40.914  39.967   2.386
20972W        W80233  16.268  31.102   4.710
20973W        W80234   0.924  42.923  14.352
20974W        W80235  22.575  30.597  11.448
20975W        W80236  33.955  19.665  10.474
20976W        W80237  25.063  43.905   0.347
20977W        W80238   3.875  31.591  10.888
20978W        W80239  19.554  42.456  11.446
20979W        W80240  21.207  27.454   5.202
20980W        W80241  36.936   0.411  11.503
20981W        W80242  27.026  24.617  13.475
20982W        W80243  27.483  21.577   4.159
20983W        W80244  40.528   3.714   0.443
20984W        W80245   1.434  34.059   0.272
20985W        W80246   6.824  41.928   0.765
20986W        W80247  33.509  35.967   0.260
20987W        W80248   9.703  10.789  14.312
20988W        W80249  24.185   0.286  10.459
20989W        W80250  14.298  40.043   2.720
20990W        W80251  26.009  38.341  11.060
20991W        W80252   3.917  36.914   4.720
20992W        W80253  20.109  10.300  12.954
20993W        W80254   3.914  37.027  13.994
20994W        W80255  44.307   0.875   1.316
20995W        W80256  23.682  41.295  12.575
20996W        W80257   9.274  31.134   4.774
20997W        W80258  17.745  41.449  11.909
20998W        W80259  13.186  39.851   0.851
20999W        W80260  40.385  33.128   4.136
21000W        W80261   5.339  43.293  14.315
21001W        W80262   3.941  33.902   1.887
21002W        W80263   3.224   3.810  14.906
21003W        W80264  23.555  34.606  12.093
21004W        W80265  34.983  42.996  10.945
21005W        W80266  33.047  34.602  14.469
21006W        W80267   8.166  42.326   0.320
21007W        W80268  18.686  41.844  13.479
21008W        W80269  14.303  14.656  13.474
21009W        W80270  23.017  43.285   0.790
21010W        W80271  38.570  28.035   1.925
21011W        W80272  10.275  14.595  14.923
21012W        W80273  14.735  22.579   1.809
21013W        W80274  28.441  29.966  14.867
21014W        W80275  29.607  42.808   3.244
21015W        W80276  31.054   2.875   5.727
21016W        W80277  35.391   4.860   4.210
21017W        W80278  41.800  25.679   2.781
21018W        W80279  42.815  36.517  10.096
21019W        W80280   9.375   1.883   4.691
21020W        W80281   5.825  23.201  11.460
21021W        W80282  10.868  20.178  14.867
21022W        W80283   5.260  15.793   1.238
21023W        W80284  12.217  35.375   3.631
21024W        W80285  24.718  29.428  14.295
21025W        W80286  38.069  14.108   3.833
21026W        W80287   7.197  29.567  13.961
21027W        W80288   2.307   4.912   3.756
21028W        W80289  22.535  36.883   4.322
21029W        W80290   3.846  38.930  14.363
21030W        W80291  32.519  32.981  13.391
21031W        W80292   4.817  26.463   4.279
21032W        W80293  33.568  15.127  10.444
21033W        W80294   1.884  44.947   4.621
21034W        W80295  19.645   3.325   1.798
21035W        W80296  31.975  34.395   3.284
21036W        W80297  26.981   5.223  11.552
21037W        W80298  30.458  22.029  13.004
21038W        W80299  25.481  15.149   1.760
21039W        W80300  22.632  24.571   0.293
21040W        W80301  28.110   6.221  12.923
21041W        W80302  27.568  42.417   0.323
21042W        W80303  27.500  21.159   2.679
21043W        W80304  22.100  34.439   1.356
21044W        W80305   1.415  32.100  14.333
21045W        W80306  17.769  19.047  11.546
21046W        W80307   2.417  18.692   0.387
21047W        W80308  12.816  43.282   4.248
21048W        W80309  14.306  31.042   1.832
21049W        W80310  40.042   1.436   0.860
21050W        W80311  26.610  21.115  14.032
21051W        W80312  44.963  25.475   1.218
21052W        W80313   3.842  30.540  13.478
21053W        W80314  39.862  29.572  11.525
21054W        W80315  23.628  30.620   2.773
21055W        W80316   6.882  39.870   1.919
21056W        W80317  30.540   1.477   1.843
21057W        W80318   5.761  34.889   3.171
21058W        W80319  24.503  23.096  11.978
21059W        W80320  18.736   8.862  12.475
21060W        W80321  23.042  12.849  14.979
21061W        W80322   3.219  42.986  12.035
21062W        W80323  26.509  24.696   0.259
21063W        W80324  22.640   9.211  14.377
21064W        W80325  31.424   5.858  14.768
21065W        W80326  24.030  20.071   2.789
21066W        W80327  27.490  36.385   1.328
21067W        W80328  32.449  27.686  13.399
21068W        W80329  23.690  18.258   5.238
21069W        W80330   0.935   6.385   3.333
21070W        W80331  10.202  15.231   9.986
21071W        W80332  16.745  33.531  12.533
21072W        W80333  38.526   2.315   3.742
21073W        W80334  36.475  37.056  13.502
21074W        W80335  20.644  31.103   1.321
21075W        W80336  38.823  20.058  13.499
21076W        W80337  18.101  34.889  14.422
21077W        W80338  30.098  39.472   1.803
21078W        W80339  16.772  18.590  12.040
21079W        W80340  31.424  14.630  10.943
21080W        W80341  27.568  40.862   3.692
21081W        W80342  28.527  23.240  12.544
21082W        W80343  20.218  30.438   2.686
21083W        W80344  18.050   9.746  10.429
21084W        W80345  10.220  10.760   2.854
21085W        W80346  23.034  44.355   2.749
21086W        W80347  42.879  17.717   0.905
21087W        W80348  29.457  23.078   0.429
21088W        W80349  43.410  28.675  14.505
21089W        W80350  12.670   4.224   2.887
21090W        W80351   0.338  16.284  13.951
21091W        W80352  25.127  41.311  12.892
21092W        W80353  32.557  23.628  11.036
21093W        W80354  44.913  18.565  12.082
21094W        W80355  42.937  21.715  12.394
21095W        W80356   9.806  23.127  13.316
21096W        W80357  18.597  18.210  14.465
21097W        W80358  39.447  10.164   3.351
21098W        W80359   1.255   2.805  11.865
21099W        W80360   1.775  10.207   4.821
21100W        W80361  13.666  15.117   1.865
21101W        W80362  16.630  22.052   4.345
21102W        W80363  36.402  39.057   1.230
21103W        W80364   8.833  33.909  11.863
21104W        W80365  36.968   0.424  14.769
21105W        W80366   3.257  28.652  14.861
21106W        W80367  29.550  18.697   3.359
21107W        W80368  22.106   7.245  14.762
21108W        W80369  11.229  42.814   1.434
21109W        W80370  39.944  39.463   0.755
21110W        W80371  12.150  23.206  14.898
21111W        W80372  39.006  19.096  13.812
21112W        W80373  11.324  15.165  13.846
21113W        W80374  39.357   8.748  11.569
21114W        W80375  38.343  34.008   3.178
21115W        W80376  36.532  41.346  14.925
21116W        W80377   2.392  35.565  13.476
21117W        W80378  39.934  39.981   4.752
21118W        W80379  31.526  41.815  13.801
21119W        W80380  42.384  37.933  14.844
21120W        W80381  14.677  12.692  11.117
21121W        W80382  17.746   4.362   4.215
21122W        W80383  21.540  18.554   2.735
21123W        W80384  29.503   1.366   3.664
21124W        W80385   4.867  17.709  13.348
21125W        W80386  28.513  28.467  14.395
21126W        W80387  26.700  18.099   4.627
21127W        W80388  29.006  29.944   1.717
21128W        W80389  22.738   6.772  12.875
21129W        W80390  32.580  26.608  14.912
21130W        W80391  35.039  16.696  14.988
21131W        W80392   7.800  35.440  13.856
21132W        W80393  28.641   2.739   1.790
21133W        W80394  44.919  21.203   2.702
21134W        W80395  41.847  24.532  14.320
21135W        W80396  36.972  19.190   0.900
21136W        W80397  35.065  19.129   3.196
21137W        W80398  40.993  28.044  12.952
21138W        W80399  37.514   8.340  13.804
21139W        W80400  31.069  25.137   1.879
21140W        W80401  36.351   4.425   0.428
21141W        W80402  44.845  42.333   4.220
21142W        W80403  27.489  30.425   2.854
21143W        W80404  15.122  23.223   2.347
21144W        W80405  30.552  30.445   4.125
21145W        W80406  33.976  24.532  12.923
21146W        W80407  23.120  24.494   1.760
21147W        W80408  13.661  44.783  12.458
21148W        W80409  41.536  26.125   3.362
21149W        W80410  35.953  10.668  14.395
21150W        W80411  19.747  21.596   3.255
21151W        W80412  15.260   5.726   0.784
21152W        W80413  19.113  39.393   0.802
21153W        W80414  20.234  39.928  13.505
21154W        W80415  26.139  39.957   2.726
21155W        W80416   9.764   0.823  11.406
21156W        W80417   0.932  21.736  12.476
21157W        W80418   6.310  17.155  10.504
21158W        W80419  17.765  28.434   3.162
21159W        W80420  40.485  39.899  14.455
21160W        W80421   5.839  41.495   0.378
21161W        W80422  10.801   8.657   2.871
21162W        W80423   2.726  43.357  13.448
21163W        W80424  41.521  17.758   1.917
21164W        W80425  16.572  30.584   2.707
21165W        W80426   6.876  19.698  11.891
21166W        W80427   7.867  12.744  11.110
21167W        W80428   8.249  24.549  10.917
21168W        W80429  28.083  41.830   2.260
21169W        W80430  20.154  32.003   9.980
21170W        W80431  17.600  33.402  12.364
21171W        W80432  20.146  20.711  11.476
21172W        W80433   0.494  14.143  14.987
21173W        W80434   3.900  36.558   3.161
21174W        W80435  10.361  26.142   2.847
21175W        W80436  11.235  34.455  14.299
21176W        W80437   3.240  32.946   9.955
21177W        W80438   8.400   8.159   3.656
21178W        W80439  12.350  21.666  14.822
21179W        W80440   8.264  27.582  14.879
21180W        W80441  38.544   6.199  10.616
21181W        W80442  23.210  13.278   0.316
21182W        W80443  13.257  31.044  14.301
21183W        W80444  14.114  23.007  11.912
21184W        W80445   7.816  41.295   4.277
21185W        W80446  25.503  13.673   1.839
21186W        W80447  15.114  23.209   3.334
21187W        W80448   7.268  24.029   0.368
21188W        W80449  19.763  10.841   3.692
21189W        W80450  36.094  40.910  11.965
21190W        W80451  41.336   2.245  12.946
21191W        W80452   7.781  34.950   1.284
21192W        W80453  39.535  42.806  10.580
21193W        W80454  15.120   2.366  13.850
21194W        W80455   5.843   3.391   0.417
21195W        W80456  35.095  31.581  14.880
21196W        W80457  35.972  38.041   1.779
21197W        W80458  13.640  12.155  13.851
21198W        W80459  21.208  10.734   4.728
21199W        W80460  13.751  20.254  14.350
21200W        W80461  37.994  39.013   3.728
21201W        W80462  35.085   1.851   0.420
21202W        W80463  35.471  23.216   2.187
21203W        W80464   3.354  11.341  14.315
21204W        W80465  35.090   5.268   3.358
21205W        W80466  19.253   9.739   2.230
21206W        W80467  10.804  26.165  10.931
21207W        W80468   4.339   4.282  11.971
21208W        W80469  15.142  20.729  10.953
21209W        W80470  33.029  22.204   0.795
21210W        W80471  13.303   9.789  12.879
21211W        W80472  31.061  29.478   3.662
21212W        W80473  37.985  34.091  14.413
21213W        W80474  42.348  29.918  13.996
21214W        W80475  41.961   5.338  14.887
21215W        W80476  27.548  36.994  10.475
21216W        W80477   7.227  30.112   3.232
21217W        W80478  31.456   7.870   4.646
21218W        W80479   6.796  11.853   3.346
21219W        W80480  42.419   0.417  11.498
21220W        W80481  19.109  10.644   3.381
21221W        W80482  39.943   3.255   2.712
21222W        W80483  34.518  30.037  14.436
21223W        W80484  10.211  21.122  13.538
21224W        W80485  36.564  34.591   4.745
21225W        W80486  35.939  31.125   3.739
21226W        W80487  33.433   2.276   0.411
21227W        W80488  34.411  10.698   0.753
21228W        W80489  17.294  24.224   1.812
21229W        W80490  13.266  23.202  10.637
21230W        W80491  14.290  11.243   3.716
21231W        W80492  20.090   9.285   0.945
21232W        W80493  32.106   4.880  14.360
21233W        W80494  10.762  19.688   3.814
21234W        W80495  14.622  17.146   0.917
21235W        W80496   0.409   2.405   0.880
21236W        W80497  39.044  16.770   4.610
21237W        W80498  22.558  32.417   5.276
21238W        W80499  25.157  37.035  10.458
21239W        W80500  19.607   1.873  11.444
21240W        W80501   7.770   1.736   1.360
21241W        W80502  11.297  10.848  11.463
21242W        W80503  38.060  14.622  12.394
21243W        W80504   7.785  27.005   1.290
21244W        W80505  44.285  33.471   1.719
21245W        W80506   2.898  14.269  11.905
21246W        W80507  23.727  39.047   2.309
21247W        W80508  24.048  25.094   4.334
21248W        W80509   1.409  22.659   4.615
21249W        W80510  38.074  14.637  11.054
21250W        W80511  32.006  16.249  11.056
21251W        W80512  35.377  37.956   0.408
21252W        W80513   1.419  16.686   1.804
21253W        W80514   5.726  15.177  13.421
21254W        W80515   9.867   6.866  14.805
21255W        W80516  35.567  28.445  12.955
21256W        W80517  17.728   1.483   3.800
21257W        W80518  30.912  21.696   2.745
21258W        W80519  14.209  42.367  13.504
21259W        W80520  28.001   0.336  11.037
21260W        W80521  18.788  42.297  14.876
21261W        W80522   4.942  41.853   0.293
21262W        W80523  19.136  41.483  14.451
21263W        W80524   5.364   5.805  14.799
21264W        W80525  18.168  38.427  12.921
21265W        W80526  16.625  22.604  10.491
21266W        W80527  15.717   0.461  13.531
21267W        W80528  39.854  42.433  13.013
21268W        W80529  38.052  38.901   2.769
21269W        W80530  15.606  38.355   4.784
21270W        W80531  11.848   8.349  14.812
21271W        W80532  41.863   2.756  11.862
21272W        W80533  19.550  41.030   4.115
21273W        W80534  34.986  31.994  14.848
21274W        W80535   4.772  40.423   4.661
21275W        W80536  13.120   4.419   1.888
21276W        W80537  30.997  15.678  12.931
21277W        W80538  24.187   3.895   2.770
21278W        W80539  21.065  28.439   3.778
21279W        W80540   1.394   7.902  13.796
21280W        W80541  28.511  31.585  13.535
21281W        W80542   8.283  14.815  12.526
21282W        W80543  17.650  31.583   3.665
21283W        W80544   2.429  15.738   3.167
21284W        W80545  39.329   8.327   2.812
21285W        W80546  23.112  18.603   2.805
21286W        W80547  35.997  41.331  11.576
21287W        W80548  44.371   6.919   2.183
21288W        W80549  37.524  35.483   5.132
21289W        W80550  25.003   2.897   2.243
21290W        W80551  43.494   8.850   2.264
21291W        W80552  38.461   8.816  11.550
21292W        W80553  14.805  17.556   1.722
21293W        W80554   5.856  33.505  11.074
21294W        W80555   0.304   4.205  12.067
21295W        W80556  31.986  20.241  13.984
21296W        W80557  26.469  39.533  11.374
21297W        W80558   9.821   8.229  11.456
21298W        W80559   5.770  42.839  12.449
21299W        W80560  35.091  12.693  13.317
21300W        W80561  25.565  14.779   2.706
21301W        W80562   5.287  39.929   3.178
21302W        W80563  42.854  35.373  14.488
21303W        W80564  28.018   2.881  12.422
21304W        W80565  23.654  44.429  10.990
21305W        W80566  42.482  31.036   2.336
21306W        W80567  33.890  39.002   1.847
21307W        W80568   3.812  39.453  13.808
21308W        W80569  35.978  34.872   3.155
21309W        W80570  15.213   1.809   2.326
21310W        W80571  43.993  43.463   3.721
21311W        W80572  43.403  23.005   5.144
21312W        W80573   9.766  14.266   0.446
21313W        W80574  38.364  23.538  14.474
21314W        W80575  34.596  39.983   4.337
21315W        W80576  34.882   9.185  13.546
21316W        W80577  16.785  10.176  14.901
21317W        W80578   2.251  18.758   4.635
21318W        W80579  14.327   3.241  14.879
21319W        W80580  35.558   2.952  11.901
21320W        W80581  16.716  14.617   4.211
21321W        W80582   6.283  29.088   0.820
21322W        W80583  10.298   7.792   0.445
21323W        W80584   6.833  20.654  11.915
21324W        W80585   9.739  25.018  13.447
21325W        W80586   7.318  40.374   1.824
21326W        W80587  40.856  33.548   1.834
21327W        W80588  38.067  39.993   1.732
21328W        W80589  11.198  21.723  13.845
21329W        W80590  19.692  18.100  14.881
21330W        W80591  24.689  24.684  10.998
21331W        W80592  36.406  18.571  14.315
21332W        W80593  37.432  30.969   3.347
21333W        W80594   2.796  36.518   2.831
21334W        W80595  31.139  15.771   0.292
21335W        W80596  21.512  36.410   3.681
21336W        W80597  21.169  27.156   3.634
21337W        W80598  22.226  40.325  11.986
21338W        W80599  20.734   6.824  14.897
21339W        W80600  25.586  11.645   3.226
21340W        W80601  37.875  14.635   2.684
21341W        W80602   7.400  26.558   3.380
21342W        W80603  11.782  11.829  11.864
21343W        W80604  11.213   1.737   2.233
21344W        W80605  41.895  40.833   0.758
21345W        W80606  23.519   1.375   2.780
21346W        W80607  22.684  28.101   5.231
21347W        W80608  15.135  25.043   2.817
21348W        W80609  14.688  43.795   0.960
21349W        W80610  16.574  35.903   0.734
21350W        W80611  40.425   4.327   2.773
21351W        W80612  21.740   7.866   1.744
21352W        W80613   4.209   0.866  10.986
21353W        W80614   8.685  43.764  10.950
21354W        W80615  30.967  37.514   3.692
21355W        W80616  16.201   1.847  12.520
21356W        W80617  39.877  38.472   4.355
21357W        W80618  39.039  42.939   2.765
21358W        W80619  35.461  37.439  12.875
21359W        W80620  42.994  15.676   0.368
21360W        W80621  13.281  21.629  13.995
21361W        W80622  36.458   9.740  11.880
21362W        W80623   2.733   1.904   2.332
21363W        W80624  29.493  11.323   3.786
21364W        W80625   6.711  11.656   0.261
21365W        W80626  18.695  33.411   3.859
21366W        W80627  32.592  42.302  11.973
21367W        W80628  36.942  15.802  12.403
21368W        W80629  13.766  43.446   1.744
21369W        W80630   6.902  24.073   2.902
21370W        W80631  31.009  13.669  13.533
21371W        W80632  27.130  22.207  13.946
21372W        W80633  40.527   5.839  14.918
21373W        W80634  42.983  32.604  10.495
21374W        W80635  20.032  24.621  12.537
21375W        W80636  24.630  19.068  12.528
21376W        W80637  18.273  17.631   0.447
21377W        W80638  36.370  15.596   2.824
21378W        W80639  42.844  12.310   0.896
21379W        W80640  44.264   5.337  14.288
21380W        W80641  13.808  43.021   4.307
21381W        W80642  31.556   9.868   1.370
21382W        W80643  40.431  18.696   4.691
21383W        W80644   7.728   6.388  12.000
21384W        W80645  23.056  30.431  14.469
21385W        W80646  12.826   2.422  11.375
21386W        W80647   8.754  39.930   1.249
21387W        W80648   1.306  13.133  11.377
21388W        W80649  31.431  23.601   0.744
21389W        W80650  33.096  15.717  10.975
21390W        W80651  20.027  26.685  11.039
21391W        W80652  24.488   5.913   1.412
21392W        W80653  44.388   6.784   0.813
21393W        W80654  34.893   2.407  12.970
21394W        W80655   3.245  29.967   4.130
21395W        W80656  12.185  31.628   0.450
21396W        W80657  23.080   1.827   0.762
21397W        W80658  31.512  32.581  10.942
21398W        W80659  31.132  12.248   0.447
21399W        W80660  22.635  33.039   0.860
21400W        W80661  19.611  23.137   2.731
21401W        W80662  25.598  18.183  14.336
21402W        W80663   2.932  42.363   1.431
21403W        W80664  29.520   4.820   3.209
21404W        W80665  39.467   8.299   4.794
21405W        W80666  35.883  10.755   2.319
21406W        W80667  43.868  17.207  12.078
21407W        W80668  15.738   9.887  14.506
21408W        W80669  10.835  27.181   4.216
21409W        W80670  30.926  18.689   1.806
21410W        W80671  19.706  26.019   2.749
21411W        W80672  23.179  17.193   2.740
21412W        W80673  25.983  19.054   2.398
21413W        W80674  39.528  22.650   9.946
21414W        W80675  33.586  39.898  10.895
21415W        W80676  19.108  43.390   1.425
21416W        W80677  38.399  10.695  12.460
21417W        W80678   2.880  39.488   3.179
21418W        W80679   6.424   2.917   4.350
21419W        W80680  31.138   6.755   4.232
21420W        W80681  21.579  34.443   2.886
21421W        W80682  28.578   1.355   3.835
21422W        W80683   8.792  37.999  10.427
21423W        W80684  29.578   0.883  12.941
21424W        W80685  35.014  28.550   1.280
21425W        W80686  39.506  30.094  11.593
21426W        W80687   6.703  22.520  10.451
21427W        W80688   7.337   9.255  13.319
21428W        W80689   6.200   8.824   5.129
21429W        W80690   3.259  21.522   2.831
21430W        W80691  36.535  26.669   1.332
21431W        W80692  26.529   5.889  11.909
21432W        W80693  34.447  40.389  14.477
21433W        W80694  19.669  33.108  11.409
21434W        W80695  14.154  13.225  13.323
21435W        W80696  11.785  37.486   4.790
21436W        W80697  33.091  12.750  10.615
21437W        W80698   4.735  31.070   3.640
21438W        W80699  43.325  16.158   0.892
21439W        W80700  23.570  11.707  12.376
21440W        W80701   6.912  40.418  14.434
21441W        W80702   3.304  16.238   1.826
21442W        W80703  24.045  23.170   2.344
21443W        W80704  43.473  38.555   3.631
21444W        W80705  22.605  38.383   0.397
21445W        W80706  10.168  23.615  13.006
21446W        W80707   7.184  18.778   4.686
21447W        W80708  41.312   0.288   3.752
21448W        W80709  30.632  10.273  11.114
21449W        W80710  40.973   3.834   2.380
21450W        W80711  31.026  36.876  13.443
21451W        W80712  10.251  21.103  14.327
21452W        W80713  21.531  43.782  12.556
21453W        W80714  22.091  21.236   3.787
21454W        W80715  10.138   6.785   2.766
21455W        W80716  16.759   8.282   4.139
21456W        W80717  38.871  40.312  14.019
21457W        W80718  11.827  35.950   1.873
21458W        W80719  26.092   3.264   2.816
21459W        W80720  28.983   3.449  14.426
21460W        W80721  26.519   8.350   0.288
21461W        W80722  43.802  10.167  13.537
21462W        W80723  19.751  20.128   1.416
21463W        W80724  38.331  17.675   1.301
21464W        W80725  41.926  37.403   9.984
21465W        W80726   2.886  20.759   2.783
21466W        W80727  42.924  14.142   0.743
21467W        W80728  39.490  19.097  11.862
21468W        W80729  36.984  22.206  13.492
21469W        W80730  15.197   6.310   0.282
21470W        W80731  23.033  28.953   0.792
21471W        W80732   1.900  44.004  13.015
21472W        W80733  30.957  32.602  14.846
21473W        W80734  39.505   9.750   1.249
21474W        W80735  11.347  15.177   4.254
21475W        W80736  40.452  13.763  14.367
21476W        W80737  33.548  36.898   3.763
21477W        W80738  21.085  29.527   4.803
21478W        W80739  30.105   5.332   4.705
21479W        W80740   4.873  11.868  12.444
21480W        W80741  41.356  32.023   2.670
21481W        W80742   0.278  30.526  11.552
21482W        W80743  14.821  35.086  13.396
21483W        W80744  40.877  44.863  12.542
21484W        W80745  33.445   0.418  10.887
21485W        W80746  40.993  19.743  14.323
21486W        W80747  35.991  14.695  12.931
21487W        W80748   9.654  43.473  13.058
21488W        W80749  18.072  35.985  11.374
21489W        W80750  37.372  18.154  14.814
21490W        W80751   3.833  16.286   2.300
21491W        W80752   5.223  23.238   1.295
21492W        W80753  12.177  26.201  11.097
21493W        W80754  29.666  29.072   3.753
21494W        W80755  12.795  36.521   4.620
21495W        W80756  27.107  41.363  11.453
21496W        W80757  18.077   9.749  14.816
21497W        W80758   9.204  28.659   3.671
21498W        W80759  18.596  12.130  10.982
21499W        W80760  28.096  17.111   2.803
21500W        W80761  40.043  38.879   0.343
21501W        W80762  15.696  38.541  12.988
21502W        W80763   7.888  30.917   0.335
21503W        W80764  41.437   4.903  12.502
21504W        W80765   2.914  26.473   1.930
21505W        W80766  26.538   0.859  12.387
21506W        W80767  29.982  30.431   0.953
21507W        W80768  23.606  30.512  13.791
21508W        W80769  44.496   7.733   1.327
21509W        W80770   5.233  30.526   4.605
21510W        W80771  13.170  34.031  12.390
21511W        W80772  15.320  33.473   2.401
21512W        W80773   7.254  10.144   1.409
21513W        W80774  13.708  41.365  13.913
21514W        W80775  35.084   0.924  14.346
21515W        W80776  30.930  17.649   3.294
21516W        W80777   7.791  36.023  11.084
21517W        W80778  29.115   2.246  14.903
21518W        W80779   4.410  10.345   4.676
21519W        W80780  12.698  10.163  11.101
21520W        W80781  44.939  31.017   4.773
21521W        W80782  12.196  16.725   4.687
21522W        W80783  30.128  18.219   0.797
21523W        W80784  31.143  16.583   2.184
21524W        W80785  15.317  25.637  14.367
21525W        W80786  14.206   2.356  12.876
21526W        W80787  19.584   4.450  11.476
21527W        W80788   4.705   4.301  14.939
21528W        W80789  44.986  10.181   0.460
21529W        W80790   7.182  13.650   0.941
21530W        W80791   9.701  12.686   3.721
21531W        W80792  20.697  39.520  12.572
21532W        W80793  17.723  44.480   2.784
21533W        W80794   6.757   4.411  12.038
21534W        W80795  22.174  28.151   1.341
21535W        W80796  32.057  23.009  13.991
21536W        W80797  30.427  29.009  11.570
21537W        W80798  42.970  27.996   3.337
21538W        W80799  17.244  15.783  12.436
21539W        W80800  37.049   6.821  12.370
21540W        W80801   1.959   9.731  12.999
21541W        W80802  42.990   9.704  10.621
21542W        W80803   0.941  38.376  13.925
21543W        W80804  38.916  27.503   4.730
21544W        W80805  12.280   3.869  12.057
21545W        W80806  28.537  36.002   3.633
21546W        W80807  35.932  11.205  13.420
21547W        W80808  35.501  40.358  14.448
21548W        W80809  31.992  11.648   4.340
21549W        W80810  21.231  29.485  14.288
21550W        W80811  21.139  27.137  13.960
21551W        W80812  32.117  31.629  11.036
21552W        W80813  23.573  16.248  11.101
21553W        W80814  43.499  38.864  10.901
21554W        W80815  27.180  33.541   0.474
21555W        W80816  42.406  44.281   3.199
21556W        W80817  35.540  44.371   2.681
21557W        W80818   8.718   8.881   4.210
21558W        W80819  29.084  11.820  10.906
21559W        W80820  35.073  41.035  11.948
21560W        W80821  25.518  29.152  12.964
21561W        W80822   8.670  36.947  12.416
21562W        W80823  20.269  14.810  13.023
21563W        W80824  38.339  40.322   1.231
21564W        W80825  16.193  43.011  12.537
21565W        W80826   8.885  31.502   3.659
21566W        W80827  33.416  41.479  13.795
21567W        W80828   5.793  10.641  14.453
21568W        W80829  39.808   5.416  13.901
21569W        W80830  33.982  17.582  12.965
21570W        W80831  21.570   2.353  13.855
21571W        W80832   9.340  36.547   3.226
21572W        W80833   3.827   0.895  12.995
21573W        W80834  15.296  27.601   2.374
21574W        W80835   8.248  39.050  11.966
21575W        W80836  37.417  32.910   2.861
21576W        W80837  30.134  34.395  12.001
21577W        W80838  18.548  26.665   4.299
21578W        W80839  44.282  22.531   0.414
21579W        W80840  18.254  40.011   0.786
21580W        W80841  38.464  11.198   2.746
21581W        W80842  40.800  34.487  11.076
21582W        W80843  24.985  32.913  14.288
21583W        W80844  36.493  33.442  13.873
21584W        W80845  36.575  38.974  14.870
21585W        W80846  35.948   5.356   2.779
21586W        W80847  25.159   7.334  13.828
21587W        W80848  37.933  13.322   3.296
21588W        W80849   1.459  31.983  11.104
21589W        W80850  37.536  13.755  10.910
21590W        W80851   6.882  32.996   3.382
21591W        W80852  32.968  19.050   2.289
21592W        W80853  35.943  22.215   2.844
21593W        W80854  28.030  12.803   4.607
21594W        W80855  31.916  10.258  11.899
21595W        W80856  40.546  36.844   3.293
21596W        W80857   8.772   6.799   0.277
21597W        W80858  32.886  35.548  14.473
21598W        W80859  43.845  39.829  10.475
21599W        W80860  40.420  18.289   2.899
21600W        W80861  30.538  29.013  10.967
21601W        W80862  31.031   4.342  13.027
21602W        W80863  19.584  19.074  14.508
21603W        W80864  37.994  28.936   3.375
21604W        W80865   0.467  31.086  11.519
21605W        W80866  11.800   6.911  13.799
21606W        W80867  15.739   2.915  10.943
21607W        W80868  26.579   4.717  12.451
21608W        W80869  43.844  22.151  11.583
21609W        W80870   3.806  14.631  11.927
21610W        W80871  43.850   7.709  13.953
21611W        W80872  37.864  15.728   4.611
21612W        W80873  17.272  12.344   2.769
21613W        W80874  19.602  15.104  12.413
21614W        W80875  26.578  31.406  12.930
21615W        W80876  35.095  26.188   4.668
21616W        W80877  26.091  36.911  14.920
21617W        W80878  17.763   2.240   1.368
21618W        W80879   9.344  30.415  12.077
21619W        W80880  27.569  33.553   4.302
21620W        W80881  22.692   1.945  11.417
21621W        W80882  30.106  43.288   4.274
21622W        W80883  31.096   5.305   3.748
21623W        W80884  28.551  39.492   1.724
21624W        W80885  16.246  34.105  13.509
21625W        W80886  39.360   9.360   4.170
21626W        W80887  26.023  13.839   0.280
21627W        W80888  19.203   7.681  11.590
21628W        W80889  41.383  18.682  14.014
21629W        W80890   8.283  15.285   2.247
21630W        W80891   0.306  20.223  13.936
21631W        W80892  33.394  36.383  13.838
21632W        W80893  38.427   9.301  14.783
21633W        W80894  39.025  14.723   4.115
21634W        W80895  17.220  35.014   4.629
21635W        W80896  44.470  18.238  14.473
21636W        W80897  11.137  20.550   3.839
21637W        W80898   6.306  10.251   2.831
21638W        W80899  43.299  31.061  12.389
21639W        W80900  26.612  20.078  14.347
21640W        W80901   3.224  40.897  11.476
21641W        W80902  28.482  10.819   3.668
21642W        W80903  29.593  31.901  11.530
21643W        W80904  25.513  21.127  10.036
21644W        W80905  21.120   7.825  14.485
21645W        W80906   2.264   6.734   4.837
21646W        W80907  11.727  35.942   4.655
21647W        W80908   5.836   7.414   4.253
21648W        W80909  20.225  43.330  10.946
21649W        W80910   2.906  24.580  11.388
21650W        W80911   5.219   6.262  11.392
21651W        W80912  31.073  31.099  12.571
21652W        W80913  14.149  34.513  13.932
21653W        W80914  22.557  44.298   3.272
21654W        W80915  13.747  12.202   4.836
21655W        W80916  39.935  16.165   4.663
21656W        W80917  17.239   7.703  14.891
21657W        W80918  42.464  43.429  10.568
21658W        W80919  11.833  37.070  10.092
21659W        W80920   0.442  22.078  11.417
21660W        W80921  38.012  29.441  10.494
21661W        W80922   1.273  32.470   2.306
21662W        W80923  40.530  43.965  11.992
21663W        W80924  13.343  32.006  11.086
21664W        W80925  10.724  13.753  11.940
21665W        W80926  19.727  28.101   0.729
21666W        W80927  43.959  14.222  10.549
21667W        W80928   3.754  39.919   4.656
21668W        W80929   5.404   7.269   3.751
21669W        W80930  33.409  19.613   4.763
21670W        W80931  20.747  42.425  14.918
21671W        W80932  42.421   4.734   3.370
21672W        W80933  44.366   7.354   4.838
21673W        W80934  41.366  34.513   4.159
21674W        W80935  11.243  43.937   1.918
21675W        W80936  16.305  25.150  13.811
21676W        W80937  12.355  44.372   2.408
21677W        W80938  13.248   2.737  13.797
21678W        W80939   4.831  22.635  10.428
21679W        W80940  36.482  39.413  10.532
21680W        W80941  44.958  18.681   3.316
21681W        W80942   2.362  28.095   3.161
21682W        W80943   1.353  35.517  13.808
21683W        W80944   6.187  38.886   2.723
21684W        W80945   9.807  37.047   4.774
21685W        W80946  28.494   7.307   2.250
21686W        W80947   8.355  23.024  13.059
21687W        W80948  20.569  43.360   3.804
21688W        W80949   1.299  35.961   0.886
21689W        W80950   7.287  20.102   3.331
21690W        W80951  13.784  28.128  13.973
21691W        W80952  23.179  26.647  12.968
21692W        W80953  18.711   5.799   0.768
21693W        W80954   9.673  15.198  11.039
21694W        W80955   4.450  16.625  10.572
21695W        W80956  36.589   9.168  12.080
21696W        W80957   3.349   1.405   4.640
21697W        W80958   1.395  24.648   2.860
21698W        W80959   2.283  10.826  11.046
21699W        W80960  28.676  44.441   1.828
21700W        W80961  31.965  21.543  11.492
21701W        W80962  16.786  23.069   3.823
21702W        W80963  13.606  19.067   0.371
21703W        W80964   4.706   1.938  14.366
21704W        W80965  42.009  30.109  14.829
21705W        W80966  43.825  31.085   0.363
21706W        W80967  33.110  37.082   4.712
21707W        W80968  16.783  20.215   3.222
21708W        W80969   6.230  29.030   3.828
21709W        W80970   2.271  20.047   2.867
21710W        W80971   2.771  41.836  11.601
21711W        W80972   3.422  20.686   3.288
21712W        W80973  14.726  35.872   9.974
21713W        W80974  22.182   0.863  13.449
21714W        W80975   6.391  30.005  12.023
21715W        W80976   9.849  39.381   4.325
21716W        W80977  29.514  42.486   4.761
21717W        W80978  20.735  17.739  14.015
21718W        W80979  34.409  40.328  13.425
21719W        W80980  24.215   0.418   4.305
21720W        W80981  42.955  22.120   0.948
21721W        W80982   6.869  39.532  14.820
21722W        W80983  11.789  24.552   4.305
21723W        W80984   1.341  19.556  10.616
21724W        W80985  22.093  31.062   2.667
21725W        W80986  15.740  16.155   4.216
21726W        W80987  38.838   9.330   3.169
21727W        W80988  13.812   5.385  12.884
21728W        W80989  31.529   5.795  11.466
21729W        W80990  30.492  14.110  14.318
21730W        W80991  21.164  18.594   1.225
21731W        W80992  42.790  40.450  13.017
21732W        W80993  23.579  20.243   1.253
21733W        W80994   8.797   2.368   4.602
21734W        W80995   9.729   4.233   3.833
21735W        W80996   2.450   2.464   2.322
21736W        W80997   5.697  18.644   2.755
21737W        W80998  36.922  27.584  13.035
21738W        W80999  20.061   0.452  14.302
21739W        W81000  26.626  38.978  10.629
21740W        W81001  22.189  37.523   4.294
21741W        W81002  41.910  35.426   1.747
21742W        W81003   1.948  40.306   2.235
21743W        W81004  19.250  38.015  11.053
21744W        W81005  10.725  15.685  12.457
21745W        W81006   3.376  40.043   3.166
21746W        W81007  33.949  28.080  13.822
21747W        W81008  15.119  24.008   3.783
21748W        W81009  26.108  43.475   2.367
21749W        W81010  37.490  27.560  12.539
21750W        W81011  22.134  15.094   1.754
21751W        W81012  35.076   3.440  10.097
21752W        W81013  16.305   6.782  10.090
21753W        W81014  22.166   6.182   1.307
21754W        W81015   6.346  37.928  10.910
21755W        W81016  37.518  10.643  13.345
21756W        W81017  32.066  41.910   2.693
21757W        W81018  34.425   2.939   0.285
21758W        W81019  14.235  35.549   2.709
21759W        W81020  18.153  39.876   1.349
21760W        W81021  28.676  28.527   3.362
21761W        W81022  25.099  19.075   2.236
21762W        W81023  11.809  16.092  13.791
21763W        W81024  20.243  24.522   1.825
21764W        W81025  27.156  33.888  11.586
21765W        W81026  16.764   9.159   2.178
21766W        W81027   4.785  27.080   2.866
21767W        W81028   2.368  29.493   4.253
21768W        W81029  21.642  17.208  12.552
21769W        W81030  18.156   6.708  11.603
21770W        W81031   2.915  33.438   4.739
21771W        W81032  16.206  16.619   0.404
21772W        W81033  38.982   5.794   1.921
21773W        W81034  16.587  12.229   1.395
21774W        W81035  15.225  33.518  14.926
21775W        W81036   1.427  29.040  11.543
21776W        W81037   7.197   5.393  13.822
21777W        W81038  42.030  24.040  13.953
21778W        W81039  28.503  16.803   0.734
21779W        W81040  27.948   5.784   0.823
21780W        W81041  30.995  21.148  12.086
21781W        W81042  39.945  18.727   4.619
21782W        W81043  25.146  10.232   4.816
21783W        W81044  37.067  16.807  11.879
21784W        W81045  23.623  40.803  11.439
21785W        W81046   6.415  25.588   4.334
21786W        W81047  16.792  20.747   3.677
21787W        W81048  19.744  29.505   0.879
21788W        W81049  38.882   1.340  11.894
21789W        W81050  23.069  37.843  13.792
21790W        W81051  42.996  44.312   3.383
21791W        W81052  14.229  23.570   3.797
21792W        W81053  27.980   5.251   0.786
21793W        W81054  37.450   0.469   0.365
21794W        W81055  35.920  29.488  10.592
21795W        W81056  42.988  30.996  10.403
21796W        W81057  15.631  11.707  13.475
21797W        W81058   5.364  14.668   3.148
21798W        W81059   4.342   6.705   2.902
21799W        W81060   0.969  14.638  11.944
21800W        W81061  44.967   2.882  12.899
21801W        W81062  37.510  24.579  11.526
21802W        W81063  16.623   7.378   2.793
21803W        W81064  16.572   8.374   1.391
21804W        W81065  30.952  13.159   1.257
21805W        W81066  17.283  37.063   1.445
21806W        W81067  26.701  28.628   2.338
21807W        W81068  30.037  23.563   0.937
21808W        W81069  22.058  17.173  10.458
21809W        W81070  18.694  23.054   4.722
21810W        W81071  33.937  15.167   2.662
21811W        W81072  13.617  42.488  10.444
21812W        W81073  36.409  18.147   0.471
21813W        W81074  10.877  34.924   2.251
21814W        W81075  12.720  36.054  12.891
21815W        W81076  38.370   5.776   1.219
21816W        W81077  40.495  33.626  13.845
21817W        W81078   1.880   5.854   4.727
21818W        W81079  29.991  11.678  11.375
21819W        W81080  30.420  10.668   1.926
21820W        W81081  26.686   1.376   0.460
21821W        W81082  16.644  39.898  12.924
21822W        W81083  23.141   3.246   0.262
21823W        W81084   6.895  24.995  13.919
21824W        W81085  43.999  10.171  12.475
21825W        W81086   5.715  33.418   2.851
21826W        W81087  37.535  18.173  11.932
21827W        W81088  13.723   7.753  14.413
21828W        W81089  27.002  11.673   3.656
21829W        W81090  44.904   8.840   0.322
21830W        W81091   2.936   3.935  12.416
21831W        W81092  38.456  43.841   0.254
21832W        W81093  36.922  40.362  11.575
21833W        W81094  43.017  25.073  14.760
21834W        W81095   5.263  37.987  14.493
21835W        W81096  29.666  32.589  13.843
21836W        W81097   6.415  40.903  12.485
21837W        W81098  28.137  40.973   2.413
21838W        W81099  25.710  11.184  14.284
21839W        W81100  33.570  22.518  14.005
21840W        W81101   4.769  35.090   2.290
21841W        W81102  30.633  32.555   3.805
21842W        W81103  12.161  28.073   1.808
21843W        W81104  28.033   7.847  14.436
21844W        W81105  27.495  44.304  13.871
21845W        W81106   6.714  43.344  14.474
21846W        W81107  14.644  29.945  12.513
21847W        W81108  27.093   5.317   4.773
21848W        W81109  27.683   1.819  13.982
21849W        W81110  27.977  28.645   1.811
21850W        W81111  11.638   9.711  14.504
21851W        W81112  30.633   3.244   2.402
21852W        W81113  35.366  42.836   4.621
21853W        W81114  13.658  34.073  13.013
21854W        W81115  28.494  31.489   1.442
21855W        W81116   5.378  18.648  14.486
21856W        W81117  32.889  13.226   3.328
21857W        W81118  37.966  22.736   3.779
21858W        W81119  25.505  13.682   3.156
21859W        W81120  39.042   4.709   0.293
21860W        W81121   0.863  44.914   4.725
21861W        W81122   1.437  44.393   0.421
21862W        W81123  12.249  12.785  12.414
21863W        W81124  18.691   2.940  12.562
21864W        W81125  24.718  41.479  12.398
21865W        W81126  25.192  43.907  12.480
21866W        W81127   0.975   6.335  10.586
21867W        W81128  31.535  29.529   1.369
21868W        W81129  11.776   7.271   3.811
21869W        W81130   2.262   8.297   1.810
21870W        W81131   0.283  15.243  14.898
21871W        W81132  29.132   2.959  11.409
21872W        W81133   4.428  35.041  10.470
21873W        W81134  43.898  13.660  11.109
21874W        W81135  42.020  22.232   1.217
21875W        W81136  11.800  15.673  13.931
21876W        W81137  26.207  33.451  13.028
21877W        W81138  11.335   4.377  13.994
21878W        W81139  24.671  11.289  14.403
21879W        W81140  21.038  28.129  12.932
21880W        W81141  21.204  13.113   2.796
21881W        W81142  32.430  31.150   2.217
21882W        W81143  25.169  43.480  11.487
21883W        W81144  41.939  33.088  12.050
21884W        W81145  15.265   6.351   2.271
21885W        W81146  28.186  26.479  13.839
21886W        W81147  26.983  34.942  12.963
21887W        W81148  10.803   2.908   2.266
21888W        W81149  33.953  11.736   1.229
21889W        W81150  16.185  32.455  11.978
21890W        W81151  36.062   9.325  13.457
21891W        W81152  13.224   1.806   0.794
21892W        W81153   2.365   2.263   4.639
21893W        W81154  34.514  20.275  13.947
21894W        W81155  40.910   6.922   2.232
21895W        W81156   8.240  15.821  12.362
21896W        W81157   6.740  17.757   0.341
21897W        W81158  42.379  14.604   2.315
21898W        W81159   7.251   8.249  10.561
21899W        W81160  21.742  32.582   1.814
21900W        W81161  17.296  21.044   0.758
21901W        W81162  12.785  32.513   3.234
21902W        W81163  19.734  29.069  11.004
21903W        W81164  34.459  14.313   3.847
21904W        W81165  36.401  11.635  12.405
21905W        W81166   3.835  25.628   3.373
21906W        W81167  22.180  43.940  11.375
21907W        W81168   2.308  22.066  11.085
21908W        W81169  41.388  14.650  11.554
21909W        W81170  36.437   7.294   0.761
21910W        W81171   0.250  41.922   4.227
21911W        W81172   5.345  38.874  13.004
21912W        W81173  20.562   3.945   3.726
21913W        W81174  42.390  38.437  10.412
21914W        W81175   8.787  26.060   3.773
21915W        W81176  25.144  25.075   2.887
21916W        W81177   2.470  36.023  12.880
21917W        W81178  44.818  36.561  14.816
21918W        W81179   7.903  32.915   1.390
21919W        W81180  39.388   0.830  10.612
21920W        W81181  36.455  29.000   1.424
21921W        W81182   5.929   6.248  12.536
21922W        W81183  34.928  12.750  12.064
21923W        W81184  20.651  28.110  14.446
21924W        W81185  24.208  24.560   2.812
21925W        W81186  38.496  20.686   0.290
21926W        W81187   7.212  38.448  13.342
21927W        W81188  40.907  15.618   2.706
21928W        W81189  37.859  39.455   0.243
21929W        W81190   4.937  27.502   2.407
21930W        W81191   7.287  39.323   3.214
21931W        W81192  34.596   3.926   4.755
21932W        W81193  15.815  29.545   4.147
21933W        W81194   8.318  30.908   4.268
21934W        W81195  40.960  24.716   4.628
21935W        W81196   7.871  43.448   4.655
21936W        W81197  12.645  39.923  12.984
21937W        W81198  13.131  16.300  14.947
21938W        W81199  29.035   8.867  10.539
21939W        W81200  44.420  14.333   3.299
21940W        W81201  38.562  17.198  11.486
21941W        W81202  30.557  34.514   0.927
21942W        W81203  15.319  38.034   2.835
21943W        W81204   7.901   2.781   3.366
21944W        W81205   5.700  26.085  13.488
21945W        W81206  22.594   5.700   2.723
21946W        W81207  20.722  12.134  14.458
21947W        W81208  10.188  28.024  12.488
21948W        W81209   7.907  10.659   2.699
21949W        W81210  14.319  21.593  12.894
21950W        W81211   3.347  38.387  14.418
21951W        W81212  20.768  38.054   0.290
21952W        W81213  14.337  42.809  14.328
21953W        W81214  26.559  29.469  11.002
21954W        W81215  16.620  34.098  12.983
21955W        W81216  36.348  11.708  11.487
21956W        W81217  16.683  16.193  12.905
21957W        W81218  42.976   5.727  11.941
21958W        W81219  16.731   6.347  13.965
21959W        W81220  40.897  36.573   0.449
21960W        W81221  23.622  12.691  13.397
21961W        W81222  37.487   1.382  14.423
21962W        W81223  39.497   4.802  14.430
21963W        W81224  27.009  36.590  10.456
21964W        W81225  30.136  20.736   4.617
21965W        W81226  25.546  25.000   4.190
21966W        W81227   5.874   7.762  14.847
21967W        W81228  27.485  17.266  12.029
21968W        W81229   8.667  42.785   1.281
21969W        W81230  40.939   6.772   1.409
21970W        W81231  28.991  17.649  14.931
21971W        W81232   5.258   3.888   0.854
21972W        W81233   3.332  18.292  14.421
21973W        W81234  13.655  42.001  14.857
21974W        W81235   1.409   3.930  13.337
21975W        W81236  26.115  17.243  14.862
21976W        W81237   3.230  26.981  11.077
21977W        W81238  14.718  41.839  13.417
21978W        W81239  43.297  25.494  13.367
21979W        W81240  10.809   0.833   2.663
21980W        W81241  23.495  12.725  14.501
21981W        W81242   0.750  23.117  14.804
21982W        W81243  26.985  31.980   0.845
21983W        W81244   5.838  41.378  12.045
21984W        W81245  36.947  10.175   1.832
21985W        W81246  40.999  29.979   1.756
21986W        W81247  41.023  32.616  10.428
21987W        W81248  37.025   6.907  11.574
21988W        W81249  35.477  24.580  14.797
21989W        W81250  15.618  15.694   3.786
21990W        W81251  20.231  35.093  11.612
21991W        W81252  23.585  14.669  13.887
21992W        W81253  39.998  16.675   2.753
21993W        W81254  33.902   8.307  14.977
21994W        W81255   5.787   9.206   0.763
21995W        W81256  12.128   4.211   1.746
21996W        W81257  27.468  24.556   2.388
21997W        W81258  21.098  41.355  12.512
21998W        W81259  18.099   8.743  12.932
21999W        W81260  14.675  13.344  13.330
22000W        W81261  37.494  22.734  14.889
22001W        W81262  28.493  28.440  14.028
22002W        W81263  23.508  17.261   1.211
22003W        W81264   1.253  17.797   1.238
22004W        W81265  29.065   1.411   5.691
22005W        W81266  16.649   6.335  12.848
22006W        W81267  31.056   7.795  13.421
22007W        W81268  25.492  11.326  11.016
22008W        W81269  21.158  36.879   4.282
22009W        W81270   0.347  36.578  12.433
22010W        W81271  37.536  39.348   3.852
22011W        W81272  15.729   2.899   5.310
22012W        W81273  16.795  37.556  14.813
22013W        W81274  25.015  10.321   1.797
22014W        W81275  31.125  29.527  12.383
22015W        W81276  33.055  17.099   0.743
22016W        W81277   8.352  40.436  10.518
22017W        W81278  29.646  23.498  13.836
22018W        W81279   6.396  29.151   2.824
22019W        W81280  34.498  16.177   2.234
22020W        W81281  12.293  44.335   0.857
22021W        W81282  23.138  29.477  12.971
22022W        W81283  31.899  41.848  12.036
22023W        W81284  42.968  16.128  12.396
22024W        W81285  19.619   6.366  10.580
22025W        W81286  25.056  29.055   1.444
22026W        W81287  36.049   7.262   1.703
22027W        W81288  20.746  30.567  13.984
22028W        W81289  30.573  15.256   1.789
22029W        W81290  40.980   9.880  10.535
22030W        W81291  33.043  34.967   4.218
22031W        W81292  39.841  38.493   0.761
22032W        W81293  20.623  17.242   1.345
22033W        W81294  34.113  20.217  14.502
22034W        W81295  35.885  23.707   1.437
22035W        W81296  44.915  14.748  11.458
22036W        W81297   1.472  28.951  10.627
22037W        W81298  35.032  28.940  10.591
22038W        W81299  31.434  32.123   0.946
22039W        W81300  12.172  15.315  10.536
22040W        W81301  28.522  25.081   4.703
22041W        W81302  16.286  38.008  13.941
22042W        W81303   7.372  35.387   2.395
22043W        W81304  40.505  22.174   1.776
22044W        W81305   6.886   9.869   5.787
22045W        W81306  22.716   7.181  11.932
22046W        W81307  29.965  14.181   2.867
22047W        W81308   2.917  27.012  11.459
22048W        W81309  25.487  10.716   3.764
22049W        W81310  18.653  20.091   1.433
22050W        W81311  11.175  35.419  13.478
22051W        W81312  39.402  39.066  11.988
22052W        W81313  37.900  15.580   3.835
22053W        W81314  30.595  16.617  11.573
22054W        W81315   4.317  17.708  12.408
22055W        W81316  10.302  25.137   3.684
22056W        W81317  34.000  43.495   4.180
22057W        W81318  43.011  19.750   1.395
22058W        W81319   4.929  18.073   4.603
22059W        W81320  43.400  40.902   3.286
22060W        W81321  34.525  28.600  13.981
22061W        W81322  15.748  30.124   3.833
22062W        W81323   9.350  39.002  10.026
22063W        W81324  23.617  31.012  10.140
22064W        W81325  27.683   2.750  13.989
22065W        W81326  22.553   3.758   2.204
22066W        W81327  43.480  34.990   1.915
22067W        W81328  29.964   8.369   1.382
22068W        W81329  34.048  33.994  11.560
22069W        W81330  31.939  14.812   0.874
22070W        W81331   9.775   5.224  10.081
22071W        W81332  41.829  37.084  14.942
22072W        W81333  16.758  27.662   2.804
22073W        W81334  29.546  37.492   4.175
22074W        W81335  29.007  12.281   3.685
22075W        W81336  11.683   6.724  11.025
22076W        W81337  20.550  34.895  13.975
22077W        W81338  17.073  43.999  10.901
22078W        W81339  10.217  44.876  12.864
22079W        W81340  38.902  30.043   3.231
22080W        W81341  30.109  42.913   4.306
22081W        W81342  29.598  25.497   1.756
22082W        W81343  29.994  30.010  11.388
22083W        W81344   7.865  24.196   0.262
22084W        W81345  28.011  36.525  11.427
22085W        W81346  32.514  43.488   4.180
22086W        W81347   5.693  14.159   1.403
22087W        W81348  18.610  25.475  10.451
22088W        W81349  34.581  33.913  14.926
22089W        W81350  33.905   7.848  10.011
22090W        W81351  23.668  36.909  12.090
22091W        W81352   3.728  32.526   2.319
22092W        W81353  17.093  35.599   1.338
22093W        W81354  26.129  14.334   3.654
22094W        W81355   4.427  37.926   4.152
22095W        W81356  37.470   6.855   9.677
22096W        W81357  44.384  30.466   2.879
22097W        W81358  13.741  42.435   1.402
22098W        W81359   5.689  19.118  14.298
22099W        W81360  26.170  32.408  14.495
22100W        W81361  32.083  17.277  13.921
22101W        W81362  36.944  12.660   1.214
22102W        W81363   6.293  11.726   5.303
22103W        W81364  29.473  12.623   2.336
22104W        W81365  26.643  18.163  13.045
22105W        W81366  32.952  12.177   1.775
22106W        W81367  28.653  16.075   4.697
22107W        W81368  16.075  15.299   2.827
22108W        W81369   8.790  36.904   3.168
22109W        W81370  40.420  17.247   0.404
22110W        W81371  36.038  44.491  10.918
22111W        W81372  43.998  28.459  14.409
22112W        W81373  41.024  20.066   9.976
22113W        W81374  24.704  25.149   0.404
22114W        W81375  38.415  34.379   2.313
22115W        W81376  12.796  11.778   0.841
22116W        W81377  21.711  11.147   3.724
22117W        W81378  31.528  43.856   1.394
22118W        W81379  31.566  39.342  11.048
22119W        W81380  23.992  40.856  10.897
22120W        W81381   4.769   7.193   3.203
22121W        W81382  27.646  39.921  13.409
22122W        W81383  23.643  37.580   3.341
22123W        W81384  24.011  37.392   1.295
22124W        W81385  42.953  21.045   1.336
22125W        W81386  15.784   9.771   2.726
22126W        W81387   2.776  28.108   1.898
22127W        W81388  34.944  26.128  12.022
22128W        W81389  18.119  16.210   2.317
22129W        W81390  17.253  23.522   4.280
22130W        W81391   2.317  13.621   1.832
22131W        W81392  20.650  42.809   0.952
22132W        W81393  37.018  41.352   2.365
22133W        W81394  30.515  26.078   3.770
22134W        W81395  25.516  40.373  13.010
22135W        W81396  20.096   1.909   4.773
22136W        W81397  13.244  13.302  13.505
22137W        W81398   6.224  44.903  10.450
22138W        W81399  15.773   7.304   3.346
22139W        W81400   8.221  29.488  11.468
22140W        W81401  37.475   5.793   1.808
22141W        W81402  32.063  42.314   1.369
22142W        W81403  21.188  12.307   0.466
22143W        W81404  34.381   0.349  10.463
22144W        W81405  44.960  34.455   9.983
22145W        W81406  13.614  38.334   3.284
22146W        W81407  24.503  38.451  11.970
22147W        W81408  24.538  42.410   4.778
22148W        W81409  18.690   3.879   0.346
22149W        W81410  27.140  33.621  13.825
22150W        W81411  12.796  27.182  11.434
22151W        W81412  16.672  11.294   0.916
22152W        W81413  29.549   2.918  12.827
22153W        W81414   1.831  10.703   3.350
22154W        W81415  19.201  27.185  14.506
22155W        W81416  40.514  40.934  13.849
22156W        W81417  22.732  11.227   1.435
22157W        W81418  20.661  18.221   1.918
22158W        W81419  43.293  26.130  11.537
22159W        W81420  31.561   9.758  13.884
22160W        W81421  15.823  35.980  11.411
22161W        W81422  41.458  31.503  11.037
22162W        W81423  15.147   4.214  13.368
22163W        W81424  10.789  44.448  13.963
22164W        W81425  19.766  30.478   1.242
22165W        W81426  14.818  25.621  13.452
22166W        W81427  36.468  16.713   3.149
22167W        W81428  37.433   2.371   4.115
22168W        W81429  33.131  41.452   2.716
22169W        W81430  24.035   0.818   4.143
22170W        W81431  34.556  35.095  11.509
22171W        W81432  37.880   0.364   1.219
22172W        W81433  33.088  10.262  12.356
22173W        W81434  18.564  27.983  13.811
22174W        W81435   8.325  41.990   2.205
22175W        W81436  11.191  14.610  12.845
22176W        W81437  39.051  31.041  14.361
22177W        W81438   5.385  42.352  12.497
22178W        W81439  23.623   5.904  12.899
22179W        W81440   8.705   3.851  13.439
22180W        W81441  16.714  28.983   4.649
22181W        W81442   6.426  16.218   1.355
22182W        W81443  21.679  15.638  10.145
22183W        W81444  12.253  44.417   3.696
22184W        W81445  16.106  41.934   1.841
22185W        W81446   2.441  24.191  10.916
22186W        W81447  10.317   8.258   2.830
22187W        W81448  25.666  24.606  10.608
22188W        W81449  40.842  30.079   2.180
22189W        W81450   7.810  21.189  14.422
22190W        W81451  22.179  34.580   0.286
22191W        W81452  32.521  37.881  14.514
22192W        W81453  44.938  34.415   9.581
22193W        W81454  11.797  43.907   2.902
22194W        W81455   4.876  44.480  12.365
22195W        W81456  32.108  22.083  13.520
22196W        W81457  21.118  17.719  10.904
22197W        W81458  25.669  12.142   0.949
22198W        W81459  32.524  14.679  12.000
22199W        W81460   1.260  39.812   4.831
22200W        W81461   6.812  22.657  13.495
22201W        W81462  22.208  10.345  14.360
22202W        W81463  12.619   2.266   0.812
22203W        W81464  23.671   9.251  13.360
22204W        W81465  28.492  44.856  14.955
22205W        W81466  24.557  17.655   4.142
22206W        W81467  44.887  10.240   1.818
22207W        W81468  37.549   6.751   2.373
22208W        W81469  11.183   9.222   4.656
22209W        W81470  37.570  32.973   0.877
22210W        W81471  17.673  10.798   1.435
22211W        W81472  25.973  29.935   4.758
22212W        W81473  36.072  19.252  12.492
22213W        W81474  15.279  42.833   1.215
22214W        W81475  43.376  16.674   0.805
22215W        W81476  10.257  28.507  11.991
22216W        W81477  17.724   7.778  11.517
22217W        W81478  10.293  36.516  13.483
22218W        W81479   0.782  19.584  13.955
22219W        W81480   8.891  21.165  13.913
22220W        W81481   3.876  22.507  14.826
22221W        W81482  28.058   4.804  11.869
22222W        W81483   2.833  25.144  11.409
22223W        W81484  27.502  26.194   4.263
22224W        W81485  23.553  41.468  13.543
22225W        W81486   6.715  28.463   1.888
22226W        W81487   7.682  25.533   2.365
22227W        W81488  40.531  31.444  11.062
22228W        W81489  42.470  27.034   1.363
22229W        W81490  23.008  16.732   4.834
22230W        W81491  23.200  41.423   3.237
22231W        W81492  30.968   0.385   0.751
22232W        W81493  19.601  38.537   0.880
22233W        W81494  22.663  44.816  11.885
22234W        W81495   9.262  26.633   9.936
22235W        W81496  34.935  20.701   2.320
22236W        W81497  43.513  19.066  13.532
22237W        W81498  23.693  13.314   0.276
22238W        W81499  22.083   0.901   0.865
22239W        W81500  17.683  44.853  11.469
22240W        W81501   8.405  34.558  12.915
22241W        W81502  43.353  25.984   3.679
22242W        W81503  41.042  11.764   3.177
22243W        W81504  33.445  28.568  14.288
22244W        W81505  33.615   6.204   2.410
22245W        W81506   7.872   7.207  12.342
22246W        W81507  32.518  14.626  13.994
22247W        W81508   6.313  30.564  11.938
22248W        W81509  14.101  17.730   4.117
22249W        W81510  10.291  14.827   3.830
22250W        W81511  22.560   9.657  13.477
22251W        W81512  27.187  24.001   2.818
22252W        W81513   7.803  10.840   2.310
22253W        W81514  28.065  23.522   4.138
22254W        W81515  41.897  20.754  12.968
22255W        W81516  19.580  30.441  12.544
22256W        W81517  31.468  42.502  12.078
22257W        W81518  34.384   5.324  13.842
22258W        W81519  33.967  15.731   0.968
22259W        W81520   2.741  18.209   1.812
22260W        W81521  37.556  43.471   2.192
22261W        W81522  38.553  24.067   1.865
22262W        W81523  11.684   0.988  14.275
22263W        W81524  17.579  21.741  14.457
22264W        W81525   7.773  44.499  10.960
22265W        W81526  37.478  39.392  10.425
22266W        W81527  44.325  13.351  12.026
22267W        W81528  33.933  16.675   3.355
22268W        W81529  12.293  42.292   3.779
22269W        W81530  19.115   2.406  12.880
22270W        W81531  10.784   5.924   1.778
22271W        W81532  29.989   1.925   1.918
22272W        W81533  34.010   6.848   9.653
22273W        W81534  22.730  17.731   2.759
22274W        W81535  18.134  18.231  11.557
22275W        W81536  35.522  27.041  12.404
22276W        W81537  14.329  11.226   1.299
22277W        W81538   3.838  42.419  13.006
22278W        W81539  32.496  24.629   4.633
22279W        W81540  15.736  24.010   2.379
22280W        W81541  10.302   5.764   0.311
22281W        W81542  32.067  30.970  14.322
22282W        W81543  38.413  18.557  12.908
22283W        W81544  16.283  31.457   2.365
22284W        W81545   1.926  23.505  10.422
22285W        W81546  41.894  37.906  13.328
22286W        W81547  30.625  10.866  11.081
22287W        W81548  11.818  15.270  11.612
22288W        W81549  16.724   8.350  10.483
22289W        W81550  21.753   0.438  11.401
22290W        W81551   2.740  30.066  11.589
22291W        W81552   7.293  25.090  12.373
22292W        W81553  24.523  16.220  13.851
22293W        W81554  22.664  15.128  11.559
22294W        W81555  26.991  29.643  10.445
22295W        W81556  10.730  41.433  12.041
22296W        W81557   7.869  33.886   0.377
22297W        W81558  13.258  13.626   3.256
22298W        W81559  38.422  30.949   3.381
22299W        W81560  41.364  44.477  11.888
22300W        W81561  38.052   6.400  11.897
22301W        W81562  28.465  24.541  12.952
22302W        W81563  38.564  34.056  12.835
22303W        W81564   5.861  38.545   3.817
22304W        W81565  36.058  13.265  13.917
22305W        W81566  43.896  12.293  12.502
22306W        W81567   7.838  44.426  14.028
22307W        W81568  39.983   8.246   2.406
22308W        W81569   3.436  24.616   0.453
22309W        W81570  22.635   5.208   3.717
22310W        W81571  24.106  12.807   1.221
22311W        W81572   8.185  27.184   0.443
22312W        W81573   3.948  17.121   1.737
22313W        W81574  15.120  13.758   2.315
22314W        W81575  11.162   4.838  13.792
22315W        W81576  17.285  21.055   4.147
22316W        W81577  41.887  14.195   4.134
22317W        W81578   9.653   0.900  14.976
22318W        W81579   6.829  34.079   3.867
22319W        W81580  11.635  19.653  14.513
22320W        W81581  19.088   3.771  10.496
22321W        W81582  26.037  16.195  11.459
22322W        W81583  44.399  21.674  14.513
22323W        W81584  10.160  28.937   5.165
22324W        W81585   8.328  35.598   2.753
22325W        W81586  19.745  44.381  14.964
22326W        W81587  34.433   1.855  11.421
22327W        W81588  20.746  14.110  12.577
22328W        W81589  11.245   4.869   3.312
22329W        W81590  26.208  32.124   0.451
22330W        W81591  32.424  32.119   0.417
22331W        W81592  23.091  38.043  14.302
22332W        W81593  16.211  41.497  11.032
22333W        W81594  32.905  36.919  13.064
22334W        W81595  14.627  41.461  11.546
22335W        W81596  40.841  18.229  14.380
22336W        W81597  34.073   0.374   3.824
22337W        W81598  35.470  37.042   2.284
22338W        W81599  15.314  22.664  11.504
22339W        W81600  22.094  28.452  10.419
22340W        W81601  32.063  40.957  14.451
22341W        W81602   9.873  42.943  10.964
22342W        W81603   2.821  17.740  13.880
22343W        W81604  26.987   3.226  11.539
22344W        W81605  41.824  37.874   4.676
22345W        W81606  21.658  40.446  14.340
22346W        W81607   4.396   1.802   3.753
22347W        W81608  33.061  11.362   3.867
22348W        W81609  25.662  13.153  14.300
22349W        W81610   7.360  35.560  14.946
22350W        W81611   7.208  44.403   1.934
22351W        W81612  36.002   7.789  14.304
22352W        W81613  17.252  13.204   4.793
22353W        W81614   1.953  42.829  14.846
22354W        W81615  20.709  35.854   0.364
22355W        W81616  17.172  15.277   4.705
22356W        W81617  35.999  11.785   2.873
22357W        W81618  35.062   2.280  12.551
22358W        W81619  23.078   7.388   4.740
22359W        W81620  22.626  32.422  10.079
22360W        W81621   2.736  36.460  13.800
22361W        W81622  15.692  38.862   3.716
22362W        W81623   1.358  28.938   4.280
22363W        W81624  30.598   5.349   1.349
22364W        W81625  34.016   8.319  11.107
22365W        W81626  18.191  21.686  14.815
22366W        W81627  41.990  32.907  14.445
22367W        W81628  22.087  37.839  14.464
22368W        W81629  11.637  36.087  11.104
22369W        W81630  19.590  15.321  14.451
22370W        W81631   9.814  12.165   2.689
22371W        W81632  12.835  40.830   3.666
22372W        W81633  18.258  12.742   0.483
22373W        W81634   2.734  24.506   4.209
22374W        W81635  23.003  20.120   3.221
22375W        W81636  25.647   3.234   0.902
22376W        W81637  12.332  32.117  12.371
22377W        W81638  30.571  28.008   3.276
22378W        W81639   7.352  38.564  13.802
22379W        W81640  14.687   9.301  14.320
22380W        W81641  20.638  26.567   0.814
22381W        W81642  44.380   1.940   3.379
22382W        W81643  27.063  35.026   2.901
22383W        W81644  32.559   6.768   1.738
22384W        W81645  16.640  10.858   2.209
22385W        W81646  10.711  31.127   1.390
22386W        W81647  42.792  18.288   5.585
22387W        W81648  33.435  42.914  14.408
22388W        W81649  40.026  44.268  11.439
22389W        W81650  36.380  44.500  11.094
22390W        W81651  43.479  23.656  10.437
22391W        W81652  25.167   6.888   4.305
22392W        W81653  17.263   6.322   9.643
22393W        W81654  35.034  12.249   5.724
22394W        W81655   5.876  41.963  10.473
22395W        W81656  36.365  22.723  10.457
22396W        W81657  41.333  14.229  13.031
22397W        W81658  36.490  16.199  10.559
22398W        W81659  21.136  20.047   3.232
22399W        W81660  28.981   7.699   1.391
22400W        W81661  17.756   3.717   1.716
22401W        W81662   2.435  25.111  12.883
22402W        W81663  13.243   1.780   5.188
22403W        W81664   5.759   4.709   4.300
22404W        W81665  11.310  41.466  12.466
22405W        W81666  11.686  10.842  10.606
22406W        W81667  38.498  29.112  12.530
22407W        W81668  30.525  12.631  12.412
22408W        W81669  12.204  19.088   3.733
22409W        W81670   7.301  24.159  13.926
22410W        W81671  28.051   2.872   0.430
22411W        W81672   4.858   6.785   1.742
22412W        W81673  29.991  33.944  14.308
22413W        W81674  40.053  13.710  10.970
22414W        W81675  13.188  20.753   0.867
22415W        W81676  44.483  39.367   1.300
22416W        W81677  17.191  33.541   0.748
22417W        W81678  20.761  44.003   3.807
22418W        W81679  32.941  22.106  14.374
22419W        W81680  26.156  31.145   3.683
22420W        W81681  44.258  18.578  12.430
22421W        W81682  24.016  23.538  14.394
22422W        W81683   0.846  29.952  14.023
22423W        W81684   4.880  22.033  11.101
22424W        W81685  31.077  25.697   1.325
22425W        W81686   3.821  16.080   3.236
22426W        W81687  20.592  30.128   2.845
22427W        W81688  36.425  18.155   1.247
22428W        W81689  25.106  28.131  14.345
22429W        W81690  28.931  37.364   4.133
22430W        W81691  19.752   9.691  11.609
22431W        W81692  27.461  31.481  10.452
22432W        W81693  44.964  27.190   5.289
22433W        W81694   9.831  34.953   4.764
22434W        W81695  13.163  40.911  13.032
22435W        W81696  13.722  25.530   1.225
22436W        W81697   3.824  29.574   3.804
22437W        W81698  39.341   0.389  12.016
22438W        W81699  24.545   4.314   2.711
22439W        W81700   2.747   8.220   1.295
22440W        W81701   9.153   8.752  11.473
22441W        W81702  35.905  31.947   2.237
22442W        W81703  33.883  21.692  11.565
22443W        W81704  44.389  24.709  11.954
22444W        W81705  10.638  36.911   3.241
22445W        W81706  16.122  17.594  10.937
22446W        W81707  11.194  26.467   4.647
22447W        W81708  25.584  35.079  10.610
22448W        W81709   7.827  31.959  12.086
22449W        W81710   5.752  18.701  14.885
22450W        W81711  16.810  24.627   1.724
22451W        W81712  43.314  20.618   1.722
22452W        W81713  18.201  10.224  14.023
22453W        W81714  38.938   7.733   5.241
22454W        W81715  34.454  16.104  12.512
22455W        W81716  13.832  29.609   0.920
22456W        W81717   9.674   7.857   0.895
22457W        W81718  22.999  29.964  10.926
22458W        W81719   3.314  37.352  10.138
22459W        W81720  30.460   4.449  10.494
22460W        W81721  39.902  42.958  11.878
22461W        W81722  30.996   8.822   3.283
22462W        W81723  33.903   5.888  11.406
22463W        W81724  37.560  44.789   3.387
22464W        W81725  16.740  43.981   1.739
22465W        W81726  32.428  17.155  10.101
22466W        W81727  24.192  37.494  14.303
22467W        W81728  32.122  20.097   4.695
22468W        W81729  13.691  30.469   3.324
22469W        W81730   7.184  38.024  11.052
22470W        W81731  41.014   6.343   3.836
22471W        W81732  43.822  16.312  13.466
22472W        W81733  33.098   2.767  12.480
22473W        W81734  30.470  20.089   4.338
22474W        W81735   0.381  19.604  11.440
22475W        W81736  22.068  29.079  11.953
22476W        W81737  26.024  37.071  12.504
22477W        W81738  42.440  31.508   2.286
22478W        W81739  15.602  39.359   2.279
22479W        W81740  13.295  39.435  12.857
22480W        W81741   4.275  25.191   2.194
22481W        W81742   7.396  17.640  12.537
22482W        W81743  18.564  18.175   5.153
22483W        W81744  22.032  34.943  13.895
22484W        W81745  38.820   3.315  11.995
22485W        W81746  18.744  13.274  13.803
22486W        W81747  40.871  26.022   3.704
22487W        W81748  32.057  40.513   0.856
22488W        W81749  44.944  28.620   4.290
22489W        W81750  29.666  13.751  11.993
22490W        W81751  10.303  26.471  10.912
22491W        W81752  40.883  41.474   1.360
22492W        W81753  19.723  41.423   1.248
22493W        W81754  40.856  38.848  14.955
22494W        W81755  27.512  14.202  11.518
22495W        W81756  33.946  22.205  11.041
22496W        W81757   8.273  41.313   1.377
22497W        W81758  12.193   6.243  12.838
22498W        W81759  19.735  22.551   3.760
22499W        W81760  20.042   3.871  10.518
22500W        W81761  20.717  38.380   3.703
22501W        W81762  31.927  44.344  12.834
22502W        W81763   3.778   6.830  10.981
22503W        W81764  13.188  27.025  12.988
22504W        W81765  36.862  42.823  14.971
22505W        W81766  26.519  25.491  14.999
22506W        W81767  39.003  34.451  13.056
22507W        W81768  42.965  25.998   1.845
22508W        W81769  30.459  12.699   2.768
22509W        W81770  33.888  33.474  14.798
22510W        W81771  36.868  37.502   3.679
22511W        W81772  20.712  24.116  10.447
22512W        W81773   6.727  27.625  12.481
22513W        W81774  37.084  37.051   0.876
22514W        W81775  12.836  23.610   4.120
22515W        W81776  24.032   9.758  10.498
22516W        W81777  30.159  28.100   1.402
22517W        W81778   0.455  39.486  10.449
22518W        W81779   8.825  14.791   0.465
22519W        W81780  28.126  16.696   0.923
22520W        W81781  37.576  24.486   2.199
22521W        W81782   4.412  32.040   2.335
22522W        W81783  43.865   5.276   1.817
22523W        W81784  22.528  29.466   0.399
22524W        W81785  39.885  21.148   0.833
22525W        W81786   2.385  30.647   3.761
22526W        W81787  33.513  12.843   4.165
22527W        W81788  30.415  40.526   3.854
22528W        W81789  44.868  17.068  10.438
22529W        W81790   9.231  13.307   1.720
22530W        W81791  40.817   9.718   0.831
22531W        W81792  24.989  30.057   3.373
22532W        W81793   8.359  44.846  11.565
22533W        W81794   1.465  10.143  11.411
22534W        W81795  44.873  35.882   3.826
22535W        W81796  12.645  24.638   3.229
22536W        W81797  32.527  39.424  12.412
22537W        W81798  15.670   0.415  12.453
22538W        W81799  38.568  17.149  12.468
22539W        W81800  20.199  37.996   1.899
22540W        W81801  42.954  40.917  11.938
22541W        W81802  22.643  16.682  13.948
22542W        W81803   2.444  35.010   2.203
22543W        W81804  20.096   9.276  13.422
22544W        W81805  38.434  18.281   0.846
22545W        W81806  37.935  43.473  12.082
22546W        W81807  43.903  41.929  12.006
22547W        W81808  38.874   5.888  14.934
22548W        W81809  39.045   0.769  13.540
22549W        W81810  38.822  25.024   5.737
22550W        W81811  41.820  15.644   5.599
22551W        W81812  19.141  18.059  11.051
22552W        W81813  23.232   5.357   4.658
22553W        W81814   8.665  22.516  11.892
22554W        W81815  30.525  34.421  13.893
22555W        W81816  33.554   7.778  13.398
22556W        W81817  27.506  19.082   1.910
22557W        W81818  36.998  29.430  10.406
22558W        W81819  32.602  15.677   3.673
22559W        W81820  29.513  33.112  10.446
22560W        W81821  28.996  27.613  12.951
22561W        W81822  36.938   8.384   4.672
22562W        W81823  27.036  18.075   4.183
22563W        W81824  29.121   4.751   3.645
22564W        W81825  12.716  21.031  13.438
22565W        W81826  27.446  20.185   3.303
22566W        W81827  28.514  20.600  10.623
22567W        W81828  39.982   8.658  11.495
22568W        W81829  39.915  15.634   4.138
22569W        W81830  44.469  25.056   4.824
22570W        W81831  29.495  24.607   4.795
22571W        W81832  28.984  39.437  10.963
22572W        W81833  35.924  23.153   2.289
22573W        W81834  13.258   5.739   3.803
22574W        W81835  32.936  43.840  13.979
22575W        W81836  20.558  36.365  14.971
22576W        W81837  22.729  29.549  12.996
22577W        W81838  18.212   2.743   3.858
22578W        W81839   5.725  27.162  14.979
22579W        W81840  31.030  17.230   1.859
22580W        W81841  29.613   0.473   3.172
22581W        W81842  19.139  37.837   1.418
22582W        W81843  34.104  40.451  14.404
22583W        W81844  19.187  30.578   2.707
22584W        W81845  40.980  11.858  10.977
22585W        W81846  26.699  35.366   4.662
22586W        W81847  22.175  40.444   3.692
22587W        W81848  32.960  44.964   1.289
22588W        W81849  22.220   8.278   3.639
22589W        W81850   8.322   7.717   1.214
22590W        W81851  26.538   2.404   0.459
22591W        W81852  22.089  19.546  14.888
22592W        W81853  36.077  38.879   2.676
22593W        W81854   1.444  31.567   2.706
22594W        W81855  42.849  12.637  13.898
22595W        W81856  34.614  24.034  11.374
22596W        W81857  20.766   8.779   2.332
22597W        W81858  32.543  42.973  13.322
22598W        W81859   1.319  30.446  11.900
22599W        W81860  14.109  42.420  12.030
22600W        W81861  10.766  28.175   3.264
22601W        W81862  30.937  30.907   1.733
22602W        W81863  27.127  12.758  10.100
22603W        W81864  24.217   5.341   3.284
22604W        W81865  36.574  26.479   4.278
22605W        W81866  13.649   9.372   4.199
22606W        W81867  39.472  21.159  13.509
22607W        W81868  38.362  24.152   4.769
22608W        W81869  42.025   1.309   3.657
22609W        W81870  36.496  44.925  10.452
22610W        W81871   0.903  13.628  12.443
22611W        W81872  23.161  40.807  11.446
22612W        W81873   7.209  26.191   2.274
22613W        W81874   6.366  35.047   0.319
22614W        W81875  19.155  40.958  12.479
22615W        W81876  36.410  29.925  12.959
22616W        W81877  24.674  43.935  13.865
22617W        W81878  29.965  23.665   4.337
22618W        W81879   9.377  15.588  12.993
22619W        W81880  15.276  24.704   9.492
22620W        W81881  12.263   3.890  13.809
22621W        W81882  28.509  24.489  11.429
22622W        W81883  44.945  29.134   4.615
22623W        W81884  28.178  44.356   3.217
22624W        W81885   6.387  31.121   0.381
22625W        W81886  36.037  34.030   1.831
22626W        W81887  24.667  18.124   1.749
22627W        W81888  43.952  21.133  14.360
22628W        W81889  37.891  20.597  14.923
22629W        W81890  21.594  18.123   5.266
22630W        W81891  31.979  23.603  13.033
22631W        W81892   7.694  29.545  13.000
22632W        W81893  37.340  40.333   5.122
22633W        W81894  17.789   6.299  10.443
22634W        W81895  37.989  33.026  13.832
22635W        W81896  18.221  33.502  11.928
22636W        W81897  14.293  30.637   3.254
22637W        W81898  38.512   5.286   1.295
22638W        W81899  15.317  14.811  14.934
22639W        W81900  42.799  32.130   0.385
22640W        W81901  23.204   1.392   9.960
22641W        W81902  34.522  42.281  13.520
22642W        W81903  31.932   9.877  12.832
22643W        W81904  28.129  35.065  14.476
22644W        W81905   2.299  24.488   0.430
22645W        W81906   5.381  15.204   0.962
22646W        W81907  23.070   1.249  10.511
22647W        W81908   5.221  37.399  14.851
22648W        W81909  44.370  21.597   4.721
22649W        W81910  13.291  25.055   2.315
22650W        W81911  36.469  16.625   0.948
22651W        W81912  16.630  20.054  12.574
22652W        W81913  41.361  32.010  12.474
22653W        W81914  38.555  17.668  14.471
22654W        W81915   7.234  13.633   3.208
22655W        W81916   4.308   3.794  12.423
22656W        W81917  37.979  43.458   1.782
22657W        W81918  40.434  18.156  10.608
22658W        W81919  38.512  19.688   3.192
22659W        W81920  15.751  21.749  13.455
22660W        W81921  39.430  36.986  14.794
22661W        W81922  37.509  17.581   2.880
22662W        W81923  17.572  34.014  12.949
22663W        W81924  10.648  40.510   4.664
22664W        W81925   9.208  10.201  10.404
22665W        W81926  14.802  13.337   0.436
22666W        W81927  23.051  24.066   4.337
22667W        W81928   9.372   4.331  13.435
22668W        W81929  22.684  10.154   0.787
22669W        W81930  31.512   8.329  14.470
22670W        W81931  15.612  26.074   1.306
22671W        W81932  25.714  27.975   5.106
22672W        W81933   1.823  31.441   3.695
22673W        W81934  28.987  29.169   2.366
22674W        W81935  33.543  35.011   2.841
22675W        W81936  21.247  28.048   2.729
22676W        W81937   1.785  22.714  13.441
22677W        W81938  33.536  11.158   1.385
22678W        W81939  30.450  18.709   4.277
22679W        W81940  41.336   1.279  10.645
22680W        W81941  15.580  35.091   2.742
22681W        W81942  39.848  13.218   2.361
22682W        W81943  18.152  33.433   1.398
22683W        W81944  32.913   4.235   3.740
22684W        W81945  38.871  18.259  11.965
22685W        W81946  33.529  15.588   0.936
22686W        W81947  27.118  16.675   2.896
22687W        W81948  44.809  35.400   1.853
22688W        W81949  34.868  18.177   4.253
22689W        W81950  16.184  32.608   1.896
22690W        W81951  37.979  20.042  12.910
22691W        W81952  28.596  10.291   9.981
22692W        W81953  28.626  17.243   4.731
22693W        W81954   2.920  16.677   0.870
22694W        W81955  43.820   6.707   0.468
22695W        W81956  38.539  38.372  12.870
22696W        W81957   6.908   3.427   0.415
22697W        W81958  12.739  23.096   3.198
22698W        W81959  15.257  19.684   1.730
22699W        W81960  12.187  34.531   2.795
22700W        W81961  26.204  18.708  11.963
22701W        W81962  23.006  43.772  12.885
22702W        W81963  28.181  40.431   4.748
22703W        W81964   4.294  29.466   1.741
22704W        W81965  30.141  16.276   4.149
22705W        W81966  39.998  36.483  10.556
22706W        W81967  35.016  41.905   0.847
22707W        W81968   7.256   2.828   1.801
22708W        W81969  36.060  15.148  14.028
22709W        W81970  12.173  40.966   0.882
22710W        W81971   3.921  10.199   2.755
22711W        W81972  41.962  38.497  11.382
22712W        W81973   5.835  19.734  13.924
22713W        W81974  34.516  26.464  11.076
22714W        W81975  12.170  10.740   3.808
22715W        W81976  31.571   3.447  13.948
22716W        W81977  29.466  30.652  13.942
22717W        W81978  10.738  26.993  12.971
22718W        W81979  10.736  39.489   2.692
22719W        W81980   3.339   1.903  13.831
22720W        W81981  24.586   6.735   4.727
22721W        W81982  41.038  29.142   1.772
22722W        W81983  33.426  17.141   3.313
22723W        W81984  31.936  20.532  14.943
22724W        W81985  36.494  31.932   3.867
22725W        W81986   1.968   3.755   2.380
22726W        W81987  33.558   2.440   4.756
22727W        W81988  13.746  33.616   0.859
22728W        W81989  21.225   9.233   4.784
22729W        W81990  36.094   8.359   1.210
22730W        W81991  39.898  20.522   1.242
22731W        W81992  26.983  25.052   3.805
22732W        W81993  19.650  30.006  11.912
22733W        W81994  26.491  28.658   4.333
22734W        W81995  34.601  38.328  14.022
22735W        W81996  10.327  40.815  14.450
22736W        W81997   6.854  14.229   3.194
22737W        W81998  43.310  40.399   1.395
22738W        W81999  33.608  24.651  14.357
22739W        W82000  29.002  38.433   4.621
22740W        W82001  26.961   7.779  11.562
22741W        W82002   4.255  10.870  11.124
22742W        W82003  14.105   1.754   0.785
22743W        W82004  13.612  40.382   4.207
22744W        W82005   6.757  31.432   2.837
22745W        W82006  26.072  39.845  11.456
22746W        W82007  39.935  29.951  12.880
22747W        W82008  16.202  32.944   1.780
22748W        W82009   4.362  42.879   0.447
22749W        W82010   6.355   6.384  14.939
22750W        W82011  33.574  25.467  12.388
22751W        W82012  38.472  39.860   2.815
22752W        W82013   9.775  15.695  13.997
22753W        W82014  22.731   2.434   2.407
22754W        W82015   5.373  21.142   3.675
22755W        W82016   0.250  35.521  11.973
22756W        W82017   1.248  18.732   1.245
22757W        W82018   7.358  27.607   4.176
22758W        W82019  22.607  36.536   2.739
22759W        W82020  33.575   8.356  14.326
22760W        W82021  41.964   4.297   2.409
22761W        W82022   9.731   2.233   0.386
22762W        W82023  28.531  28.072   0.826
22763W        W82024  32.027   8.381   3.748
22764W        W82025  32.486  34.105   0.730
22765W        W82026  36.446   6.196   4.795
22766W        W82027   3.440  37.511  11.446
22767W        W82028   1.375   0.862   2.798
22768W        W82029  32.949  10.323  11.860
22769W        W82030  39.331  18.124  13.853
22770W        W82031  18.545  23.627   3.637
22771W        W82032  22.048  28.562   1.274
22772W        W82033  43.433  10.183   0.369
22773W        W82034  41.333  19.277  12.918
22774W        W82035  42.958  37.500   2.266
22775W        W82036  35.035   0.963  10.979
22776W        W82037  24.205  23.240  13.980
22777W        W82038   5.428  33.899  12.077
22778W        W82039  28.499  29.626  13.967
22779W        W82040   2.255  36.512   0.249
22780W        W82041  21.173  29.458  12.875
22781W        W82042  13.712   1.416  12.976
22782W        W82043  32.525   4.764  10.932
22783W        W82044  26.053  40.047  12.972
22784W        W82045  22.710  19.744   3.224
22785W        W82046  42.435  43.295   4.823
22786W        W82047  21.150  28.066   4.167
22787W        W82048  44.777  32.463  14.979
22788W        W82049  10.635  25.476  12.371
22789W        W82050  22.600  35.882  12.898
22790W        W82051  14.240  26.992  11.489
22791W        W82052  38.855  14.146   2.772
22792W        W82053  22.238  41.401   0.483
22793W        W82054  23.615  29.958  13.930
22794W        W82055  22.614  37.982  13.504
22795W        W82056  15.705  39.424  10.618
22796W        W82057  16.270  10.808   1.387
22797W        W82058  23.583  17.789   1.755
22798W        W82059  19.661  24.170  11.566
22799W        W82060  18.664  11.694   2.247
22800W        W82061  34.447   8.899   0.325
22801W        W82062  10.633   5.260  10.548
22802W        W82063  10.225  12.327   3.783
22803W        W82064  40.951  15.140  13.412
22804W        W82065  29.658  34.917   0.739
22805W        W82066  44.389  27.585   3.844
22806W        W82067  18.565   2.802   1.710
22807W        W82068  27.954  38.077   4.622
22808W        W82069  20.657  27.127  11.550
22809W        W82070  42.880  30.013  12.907
22810W        W82071  19.217   5.276   9.450
22811W        W82072  24.121  28.059  14.367
22812W        W82073  18.065   5.824   0.288
22813W        W82074   7.891   3.784   4.203
22814W        W82075  12.350   1.382   4.668
22815W        W82076   4.312  39.522  11.475
22816W        W82077   1.959  41.520  13.509
22817W        W82078   9.257   5.221  11.576
22818W        W82079  23.996  18.067   0.741
22819W        W82080   5.404  32.396  12.834
22820W        W82081  22.022  26.137   3.373
22821W        W82082   1.316  36.005   4.163
22822W        W82083   7.836  43.295  14.977
22823W        W82084  44.914   5.700   0.933
22824W        W82085  31.910  15.619  10.109
22825W        W82086  16.793  41.032   3.258
22826W        W82087  38.940   5.708  12.007
22827W        W82088  23.675  31.594  14.948
22828W        W82089   4.786  17.226  14.475
22829W        W82090  20.141  22.205   2.236
22830W        W82091   8.163   6.362   2.352
22831W        W82092  21.596  10.735  13.393
22832W        W82093   2.272  40.303  10.517
22833W        W82094   3.404  28.070  12.523
22834W        W82095  17.598   0.860  11.442
22835W        W82096  35.992  42.877  12.572
22836W        W82097   6.283  34.030  13.951
22837W        W82098   8.686   7.792  13.925
22838W        W82099  39.470  11.702  12.943
22839W        W82100   0.480   1.471   4.166
22840W        W82101   2.232   5.333  10.905
22841W        W82102  10.822  17.063   4.767
22842W        W82103  24.068   8.727  10.598
22843W        W82104  32.512  20.706   3.822
22844W        W82105  13.203  35.992   3.647
22845W        W82106  15.700  18.758   1.885
22846W        W82107   9.819   8.188   4.215
22847W        W82108  39.369  11.691   4.630
22848W        W82109   5.422  35.572   1.377
22849W        W82110  10.692   2.330  12.952
22850W        W82111  13.299  22.736  13.831
22851W        W82112  27.126  24.543  10.949
22852W        W82113  13.324  10.278   4.658
22853W        W82114  11.731  20.592   2.724
22854W        W82115  40.842  43.496  10.952
22855W        W82116  22.610  10.785  11.940
22856W        W82117   3.234  40.417   0.387
22857W        W82118  18.096  38.972   4.773
22858W        W82119  10.268  17.069   3.180
22859W        W82120  17.624  22.035  14.499
22860W        W82121   2.392  41.832  12.931
22861W        W82122   6.317  26.969  13.329
22862W        W82123  16.273  17.797   2.898
22863W        W82124   3.793  11.727  12.534
22864W        W82125   0.280  20.127   4.116
22865W        W82126  34.084   3.732   2.184
22866W        W82127  12.254  11.751   1.926
22867W        W82128   5.333  23.594   0.869
22868W        W82129  29.620  24.134  14.944
22869W        W82130   6.316  28.621  13.503
22870W        W82131  24.009   7.297   2.776
22871W        W82132  11.795  38.385   4.786
22872W        W82133  23.021  22.028  13.855
22873W        W82134  30.018  42.293  14.939
22874W        W82135  24.192  16.148  13.335
22875W        W82136  31.447  19.653  11.408
22876W        W82137  29.486  21.053  11.077
22877W        W82138  16.173  39.845  13.951
22878W        W82139   8.232  23.151   0.801
22879W        W82140   9.392  25.607   3.295
22880W        W82141  26.456  33.901  10.635
22881W        W82142  19.115  25.207  10.476
22882W        W82143  16.685  31.960  11.410
22883W        W82144   5.885  35.097   4.837
22884W        W82145   8.392   6.798  12.366
22885W        W82146   1.744   4.906   1.430
22886W        W82147   4.379  44.816  11.428
22887W        W82148  38.999   5.696   2.696
22888W        W82149   3.223  44.503   3.768
22889W        W82150  10.222  21.021   4.793
22890W        W82151   6.315   2.431   3.374
22891W        W82152  43.924  36.964  12.831
22892W        W82153   5.398  43.461  14.802
22893W        W82154  37.085  35.868  12.074
22894W        W82155  38.332  31.635  13.839
22895W        W82156  11.308   4.748  11.449
22896W        W82157   4.730  37.887   0.947
22897W        W82158   9.886  36.579   1.282
22898W        W82159  30.021  20.177  13.829
22899W        W82160  15.812  14.631   3.656
22900W        W82161  33.069  12.219  12.834
22901W        W82162  21.184  41.823  10.543
22902W        W82163  19.573  34.566  11.595
22903W        W82164   5.310  17.177   0.934
22904W        W82165  26.504  22.581   4.266
22905W        W82166   5.340   7.864   1.285
22906W        W82167  20.744   6.351  10.612
22907W        W82168   3.881  11.305  14.429
22908W        W82169   0.339  39.530   4.789
22909W        W82170  40.003   5.297   1.401
22910W        W82171  37.830   6.793   0.928
22911W        W82172   3.820  42.775   2.246
22912W        W82173  40.455  36.870  12.493
22913W        W82174  34.560   3.253  13.839
22914W        W82175   0.394   0.304   4.646
22915W        W82176  44.401   3.790  14.897
22916W        W82177  12.761   3.799   1.284
22917W        W82178  37.380  23.545  11.863
22918W        W82179  16.314   2.886   4.709
22919W        W82180   6.341  24.603   1.786
22920W        W82181  17.566   2.338   0.960
22921W        W82182  27.057   6.762  12.532
22922W        W82183  26.046  27.103   3.652
22923W        W82184  21.178  11.183  10.092
22924W        W82185  42.358   1.396  14.933
22925W        W82186  15.135  34.945   4.332
22926W        W82187  40.436   4.806   1.369
22927W        W82188  15.321  33.501  10.511
22928W        W82189  25.589   8.728  12.510
22929W        W82190   7.238   2.316  14.900
22930W        W82191  18.170  40.963   2.748
22931W        W82192  36.042   9.287  14.327
22932W        W82193   9.820  14.834   0.391
22933W        W82194  31.555  29.132  10.637
22934W        W82195   5.226  10.365  12.844
22935W        W82196  12.658  10.240  12.090
22936W        W82197  20.144  37.011   4.758
22937W        W82198  11.188  42.364  11.941
22938W        W82199  26.083  39.855   3.361
22939W        W82200   8.741  16.752   2.287
22940W        W82201  14.139  40.998   4.730
22941W        W82202   5.244  36.861   0.399
22942W        W82203  26.600  12.349  12.974
22943W        W82204   6.219   1.865  10.101
22944W        W82205  12.705  30.058   3.780
22945W        W82206  36.369   9.673   0.245
22946W        W82207  33.516  32.939   4.818
22947W        W82208   1.460  32.487  12.981
22948W        W82209   5.813  38.946   2.742
22949W        W82210   8.247  37.941  12.346
22950W        W82211  31.457  34.970   4.601
22951W        W82212  44.401   0.873   2.345
22952W        W82213  34.586  10.718   2.743
22953W        W82214   8.390  32.537   1.443
22954W        W82215  25.470   5.383   0.960
22955W        W82216   8.763  10.865   2.391
22956W        W82217  18.174  34.569   2.800
22957W        W82218  42.032  33.983   5.163
22958W        W82219   3.893  18.763  13.476
22959W        W82220  22.020  29.475  11.089
22960W        W82221  28.442  25.999   4.240
22961W        W82222  41.336  13.276  11.124
22962W        W82223  29.485  35.909  11.906
22963W        W82224  14.290  36.957  14.818
22964W        W82225  22.501  38.051  14.771
22965W        W82226  36.873  36.552  11.931
22966W        W82227   2.246  31.451  13.030
22967W        W82228  37.517  39.358   2.343
22968W        W82229   9.392  14.297  12.067
22969W        W82230  29.121  25.624  10.539
22970W        W82231  21.253  34.899  12.470
22971W        W82232  12.320  31.456  13.443
22972W        W82233   1.349  16.617  11.021
22973W        W82234   0.856   8.252  13.000
22974W        W82235  34.565   3.387   3.177
22975W        W82236  10.256  14.269  12.469
22976W        W82237  40.946   2.241  13.064
22977W        W82238  11.631  29.076  14.836
22978W        W82239  22.537   9.643   2.195
22979W        W82240  28.596   2.917   0.796
22980W        W82241  15.300  16.628   3.272
22981W        W82242  11.855   2.901   1.830
22982W        W82243   9.676   6.382  11.991
22983W        W82244   2.811  38.006   4.768
22984W        W82245  38.890  15.219   2.316
22985W        W82246   5.840  11.182  13.360
22986W        W82247  11.328  10.704  13.525
22987W        W82248   0.985  35.090  14.899
22988W        W82249  42.967  26.100  10.042
22989W        W82250   1.848  11.786   3.853
22990W        W82251  22.545   5.786   4.163
22991W        W82252  34.916   4.937  13.028
22992W        W82253   7.740  24.128   2.810
22993W        W82254   3.365  11.708   2.903
22994W        W82255  29.048  41.818   3.151
22995W        W82256  12.231   9.311  12.354
22996W        W82257  37.510   3.792  12.502
22997W        W82258  14.616  33.896  13.378
22998W        W82259  18.684   9.867  13.995
22999W        W82260  33.003  41.817   2.888
23000W        W82261  39.826  16.210   9.663
23001W        W82262  39.548  13.670  11.569
23002W        W82263  38.008  37.947   0.869
23003W        W82264  12.622  44.923   1.396
23004W        W82265   4.251   3.244  11.963
23005W        W82266  35.913  41.905   3.704
23006W        W82267  29.089  23.997   0.864
23007W        W82268  10.714  20.038  13.033
23008W        W82269  22.520  20.563  10.903
23009W        W82270  35.552  11.287  13.996
23010W        W82271  40.848  29.931   3.868
23011W        W82272  33.057  12.680  14.776
23012W        W82273  31.422  34.546  11.381
23013W        W82274  26.622  16.711  14.987
23014W        W82275  24.493  42.349   3.818
23015W        W82276  27.975  17.211   5.134
23016W        W82277  18.099  34.998   3.711
23017W        W82278  24.128  26.555   1.871
23018W        W82279  10.758  22.148  10.607
23019W        W82280  37.365  24.505   1.903
23020W        W82281  20.552  20.759  14.318
23021W        W82282  19.720  43.978  12.539
23022W        W82283   6.257  37.035   2.298
23023W        W82284  26.596  40.863   1.267
23024W        W82285   6.694  32.942  10.484
23025W        W82286  31.952  27.988   4.693
23026W        W82287   6.914  20.692   1.398
23027W        W82288  14.169  40.385   0.848
23028W        W82289  13.650  20.031   1.854
23029W        W82290  33.128  36.889  10.970
23030W        W82291  24.169  24.708   0.274
23031W        W82292  22.232  41.347  13.524
23032W        W82293  13.822  29.101   1.862
23033W        W82294  20.560  37.519   3.817
23034W        W82295   2.430  38.456   0.913
23035W        W82296  21.224   2.372   1.919
23036W        W82297  17.246  43.853   1.429
23037W        W82298  33.570  38.328  14.405
23038W        W82299  24.543  15.740  13.384
23039W        W82300   1.922   5.411   4.271
23040W        W82301  15.193  17.770  10.591
23041W        W82302   9.305   0.927   4.695
23042W        W82303  21.727  33.071  10.408
23043W        W82304  23.669  36.393  12.419
23044W        W82305  41.958  18.571  12.019
23045W        W82306  31.541  36.510  11.124
23046W        W82307  17.738  43.483  12.940
23047W        W82308  25.116  19.537   2.709
23048W        W82309  35.392   7.178  11.052
23049W        W82310  38.871   2.365   4.131
23050W        W82311  29.525  16.661   4.176
23051W        W82312  19.562  24.118   0.851
23052W        W82313  28.170   6.229  11.545
23053W        W82314  18.204  26.194  14.313
23054W        W82315  28.436  38.070   3.827
23055W        W82316   8.780  13.190  11.386
23056W        W82317  28.020   9.384   3.643
23057W        W82318  40.530  28.603  13.494
23058W        W82319   4.701   1.270   4.192
23059W        W82320  15.668  38.396  10.565
23060W        W82321   5.240  13.725   1.371
23061W        W82322   7.361   2.762   1.218
23062W        W82323  27.018  25.011  11.899
23063W        W82324  19.639  40.362   0.807
23064W        W82325  22.729  20.631   3.735
23065W        W82326  41.931   1.922   3.643
23066W        W82327  36.079  18.745  11.374
23067W        W82328  33.040  22.576   0.727
23068W        W82329  19.631  28.539   1.329
23069W        W82330  22.550  43.439   4.153
23070W        W82331   4.704  42.929  14.926
23071W        W82332   2.809  21.050   0.935
23072W        W82333  30.043  10.159   2.259
23073W        W82334  10.663  24.132  14.893
23074W        W82335  20.525  41.953  12.857
23075W        W82336   6.706  14.798  13.433
23076W        W82337  43.879  34.981  10.087
23077W        W82338  20.204  15.118  11.127
23078W        W82339   5.287  40.844  11.921
23079W        W82340   2.394  12.764   5.218
23080W        W82341  27.554  19.193  10.519
23081W        W82342  33.513  28.657   2.758
23082W        W82343  37.842  32.523   4.280
23083W        W82344   3.272  27.464   2.274
23084W        W82345  27.006  44.315  12.836
23085W        W82346  12.211  17.203   4.799
23086W        W82347  44.011  38.481  14.906
23087W        W82348  16.250  27.976   0.755
23088W        W82349  34.003  40.514   2.719
23089W        W82350  25.048  21.208   4.648
23090W        W82351  20.631   5.279  12.043
23091W        W82352   9.353  34.047  14.445
23092W        W82353   0.928  32.127   1.425
23093W        W82354  35.944  32.105   2.766
23094W        W82355  26.197  13.686  12.341
23095W        W82356  30.645  11.256   0.411
23096W        W82357  42.364   0.824   4.125
23097W        W82358   4.431  28.157   3.725
23098W        W82359  34.894  24.669  12.857
23099W        W82360  44.887  21.683  14.891
23100W        W82361  43.271  44.361   4.729
23101W        W82362  25.675  39.836  11.884
23102W        W82363  34.543  39.375   4.650
23103W        W82364   2.286  17.093   4.722
23104W        W82365  13.287  29.640  12.020
23105W        W82366   7.798  23.562  14.494
23106W        W82367  25.988  28.988  13.795
23107W        W82368  22.528  26.087   3.286
23108W        W82369  38.864  41.971   3.164
23109W        W82370  44.983  41.017  11.866
23110W        W82371  35.518  33.958  13.062
23111W        W82372  27.463  43.428   2.830
23112W        W82373  19.275  36.461   2.770
23113W        W82374  41.892  32.052   0.809
23114W        W82375  12.248   7.820   1.709
23115W        W82376  30.106  16.271  11.456
23116W        W82377  12.136  14.283   3.253
23117W        W82378  44.971  10.683  12.523
23118W        W82379  26.694  22.046   3.777
23119W        W82380  26.976  43.282  13.058
23120W        W82381   9.877  14.330  11.603
23121W        W82382  33.578  30.112   0.887
23122W        W82383  42.323  14.786  14.421
23123W        W82384  43.017  31.149   2.888
23124W        W82385  29.664  20.249   2.832
23125W        W82386  20.630  22.051  13.365
23126W        W82387  32.029  14.292  12.002
23127W        W82388  35.391  28.604   3.332
23128W        W82389  21.259   7.213   2.345
23129W        W82390  35.436  34.940   2.369
23130W        W82391  29.927  11.291  10.460
23131W        W82392  29.531  24.141   0.446
23132W        W82393  20.538  44.338  10.096
23133W        W82394  27.486   0.318  10.465
23134W        W82395  21.031   9.343  14.396
23135W        W82396  30.654  30.942  13.338
23136W        W82397   2.269  22.510   4.838
23137W        W82398  23.700  36.093   2.755
23138W        W82399  18.659  32.024   2.811
23139W        W82400   4.434  26.060   4.686
23140W        W82401   5.274  22.672   0.858
23141W        W82402  27.978  38.928   0.283
23142W        W82403  42.481  38.367  14.019
23143W        W82404   4.215   9.329   4.145
23144W        W82405  30.069  21.667  14.795
23145W        W82406  14.671  37.352  14.902
23146W        W82407  15.164  17.583   4.666
23147W        W82408   9.753   3.328   2.791
23148W        W82409  28.143   9.753  10.445
23149W        W82410  11.286  34.484   3.781
23150W        W82411  41.886  34.897   1.238
23151W        W82412  14.190  11.741   4.716
23152W        W82413  37.405  19.264  11.056
23153W        W82414  32.956   7.181   0.415
23154W        W82415  31.054  35.855  10.630
23155W        W82416   2.769  15.740   3.166
23156W        W82417  19.178  13.252   3.342
23157W        W82418  14.821  20.253  13.365
23158W        W82419  16.575   4.888   4.603
23159W        W82420  28.502  39.442   2.274
23160W        W82421  11.816  25.585  14.473
23161W        W82422  23.091  27.062  14.282
23162W        W82423   3.893  14.228  13.515
23163W        W82424  25.165  30.071   0.301
23164W        W82425   4.760  44.818   4.319
23165W        W82426  44.462  16.788  11.414
23166W        W82427  36.571  22.008  14.853
23167W        W82428  37.877  35.878   4.835
23168W        W82429  13.781  18.060  11.533
23169W        W82430  23.153  25.007  13.486
23170W        W82431   0.327  37.861   4.134
23171W        W82432  35.030  32.404  10.548
23172W        W82433  23.578  25.193  13.409
23173W        W82434   3.382  30.993  12.944
23174W        W82435  16.784   9.837   1.755
23175W        W82436  31.002  26.636  13.851
23176W        W82437  23.555  32.563  14.796
23177W        W82438  34.521  25.180  13.905
23178W        W82439  28.117   5.387   4.163
23179W        W82440  35.451  21.191  12.399
23180W        W82441  29.043  34.999   4.669
23181W        W82442  38.956   2.380  13.930
23182W        W82443  22.558  30.141  10.041
23183W        W82444  19.056  17.078   9.616
23184W        W82445  28.629  42.003  14.835
23185W        W82446  32.569  28.081   0.355
23186W        W82447  15.710  21.558  12.011
23187W        W82448  11.724  40.521  10.555
23188W        W82449  38.933  28.137  12.483
23189W        W82450   1.894  17.185  12.495
23190W        W82451  25.087   5.696  12.552
23191W        W82452  29.561   1.737  12.518
23192W        W82453  30.567  13.714   3.180
23193W        W82454  41.357  26.152   1.298
23194W        W82455   0.971   8.787  13.014
23195W        W82456  33.890   6.213   0.821
23196W        W82457  36.387  38.843   3.662
23197W        W82458  20.210  18.169   2.888
23198W        W82459  35.414  31.965  13.489
23199W        W82460  34.966  17.685  13.938
23200W        W82461  35.398  11.321   5.785
23201W        W82462   7.887  22.601   2.359
23202W        W82463  33.971   7.718   3.215
23203W        W82464  40.326  29.617  12.927
23204W        W82465  11.285  17.759  10.455
23205W        W82466   0.911  24.191  13.470
23206W        W82467  26.963  19.239   2.248
23207W        W82468  11.751  44.450   2.729
23208W        W82469   5.338   0.257   2.202
23209W        W82470  21.532  36.424  14.904
23210W        W82471  24.665  43.329   4.261
23211W        W82472   9.218   6.819  13.019
23212W        W82473  28.542  27.102  14.884
23213W        W82474  25.689  39.488   3.354
23214W        W82475   9.298  37.525  10.990
23215W        W82476  33.484  29.655  14.842
23216W        W82477  13.212  34.580   4.642
23217W        W82478   8.875   5.802   0.373
23218W        W82479  26.143  33.533  10.074
23219W        W82480  42.960  23.089  11.041
23220W        W82481  26.186   0.811  14.782
23221W        W82482  12.166  13.749   2.416
23222W        W82483  23.723   2.408  10.462
23223W        W82484   2.936  30.501   2.397
23224W        W82485  24.698   3.927   3.728
23225W        W82486  33.124  22.196  11.402
23226W        W82487  42.853  12.162   1.814
23227W        W82488  42.791  38.909   3.155
23228W        W82489   2.964  15.792   0.800
23229W        W82490  29.119  38.526   0.253
23230W        W82491  10.771  15.613  10.934
23231W        W82492   0.804  37.040  12.408
23232W        W82493  17.275  40.444   4.639
23233W        W82494  31.031  31.043  11.949
23234W        W82495  14.292  13.296  14.411
23235W        W82496  13.786  25.653   3.760
23236W        W82497  21.731  34.099   4.743
23237W        W82498  27.485  28.989  12.888
23238W        W82499   2.229   5.322  11.374
23239W        W82500  33.492  39.830  12.939
23240W        W82501  23.185   5.240   1.726
23241W        W82502   0.431  31.024  12.350
23242W        W82503  30.549  18.657   5.170
23243W        W82504  44.001  30.033  13.510
23244W        W82505   7.279   9.737   2.220
23245W        W82506  39.971   8.176   2.714
23246W        W82507   3.416  34.458   4.685
23247W        W82508  37.492   8.874   0.377
23248W        W82509  22.605   4.412  13.938
23249W        W82510  40.430  23.195   0.243
23250W        W82511  21.251  21.675  12.886
23251W        W82512   0.971  31.564   1.223
23252W        W82513  43.984  34.551  13.497
23253W        W82514   1.738   7.305   3.312
23254W        W82515  24.043  28.149   2.345
23255W        W82516  13.165  40.437   2.356
23256W        W82517  32.037   3.949  11.406
23257W        W82518  10.263  17.290   2.332
23258W        W82519   2.316   0.785   4.811
23259W        W82520   4.910   3.270   3.801
23260W        W82521  44.991  24.543   1.695
23261W        W82522  22.244  44.284   1.446
23262W        W82523   0.354   3.912   1.213
23263W        W82524  17.232  41.328  10.558
23264W        W82525  29.150  37.360   0.435
23265W        W82526  38.055  44.009   1.290
23266W        W82527  19.164  24.092  13.436
23267W        W82528  16.239   1.866  14.307
23268W        W82529  44.911  36.052  14.420
23269W        W82530  37.468  40.303  13.807
23270W        W82531   7.353  27.195   3.172
23271W        W82532  16.810  38.856  11.865
23272W        W82533  27.162  11.773   2.409
23273W        W82534  37.940  19.071  10.509
23274W        W82535   6.200  25.029   2.674
23275W        W82536  11.661   5.411   3.249
23276W        W82537  16.605  20.255   1.908
23277W        W82538  10.220  30.560  14.908
23278W        W82539  36.592  17.267  11.013
23279W        W82540  15.294  11.319  12.940
23280W        W82541  20.641  32.472  11.595
23281W        W82542  20.684   5.886   2.400
23282W        W82543  14.110  26.672  13.548
23283W        W82544  42.807  23.652  10.908
23284W        W82545  10.146  21.739  13.326
23285W        W82546  23.124   0.479   1.704
23286W        W82547  39.350  29.105   4.802
23287W        W82548  35.008  35.454  11.065
23288W        W82549  15.702  29.551  12.426
23289W        W82550  38.933  20.732  12.950
23290W        W82551   8.324  35.421   3.713
23291W        W82552  10.358  23.040   4.623
23292W        W82553  21.545  30.929  12.830
23293W        W82554   9.754  41.910   1.324
23294W        W82555  36.862  28.104   1.271
23295W        W82556  37.904  22.138   2.377
23296W        W82557   4.323  11.812   0.750
23297W        W82558  43.306  29.946  10.916
23298W        W82559  31.584  37.935   1.887
23299W        W82560  23.151  27.604  10.527
23300W        W82561   6.679  43.015   1.380
23301W        W82562  27.043   4.330   1.374
23302W        W82563  44.913  14.597  14.791
23303W        W82564  21.647  43.999  11.565
23304W        W82565  17.693   1.782  11.904
23305W        W82566  18.277  38.009  10.579
23306W        W82567  32.425  14.328  12.033
23307W        W82568  41.359  22.659   1.711
23308W        W82569  33.013  43.866   2.667
23309W        W82570   8.711  32.509  12.360
23310W        W82571  40.883  37.053   2.306
23311W        W82572  36.008  35.553   4.317
23312W        W82573  15.158  31.568  10.959
23313W        W82574  20.695  35.871  14.762
23314W        W82575   5.402  43.457   2.842
23315W        W82576  19.135   2.298  14.430
23316W        W82577   4.895  40.851  11.900
23317W        W82578   9.730  42.440   2.287
23318W        W82579  30.008  21.036   2.767
23319W        W82580  19.232   5.792  14.953
23320W        W82581  17.189   5.281   2.248
23321W        W82582  15.584  40.970  11.588
23322W        W82583  12.241  15.664   0.753
23323W        W82584  39.906  26.176  14.304
23324W        W82585  19.233  27.942   2.872
23325W        W82586  44.943  16.593  13.834
23326W        W82587  22.600  27.511  12.544
23327W        W82588   0.779  42.407   2.299
23328W        W82589  20.761  27.077  12.891
23329W        W82590  28.459  28.174  12.962
23330W        W82591  17.239  33.502   3.342
23331W        W82592  43.393  43.825  14.454
23332W        W82593  31.966  31.584   2.293
23333W        W82594  20.135   7.676  14.014
23334W        W82595  28.161  18.272  11.518
23335W        W82596  33.535  19.198  14.961
23336W        W82597  36.370  12.777   3.658
23337W        W82598  38.380  13.803  14.398
23338W        W82599  21.664   1.428  13.380
23339W        W82600  38.391   7.749   2.668
23340W        W82601  34.876  11.752  12.089
23341W        W82602  32.971  16.289  11.538
23342W        W82603  10.363  40.039  13.437
23343W        W82604  11.164   0.454  12.505
23344W        W82605  28.451  19.620   1.777
23345W        W82606  16.737  29.980  10.505
23346W        W82607  28.576  32.949   4.789
23347W        W82608   2.321   6.805  12.451
23348W        W82609  27.086  16.195   1.847
23349W        W82610   3.263  15.687   4.665
23350W        W82611  10.298  12.818   3.280
23351W        W82612  23.551  33.387  14.337
23352W        W82613  36.081  10.871  12.894
23353W        W82614   7.412  38.501  11.473
23354W        W82615  43.870  26.195  13.350
23355W        W82616  40.523   5.883   3.199
23356W        W82617  40.523   1.909   4.788
23357W        W82618  18.634  26.081  12.070
23358W        W82619  27.182  28.067  12.351
23359W        W82620  37.457   5.879  12.994
23360W        W82621  25.971   6.887   4.635
23361W        W82622  30.037   4.768  14.986
23362W        W82623  37.903   0.962  13.341
23363W        W82624  37.544  19.171   1.407
23364W        W82625  27.555  34.048   0.881
23365W        W82626   8.349  40.808  14.945
23366W        W82627   7.905  29.000  11.053
23367W        W82628  21.748  19.047  12.957
23368W        W82629  20.029  24.627  11.947
23369W        W82630  23.103  26.140   4.304
23370W        W82631  20.116   8.178   4.255
23371W        W82632  33.884  24.518  14.806
23372W        W82633  26.998  35.459  10.913
23373W        W82634  42.453   2.819   0.276
23374W        W82635   5.374  18.226   1.925
23375W        W82636  41.811   2.839  11.433
23376W        W82637  14.240  31.040   3.152
23377W        W82638   6.407  11.218   0.798
23378W        W82639  30.606  34.915   2.771
23379W        W82640  31.997  28.482  11.064
23380W        W82641  41.525  19.535  13.795
23381W        W82642  12.234  15.143   1.239
23382W        W82643  21.682  16.077  14.281
23383W        W82644  28.954  25.210  13.035
23384W        W82645   6.684  24.230   1.260
23385W        W82646  11.836  27.969   0.392
23386W        W82647  13.328  43.770  14.377
23387W        W82648  21.519  35.074   3.794
23388W        W82649   6.764  31.992   4.347
23389W        W82650   1.321  16.770   0.875
23390W        W82651  39.368  17.061   3.360
23391W        W82652  42.353  16.721  13.000
23392W        W82653  13.256  38.953  10.570
23393W        W82654  30.961  36.864  12.520
23394W        W82655  29.587  44.966   4.201
23395W        W82656   7.759  10.233   2.663
23396W        W82657   4.775  15.132  11.080
23397W        W82658  27.152  22.624  13.978
23398W        W82659  32.059  22.590  14.467
23399W        W82660  21.656  24.981   4.601
23400W        W82661   6.340  22.729  11.487
23401W        W82662  29.126  16.794  11.088
23402W        W82663  18.597  23.702   2.835
23403W        W82664  44.371  31.961  14.308
23404W        W82665   8.864   4.786  12.387
23405W        W82666  18.235   5.416  13.357
23406W        W82667   3.832  21.746  14.354
23407W        W82668  11.649  18.749   1.920
23408W        W82669  37.356  17.791   3.764
23409W        W82670   9.158   8.665   1.310
23410W        W82671  17.214  27.129  14.882
23411W        W82672  24.178  10.771  10.618
23412W        W82673  29.998   1.324  11.444
23413W        W82674   0.831  41.788   0.896
23414W        W82675  44.422  35.498   4.116
23415W        W82676   9.222   5.860  11.961
23416W        W82677  41.524  31.545   0.350
23417W        W82678  18.785  25.047  14.436
23418W        W82679  43.300   1.890   4.763
23419W        W82680  32.143  44.461   2.717
23420W        W82681   0.864  37.377   1.265
23421W        W82682  37.080  11.769   4.755
23422W        W82683   7.907  10.828  10.427
23423W        W82684  13.307  37.021   4.278
23424W        W82685  42.845  44.874   3.362
23425W        W82686  37.924  14.622  11.458
23426W        W82687  27.461   8.827   2.417
23427W        W82688  37.431   0.954   0.405
23428W        W82689  24.201   4.911   1.223
23429W        W82690   4.770  33.000  11.970
23430W        W82691  44.366  28.566   3.725
23431W        W82692  12.780  19.734   2.730
23432W        W82693  39.487   5.234  11.374
23433W        W82694  10.750  19.067   3.828
23434W        W82695  15.638  21.133   0.842
23435W        W82696   7.716  13.232  14.785
23436W        W82697  11.700  14.660  12.453
23437W        W82698  30.970  11.788  11.907
23438W        W82699  34.444   8.240   3.734
23439W        W82700   5.776   1.803   0.862
23440W        W82701  36.477  16.190   1.901
23441W        W82702  27.455  40.363  14.823
23442W        W82703  38.030   4.914  10.035
23443W        W82704  30.116  31.134  14.817
23444W        W82705   9.878   9.808  10.551
23445W        W82706  30.058  11.305   2.809
23446W        W82707  36.024  13.266   1.447
23447W        W82708  41.789  10.251  13.537
23448W        W82709  17.223  17.259   0.932
23449W        W82710  29.632  26.500   1.729
23450W        W82711  43.310  44.931  11.467
23451W        W82712  39.987  11.698   4.718
23452W        W82713  14.204   9.242  13.421
23453W        W82714   5.873   6.865   0.922
23454W        W82715  14.300  32.497  11.604
23455W        W82716  36.573  17.253   2.690
23456W        W82717  21.749  22.745   1.303
23457W        W82718  38.557   1.305  13.335
23458W        W82719  21.226  27.081   1.761
23459W        W82720  32.444  31.922   1.242
23460W        W82721  12.736   7.410   3.235
23461W        W82722   1.753  20.196  14.376
23462W        W82723  37.480  11.866   4.764
23463W        W82724  11.220  33.906   0.388
23464W        W82725  43.270  13.665  11.417
23465W        W82726  23.695  34.515   2.231
23466W        W82727  33.949  22.651   4.274
23467W        W82728  21.609  33.934   1.347
23468W        W82729   2.396  34.042   1.429
23469W        W82730   4.300  10.161  10.544
23470W        W82731  33.581  26.102   0.302
23471W        W82732  14.763  24.541   3.836
23472W        W82733   6.416  25.517  10.598
23473W        W82734   3.351   4.269   4.600
23474W        W82735  32.472  13.666   0.342
23475W        W82736  14.320   5.931  12.863
23476W        W82737  33.476  38.392   1.400
23477W        W82738  39.044  41.502   4.694
23478W        W82739  31.142  10.313  12.343
23479W        W82740  19.565  10.719   0.430
23480W        W82741  32.954  43.291  13.369
23481W        W82742  23.022  13.653  14.471
23482W        W82743   1.944  30.116   2.735
23483W        W82744  31.452  27.620  10.459
23484W        W82745  13.131  28.992  14.782
23485W        W82746  43.342  36.884   4.167
23486W        W82747  42.019  30.494  12.020
23487W        W82748   8.858  14.828  14.876
23488W        W82749  35.507  40.845   2.856
23489W        W82750   5.906  28.608   3.242
23490W        W82751  12.118  24.980   3.724
23491W        W82752  19.075  33.082   4.114
23492W        W82753  18.113  27.535  14.448
23493W        W82754   2.887  28.104  10.474
23494W        W82755  25.548  29.467   5.148
23495W        W82756  35.937  37.831  11.077
23496W        W82757  21.244  23.621  10.506
23497W        W82758  20.119  18.134   4.684
23498W        W82759   7.706  30.129  14.385
23499W        W82760   5.832  23.994  13.311
23500W        W82761  32.135  42.873   4.813
23501W        W82762   5.851  15.766  12.015
23502W        W82763  28.040  21.572  14.294
23503W        W82764  25.106  44.822   2.259
23504W        W82765  32.611  33.874   0.397
23505W        W82766   8.360  21.256   1.412
23506W        W82767  23.077  15.658  14.307
23507W        W82768  14.142  16.758   4.695
23508W        W82769  16.750  31.451   0.759
23509W        W82770  36.382  13.751  13.990
23510W        W82771  12.309  41.815  11.530
23511W        W82772  11.280  21.626   1.315
23512W        W82773  42.843   5.352   0.880
23513W        W82774  10.641  35.973   3.831
23514W        W82775  33.504   2.885  12.851
23515W        W82776   0.460  41.934   0.796
23516W        W82777   8.866  19.696   3.318
23517W        W82778   8.319  42.431  11.991
23518W        W82779  20.121  20.114  13.883
23519W        W82780  15.744  33.514  14.419
23520W        W82781  33.895   4.355   0.249
23521W        W82782  13.336  31.555  13.416
23522W        W82783  31.897  29.482   0.750
23523W        W82784  18.276  38.932  12.484
23524W        W82785  10.330  16.296  11.560
23525W        W82786   7.850   3.269  14.872
23526W        W82787  17.179  37.533  12.925
23527W        W82788  13.349  15.130   3.175
23528W        W82789  31.997  12.612  13.062
23529W        W82790  23.161  24.133  11.568
23530W        W82791  19.063  29.619   3.819
23531W        W82792  41.418  28.650   1.398
23532W        W82793  10.312  24.157   3.384
23533W        W82794  30.621  17.286  12.467
23534W        W82795  20.112   4.241   0.863
23535W        W82796  29.001  43.895  12.087
23536W        W82797  17.213   0.441  14.022
23537W        W82798  19.569  27.650   2.799
23538W        W82799  32.435  21.671  11.864
23539W        W82800  27.036  36.069  14.395
23540W        W82801  42.516  10.859  13.535
23541W        W82802   9.689   5.381   0.749
23542W        W82803  44.918  11.258   2.682
23543W        W82804  30.015  38.457   4.179
23544W        W82805  35.573  38.405   2.870
23545W        W82806   0.812  17.191  10.432
23546W        W82807  35.506  27.565   2.849
23547W        W82808  22.141  39.386   1.875
23548W        W82809  35.901  30.031  13.865
23549W        W82810  30.571  29.466   1.756
23550W        W82811  43.392   6.778   0.288
23551W        W82812  24.042  42.960   0.726
23552W        W82813  38.426  16.668  14.844
23553W        W82814  11.748   3.954  14.997
23554W        W82815   4.316  33.471   2.357
23555W        W82816  31.485  40.984   2.361
23556W        W82817   4.759   5.218   3.381
23557W        W82818  19.640  23.137   1.863
23558W        W82819   2.448  37.913  12.027
23559W        W82820  39.883  36.398   0.962
23560W        W82821   8.660  44.882  10.638
23561W        W82822  20.035  21.664  11.032
23562W        W82823  39.341  27.083  14.961
23563W        W82824  28.447  28.992  14.855
23564W        W82825  39.391  10.671   0.808
23565W        W82826  26.495  18.707   2.783
23566W        W82827  15.665  12.785  10.601
23567W        W82828  36.001  27.512   0.430
23568W        W82829  24.082  29.463   2.725
23569W        W82830  41.477  27.565   2.327
23570W        W82831   2.450  44.359  14.921
23571W        W82832  10.339  41.829  13.940
23572W        W82833  18.644  31.551  14.972
23573W        W82834   4.831  15.265  14.316
23574W        W82835  25.599  26.469   4.314
23575W        W82836   1.474   9.370  14.027
23576W        W82837  21.182   0.918  13.313
23577W        W82838  34.002  18.692  12.407
23578W        W82839  37.571  25.002   2.395
23579W        W82840  33.086  41.874  14.840
23580W        W82841  26.573  39.825   2.791
23581W        W82842  40.037  44.944   3.656
23582W        W82843   4.837  39.508  14.462
23583W        W82844  39.928  12.682  11.969
23584W        W82845  12.241  36.434  12.840
23585W        W82846  22.675  27.659  11.547
23586W        W82847  24.693   3.375   3.725
23587W        W82848  16.739  12.669  14.895
23588W        W82849   7.831  29.604   4.670
23589W        W82850  18.137  28.146  12.865
23590W        W82851   3.413  12.792   3.375
23591W        W82852  26.675  14.178  13.031
23592W        W82853   1.934  29.061  13.992
23593W        W82854  23.030   0.290  11.868
23594W        W82855   1.762  36.475  12.577
23595W        W82856  20.167  33.384   1.291
23596W        W82857  16.116  10.686  10.926
23597W        W82858  23.028  28.184  10.542
23598W        W82859  10.769  10.635  14.910
23599W        W82860  44.311  12.700   3.281
23600W        W82861  25.029   5.311  13.986
23601W        W82862  44.767  41.355   3.796
23602W        W82863  28.652  36.974  13.972
23603W        W82864  43.401  38.362   1.883
23604W        W82865  40.447  35.977   0.826
23605W        W82866  35.901  18.597   3.776
23606W        W82867   4.858  17.147  10.116
23607W        W82868  26.503  17.611   2.674
23608W        W82869  24.654  22.154   2.769
23609W        W82870  42.343  24.705   2.318
23610W        W82871   1.266   7.898  11.055
23611W        W82872  42.805  15.283  14.015
23612W        W82873  32.073  28.136  14.824
23613W        W82874  40.515  23.144  14.894
23614W        W82875  17.658  30.560   3.316
23615W        W82876   8.703  35.092   1.917
23616W        W82877  39.877   5.827   1.337
23617W        W82878  19.228  13.724   2.674
23618W        W82879  31.999  44.914  12.011
23619W        W82880  31.093  13.302  14.488
23620W        W82881  28.558  32.013  14.323
23621W        W82882  31.452  12.303  12.438
23622W        W82883   4.326   5.283  14.018
23623W        W82884  14.134  39.003  10.629
23624W        W82885  18.633  43.310  12.511
23625W        W82886   0.272  37.974   1.817
23626W        W82887  39.328   7.768   0.909
23627W        W82888  25.057   1.893  13.531
23628W        W82889  23.181  32.050  11.560
23629W        W82890  32.593   5.739  10.969
23630W        W82891  31.051  24.604   0.314
23631W        W82892   3.836  26.552  14.767
23632W        W82893   6.705  31.026  13.915
23633W        W82894   4.398  44.293   4.755
23634W        W82895   8.303  43.289   4.252
23635W        W82896  21.019  21.730   4.282
23636W        W82897  21.647  22.177   1.299
23637W        W82898  38.838   7.282   3.757
23638W        W82899  24.718  24.626  14.937
23639W        W82900   6.780  21.190   3.681
23640W        W82901  37.487  17.157   2.298
23641W        W82902  27.534  27.036  13.016
23642W        W82903  31.897  25.693  11.128
23643W        W82904  11.826  24.510  14.763
23644W        W82905  17.708  32.950  12.906
23645W        W82906  14.189  33.919  14.365
23646W        W82907  23.544   3.303  11.966
23647W        W82908  24.714   5.340  10.639
23648W        W82909   9.858   1.366  12.009
23649W        W82910   6.680  13.668  12.530
23650W        W82911  28.934   5.298  10.417
23651W        W82912  35.508  25.659   2.230
23652W        W82913  41.437   2.888  11.447
23653W        W82914   9.204   3.951   4.184
23654W        W82915  30.635  25.104   1.374
23655W        W82916  19.256   8.204  10.468
23656W        W82917  37.479  37.012   3.860
23657W        W82918  13.648  13.712   1.923
23658W        W82919  36.859  35.446  11.995
23659W        W82920   0.870   5.798  10.616
23660W        W82921   7.358  40.843  14.777
23661W        W82922  27.093  37.352   4.215
23662W        W82923  26.063  10.648  13.003
23663W        W82924  35.531   4.844  13.377
23664W        W82925  18.712  17.671  12.524
23665W        W82926  24.081  30.439   1.926
23666W        W82927  21.229  35.437   0.375
23667W        W82928  16.151  44.312   1.882
23668W        W82929  19.156  39.549   4.616
23669W        W82930   0.895   2.375   4.660
23670W        W82931  42.783  12.128  10.611
23671W        W82932  43.796  22.619   4.778
23672W        W82933  32.584  24.170   0.821
23673W        W82934   6.330   3.709  13.436
23674W        W82935  18.741   3.921   1.751
23675W        W82936  43.945  19.235  10.954
23676W        W82937   7.181  24.549   2.783
23677W        W82938  38.350   0.937   2.676
23678W        W82939  29.940  39.871  11.590
23679W        W82940  31.518  11.367   2.867
23680W        W82941   5.727   2.831  11.911
23681W        W82942  31.997  41.320  11.511
23682W        W82943  41.298  42.439  11.050
23683W        W82944  27.099   3.928   0.934
23684W        W82945  19.539   6.365   0.395
23685W        W82946  40.893  44.459   3.776
23686W        W82947  35.458   5.309  12.931
23687W        W82948   3.775  12.761   0.773
23688W        W82949  21.030  37.874   1.896
23689W        W82950   0.348   0.753  10.894
23690W        W82951  36.388  31.073   3.733
23691W        W82952  27.594  24.483  13.001
23692W        W82953  28.180  40.052  12.571
23693W        W82954  23.235   1.959   0.289
23694W        W82955  32.493  39.498   2.730
23695W        W82956  35.905  26.522  13.934
23696W        W82957  39.897  28.126  14.425
23697W        W82958  18.611   0.826   1.273
23698W        W82959  10.183  27.594   3.748
23699W        W82960  12.334  32.953  14.422
23700W        W82961  22.646  31.942  10.564
23701W        W82962  17.170  16.271   4.789
23702W        W82963   4.311  26.609   2.325
23703W        W82964  27.165   2.418  10.409
23704W        W82965   1.394  35.071   1.736
23705W        W82966  37.500  16.252   2.224
23706W        W82967  37.884  34.928   3.683
23707W        W82968  27.468  27.654  10.592
23708W        W82969  39.546  12.704   1.771
23709W        W82970   6.689  18.211   2.361
23710W        W82971  38.545  40.922   3.171
23711W        W82972  44.464  28.098   3.741
23712W        W82973   0.401  16.167   1.239
23713W        W82974  42.801   1.816  14.000
23714W        W82975   8.727  23.610  12.449
23715W        W82976  30.576  34.876  11.102
23716W        W82977  34.097  15.318  10.508
23717W        W82978  18.787  10.723   2.779
23718W        W82979  20.639  31.082   1.911
23719W        W82980  42.798  17.591  14.912
23720W        W82981  30.623   7.365  10.020
23721W        W82982  11.157  11.295  13.840
23722W        W82983  22.026   1.834  13.345
23723W        W82984  19.645  18.089  13.324
23724W        W82985  37.447  17.698   1.366
23725W        W82986  27.610  41.963   4.743
23726W        W82987  18.177  26.528  12.577
23727W        W82988   4.852  11.149  10.613
23728W        W82989  31.414  24.989  11.382
23729W        W82990   5.383  43.841   4.710
23730W        W82991  30.619   0.920  14.456
23731W        W82992  10.194  24.185   1.735
23732W        W82993  14.783  44.985  12.577
23733W        W82994   5.233  21.085  10.964
23734W        W82995  37.998  40.441   2.763
23735W        W82996  27.574  25.689  12.464
23736W        W82997  12.327  26.997  13.469
23737W        W82998   2.295  26.570   2.698
23738W        W82999   6.733   9.203   3.808
23739W        W83000  35.924  19.213   3.650
23740W        W83001  19.547   4.257  14.508
23741W        W83002  16.620  32.557  11.006
23742W        W83003  26.130   3.930   3.765
23743W        W83004  14.606  44.904  13.874
23744W        W83005  17.614  36.981  12.457
23745W        W83006  26.057  36.004  13.430
23746W        W83007   7.298  30.439  10.593
23747W        W83008  37.045   7.768   1.417
23748W        W83009  33.959   8.182   3.179
23749W        W83010  18.254  30.113  11.076
23750W        W83011  36.075  19.719   3.682
23751W        W83012   3.847  28.989   5.081
23752W        W83013   4.748  17.599  12.908
23753W        W83014   6.730   2.241  13.049
23754W        W83015  35.377  20.564  11.375
23755W        W83016   1.394  32.965   1.367
23756W        W83017  28.000  11.676  14.808
23757W        W83018   0.427  34.112   2.836
23758W        W83019  25.627  41.789   4.164
23759W        W83020   2.280   7.735  10.509
23760W        W83021  36.453  16.607   2.383
23761W        W83022   0.804  18.610   4.731
23762W        W83023   4.259  35.476   1.799
23763W        W83024  18.262  10.772  13.894
23764W        W83025  27.484  20.146  10.547
23765W        W83026  39.985   6.848   1.377
23766W        W83027  25.469   7.798   2.415
23767W        W83028  11.193  19.118   3.854
23768W        W83029  24.152  26.655  10.601
23769W        W83030  20.656  27.054  13.511
23770W        W83031  26.098  28.987  12.008
23771W        W83032  35.582  23.011   3.658
23772W        W83033  18.233   2.880  13.969
23773W        W83034  13.745  43.795  13.405
23774W        W83035  18.082   8.745  12.071
23775W        W83036  17.282   9.354   4.152
23776W        W83037  20.536  21.740   4.722
23777W        W83038  43.893  18.663  11.860
23778W        W83039   9.890  12.721   3.253
23779W        W83040   8.794  28.982  14.344
23780W        W83041   2.962  11.241   0.392
23781W        W83042  36.981  25.100   3.386
23782W        W83043  21.023   7.290  14.815
23783W        W83044  36.888  11.811  11.403
23784W        W83045  18.784  19.576  12.361
23785W        W83046  32.117   6.419   3.740
23786W        W83047  39.484  16.783  10.553
23787W        W83048  22.716   1.928  13.539
23788W        W83049   4.222  40.966  11.945
23789W        W83050   4.371  11.732  14.344
23790W        W83051  11.224   6.359   3.847
23791W        W83052  25.606  11.657   3.635
23792W        W83053  42.004  18.634   0.923
23793W        W83054  29.117  36.952   2.294
23794W        W83055  32.958  41.310   1.244
23795W        W83056  30.960   8.330   5.656
23796W        W83057  28.637  36.080   1.816
23797W        W83058  31.550  18.579   2.690
23798W        W83059  21.104   2.936   0.318
23799W        W83060   4.230  21.692  11.577
23800W        W83061   8.187  33.429   3.754
23801W        W83062   6.306  25.596  14.293
23802W        W83063  17.634  35.603   4.677
23803W        W83064  37.379  20.612  11.546
23804W        W83065  41.367  33.457   2.889
23805W        W83066   9.209  22.734   2.286
23806W        W83067  26.567  14.814  12.964
23807W        W83068  37.961  34.958   4.338
23808W        W83069  24.032   9.317   2.787
23809W        W83070  12.311  16.156  12.947
23810W        W83071  19.654  43.942   1.855
23811W        W83072  44.995  21.120  11.456
23812W        W83073  27.078  11.365  12.562
23813W        W83074  28.115  34.373  14.017
23814W        W83075  43.985  42.783  12.916
23815W        W83076  27.612  33.027  12.473
23816W        W83077  27.089   0.766   1.274
23817W        W83078  35.469  19.723  14.314
23818W        W83079  23.026   1.758  11.488
23819W        W83080  18.697  27.516   3.177
23820W        W83081  19.703  40.314  12.958
23821W        W83082  43.901  37.421  10.960
23822W        W83083  40.926   4.339   0.867
23823W        W83084   2.327  18.081  14.880
23824W        W83085  41.396  15.737  11.465
23825W        W83086  42.292  40.011   0.859
23826W        W83087  33.884  32.058   2.836
23827W        W83088  21.629  33.418  13.858
23828W        W83089  34.415  24.029   0.313
23829W        W83090   7.255  43.898   2.184
23830W        W83091  39.997  41.338  11.096
23831W        W83092  39.322  28.574  13.510
23832W        W83093  11.298  12.239  13.796
23833W        W83094  19.205  41.028   0.853
23834W        W83095  34.029   8.247   2.746
23835W        W83096  43.861   8.334   2.735
23836W        W83097  24.090  10.791   3.675
23837W        W83098   3.340   6.242  13.808
23838W        W83099  41.401   1.845  14.496
23839W        W83100   4.857  24.563   1.803
23840W        W83101  31.141  41.500  13.988
23841W        W83102   2.726  41.339  10.553
23842W        W83103  33.587   5.378   0.476
23843W        W83104  37.579  22.201   1.314
23844W        W83105   2.272  21.237  11.495
23845W        W83106   4.928  32.523   2.843
23846W        W83107  41.346  10.247  11.948
23847W        W83108  19.717  43.879   0.325
23848W        W83109  17.772  22.716  14.824
23849W        W83110  30.575  32.934  10.470
23850W        W83111  20.721  17.250  13.389
23851W        W83112  12.856  16.263  13.308
23852W        W83113   2.307   2.823  13.946
23853W        W83114   7.306  15.296  13.547
23854W        W83115   3.265  26.174  14.345
23855W        W83116  38.371  37.945  11.982
23856W        W83117  27.026   5.764   2.186
23857W        W83118  39.367   9.651   1.821
23858W        W83119   0.354  29.032  10.929
23859W        W83120  22.564  11.781  13.370
23860W        W83121   7.910  36.553  11.999
23861W        W83122  28.681   2.259   3.833
23862W        W83123  23.192  27.467  12.938
23863W        W83124  32.997  38.838  11.475
23864W        W83125  23.648  19.750  12.988
23865W        W83126  21.130  28.456   0.345
23866W        W83127  17.307  34.560  12.945
23867W        W83128   2.815  44.952  12.417
23868W        W83129   3.297   4.767   3.859
23869W        W83130  11.700  44.437  13.819
23870W        W83131   0.316  24.636  11.433
23871W        W83132  22.149  29.494   1.837
23872W        W83133  35.917  33.599   0.455
23873W        W83134  13.187  18.248  12.948
23874W        W83135   4.299  33.945  13.474
23875W        W83136  10.164   2.330  11.016
23876W        W83137  31.136  32.037   4.729
23877W        W83138   5.323  22.637  13.061
23878W        W83139  38.897  22.091  14.302
23879W        W83140  12.202   3.929   1.702
23880W        W83141  19.076  25.158   0.375
23881W        W83142  28.134  27.129  10.455
23882W        W83143  11.795  35.550   1.438
23883W        W83144  35.935  39.025  13.937
23884W        W83145  21.047  35.973   9.979
23885W        W83146  21.733  16.611   0.847
23886W        W83147   1.416  35.052  12.848
23887W        W83148  16.716  27.118   3.300
23888W        W83149  26.561  26.527   3.783
23889W        W83150  28.677  31.465   5.116
23890W        W83151   1.321  23.104  12.494
23891W        W83152  17.077  13.119   0.765
23892W        W83153   6.819  38.545  14.831
23893W        W83154  28.102  21.045   0.380
23894W        W83155  25.662  37.510   3.640
23895W        W83156  41.896   3.332   3.639
23896W        W83157  18.745  13.692  14.869
23897W        W83158  21.683  17.633  11.571
23898W        W83159   4.365   6.325   3.249
23899W        W83160  30.927   8.762  12.568
23900W        W83161  12.770  20.274  14.389
23901W        W83162   3.726  13.179   0.967
23902W        W83163  26.173   7.691   1.307
23903W        W83164  10.204  23.642   9.951
23904W        W83165   7.831   9.272  13.357
23905W        W83166  37.042  33.497   1.261
23906W        W83167  42.914  25.605   1.265
23907W        W83168  13.842  16.609  11.042
23908W        W83169  26.124  15.756  13.523
23909W        W83170  44.797   8.312  13.876
23910W        W83171  25.047  34.899  14.405
23911W        W83172  28.518  37.562  13.993
23912W        W83173  37.458  16.158   3.713
23913W        W83174  20.610   4.923   0.955
23914W        W83175  27.617  43.303  11.023
23915W        W83176  38.398  37.457   3.781
23916W        W83177  40.515  28.144  14.025
23917W        W83178  25.110   1.323   1.258
23918W        W83179  12.314  32.533   2.707
23919W        W83180  43.830  31.144  12.475
23920W        W83181  39.987  28.992  10.580
23921W        W83182  42.498   8.702  11.097
23922W        W83183   2.350  29.146  10.484
23923W        W83184  31.609  39.025  11.867
23924W        W83185   7.334   1.288   1.712
23925W        W83186  27.197  37.410  14.289
23926W        W83187  37.939  15.265   2.205
23927W        W83188   7.818  33.978   2.667
23928W        W83189  15.251  19.617   3.335
23929W        W83190   7.707  18.672   1.843
23930W        W83191   2.880  24.484   1.729
23931W        W83192   5.845  25.112   3.836
23932W        W83193  24.133  29.107  14.978
23933W        W83194  44.900   5.756  14.333
23934W        W83195   9.174  30.102  11.105
23935W        W83196  30.651  41.293   2.809
23936W        W83197  16.093  17.575   3.711
23937W        W83198  14.717  28.611   3.217
23938W        W83199  18.085  42.801   1.248
23939W        W83200   7.700   7.820  12.475
23940W        W83201  23.526   3.770   4.742
23941W        W83202  27.529  26.032  12.546
23942W        W83203   7.308  14.725  10.980
23943W        W83204  24.506  33.974  14.907
23944W        W83205  41.965  22.013   5.218
23945W        W83206   5.891  17.092   2.766
23946W        W83207  32.893  20.607   0.927
23947W        W83208  12.789  43.004  10.598
23948W        W83209  19.574  13.192  14.862
23949W        W83210   9.741  11.815   0.361
23950W        W83211   3.277  32.030  14.766
23951W        W83212  14.100   7.839  13.361
23952W        W83213  22.018  36.458   2.810
23953W        W83214  27.585  15.275  13.508
23954W        W83215  37.071  44.949  12.502
23955W        W83216  12.128  13.329  10.407
23956W        W83217  34.936  36.981  10.987
23957W        W83218  30.093   8.222  12.444
23958W        W83219  20.749   1.856  12.348
23959W        W83220  10.314  28.996   3.385
23960W        W83221   3.947  35.422  12.069
23961W        W83222  28.475  15.820  14.970
23962W        W83223  38.385   3.416   3.785
23963W        W83224  30.132  12.684  12.519
23964W        W83225   3.299  39.063   3.227
23965W        W83226  31.969  15.145  13.540
23966W        W83227  16.132  35.498  10.630
23967W        W83228  44.335  20.103   9.923
23968W        W83229   7.809  40.941  11.488
23969W        W83230  18.636   9.831   1.802
23970W        W83231  32.070  23.189   2.693
23971W        W83232  36.923  27.951  12.403
23972W        W83233  23.651  39.324  13.800
23973W        W83234  37.471  30.594   4.354
23974W        W83235   8.357   5.373   2.815
23975W        W83236  29.464  12.658   0.414
23976W        W83237  12.810  22.528  12.052
23977W        W83238  31.508   0.337  12.953
23978W        W83239   4.737   7.408   3.678
23979W        W83240  42.835  22.614   2.789
23980W        W83241  11.138  15.641   2.360
23981W        W83242  40.497  13.127  11.554
23982W        W83243  12.841  16.290   3.693
23983W        W83244  18.266  14.337   4.182
23984W        W83245  44.830  33.079  12.970
23985W        W83246   1.314   7.853   4.735
23986W        W83247  31.447  39.927   4.658
23987W        W83248  36.381  43.358   4.168
23988W        W83249  18.242  36.016  12.973
23989W        W83250  34.408  43.290   0.395
23990W        W83251  23.144  44.368  14.961
23991W        W83252  34.555  40.383   2.372
23992W        W83253  23.153   8.734  11.563
23993W        W83254  34.481  28.171   0.885
23994W        W83255  21.073  13.668   2.828
23995W        W83256  44.813  42.982  12.827
23996W        W83257   5.198  28.975   4.728
23997W        W83258  34.940  38.932   0.831
23998W        W83259   7.372  13.832   2.882
23999W        W83260  41.804   9.705  14.481
24000W        W83261  33.895   5.197   1.931
24001W        W83262   6.285   2.328  13.017
24002W        W83263   0.956  23.705   2.838
24003W        W83264  22.724   2.767   4.726
24004W        W83265  14.643  12.821   0.323
24005W        W83266  11.255  26.055  11.579
24006W        W83267   6.190  31.473  11.026
24007W        W83268  12.771  30.530  10.608
24008W        W83269  40.986  30.626   4.349
24009W        W83270  33.493  28.177   2.188
24010W        W83271  23.673  15.206   3.194
24011W        W83272   0.479  31.080  12.879
24012W        W83273  20.651  32.957  10.536
24013W        W83274  40.835  41.959   3.237
24014W        W83275  25.612  30.964   2.760
24015W        W83276  34.423  28.559   0.823
24016W        W83277   4.902  29.503  10.641
24017W        W83278  18.118  36.593   3.358
24018W        W83279  30.907   7.255  13.345
24019W        W83280   4.940  44.928   2.273
24020W        W83281  41.506  22.164  11.943
24021W        W83282  40.392  33.527  11.069
24022W        W83283   7.705  22.169   3.244
24023W        W83284  37.968   9.260   3.211
24024W        W83285  37.839  44.831   3.821
24025W        W83286  21.686   9.877  12.986
24026W        W83287  39.508  22.613   4.184
24027W        W83288  18.654   2.245  10.471
24028W        W83289  20.644  41.404  13.840
24029W        W83290  33.503   9.316  12.982
24030W        W83291   5.878  24.085   1.846
24031W        W83292   6.256  22.053   2.709
24032W        W83293  35.375   1.873   2.240
24033W        W83294  24.711  18.604  12.343
24034W        W83295  41.893  10.312  10.031
24035W        W83296  28.439  42.804  14.487
24036W        W83297  19.610  44.945  10.410
24037W        W83298   8.750  39.397  12.865
24038W        W83299  16.812   7.353   1.736
24039W        W83300  13.120  14.677   4.712
24040W        W83301  34.443  22.716  10.899
24041W        W83302  28.631  15.732  12.447
24042W        W83303  33.447   4.225   1.231
24043W        W83304  23.692  19.086  12.001
24044W        W83305  33.401  31.643  13.998
24045W        W83306  35.552  13.799  12.502
24046W        W83307  22.201  40.884  13.537
24047W        W83308  11.273  44.362   0.785
24048W        W83309  24.650   8.221  14.980
24049W        W83310  42.892   0.965   5.126
24050W        W83311  33.065  22.723   1.421
24051W        W83312  42.868  29.976   0.929
24052W        W83313   3.924  17.121  10.543
24053W        W83314  12.709  20.043  14.791
24054W        W83315  42.997  26.130  11.960
24055W        W83316  11.844   9.217  14.825
24056W        W83317  20.704  27.999   2.228
24057W        W83318   2.771  40.916   2.728
24058W        W83319  27.064  34.441   9.649
24059W        W83320  28.149  17.570   1.213
24060W        W83321  11.664  21.102   2.220
24061W        W83322  44.980  38.888   0.740
24062W        W83323  14.782  22.242  14.329
24063W        W83324  24.124  43.007  12.920
24064W        W83325  42.432  11.212   3.809
24065W        W83326  13.689  35.449   2.255
24066W        W83327  17.199  25.551  11.057
24067W        W83328  26.952  24.034  12.888
24068W        W83329  26.504  35.530  11.468
24069W        W83330   2.809   1.748  13.833
24070W        W83331  13.272  19.253  12.412
24071W        W83332  10.375   0.823   0.864
24072W        W83333   6.381  15.163   1.431
24073W        W83334  30.451  17.303   0.789
24074W        W83335  23.495   5.207  11.904
24075W        W83336  33.072  11.365   2.416
24076W        W83337  15.610  43.437  11.948
24077W        W83338  24.666  36.950  13.361
24078W        W83339  36.067   9.764   9.966
24079W        W83340  17.700  16.313  10.968
24080W        W83341  16.713  13.647   1.760
24081W        W83342  26.560  37.420  10.048
24082W        W83343  42.869   0.795   4.694
24083W        W83344  18.766  11.341   2.371
24084W        W83345  12.263  42.823   2.396
24085W        W83346  33.392  41.964   4.603
24086W        W83347   9.276  40.410   5.140
24087W        W83348  11.331  32.432  12.063
24088W        W83349   1.841  28.994   3.270
24089W        W83350  30.583  10.650   1.403
24090W        W83351  33.465  24.169   2.270
24091W        W83352  15.182   1.343   2.265
24092W        W83353  31.452  11.167   4.826
24093W        W83354  17.144   7.289   1.303
24094W        W83355  43.004  12.856   4.252
24095W        W83356   6.411  44.874  13.053
24096W        W83357   0.329  16.760  14.387
24097W        W83358  15.779  39.546  12.415
24098W        W83359  34.869  41.868   3.216
24099W        W83360  37.414  35.375   0.898
24100W        W83361  30.438   9.313   3.228
24101W        W83362  24.490  25.148   2.733
24102W        W83363  40.014  44.812   1.723
24103W        W83364  39.873  38.848   1.820
24104W        W83365  31.534   2.866   3.326
24105W        W83366  43.950   9.829   1.370
24106W        W83367  17.648  27.986   2.805
24107W        W83368  23.591  40.887  10.940
24108W        W83369  33.953   9.721  14.456
24109W        W83370  25.067  41.992   3.748
24110W        W83371  17.086  41.843  12.465
24111W        W83372  14.806  39.315  14.896
24112W        W83373  11.132   1.384  13.899
24113W        W83374  32.595  14.135  14.802
24114W        W83375  12.213  25.617  11.875
24115W        W83376  29.011  15.191   2.702
24116W        W83377  42.513  28.656  13.851
24117W        W83378  38.945  43.838   0.831
24118W        W83379  22.086  32.902  13.319
24119W        W83380  33.943   6.749  14.901
24120W        W83381  38.052   7.787   3.796
24121W        W83382  25.491  28.090   1.819
24122W        W83383  37.881  31.567  12.058
24123W        W83384  33.440   5.931   4.150
24124W        W83385  36.997  31.568  13.318
24125W        W83386  12.711  13.216   4.662
24126W        W83387  16.729  39.875  10.450
24127W        W83388  14.248  16.166   4.126
24128W        W83389  40.830  37.085  11.451
24129W        W83390  43.955   3.836   0.288
24130W        W83391  28.501  31.086  12.909
24131W        W83392  38.521  18.597   3.726
24132W        W83393   3.912  34.438   2.414
24133W        W83394  33.406  14.794   2.817
24134W        W83395   4.214  30.952  14.483
24135W        W83396  43.382  31.587   3.854
24136W        W83397  14.605  23.495   4.706
24137W        W83398  32.965  28.557   0.845
24138W        W83399   3.931  16.616  12.566
24139W        W83400  44.803  10.173   3.150
24140W        W83401  17.182   9.848  10.591
24141W        W83402  30.521  12.820   4.240
24142W        W83403  39.371  40.400   4.787
24143W        W83404  34.577   8.318   3.282
24144W        W83405  21.589  39.911   2.890
24145W        W83406  18.074  11.727   2.319
24146W        W83407   9.668  19.645  12.387
24147W        W83408  33.426  37.457  12.987
24148W        W83409  40.379  32.017  11.994
24149W        W83410  10.188  26.082   3.275
24150W        W83411  17.254   6.311  10.506
24151W        W83412  33.013  21.241   0.300
24152W        W83413  14.625  24.600   4.734
24153W        W83414  43.930  25.212   2.797
24154W        W83415  18.268  12.284  13.450
24155W        W83416   2.858  17.748   1.775
24156W        W83417  40.878   7.681  13.835
24157W        W83418  43.849   8.807  14.787
24158W        W83419  43.923  24.986  10.473
24159W        W83420   8.406   9.646  14.433
24160W        W83421  15.631  10.278   4.661
24161W        W83422  18.669   2.840  13.011
24162W        W83423  36.088  11.658   0.351
24163W        W83424  10.268  38.033   1.397
24164W        W83425  32.431  21.581   4.244
24165W        W83426  44.490  38.571  10.039
24166W        W83427  30.155  34.034  11.605
24167W        W83428  12.237  24.484  14.498
24168W        W83429   5.717   2.304  13.991
24169W        W83430  35.568  10.757   2.797
24170W        W83431  41.805  42.012  11.549
24171W        W83432  37.395  32.441  13.829
24172W        W83433   1.480  23.720   3.654
24173W        W83434   5.316  12.701   4.237
24174W        W83435   8.857  12.673  14.810
24175W        W83436   1.354   6.756   0.257
24176W        W83437   9.207  28.610   0.247
24177W        W83438  37.361   6.729  14.353
24178W        W83439  36.591  42.327   2.245
24179W        W83440  32.934  32.928  12.930
24180W        W83441   2.848   6.771  12.557
24181W        W83442   7.259   7.709   9.635
24182W        W83443  37.945  35.955   3.735
24183W        W83444   4.855  41.944  12.511
24184W        W83445  14.133  37.985  12.927
24185W        W83446  19.780   4.253   1.414
24186W        W83447   0.399  40.032  14.431
24187W        W83448  12.733  11.243  11.467
24188W        W83449  28.564  19.675  12.907
24189W        W83450  26.190  23.108   2.333
24190W        W83451  41.438  28.543   1.813
24191W        W83452  35.919  29.462   1.709
24192W        W83453  21.588  44.287   0.791
24193W        W83454  20.103   4.262  11.861
24194W        W83455   9.653   1.872   2.666
24195W        W83456  34.372   9.840   5.606
24196W        W83457  33.917   3.856   3.776
24197W        W83458  15.271  18.781  13.387
24198W        W83459  34.594  31.958  10.532
24199W        W83460  10.846   4.402   3.639
24200W        W83461   7.717  42.778  13.981
24201W        W83462  31.406  35.381   4.615
24202W        W83463  42.961  22.599  14.949
24203W        W83464  19.167  24.680  11.982
24204W        W83465  35.104  10.149  14.957
24205W        W83466  44.343  29.577  11.394
24206W        W83467  33.910  44.490  10.485
24207W        W83468   1.776  39.535   1.799
24208W        W83469  22.052  33.552   0.290
24209W        W83470   0.900  40.045  10.547
24210W        W83471  44.315  11.309  14.293
24211W        W83472  43.281  30.463  13.803
24212W        W83473   1.833   1.825  11.382
24213W        W83474  39.513  15.188  10.118
24214W        W83475  23.073  39.353   4.322
24215W        W83476  40.535   4.241  11.606
24216W        W83477   0.984   2.759  12.495
24217W        W83478  11.272  36.402   3.808
24218W        W83479  21.516  17.708   3.211
24219W        W83480  44.798  11.779  14.351
24220W        W83481  33.454  24.674  10.517
24221W        W83482  29.459   5.259   0.278
24222W        W83483  32.506  21.043  10.941
24223W        W83484  30.026   1.238  13.795
24224W        W83485  16.212  39.921  13.468
24225W        W83486   6.352  30.491  13.488
24226W        W83487  28.150  12.772  13.879
24227W        W83488  23.559  30.140  14.463
24228W        W83489  40.931  33.968   4.229
24229W        W83490   8.308   9.216   3.834
24230W        W83491  15.205   4.928  11.938
24231W        W83492  34.979  10.309   2.416
24232W        W83493  22.593  16.783  11.544
24233W        W83494  16.084   8.889   4.226
24234W        W83495  11.827  11.307  14.783
24235W        W83496  24.502  19.181  14.482
24236W        W83497   9.821  21.560  14.323
24237W        W83498  28.032  23.061  12.526
24238W        W83499  38.965  30.438   2.807
24239W        W83500  12.122  29.050   0.845
24240W        W83501   7.351  12.644   2.382
24241W        W83502  30.926  22.582   5.182
24242W        W83503  41.877  29.541   1.304
24243W        W83504  23.061  29.030  13.416
24244W        W83505  43.465   1.449  13.004
24245W        W83506  22.067  27.573   4.197
24246W        W83507  25.156  27.961   1.423
24247W        W83508  39.957  26.519   3.336
24248W        W83509  27.629  31.969   1.778
24249W        W83510   9.833  29.528  13.868
24250W        W83511  19.687  44.358   1.794
24251W        W83512  18.088   1.771  12.489
24252W        W83513  31.617  14.126  12.436
24253W        W83514  40.815  24.205   0.783
24254W        W83515  26.658  22.128   3.155
24255W        W83516  22.138  34.397  10.986
24256W        W83517   6.876   4.436  14.809
24257W        W83518   8.211  41.917   1.371
24258W        W83519  32.393  37.341   3.678
24259W        W83520  31.077   1.957   4.814
24260W        W83521   1.959  42.406   1.443
24261W        W83522  13.658  14.264   1.417
24262W        W83523  14.295  22.604  10.984
24263W        W83524  18.250   1.782  11.577
24264W        W83525  26.464   3.939  10.942
24265W        W83526  19.698  18.130  11.405
24266W        W83527  22.540   3.450   1.697
24267W        W83528  29.664  28.171   5.159
24268W        W83529  15.609  41.509   1.352
24269W        W83530  20.047   2.283  13.530
24270W        W83531   8.199   0.322  14.488
24271W        W83532  36.444  23.143   1.330
24272W        W83533  24.547  17.621  13.039
24273W        W83534  20.763  14.623   3.692
24274W        W83535  22.685  42.851   0.919
24275W        W83536  21.133  16.663  12.500
24276W        W83537  25.529  27.626   3.226
24277W        W83538  42.349   2.377  10.972
24278W        W83539  40.849  41.367   1.738
24279W        W83540  11.136  23.172  11.372
24280W        W83541  18.120  28.620   0.414
24281W        W83542  23.635  22.183   3.751
24282W        W83543   4.311  15.155   4.747
24283W        W83544  16.679  27.572  14.939
24284W        W83545  14.734  18.052   1.763
24285W        W83546  37.538  22.747  14.324
24286W        W83547  42.909  20.264  11.542
24287W        W83548  21.653   7.839  11.475
24288W        W83549  38.021  34.868   9.979
24289W        W83550  22.543   8.698   2.868
24290W        W83551  18.653   8.196  12.025
24291W        W83552   3.270  18.580   4.713
24292W        W83553  23.055  12.356  14.456
24293W        W83554   4.860  43.375  14.495
24294W        W83555  36.957  34.996  11.089
24295W        W83556  19.125  27.616   2.726
24296W        W83557  33.569  37.355  10.422
24297W        W83558  43.422  29.926  11.903
24298W        W83559  27.968   7.181  14.903
24299W        W83560  19.602  27.122  14.915
24300W        W83561  30.547  31.402  11.431
24301W        W83562   6.720  29.627   2.186
24302W        W83563  37.896   3.946   2.291
24303W        W83564  31.488  19.655   0.807
24304W        W83565  40.457  22.659  11.608
24305W        W83566   1.452  41.861   4.660
24306W        W83567  39.471   3.953   4.333
24307W        W83568  18.789  30.494  13.011
24308W        W83569   2.837  22.082   0.440
24309W        W83570  39.543  39.959  11.519
24310W        W83571  38.491  34.869  10.424
24311W        W83572  13.265  30.581   5.120
24312W        W83573  33.028   5.343  11.126
24313W        W83574  14.164   9.255   4.601
24314W        W83575  42.490  22.744  10.629
24315W        W83576   2.390   4.341  13.864
24316W        W83577   5.362  18.097   0.467
24317W        W83578  39.402   1.928  12.945
24318W        W83579  15.192  23.049  14.851
24319W        W83580   8.380   6.234   2.806
24320W        W83581  14.674  32.084  11.373
24321W        W83582   2.291  34.555  11.882
24322W        W83583  13.605   2.725   0.771
24323W        W83584  23.102  36.967  10.606
24324W        W83585   3.775  32.918   0.414
24325W        W83586  33.403   6.677   3.235
24326W        W83587  18.120  22.679  13.962
24327W        W83588  29.039  11.174  13.913
24328W        W83589   0.430  25.508  13.408
24329W        W83590  10.830  39.399   2.246
24330W        W83591  10.230  22.239   1.803
24331W        W83592  35.962  18.734   2.839
24332W        W83593  14.668  32.087  14.020
24333W        W83594  43.810  20.100  13.847
24334W        W83595  41.919   0.399  13.344
24335W        W83596  32.016  28.945   4.807
24336W        W83597  29.986  38.925  11.497
24337W        W83598  10.810  43.952   3.173
24338W        W83599   6.720  22.150   4.689
24339W        W83600   7.882  11.807   3.843
24340W        W83601  18.259  16.291  13.322
24341W        W83602  20.184  40.835   1.412
24342W        W83603  40.814  39.394   3.145
24343W        W83604   2.860  23.736   4.121
24344W        W83605   1.885  36.492   4.240
24345W        W83606   8.186  40.389   4.276
24346W        W83607  39.435  27.630  12.348
24347W        W83608   9.783  13.182   3.230
24348W        W83609  24.527   4.834   0.361
24349W        W83610  25.584   8.851  12.981
24350W        W83611  13.160  20.622   4.350
24351W        W83612  25.627   4.441  14.910
24352W        W83613  40.798  43.353  12.045
24353W        W83614  37.859  35.379  12.909
24354W        W83615  19.045  38.019   3.806
24355W        W83616   2.851  27.996   0.330
24356W        W83617  26.537  25.559   2.734
24357W        W83618  35.549  23.655  13.392
24358W        W83619   8.281  33.983  14.838
24359W        W83620  28.130  28.110   1.845
24360W        W83621  28.030  24.607   2.851
24361W        W83622  10.251  12.149   0.377
24362W        W83623   2.847   0.253  13.432
24363W        W83624   6.866  26.538  11.880
24364W        W83625   1.293  15.086   4.699
24365W        W83626   1.448   4.307   4.352
24366W        W83627  32.582  16.116  13.931
24367W        W83628  35.398   7.737   5.670
24368W        W83629  40.343   0.756   0.441
24369W        W83630  21.083   0.863  13.947
24370W        W83631  37.336   8.833  14.509
24371W        W83632  10.706  14.603  14.823
24372W        W83633  41.830  44.866   0.844
24373W        W83634   7.171  14.325   1.360
24374W        W83635   4.899  42.811   4.240
24375W        W83636   5.903  29.480   2.851
24376W        W83637  37.438   4.446  10.984
24377W        W83638  14.108  15.159  12.353
24378W        W83639  32.902   1.312   4.201
24379W        W83640   7.223  29.164  14.332
24380W        W83641  13.724  30.417  10.980
24381W        W83642  42.381  40.449   0.473
24382W        W83643  43.842  32.042  13.823
24383W        W83644  25.065  39.962   4.781
24384W        W83645   5.700  13.798   0.333
24385W        W83646   9.221  30.145  14.282
24386W        W83647  12.143  36.980   1.711
24387W        W83648  13.119  34.577   4.342
24388W        W83649  13.228  14.637  12.880
24389W        W83650   3.438  38.927   3.749
24390W        W83651  13.617   3.738  10.538
24391W        W83652  31.643   9.840   4.154
24392W        W83653  33.053   7.191  10.572
24393W        W83654  28.958  24.977   2.772
24394W        W83655   4.280  33.042  14.842
24395W        W83656   0.365  25.681   0.790
24396W        W83657  20.146   4.708  10.140
24397W        W83658  21.533  17.617  12.374
24398W        W83659   9.394  13.836  12.522
24399W        W83660  25.488  12.146  14.810
24400W        W83661  14.607   0.481  13.920
24401W        W83662  29.995  39.522  13.426
24402W        W83663  36.843  40.912   2.200
24403W        W83664  31.900  39.867   4.813
24404W        W83665  30.142  41.331   1.863
24405W        W83666  13.339  41.464  12.024
24406W        W83667  28.175  43.340  12.026
24407W        W83668  16.151  21.092   2.669
24408W        W83669  42.937  27.082  10.908
24409W        W83670  17.705  36.881  12.959
24410W        W83671  19.547  39.428  14.449
24411W        W83672   1.812  28.482  12.563
24412W        W83673  25.690  34.931  13.449
24413W        W83674  24.045  29.449   3.674
24414W        W83675  40.050  34.562  13.818
24415W        W83676  11.822  14.308   3.311
24416W        W83677  41.840  43.343  12.866
24417W        W83678   0.336  24.025   2.412
24418W        W83679  23.240  29.047   2.832
24419W        W83680  30.437  32.885   4.669
24420W        W83681   5.238   5.897   1.311
24421W        W83682   2.770   8.768  14.974
24422W        W83683  16.097  19.732  10.480
24423W        W83684  16.697  20.236   2.876
24424W        W83685   5.756   6.368  14.416
24425W        W83686  42.388  17.104  14.887
24426W        W83687   2.782  28.558   4.216
24427W        W83688  12.138   7.829   2.709
24428W        W83689  36.373   4.357  11.866
24429W        W83690  40.984  24.144  13.456
24430W        W83691  15.821   8.688   4.304
24431W        W83692  42.912  19.208   0.809
24432W        W83693  20.683   0.893  13.468
24433W        W83694  17.693   4.449  12.974
24434W        W83695   2.288  32.141   4.209
24435W        W83696  16.753  22.669   4.774
24436W        W83697  30.164   8.896   3.675
24437W        W83698  43.852  19.740  11.903
24438W        W83699  23.692  38.972   3.725
24439W        W83700  24.087  26.041   1.890
24440W        W83701  39.001  37.513   3.205
24441W        W83702  13.235  36.049  10.445
24442W        W83703  40.398  29.133   1.921
24443W        W83704  26.551  27.479  14.824
24444W        W83705  22.061  17.758   0.379
24445W        W83706  37.984  30.455   4.191
24446W        W83707  19.229  36.939   4.263
24447W        W83708  19.726  30.116  13.888
24448W        W83709   2.821  20.138   4.330
24449W        W83710  26.499   5.778   1.235
24450W        W83711   7.806   4.419   2.709
24451W        W83712   5.740   8.190  13.988
24452W        W83713  30.431  37.861  11.520
24453W        W83714  40.054  39.400  14.819
24454W        W83715  17.578  23.701  14.508
24455W        W83716  23.003   9.702   1.323
24456W        W83717  10.840   2.267   1.230
24457W        W83718  10.213   3.747   1.381
24458W        W83719  38.365  10.668   2.890
24459W        W83720   7.399  28.980  13.861
24460W        W83721  25.513   2.787   0.765
24461W        W83722  17.592   3.323   2.416
24462W        W83723  14.705  33.432  11.385
24463W        W83724  23.143  32.391   0.451
24464W        W83725  18.258  40.506   1.845
24465W        W83726  35.362  22.742   3.197
24466W        W83727  31.044  25.634  12.546
24467W        W83728  44.419  38.917  10.918
24468W        W83729   4.923  24.591  14.274
24469W        W83730  29.432  16.074  13.405
24470W        W83731  21.240   1.479  14.996
24471W        W83732  38.559   8.324  14.852
24472W        W83733  37.025  35.089  12.015
24473W        W83734  12.803  17.246  11.573
24474W        W83735  20.028   8.858  13.413
24475W        W83736  28.003  24.529  14.769
24476W        W83737  12.621  42.489   2.777
24477W        W83738  12.752   4.795   0.373
24478W        W83739  37.412  11.254  11.402
24479W        W83740  18.255   6.676   0.778
24480W        W83741  16.777  37.886   2.385
24481W        W83742  33.381  27.530  14.414
24482W        W83743  13.831   8.707  11.972
24483W        W83744  20.050  20.565   1.310
24484W        W83745  11.243  27.109  12.373
24485W        W83746   7.724  15.252  10.507
24486W        W83747   2.777   2.389   3.829
24487W        W83748  27.534  36.447   0.362
24488W        W83749   3.738   2.758  13.424
24489W        W83750  20.051  38.491  12.037
24490W        W83751   2.809  12.275   0.443
24491W        W83752  29.043  42.413   1.869
24492W        W83753  17.130   7.329   0.871
24493W        W83754  28.136   4.933   2.663
24494W        W83755   7.754  41.035   4.617
24495W        W83756  35.497   9.240   9.448
24496W        W83757  39.543  44.398  12.561
24497W        W83758  19.110   6.321   0.455
24498W        W83759   0.806  10.853  13.852
24499W        W83760  29.555  26.034  13.316
24500W        W83761   3.330  11.261   1.700
24501W        W83762  37.074  36.438  13.308
24502W        W83763  33.885  17.159   0.735
24503W        W83764   7.186  11.162  12.351
24504W        W83765   2.285  17.749   3.633
24505W        W83766  39.515   9.195  12.565
24506W        W83767  14.129  29.622  13.890
24507W        W83768  39.896  23.050  12.497
24508W        W83769  11.766  26.975   2.304
24509W        W83770  11.677  40.862   4.299
24510W        W83771  26.471  21.161  10.070
24511W        W83772  44.344  16.224  11.473
24512W        W83773  34.438  28.056   1.211
24513W        W83774  14.627   6.346   0.946
24514W        W83775  30.129  29.507   4.803
24515W        W83776  16.668  26.197  12.909
24516W        W83777  15.325  19.728  11.558
24517W        W83778  43.494  23.582  10.947
24518W        W83779  21.082  14.282   3.665
24519W        W83780  33.478   1.952  11.404
24520W        W83781  37.420  17.565   3.308
24521W        W83782   1.735  33.435  10.498
24522W        W83783  39.509  11.736   3.171
24523W        W83784  30.517   6.404   3.765
24524W        W83785   4.209   0.267  12.396
24525W        W83786  11.764  37.040  13.970
24526W        W83787  19.235   6.697   5.252
24527W        W83788  34.576   9.859  13.052
24528W        W83789  31.012  24.987   3.763
24529W        W83790  36.587   1.278  11.974
24530W        W83791   1.270   3.242   4.735
24531W        W83792  29.005  32.443   0.825
24532W        W83793  29.983  32.105   3.278
24533W        W83794  13.828   7.379   2.179
24534W        W83795  12.130  26.202  14.476
24535W        W83796  39.435  16.801  13.821
24536W        W83797   2.404  19.561   5.246
24537W        W83798  39.949   5.719   2.232
24538W        W83799  16.082   3.780   3.776
24539W        W83800  27.979  25.110   3.363
24540W        W83801  44.403  35.905   3.177
24541W        W83802  12.757  43.991   3.375
24542W        W83803  34.415  17.596   2.744
24543W        W83804  21.573   5.930   2.260
24544W        W83805  33.982   1.885   4.163
24545W        W83806  26.612  11.213  14.829
24546W        W83807  22.712  18.785  14.317
24547W        W83808  21.116  27.960   5.108
24548W        W83809  35.530   4.448  11.609
24549W        W83810  44.387  22.527   5.252
24550W        W83811  31.597  27.062   1.256
24551W        W83812  20.227  25.657  10.577
24552W        W83813  35.057   5.322   2.807
24553W        W83814  22.698   1.272  12.826
24554W        W83815  30.117  18.712   2.289
24555W        W83816  43.318  36.051  11.898
24556W        W83817  26.098  11.331   3.307
24557W        W83818  12.145  28.107  13.945
24558W        W83819  24.033   7.209  13.845
24559W        W83820  41.466  18.105  13.492
24560W        W83821   3.262   5.900  10.458
24561W        W83822  28.178  39.544  11.378
24562W        W83823  12.122  24.132   2.874
24563W        W83824  16.718   2.848  10.638
24564W        W83825  26.498   2.438   2.743
24565W        W83826  29.500  37.022  14.005
24566W        W83827  11.199  27.650   2.802
24567W        W83828  11.681  18.201  14.768
24568W        W83829  31.579  13.221  12.066
24569W        W83830  34.993  43.389  11.379
24570W        W83831  26.698   9.815   2.844
24571W        W83832  32.437  24.064  13.931
24572W        W83833  41.789   5.908   2.354
24573W        W83834   7.770  25.035   4.674
24574W        W83835  40.535  37.547  14.448
24575W        W83836  39.427   8.226  10.979
24576W        W83837  41.485   6.920   0.956
24577W        W83838  42.817   6.759   1.847
24578W        W83839  34.037  14.301   0.807
24579W        W83840  12.797   5.719   2.231
24580W        W83841   2.451  44.475  13.995
24581W        W83842  11.331  21.194   2.191
24582W        W83843  30.472  37.522  11.472
24583W        W83844  34.480  27.614  11.077
24584W        W83845   0.899  43.861  11.889
24585W        W83846  23.043  10.236   1.420
24586W        W83847  13.323  25.084   4.735
24587W        W83848   9.694  44.005  13.057
24588W        W83849  21.199  32.025  11.434
24589W        W83850   4.241  15.784   1.770
24590W        W83851  27.026  43.486   3.254
24591W        W83852  27.155  39.982  12.933
24592W        W83853  19.084  29.142   4.340
24593W        W83854  29.103  38.891  13.823
24594W        W83855  20.713  43.817   2.858
24595W        W83856  13.222   7.860  14.807
24596W        W83857  21.644  42.901  12.034
24597W        W83858  30.463  22.225   0.404
24598W        W83859  37.484  34.565   1.425
24599W        W83860  22.092  42.389   4.115
24600W        W83861  35.896  24.003  11.933
24601W        W83862   5.802  34.896   2.411
24602W        W83863  27.560  16.135  14.901
24603W        W83864  39.047  22.224  13.010
24604W        W83865   3.954  17.072   0.462
24605W        W83866  34.469  42.006   2.325
24606W        W83867  24.121   7.679  11.601
24607W        W83868   2.422  26.115  10.529
24608W        W83869  33.966  30.016  13.869
24609W        W83870  26.090  33.574   2.342
24610W        W83871  18.668  11.709   1.358
24611W        W83872  26.517   8.694   0.920
24612W        W83873  20.559  24.707   4.353
24613W        W83874  36.039  30.017  12.939
24614W        W83875  19.710   0.836  12.556
24615W        W83876  35.506  23.202   0.793
24616W        W83877   0.461   3.231   0.849
24617W        W83878  30.526  24.037   2.199
24618W        W83879  39.341   7.364   2.265
24619W        W83880  27.171  18.735  13.353
24620W        W83881  27.993  37.837  11.584
24621W        W83882  44.350   0.931   3.328
24622W        W83883  35.438   2.765   1.725
24623W        W83884   6.827  29.076  12.997
24624W        W83885  15.799  42.320  12.056
24625W        W83886   7.255  28.074   3.756
24626W        W83887  39.861  23.140   1.812
24627W        W83888  42.978  32.542   0.885
24628W        W83889   3.372  26.068  10.409
24629W        W83890  17.752  44.851  14.293
24630W        W83891   3.735  10.249   3.178
24631W        W83892  11.263   0.445   0.256
24632W        W83893  16.143  16.782   2.728
24633W        W83894  28.072   6.334   4.838
24634W        W83895  41.871   9.692  13.397
24635W        W83896   2.782  14.116  12.920
24636W        W83897  40.509  28.611  12.034
24637W        W83898  22.533  28.933   0.411
24638W        W83899   1.327  19.105   2.665
24639W        W83900  30.142  40.358   2.379
24640W        W83901  34.951  35.584   4.197
24641W        W83902  44.470  32.604   2.314
24642W        W83903  24.076  10.377  11.037
24643W        W83904  38.946  20.668   1.233
24644W        W83905   3.406  37.346  14.318
24645W        W83906  13.633  44.311   0.947
24646W        W83907  42.420  20.121   4.811
24647W        W83908  42.338  19.588  13.033
24648W        W83909  31.067  26.544   0.370
24649W        W83910  44.888   6.718   0.250
24650W        W83911  20.760  43.855  14.274
24651W        W83912  43.983   4.328  12.951
24652W        W83913   5.880  12.651   2.378
24653W        W83914  17.602  14.814  13.337
24654W        W83915  34.056  33.043   3.297
24655W        W83916   6.212  19.621  10.937
24656W        W83917  23.125  34.004   0.823
24657W        W83918  33.570   2.859   2.722
24658W        W83919  39.388  14.198   1.378
24659W        W83920  28.572  41.024  10.541
24660W        W83921  35.540  27.144  12.980
24661W        W83922  39.343  32.609  14.472
24662W        W83923  43.853  44.277  10.521
24663W        W83924  17.153  27.161   3.332
24664W        W83925   5.204  25.622   3.728
24665W        W83926  30.162  29.050  12.048
24666W        W83927  25.074  35.393   3.812
24667W        W83928  30.102  26.650  14.986
24668W        W83929  43.919  34.424  12.954
24669W        W83930  24.229  15.252  11.969
24670W        W83931  32.920   2.916   0.861
24671W        W83932  40.805  35.434  11.400
24672W        W83933  19.562  37.075  11.878
24673W        W83934  31.411  17.159  14.973
24674W        W83935  16.283   5.857  14.934
24675W        W83936  30.091  32.605   3.764
24676W        W83937  27.998  26.106   4.305
24677W        W83938  19.754  44.340  10.889
24678W        W83939  44.769  36.592   5.292
24679W        W83940  34.606   4.929   2.902
24680W        W83941  28.009  41.495  11.487
24681W        W83942  34.941  43.387  11.992
24682W        W83943  11.193  44.475   1.864
24683W        W83944  13.134  25.613   4.744
24684W        W83945  42.845  30.508  11.938
24685W        W83946  32.885   2.923   2.309
24686W        W83947  25.027  28.988  12.001
24687W        W83948  33.928  25.033  14.974
24688W        W83949  31.984  43.856  14.422
24689W        W83950  36.355  42.980   3.320
24690W        W83951   5.197  19.283  10.517
24691W        W83952   1.397  35.003   1.322
24692W        W83953   7.364  42.283   3.369
24693W        W83954  24.174  18.753  11.570
24694W        W83955  44.463  30.919  11.884
24695W        W83956  43.776  21.188   4.637
24696W        W83957  20.039  42.508   3.656
24697W        W83958  15.679  21.239   3.365
24698W        W83959  43.798   6.302   3.761
24699W        W83960   4.221   0.430   0.906
24700W        W83961  32.035  17.090   4.172
24701W        W83962  33.471  34.974  14.422
24702W        W83963  31.048  12.745   1.406
24703W        W83964  20.166   7.778   1.423
24704W        W83965  42.909  38.424   0.357
24705W        W83966  23.120  39.953  13.903
24706W        W83967  26.584  35.410   1.369
24707W        W83968  39.899   1.411   4.334
24708W        W83969  15.604  40.833  13.853
24709W        W83970  27.145  26.562   0.400
24710W        W83971   7.806   6.864   5.749
24711W        W83972  37.404  19.069   0.943
24712W        W83973  29.628  44.377   3.237
24713W        W83974  17.579   6.815   0.347
24714W        W83975  43.341   9.322   3.218
24715W        W83976   9.696  39.470  10.564
24716W        W83977  16.789  24.127   1.841
24717W        W83978   7.358  42.337  10.534
24718W        W83979  31.446  10.871  14.963
24719W        W83980  25.713  37.560   4.271
24720W        W83981   6.183   3.320   3.358
24721W        W83982   6.309  23.998  10.497
24722W        W83983  25.656   1.240   1.298
24723W        W83984  17.241  14.313  10.585
24724W        W83985  26.462  37.344   1.240
24725W        W83986  35.969  39.358  12.932
24726W        W83987  13.703  30.586   5.238
24727W        W83988  23.006   6.348  10.415
24728W        W83989  23.186  11.288  12.559
24729W        W83990   3.419  12.780   1.883
24730W        W83991  36.884  31.459  13.794
24731W        W83992  30.595  28.092   1.919
24732W        W83993   9.215  28.954   2.673
24733W        W83994   5.810  27.059   3.253
24734W        W83995  34.609  21.120   0.309
24735W        W83996  30.558  17.132  10.418
24736W        W83997  18.261  35.362  13.005
24737W        W83998  26.982  14.257   0.360
24738W        W83999  32.028  42.850  14.847
24739W        W84000  39.845   1.799   3.384
24740W        W84001  39.487   2.377  14.879
24741W        W84002  28.071  20.243  10.452
24742W        W84003  18.757  39.351  14.900
24743W        W84004  28.504  17.124  14.999
24744W        W84005  16.123   3.314  14.778
24745W        W84006  10.871  25.980  11.475
24746W        W84007  22.506   5.902  14.335
24747W        W84008   0.488  31.008   0.473
24748W        W84009  18.597  26.505  13.799
24749W        W84010   6.415  24.598   1.267
24750W        W84011  35.568  29.991   1.933
24751W        W84012  42.952  42.458  12.006
24752W        W84013  26.471  33.025  11.406
24753W        W84014  16.161  38.568  13.358
24754W        W84015  16.268  41.366  13.491
24755W        W84016  35.555  26.461   2.872
24756W        W84017   3.291  27.165   4.202
24757W        W84018  30.080  17.643  14.891
24758W        W84019  26.145  15.140   2.218
24759W        W84020  24.515  23.663   2.364
24760W        W84021  22.730  36.532   4.749
24761W        W84022  21.192  18.079  14.870
24762W        W84023  23.683  19.181   4.329
24763W        W84024  31.085  25.489   4.689
24764W        W84025  39.464  14.282   2.783
24765W        W84026  34.877   5.275  10.599
24766W        W84027  16.196  20.704   3.831
24767W        W84028  24.502   8.206   3.644
24768W        W84029  37.502  13.714  10.439
24769W        W84030  31.022  19.666  12.492
24770W        W84031   6.711  39.505   2.885
24771W        W84032   4.249  40.358   1.706
24772W        W84033   5.803  42.894   1.911
24773W        W84034  18.234  22.669  10.154
24774W        W84035  15.816  31.635   2.321
24775W        W84036  16.316  38.023  13.315
24776W        W84037  17.771  17.142  13.505
24777W        W84038  23.605  14.262  10.417
24778W        W84039  34.607   7.230  13.532
24779W        W84040  42.782  24.980   0.805
24780W        W84041  27.115  32.431  12.538
24781W        W84042  40.012  40.954   3.227
24782W        W84043  34.437  20.158  14.471
24783W        W84044  30.118  23.522  10.422
24784W        W84045  34.582  26.478   1.363
24785W        W84046  13.155  26.081  11.026
24786W        W84047  35.490  40.854  12.523
24787W        W84048  26.140  30.424  10.424
24788W        W84049  40.863  28.545  12.491
24789W        W84050  14.682  34.406   0.313
24790W        W84051   9.833   0.344  11.409
24791W        W84052  29.598  26.664  14.405
24792W        W84053  44.859  16.797   0.420
24793W        W84054  35.537  25.190   1.780
24794W        W84055  39.854  25.133  13.426
24795W        W84056  18.128   5.260   1.331
24796W        W84057  44.306  28.078   0.819
24797W        W84058   2.895  28.982   3.665
24798W        W84059   8.692   6.826  10.539
24799W        W84060  24.224  37.049  13.842
24800W        W84061  19.588  28.679   3.810
24801W        W84062  35.416  31.104  13.799
24802W        W84063  36.366  25.168   4.348
24803W        W84064  20.524  13.604  12.057
24804W        W84065   8.759  37.350   5.141
24805W        W84066  23.990  37.016  10.484
24806W        W84067   3.377  13.722   3.859
24807W        W84068  40.415  10.759  14.924
24808W        W84069  28.553   3.418  12.853
24809W        W84070  21.595  39.896  12.475
24810W        W84071   2.781  43.500   4.718
24811W        W84072  18.169   5.733   2.685
24812W        W84073  32.001  11.714   0.346
24813W        W84074  35.061  42.813  14.986
24814W        W84075  37.033  18.602  11.427
24815W        W84076   2.350  31.899  12.828
24816W        W84077  22.008  10.794   1.359
24817W        W84078  36.562  16.782  12.384
24818W        W84079  12.738   3.280  13.815
24819W        W84080   6.802  13.146   3.844
24820W        W84081  16.570  23.177   0.445
24821W        W84082  22.718   6.385  13.542
24822W        W84083  40.028  29.616  10.929
24823W        W84084  27.000  10.347   0.317
24824W        W84085  41.305   2.922  14.842
24825W        W84086  40.001  18.224  11.552
24826W        W84087  18.568  23.179   1.211
24827W        W84088  11.270  42.437   2.789
24828W        W84089  18.178  23.068   2.346
24829W        W84090  19.204  23.176   0.750
24830W        W84091  19.240  35.444   1.914
24831W        W84092   2.897   6.735  13.517
24832W        W84093   0.347  22.073  12.918
24833W        W84094   8.183  42.414   4.682
24834W        W84095  12.169  10.640  10.958
24835W        W84096  32.552  25.184   5.089
24836W        W84097  26.195  34.051  14.317
24837W        W84098  16.731  18.715   9.622
24838W        W84099   9.884  34.053  10.998
24839W        W84100  19.685  14.785  11.964
24840W        W84101  36.358  27.947   1.791
24841W        W84102  35.083  16.207   0.382
24842W        W84103   7.685  21.213   5.090
24843W        W84104  40.326  33.502  10.056
24844W        W84105  13.135  32.421  10.615
24845W        W84106  10.288  42.881  14.353
24846W        W84107  36.562  40.316   1.699
24847W        W84108  25.016  44.784  11.450
24848W        W84109  28.001  23.022  14.355
24849W        W84110  11.638  38.888  10.439
24850W        W84111   7.322  25.575   2.818
24851W        W84112  13.203  18.659  10.930
24852W        W84113  17.576   4.332  13.540
24853W        W84114   7.751  15.673  13.504
24854W        W84115  38.330  13.708  10.411
24855W        W84116  25.479  30.510   1.917
24856W        W84117  14.149  44.385  13.521
24857W        W84118  40.051  16.726  11.512
24858W        W84119   1.871   7.873   2.828
24859W        W84120  34.413  41.017  14.493
24860W        W84121  17.781  41.366   0.468
24861W        W84122   5.708  18.656  14.384
24862W        W84123   5.208  12.147  14.818
24863W        W84124   6.855  16.200  11.580
24864W        W84125   4.382   7.844  12.476
24865W        W84126  41.789  32.428   1.871
24866W        W84127   3.353  19.720  14.343
24867W        W84128  15.288  20.620   4.133
24868W        W84129  44.329  40.415  14.516
24869W        W84130  15.125   7.322   3.681
24870W        W84131  44.486  39.533   0.898
24871W        W84132  15.097  30.034   2.799
24872W        W84133  19.647  43.001   4.164
24873W        W84134  32.440  28.094  14.030
24874W        W84135  34.866  20.059  12.859
24875W        W84136  27.011  13.675   2.859
24876W        W84137  14.622   2.831   1.394
24877W        W84138  41.961  30.961  10.404
24878W        W84139   6.211  42.993  13.833
24879W        W84140   3.371  29.564  13.837
24880W        W84141  18.171  27.184  10.904
24881W        W84142   8.265  38.827   4.835
24882W        W84143   3.318  43.815  11.923
24883W        W84144  44.878  14.267   5.243
24884W        W84145  35.448   7.782  10.063
24885W        W84146  34.564  26.197   4.798
24886W        W84147  20.272  34.062  11.463
24887W        W84148  40.889  42.332   3.223
24888W        W84149  39.422  28.518  11.096
24889W        W84150  24.208  19.754   4.737
24890W        W84151  41.301  10.195   1.780
24891W        W84152  33.489   2.915   0.309
24892W        W84153  30.493   8.387   3.320
24893W        W84154   0.902   8.335   0.368
24894W        W84155  24.641  16.093  12.994
24895W        W84156  25.140  34.587  12.011
24896W        W84157  18.235   8.402  14.818
24897W        W84158  25.067  43.809  10.613
24898W        W84159  28.579   2.420   5.616
24899W        W84160   6.329  24.136   4.221
24900W        W84161  35.027  42.779  11.548
24901W        W84162  10.146  40.927   2.765
24902W        W84163  44.389  26.529  10.009
24903W        W84164  16.731  11.778   3.294
24904W        W84165  11.767   2.833  12.927
24905W        W84166  21.548  31.063  13.915
24906W        W84167  27.680   8.888   4.241
24907W        W84168  19.162  43.451   0.909
24908W        W84169  31.439  11.201   3.264
24909W        W84170  37.046  41.457  11.601
24910W        W84171  18.727  25.609   0.958
24911W        W84172  23.550  26.574   1.708
24912W        W84173  36.905  15.094   1.775
24913W        W84174  44.763  25.639  12.835
24914W        W84175  32.118  27.514   2.686
24915W        W84176  17.096   9.698   0.321
24916W        W84177  39.957  32.019  11.427
24917W        W84178  19.214   3.332   0.865
24918W        W84179  23.045  20.171   4.780
24919W        W84180   1.751   9.863   2.302
24920W        W84181  28.934  29.097  13.997
24921W        W84182  40.423   1.764  12.858
24922W        W84183  32.043  33.051  12.881
24923W        W84184  36.588  39.897   1.215
24924W        W84185  15.706  41.915  12.551
24925W        W84186   9.825  40.931   3.779
24926W        W84187   7.839   7.260   4.644
24927W        W84188   4.863   3.902  12.920
24928W        W84189  33.498  34.498  13.016
24929W        W84190  41.304   7.706  12.881
24930W        W84191  22.051   8.166  14.767
24931W        W84192  27.991  11.244   3.712
24932W        W84193   9.187  29.607  11.963
24933W        W84194  10.346   0.405   0.394
24934W        W84195  27.080  14.728  13.382
24935W        W84196  21.100  24.135  11.043
24936W        W84197  10.706  30.604   4.704
24937W        W84198  43.362  38.411  13.489
24938W        W84199  10.314  24.507   1.773
24939W        W84200   9.198   3.424  14.762
24940W        W84201  31.936  21.664   2.880
24941W        W84202  29.535  24.086  13.915
24942W        W84203  34.371   3.297   0.841
24943W        W84204  12.754   1.386  14.937
24944W        W84205  17.138  15.614   5.233
24945W        W84206  17.144  14.128  13.811
24946W        W84207   9.767  32.569   0.858
24947W        W84208  23.596   6.384   1.837
24948W        W84209  31.966  43.432  10.936
24949W        W84210   6.883   8.716  13.500
24950W        W84211  41.304  40.900  13.364
24951W        W84212  25.532  12.760   3.677
24952W        W84213   6.334  21.741  14.959
24953W        W84214  10.707  13.660   1.393
24954W        W84215  23.564  43.354  12.896
24955W        W84216  42.797   1.889   3.161
24956W        W84217  36.470  26.063  13.989
24957W        W84218  38.328  12.688   1.243
24958W        W84219  13.809  30.550   4.213
24959W        W84220  14.632  21.637   0.341
24960W        W84221  37.515   2.335   4.717
24961W        W84222   1.954  32.553  10.446
24962W        W84223  28.939  16.657  12.570
24963W        W84224  11.725  39.004   3.234
24964W        W84225  12.182   7.710  12.479
24965W        W84226  17.586  22.148   5.287
24966W        W84227  42.350   9.152  12.493
24967W        W84228  27.035  18.135   4.640
24968W        W84229  29.510  35.993  14.876
24969W        W84230   7.906   0.361  13.929
24970W        W84231  31.582  18.291  11.378
24971W        W84232   9.702   5.787   2.793
24972W        W84233   4.897   9.266   2.259
24973W        W84234   6.391  36.470   2.367
24974W        W84235  19.614   5.220   1.425
24975W        W84236   4.240  29.027   1.782
24976W        W84237   8.753   3.938   3.848
24977W        W84238   1.294   1.307  13.455
24978W        W84239  15.657  22.166   0.399
24979W        W84240  10.671  17.718  12.984
24980W        W84241  40.889   5.769   2.812
24981W        W84242   7.694  43.277   2.707
24982W        W84243   3.454   6.896  14.465
24983W        W84244   9.228  25.203   3.230
24984W        W84245  32.393  23.619   0.422
24985W        W84246  26.610  29.454   0.910
24986W        W84247  39.011  34.554   3.356
24987W        W84248  31.414   8.326   4.772
24988W        W84249   4.902  44.414  10.892
24989W        W84250  39.329  20.614   1.309
24990W        W84251   9.252   6.244   4.753
24991W        W84252  24.611   3.297  13.833
24992W        W84253  20.187   1.409   2.419
24993W        W84254  38.032  40.800  10.430
24994W        W84255  21.089  11.838  12.075
24995W        W84256   0.260  10.811  14.389
24996W        W84257  28.441  11.370   0.394
24997W        W84258  33.538  27.976   4.291
24998W        W84259   9.379  27.989   0.809
24999W        W84260  19.593  34.959   4.671
25000W        W84261  14.745   3.227   2.733
25001W        W84262  27.162  21.028   0.793
25002W        W84263  27.163  36.950   0.425
25003W        W84264  31.561  41.345   4.276
25004W        W84265  29.153  27.532  14.369
25005W        W84266  23.636  40.465  14.896
25006W        W84267   0.389  18.601   0.815
25007W        W84268   1.902  21.736  13.909
25008W        W84269  33.118  31.417   0.962
25009W        W84270  10.323  27.532  11.537
25010W        W84271   8.900  25.213  13.036
25011W        W84272  10.173  33.455  10.545
25012W        W84273  42.904  19.687  10.933
25013W        W84274  16.619  42.315   2.705
25014W        W84275  21.240  37.563   0.483
25015W        W84276  42.960   4.277   1.820
25016W        W84277  19.631  16.219  14.490
25017W        W84278  44.799   1.941   4.794
25018W        W84279  44.960   3.246  14.385
25019W        W84280   7.298  22.646   0.907
25020W        W84281  22.712   4.296   3.356
25021W        W84282   1.428  25.563  14.880
25022W        W84283  14.825   4.840  13.025
25023W        W84284   8.785  24.609  13.943
25024W        W84285  19.244  25.198  10.984
25025W        W84286   5.216  27.615   0.856
25026W        W84287  13.293  10.180  10.983
25027W        W84288  39.830  26.000   0.908
25028W        W84289   9.822  20.589   2.805
25029W        W84290   2.447  43.996   1.405
25030W        W84291  37.991  16.713  11.869
25031W        W84292  14.150  14.093  13.470
25032W        W84293  18.200  12.614   1.285
25033W        W84294   6.374  16.722  12.576
25034W        W84295   9.249   4.261  10.548
25035W        W84296   3.739  17.590   3.325
25036W        W84297  35.061  21.167  11.112
25037W        W84298  38.380  39.034  13.536
25038W        W84299   1.354   5.815  12.020
25039W        W84300  22.722  18.237   1.441
25040W        W84301   3.894  37.996   4.333
25041W        W84302  15.792   3.277  13.532
25042W        W84303  33.921  36.567  12.557
25043W        W84304  13.189  19.065   0.406
25044W        W84305  33.020  35.586  13.957
25045W        W84306   4.222  25.014   2.776
25046W        W84307  24.025  27.545  11.025
25047W        W84308  25.707  20.710  12.492
25048W        W84309   4.738  32.035   0.467
25049W        W84310   5.866  20.213   2.794
25050W        W84311  33.915  44.265  13.025
25051W        W84312   9.709  37.363   1.300
25052W        W84313  13.696  12.174  12.834
25053W        W84314   7.911  11.197   0.853
25054W        W84315  37.344   8.785   2.293
25055W        W84316  30.077  35.363  11.376
25056W        W84317  19.598  13.176  10.468
25057W        W84318   3.301  39.362   0.756
25058W        W84319  20.058  27.460  12.579
25059W        W84320   7.418  28.074  12.838
25060W        W84321  38.432  42.815   2.209
25061W        W84322  15.739  19.551   4.343
25062W        W84323   6.789  26.207  11.447
25063W        W84324  36.974  41.944   1.882
25064W        W84325  26.054  44.490   3.730
25065W        W84326  38.066   6.263   2.848
25066W        W84327  25.589  20.153  13.367
25067W        W84328  23.732  41.911   2.362
25068W        W84329  25.010  19.168  11.943
25069W        W84330  18.225   7.245  14.453
25070W        W84331  20.143  14.253  13.877
25071W        W84332  32.079  27.040  14.338
25072W        W84333   3.428   8.675   0.763
25073W        W84334  10.741  36.418  13.806
25074W        W84335  41.480  20.242   1.709
25075W        W84336  19.080  16.797   2.686
25076W        W84337  33.504  32.964  13.824
25077W        W84338  39.338  22.586   3.367
25078W        W84339  16.663  31.984   4.789
25079W        W84340  28.080  44.755   3.372
25080W        W84341  34.929  24.482  12.503
25081W        W84342  18.226  31.579  10.569
25082W        W84343  24.096  38.324   4.707
25083W        W84344  41.415   2.884   3.255
25084W        W84345  40.308  16.277   2.325
25085W        W84346   2.861  39.455  11.428
25086W        W84347  36.880  11.747  10.155
25087W        W84348  29.555  12.714   1.400
25088W        W84349  28.950  41.872   2.897
25089W        W84350  30.941   9.722  14.764
25090W        W84351   0.333   3.743   0.912
25091W        W84352  38.443  44.390   0.379
25092W        W84353   0.777  24.079  10.601
25093W        W84354  34.888  41.382   1.768
25094W        W84355   8.791  40.860  14.000
25095W        W84356  21.120  32.398   3.285
25096W        W84357   9.183   2.241  11.476
25097W        W84358   6.704  20.077   3.777
25098W        W84359  25.030   4.881   3.312
25099W        W84360  10.197  43.396  12.056
25100W        W84361  20.255  39.938   0.296
25101W        W84362  38.533  37.887  11.568
25102W        W84363  32.922  19.211  12.409
25103W        W84364  22.094  13.271  14.510
25104W        W84365  35.506  39.955  14.810
25105W        W84366  12.159  18.206  11.560
25106W        W84367  11.174  35.418  10.921
25107W        W84368  22.151  16.627  13.441
25108W        W84369  41.536  28.636  11.967
25109W        W84370  17.572  10.647  12.872
25110W        W84371  25.650  23.709   0.471
25111W        W84372  42.482  37.412  11.427
25112W        W84373  41.948  26.166  10.579
25113W        W84374   0.984  15.172   3.749
25114W        W84375  23.107  11.670   4.335
25115W        W84376   8.170  21.647  12.996
25116W        W84377  15.823  13.169  11.385
25117W        W84378  36.494  36.590  14.793
25118W        W84379   5.711  34.870  11.494
25119W        W84380  39.892  29.020  11.538
25120W        W84381  37.454  29.947   2.379
25121W        W84382  15.728  21.087  14.428
25122W        W84383  30.619  29.481   0.956
25123W        W84384  21.555  29.950   1.771
25124W        W84385  23.722  40.355   0.795
25125W        W84386  40.541  10.289   5.110
25126W        W84387   5.825  27.521   0.934
25127W        W84388  32.480  27.502  12.431
25128W        W84389  35.082  37.901  12.883
25129W        W84390  16.660  37.009   1.369
25130W        W84391  22.686  44.868  10.552
25131W        W84392  15.234  38.043  13.802
25132W        W84393  44.869   3.456  10.516
25133W        W84394  29.002  25.584  14.769
25134W        W84395  18.187  42.809  11.924
25135W        W84396  30.452  18.257   1.905
25136W        W84397  14.214  22.539  14.413
25137W        W84398  20.062  23.611  14.790
25138W        W84399   1.922  25.702  12.044
25139W        W84400   3.765  28.651   0.376
25140W        W84401  17.775  38.966  13.896
25141W        W84402  30.991  24.143  14.492
25142W        W84403   4.721  14.730  13.965
25143W        W84404  38.984   1.942   2.201
25144W        W84405  20.138  29.082  10.031
25145W        W84406  25.092  43.446   4.616
25146W        W84407  40.010  23.135  11.022
25147W        W84408  35.573  35.458   3.811
25148W        W84409  15.730  42.376  14.810
25149W        W84410   9.204  23.533  10.570
25150W        W84411  18.132  15.621   0.346
25151W        W84412   8.848  28.004   1.814
25152W        W84413  26.689  34.396   0.251
25153W        W84414  23.231   3.415   3.692
25154W        W84415  23.062  34.488  14.941
25155W        W84416  12.312  36.529   2.340
25156W        W84417   6.802  28.638   0.736
25157W        W84418  41.844   8.717  11.125
25158W        W84419   1.940  16.626   4.709
25159W        W84420  15.730  11.260  10.487
25160W        W84421  17.151   2.773   0.885
25161W        W84422   1.463  31.898  12.865
25162W        W84423  17.271  34.612  11.521
25163W        W84424  35.439  44.961  13.418
25164W        W84425  28.089  31.967   0.427
25165W        W84426  34.387  42.824   1.274
25166W        W84427  31.917  39.963  10.995
25167W        W84428  21.061  26.004   4.769
25168W        W84429  32.038  43.915   3.688
25169W        W84430  12.796  21.118   5.144
25170W        W84431  37.968  27.478  10.973
25171W        W84432   4.389   2.350   3.373
25172W        W84433  27.943  26.627   5.277
25173W        W84434  12.773  38.922   2.753
25174W        W84435  42.494  26.528   1.694
25175W        W84436  20.749  40.431  11.948
25176W        W84437  23.992   4.245  14.318
25177W        W84438  23.530  41.459   3.253
25178W        W84439   3.406  21.228  13.469
25179W        W84440  43.764  42.905   3.267
25180W        W84441  37.350  24.159   1.246
25181W        W84442  33.395  39.028   5.307
25182W        W84443  17.667  17.196   0.272
25183W        W84444  13.654  29.965   4.780
25184W        W84445   0.296  29.990  13.436
25185W        W84446   9.250  18.266   2.186
25186W        W84447  27.190  26.098   0.346
25187W        W84448  10.256  21.131  11.524
25188W        W84449  29.450  29.096  13.887
25189W        W84450  44.486  12.216  13.856
25190W        W84451  40.347  25.516  12.454
25191W        W84452  36.908  23.113   0.804
25192W        W84453  43.407  21.245   5.133
25193W        W84454  23.007  39.878  10.456
25194W        W84455   6.680  30.502  14.416
25195W        W84456  44.865   3.241  12.529
25196W        W84457  14.697  39.358  14.365
25197W        W84458  10.370  39.907   3.834
25198W        W84459  26.674  14.141  10.099
25199W        W84460   3.348  32.401  11.101
25200W        W84461  23.211  23.668   0.728
25201W        W84462  11.810  19.613   3.377
25202W        W84463  36.958  17.641  11.066
25203W        W84464  14.810  38.866   0.828
25204W        W84465  27.603  20.544  10.999
25205W        W84466  41.872  29.611   0.928
25206W        W84467   8.393  17.229   3.252
25207W        W84468  40.915  34.547   3.846
25208W        W84469  22.662  44.272  11.912
25209W        W84470  15.284  19.780   1.272
25210W        W84471  10.697   9.735  14.900
25211W        W84472  44.310  42.341  10.956
25212W        W84473  14.168  21.165  14.885
25213W        W84474   0.789  13.614  14.031
25214W        W84475  39.895   4.807   4.153
25215W        W84476  29.444  38.846   5.192
25216W        W84477   9.687   5.751  14.455
25217W        W84478  14.652   5.816   0.729
25218W        W84479  41.366  21.672   5.318
25219W        W84480  41.404  44.439   2.303
25220W        W84481  43.994  42.507  11.935
25221W        W84482  24.130  17.272  10.453
25222W        W84483  16.673  25.044  10.443
25223W        W84484  30.469   5.436  11.509
25224W        W84485   3.359  32.451  13.993
25225W        W84486   5.408   1.336   1.326
25226W        W84487  25.506   6.352  12.472
25227W        W84488  40.999   7.783   4.691
25228W        W84489  38.063  14.127  12.529
25229W        W84490  33.014  41.831   0.947
25230W        W84491  15.142  29.548  11.610
25231W        W84492  36.388  27.642  13.386
25232W        W84493  43.878   2.414   3.309
25233W        W84494  17.744   8.282   4.777
25234W        W84495  43.889   2.355  13.406
25235W        W84496  39.009  21.044   2.196
25236W        W84497  30.017  42.344   2.843
25237W        W84498   4.216  41.310  12.558
25238W        W84499  25.099   3.362   4.325
25239W        W84500  21.037  15.180   2.852
25240W        W84501  19.197  22.677   1.823
25241W        W84502  30.631  39.950  11.395
25242W        W84503  42.468  14.606   5.804
25243W        W84504  26.131  42.431  11.427
25244W        W84505  19.663  31.036  12.490
25245W        W84506   2.334  25.101  13.458
25246W        W84507  41.883  43.437  14.463
25247W        W84508   3.450  36.439   1.297
25248W        W84509  31.420   2.450  11.903
25249W        W84510   2.948  27.998  11.903
25250W        W84511   5.862  29.121  11.943
25251W        W84512   8.873  40.035  11.097
25252W        W84513  44.994   9.766   4.341
25253W        W84514  21.734   3.358  11.592
25254W        W84515  44.286  29.139   4.793
25255W        W84516  10.247  28.056   5.151
25256W        W84517  18.237  25.702   4.162
25257W        W84518  43.441  20.126   3.864
25258W        W84519   4.830  29.552   1.901
25259W        W84520   5.902  20.588  11.422
25260W        W84521  10.823  12.668   2.206
25261W        W84522  40.949  29.622  10.541
25262W        W84523  11.822  30.641   3.806
25263W        W84524   9.823  25.063  10.596
25264W        W84525  18.596  10.141   3.348
25265W        W84526  29.061  17.083   1.838
25266W        W84527  29.001  38.570  13.012
25267W        W84528  24.662  15.758  13.968
25268W        W84529  13.846  17.282  11.381
25269W        W84530  22.659  14.830   2.686
25270W        W84531   0.285  39.519   0.892
25271W        W84532   0.899  28.981  14.990
25272W        W84533  36.438  15.755  10.469
25273W        W84534  17.781  32.426   0.858
25274W        W84535  38.912  16.682   3.782
25275W        W84536  17.106  32.535  14.804
25276W        W84537  24.514  28.622   4.335
25277W        W84538  38.037  33.037   4.643
25278W        W84539  39.356  15.751  13.474
25279W        W84540  15.135  33.032   4.635
25280W        W84541  21.550  19.267  12.436
25281W        W84542  29.028  35.097   2.738
25282W        W84543   7.373   1.396  10.573
25283W        W84544   9.817   6.682  10.638
25284W        W84545  40.964  40.961  12.580
25285W        W84546  22.713   4.397   0.317
25286W        W84547  30.472  29.038   0.376
25287W        W84548  22.719  38.980  11.880
25288W        W84549  30.441   4.804   2.873
25289W        W84550  17.299  42.331   4.691
25290W        W84551  21.152  11.276  14.769
25291W        W84552  42.912  32.056  14.923
25292W        W84553  24.052  35.456  14.030
25293W        W84554  22.598   0.277  13.996
25294W        W84555  36.370   4.768   0.766
25295W        W84556  22.583  40.823   0.920
25296W        W84557  37.045   5.899   0.943
25297W        W84558   0.382  21.741   0.346
25298W        W84559   9.690  24.173   3.322
25299W        W84560  43.980  16.785  11.896
25300W        W84561  30.024  43.876   1.368
25301W        W84562   4.719  27.941  12.832
25302W        W84563   5.784   6.380   1.935
25303W        W84564  17.104   0.316   2.886
25304W        W84565  39.334   3.820  14.449
25305W        W84566  40.521  41.516  12.384
25306W        W84567   7.848   3.858  11.070
25307W        W84568  18.268  37.036   2.311
25308W        W84569   4.284   8.709   3.737
25309W        W84570  43.963   7.379  12.020
25310W        W84571   8.354  24.559   4.347
25311W        W84572  38.919  20.587  10.981
25312W        W84573  34.502   5.722   1.744
25313W        W84574  32.539  29.066   3.192
25314W        W84575  14.605  24.203   3.868
25315W        W84576  44.504  31.566   1.816
25316W        W84577  32.015  22.529   4.791
25317W        W84578  19.602   5.208   0.287
25318W        W84579   0.912  38.849  12.967
25319W        W84580  16.618  34.387  14.954
25320W        W84581  27.987  30.439  11.878
25321W        W84582  10.226  32.437  11.987
25322W        W84583   2.793  40.361   2.360
25323W        W84584  30.429   1.422  12.571
25324W        W84585  41.525  28.667  13.341
25325W        W84586  21.046  33.011  10.919
25326W        W84587  30.950  32.437  10.977
25327W        W84588  30.967   0.353   3.843
25328W        W84589  13.307  26.610  10.407
25329W        W84590  31.034  15.821   4.773
25330W        W84591  28.932  31.105  14.289
25331W        W84592  35.550  33.611   4.122
25332W        W84593  28.614   2.964   4.731
25333W        W84594  26.166  41.935  13.481
25334W        W84595  44.956  43.989   0.428
25335W        W84596  30.110  17.252   2.283
25336W        W84597  13.307  26.538   3.693
25337W        W84598  18.291  11.727  14.438
25338W        W84599  27.672  20.580   4.627
25339W        W84600  22.156   5.326  14.966
25340W        W84601  33.979  13.301  10.938
25341W        W84602  30.414   2.893   1.723
25342W        W84603   5.416  22.525  11.477
25343W        W84604   6.377  44.451  10.038
25344W        W84605  40.543  31.538  12.385
25345W        W84606  23.609  16.135  11.495
25346W        W84607  12.266  33.915  14.774
25347W        W84608  33.408  37.839  10.596
25348W        W84609  24.018  31.517   1.377
25349W        W84610  14.231  41.911   1.316
25350W        W84611  33.454  11.364  13.347
25351W        W84612  27.500  23.506   2.860
25352W        W84613   0.763  24.523  14.287
25353W        W84614  27.966  24.543  11.549
25354W        W84615   1.775  20.560   2.704
25355W        W84616  19.133  36.580   0.960
25356W        W84617  23.048  12.808  10.576
25357W        W84618   1.887  28.672  10.496
25358W        W84619  32.400  10.772  12.531
25359W        W84620   9.709  37.530  11.434
25360W        W84621  29.627  17.615  11.982
25361W        W84622  24.704  44.000  14.395
25362W        W84623  22.132  11.624  13.511
25363W        W84624  33.570   6.327  10.511
25364W        W84625  32.996  11.791   2.793
25365W        W84626  11.318  41.972   1.818
25366W        W84627   8.894  14.311  10.406
25367W        W84628  26.507  38.465  13.537
25368W        W84629  28.962  26.041  13.014
25369W        W84630  42.811  30.958  11.428
25370W        W84631  37.494  35.989   4.816
25371W        W84632  42.527   4.260  13.539
25372W        W84633   8.749  37.851  10.895
25373W        W84634  27.022  42.318  13.467
25374W        W84635  41.034   9.311  13.359
25375W        W84636  29.608  13.820   1.855
25376W        W84637  21.068   9.769   2.336
25377W        W84638   6.757  40.027   2.783
25378W        W84639  23.732  23.186  12.423
25379W        W84640   9.292  26.971  12.025
25380W        W84641   1.929  20.644   0.861
25381W        W84642  34.035   3.832  11.434
25382W        W84643  31.047  37.468   4.829
25383W        W84644  17.062  33.500   3.828
25384W        W84645  28.965  36.087   4.232
25385W        W84646  30.541  21.738   0.882
25386W        W84647  32.398   5.212  12.456
25387W        W84648  28.150   5.908  11.126
25388W        W84649   8.843  11.291   3.328
25389W        W84650  35.430  20.231   3.158
25390W        W84651  30.435  37.060  14.858
25391W        W84652  24.155  30.476   3.152
25392W        W84653  33.516  37.379   2.744
25393W        W84654  30.989  27.615  10.604
25394W        W84655  21.669  25.045   3.713
25395W        W84656  38.420  31.989   2.684
25396W        W84657   5.745  31.014  13.423
25397W        W84658  27.672   1.973   2.880
25398W        W84659  14.766  11.265  10.542
25399W        W84660  31.968   0.883   2.261
25400W        W84661  10.278   5.258  11.534
25401W        W84662  31.644  23.057   4.341
25402W        W84663  12.211  15.599  14.283
25403W        W84664  14.640   0.374   2.867
25404W        W84665   3.350   2.393   3.824
25405W        W84666   0.925  16.225  12.564
25406W        W84667   5.405  29.576   0.897
25407W        W84668  13.625  21.563  13.048
25408W        W84669  17.066  20.698  10.623
25409W        W84670  35.426  10.783   3.853
25410W        W84671  16.107  26.034   1.341
25411W        W84672  27.073  21.203  11.384
25412W        W84673  34.888  28.096   1.833
25413W        W84674  19.583  27.463  12.095
25414W        W84675  20.242  30.577   2.282
25415W        W84676  17.232   6.820  13.800
25416W        W84677  38.053  16.807   2.238
25417W        W84678  26.065  38.393  12.959
25418W        W84679  36.963  36.425  13.815
25419W        W84680   7.771  32.080   0.733
25420W        W84681  25.540  36.531  12.366
25421W        W84682  41.455  15.206   3.364
25422W        W84683   8.695  11.297  12.428
25423W        W84684  18.052  41.320   2.272
25424W        W84685  13.195  40.306   9.986
25425W        W84686  39.497  34.895   1.902
25426W        W84687  33.051  39.334  12.920
25427W        W84688  18.776  39.031   0.381
25428W        W84689  35.016  19.232  11.489
25429W        W84690   9.176   3.419  12.486
25430W        W84691  18.203  20.244   4.148
25431W        W84692   8.166  32.405  12.378
25432W        W84693   7.188  33.626   1.285
25433W        W84694  39.426   0.751  12.575
25434W        W84695  11.774   8.201   4.169
25435W        W84696   4.864  15.215  12.825
25436W        W84697   1.299   9.699   3.656
25437W        W84698  33.428   5.724  11.396
25438W        W84699  21.107   9.728   1.758
25439W        W84700   0.871   4.715   2.249
25440W        W84701  27.536  18.596  11.108
25441W        W84702  37.511   9.754  10.073
25442W        W84703   8.865  33.402   4.211
25443W        W84704  15.596  37.018  12.370
25444W        W84705  43.998  32.909   0.928
25445W        W84706  30.585  26.477   4.120
25446W        W84707   2.882  25.963  11.396
25447W        W84708  10.846  33.967   2.838
25448W        W84709   9.879  21.043   2.349
25449W        W84710  20.703   4.871  10.529
25450W        W84711   9.244   9.242   2.186
25451W        W84712  25.675  34.949   9.971
25452W        W84713  33.510  34.491  12.439
25453W        W84714   7.679  31.972   9.984
25454W        W84715  11.843  32.024   2.834
25455W        W84716  12.793  36.870  11.474
25456W        W84717  36.562  40.799  12.560
25457W        W84718  26.996  28.625   4.696
25458W        W84719  20.035  39.387   0.397
25459W        W84720  38.073   0.896  12.090
25460W        W84721  19.551  29.105  12.405
25461W        W84722  13.740  24.122   2.852
25462W        W84723  17.760   0.437  14.930
25463W        W84724  44.803  36.868   1.316
25464W        W84725  12.293  19.108   2.845
25465W        W84726  14.258   7.889   0.781
25466W        W84727  43.919  34.022   3.671
25467W        W84728  40.468   2.392  10.919
25468W        W84729  27.175  17.741  11.456
25469W        W84730  27.987  22.627  14.352
25470W        W84731   5.305  34.884   3.660
25471W        W84732  23.505  15.252  10.454
25472W        W84733  16.753  13.818  13.925
25473W        W84734   8.867  30.153  13.858
25474W        W84735  10.364  43.310   1.890
25475W        W84736  17.267  25.557  13.947
25476W        W84737   7.335   4.746  11.973
25477W        W84738  40.913  28.006   3.651
25478W        W84739   1.415  42.388   3.273
25479W        W84740  20.765  19.588  11.107
25480W        W84741  12.638  25.063   1.238
25481W        W84742   5.295  34.905   2.327
25482W        W84743   1.853  23.082   2.695
25483W        W84744   9.824  40.324   3.755
25484W        W84745  34.112  13.643   3.185
25485W        W84746  18.716  29.002  11.413
25486W        W84747  11.270  40.459  14.777
25487W        W84748   1.326  38.871   4.287
25488W        W84749  34.467  11.177   0.459
25489W        W84750  21.520   3.821   2.360
25490W        W84751   9.794  41.857   3.633
25491W        W84752  27.664  11.696   1.291
25492W        W84753   6.360  14.232  12.902
25493W        W84754  37.456  11.348   4.117
25494W        W84755  25.469  10.149  13.315
25495W        W84756  28.481  33.541   3.641
25496W        W84757  16.229  29.547  13.037
25497W        W84758  34.119  22.568  14.393
25498W        W84759  16.121  30.149   4.151
25499W        W84760  44.373  35.102   4.296
25500W        W84761  41.333  18.125  13.894
25501W        W84762  14.309  21.636   5.099
25502W        W84763  31.972  19.653  12.462
25503W        W84764   0.915  29.994   2.874
25504W        W84765  23.704  28.668  11.029
25505W        W84766  27.021  35.515  14.350
25506W        W84767  24.538   1.904   2.364
25507W        W84768   1.922   6.875  14.815
25508W        W84769  42.900  33.957  14.503
25509W        W84770  34.974  11.331  14.783
25510W        W84771   4.730  14.273  10.915
25511W        W84772  27.195   4.938   2.302
25512W        W84773  29.116  28.442  14.905
25513W        W84774  22.566  22.533   0.275
25514W        W84775  18.675   9.685   4.246
25515W        W84776  38.368  27.466   1.364
25516W        W84777   7.263  33.108   0.949
25517W        W84778  43.002  34.475   0.400
25518W        W84779   8.256   4.755   0.911
25519W        W84780  23.616   1.882   0.257
25520W        W84781  41.500   5.855  14.382
25521W        W84782   7.341  29.462  12.355
25522W        W84783   1.296  34.490   3.382
25523W        W84784  41.034   8.305   2.374
25524W        W84785  35.004  42.471   1.899
25525W        W84786   5.271  14.602  13.419
25526W        W84787  25.522  40.384  14.008
25527W        W84788  11.849   9.380   3.862
25528W        W84789  26.191   5.759  11.919
25529W        W84790   2.921  12.280  13.863
25530W        W84791   1.395   2.376  14.493
25531W        W84792  39.346  29.133  12.968
25532W        W84793  39.044  22.240  12.359
25533W        W84794  44.348  35.859   2.379
25534W        W84795  38.483   9.765   0.457
25535W        W84796  21.591  10.780   2.205
25536W        W84797  30.910  41.460   1.339
25537W        W84798  31.131  16.639  12.080
25538W        W84799  35.451  40.401  13.943
25539W        W84800  16.715  42.860   3.368
25540W        W84801  14.592   1.835  14.881
25541W        W84802  37.469   5.430  14.843
25542W        W84803  41.297   9.871  14.320
25543W        W84804  37.371  12.822  14.810
25544W        W84805  25.028  19.175   3.693
25545W        W84806  30.560  10.356   4.827
25546W        W84807  41.833  33.936   4.777
25547W        W84808   7.792   8.847  10.479
25548W        W84809  37.952   7.201  10.143
25549W        W84810  41.795  17.616  12.410
25550W        W84811   2.815  12.836   1.783
25551W        W84812  30.121   2.772  13.902
25552W        W84813  27.115  20.617  10.498
25553W        W84814  11.219   3.430   2.763
25554W        W84815  29.581  33.489   2.344
25555W        W84816   0.365   3.723   4.755
25556W        W84817  35.908  39.962   1.704
25557W        W84818  30.068  39.466  14.457
25558W        W84819  37.580  43.774   3.185
25559W        W84820  18.578  42.356   2.307
25560W        W84821  16.755   4.816  14.398
25561W        W84822  28.173  42.776   0.781
25562W        W84823  22.708  14.240   4.612
25563W        W84824  22.591  31.957   9.996
25564W        W84825   2.795  33.405   1.743
25565W        W84826  24.076  21.686   1.285
25566W        W84827  22.577  40.934  12.042
25567W        W84828  20.065  37.415  12.562
25568W        W84829   0.286  34.466  12.411
25569W        W84830  39.818  19.750   2.837
25570W        W84831  43.894  42.323  14.442
25571W        W84832  18.165  26.958  13.884
25572W        W84833  11.738  17.638   1.327
25573W        W84834  31.501   0.955   0.264
25574W        W84835  10.283   6.758  12.850
25575W        W84836  11.825  20.745   3.820
25576W        W84837  21.090   2.871   1.782
25577W        W84838  13.775  33.461   4.208
25578W        W84839   1.329  38.357   4.790
25579W        W84840  12.617  11.304   3.244
25580W        W84841  17.189  39.321   3.153
25581W        W84842  34.599  14.178   0.790
25582W        W84843  21.555  22.247  13.870
25583W        W84844  33.455  10.780  11.479
25584W        W84845  22.217  13.819   3.318
25585W        W84846  20.658  41.813  11.377
25586W        W84847  38.328  27.053   1.243
25587W        W84848  14.770  19.540  14.288
25588W        W84849  39.555  14.266   0.263
25589W        W84850   8.804  10.767  11.964
25590W        W84851  34.528   9.844   1.248
25591W        W84852  15.797  17.145  10.527
25592W        W84853  15.662   8.212   1.713
25593W        W84854  42.469  22.610   1.836
25594W        W84855  34.890  19.647   0.329
25595W        W84856  43.399  44.311  10.055
25596W        W84857  37.397  22.014  12.435
25597W        W84858  28.553  38.828  14.847
25598W        W84859  29.636  16.219   2.369
25599W        W84860  35.498  18.611  10.893
25600W        W84861   0.964  44.811   0.420
25601W        W84862  18.710  11.638  12.069
25602W        W84863  19.779  38.328   1.318
25603W        W84864  36.857  33.082   2.859
25604W        W84865   1.974  13.615  13.920
25605W        W84866  14.726  10.279  13.957
25606W        W84867  11.668   2.320  10.893
25607W        W84868  33.914  29.039   0.441
25608W        W84869  10.253  22.080  10.533
25609W        W84870  19.079  38.995  10.918
25610W        W84871  22.079  22.699  13.407
25611W        W84872  16.130  29.566   3.313
25612W        W84873  24.083  36.450   3.716
25613W        W84874  11.298  42.348   1.709
25614W        W84875   8.658  19.732   1.927
25615W        W84876  21.681  25.990  13.015
25616W        W84877  31.090   7.847   0.766
25617W        W84878  14.216   9.804  10.532
25618W        W84879  26.598  28.159   1.763
25619W        W84880  35.574  25.107   0.805
25620W        W84881  17.775  33.109   4.313
25621W        W84882   5.883  16.712  11.906
25622W        W84883  15.111  19.190  11.942
25623W        W84884  30.606   1.437   5.265
25624W        W84885  20.255  20.685   2.347
25625W        W84886   3.766  33.987  11.003
25626W        W84887  18.579  44.335  13.900
25627W        W84888  15.754  14.320  11.430
25628W        W84889   6.244  18.603  12.930
25629W        W84890  38.545  16.273   0.877
25630W        W84891  35.357  33.387   4.663
25631W        W84892  26.170   0.920  12.487
25632W        W84893  20.588  26.534   1.860
25633W        W84894  43.374   1.425   4.658
25634W        W84895  43.872  19.663   0.865
25635W        W84896  23.171   3.850   4.142
25636W        W84897  29.496  12.786  12.946
25637W        W84898  31.487   6.758  14.816
25638W        W84899  23.020  33.059  14.760
25639W        W84900  13.229  40.965   2.665
25640W        W84901  37.542  39.532   4.665
25641W        W84902  31.918  44.405   5.293
25642W        W84903  15.806  11.846   1.265
25643W        W84904  32.535  39.436  14.457
25644W        W84905  37.966  35.012  10.909
25645W        W84906  16.639  34.065   3.274
25646W        W84907  23.724   1.832  11.545
25647W        W84908   5.226   9.216   2.378
25648W        W84909  42.517  25.584   0.373
25649W        W84910  10.239  38.406  13.049
25650W        W84911  18.248  13.182  10.963
25651W        W84912   8.798  37.863   0.791
25652W        W84913   3.753   5.299   5.178
25653W        W84914  24.706  11.734  13.053
25654W        W84915  38.411   6.201  13.961
25655W        W84916   4.391  26.101  10.580
25656W        W84917  40.898  24.154   2.370
25657W        W84918  36.505  17.188  12.941
25658W        W84919  34.079  36.386   2.676
25659W        W84920  28.119  19.139  11.949
25660W        W84921  43.966  23.187   0.793
25661W        W84922  17.674  27.562   3.772
25662W        W84923  36.502   3.951  10.992
25663W        W84924   7.264  44.299   3.753
25664W        W84925  13.231   3.363  11.459
25665W        W84926  28.541  17.143  11.435
25666W        W84927  21.169  30.553  14.402
25667W        W84928  15.645  35.362  13.992
25668W        W84929  25.204  39.409  10.942
25669W        W84930   3.442  19.552   1.933
25670W        W84931  35.528  39.954   4.711
25671W        W84932   0.470  14.182  13.369
25672W        W84933  44.826  43.937  11.552
25673W        W84934  35.955  40.379  10.966
25674W        W84935  29.992  34.106   2.411
25675W        W84936  34.880  15.806   0.918
25676W        W84937  24.144   2.734  14.405
25677W        W84938  30.981   1.861  13.980
25678W        W84939  27.496   3.942   9.963
25679W        W84940   0.760  18.291  10.905
25680W        W84941   7.864  31.644   3.723
25681W        W84942   9.273  15.692  14.842
25682W        W84943  30.658  27.519   0.483
25683W        W84944  33.469  35.865  14.344
25684W        W84945  16.744  24.717   5.759
25685W        W84946  27.574  29.610   4.338
25686W        W84947  15.164   3.385   2.396
25687W        W84948  16.186  35.976   2.704
25688W        W84949   5.420   9.389  13.425
25689W        W84950  44.795  35.598   1.418
25690W        W84951  19.125  33.394  13.046
25691W        W84952  31.623  36.360  11.595
25692W        W84953  37.524  38.410   2.315
25693W        W84954  40.867  42.281   1.246
25694W        W84955  12.820  26.560  14.882
25695W        W84956  42.896  20.744   4.302
25696W        W84957  19.196  23.195   4.146
25697W        W84958   6.722  34.944   4.647
25698W        W84959  39.979  29.996   3.331
25699W        W84960  18.711  11.367  10.500
25700W        W84961  37.440  23.648  13.517
25701W        W84962   8.370   1.900   3.213
25702W        W84963  24.136  23.238  14.788
25703W        W84964   7.865  42.284  11.587
25704W        W84965   3.461  25.026   4.263
25705W        W84966  35.578   9.658  12.508
25706W        W84967  35.482  19.190   1.854
25707W        W84968  23.217  17.658   3.222
25708W        W84969   6.349  18.552  11.590
25709W        W84970  18.240  29.964   3.343
25710W        W84971  42.379  27.973   1.858
25711W        W84972  19.058   3.431  12.971
25712W        W84973  24.622  37.448   2.754
25713W        W84974  43.829   3.902  11.920
25714W        W84975  32.415  14.724   2.723
25715W        W84976  18.275  21.574  13.854
25716W        W84977  20.652   5.302   4.781
25717W        W84978  13.217  27.602   2.834
25718W        W84979  25.710  32.591   2.292
25719W        W84980  38.400  41.029   0.813
25720W        W84981  43.294  19.227  14.355
25721W        W84982  42.316  18.607   3.308
25722W        W84983  29.171   2.924   1.388
25723W        W84984  14.244  25.510   2.828
25724W        W84985   4.248   3.935  14.404
25725W        W84986  43.329  42.339   1.292
25726W        W84987  10.707  13.161   2.897
25727W        W84988  36.074  17.778  14.009
25728W        W84989  16.242  29.594   0.914
25729W        W84990   6.752  37.554   0.336
25730W        W84991  38.436  31.577  11.430
25731W        W84992  38.830   7.217   3.294
25732W        W84993  30.430  36.883   1.756
25733W        W84994  33.611  31.642   2.825
25734W        W84995  16.589  37.472  13.397
25735W        W84996  37.446  41.329   0.851
25736W        W84997  43.979  32.068  10.939
25737W        W84998  19.705  14.192   1.934
25738W        W84999  44.906  27.996   4.785
25739W        W85000  31.029  17.703  10.530
25740W        W85001  30.610  22.089   4.783
25741W        W85002  24.046  41.421   4.766
25742W        W85003  41.815   0.465   0.357
25743W        W85004  15.593  35.513   0.360
25744W        W85005   8.891  30.593  11.106
25745W        W85006  38.826   2.817  11.968
25746W        W85007  13.106   6.738  13.917
25747W        W85008   7.791  10.684  12.903
25748W        W85009  18.269   3.233   0.787
25749W        W85010  15.163   9.321   0.748
25750W        W85011  32.041  13.629   4.153
25751W        W85012  15.260  18.150  14.396
25752W        W85013  15.683  28.650  13.436
25753W        W85014  14.204  23.005   4.191
25754W        W85015  41.323   9.780   2.390
25755W        W85016  33.943   1.821  13.340
25756W        W85017   8.760  10.213  10.466
25757W        W85018  19.675   5.712   1.900
25758W        W85019  25.979  30.146   9.608
25759W        W85020  13.262  37.441   5.180
25760W        W85021   8.184  36.522  10.983
25761W        W85022  18.137   7.772   2.748
25762W        W85023  33.969  39.523   1.355
25763W        W85024  14.616  27.608  12.486
25764W        W85025   4.856   5.289   5.321
25765W        W85026  24.043  33.473  12.577
25766W        W85027  31.419  38.868   4.810
25767W        W85028   8.664  34.604  12.021
25768W        W85029  19.593   3.868  12.528
25769W        W85030  35.992   2.239  11.000
25770W        W85031  21.226  33.951   0.368
25771W        W85032  12.310   1.929  11.541
25772W        W85033  25.039  23.639  10.142
25773W        W85034   7.843   1.779  10.988
25774W        W85035   2.959  15.228   0.445
25775W        W85036  42.904  26.069  13.915
25776W        W85037  32.565  15.748   2.286
25777W        W85038  27.494  31.112  14.989
25778W        W85039  20.695  16.281   2.807
25779W        W85040   9.875  29.631   1.407
25780W        W85041  22.112  14.136  12.484
25781W        W85042  33.089  24.011   3.156
25782W        W85043  38.021  15.712   0.298
25783W        W85044  15.295  25.174   5.109
25784W        W85045  23.079  29.999   2.775
25785W        W85046  10.784   4.700   3.233
25786W        W85047  14.634  24.037  10.446
25787W        W85048  16.156   6.317   0.928
25788W        W85049  32.520  26.141   3.186
25789W        W85050  17.274  32.594   4.353
25790W        W85051  14.677  26.034   3.236
25791W        W85052   1.897  12.232  13.332
25792W        W85053  14.817  24.643  13.511
25793W        W85054  35.984  38.004  13.964
25794W        W85055  21.029  23.731  10.074
25795W        W85056  27.601  10.330  12.823
25796W        W85057   1.290  20.557   4.766
25797W        W85058  30.130  11.235  12.412
25798W        W85059   3.250  20.746   1.821
25799W        W85060  19.670  42.943   0.761
25800W        W85061  10.324  17.182  12.908
25801W        W85062  43.450  37.087   0.868
25802W        W85063  28.005  19.665  13.931
25803W        W85064  23.101  11.714   0.386
25804W        W85065  15.144  14.764   2.249
25805W        W85066  42.396  41.788  14.975
25806W        W85067   2.304   1.851   1.249
25807W        W85068  17.627  24.106   0.457
25808W        W85069  22.627  25.008   1.428
25809W        W85070  18.199   9.822  12.451
25810W        W85071   8.794  39.892  13.862
25811W        W85072   7.221  24.588   0.263
25812W        W85073  26.029  41.003   4.602
25813W        W85074   4.349  36.551   0.802
25814W        W85075  35.588  25.494  12.039
25815W        W85076   9.749   2.336  11.441
25816W        W85077  36.381  23.641  11.034
25817W        W85078  15.294   3.229   5.311
25818W        W85079  19.647  10.721  11.925
25819W        W85080  19.267  13.210   4.228
25820W        W85081   0.924  40.811  11.524
25821W        W85082  18.122  13.705  10.411
25822W        W85083  32.520  16.570   4.774
25823W        W85084  20.583  26.076   3.752
25824W        W85085   3.928  34.092   4.295
25825W        W85086  31.142   5.375   1.322
25826W        W85087   3.315  29.652   3.291
25827W        W85088   2.291   5.720   3.246
25828W        W85089  17.764  36.086  13.046
25829W        W85090  36.366   3.809  14.399
25830W        W85091  13.837  25.525  10.608
25831W        W85092  12.764  20.140   0.726
25832W        W85093  36.966  36.007  14.912
25833W        W85094  17.084  18.061   3.255
25834W        W85095   6.750  41.876  14.283
25835W        W85096   0.952  30.641   1.919
25836W        W85097  14.293   8.278   4.305
25837W        W85098  27.490  21.036  10.430
25838W        W85099  29.024   7.758  14.030
25839W        W85100  35.486  26.104  14.389
25840W        W85101  18.578  31.073   4.603
25841W        W85102  14.298  13.305  12.885
25842W        W85103  22.675  16.633  12.046
25843W        W85104  44.774  10.761  11.104
25844W        W85105  19.166  21.564   3.290
25845W        W85106  14.113  19.111   3.251
25846W        W85107  20.574  12.350  12.040
25847W        W85108  26.659   6.688   1.323
25848W        W85109  34.959  26.029   3.265
25849W        W85110   1.362  20.567  11.387
25850W        W85111  16.246  10.310  11.089
25851W        W85112   3.942  37.395   0.367
25852W        W85113  16.195  10.224   1.787
25853W        W85114  30.420  42.812  12.094
25854W        W85115  40.870  41.806  12.947
25855W        W85116  38.848  12.788  14.996
25856W        W85117  30.470   3.905   1.812
25857W        W85118  34.603  33.006   2.185
25858W        W85119  38.563  18.064  13.547
25859W        W85120  40.810   1.783   3.317
25860W        W85121  43.287  37.483  13.385
25861W        W85122  30.519  33.480   0.287
25862W        W85123  39.890  22.601  11.953
25863W        W85124  41.993  21.636  14.428
25864W        W85125  34.447   1.782  12.036
25865W        W85126   1.860  18.212   2.836
25866W        W85127  32.586  24.674  13.452
25867W        W85128   7.880  13.279  11.051
25868W        W85129  13.193   2.862   4.739
25869W        W85130   2.417  11.686  14.923
25870W        W85131  11.167  16.813  13.023
25871W        W85132  41.999   4.241  11.128
25872W        W85133  17.274  23.525   4.602
25873W        W85134  36.865  26.968  10.418
25874W        W85135  44.889  39.816  12.842
25875W        W85136  24.592   7.890   3.740
25876W        W85137  18.746  20.680  14.275
25877W        W85138  19.686  11.224   4.318
25878W        W85139  10.689  28.554   4.743
25879W        W85140  14.100  31.132   2.418
25880W        W85141  18.243  24.082  11.420
25881W        W85142  33.008  27.953  11.561
25882W        W85143   6.313  33.528  11.994
25883W        W85144  29.491  40.361   0.424
25884W        W85145  27.997   3.409  12.825
25885W        W85146  11.344  23.588  10.922
25886W        W85147  37.530   6.410  13.526
25887W        W85148   3.390   2.928   0.782
25888W        W85149   8.726   6.842   1.744
25889W        W85150   6.793  23.718   4.343
25890W        W85151  21.216  37.899   5.224
25891W        W85152   4.826   4.228  14.475
25892W        W85153  31.451  40.359   2.278
25893W        W85154   3.766  13.132   4.296
25894W        W85155  44.955  21.572   2.240
25895W        W85156  36.573  41.404   4.148
25896W        W85157  32.522  15.637  14.420
25897W        W85158   9.255   0.331  12.081
25898W        W85159  32.067  41.855   4.152
25899W        W85160  40.936  29.070  13.398
25900W        W85161   4.716  36.059   5.151
25901W        W85162  38.960   1.948   9.981
25902W        W85163  11.296  29.667   0.877
25903W        W85164   2.263  41.860  14.020
25904W        W85165  30.533  16.240   0.271
25905W        W85166   0.800  42.885  12.824
25906W        W85167  15.219  41.393  11.374
25907W        W85168  43.311  37.014  13.811
25908W        W85169   3.835  14.743  13.914
25909W        W85170  22.510  13.320  11.889
25910W        W85171  43.438  15.761  14.768
25911W        W85172  41.791  24.224   2.777
25912W        W85173   0.966  28.071   3.804
25913W        W85174  12.174   4.885   1.262
25914W        W85175   1.907  35.060  12.019
25915W        W85176   8.818  31.597  14.793
25916W        W85177  33.380  39.422   2.224
25917W        W85178   3.918  13.112   4.637
25918W        W85179  13.617   1.436  11.008
25919W        W85180  34.543  29.988  11.122
25920W        W85181  11.269  38.845   4.241
25921W        W85182  28.098  15.630  14.326
25922W        W85183  24.215  26.997  12.957
25923W        W85184  14.740   7.246  12.443
25924W        W85185  30.108   3.814   9.651
25925W        W85186  39.855  40.862  12.868
25926W        W85187  34.982  42.503  11.959
25927W        W85188  36.542   2.461  12.444
25928W        W85189  19.657  22.667  13.018
25929W        W85190  44.266  32.476   0.768
25930W        W85191   5.909  27.114   0.298
25931W        W85192  20.596  15.089   2.751
25932W        W85193  32.888  33.125  14.360
25933W        W85194  39.391  30.525  14.313
25934W        W85195  44.907  43.992  11.077
25935W        W85196   8.239  19.762  10.533
25936W        W85197  15.088  33.043   1.374
25937W        W85198  40.402  42.373  14.797
25938W        W85199  39.335  20.625  12.862
25939W        W85200  25.063   0.952  12.003
25940W        W85201  41.437  11.755  12.437
25941W        W85202  22.693  40.942  14.397
25942W        W85203   2.951   2.380  12.571
25943W        W85204   8.891   4.866  13.512
25944W        W85205  21.624  20.604  13.546
25945W        W85206  44.395  32.021  12.014
25946W        W85207  22.995  39.055  14.941
25947W        W85208  19.195   7.795   4.807
25948W        W85209  27.499  40.007  12.347
25949W        W85210  33.067  43.960   0.916
25950W        W85211  31.517  33.007   0.471
25951W        W85212  11.629  34.520  14.767
25952W        W85213  23.066  36.584  12.354
25953W        W85214  39.835  31.120  12.833
25954W        W85215  18.222   8.189  12.555
25955W        W85216  37.900  42.326   2.394
25956W        W85217  36.415  34.962  13.032
25957W        W85218  10.198  32.916  10.125
25958W        W85219  30.517  21.120   3.185
25959W        W85220  16.611  28.677  13.979
25960W        W85221   3.953  10.669   0.816
25961W        W85222  25.539   9.315   4.202
25962W        W85223   7.297  27.037   3.653
25963W        W85224  32.987  24.223   4.194
25964W        W85225  37.360  43.857  13.386
25965W        W85226  22.735  10.316  14.449
25966W        W85227  12.215  25.709   1.802
25967W        W85228  36.985  32.477  11.875
25968W        W85229  41.446  37.539  12.014
25969W        W85230  29.456   4.422   0.387
25970W        W85231   9.311  14.121  10.928
25971W        W85232  38.352  35.068  11.464
25972W        W85233   8.897  30.537  13.475
25973W        W85234   7.680  36.961   0.257
25974W        W85235   8.164  34.569  11.072
25975W        W85236  27.469  27.580   3.317
25976W        W85237  35.013  39.328   2.749
25977W        W85238  32.413  35.900  11.552
25978W        W85239  44.009   1.469  13.404
25979W        W85240  15.800  41.401   2.676
25980W        W85241  31.403   5.809  10.910
25981W        W85242  23.551  11.153  11.468
25982W        W85243  42.924   8.265  11.461
25983W        W85244  23.169  17.221  13.819
25984W        W85245   5.806  41.481  13.014
25985W        W85246  15.758  43.381   1.803
25986W        W85247  22.170  29.963  11.398
25987W        W85248   5.392   5.883   3.165
25988W        W85249   0.810  28.993   0.295
25989W        W85250  35.062   6.832  14.017
25990W        W85251   6.277  36.071  10.914
25991W        W85252   6.727  11.653  13.885
25992W        W85253  22.127   4.731  11.067
25993W        W85254  27.480  12.141  13.487
25994W        W85255  36.391  23.196  12.494
25995W        W85256   1.873  29.442   1.854
25996W        W85257  20.162  12.180   3.261
25997W        W85258  12.145  26.174  12.483
25998W        W85259  32.923  27.505   3.296
25999W        W85260  24.124   8.886  12.914
26000W        W85261  30.023  29.588  13.930
26001W        W85262  17.299  28.443  13.486
26002W        W85263  44.353  19.237  14.497
26003W        W85264  35.949  13.348  10.580
26004W        W85265  22.210   9.833  12.073
26005W        W85266  33.113  26.578   4.656
26006W        W85267  38.025   9.331   1.316
26007W        W85268  16.624  11.819   2.267
26008W        W85269  10.750   1.350   0.289
26009W        W85270  11.814  26.460   3.342
26010W        W85271  39.860  11.229  14.760
26011W        W85272  18.077  36.004   3.853
26012W        W85273  42.779  21.184   2.672
26013W        W85274  29.513   3.223   3.783
26014W        W85275  10.188  43.999  13.840
26015W        W85276  38.890   8.403   5.092
26016W        W85277  17.135  15.192  13.308
26017W        W85278  21.090   1.376  11.459
26018W        W85279  34.983  29.473  14.029
26019W        W85280  43.335  30.424  10.009
26020W        W85281  30.015  27.675   1.377
26021W        W85282   1.322  39.043  14.442
26022W        W85283  24.089  20.745   2.309
26023W        W85284  15.325  27.634  13.475
26024W        W85285  12.736  28.613   4.664
26025W        W85286  24.052  36.979  14.362
26026W        W85287   7.765  40.378   4.130
26027W        W85288  11.245  22.710  14.823
26028W        W85289  27.118  19.576  11.390
26029W        W85290  34.588   9.825  14.292
26030W        W85291  27.675  17.106   3.736
26031W        W85292   8.223   2.232  11.559
26032W        W85293   2.774  31.570   1.442
26033W        W85294  43.411  20.212  14.278
26034W        W85295   1.870  39.467  12.040
26035W        W85296   8.712  32.467  11.497
26036W        W85297  32.966  19.119  11.903
26037W        W85298  39.325  17.609   5.304
26038W        W85299  29.031  39.045   1.740
26039W        W85300  28.571   8.284  11.401
26040W        W85301   2.237  43.784  12.404
26041W        W85302  10.688   1.427  13.430
26042W        W85303  40.352  23.211  12.565
26043W        W85304  25.607  34.477  11.961
26044W        W85305   0.837  41.031  12.014
26045W        W85306  26.987  14.629  10.499
26046W        W85307  27.640   8.881  13.429
26047W        W85308   9.171   0.465   3.765
26048W        W85309   4.275   2.384  11.545
26049W        W85310   0.381   6.684  14.029
26050W        W85311  17.624  10.315   1.451
26051W        W85312  30.133   5.195   3.359
26052W        W85313  24.043   0.763  11.096
26053W        W85314   7.275   5.723  14.016
26054W        W85315  38.965  38.907   1.868
26055W        W85316  10.302   1.308   2.862
26056W        W85317  26.016  33.569   2.859
26057W        W85318  38.380  11.752   1.323
26058W        W85319  39.049   1.946   2.777
26059W        W85320  31.069  32.963   4.350
26060W        W85321  43.307  37.080  10.545
26061W        W85322   4.704  21.101  12.491
26062W        W85323  33.084  37.524  10.617
26063W        W85324  21.580  24.051   1.238
26064W        W85325   1.931   6.802   2.273
26065W        W85326  14.336   0.412  11.971
26066W        W85327   8.350  20.233  12.046
26067W        W85328   0.479  44.867   4.608
26068W        W85329  26.996  26.030   2.212
26069W        W85330   8.371   6.425   3.229
26070W        W85331   1.427  34.417  13.888
26071W        W85332  33.106  41.033  13.324
26072W        W85333  34.958  26.695   3.714
26073W        W85334  34.559  40.870   0.406
26074W        W85335  36.006  33.559  11.042
26075W        W85336  39.377  43.317  13.823
26076W        W85337  23.141  12.628   4.804
26077W        W85338   4.913   2.362  13.504
26078W        W85339   8.240  41.994   2.746
26079W        W85340  31.049  35.488   4.763
26080W        W85341  24.686  39.549  11.071
26081W        W85342  20.150  35.052   1.268
26082W        W85343  23.105  21.082  14.499
26083W        W85344  12.321  28.456   4.741
26084W        W85345   7.410  32.410  10.458
26085W        W85346  30.540  32.105  13.536
26086W        W85347  39.832  42.451  14.922
26087W        W85348  38.387  10.320   0.889
26088W        W85349   2.233  35.470  12.450
26089W        W85350  40.929  10.370  12.423
26090W        W85351  42.792  29.492  11.459
26091W        W85352  14.231  38.463   2.278
26092W        W85353  37.933   4.785  13.373
26093W        W85354   3.229  36.376  13.010
26094W        W85355   8.731  43.380   2.782
26095W        W85356   5.904  42.018  13.464
26096W        W85357  44.917  41.388  14.403
26097W        W85358   6.717  31.444   0.415
26098W        W85359  11.364  15.207  12.521
26099W        W85360  31.404  43.837  14.975
26100W        W85361  11.768  14.263  10.953
26101W        W85362  11.637  15.306   0.934
26102W        W85363  39.013   7.697  13.435
26103W        W85364  19.581   0.295   0.825
26104W        W85365   6.787   1.371   4.333
26105W        W85366  32.026  17.673   0.753
26106W        W85367  10.336  27.650   1.247
26107W        W85368   0.845  33.542  14.274
26108W        W85369   5.275  34.451  12.963
26109W        W85370  18.630  33.428  14.345
26110W        W85371  27.019  15.685   1.372
26111W        W85372  25.087  22.574   1.450
26112W        W85373  41.939  35.917  13.909
26113W        W85374  35.074  35.022  11.435
26114W        W85375  16.723  33.495  13.411
26115W        W85376   6.296   9.813   4.692
26116W        W85377  42.012  23.651  12.524
26117W        W85378   4.224  27.673  14.765
26118W        W85379  36.047   0.960   0.255
26119W        W85380  10.210  22.182   9.926
26120W        W85381   3.285  24.660  12.377
26121W        W85382  34.561  32.481  14.963
26122W        W85383  38.350   1.828   1.427
26123W        W85384  31.061   8.888   1.830
26124W        W85385  35.021  20.065  13.818
26125W        W85386  14.116  21.740   0.855
26126W        W85387  19.777  42.415  14.497
26127W        W85388  15.274  42.479   3.288
26128W        W85389  42.862  42.483  13.015
26129W        W85390  19.186  44.309  10.970
26130W        W85391  25.180   6.412   2.389
26131W        W85392  41.899  37.413  14.891
26132W        W85393  21.626   1.366   1.899
26133W        W85394  13.738   4.229   1.767
26134W        W85395  27.048  31.451  10.951
26135W        W85396  22.617  36.472   3.299
26136W        W85397  31.608  26.667  12.000
26137W        W85398  11.767  25.140   4.785
26138W        W85399  19.686  29.070   1.438
26139W        W85400  29.921   4.324   9.924
26140W        W85401  43.361  26.153  12.889
26141W        W85402  26.113   4.852   3.157
26142W        W85403  44.299  19.057  13.501
26143W        W85404  19.211   1.797  14.904
26144W        W85405  28.093  27.059  11.408
26145W        W85406   9.250  38.925  12.028
26146W        W85407  22.127   9.237   4.835
26147W        W85408  16.640  29.968   1.814
26148W        W85409  21.652  44.986   4.302
26149W        W85410  25.155  28.049  12.447
26150W        W85411  32.140  27.006  10.889
26151W        W85412  12.709   4.918  12.066
26152W        W85413  39.504  16.739   3.651
26153W        W85414  21.717  10.797   3.305
26154W        W85415  29.608   4.381  13.878
26155W        W85416  19.115  43.793  14.442
26156W        W85417   1.927   4.422   3.727
26157W        W85418  27.523  18.698  11.960
26158W        W85419  16.301  22.627   0.903
26159W        W85420  28.931  40.422   1.384
26160W        W85421  41.805   7.837  12.342
26161W        W85422  43.335  18.060  12.991
26162W        W85423  42.857  20.723   1.392
26163W        W85424  12.654  42.886   5.208
26164W        W85425  24.056  24.113   2.278
26165W        W85426  42.447  30.626  13.956
26166W        W85427   9.267  21.243   4.725
26167W        W85428  42.415   3.794  14.808
26168W        W85429  25.071   5.399  10.936
26169W        W85430  43.283   7.189  14.474
26170W        W85431  24.976   9.880   3.691
26171W        W85432  27.946  33.085   1.425
26172W        W85433  38.994  37.352  13.473
26173W        W85434  32.977   5.837  10.086
26174W        W85435  38.487  14.717   4.171
26175W        W85436   7.352  38.064  11.560
26176W        W85437  27.126   2.288  10.958
26177W        W85438  33.558  23.700   0.393
26178W        W85439   6.753  22.726  14.759
26179W        W85440  33.877   0.317  10.566
26180W        W85441  38.384  26.190   0.933
26181W        W85442  25.098  41.031  12.838
26182W        W85443  38.033  30.642   3.151
26183W        W85444  26.199   5.759  14.938
26184W        W85445  43.473   7.376   0.364
26185W        W85446   2.722  19.209   0.398
26186W        W85447  38.567   3.241   1.282
26187W        W85448  27.514  38.485  13.511
26188W        W85449  39.811  44.393  14.931
26189W        W85450  23.732  36.459   2.788
26190W        W85451  41.373  20.527  10.143
26191W        W85452  16.084  30.533  10.125
26192W        W85453  29.147  40.891  14.868
26193W        W85454  18.051  23.144  10.546
26194W        W85455  14.179   4.214  13.897
26195W        W85456  20.035  42.390  14.385
26196W        W85457  35.457  12.804  10.947
26197W        W85458  43.302  14.736  12.858
26198W        W85459  41.297   0.762  11.593
26199W        W85460   3.246   4.254   0.851
26200W        W85461  32.986  33.941  12.947
26201W        W85462  30.032  17.674  13.881
26202W        W85463   9.313  16.099  10.960
26203W        W85464  30.590  14.234   0.793
26204W        W85465   5.366  36.364  13.830
26205W        W85466  12.790   6.807   3.793
26206W        W85467   6.311  15.096  11.875
26207W        W85468  31.429  32.480   4.776
26208W        W85469  35.535   9.707   5.247
26209W        W85470  33.405  12.129   2.400
26210W        W85471  42.484   1.454   3.381
26211W        W85472  18.664  17.617  10.987
26212W        W85473  15.267   9.805  13.526
26213W        W85474   4.941  39.923   1.360
26214W        W85475  25.586  24.552  11.504
26215W        W85476  24.030  39.051  11.023
26216W        W85477  19.766   9.801  13.405
26217W        W85478   2.828  42.917   0.947
26218W        W85479  16.660  17.736   1.913
26219W        W85480  27.010  40.832  10.533
26220W        W85481  37.467  41.377  13.323
26221W        W85482  33.980  26.983   4.735
26222W        W85483  15.761  29.525  10.933
26223W        W85484  32.062  20.260   5.246
26224W        W85485  39.853   4.745  14.927
26225W        W85486  22.131  23.098  14.439
26226W        W85487  41.338  31.629   3.758
26227W        W85488   3.725   4.851   3.821
26228W        W85489   8.282  10.641  13.893
26229W        W85490  41.330   4.738   4.245
26230W        W85491  44.359  17.130  10.524
26231W        W85492  14.108  23.003  12.894
26232W        W85493  20.115  41.904   3.231
26233W        W85494  30.530  40.987   2.893
26234W        W85495  24.147  30.135   1.318
26235W        W85496   4.804   8.254  13.501
26236W        W85497   4.755  31.495  11.441
26237W        W85498  13.282  33.928  13.538
26238W        W85499   3.751  38.482  10.531
26239W        W85500   8.898   0.959  11.534
26240W        W85501  29.145  12.688  13.806
26241W        W85502  29.154   8.897   4.319
26242W        W85503   6.740  23.041  14.384
26243W        W85504  44.312   6.347  14.414
26244W        W85505  27.459  13.196  10.546
26245W        W85506  21.125  23.093   2.308
26246W        W85507   2.777   5.346   1.346
26247W        W85508  43.864   1.766   1.921
26248W        W85509  28.621  30.656   0.741
26249W        W85510  44.329  29.028   4.268
26250W        W85511   6.760  34.403   0.438
26251W        W85512  16.093  23.108  14.978
26252W        W85513  13.757   0.982   4.139
26253W        W85514  34.588  23.203  12.038
26254W        W85515  27.136   8.821   2.880
26255W        W85516  14.178   0.413  11.570
26256W        W85517  42.874  21.155   2.262
26257W        W85518  36.450  39.931   0.965
26258W        W85519  24.136  30.915  13.031
26259W        W85520   2.872  26.005   1.827
26260W        W85521  37.521  31.988   2.801
26261W        W85522  40.834  17.608   2.888
26262W        W85523  16.691  34.095   4.296
26263W        W85524  38.402  23.146   2.395
26264W        W85525   1.298  16.292   4.642
26265W        W85526  44.955  24.059   9.663
26266W        W85527   4.339  31.441  10.487
26267W        W85528   4.782   2.784   1.355
26268W        W85529   6.785  20.630   2.183
26269W        W85530  27.603   8.758   0.339
26270W        W85531   2.775  32.634  10.495
26271W        W85532  28.931  29.475  14.840
26272W        W85533  11.638  36.884   4.615
26273W        W85534  24.991  28.049  14.963
26274W        W85535  29.581  11.756  10.410
26275W        W85536  23.687   9.164  10.493
26276W        W85537  27.102  19.234   2.805
26277W        W85538   4.350  32.904  13.518
26278W        W85539  37.544  29.025  12.863
26279W        W85540   9.175  19.685  13.475
26280W        W85541  12.284  10.823   0.464
26281W        W85542  30.062  28.459  10.621
26282W        W85543  12.692  14.310   3.336
26283W        W85544   7.284  28.503  13.978
26284W        W85545   8.761  38.374  11.890
26285W        W85546  25.642   8.386  11.540
26286W        W85547  11.313  13.810   2.370
26287W        W85548   5.757  40.330  12.958
26288W        W85549  26.161  22.238  14.409
26289W        W85550  38.948  23.999   4.121
26290W        W85551  31.928  16.268  10.459
26291W        W85552   2.352  42.359  12.970
26292W        W85553  42.910   0.271  13.857
26293W        W85554  22.634  13.211  12.373
26294W        W85555   9.323  16.254   2.792
26295W        W85556  38.968  33.386   4.733
26296W        W85557  43.890  15.209  11.507
26297W        W85558  44.393  38.359   3.651
26298W        W85559  41.323  34.516  12.360
26299W        W85560  36.553  16.302  11.421
26300W        W85561   9.866  21.156  11.387
26301W        W85562  13.715   9.271  14.928
26302W        W85563  35.090  43.938  13.989
26303W        W85564   6.889  10.289  10.952
26304W        W85565  13.106  25.573   3.375
26305W        W85566  23.027  33.549   3.334
26306W        W85567  39.899   4.385  11.942
26307W        W85568  11.282  29.019   0.394
26308W        W85569  30.159  23.239   4.328
26309W        W85570   4.397  19.669   0.888
26310W        W85571   3.215   9.195  11.908
26311W        W85572  33.074  40.457   2.200
26312W        W85573  13.125  17.179  14.813
26313W        W85574  10.641  23.660   3.743
26314W        W85575  12.223  28.535  12.972
26315W        W85576  33.071  36.412  11.892
26316W        W85577   0.384  34.922  10.579
26317W        W85578   6.407  26.025   0.417
26318W        W85579  15.744  13.346  11.041
26319W        W85580  27.576  37.465   2.314
26320W        W85581  20.591  31.914  14.975
26321W        W85582  10.289  14.707  14.308
26322W        W85583   0.258  11.641   4.258
26323W        W85584  11.739  23.986  13.807
26324W        W85585  40.489  21.067  10.423
26325W        W85586  42.393  36.024  13.824
26326W        W85587  37.983  22.082  10.421
26327W        W85588  37.002   2.447   2.718
26328W        W85589  41.522  17.209   4.125
26329W        W85590  23.734  27.982   0.825
26330W        W85591  25.207   3.917  14.494
26331W        W85592  31.980  43.402   2.890
26332W        W85593   4.241  38.866   4.190
26333W        W85594   3.370  15.139   3.802
26334W        W85595   7.748  34.401  11.074
26335W        W85596  19.588  21.059   3.829
26336W        W85597   6.243  16.799  13.519
26337W        W85598  19.092  13.283  13.837
26338W        W85599  17.746  35.536   1.841
26339W        W85600  16.591  29.648  11.570
26340W        W85601  26.544  31.913  14.481
26341W        W85602  14.627  22.681  10.094
26342W        W85603  20.730  21.685   0.954
26343W        W85604  13.235  10.329  14.026
26344W        W85605  25.174  32.022   1.830
26345W        W85606  21.700  27.086   1.386
26346W        W85607  20.747  19.670  11.983
26347W        W85608  18.111  22.548   1.274
26348W        W85609  42.966  35.407  13.835
26349W        W85610  44.426  12.763   0.289
26350W        W85611  44.857  22.077   0.356
26351W        W85612  10.293  10.660   3.747
26352W        W85613   2.229   3.833   4.169
26353W        W85614  43.990  22.567  13.855
26354W        W85615  14.618  10.287  12.435
26355W        W85616  24.621   7.368   1.430
26356W        W85617  34.448  14.774  11.473
26357W        W85618  38.408  42.497   0.861
26358W        W85619  28.979   2.872   0.281
26359W        W85620  30.562   6.738  14.331
26360W        W85621  27.591  25.687  13.339
26361W        W85622   1.275  43.352  10.636
26362W        W85623  38.465  36.374  10.645
26363W        W85624  22.019  24.698   3.745
26364W        W85625  25.690  21.097   2.221
26365W        W85626   2.722  25.009   0.736
26366W        W85627  22.231  30.099   9.579
26367W        W85628  41.991  12.834   4.835
26368W        W85629  30.952  33.040   3.761
26369W        W85630   2.300  17.624  14.361
26370W        W85631  31.556  38.822  13.934
26371W        W85632  10.270  29.624  14.770
26372W        W85633  26.556  24.138  10.955
26373W        W85634  21.634  25.612  13.456
26374W        W85635  14.727  10.745   4.129
26375W        W85636  11.837  26.622  11.082
26376W        W85637   5.278  12.146   2.725
26377W        W85638  21.553  29.434  11.998
26378W        W85639  44.281  15.120   2.692
26379W        W85640  11.660  14.721   2.811
26380W        W85641  40.038   5.389   3.689
26381W        W85642  14.307   0.807  14.457
26382W        W85643  40.441   0.889  14.285
26383W        W85644  44.941  35.530  14.014
26384W        W85645  21.616  36.571  14.321
26385W        W85646  39.373  19.563   2.374
26386W        W85647   7.309  25.155  11.100
26387W        W85648  42.426  34.440   2.851
26388W        W85649   5.739  44.761  10.892
26389W        W85650  26.959   6.887   2.843
26390W        W85651  43.916  21.594  11.914
26391W        W85652  38.338  21.175  14.433
26392W        W85653  42.804  19.201   0.445
26393W        W85654  11.205  37.060   0.956
26394W        W85655  24.090  39.932  14.508
26395W        W85656  10.765  42.963  12.473
26396W        W85657  31.951  21.260   2.187
26397W        W85658   9.168   1.413   1.274
26398W        W85659  31.930  38.475  12.981
26399W        W85660  32.612  19.201  14.855
26400W        W85661  20.531  27.631  12.949
26401W        W85662  41.388   3.383  13.330
26402W        W85663   0.382  44.367  13.359
26403W        W85664  10.668  22.536   1.413
26404W        W85665  35.448  30.923  10.415
26405W        W85666  37.047  17.678   2.766
26406W        W85667   2.927  39.927  12.526
26407W        W85668  39.058  10.828   4.712
26408W        W85669  33.931   4.213  11.042
26409W        W85670  29.614  35.547   2.369
26410W        W85671  32.022  37.548  10.572
26411W        W85672  39.059  19.719  11.609
26412W        W85673  39.917  33.050  12.462
26413W        W85674  39.991  29.974   1.771
26414W        W85675  32.005  31.550   3.770
26415W        W85676  28.579  25.468  13.880
26416W        W85677   6.904  41.947  12.454
26417W        W85678   6.287  23.617   1.755
26418W        W85679  31.124  26.996  14.418
26419W        W85680  33.408  28.603  12.891
26420W        W85681   1.757  11.762   0.765
26421W        W85682  17.623  37.415   1.892
26422W        W85683   1.433  20.625  12.905
26423W        W85684  20.636  32.568   2.299
26424W        W85685   8.314   7.894  11.081
26425W        W85686  44.453   7.328  14.848
26426W        W85687  38.905   4.347  12.883
26427W        W85688  42.296   8.354  14.871
26428W        W85689  39.027  36.575   0.353
26429W        W85690  27.684  28.564  13.466
26430W        W85691  27.632  22.122  14.419
26431W        W85692  11.794  43.283   4.160
26432W        W85693   2.268  21.657   1.332
26433W        W85694  35.992  31.128  14.933
26434W        W85695   4.386  38.854  11.383
26435W        W85696   3.440  32.423   2.183
26436W        W85697  16.078  20.680   1.772
26437W        W85698   0.466  14.774   3.189
26438W        W85699  32.530   1.310  12.377
26439W        W85700  32.057  22.529  11.480
26440W        W85701  41.889  32.554   2.350
26441W        W85702   4.345  12.758   0.821
26442W        W85703  12.703  25.120   4.167
26443W        W85704  39.837  32.895   4.767
26444W        W85705  39.039   1.441   1.933
26445W        W85706  11.829  43.011   4.738
26446W        W85707  30.432  29.424   1.397
26447W        W85708  10.838  31.924  10.977
26448W        W85709   9.823   4.379   2.212
26449W        W85710  33.009  30.420   0.306
26450W        W85711  20.725  29.079   3.257
26451W        W85712  42.283  30.640   4.752
26452W        W85713   4.223  28.678   3.802
26453W        W85714  35.002  29.070   0.332
26454W        W85715   9.865  26.968   0.395
26455W        W85716  10.282  41.808  11.000
26456W        W85717   3.257  42.510  10.437
26457W        W85718  23.008  21.706   2.316
26458W        W85719  33.932  40.495   1.305
26459W        W85720  35.464   7.765  11.861
26460W        W85721  36.465  35.907   1.786
26461W        W85722   5.784   7.737   0.317
26462W        W85723   8.851  37.856   0.303
26463W        W85724  28.479  30.420   2.286
26464W        W85725   1.735  19.132   2.318
26465W        W85726  38.869  31.063  12.435
26466W        W85727  44.348  11.174  11.435
26467W        W85728   8.188  44.964  12.367
26468W        W85729  18.113  43.921   3.246
26469W        W85730  10.313  17.287   5.215
26470W        W85731   4.782  30.053  10.996
26471W        W85732  10.347  24.677   3.663
26472W        W85733  38.559   4.842   2.322
26473W        W85734   1.400  22.141   2.706
26474W        W85735  10.368   7.807  10.618
26475W        W85736  23.010  15.287  11.579
26476W        W85737  41.392  19.192   4.608
26477W        W85738  10.760  28.144   0.959
26478W        W85739  13.178  19.628   1.896
26479W        W85740  23.616  43.300   4.647
26480W        W85741   8.362  11.243   0.909
26481W        W85742  11.785   2.885   0.433
26482W        W85743  26.605   5.697  12.377
26483W        W85744   1.833  18.058  11.014
26484W        W85745  43.386  28.107  10.522
26485W        W85746  40.816   4.331   2.376
26486W        W85747  19.174  42.823  14.497
26487W        W85748  11.735  40.475   1.740
26488W        W85749  16.117   1.977  13.063
26489W        W85750  29.590  15.788  14.378
26490W        W85751  36.484   9.270  13.450
26491W        W85752   5.369  36.028   3.286
26492W        W85753  40.948  20.732  13.888
26493W        W85754   2.283  15.729   1.375
26494W        W85755  12.311  16.572  11.526
26495W        W85756  10.656  23.088   1.242
26496W        W85757  20.056  44.843   2.895
26497W        W85758  33.446  21.619   4.637
26498W        W85759  32.474  18.683  12.989
26499W        W85760   2.399  12.296  13.389
26500W        W85761  42.949  30.956   0.441
26501W        W85762  37.904   5.326   1.761
26502W        W85763  40.489  10.863   2.893
26503W        W85764  44.831  17.093   0.312
26504W        W85765   4.228  19.645  12.524
26505W        W85766  22.203  33.615   4.306
26506W        W85767  41.482   3.893   2.749
26507W        W85768  28.107  35.881  14.342
26508W        W85769   7.732  34.503   0.306
26509W        W85770  31.945  28.033  12.373
26510W        W85771  33.601  32.630   4.149
26511W        W85772  23.201  20.648  11.519
26512W        W85773  10.322  15.202   0.437
26513W        W85774  10.338  24.627  14.349
26514W        W85775  16.315   2.856  12.503
26515W        W85776  27.956   4.332   1.215
26516W        W85777  19.257   5.211   5.804
26517W        W85778   9.801  27.483  11.588
26518W        W85779  44.307  27.571   0.787
26519W        W85780  29.609  19.063  11.923
26520W        W85781   0.254  18.548  13.421
26521W        W85782  32.610  18.643   2.755
26522W        W85783  29.926  15.773  12.878
26523W        W85784  12.817  43.930   1.839
26524W        W85785  23.175  17.788   1.270
26525W        W85786  42.881  36.371  13.386
26526W        W85787   1.795  10.775   0.277
26527W        W85788  17.684  22.168  10.545
26528W        W85789  40.046  27.657   3.214
26529W        W85790  17.099  28.631  12.462
26530W        W85791  12.235  15.706   3.798
26531W        W85792  24.111   9.757  14.780
26532W        W85793  27.466  12.793  12.956
26533W        W85794   8.858  26.122  10.947
26534W        W85795  26.683   2.338  11.948
26535W        W85796  15.623  31.572   5.146
26536W        W85797  37.075  42.330  14.866
26537W        W85798  19.710  40.929   4.764
26538W        W85799   5.421  29.980   4.141
26539W        W85800  27.582   8.328  12.086
26540W        W85801   0.251  31.954  14.772
26541W        W85802  20.621  36.065  11.502
26542W        W85803  36.916   6.703  12.848
26543W        W85804   1.804  31.599  13.958
26544W        W85805  24.162  17.166  10.077
26545W        W85806  32.935   1.860   2.712
26546W        W85807   1.453  24.010  12.966
26547W        W85808  38.858  32.919   4.163
26548W        W85809  31.127   1.900  12.050
26549W        W85810   8.222  31.578  12.432
26550W        W85811   0.329  43.891   0.749
26551W        W85812  44.504  17.695  13.446
26552W        W85813  26.652  37.838  11.001
26553W        W85814  22.028  37.512  12.963
26554W        W85815  12.853   3.275   4.168
26555W        W85816  24.623  32.932  14.424
26556W        W85817  21.218  32.414  12.826
26557W        W85818  42.455   6.423   1.834
26558W        W85819  11.632  42.898  12.033
26559W        W85820  32.021  17.762   2.205
26560W        W85821  33.075  11.714   0.952
26561W        W85822  36.934  21.077  13.422
26562W        W85823  27.113  16.773   0.735
26563W        W85824  30.479  27.576   1.818
26564W        W85825   1.350  12.614   1.364
26565W        W85826  13.123   8.297   9.560
26566W        W85827  10.653   6.726  10.439
26567W        W85828  24.015  21.520  12.893
26568W        W85829  23.731  31.642  11.875
26569W        W85830  42.821  15.282  13.330
26570W        W85831  34.385   8.357  12.004
26571W        W85832  14.117  24.620   2.805
26572W        W85833  20.663  22.502   0.847
26573W        W85834  22.543  39.897  12.571
26574W        W85835  11.255  22.207   2.248
26575W        W85836  26.033  30.128   0.850
26576W        W85837  34.010  30.994  12.962
26577W        W85838   8.351  23.662   1.261
26578W        W85839  38.958  44.874   2.898
26579W        W85840  32.565  13.219   4.312
26580W        W85841  37.843  10.874   2.188
26581W        W85842   6.857  36.092   3.763
26582W        W85843  28.593  27.650   2.694
26583W        W85844  19.279  33.000   1.922
26584W        W85845  18.578   6.312   1.385
26585W        W85846  17.589  10.638  10.986
26586W        W85847  37.995   2.358  14.277
26587W        W85848  28.997  34.077   1.862
26588W        W85849  26.993  37.361   1.443
26589W        W85850  37.403  20.087  12.529
26590W        W85851  36.082   2.254   3.683
26591W        W85852  44.975   4.346  12.519
26592W        W85853   9.289  42.957  10.946
26593W        W85854  41.538  20.078  13.009
26594W        W85855  26.119  38.497  14.901
26595W        W85856   9.821   9.681  13.956
26596W        W85857   5.790   7.682   2.800
26597W        W85858  25.025  25.149   1.933
26598W        W85859   4.827  12.721   1.365
26599W        W85860  33.878  44.779  13.403
26600W        W85861  39.015  31.582  11.507
26601W        W85862   0.256  39.930  14.916
26602W        W85863  40.800  30.965  14.356
26603W        W85864  15.127  21.102   3.850
26604W        W85865  23.507  41.463  14.381
26605W        W85866  12.762   5.883  12.977
26606W        W85867  22.044  32.107   2.783
26607W        W85868  11.815  19.645  13.828
26608W        W85869  33.874  43.013   1.752
26609W        W85870  31.499  12.277   1.798
26610W        W85871  38.444  32.968  11.528
26611W        W85872   2.249  20.732   2.240
26612W        W85873  13.789  16.602   3.265
26613W        W85874  36.408  16.073   2.837
26614W        W85875  43.788  12.147   0.243
26615W        W85876  41.813  30.645   4.626
26616W        W85877  37.425  22.668   4.194
26617W        W85878  12.769  29.067   2.770
26618W        W85879  16.209   0.270  14.992
26619W        W85880  39.531  42.294   2.250
26620W        W85881   0.894  19.137  12.938
26621W        W85882  31.906  32.074   3.724
26622W        W85883  17.668  12.801  14.027
26623W        W85884  17.091  41.332   4.191
26624W        W85885  19.706  37.989  13.498
26625W        W85886  35.934  24.078  12.414
26626W        W85887  30.637  31.002  14.913
26627W        W85888  36.406   8.657   1.830
26628W        W85889  16.597  20.731   5.673
26629W        W85890  20.641  13.347  12.872
26630W        W85891  26.187   4.910  10.520
26631W        W85892  18.590  29.617  12.399
26632W        W85893  17.194  23.189   0.348
26633W        W85894  24.632  44.428   0.405
26634W        W85895   1.933  37.468   4.684
26635W        W85896  11.331  25.044  13.358
26636W        W85897   8.375  29.612   1.379
26637W        W85898   2.776  33.892   1.918
26638W        W85899  40.903  11.816   1.877
26639W        W85900  41.335   3.745  10.438
26640W        W85901  27.110  27.051   0.747
26641W        W85902  29.507  25.521   0.331
26642W        W85903  22.248  27.096   4.322
26643W        W85904  23.113  41.426  11.073
26644W        W85905  29.014  22.114  13.461
26645W        W85906  37.410  43.487  12.917
26646W        W85907  24.702  22.548   2.827
26647W        W85908  16.089  16.154  13.825
26648W        W85909  13.733  15.703  11.409
26649W        W85910   2.260  35.023  11.583
26650W        W85911   4.235   8.804  13.940
26651W        W85912  19.658   6.704   0.422
26652W        W85913  20.257  18.707  14.291
26653W        W85914  44.437  16.599  14.954
26654W        W85915   6.771  44.475   4.638
26655W        W85916   9.886  13.824   2.770
26656W        W85917  22.714   5.829   0.451
26657W        W85918   8.363  26.072   1.332
26658W        W85919  23.600  42.949  14.277
26659W        W85920  25.143  18.758  12.043
26660W        W85921  30.961  28.504   3.784
26661W        W85922  43.882  40.054   2.876
26662W        W85923  17.610  37.416   4.220
26663W        W85924  34.471   2.419   3.832
26664W        W85925  15.108  35.398  10.594
26665W        W85926  33.957   8.841   1.794
26666W        W85927  11.666  20.034   4.659
26667W        W85928  15.204  25.042   4.346
26668W        W85929   3.804  10.163  14.431
26669W        W85930   6.260  11.848  10.156
26670W        W85931  27.658  43.020   3.643
26671W        W85932  30.082   6.921  11.466
26672W        W85933  15.094  24.026  14.869
26673W        W85934  41.470  28.557  14.456
26674W        W85935   4.396  23.690   4.338
26675W        W85936  21.195  20.044  10.613
26676W        W85937   1.241  21.080  11.025
26677W        W85938  35.993  24.480  14.477
26678W        W85939  17.176  17.109   3.662
26679W        W85940  40.017  40.405   2.884
26680W        W85941  22.137  44.470   3.648
26681W        W85942   9.302  25.052  10.896
26682W        W85943   1.387  23.035  14.475
26683W        W85944  26.003  12.345   0.364
26684W        W85945   1.421  27.056  12.874
26685W        W85946  32.063  12.670  12.019
26686W        W85947  23.581  33.890  11.446
26687W        W85948  10.150  14.754  11.925
26688W        W85949  18.664  28.523  14.305
26689W        W85950  29.542  20.582   3.355
26690W        W85951  20.085  15.172  14.858
26691W        W85952  20.161   4.345  13.855
26692W        W85953   5.788  34.537   0.425
26693W        W85954   3.386  30.490   3.354
26694W        W85955  10.294  41.946   2.333
26695W        W85956  43.876  27.053  12.055
26696W        W85957   2.936  35.442  14.420
26697W        W85958  35.046  22.728   5.223
26698W        W85959  42.515  18.657  12.948
26699W        W85960   2.862  11.232   1.224
26700W        W85961  33.528  44.265  13.016
26701W        W85962  33.381  22.572   2.364
26702W        W85963   6.255  40.829  13.854
26703W        W85964  31.030  24.172  12.469
26704W        W85965  18.581  18.174  11.115
26705W        W85966  28.122  33.536   4.132
26706W        W85967  32.430  44.484  12.986
26707W        W85968  17.224  32.522  13.988
26708W        W85969  13.805  14.312  11.379
26709W        W85970   0.845   9.301  10.901
26710W        W85971  39.001  25.185  11.889
26711W        W85972  28.447   4.903   4.346
26712W        W85973  14.220   9.292  14.848
26713W        W85974  28.931  12.696   2.757
26714W        W85975  17.229  16.690  12.353
26715W        W85976  33.894  32.408  10.937
26716W        W85977  22.622  38.444  12.094
26717W        W85978  16.761  11.735  11.001
26718W        W85979  32.106  17.758  14.889
26719W        W85980  28.998  26.505   0.312
26720W        W85981  40.383  34.046   4.651
26721W        W85982  38.546  15.633   1.267
26722W        W85983  44.908  37.477   0.871
26723W        W85984  28.601  23.996   1.878
26724W        W85985   1.301  13.211  14.774
26725W        W85986  10.247  19.675   4.214
26726W        W85987  28.142   2.441  12.023
26727W        W85988   1.476  11.279   3.198
26728W        W85989  14.200  41.486   0.786
26729W        W85990  42.447  10.722  11.436
26730W        W85991  15.807  44.494  12.344
26731W        W85992   8.657  37.548   0.941
26732W        W85993  34.063  25.156  11.877
26733W        W85994  44.949   1.315  14.767
26734W        W85995  40.924  24.670   5.703
26735W        W85996  39.333  32.099  14.810
26736W        W85997  12.664  16.567   3.851
26737W        W85998  29.584  43.286  11.001
26738W        W85999   3.349  40.028   0.251
26739W        W86000   4.725  35.873   4.790
26740W        W86001   4.916  20.604  13.060
26741W        W86002  21.644  32.477  14.864
26742W        W86003  15.683   5.763   0.887
26743W        W86004  34.966  41.890   1.259
26744W        W86005  21.090   9.793  12.520
26745W        W86006   4.890   5.687  12.341
26746W        W86007   8.697   6.361  13.895
26747W        W86008  28.441  32.104  10.904
26748W        W86009  11.351   3.250  10.913
26749W        W86010  29.009   2.867   4.694
26750W        W86011  18.155  26.650  14.869
26751W        W86012  26.586  25.107  11.919
26752W        W86013  30.121   7.414   3.332
26753W        W86014   3.258  15.303   1.361
26754W        W86015   6.218  20.724   4.273
26755W        W86016  16.581  42.001  10.620
26756W        W86017  32.523  39.476   1.424
26757W        W86018  34.044  16.641  14.279
26758W        W86019  19.570  39.051   2.682
26759W        W86020   2.359  25.128   2.782
26760W        W86021  17.735  32.042  13.444
26761W        W86022   3.228  15.729   2.255
26762W        W86023  16.202  19.737  14.447
26763W        W86024  39.512  29.424   4.268
26764W        W86025  17.717  17.753   3.326
26765W        W86026  34.417  18.268   4.243
26766W        W86027  28.485   7.788   4.123
26767W        W86028  28.562   1.283   0.742
26768W        W86029  11.127  40.880  14.306
26769W        W86030  20.678  34.032   3.778
26770W        W86031  33.380  34.042  12.443
26771W        W86032  24.664  18.736  10.498
26772W        W86033  35.093  19.081  14.870
26773W        W86034  21.229   1.471   4.255
26774W        W86035   6.294  30.457   4.700
26775W        W86036  20.604  28.613   4.225
26776W        W86037   8.332  15.110   4.687
26777W        W86038  20.237  24.599  13.876
26778W        W86039  20.128  44.870   4.732
26779W        W86040  34.576  16.075   1.305
26780W        W86041  28.117  15.783   1.450
26781W        W86042   5.224  12.738   3.794
26782W        W86043  14.202  13.670   3.253
26783W        W86044  31.513  29.953  10.927
26784W        W86045  26.457   8.811   2.182
26785W        W86046   9.361  22.647   5.263
26786W        W86047  12.304  42.489  10.933
26787W        W86048   7.173  19.673   1.436
26788W        W86049   1.423  41.966  13.309
26789W        W86050   0.303  43.508   3.381
26790W        W86051  17.648  33.036  14.458
26791W        W86052  43.831  42.502   2.243
26792W        W86053  32.912   6.326  14.801
26793W        W86054  31.426  20.181  14.967
26794W        W86055  39.833  14.260  13.424
26795W        W86056   5.318   0.817  10.606
26796W        W86057  33.981  10.244  13.005
26797W        W86058  44.322  34.548   4.290
26798W        W86059  34.419  15.321   3.249
26799W        W86060   0.472  31.151   1.850
26800W        W86061  31.459  23.143  13.423
26801W        W86062   9.783  17.121  14.028
26802W        W86063  39.061  10.650   1.335
26803W        W86064  35.524  28.164   0.840
26804W        W86065  36.387  17.155  13.380
26805W        W86066  42.384  27.487   3.200
26806W        W86067  43.445  23.042   3.240
26807W        W86068  31.032  11.283   1.396
26808W        W86069  34.428  31.565  11.403
26809W        W86070  20.615  33.557  10.557
26810W        W86071  27.960  18.273  12.565
26811W        W86072  11.719   8.296   1.397
26812W        W86073  14.787  14.807  12.421
26813W        W86074  34.935  38.569  12.084
26814W        W86075  38.364   0.894   3.217
26815W        W86076   3.947  44.442  13.533
26816W        W86077   9.294  43.781   3.369
26817W        W86078  33.907  20.151   2.752
26818W        W86079  43.322  27.191   2.817
26819W        W86080   7.760  40.995   3.862
26820W        W86081  16.689   3.291  13.981
26821W        W86082   9.865  31.551  13.479
26822W        W86083   8.377  38.387   0.269
26823W        W86084  15.090   2.255   3.341
26824W        W86085  15.769   5.295   2.893
26825W        W86086  43.319  35.600   3.797
26826W        W86087  35.561  16.181  14.971
26827W        W86088  44.439  37.896  14.958
26828W        W86089  31.902  34.030  11.411
26829W        W86090   1.338  35.904   4.681
26830W        W86091  35.599  11.816   9.670
26831W        W86092  25.979  16.275  10.591
26832W        W86093  44.868  43.481  12.411
26833W        W86094  32.505  32.557   2.252
26834W        W86095  27.661  16.777   3.740
26835W        W86096  30.961  44.371   1.721
26836W        W86097  25.624  29.097  14.951
26837W        W86098  15.799   1.844  10.609
26838W        W86099  15.218  41.428   0.299
26839W        W86100  17.275  37.064   4.289
26840W        W86101  36.455  19.749   1.766
26841W        W86102   4.351  15.293   1.763
26842W        W86103  14.723  35.459  12.915
26843W        W86104  14.293  28.099   2.283
26844W        W86105   4.916  24.593  12.934
26845W        W86106  29.124  33.503   0.324
26846W        W86107   7.908   0.806  10.978
26847W        W86108  29.486   4.802   1.825
26848W        W86109  12.667  42.396  11.927
26849W        W86110  31.055  22.716  14.427
26850W        W86111  22.182  41.399   3.699
26851W        W86112  20.725  27.076  10.422
26852W        W86113  14.261  39.462  14.318
26853W        W86114  14.262  42.841   1.925
26854W        W86115   8.195  35.959   1.712
26855W        W86116  30.554  31.149  12.483
26856W        W86117  22.635   3.214   3.209
26857W        W86118  40.951   2.385  10.618
26858W        W86119  16.590  33.542   1.444
26859W        W86120   7.760  24.668   1.437
26860W        W86121  22.210  11.371  13.503
26861W        W86122  43.842  43.977  11.973
26862W        W86123  12.183  38.432   0.909
26863W        W86124   3.935   5.924   1.932
26864W        W86125  21.171  27.951  11.417
26865W        W86126   1.414  37.034  12.533
26866W        W86127  23.625  43.016   2.710
26867W        W86128  40.346  28.666  11.103
26868W        W86129  16.728   8.274  12.525
26869W        W86130   3.876  38.415  11.522
26870W        W86131  44.422   4.844  14.513
26871W        W86132   6.351  38.387  13.518
26872W        W86133   4.925   4.906   0.879
26873W        W86134  19.765  31.615   0.362
26874W        W86135  33.601  18.695   0.951
26875W        W86136  26.639   2.348  14.927
26876W        W86137  14.645  44.356   2.891
26877W        W86138   4.723   4.448   4.723
26878W        W86139  26.537  26.996   4.165
26879W        W86140  24.702   8.824   4.211
26880W        W86141  21.147  23.654  14.986
26881W        W86142   6.278  11.622   1.229
26882W        W86143  34.863  41.533   0.765
26883W        W86144   2.782   9.347  14.915
26884W        W86145  35.085  32.023   9.924
26885W        W86146  38.331  18.640  13.446
26886W        W86147  24.530  36.844   4.667
26887W        W86148  33.928   4.314  14.868
26888W        W86149  18.176  29.032   2.829
26889W        W86150  19.717   7.796   0.919
26890W        W86151   4.291  35.515  14.466
26891W        W86152  22.602  26.083  10.961
26892W        W86153   4.783  40.549  14.914
26893W        W86154  36.049  12.338   0.325
26894W        W86155  30.603  23.068  14.357
26895W        W86156  21.679  19.589  14.501
26896W        W86157  32.137  18.774  13.873
26897W        W86158  41.811  17.113   0.343
26898W        W86159  22.700   8.250  14.841
26899W        W86160  31.640  30.006   4.697
26900W        W86161  38.398  19.542  12.474
26901W        W86162  34.968  42.887  10.141
26902W        W86163  20.189  22.159  14.348
26903W        W86164   1.317  33.567   4.765
26904W        W86165  28.049  30.975   1.781
26905W        W86166  40.833  13.308   3.146
26906W        W86167  43.790  12.693   3.253
26907W        W86168  26.097  13.192  12.364
26908W        W86169   9.696  44.270  11.518
26909W        W86170  28.651  11.369  14.331
26910W        W86171  25.688  32.886  11.928
26911W        W86172  26.159  39.831   1.275
26912W        W86173  21.235  41.865   2.732
26913W        W86174  20.225   5.328   5.289
26914W        W86175  18.282  10.851   1.377
26915W        W86176  40.336  32.420   9.546
26916W        W86177   9.322   9.149   3.768
26917W        W86178  32.432   8.719   2.272
26918W        W86179  43.332  16.143   2.775
26919W        W86180  22.595  27.160  11.917
26920W        W86181  16.615  34.118   0.811
26921W        W86182  29.919  33.510  11.006
26922W        W86183  31.481   4.234   0.415
26923W        W86184   9.391   2.917  12.830
26924W        W86185   5.210  44.319   2.763
26925W        W86186  24.670   3.375   2.777
26926W        W86187  44.418  42.440  10.626
26927W        W86188  37.022  20.558  13.429
26928W        W86189  32.491  34.500  10.629
26929W        W86190  22.098  17.570  10.528
26930W        W86191  13.108  27.043   1.244
26931W        W86192   2.722  43.988   2.800
26932W        W86193  28.665  12.622   2.816
26933W        W86194  31.076  42.892  11.015
26934W        W86195  28.496  40.336  11.876
26935W        W86196   3.361  13.612   1.341
26936W        W86197  21.669  43.875   1.897
26937W        W86198   7.372  17.273  12.340
26938W        W86199  36.413  40.953   4.788
26939W        W86200  33.890  27.992   1.784
26940W        W86201  21.557  28.664  10.424
26941W        W86202   4.421  38.523  14.455
26942W        W86203   8.323  42.495  14.777
26943W        W86204   6.245  13.766   1.916
26944W        W86205  27.650   0.376  10.998
26945W        W86206  25.977  14.770   1.866
26946W        W86207   1.900  36.478   0.395
26947W        W86208   9.368  26.133  13.545
26948W        W86209  17.178  44.861  14.867
26949W        W86210  33.002   4.302  12.049
26950W        W86211  36.407  13.179  12.980
26951W        W86212  24.531  29.940  13.892
26952W        W86213  41.298  25.181   2.253
26953W        W86214  25.095  15.651  11.534
26954W        W86215   6.240  25.581   0.295
26955W        W86216  19.756  12.641  13.028
26956W        W86217  40.022   8.222   4.174
26957W        W86218  44.478   1.368   3.796
26958W        W86219  43.835  39.448  12.831
26959W        W86220   9.782   1.743   3.810
26960W        W86221  17.213  15.779  10.917
26961W        W86222   3.231  28.612   2.372
26962W        W86223  19.552  34.937  14.807
26963W        W86224   7.297   0.799   1.451
26964W        W86225  42.371  34.444  12.075
26965W        W86226  34.000  20.183  13.006
26966W        W86227  38.405   3.273  11.034
26967W        W86228   2.468   8.254  12.838
26968W        W86229  18.133  15.231  12.837
26969W        W86230  14.332  25.594  12.486
26970W        W86231  31.473  34.526  10.631
26971W        W86232  29.071  25.081  12.347
26972W        W86233   9.802   1.851   0.393
26973W        W86234  15.702  26.535  13.485
26974W        W86235  37.412  19.152   1.875
26975W        W86236  10.309   5.800  13.946
26976W        W86237   2.880  41.354  13.814
26977W        W86238  29.588  13.636   0.272
26978W        W86239  22.575  40.532  13.001
26979W        W86240  15.288  36.968   1.292
26980W        W86241  30.511  15.631  10.443
26981W        W86242   3.947  37.363  14.456
26982W        W86243  36.453  18.189   5.212
26983W        W86244  30.137   3.421  11.085
26984W        W86245  28.592  35.466  10.571
26985W        W86246  15.746  10.208   3.149
26986W        W86247  26.004   2.837   2.348
26987W        W86248  24.067  14.125   0.917
26988W        W86249  11.218   0.356   4.607
26989W        W86250  14.745  12.732  13.529
26990W        W86251  33.583   7.764  14.789
26991W        W86252  38.501  42.455  14.891
26992W        W86253  34.110  43.434   3.337
26993W        W86254   5.754  34.921  12.898
26994W        W86255  25.638   6.282  11.991
26995W        W86256  11.701  26.161   0.809
26996W        W86257  40.997   5.725  11.865
26997W        W86258  19.569  40.981   0.476
26998W        W86259  19.175  14.317   2.817
26999W        W86260  19.688  42.865   3.752
27000W        W86261  25.507  13.338   0.457
27001W        W86262   0.326  40.536   3.779
27002W        W86263  40.511   9.256   3.818
27003W        W86264  15.247  24.686   2.290
27004W        W86265  14.815   7.668  12.063
27005W        W86266  43.445   2.918   0.777
27006W        W86267  14.130  27.488  13.352
27007W        W86268  44.477  37.011  12.827
27008W        W86269  29.155  43.429  12.069
27009W        W86270  22.747  35.053   5.117
27010W        W86271  31.097  39.537  13.039
27011W        W86272   3.412  19.589  10.568
27012W        W86273   1.465  40.909  12.420
27013W        W86274   8.853  31.989   2.297
27014W        W86275   0.891  10.684   3.818
27015W        W86276  34.007  24.641   4.310
27016W        W86277   1.769   2.738  13.377
27017W        W86278  26.192   6.289   2.331
27018W        W86279   0.283  24.136  11.501
27019W        W86280  44.500  31.444   4.124
27020W        W86281  14.819  44.488  14.435
27021W        W86282   4.740  14.330  14.962
27022W        W86283  40.396  22.593  13.344
27023W        W86284   1.482  29.016  11.028
27024W        W86285   7.317   8.378   3.202
27025W        W86286  12.765   0.248  13.036
27026W        W86287  36.951   7.902  14.938
27027W        W86288  14.804   4.222   0.443
27028W        W86289  12.703  17.188  14.990
27029W        W86290  26.617  31.552  13.491
27030W        W86291  14.226   2.450  10.631
27031W        W86292  34.928  38.925  12.012
27032W        W86293  26.638  37.065   2.312
27033W        W86294  29.966   4.726   1.894
27034W        W86295   8.900  23.023  12.043
27035W        W86296   5.789   8.399   0.255
27036W        W86297  19.567  22.052  11.937
27037W        W86298  39.920  28.469  12.894
27038W        W86299  14.680  28.486  14.001
27039W        W86300   7.783  35.867   3.278
27040W        W86301  44.905   4.266  10.418
27041W        W86302  15.646   7.373   2.707
27042W        W86303  15.315  43.362   2.791
27043W        W86304  18.636  42.992  13.022
27044W        W86305   1.796  23.546   2.753
27045W        W86306  29.457  33.116   3.778
27046W        W86307  29.011   6.261  10.477
27047W        W86308  40.522   0.979   9.969
27048W        W86309  23.518  19.749   3.364
27049W        W86310  25.529  42.484   0.953
27050W        W86311  34.938   5.740  14.503
27051W        W86312   2.235  42.891   2.303
27052W        W86313   8.310   8.867  10.519
27053W        W86314  40.446  19.704  13.942
27054W        W86315  25.531  31.514  13.361
27055W        W86316   7.833  10.310  11.558
27056W        W86317   2.961  22.187  11.119
27057W        W86318  42.471  27.661   1.295
27058W        W86319  29.548  11.190  13.463
27059W        W86320  31.572   8.299   5.744
27060W        W86321   6.884  10.858  10.897
27061W        W86322   2.824  17.668   0.820
27062W        W86323  27.478  34.102   1.828
27063W        W86324  44.921  13.292   1.705
27064W        W86325  18.227  16.194  14.013
27065W        W86326  19.200   4.429  11.949
27066W        W86327  10.280  11.830  13.541
27067W        W86328  19.196   7.767  13.396
27068W        W86329  23.699   3.440  12.394
27069W        W86330  42.518  14.280  13.989
27070W        W86331  38.413  22.725   3.664
27071W        W86332  37.030  16.617  13.953
27072W        W86333   9.301   6.848   2.354
27073W        W86334  26.579  40.465   1.394
27074W        W86335  38.992  18.123  14.483
27075W        W86336  42.430  42.401  11.882
27076W        W86337  34.928  12.284  13.478
27077W        W86338   6.810  31.935  10.478
27078W        W86339   1.959   7.258   1.449
27079W        W86340  10.314  32.417  10.563
27080W        W86341  31.016  20.041  10.957
27081W        W86342  31.498  17.083  14.432
27082W        W86343  32.410  25.621  12.450
27083W        W86344   1.778  11.224  13.000
27084W        W86345  34.423  27.153  10.544
27085W        W86346  24.153  42.304   3.788
27086W        W86347  14.248   9.860   1.729
27087W        W86348   1.799   4.317   1.861
27088W        W86349  41.833   5.836  13.482
27089W        W86350  14.108  28.937  14.440
27090W        W86351  21.557   0.345   4.202
27091W        W86352  39.026  27.473  10.939
27092W        W86353   4.220  11.781   2.856
27093W        W86354   4.369  18.063  14.782
27094W        W86355  41.040  38.536  14.363
27095W        W86356   0.775  40.047  11.075
27096W        W86357  15.819  39.349  11.959
27097W        W86358  24.141  27.154   2.826
27098W        W86359  28.080  31.927   0.947
27099W        W86360  25.547  26.621  14.285
27100W        W86361  14.203  28.460   4.808
27101W        W86362  25.180  34.400  13.323
27102W        W86363  36.590  38.535  13.961
27103W        W86364  42.362   2.234  10.562
27104W        W86365  14.644   2.920   3.751
27105W        W86366  25.140  38.389   0.265
27106W        W86367   3.828  39.552  10.523
27107W        W86368  42.313  13.338  14.780
27108W        W86369  44.927   1.272  10.567
27109W        W86370  25.127  43.774  14.947
27110W        W86371   7.392  17.709  11.863
27111W        W86372  33.485  28.522   1.855
27112W        W86373  29.171   0.271   2.893
27113W        W86374   3.419   5.815  13.846
27114W        W86375  12.663   1.244  10.998
27115W        W86376  42.812  43.373   2.730
27116W        W86377  40.831  12.659  11.980
27117W        W86378  17.668  29.107   0.359
27118W        W86379  16.754   9.303  14.292
27119W        W86380  32.553  15.775  14.787
27120W        W86381  22.616  18.107   4.312
27121W        W86382  21.559  29.103   1.773
27122W        W86383   7.210  31.916   3.292
27123W        W86384  34.489   6.901   3.279
27124W        W86385  35.506  19.146  11.508
27125W        W86386  15.257   5.249   1.767
27126W        W86387  15.654   2.452  14.290
27127W        W86388  10.355  42.300   3.788
27128W        W86389  32.014   2.882  14.415
27129W        W86390  26.956  40.391  14.374
27130W        W86391  20.523   7.805   0.302
27131W        W86392  14.099  32.888  13.346
27132W        W86393  18.296  16.709   0.292
27133W        W86394  23.193  17.729  11.948
27134W        W86395  11.674  10.301   0.259
27135W        W86396  25.583  12.260  14.029
27136W        W86397  27.117   2.768  12.935
27137W        W86398  32.054   5.215  11.961
27138W        W86399  31.450  32.490  11.856
27139W        W86400  26.466  33.095   1.881
27140W        W86401  34.109  13.830   0.768
27141W        W86402   1.847  36.970  12.523
27142W        W86403  15.283   1.787   1.842
27143W        W86404   6.904  21.025  10.643
27144W        W86405  27.497  34.068   3.712
27145W        W86406   8.841  38.487  12.387
27146W        W86407  18.127  22.017   3.797
27147W        W86408  25.514  39.398  14.013
27148W        W86409  21.058  44.775   2.816
27149W        W86410  42.355   9.746   2.376
27150W        W86411  36.898  37.469   3.167
27151W        W86412  43.974   1.845  14.869
27152W        W86413  33.969   7.892  11.957
27153W        W86414   2.311   9.791  12.353
27154W        W86415   4.846   8.243  14.433
27155W        W86416  15.778  37.351  11.609
27156W        W86417  29.467  44.770   2.879
27157W        W86418  22.616   7.385  10.550
27158W        W86419  13.168  43.347  10.405
27159W        W86420  41.803   9.840  10.608
27160W        W86421  21.529  31.621  12.910
27161W        W86422  31.067   5.389  13.315
27162W        W86423  32.118   9.685   3.317
27163W        W86424   5.366  42.909   5.179
27164W        W86425  34.513  13.727  13.824
27165W        W86426   1.864  22.679  14.824
27166W        W86427  26.038  14.340   0.292
27167W        W86428  24.005  38.465   4.213
27168W        W86429  27.995  24.059  11.020
27169W        W86430  15.809  10.191  14.292
27170W        W86431  37.878  23.011   1.869
27171W        W86432   6.254  39.478   3.761
27172W        W86433  26.040  35.868  11.982
27173W        W86434  15.766  33.921  11.034
27174W        W86435   1.401  42.458  11.094
27175W        W86436  37.490  11.776   5.197
27176W        W86437  29.931  10.343  11.922
27177W        W86438  27.484  19.581   0.908
27178W        W86439  11.750  31.142  13.514
27179W        W86440   4.752  11.205   5.081
27180W        W86441   4.844  42.284   3.255
27181W        W86442  29.101  44.463  11.401
27182W        W86443  43.381  12.808   2.819
27183W        W86444  42.318  39.905   3.292
27184W        W86445   8.812  32.108   3.839
27185W        W86446  13.340  34.030   1.727
27186W        W86447  41.489  10.693   3.821
27187W        W86448   0.941  25.675   4.192
27188W        W86449  41.923  12.628  12.828
27189W        W86450  44.413   1.859  13.910
27190W        W86451  12.239  37.929  12.566
27191W        W86452  24.707  13.109   0.410
27192W        W86453  29.942  14.768   4.794
27193W        W86454  23.139  13.789  10.522
27194W        W86455  40.807  37.070  12.425
27195W        W86456  13.655  36.472   3.329
27196W        W86457  24.097   2.450  10.943
27197W        W86458   5.278  14.760   4.719
27198W        W86459   4.446   8.702  11.377
27199W        W86460   2.446   8.791   2.371
27200W        W86461   1.430  15.732  13.355
27201W        W86462   0.274  13.784  11.115
27202W        W86463   9.748  37.855   2.372
27203W        W86464  26.542  13.202   4.178
27204W        W86465   1.420   5.722   3.844
27205W        W86466  23.533  24.598   0.349
27206W        W86467  41.799   6.315   0.911
27207W        W86468  30.426  38.481   2.251
27208W        W86469   1.285  34.993   0.755
27209W        W86470   1.323  17.740   2.777
27210W        W86471  29.661  42.991  13.010
27211W        W86472  19.188   2.951  14.030
27212W        W86473  36.436   0.953  14.460
27213W        W86474  16.721  43.423   3.633
27214W        W86475   1.962  28.475  13.539
27215W        W86476   2.786  15.670   2.355
27216W        W86477  35.391  21.579   4.322
27217W        W86478  44.757  17.616   4.675
27218W        W86479   4.789  34.435   3.334
27219W        W86480  10.842  19.676   2.875
27220W        W86481  28.521   6.789   4.614
27221W        W86482   7.355  27.197  11.068
27222W        W86483  43.496  42.950  13.949
27223W        W86484  10.333   8.763   4.648
27224W        W86485  40.407  14.781  12.532
27225W        W86486  22.020  13.647  12.951
27226W        W86487  13.239  18.264  10.914
27227W        W86488  19.048   8.662   0.387
27228W        W86489  31.469   6.200  13.031
27229W        W86490  25.994  26.547  13.328
27230W        W86491   7.808  22.063  10.465
27231W        W86492  27.940  16.768   0.392
27232W        W86493  23.530  19.153  11.410
27233W        W86494   0.863  15.231  11.494
27234W        W86495  32.088  14.249   0.863
27235W        W86496  24.149  41.819  11.936
27236W        W86497   4.325  20.568  11.945
27237W        W86498  28.545  28.958   2.738
27238W        W86499  22.200  14.766   3.699
27239W        W86500  29.053  31.577   5.649
27240W        W86501  15.654  18.677   3.843
27241W        W86502   3.430  14.189   2.757
27242W        W86503  31.581  15.715  14.821
27243W        W86504  44.277  24.016   0.783
27244W        W86505   5.700  12.318  13.058
27245W        W86506  10.309  13.343   1.923
27246W        W86507  20.613  21.583   5.138
27247W        W86508  41.466  42.462  12.515
27248W        W86509  17.102  35.905   1.415
27249W        W86510  16.190  18.123   4.139
27250W        W86511  17.225  20.178   4.305
27251W        W86512  13.808  37.883  14.842
27252W        W86513  30.460   1.259  14.973
27253W        W86514  44.500  35.854  13.950
27254W        W86515   1.766  37.004   4.169
27255W        W86516   2.343  41.012  12.067
27256W        W86517  41.374  14.647   1.808
27257W        W86518  20.685  20.043   2.797
27258W        W86519  42.904  26.575   2.819
27259W        W86520  40.909  33.055  12.546
27260W        W86521  29.572  32.576   3.214
27261W        W86522  24.627  35.064   3.829
27262W        W86523   6.877  12.145  14.875
27263W        W86524  23.630  20.728   4.800
27264W        W86525  11.822  40.031   2.709
27265W        W86526   4.237  19.633  14.516
27266W        W86527  35.966  35.369   0.317
27267W        W86528   5.254   1.892   3.320
27268W        W86529  35.493   5.918   4.655
27269W        W86530  31.982  40.031  12.029
27270W        W86531  28.125  40.417   3.770
27271W        W86532   7.347  42.294  12.463
27272W        W86533   9.723   8.797  11.378
27273W        W86534  11.667  24.224  14.387
27274W        W86535   6.889   5.342  14.490
27275W        W86536  38.843  35.399   2.409
27276W        W86537  24.032  19.064  10.424
27277W        W86538  13.814   1.912   2.771
27278W        W86539  30.657   1.306  10.469
27279W        W86540  17.131  29.557   1.855
27280W        W86541  41.830  21.229  13.414
27281W        W86542  26.535  20.068  12.439
27282W        W86543  29.599  27.129   0.316
27283W        W86544   3.790  32.914   3.386
27284W        W86545  28.625   7.752  11.087
27285W        W86546  12.793  19.773  11.986
27286W        W86547  38.382  29.142   1.878
27287W        W86548  16.805  26.186  10.889
27288W        W86549   6.184  15.148   3.742
27289W        W86550  39.055  18.734   1.869
27290W        W86551  11.223  25.121  10.526
27291W        W86552  37.396  41.942   0.818
27292W        W86553  33.441  24.136   2.673
27293W        W86554  17.577  31.915   4.301
27294W        W86555  21.063  30.597   2.751
27295W        W86556   3.885  23.167  12.010
27296W        W86557  38.349  34.953   4.187
27297W        W86558  10.703  21.678  12.076
27298W        W86559   6.320  29.533  12.936
27299W        W86560   0.901   1.239  14.993
27300W        W86561  33.565  44.416  13.435
27301W        W86562   8.247  17.144  13.902
27302W        W86563  43.886  14.247  14.446
27303W        W86564  10.662   3.433   1.253
27304W        W86565   0.955  19.098   4.184
27305W        W86566  36.915  25.699  11.593
27306W        W86567  23.108   1.794  10.641
27307W        W86568  13.169   5.381   3.324
27308W        W86569  27.961  26.653   3.306
27309W        W86570  15.583  36.095   2.347
27310W        W86571  24.054   7.206  11.452
27311W        W86572  12.783   0.386   1.769
27312W        W86573  44.920  42.311   1.875
27313W        W86574   4.840  10.812   4.237
27314W        W86575   5.830  34.561  13.507
27315W        W86576  36.924  21.520   4.125
27316W        W86577   5.324  33.546  11.536
27317W        W86578  19.655  17.239  13.501
27318W        W86579  37.575   4.941  14.937
27319W        W86580   3.733  24.484   1.264
27320W        W86581  37.522  17.752  10.436
27321W        W86582  20.082  14.158   1.927
27322W        W86583  19.125  40.490  14.493
27323W        W86584  43.295  33.961  12.384
27324W        W86585  19.233   1.743   3.673
27325W        W86586  39.012  25.538   3.677
27326W        W86587  18.106   2.443  12.480
27327W        W86588  19.059  13.828   3.667
27328W        W86589  27.080   5.933   3.252
27329W        W86590  35.453   0.346   3.869
27330W        W86591  29.600  18.714   1.847
27331W        W86592  39.955  40.888  13.962
27332W        W86593   3.844  10.197  11.547
27333W        W86594  25.709  30.046   0.792
27334W        W86595   8.776  31.504  11.393
27335W        W86596  12.147  18.149   2.838
27336W        W86597  17.199   1.822  11.894
27337W        W86598  21.225  39.366   3.153
27338W        W86599  42.980  43.287   0.463
27339W        W86600   6.709  30.946   1.829
27340W        W86601  12.854   3.373   3.274
27341W        W86602  25.536  16.802  12.950
27342W        W86603  37.962  20.652  12.995
27343W        W86604  39.908  16.146   4.341
27344W        W86605  34.974  23.502   5.263
27345W        W86606  23.037  15.190   0.324
27346W        W86607  30.153  18.223   1.842
27347W        W86608  39.352  42.900  11.872
27348W        W86609   1.826  25.082   3.289
27349W        W86610  24.980  41.887  12.897
27350W        W86611  43.928  27.989  14.498
27351W        W86612   3.245  44.325  12.941
27352W        W86613  42.827   2.744   3.659
27353W        W86614  12.633  29.993  13.891
27354W        W86615  26.196  15.199   1.261
27355W        W86616  13.755  25.094   1.923
27356W        W86617  44.263   9.844  14.348
27357W        W86618   2.419  31.129  14.824
27358W        W86619  33.005  21.561   0.373
27359W        W86620  32.497   7.748   1.816
27360W        W86621  13.685  15.179   0.740
27361W        W86622   0.937  43.320  10.900
27362W        W86623  20.759  26.200  10.432
27363W        W86624  39.931  39.320   3.688
27364W        W86625  24.017  43.489  14.010
27365W        W86626  38.571  14.231   3.837
27366W        W86627  11.708   7.213  13.934
27367W        W86628  17.275  21.534   2.305
27368W        W86629   0.879  19.627   3.256
27369W        W86630  44.798   2.904  10.982
27370W        W86631  33.595   1.263  14.484
27371W        W86632  40.827  20.081  12.075
27372W        W86633  42.012  13.661   4.213
27373W        W86634  36.876  33.011   0.728
27374W        W86635  16.275  17.176   1.875
27375W        W86636  13.110   6.236   2.398
27376W        W86637  21.711  37.905   1.904
27377W        W86638   6.742   7.243  10.570
27378W        W86639  36.014  17.717  10.545
27379W        W86640  26.610  30.055   0.958
27380W        W86641   2.362  12.831  11.585
27381W        W86642   6.702  43.848  13.525
27382W        W86643  32.483  41.521   4.763
27383W        W86644   4.699  41.890   4.829
27384W        W86645  15.796  29.981  11.117
27385W        W86646  28.593  44.853   2.330
27386W        W86647  33.542  33.600  12.847
27387W        W86648  20.047   5.353  14.351
27388W        W86649  13.844  37.345  11.484
27389W        W86650  35.061  36.492  11.477
27390W        W86651   8.810  24.491  10.407
27391W        W86652  42.503  29.452  14.871
27392W        W86653  38.450  12.610  14.868
27393W        W86654   3.389   0.487   1.732
27394W        W86655  25.566  20.541  12.884
27395W        W86656  32.034  20.762  10.634
27396W        W86657   2.311   5.341   3.345
27397W        W86658  32.492  18.078   2.283
27398W        W86659  20.633   3.851   0.447
27399W        W86660  22.598  44.284   5.203
27400W        W86661  34.438   6.917   3.866
27401W        W86662   4.446   0.305  14.905
27402W        W86663  22.540  10.180   3.359
27403W        W86664  28.666  25.159   0.849
27404W        W86665  15.790  18.748   0.847
27405W        W86666  36.502  36.849   2.352
27406W        W86667  37.889   9.683   5.100
27407W        W86668  24.647  13.808   2.351
27408W        W86669  32.532   9.176  10.641
27409W        W86670   7.880  16.670   0.345
27410W        W86671  38.336  26.559  13.422
27411W        W86672  37.834  28.063  12.873
27412W        W86673   7.742  24.607   2.708
27413W        W86674  21.089  24.577   1.315
27414W        W86675  41.788  38.055  12.878
27415W        W86676  20.044   6.787  10.637
27416W        W86677  21.093  26.522  14.445
27417W        W86678   7.675  35.453   3.763
27418W        W86679  33.899  11.829   2.760
27419W        W86680  22.132  30.468   4.767
27420W        W86681   5.796   9.654   3.275
27421W        W86682  10.644   8.704   1.374
27422W        W86683  40.492  19.047   0.408
27423W        W86684  44.340  23.542  13.935
27424W        W86685  41.368  44.400  11.113
27425W        W86686   3.738  30.012  11.869
27426W        W86687  12.335  28.133   2.880
27427W        W86688  23.013  22.600   1.215
27428W        W86689  21.031  32.578  13.903
27429W        W86690  14.610  36.454   2.350
27430W        W86691  35.061  22.167  12.500
27431W        W86692  42.492  19.652  14.397
27432W        W86693  18.176  37.035   4.742
27433W        W86694  36.860  35.013  12.502
27434W        W86695  22.608  12.785  14.804
27435W        W86696  42.478  37.935   0.292
27436W        W86697  39.954  33.916   0.878
27437W        W86698  28.555  24.479  14.775
27438W        W86699  17.630  31.108   4.178
27439W        W86700  28.563  19.554   0.456
27440W        W86701  19.540  28.936   1.858
27441W        W86702  16.770  18.112   4.793
27442W        W86703  23.500  17.124   4.202
27443W        W86704   5.822  43.358   2.298
27444W        W86705  34.520  18.610  11.038
27445W        W86706  44.944  43.400   1.756
27446W        W86707   9.261  14.230   4.784
27447W        W86708  27.464  28.586   3.340
27448W        W86709   2.227  23.608   2.803
27449W        W86710  14.331  10.635  12.402
27450W        W86711  24.550  29.664   4.240
27451W        W86712   8.740  31.898   3.197
27452W        W86713  39.534  34.965   9.473
27453W        W86714  28.187  29.533   0.301
27454W        W86715  27.458   2.308   1.703
27455W        W86716  14.198  20.668  12.981
27456W        W86717  44.299   7.830  10.519
27457W        W86718  21.720  10.858  14.513
27458W        W86719  22.669   7.289  12.439
27459W        W86720   4.281  35.527   3.186
27460W        W86721  25.006   1.345  12.511
27461W        W86722  43.474   6.804   1.370
27462W        W86723   4.713  20.528   1.416
27463W        W86724  37.018  39.448  10.619
27464W        W86725  22.144  14.711  14.332
27465W        W86726  10.250   2.952   2.871
27466W        W86727  22.684  20.601  12.461
27467W        W86728  15.695  10.867   2.199
27468W        W86729   5.827   1.435  12.576
27469W        W86730  24.135  22.169  10.622
27470W        W86731   2.253   7.183  11.394
27471W        W86732  13.663  19.644  14.880
27472W        W86733  17.667   4.903   1.424
27473W        W86734  43.351  25.116   3.842
27474W        W86735  13.283  31.984   4.607
27475W        W86736  26.076  25.022  12.459
27476W        W86737  26.982   7.808   4.607
27477W        W86738  40.048  11.621   0.379
27478W        W86739  44.481  41.389  14.892
27479W        W86740   4.213   7.277   4.811
27480W        W86741  36.959   7.334   4.657
27481W        W86742  36.434  28.932  14.448
27482W        W86743  24.644  29.502  10.584
27483W        W86744  34.111   2.292   2.366
27484W        W86745   3.348  36.354   0.282
27485W        W86746  38.017  35.074   2.335
27486W        W86747   7.379  30.650  13.057
27487W        W86748   0.975   0.840   4.171
27488W        W86749   6.334  16.215   4.254
27489W        W86750   4.709  34.394   0.278
27490W        W86751  39.432  18.556   1.255
27491W        W86752  42.806   6.716  12.984
27492W        W86753  43.516  42.489   2.313
27493W        W86754   0.293  40.391  11.471
27494W        W86755  38.952  30.423  11.023
27495W        W86756  43.920  34.498   3.190
27496W        W86757  31.952  26.162   0.932
27497W        W86758   0.846   1.382   3.679
27498W        W86759  39.913  24.032   1.878
27499W        W86760   0.958  31.543   2.745
27500W        W86761  44.915  12.272  11.398
27501W        W86762  20.653  28.002   2.837
27502W        W86763  27.153  21.657   1.307
27503W        W86764  41.513   0.368  12.500
27504W        W86765   6.743  36.033  10.449
27505W        W86766   7.865   4.771   0.330
27506W        W86767  39.356  44.500   1.420
27507W        W86768   7.417  34.062  14.513
27508W        W86769   0.860  13.789   4.673
27509W        W86770  29.002  41.491  13.368
27510W        W86771  35.513  30.634  11.477
27511W        W86772  27.975  39.910   4.168
27512W        W86773  19.205   2.965  11.568
27513W        W86774  38.863  20.582   3.218
27514W        W86775  22.207  44.868   3.177
27515W        W86776  34.863  21.055   0.483
27516W        W86777  42.025  12.124  12.823
27517W        W86778  34.448  15.168  12.557
27518W        W86779  31.624  31.105  14.431
27519W        W86780  29.424  15.268   1.396
27520W        W86781   7.270  35.931  13.814
27521W        W86782  22.587  12.134   4.713
27522W        W86783   2.723  23.648   0.897
27523W        W86784  25.083  11.724  10.419
27524W        W86785   4.879  19.649  13.345
27525W        W86786  26.161  25.022  13.801
27526W        W86787  40.502  41.927  11.580
27527W        W86788  11.796   4.238  13.961
27528W        W86789  42.801  12.302  13.396
27529W        W86790  31.477  42.873   3.685
27530W        W86791  21.632  41.814   2.670
27531W        W86792  42.508  37.055   4.283
27532W        W86793  44.413   5.751  14.381
27533W        W86794   1.374  39.982   2.388
27534W        W86795  38.485   3.280   1.794
27535W        W86796   5.870  29.592  14.327
27536W        W86797   8.667   3.329  11.590
27537W        W86798  19.052  14.298   1.823
27538W        W86799  21.671   5.268  14.989
27539W        W86800   3.396  33.471  14.333
27540W        W86801  41.833  30.989   3.655
27541W        W86802  33.987  15.728   3.157
27542W        W86803  23.584   9.161  11.385
27543W        W86804  39.342  12.746   4.813
27544W        W86805   6.918  22.609  11.070
27545W        W86806   2.780  11.281  14.762
27546W        W86807  14.209  32.422   3.798
27547W        W86808  33.432  38.415  10.605
27548W        W86809  34.026  12.855  12.065
27549W        W86810   6.868  26.132  13.437
27550W        W86811  41.427  44.828   3.265
27551W        W86812  23.611  35.933   1.888
27552W        W86813  36.034   6.788   2.282
27553W        W86814  14.604  16.157  11.566
27554W        W86815   7.262   6.362   1.869
27555W        W86816  41.393   2.241   2.318
27556W        W86817   0.807  14.130  12.574
27557W        W86818  23.586   4.865  11.081
27558W        W86819  37.425   9.703   1.297
27559W        W86820   0.324  15.699   0.326
27560W        W86821  19.652  14.646  11.378
27561W        W86822  34.100  42.005   4.672
27562W        W86823  36.541  39.329  11.543
27563W        W86824  18.114  36.924  12.969
27564W        W86825   1.847   4.844  13.011
27565W        W86826   6.801   9.797   2.208
27566W        W86827  20.213  15.714   2.898
27567W        W86828  35.587  42.864  12.400
27568W        W86829  19.698   6.828   5.742
27569W        W86830  21.692  30.124   1.402
27570W        W86831  11.323  32.923  14.514
27571W        W86832   7.393  44.850  10.607
27572W        W86833  31.153  44.501   1.298
27573W        W86834  12.849  37.366  11.393
27574W        W86835  31.114  43.017   0.407
27575W        W86836  40.830  33.086   1.223
27576W        W86837  35.891  31.038   1.869
27577W        W86838  35.912   2.876   1.272
27578W        W86839  39.404   2.788   0.423
27579W        W86840  18.649  27.046   4.143
27580W        W86841  44.353  24.595  12.909
27581W        W86842  11.267   4.444  14.913
27582W        W86843   2.754  25.022  10.600
27583W        W86844  10.227   3.361   4.783
27584W        W86845  32.961  21.161  12.865
27585W        W86846  15.746  34.528   4.747
27586W        W86847  32.501   0.964   3.862
27587W        W86848  37.363   6.235   3.371
27588W        W86849  14.591   0.282   3.801
27589W        W86850  44.943  23.056   3.774
27590W        W86851  29.467  30.093   4.666
27591W        W86852   6.351   3.333   0.285
27592W        W86853  37.417   5.751  13.965
27593W        W86854  28.069  13.230   4.712
27594W        W86855  37.564  44.411  11.382
27595W        W86856   0.912   0.976   1.394
27596W        W86857  37.541  35.446  10.560
27597W        W86858  40.987  12.231   3.834
27598W        W86859  11.319  28.162  14.784
27599W        W86860  22.190  17.160  12.009
27600W        W86861  31.480  27.982   0.906
27601W        W86862   8.162  28.520  10.614
27602W        W86863  10.250  19.201  12.082
27603W        W86864  11.741   3.948  13.964
27604W        W86865   4.324  44.788  12.422
27605W        W86866  17.725  15.652   9.921
27606W        W86867  35.936   4.302   4.811
27607W        W86868  12.734  43.915   4.218
27608W        W86869  17.677   3.867   4.171
27609W        W86870  39.511  24.117  12.441
27610W        W86871   7.815  34.390  13.409
27611W        W86872   5.213  43.992   4.228
27612W        W86873  25.987  40.953   2.860
27613W        W86874  21.634   6.369   4.780
27614W        W86875  12.279  43.387   4.232
27615W        W86876  43.514  19.201  13.969
27616W        W86877  40.898  17.132  12.068
27617W        W86878  15.659  42.871  13.012
27618W        W86879   1.858   1.977  10.998
27619W        W86880   8.740   0.455   2.183
27620W        W86881  24.479  30.494   2.693
27621W        W86882  36.091  22.558   2.383
27622W        W86883  31.525  13.290   2.325
27623W        W86884  24.993   3.380  12.944
27624W        W86885  13.309  22.723  11.880
27625W        W86886  28.084  43.421   5.118
27626W        W86887  16.786  11.178  12.988
27627W        W86888  28.655  17.228  14.486
27628W        W86889  38.416  28.101   0.730
27629W        W86890   4.412  19.677  11.120
27630W        W86891   6.894  29.104   2.400
27631W        W86892   3.900  31.422   0.863
27632W        W86893   1.360  40.889  13.350
27633W        W86894  11.741   5.273  11.509
27634W        W86895  10.851   5.701  11.516
27635W        W86896  42.827  36.552  12.548
27636W        W86897  23.546  32.996   4.203
27637W        W86898  14.318   0.897   0.964
27638W        W86899  38.449  32.506   4.318
27639W        W86900  40.340  14.750   4.175
27640W        W86901  13.233  17.659  11.561
27641W        W86902  30.454  30.424  10.507
27642W        W86903   4.270   1.978  14.899
27643W        W86904  11.777   8.815   0.468
27644W        W86905  33.583  27.498   4.289
27645W        W86906  15.163  24.586  10.594
27646W        W86907  29.458   0.350   2.726
27647W        W86908   9.389  15.725  10.041
27648W        W86909  31.901  17.638   2.778
27649W        W86910   6.703  19.226   1.257
27650W        W86911  25.186   7.238   2.677
27651W        W86912   3.715  10.141  10.413
27652W        W86913  41.345  36.509   1.370
27653W        W86914  41.496   0.406   2.850
27654W        W86915  32.476  27.178  14.442
27655W        W86916  13.607  21.122   0.940
27656W        W86917   5.834  31.587  10.438
27657W        W86918  41.474  31.915  10.428
27658W        W86919  34.386   5.751   1.368
27659W        W86920   8.178  39.494   1.429
27660W        W86921  43.890  16.780   3.364
27661W        W86922   2.262  26.005  11.552
27662W        W86923  21.711  17.678   0.392
27663W        W86924  18.152  20.136  14.287
27664W        W86925  19.074   7.753  13.861
27665W        W86926  38.554  14.687   0.449
27666W        W86927  25.155   5.796  13.941
27667W        W86928  10.188   0.953  11.050
27668W        W86929  43.945  16.253  13.964
27669W        W86930  14.300   4.706   1.734
27670W        W86931  39.396  16.745  14.304
27671W        W86932  12.162  10.191   0.732
27672W        W86933  38.846  30.041   0.730
27673W        W86934  41.531  16.763  14.477
27674W        W86935  41.924   7.668   3.315
27675W        W86936  16.571  20.533   0.297
27676W        W86937  35.404  26.658   5.276
27677W        W86938  17.160  12.765  10.541
27678W        W86939  41.030  13.161   0.475
27679W        W86940  11.230   6.233   1.715
27680W        W86941  21.132  24.035  11.923
27681W        W86942  18.660  17.293   3.642
27682W        W86943   8.165   0.435   0.909
27683W        W86944  15.114  21.639   1.380
27684W        W86945  18.154  38.852   0.313
27685W        W86946  33.976  15.110  12.395
27686W        W86947  16.732   0.976   2.849
27687W        W86948  38.963  19.552   3.229
27688W        W86949  39.323   9.235   1.217
27689W        W86950  44.369  34.955  12.997
27690W        W86951  26.117  28.667   0.431
27691W        W86952  11.768  18.058   0.812
27692W        W86953   5.714  34.111  11.439
27693W        W86954  41.303  41.854   3.713
27694W        W86955  32.026  24.078  11.511
27695W        W86956   2.769   1.261  11.014
27696W        W86957  21.062  12.706  13.460
27697W        W86958  21.220   0.778   1.316
27698W        W86959  24.586   4.297   3.702
27699W        W86960  41.438  18.728  14.327
27700W        W86961   2.382  34.371  10.967
27701W        W86962   9.276   9.195   1.311
27702W        W86963  30.073   9.197  11.549
27703W        W86964  28.659  15.659  13.955
27704W        W86965  23.094  40.326  13.929
27705W        W86966   3.873  26.624  12.580
27706W        W86967  27.116  37.066  14.904
27707W        W86968   4.866  43.875  13.332
27708W        W86969  19.104  16.138   4.306
27709W        W86970  43.771  44.427  11.976
27710W        W86971  36.356  40.384   4.606
27711W        W86972  31.149  26.047   3.634
27712W        W86973  40.361  28.586  13.808
27713W        W86974   7.775  40.987   2.872
27714W        W86975  39.844  34.614   5.657
27715W        W86976  43.959  27.151  14.926
27716W        W86977  24.196  17.269   4.690
27717W        W86978  16.278  16.121  12.900
27718W        W86979  39.434  23.225   2.317
27719W        W86980  25.682  32.402   2.748
27720W        W86981   8.879   0.250   4.629
27721W        W86982  25.624   6.226   2.266
27722W        W86983  26.660  19.557  10.638
27723W        W86984  11.800  21.181   1.841
27724W        W86985   2.293   5.239  11.995
27725W        W86986  28.676  43.855   0.270
27726W        W86987  40.389  37.537   0.246
27727W        W86988  29.486  41.881  13.023
27728W        W86989  44.907   0.851  11.409
27729W        W86990  22.677   2.383  12.395
27730W        W86991   7.896  23.207  13.403
27731W        W86992  20.663  17.150   4.655
27732W        W86993   2.231  41.983  12.376
27733W        W86994  37.452  25.599  10.423
27734W        W86995  25.511  15.187  12.834
27735W        W86996  16.314  37.481  13.862
27736W        W86997  13.808  40.985   3.268
27737W        W86998  28.141   5.774  12.018
27738W        W86999  19.722  39.005   0.252
27739W        W87000  31.536  38.456  10.910
27740W        W87001  36.875  39.939  13.952
27741W        W87002   4.823  20.760  13.978
27742W        W87003   4.436  19.583  14.844
27743W        W87004  17.792  33.897   1.754
27744W        W87005  40.896  31.571   1.798
27745W        W87006  16.682   8.780   3.674
27746W        W87007  25.610   9.657   0.910
27747W        W87008  26.976   6.245   0.773
27748W        W87009  25.055   5.919   0.444
27749W        W87010   9.779   7.264  13.807
27750W        W87011  14.335  40.308   5.149
27751W        W87012  38.063  34.508  12.833
27752W        W87013  41.534  32.623   3.348
27753W        W87014   4.222  28.004  13.467
27754W        W87015   9.207  44.847  14.914
27755W        W87016  21.114   3.798  14.839
27756W        W87017  21.037  18.586   9.523
27757W        W87018  25.013  43.903   1.797
27758W        W87019  12.641  34.507   2.693
27759W        W87020  36.540  28.678  13.435
27760W        W87021  12.223  36.093  12.398
27761W        W87022  37.972  43.849  12.058
27762W        W87023  35.029  36.554  14.513
27763W        W87024   2.357  12.764  14.967
27764W        W87025   7.180  28.658   0.763
27765W        W87026  35.410  15.640   2.689
27766W        W87027  11.838  24.156   0.766
27767W        W87028   0.251  24.545  14.482
27768W        W87029  37.335  29.166   3.725
27769W        W87030  25.524  37.853  11.082
27770W        W87031  32.408   8.262   0.753
27771W        W87032  41.538  16.313   0.373
27772W        W87033  35.553  32.912  14.873
27773W        W87034   4.324  20.577  12.566
27774W        W87035  14.230   2.360   3.173
27775W        W87036  41.363  24.047  12.938
27776W        W87037  30.148  39.042   3.202
27777W        W87038   6.312  16.705  10.017
27778W        W87039  27.454   9.228   3.840
27779W        W87040  24.585  30.148   0.812
27780W        W87041  28.036  16.708   3.758
27781W        W87042  30.520  36.534  14.442
27782W        W87043  40.401   1.380   4.778
27783W        W87044  27.013  20.125  10.505
27784W        W87045   0.768  21.138  11.398
27785W        W87046   5.313  42.501  10.896
27786W        W87047  38.329  23.605  11.040
27787W        W87048  32.566   9.795  14.827
27788W        W87049  20.607  41.865  14.489
27789W        W87050   5.391  34.043   3.327
27790W        W87051  17.202  42.012   1.697
27791W        W87052   1.409   2.730   2.820
27792W        W87053  34.566  31.104   0.962
27793W        W87054  40.411  19.217  11.517
27794W        W87055  26.148  44.399  13.470
27795W        W87056  18.221  20.160  10.952
27796W        W87057  11.850  25.553   0.260
27797W        W87058  35.970  29.524   3.715
27798W        W87059  18.773  11.642   0.315
27799W        W87060   1.810  25.485   0.265
27800W        W87061  18.732  44.404   3.779
27801W        W87062  41.942   1.951   1.794
27802W        W87063  20.250  34.075  13.046
27803W        W87064   4.821  41.401  12.884
27804W        W87065  36.550  21.589   4.148
27805W        W87066  14.111   8.876  14.433
27806W        W87067  28.572  42.999   4.821
27807W        W87068   2.314  16.766  10.620
27808W        W87069  43.425  35.398  14.014
27809W        W87070   1.383  12.199  10.631
27810W        W87071  34.567  32.555  12.025
27811W        W87072  33.420  38.360   2.856
27812W        W87073  17.763  13.767  12.956
27813W        W87074  40.334  43.368   3.670
27814W        W87075  40.346   0.904  14.992
27815W        W87076  21.246  38.972   4.702
27816W        W87077  31.105  42.780  14.848
27817W        W87078  30.476  23.204  10.439
27818W        W87079  39.502   2.465   4.787
27819W        W87080  24.708  18.728  10.949
27820W        W87081  29.977  37.930   1.812
27821W        W87082  31.021  36.541   3.790
27822W        W87083  40.473   1.418  10.947
27823W        W87084  23.713   0.977  14.315
27824W        W87085  34.068  18.223   4.127
27825W        W87086  15.809  10.232   1.798
27826W        W87087  20.198  40.391   1.260
27827W        W87088   4.714  23.495  10.531
27828W        W87089   0.491  27.558   2.893
27829W        W87090  23.720  22.999   1.240
27830W        W87091   7.754  14.202  13.317
27831W        W87092  21.079  44.353   0.253
27832W        W87093   6.271  25.033   4.680
27833W        W87094  14.736  19.086   4.676
27834W        W87095  23.660  31.435   3.745
27835W        W87096  23.562   3.908   0.467
27836W        W87097   3.358  41.298   1.826
27837W        W87098  34.527  35.065  14.494
27838W        W87099   0.401  20.222   3.838
27839W        W87100  37.577  40.875  14.458
27840W        W87101   3.816  28.451   4.760
27841W        W87102  18.790  29.563   1.732
27842W        W87103  44.436   3.722  12.922
27843W        W87104  26.122  43.459  12.542
27844W        W87105   3.257  34.932   0.278
27845W        W87106  39.024  24.110   0.892
27846W        W87107   2.457  30.591   1.236
27847W        W87108  30.043  24.669  12.538
27848W        W87109  23.703  24.985   3.805
27849W        W87110  35.539   7.725  13.384
27850W        W87111  38.489  42.459   2.727
27851W        W87112  24.094  32.117  14.845
27852W        W87113  12.794  19.261  12.339
27853W        W87114  35.451  37.467   2.858
27854W        W87115  16.606   2.752  13.471
27855W        W87116   3.835   1.905  13.540
27856W        W87117  38.052  28.056   3.170
27857W        W87118  24.675  33.550   3.708
27858W        W87119  14.667   3.271   3.254
27859W        W87120  19.217  27.147  13.028
27860W        W87121  25.620  10.289  11.007
27861W        W87122  31.452  18.081   2.700
27862W        W87123  18.099   3.953  14.298
27863W        W87124  36.527  25.685  12.378
27864W        W87125  13.114  19.283  11.578
27865W        W87126   3.951  40.471  14.877
27866W        W87127   4.213  31.615   4.231
27867W        W87128   7.707   8.712  12.932
27868W        W87129  21.114  25.540  12.498
27869W        W87130  20.633   5.915  12.060
27870W        W87131  23.590   2.912  10.485
27871W        W87132   7.813   9.794   0.735
27872W        W87133   8.768  33.448   3.203
27873W        W87134  12.303  34.381  12.946
27874W        W87135   2.352   7.312  10.577
27875W        W87136  36.918   5.896   1.219
27876W        W87137  34.019  26.552  10.573
27877W        W87138  33.612  36.563  11.435
27878W        W87139   9.382  40.009   1.746
27879W        W87140   7.412  42.805   0.419
27880W        W87141   2.381  40.983  11.386
27881W        W87142   0.848   8.181   1.358
27882W        W87143  17.770  37.920  13.367
27883W        W87144  35.072  37.347  14.883
27884W        W87145  39.025  15.700  13.924
27885W        W87146  15.670  34.006  11.418
27886W        W87147  12.214  39.852   4.192
27887W        W87148   4.314  30.998   3.844
27888W        W87149  31.093  23.633  14.280
27889W        W87150   3.348  29.161  10.946
27890W        W87151  28.118  34.417  12.455
27891W        W87152  40.798  23.676  13.351
27892W        W87153  29.948  39.931  11.950
27893W        W87154  36.937  31.579   1.762
27894W        W87155  30.912  31.435   0.325
27895W        W87156   1.397  38.074   3.378
27896W        W87157  11.777  16.223   0.347
27897W        W87158  37.504   8.273   1.242
27898W        W87159  23.648   8.824  11.402
27899W        W87160  39.414   5.848  12.430
27900W        W87161  27.546  21.130   3.223
27901W        W87162  25.166  25.504  11.925
27902W        W87163  32.024  38.495  14.339
27903W        W87164  36.037  32.067  11.957
27904W        W87165  15.684  43.789   2.295
27905W        W87166   5.410   1.852  12.435
27906W        W87167   2.314  43.986  11.530
27907W        W87168   7.804  15.218   3.195
27908W        W87169  11.224  27.949  11.468
27909W        W87170  44.844   4.404  14.427
27910W        W87171  19.656   2.411  13.484
27911W        W87172  18.787  37.959   2.229
27912W        W87173  42.338   3.769  12.378
27913W        W87174  10.683  29.153  10.953
27914W        W87175  31.128   7.882  10.477
27915W        W87176  44.434  44.296   9.961
27916W        W87177   4.763  18.255   3.871
27917W        W87178  36.889   8.833  12.465
27918W        W87179   2.450  16.771   4.142
27919W        W87180  41.990  15.200   3.271
27920W        W87181  40.499   3.730   3.331
27921W        W87182  33.050  17.630   1.235
27922W        W87183  15.705  44.306   4.831
27923W        W87184   1.297  33.545  12.050
27924W        W87185   1.298  17.618   2.304
27925W        W87186  23.219  22.738  14.294
27926W        W87187  36.086  43.914  13.992
27927W        W87188  17.159  22.070   4.759
27928W        W87189  10.341  42.390  10.530
27929W        W87190  13.189  17.776   3.333
27930W        W87191  28.127  42.298   3.770
27931W        W87192  38.877  36.575   2.198
27932W        W87193  25.712  44.000   4.294
27933W        W87194  41.838   0.944  14.783
27934W        W87195  33.965   9.802  12.871
27935W        W87196  35.078   3.250   3.858
27936W        W87197   3.315  44.836   1.826
27937W        W87198   7.393  13.202  14.830
27938W        W87199  22.034  43.987  11.107
27939W        W87200  33.957  28.971   0.829
27940W        W87201  34.399  22.155   3.180
27941W        W87202   2.238  26.183   1.238
27942W        W87203   5.785  22.045   0.313
27943W        W87204  33.009  18.548   0.968
27944W        W87205  18.181   0.958   1.339
27945W        W87206  13.604  44.830  10.415
27946W        W87207  23.169  10.763   0.947
27947W        W87208   8.814  38.336   1.787
27948W        W87209  24.530  41.838  12.014
27949W        W87210  15.763  39.969   0.849
27950W        W87211  10.833  25.658  10.589
27951W        W87212  16.651   5.312   1.336
27952W        W87213  38.483  41.351  11.585
27953W        W87214  37.471  43.280   3.732
27954W        W87215  21.539  14.109   2.212
27955W        W87216  40.345   7.694   3.866
27956W        W87217   9.745  15.253  13.050
27957W        W87218  29.072   6.376   3.229
27958W        W87219  43.866   6.257   1.887
27959W        W87220  31.987   5.773   4.665
27960W        W87221  30.963   0.299  10.461
27961W        W87222  44.411  38.422  12.528
27962W        W87223  35.066   2.878   2.247
27963W        W87224   5.435  25.150  11.382
27964W        W87225   2.950  30.022   3.358
27965W        W87226  39.011  26.682  13.005
27966W        W87227  26.566  27.109  10.447
27967W        W87228   6.260  32.537  13.995
27968W        W87229  27.011  19.077  14.342
27969W        W87230  36.028  18.733  14.815
27970W        W87231  36.905  23.221   4.619
27971W        W87232  32.958  44.884   2.383
27972W        W87233  29.512   5.237  14.981
27973W        W87234  21.628  31.488  14.489
27974W        W87235  16.781  13.622   3.682
27975W        W87236  32.551  36.049  12.841
27976W        W87237  27.643  42.346  12.527
27977W        W87238  35.432  41.961  13.491
27978W        W87239   1.932  44.284   0.322
27979W        W87240  27.014   9.296  12.576
27980W        W87241   3.724  26.691  13.447
27981W        W87242  11.163  40.456  14.283
27982W        W87243   4.293   0.473   3.162
27983W        W87244   2.402  13.785  11.392
27984W        W87245  10.700  33.586  14.761
27985W        W87246  41.968  10.186   1.743
27986W        W87247   7.294  35.543   4.241
27987W        W87248  15.774  19.565  11.527
27988W        W87249  35.094  12.730   9.991
27989W        W87250  24.050  36.057   4.348
27990W        W87251   6.253  11.348  13.994
27991W        W87252  18.085   4.438   0.855
27992W        W87253   5.195  32.087   0.785
27993W        W87254  43.971  24.178  11.498
27994W        W87255  11.231   5.925   0.925
27995W        W87256  40.939  14.650  13.436
27996W        W87257   9.182  31.621   0.326
27997W        W87258  29.520  18.718   4.214
27998W        W87259  29.040  42.831  14.495
27999W        W87260  22.198  41.979   2.684
28000W        W87261   1.948   2.722  11.436
28001W        W87262  31.007   1.915  14.498
28002W        W87263  15.652  28.975  14.847
28003W        W87264  25.637  37.889  14.014
28004W        W87265  30.587  31.045   4.227
28005W        W87266  36.519  11.273  11.574
28006W        W87267   9.294  30.042  10.412
28007W        W87268  13.668  36.865  13.833
28008W        W87269   1.288  33.042   0.900
28009W        W87270  44.767  15.743   2.249
28010W        W87271   4.431   8.339   3.339
28011W        W87272  37.861   0.438  10.965
28012W        W87273  23.655  15.727  13.926
28013W        W87274  11.335  19.257   1.742
28014W        W87275  13.230  43.325  13.318
28015W        W87276  37.080  38.504  12.575
28016W        W87277  17.603   0.337   4.164
28017W        W87278  13.323  29.999   4.260
28018W        W87279   2.951  38.551   0.929
28019W        W87280  34.968   2.790   0.361
28020W        W87281   9.292  37.909  11.961
28021W        W87282  17.144  41.364   0.285
28022W        W87283   3.309   6.766   4.138
28023W        W87284  39.058  12.309   3.341
28024W        W87285  20.080   4.398   4.294
28025W        W87286  27.180   1.745   4.242
28026W        W87287   6.848  44.931  13.064
28027W        W87288  27.528  41.367  14.287
28028W        W87289  17.740  35.064  12.389
28029W        W87290  11.737  34.983   4.675
28030W        W87291  22.069  12.727   3.729
28031W        W87292  22.188  27.636  14.980
28032W        W87293  15.801  31.571   0.466
28033W        W87294  35.097  25.613  11.412
28034W        W87295  24.521  11.213   3.382
28035W        W87296  30.951  39.411   0.355
28036W        W87297   4.748   9.333  12.457
28037W        W87298   5.405  32.982   2.731
28038W        W87299   6.867   1.881   2.413
28039W        W87300  15.645   0.886  11.054
28040W        W87301   1.874  31.934   1.881
28041W        W87302  42.488  39.457   9.644
28042W        W87303  18.260  17.747  12.537
28043W        W87304  31.642   0.294   3.738
28044W        W87305  29.557  16.703   1.758
28045W        W87306  44.345  21.595   3.316
28046W        W87307  26.169  22.530   0.757
28047W        W87308  22.506  14.104   2.272
28048W        W87309  15.784   8.389  12.405
28049W        W87310  36.437  18.705   2.889
28050W        W87311  26.189  27.988  12.539
28051W        W87312  15.678   7.767  12.823
28052W        W87313   5.341  14.130   5.089
28053W        W87314   8.221   7.795  13.477
28054W        W87315  15.287  33.534  13.053
28055W        W87316   3.871  34.518   1.829
28056W        W87317  21.672  10.660  10.598
28057W        W87318  13.615  19.225  11.427
28058W        W87319  30.435  15.613   9.938
28059W        W87320  20.075  31.468  13.510
28060W        W87321  35.438   7.882  12.902
28061W        W87322  30.566  21.043  13.406
28062W        W87323  22.675  42.407   4.147
28063W        W87324  30.540  21.564  12.383
28064W        W87325  38.344   4.784  11.997
28065W        W87326  34.889  24.722   1.810
28066W        W87327  41.396  31.007  12.931
28067W        W87328   7.344   3.404  11.429
28068W        W87329  29.661   2.297  10.157
28069W        W87330  41.309  21.682  11.377
28070W        W87331  32.468  27.027  11.981
28071W        W87332  32.603  11.865  13.885
28072W        W87333   5.715  25.685  12.424
28073W        W87334  34.114  41.347   2.886
28074W        W87335  42.420  30.047   2.873
28075W        W87336  33.060  31.588  13.450
28076W        W87337  19.585   4.307  13.363
28077W        W87338   4.730   4.753   5.223
28078W        W87339  44.777  25.177   0.965
28079W        W87340  17.722  30.616   1.833
28080W        W87341  37.508   1.417  11.891
28081W        W87342   7.747  31.006   1.700
28082W        W87343  36.849  18.582   0.386
28083W        W87344  42.384  31.428   0.420
28084W        W87345   2.812  31.593  11.601
28085W        W87346  10.759  32.506   4.676
28086W        W87347   9.228  29.665  14.944
28087W        W87348   9.697   5.334   2.313
28088W        W87349  24.174  23.239  13.403
28089W        W87350   4.762  36.990  13.015
28090W        W87351  31.113  15.157  14.374
28091W        W87352   5.694  17.117  14.944
28092W        W87353  38.874  35.546   0.350
28093W        W87354  39.061  13.612  10.970
28094W        W87355  30.461  43.379  14.460
28095W        W87356   0.852  35.409  14.020
28096W        W87357   4.317  39.986   3.160
28097W        W87358  20.749   5.825  13.018
28098W        W87359  21.087  22.053  14.360
28099W        W87360  12.354  20.038  12.034
28100W        W87361   5.195  16.141  13.017
28101W        W87362   5.890  21.105   4.609
28102W        W87363  19.096   2.774  14.469
28103W        W87364  12.140  17.185  10.486
28104W        W87365  15.818  30.140  14.852
28105W        W87366  17.151  20.630  12.969
28106W        W87367  32.604   3.885  11.058
28107W        W87368  39.907  14.125  11.609
28108W        W87369   3.380   4.898   1.271
28109W        W87370  38.867  19.100  11.424
28110W        W87371  16.716  44.965   3.785
28111W        W87372  18.696  36.070   3.380
28112W        W87373  22.630  30.151   2.311
28113W        W87374   8.363   8.896  13.358
28114W        W87375   5.887   7.898  13.951
28115W        W87376  34.530   3.345   2.265
28116W        W87377  42.920  25.587  14.358
28117W        W87378  24.190   8.385   3.862
28118W        W87379  22.726  34.113   0.952
28119W        W87380   4.930  30.649   1.708
28120W        W87381  41.438   8.739  13.009
28121W        W87382  17.157  22.235  14.923
28122W        W87383  30.064  30.650  14.422
28123W        W87384  18.117   4.365   4.302
28124W        W87385  37.460  28.986   0.359
28125W        W87386  17.568  35.006   3.251
28126W        W87387  22.527  30.934  14.429
28127W        W87388  17.563  42.824  13.970
28128W        W87389  13.316  41.391   5.139
28129W        W87390  22.205  10.343  13.476
28130W        W87391   3.784  22.087   4.802
28131W        W87392  17.644  25.636  13.460
28132W        W87393   0.860  35.987  12.494
28133W        W87394  39.521  40.879   4.687
28134W        W87395  34.466  22.600  13.848
28135W        W87396  44.990   2.300   0.797
28136W        W87397   6.700   3.873   2.670
28137W        W87398   9.248   3.911   1.230
28138W        W87399  19.236   9.655  11.035
28139W        W87400  43.403  37.019   2.218
28140W        W87401  36.962   5.838  14.361
28141W        W87402  35.971  44.495  11.972
28142W        W87403  42.480   3.805  14.299
28143W        W87404  12.767   0.830  11.037
28144W        W87405  35.393  31.912  13.850
28145W        W87406  31.044  28.160   4.168
28146W        W87407  44.326   4.841  12.436
28147W        W87408  30.080  22.591  12.380
28148W        W87409  11.704   2.232  14.801
28149W        W87410  43.871   4.250  11.563
28150W        W87411  22.221  19.678   1.857
28151W        W87412  44.885  33.996  10.942
28152W        W87413   9.186  21.700   4.745
28153W        W87414  33.412  35.926   4.683
28154W        W87415  31.489   9.344  13.046
28155W        W87416   3.250  40.531   4.626
28156W        W87417  29.000  41.440   3.217
28157W        W87418  25.589  26.057   4.655
28158W        W87419  32.454  27.097   3.357
28159W        W87420   6.389  19.576  11.896
28160W        W87421   9.860  36.449   4.346
28161W        W87422   1.329  26.628   1.421
28162W        W87423   4.884  25.621   2.374
28163W        W87424  20.177   1.455   1.837
28164W        W87425  40.902  42.899  10.131
28165W        W87426  27.599  14.645  13.873
28166W        W87427  12.633   8.277   0.472
28167W        W87428   3.289   9.732   3.681
28168W        W87429  29.579  17.196  11.609
28169W        W87430  38.405  20.205  14.993
28170W        W87431  22.652   3.955   4.650
28171W        W87432  16.300   1.958   4.726
28172W        W87433  33.028  24.158   2.777
28173W        W87434   9.748  16.645  14.337
28174W        W87435  27.015  22.738  13.001
28175W        W87436   9.381  23.537  11.551
28176W        W87437  33.939   6.814   3.185
28177W        W87438  41.385  41.458  10.478
28178W        W87439  13.692  33.522  11.867
28179W        W87440  39.419  35.865   3.711
28180W        W87441  12.741  24.991   4.610
28181W        W87442  32.016  31.957  12.902
28182W        W87443  33.412  19.056   1.322
28183W        W87444   4.778  39.843   3.301
28184W        W87445  38.048  38.484  14.489
28185W        W87446  40.886   5.214  13.509
28186W        W87447   1.809  34.921   0.838
28187W        W87448  35.450  13.811   3.330
28188W        W87449  28.020   3.394  11.870
28189W        W87450   8.211  14.213   4.292
28190W        W87451   3.261  33.407  14.803
28191W        W87452  22.520  35.938  13.308
28192W        W87453  17.208  10.327   0.307
28193W        W87454  11.167  10.196   0.914
28194W        W87455  31.065  19.644   4.285
28195W        W87456  31.110   0.860   2.855
28196W        W87457  28.155  28.639   2.410
28197W        W87458  21.664   6.680   4.283
28198W        W87459   2.840  21.676   4.212
28199W        W87460  14.190  14.114  11.018
28200W        W87461  18.213  25.572  11.444
28201W        W87462  36.568   7.768   2.197
28202W        W87463  22.565  30.649   3.768
28203W        W87464  16.581  44.287  10.500
28204W        W87465  28.953   0.782   2.216
28205W        W87466  33.570  10.659  14.926
28206W        W87467  19.608   0.256  13.323
28207W        W87468  13.621   4.402  11.024
28208W        W87469  27.644   0.264  13.361
28209W        W87470  39.374  30.128  14.378
28210W        W87471  42.336   9.722  14.759
28211W        W87472  15.597  21.582  10.948
28212W        W87473  33.959  28.111   4.788
28213W        W87474  23.076  22.536  13.973
28214W        W87475  31.010   6.874  14.365
28215W        W87476  40.809  10.350   3.207
28216W        W87477  10.370  20.186   1.408
28217W        W87478   3.747  38.368   2.810
28218W        W87479  18.772  11.693  10.632
28219W        W87480  40.015  29.072  13.962
28220W        W87481  22.093  25.046   0.317
28221W        W87482   8.662   9.741   4.806
28222W        W87483  32.969  27.098  11.590
28223W        W87484   6.250   9.309  15.000
28224W        W87485  44.316  39.540   2.285
28225W        W87486  12.618   0.790  11.376
28226W        W87487  26.056  14.294  14.445
28227W        W87488  20.170  16.081   4.134
28228W        W87489   3.376  38.385   4.713
28229W        W87490   8.241  41.008   0.435
28230W        W87491  20.634   9.684  14.951
28231W        W87492  36.892  22.720   0.452
28232W        W87493  35.538   7.379   3.181
28233W        W87494  25.595  16.686  11.039
28234W        W87495  19.219  37.503   0.923
28235W        W87496   7.878  30.043  10.512
28236W        W87497  15.618  36.565  12.419
28237W        W87498   7.235  35.415  10.568
28238W        W87499  38.330  35.424   9.623
28239W        W87500  19.199  36.098  11.510
28240W        W87501  13.640  30.584  13.523
28241W        W87502  37.385   3.363  11.578
28242W        W87503  19.094  20.139  14.779
28243W        W87504  42.840   9.759  12.879
28244W        W87505  14.257  19.056  14.986
28245W        W87506  13.216   3.941  10.933
28246W        W87507  30.059  16.108   2.195
28247W        W87508   9.217  26.114   3.172
28248W        W87509   0.317  34.468  11.047
28249W        W87510  37.566   7.355   5.136
28250W        W87511  19.168   8.788   4.134
28251W        W87512  10.306  13.754   2.703
28252W        W87513  27.105   8.667  11.373
28253W        W87514  32.963  27.017  14.377
28254W        W87515  19.138  35.047  13.483
28255W        W87516  31.956   6.866   4.223
28256W        W87517  15.261   8.779   1.241
28257W        W87518  41.811   5.899   4.810
28258W        W87519  23.027   2.822  10.962
28259W        W87520  13.720  28.007   3.832
28260W        W87521  27.658  29.479  11.115
28261W        W87522  39.980  34.442   2.687
28262W        W87523   3.265  29.625  11.523
28263W        W87524   8.682  42.518   1.898
28264W        W87525  40.462  28.546   3.776
28265W        W87526  25.118  19.248  13.477
28266W        W87527  17.605  15.275  11.490
28267W        W87528  10.196  18.545   4.262
28268W        W87529  40.458  31.428   1.232
28269W        W87530   9.688  35.101  11.550
28270W        W87531  28.969  29.567  13.935
28271W        W87532  39.522   3.232  13.984
28272W        W87533  25.972   5.428   0.376
28273W        W87534  24.997  27.542  14.500
28274W        W87535  26.546   4.719  12.035
28275W        W87536  22.163   6.676   0.455
28276W        W87537   5.312  31.062   4.258
28277W        W87538   9.809  12.145   2.199
28278W        W87539   7.737  29.138  13.969
28279W        W87540   9.742   3.382   1.258
28280W        W87541  29.487  41.395   4.319
28281W        W87542   5.411  41.349  14.840
28282W        W87543  29.639   5.912   1.344
28283W        W87544  44.757  28.136  13.819
28284W        W87545  19.180  39.009  14.377
28285W        W87546   5.298   0.877   1.797
28286W        W87547  39.899  19.156  10.430
28287W        W87548   2.877  12.611  10.459
28288W        W87549  24.518  42.964  10.577
28289W        W87550   9.646  20.109   3.776
28290W        W87551  25.128   9.289  10.889
28291W        W87552  24.536  18.600   3.379
28292W        W87553  42.971  38.476  14.276
28293W        W87554  25.544   2.300  10.004
28294W        W87555  21.121  21.022   3.642
28295W        W87556  22.124  35.036  14.463
28296W        W87557  24.158  38.902   3.856
28297W        W87558  30.468  27.556   3.223
28298W        W87559  43.276  26.468   1.879
28299W        W87560  35.044   5.905   3.197
28300W        W87561  41.912  30.558   0.476
28301W        W87562  22.119  23.070  13.393
28302W        W87563  25.557  34.540   3.218
28303W        W87564  15.803  14.238   3.252
28304W        W87565  41.375  28.071   3.807
28305W        W87566   3.414  26.986  10.437
28306W        W87567  13.256  26.523  14.986
28307W        W87568  34.006   7.172   4.328
28308W        W87569  35.060   8.732   1.882
28309W        W87570  43.796  12.740   4.194
28310W        W87571  41.308  25.177  13.957
28311W        W87572   0.796  22.554  10.416
28312W        W87573  19.745  35.906   1.210
28313W        W87574  34.070  29.646   0.827
28314W        W87575   5.812  23.069  10.452
28315W        W87576  19.601   5.867  11.079
28316W        W87577  18.112  13.339  11.881
28317W        W87578   3.331   3.884  12.093
28318W        W87579  15.244  36.025  12.551
28319W        W87580  20.254  31.999  11.496
28320W        W87581   7.775  24.675   2.208
28321W        W87582  39.396  16.167   4.784
28322W        W87583  41.810  27.655   4.221
28323W        W87584   5.800  32.626   4.798
28324W        W87585  15.713  28.596   2.312
28325W        W87586  38.046  32.023   2.725
28326W        W87587  16.797  22.132   0.902
28327W        W87588  14.609   9.301  13.881
28328W        W87589  21.138   4.921  14.993
28329W        W87590  10.856   9.161  11.429
28330W        W87591  22.569   9.187  14.931
28331W        W87592  35.381  21.669  10.462
28332W        W87593  16.613  40.841   1.820
28333W        W87594  38.833  26.495   0.803
28334W        W87595   8.199  13.604  12.955
28335W        W87596   1.344  34.426  10.537
28336W        W87597  27.179  21.647   0.741
28337W        W87598  31.469   4.219   2.274
28338W        W87599  25.470  21.193   0.793
28339W        W87600   0.903  37.417   3.740
28340W        W87601  37.350  18.641   3.182
28341W        W87602  23.196  42.799  10.632
28342W        W87603  32.027  26.641   3.263
28343W        W87604   2.293  33.439   1.772
28344W        W87605  12.235  15.279  14.840
28345W        W87606  25.104  37.922   0.873
28346W        W87607  26.593   8.775   1.217
28347W        W87608   1.406  35.072  11.103
28348W        W87609  12.693   3.827  14.455
28349W        W87610   6.350  22.699   4.773
28350W        W87611  19.253  44.490   3.665
28351W        W87612   2.932  36.042  12.500
28352W        W87613   8.767  13.200   0.377
28353W        W87614  43.816   0.265  14.031
28354W        W87615   3.248  21.108   0.271
28355W        W87616  40.424  30.945   0.392
28356W        W87617  31.641   8.177   1.742
28357W        W87618   8.318  31.519  11.892
28358W        W87619  10.279  11.359   2.262
28359W        W87620  26.576  36.389  10.998
28360W        W87621  40.049  43.924   3.630
28361W        W87622  17.791  25.083  10.561
28362W        W87623  26.665   2.824  11.596
28363W        W87624  41.382  29.585   2.247
28364W        W87625  11.747  38.836  12.385
28365W        W87626   6.386  17.572   0.339
28366W        W87627   2.453  26.076  10.919
28367W        W87628   6.890  10.191  11.388
28368W        W87629  44.961  25.655  14.318
28369W        W87630  11.237  33.543   1.760
28370W        W87631  18.631   4.795  10.483
28371W        W87632  17.576  37.474  10.902
28372W        W87633   5.922   9.277  11.906
28373W        W87634  44.965  31.505  13.414
28374W        W87635  22.053   7.817  12.399
28375W        W87636   8.729  35.038  11.970
28376W        W87637  28.550  23.989  13.919
28377W        W87638  41.982  21.667   4.649
28378W        W87639   3.811  34.547  11.921
28379W        W87640   9.830  22.202  14.486
28380W        W87641  17.155  22.530  14.029
28381W        W87642  28.605  29.019  11.568
28382W        W87643  17.224  29.072  14.798
28383W        W87644  19.060  39.480  10.927
28384W        W87645  36.014   9.783   5.263
28385W        W87646   5.715   7.322  14.298
28386W        W87647   7.279  43.852   0.845
28387W        W87648   9.283  28.476  13.463
28388W        W87649  28.932  37.069   1.721
28389W        W87650  33.474  34.455   0.291
28390W        W87651  29.128   2.853  10.976
28391W        W87652  12.742   2.782  13.011
28392W        W87653   0.899   9.207   3.337
28393W        W87654  24.616  25.675   0.842
28394W        W87655  19.709  13.697  13.848
28395W        W87656  39.364  28.671  14.980
28396W        W87657  29.138  44.782   4.698
28397W        W87658  26.543  33.972  12.037
28398W        W87659   3.242  12.248  11.891
28399W        W87660   7.306  30.584  13.313
28400W        W87661  12.819  15.325  12.414
28401W        W87662  32.509  30.542   2.901
28402W        W87663   7.821  35.100  12.399
28403W        W87664  14.825   2.268   4.601
28404W        W87665  40.844  40.806  10.970
28405W        W87666   5.693  40.495  11.602
28406W        W87667   2.749  43.834   1.900
28407W        W87668  18.243   6.734  10.139
28408W        W87669  34.976  18.140   3.843
28409W        W87670  28.148  21.053   2.344
28410W        W87671   6.870  12.648  13.495
28411W        W87672  35.007  17.157   0.392
28412W        W87673  42.450  16.683   1.932
28413W        W87674  14.809   0.488  14.922
28414W        W87675  20.079  30.949  13.944
28415W        W87676   1.782  10.243  12.463
28416W        W87677  18.166  16.143  10.451
28417W        W87678   4.390  11.272   1.811
28418W        W87679  32.939  36.067  13.495
28419W        W87680   5.370  34.375   4.645
28420W        W87681  41.452   0.328  10.477
28421W        W87682  36.048  30.907   5.225
28422W        W87683  40.882  22.720   3.173
28423W        W87684  35.033  32.634   0.866
28424W        W87685  15.657  35.050  11.918
28425W        W87686  42.393  23.608  14.455
28426W        W87687  43.411  24.515   3.364
28427W        W87688  15.783   2.827   2.853
28428W        W87689  40.999  32.888   1.892
28429W        W87690  43.469  18.594   4.209
28430W        W87691  42.377  30.604   3.726
28431W        W87692  41.307   7.704  14.326
28432W        W87693  24.974  14.810  11.890
28433W        W87694  15.189   1.355  13.344
28434W        W87695  10.840  27.632  13.378
28435W        W87696  15.214  10.670   2.278
28436W        W87697  42.315  29.494  13.526
28437W        W87698   5.749  25.035  10.894
28438W        W87699  28.459  31.910   1.446
28439W        W87700  10.726  37.959  11.457
28440W        W87701  41.891  22.513   3.792
28441W        W87702  34.007  39.972  12.085
28442W        W87703  42.963  17.567   1.366
28443W        W87704  29.543  42.462  12.366
28444W        W87705  24.159  44.766   3.211
28445W        W87706  13.629  29.954  14.809
28446W        W87707  20.595  17.651   2.786
28447W        W87708  27.590  24.119  13.519
28448W        W87709  33.546   7.670   3.278
28449W        W87710   9.248  23.233   3.760
28450W        W87711  38.568  41.827  13.345
28451W        W87712  24.719   7.271   0.331
28452W        W87713  29.449   8.712  12.387
28453W        W87714  25.531  41.528   1.888
28454W        W87715  19.754  34.909   3.829
28455W        W87716   1.236  11.133  12.393
28456W        W87717  24.195   8.803   2.226
28457W        W87718  36.999  40.489  13.313
28458W        W87719  28.503  43.273  12.507
28459W        W87720  19.698   6.715  11.031
28460W        W87721  32.886  29.064  13.457
28461W        W87722  43.834  40.986   3.733
28462W        W87723  43.497  38.469   0.929
28463W        W87724  19.539  44.278   3.357
28464W        W87725   6.406   6.685   1.353
28465W        W87726   5.739  27.966   3.350
28466W        W87727   3.774  38.854  11.438
28467W        W87728  30.110  38.942   4.225
28468W        W87729  42.356   2.260   0.261
28469W        W87730   8.358  35.905   2.681
28470W        W87731  20.704  35.372  10.419
28471W        W87732  10.801  18.687  13.002
28472W        W87733  27.026  17.723  13.414
28473W        W87734  21.657  36.897  14.861
28474W        W87735  25.075  36.045  11.992
28475W        W87736  43.411   5.727  10.439
28476W        W87737  43.977  20.589   0.952
28477W        W87738  36.073   9.355   1.844
28478W        W87739  16.631   8.273  13.401
28479W        W87740  40.484  17.733   3.783
28480W        W87741  10.814  37.556   1.849
28481W        W87742   0.817  31.540   4.611
28482W        W87743  19.070   1.366   2.299
28483W        W87744   4.216  28.502  14.415
28484W        W87745   8.171  15.725  14.416
28485W        W87746  19.071   5.932  11.519
28486W        W87747  16.288  13.347   1.433
28487W        W87748  28.568  28.949  13.387
28488W        W87749  16.652  18.145   2.344
28489W        W87750   3.429  36.051   0.473
28490W        W87751  26.494  18.613  12.068
28491W        W87752   6.900  18.184   0.365
28492W        W87753  37.348  39.340   4.235
28493W        W87754  32.038  24.689   4.292
28494W        W87755  35.978  42.387   3.697
28495W        W87756  21.705  10.666  13.798
28496W        W87757  33.424  44.488   4.293
28497W        W87758   9.334   5.911   0.308
28498W        W87759  43.773  13.772  12.844
28499W        W87760  33.034  11.814  13.890
28500W        W87761  21.646   6.215   2.771
28501W        W87762  18.667   5.338   4.630
28502W        W87763  40.357  12.695  11.008
28503W        W87764  31.508   7.383  13.526
28504W        W87765  13.842  17.620  14.314
28505W        W87766  42.346  44.865   2.298
28506W        W87767  30.522  32.118  12.010
28507W        W87768  21.058  37.527   3.763
28508W        W87769   8.309  29.992   2.790
28509W        W87770  10.218  33.067   3.379
28510W        W87771  11.317   3.217  13.521
28511W        W87772  27.068  31.035  10.933
28512W        W87773   2.963  40.923  10.944
28513W        W87774   4.944  40.324   0.373
28514W        W87775  26.127  28.526  14.991
28515W        W87776  33.997  28.930  11.955
28516W        W87777  10.284  40.989  10.417
28517W        W87778  21.523  22.573   0.751
28518W        W87779  33.432   2.878  11.988
28519W        W87780  35.384  17.629  12.047
28520W        W87781  39.813  16.807   4.132
28521W        W87782  15.098  44.916  12.945
28522W        W87783   2.774  44.274  12.035
28523W        W87784  40.863  33.395  11.558
28524W        W87785   9.779  35.094   4.317
28525W        W87786   5.251  31.515  11.517
28526W        W87787   9.231  15.218   1.335
28527W        W87788  14.341  40.449  11.063
28528W        W87789  30.562  13.287   1.932
28529W        W87790  30.615  13.302   0.250
28530W        W87791  18.221  31.047  10.893
28531W        W87792  21.636  14.216   1.396
28532W        W87793  34.590  37.352   1.700
28533W        W87794   0.429  37.535   2.261
28534W        W87795  12.221   0.331   0.962
28535W        W87796  30.108  21.588  13.939
28536W        W87797  41.393  41.368   4.794
28537W        W87798  26.050  42.921   5.103
28538W        W87799  33.898  13.688   4.605
28539W        W87800  18.708  32.501  10.968
28540W        W87801  19.096  11.319  12.995
28541W        W87802  29.560  40.443   4.260
28542W        W87803  38.395  21.734   2.313
28543W        W87804  11.779   0.752   2.755
28544W        W87805  20.731  20.190   1.923
28545W        W87806  15.682  37.343   5.307
28546W        W87807   4.430  11.720   4.205
28547W        W87808  26.591  28.485   3.332
28548W        W87809  10.202  33.610   3.182
28549W        W87810   5.210  21.095   0.954
28550W        W87811  43.297  35.391   3.224
28551W        W87812  42.885  23.567   0.281
28552W        W87813  18.787  26.168  10.475
28553W        W87814   5.424   2.735  13.499
28554W        W87815   8.267  40.829  13.056
28555W        W87816  18.581  37.515   2.713
28556W        W87817   1.433  37.458  11.050
28557W        W87818  35.950  28.594  11.463
28558W        W87819  40.000  33.390   3.745
28559W        W87820  38.438   0.881  14.846
28560W        W87821  13.755  32.583  14.028
28561W        W87822   2.288  12.257   4.305
28562W        W87823  30.035  29.575  14.932
28563W        W87824  33.105  27.497   3.750
28564W        W87825  22.704  33.029   4.248
28565W        W87826  21.591  16.617   2.757
28566W        W87827  18.764  11.706  14.334
28567W        W87828  35.950  44.475  14.500
28568W        W87829  17.563   7.821  13.059
28569W        W87830  13.730  39.394  14.317
28570W        W87831  32.900   7.173   1.849
28571W        W87832  19.708   3.940   1.846
28572W        W87833  39.919  36.062   5.159
28573W        W87834  34.466  39.399   0.250
28574W        W87835  12.673  37.379  10.887
28575W        W87836  33.976  36.902   3.312
28576W        W87837  32.496   7.686  14.847
28577W        W87838  12.725  42.943  14.395
28578W        W87839   2.788  27.511  12.991
28579W        W87840  33.570  17.279   4.748
28580W        W87841  13.654   9.776   1.714
28581W        W87842  23.727  43.861   3.386
28582W        W87843  25.091  43.325  14.359
28583W        W87844   2.287   9.308  14.385
28584W        W87845  15.585  35.523   3.665
28585W        W87846  10.307  38.980   5.119
28586W        W87847  24.588  23.733  14.928
28587W        W87848  43.774  27.170  12.489
28588W        W87849  14.282  13.787   1.789
28589W        W87850   0.253  41.038  12.037
28590W        W87851  30.551  17.154  13.971
28591W        W87852  15.692  37.849   2.325
28592W        W87853  38.918  21.086   5.185
28593W        W87854  11.667  42.393   1.260
28594W        W87855  26.571  32.502   2.302
28595W        W87856  37.007  39.880   1.349
28596W        W87857  26.081  44.454   0.915
28597W        W87858  39.049  26.695   0.312
28598W        W87859  17.273  37.528  14.003
28599W        W87860  24.074  21.679  10.947
28600W        W87861   8.228  39.935   0.890
28601W        W87862  28.657  17.729   0.850
28602W        W87863  31.955  15.230   4.744
28603W        W87864  29.078  41.861  14.828
28604W        W87865  21.211  40.832   3.819
28605W        W87866  32.445   7.380   4.117
28606W        W87867  29.508  37.536  13.846
28607W        W87868  26.615  13.689   0.828
28608W        W87869   5.894  33.119   1.814
28609W        W87870  43.841  22.233  11.075
28610W        W87871  38.851  17.207  11.941
28611W        W87872  16.649  29.533  12.344
28612W        W87873   8.755  27.546   1.343
28613W        W87874   7.780  36.010  12.997
28614W        W87875  15.247  33.056   4.301
28615W        W87876   2.775  41.978  14.456
28616W        W87877  28.030  32.532  14.377
28617W        W87878  40.939   2.383  10.931
28618W        W87879  15.671  34.977   0.961
28619W        W87880  36.514  44.994   2.223
28620W        W87881  11.702   9.785   1.843
28621W        W87882  32.015  11.141  12.970
28622W        W87883  27.448  22.186   3.710
28623W        W87884   8.677  27.968   2.823
28624W        W87885  35.464  30.652   4.239
28625W        W87886  35.511  22.181  14.504
28626W        W87887  10.365  42.786   2.418
28627W        W87888  32.142   6.259  14.770
28628W        W87889  43.355   3.883  12.891
28629W        W87890  15.807  24.973  14.293
28630W        W87891   3.378   1.275  13.319
28631W        W87892  30.934  24.205  11.053
28632W        W87893  18.258   6.298   2.839
28633W        W87894   5.323  30.466   2.739
28634W        W87895  11.790  30.921  13.054
28635W        W87896  40.047   7.891   1.412
28636W        W87897  28.650  39.454   0.880
28637W        W87898  13.294   1.828  11.392
28638W        W87899  10.194  16.711  14.401
28639W        W87900   6.837  13.679  10.636
28640W        W87901  25.986  35.084   3.271
28641W        W87902   1.397  15.180  12.015
28642W        W87903   8.829  41.527   4.215
28643W        W87904  15.168  23.712  11.039
28644W        W87905   9.772  19.116  13.903
28645W        W87906   2.770  25.586  14.973
28646W        W87907  42.375   9.704   1.355
28647W        W87908  35.435   2.738   2.406
28648W        W87909   4.810  25.969  10.509
28649W        W87910  20.112  16.637   0.374
28650W        W87911  30.950  13.679  12.943
28651W        W87912  28.021  19.686   9.931
28652W        W87913   1.327   6.401  11.547
28653W        W87914  36.941  35.505   0.731
28654W        W87915  34.515  26.571   1.731
28655W        W87916  40.393  44.469  10.924
28656W        W87917  21.195  23.115  12.009
28657W        W87918  38.963  32.968  11.501
28658W        W87919  34.029  24.600  14.013
28659W        W87920  42.009  29.144   2.272
28660W        W87921  16.165   7.228  13.313
28661W        W87922  24.150  42.301  13.032
28662W        W87923  18.677   8.219   3.635
28663W        W87924  18.605  31.029   2.392
28664W        W87925  28.615  35.916   0.798
28665W        W87926  43.957  39.995  13.061
28666W        W87927  41.020  44.802   0.734
28667W        W87928  13.608  15.580   4.131
28668W        W87929  13.311  44.928   1.384
28669W        W87930   2.878  27.113  10.517
28670W        W87931  10.371   0.339   3.820
28671W        W87932  30.037   9.342   3.311
28672W        W87933   8.230   8.818  10.976
28673W        W87934  19.198  17.084   1.414
28674W        W87935  25.119  15.128  12.858
28675W        W87936   8.247  31.531   3.868
28676W        W87937  17.282  13.791   3.168
28677W        W87938  28.155  15.604   3.326
28678W        W87939  23.216  25.963   4.677
28679W        W87940  25.064   9.346   4.762
28680W        W87941   0.427  30.144  11.432
28681W        W87942  29.592   8.237   2.213
28682W        W87943  37.079  27.001   0.338
28683W        W87944  10.751  36.036   3.171
28684W        W87945  32.991  10.176  13.848
28685W        W87946  31.910  25.080  11.452
28686W        W87947  20.533   8.280   0.885
28687W        W87948   3.322  33.888  10.645
28688W        W87949  33.047  15.653  13.327
28689W        W87950   3.742  16.628   1.325
28690W        W87951  20.658  34.981   2.312
28691W        W87952  32.128  17.768  11.397
28692W        W87953   0.876  34.111  14.366
28693W        W87954  27.192  36.979   1.241
28694W        W87955  38.417  11.352   3.631
28695W        W87956   2.471  39.869   3.729
28696W        W87957  36.400  12.771   4.754
28697W        W87958  23.076  27.516  11.381
28698W        W87959  34.564  15.126   4.303
28699W        W87960  18.648  17.690   5.196
28700W        W87961  16.571   6.263   2.681
28701W        W87962  14.250  21.752  11.407
28702W        W87963  38.441  11.840  13.409
28703W        W87964  42.957  13.714  13.879
28704W        W87965  11.262  38.001   2.293
28705W        W87966  25.582  43.423   3.338
28706W        W87967   4.312  38.924  12.470
28707W        W87968  18.720   7.697   4.685
28708W        W87969   4.352  36.091   2.871
28709W        W87970  34.881  15.599   3.756
28710W        W87971  20.626  23.621   0.316
28711W        W87972  15.158  16.621   4.170
28712W        W87973   2.278  18.184   4.765
28713W        W87974  20.732  14.272   2.361
28714W        W87975   3.386  26.642  13.024
28715W        W87976  34.396  18.083   1.884
28716W        W87977  33.917   1.834  10.905
28717W        W87978  25.203  21.547  12.081
28718W        W87979  31.048  43.793   1.904
28719W        W87980  27.168  21.021  13.008
28720W        W87981  21.091  16.754   1.331
28721W        W87982  15.195  41.938   3.161
28722W        W87983   5.436  43.938   3.650
28723W        W87984  21.649   1.326  11.383
28724W        W87985  31.521  12.696   4.721
28725W        W87986   6.828  41.876   2.296
28726W        W87987  29.581  41.930  10.439
28727W        W87988  13.123  39.447  13.827
28728W        W87989   2.956  42.424  13.859
28729W        W87990  24.603  21.105  14.276
28730W        W87991  38.041  35.882   0.395
28731W        W87992   7.306  31.464   4.643
28732W        W87993   8.387  27.007   1.233
28733W        W87994  35.512   0.805   2.405
28734W        W87995  18.624   3.317  14.831
28735W        W87996   2.326  44.839  14.503
28736W        W87997  40.319  39.440  10.535
28737W        W87998  38.896  19.561  13.000
28738W        W87999  42.501  26.191  14.891
28739W        W88000  11.368  16.265   0.453
28740W        W88001  16.193  18.675  12.369
28741W        W88002  22.513  26.470   0.943
28742W        W88003  27.598  10.328  10.072
28743W        W88004  26.489   0.388   1.306
28744W        W88005  18.220  15.817   1.368
28745W        W88006  37.868  15.289  10.423
28746W        W88007   4.923  40.900  14.827
28747W        W88008  15.188  18.771  12.412
28748W        W88009  22.018   2.299  11.574
28749W        W88010  14.142   6.353   2.228
28750W        W88011  16.801  34.935  13.895
28751W        W88012  19.236  16.674  10.128
28752W        W88013  12.360  15.749   2.190
28753W        W88014  38.009   5.776   1.881
28754W        W88015  29.533  17.083   4.726
28755W        W88016  27.537  33.925  13.870
28756W        W88017  12.796  10.269   3.717
28757W        W88018  25.215   5.244  12.373
28758W        W88019  23.530  44.491   2.875
28759W        W88020  21.705   5.846   4.291
28760W        W88021  27.999  38.859   4.654
28761W        W88022   2.427  41.507   0.753
28762W        W88023  17.719  16.632  13.917
28763W        W88024   1.833  17.664  14.304
28764W        W88025  42.026   5.928   1.447
28765W        W88026   0.487  26.665   4.669
28766W        W88027  15.665  27.013  12.431
28767W        W88028  42.481  28.136   2.692
28768W        W88029   6.423  15.104   2.204
28769W        W88030  20.148  40.347  11.589
28770W        W88031  44.785  42.482   3.852
28771W        W88032  39.044  20.107   2.198
28772W        W88033  40.534  18.067  13.398
28773W        W88034   4.846  35.599   3.164
28774W        W88035  13.736  34.432   2.194
28775W        W88036   8.382   5.758   0.955
28776W        W88037  40.478   4.441  12.070
28777W        W88038  20.067  20.703   0.790
28778W        W88039  18.555  12.123   4.705
28779W        W88040  25.095   4.762   1.833
28780W        W88041   7.878   1.945   2.407
28781W        W88042  18.281  35.489  13.980
28782W        W88043  40.397  11.349  12.442
28783W        W88044  42.898  33.579  10.914
28784W        W88045   1.966  44.914   3.171
28785W        W88046  28.086  33.553   2.825
28786W        W88047  44.993  17.219   0.775
28787W        W88048   8.895  36.460   0.951
28788W        W88049  27.680  19.140   4.163
28789W        W88050   0.428  26.052   4.650
28790W        W88051  31.053   9.707  11.058
28791W        W88052  13.807   6.705  13.826
28792W        W88053  28.655  34.942  10.421
28793W        W88054  22.067  32.628   5.617
28794W        W88055  26.654  21.744   0.362
28795W        W88056  18.270  31.546  12.045
28796W        W88057  41.788  25.705   1.898
28797W        W88058   5.695  29.075  13.410
28798W        W88059   5.765   4.778  13.991
28799W        W88060  34.542  33.951   3.822
28800W        W88061  16.668   7.892   2.398
28801W        W88062   3.455  14.315   4.268
28802W        W88063  41.538  18.702  12.027
28803W        W88064  28.494  22.725  11.394
28804W        W88065  44.925  39.056  14.363
28805W        W88066  24.489  35.598   3.632
28806W        W88067  40.307   7.812   4.137
28807W        W88068  32.904   3.753   4.605
28808W        W88069  13.330  32.916  10.964
28809W        W88070   5.280  14.181   3.234
28810W        W88071  43.977  12.311   2.870
28811W        W88072  38.958  18.551  12.861
28812W        W88073  21.529  29.640  13.421
28813W        W88074  22.051  36.060  11.101
28814W        W88075  31.964   1.807   4.141
28815W        W88076  44.408  24.099   4.251
28816W        W88077  14.830  32.075  14.848
28817W        W88078   1.354  20.174  11.511
28818W        W88079   0.945  41.328  13.980
28819W        W88080  28.634  42.921   3.688
28820W        W88081  34.431   5.834  11.462
28821W        W88082  38.508   0.271  12.073
28822W        W88083   9.879   4.269  11.562
28823W        W88084  40.897   3.357   3.852
28824W        W88085  17.127  27.020  13.796
28825W        W88086  28.984  22.692   4.771
28826W        W88087  35.011  20.647  13.875
28827W        W88088  34.013  15.250   4.791
28828W        W88089   0.747  31.585   3.758
28829W        W88090   6.307  31.557  14.461
28830W        W88091  31.040  34.456  11.108
28831W        W88092  13.273  28.973  11.129
28832W        W88093   3.270  36.860   0.949
28833W        W88094  38.048   4.424  13.321
28834W        W88095   4.218  30.601   1.730
28835W        W88096  28.177  26.592   2.338
28836W        W88097  31.900   7.254  12.927
28837W        W88098   3.842  16.568   0.756
28838W        W88099  33.882  10.239  11.091
28839W        W88100   5.343   5.872   9.541
28840W        W88101   6.881  28.670  10.604
28841W        W88102  22.186  26.465   3.203
28842W        W88103  35.463   8.859   1.255
28843W        W88104  36.937  35.454  13.865
28844W        W88105  22.228   0.943   3.237
28845W        W88106  24.649  15.708   1.935
28846W        W88107  42.397  31.933  14.997
28847W        W88108  15.269   3.859   0.760
28848W        W88109  28.638   0.784  11.072
28849W        W88110   0.479  15.604  11.911
28850W        W88111  24.709  38.552  12.472
28851W        W88112  44.868  28.163  13.033
28852W        W88113  14.279  26.081  14.467
28853W        W88114   0.750  15.633   5.135
28854W        W88115  43.007  14.137   1.868
28855W        W88116  11.259   2.403   3.863
28856W        W88117   2.339  43.911   2.241
28857W        W88118  19.092  12.280  14.012
28858W        W88119  20.049  39.505  13.922
28859W        W88120   7.382  19.251   0.436
28860W        W88121   9.346  24.224   3.375
28861W        W88122   7.874  12.692  11.908
28862W        W88123  33.583  12.275   3.776
28863W        W88124  29.072  38.960  11.034
28864W        W88125  15.090  44.897   3.289
28865W        W88126  39.948  27.948  11.572
28866W        W88127  18.610  21.651   0.285
28867W        W88128  43.418  40.406  13.331
28868W        W88129  11.131   6.383  13.435
28869W        W88130  43.964  33.568   2.799
28870W        W88131  21.113  10.319  14.802
28871W        W88132  36.580  30.104   2.267
28872W        W88133  38.346  16.100   3.365
28873W        W88134  31.965  14.280  11.478
28874W        W88135  38.408  31.483  11.108
28875W        W88136  42.405  37.511   1.797
28876W        W88137   2.443  22.621   0.429
28877W        W88138  18.087   4.858  10.560
28878W        W88139  30.003  39.848   3.328
28879W        W88140   7.350  38.949   9.966
28880W        W88141  28.969  12.248  12.579
28881W        W88142  15.749  34.512   1.914
28882W        W88143  40.940   0.357  13.949
28883W        W88144  24.611  36.454  13.391
28884W        W88145  42.788  32.077  14.280
28885W        W88146  14.194  36.976  10.488
28886W        W88147   9.848   7.722  13.886
28887W        W88148  26.493  15.277   0.726
28888W        W88149   4.274   9.722  13.841
28889W        W88150  37.944  39.511  10.994
28890W        W88151   9.807   3.437  14.515
28891W        W88152  39.492  44.853   2.752
28892W        W88153  20.237  41.850   4.676
28893W        W88154  40.472  38.968  13.813
28894W        W88155  17.668  10.184   0.342
28895W        W88156  23.622   5.405   1.929
28896W        W88157  26.701  26.632   4.180
28897W        W88158  30.504   3.409  10.576
28898W        W88159   9.328  18.289  13.449
28899W        W88160  27.628  23.147  11.924
28900W        W88161  17.151  22.237  11.001
28901W        W88162  15.605  12.742   2.226
28902W        W88163  25.056   8.668  10.500
28903W        W88164   9.886  19.699   0.411
28904W        W88165  32.570  13.703  14.377
28905W        W88166  14.317  31.534  11.512
28906W        W88167  28.139  14.720   1.311
28907W        W88168  13.200  44.405   3.778
28908W        W88169  11.770   6.266   3.165
28909W        W88170  24.223  21.578   3.355
28910W        W88171  25.566   7.805   4.119
28911W        W88172  37.020  11.644  12.857
28912W        W88173  44.263  15.653  14.964
28913W        W88174   3.939  36.495  11.988
28914W        W88175  12.330   2.902  13.341
28915W        W88176   3.872  18.789   1.930
28916W        W88177   8.202  17.083  10.415
28917W        W88178  32.529   3.254   0.385
28918W        W88179  17.193   9.797   3.259
28919W        W88180   5.736  15.668   2.352
28920W        W88181   4.724  32.111   1.707
28921W        W88182  13.180  38.834   0.843
28922W        W88183   6.190  19.767   4.206
28923W        W88184   8.734  30.437  12.988
28924W        W88185   5.796  35.907   3.276
28925W        W88186   5.872   1.285   2.188
28926W        W88187   8.287  22.559  14.888
28927W        W88188  12.729   7.872  11.021
28928W        W88189  37.561  32.923  13.046
28929W        W88190  32.910  30.094  11.902
28930W        W88191  38.913  42.996  12.389
28931W        W88192  27.080   8.195   2.370
28932W        W88193  15.627  33.409  10.496
28933W        W88194  23.715  35.511  12.442
28934W        W88195  32.932  33.966   4.206
28935W        W88196  26.475  28.075  13.324
28936W        W88197  26.983  38.524  12.489
28937W        W88198   4.714  26.010   2.688
28938W        W88199  42.872  34.035   4.308
28939W        W88200  34.946  10.824  12.969
28940W        W88201  36.542  31.094  13.931
28941W        W88202   3.266  36.959   1.449
28942W        W88203   8.343  24.605   0.733
28943W        W88204   6.919   4.783  11.527
28944W        W88205  30.162  18.679  13.011
28945W        W88206   9.783  30.656   3.188
28946W        W88207   8.392  29.947   2.253
28947W        W88208  20.557  26.602  10.502
28948W        W88209   6.897   0.832   2.667
28949W        W88210   3.345   6.874   0.274
28950W        W88211   3.247  40.965  13.908
28951W        W88212  43.285  34.910   0.309
28952W        W88213  35.390   2.773   3.764
28953W        W88214   7.877  38.984   9.940
28954W        W88215  29.644  36.089   0.766
28955W        W88216  12.710  23.674   3.829
28956W        W88217   3.954  13.811  12.928
28957W        W88218   7.208  36.063   3.768
28958W        W88219   2.856  35.486   0.373
28959W        W88220  37.448  34.030  11.606
28960W        W88221  14.310   3.793   4.219
28961W        W88222  18.085  13.347   1.382
28962W        W88223   6.424  34.529   3.302
28963W        W88224   2.434  20.257   3.229
28964W        W88225  24.136  11.854  11.580
28965W        W88226  21.615   9.361   3.162
28966W        W88227  38.337  25.196   5.236
28967W        W88228   6.756  15.597   2.310
28968W        W88229   6.726  41.904  12.833
28969W        W88230  21.018  31.449  13.854
28970W        W88231   3.737  11.724  13.825
28971W        W88232  21.261  40.904  10.508
28972W        W88233  12.283  22.077  14.935
28973W        W88234  26.487  24.688   3.858
28974W        W88235  43.869  23.097  14.031
28975W        W88236  29.552  30.451  14.297
28976W        W88237  38.027   6.332   4.781
28977W        W88238   3.721  30.975  11.603
28978W        W88239  25.193  10.255  13.936
28979W        W88240  19.608  24.028   3.738
28980W        W88241  37.397  24.979   2.869
28981W        W88242  33.568  19.130  10.479
28982W        W88243  33.047  43.009  14.937
28983W        W88244  22.514  37.579  14.850
28984W        W88245  39.824  39.984  12.522
28985W        W88246  31.403  39.870  10.591
28986W        W88247   8.820  11.807  14.415
28987W        W88248  22.715  19.598  11.483
28988W        W88249  31.974  11.194   0.865
28989W        W88250  33.086  26.131   3.671
28990W        W88251  40.018  19.117   3.195
28991W        W88252  22.641  16.750   2.395
28992W        W88253   8.389   8.177   0.844
28993W        W88254  37.540  38.887   1.226
28994W        W88255   1.738   4.340   2.728
28995W        W88256  34.413  24.120  10.937
28996W        W88257   6.756  24.119   2.314
28997W        W88258  39.893  32.481  11.917
28998W        W88259  22.553  10.794   0.956
28999W        W88260   2.267  14.118   0.454
29000W        W88261  39.388  36.584  12.492
29001W        W88262  11.251  31.944   4.820
29002W        W88263  22.105  39.922   4.763
29003W        W88264  30.513  15.168  10.444
29004W        W88265   0.280  19.560  12.550
29005W        W88266   0.411   9.880   2.409
29006W        W88267  23.661  38.012   3.713
29007W        W88268  17.128  28.558   1.245
29008W        W88269  11.249  41.035   3.312
29009W        W88270  13.235  28.646   1.390
29010W        W88271   3.839  26.039   3.210
29011W        W88272  38.969  12.820  10.037
29012W        W88273   5.329  27.559   2.257
29013W        W88274  17.225  14.821   2.342
29014W        W88275  22.680  38.839   3.695
29015W        W88276  41.864  27.459   1.450
29016W        W88277  36.588  33.506  11.505
29017W        W88278  37.891  15.813  14.507
29018W        W88279  27.956  42.477   1.888
29019W        W88280  42.012  27.166   2.201
29020W        W88281   5.325  12.277   3.703
29021W        W88282   0.847  41.360  11.953
29022W        W88283  11.721  35.535  13.453
29023W        W88284  44.825  12.358  11.877
29024W        W88285  26.975   8.295  12.490
29025W        W88286  32.897  26.533   1.819
29026W        W88287  12.202  12.767  10.982
29027W        W88288  26.568  33.568  10.989
29028W        W88289  40.807   5.294  12.389
29029W        W88290  37.544  36.459  10.568
29030W        W88291   8.793   8.818   2.396
29031W        W88292  16.593  18.750   0.399
29032W        W88293  13.771   6.813   2.851
29033W        W88294   3.949  37.837  11.979
29034W        W88295  41.466  17.183  14.870
29035W        W88296  38.534  33.489  14.305
29036W        W88297   3.785  43.875  13.509
29037W        W88298  38.486  21.175  11.449
29038W        W88299  29.074   1.470   5.211
29039W        W88300  20.195  34.964  13.460
29040W        W88301  26.091  15.210  13.327
29041W        W88302  42.825  27.146  11.892
29042W        W88303  10.716  44.408  14.296
29043W        W88304  10.632  36.411   4.679
29044W        W88305  30.149  38.828   3.850
29045W        W88306  12.162   6.885   2.186
29046W        W88307   3.917  18.265  10.458
29047W        W88308  33.882  44.848   3.336
29048W        W88309  28.467  20.208   2.710
29049W        W88310  42.867  40.963  12.907
29050W        W88311   7.821  17.124  11.006
29051W        W88312  36.461  32.393  14.349
29052W        W88313  35.964  33.007   3.771
29053W        W88314  34.527   3.451  12.905
29054W        W88315  16.211  16.768   3.367
29055W        W88316   4.753  20.580   3.289
29056W        W88317   2.395  12.320   3.767
29057W        W88318  17.694  37.342  10.493
29058W        W88319   1.291  12.239  11.870
29059W        W88320   8.815   9.345  14.516
29060W        W88321  33.531  37.411   1.426
29061W        W88322  23.646  43.384   3.350
29062W        W88323  38.017  25.650   9.966
29063W        W88324   0.977  43.424   4.712
29064W        W88325  19.748  18.777   0.751
29065W        W88326  24.559  41.032  11.536
29066W        W88327  41.992  30.648   3.148
29067W        W88328   4.272  21.245  11.043
29068W        W88329  31.906  13.244   2.856
29069W        W88330  22.136  30.441  11.413
29070W        W88331  27.494   3.956  14.834
29071W        W88332  37.956  42.504  13.911
29072W        W88333  33.952   4.771  11.443
29073W        W88334   4.932  26.636   2.874
29074W        W88335  18.708  29.935  14.363
29075W        W88336  32.006  13.794   2.766
29076W        W88337  44.432  12.613  10.499
29077W        W88338   8.248  33.466  11.520
29078W        W88339  33.480   8.899  14.858
29079W        W88340  15.769  13.165   3.833
29080W        W88341  36.011  25.045  11.127
29081W        W88342  39.037  21.672   1.773
29082W        W88343   9.668  15.685   0.801
29083W        W88344  29.480   4.383   2.695
29084W        W88345  34.595   6.370   2.294
29085W        W88346  32.614  33.564   2.343
29086W        W88347   6.797  11.289  14.339
29087W        W88348  14.796  26.533   4.172
29088W        W88349  44.768  28.945  13.315
29089W        W88350  24.720   6.909   2.273
29090W        W88351  38.345  25.096  13.485
29091W        W88352  39.381   4.847  13.859
29092W        W88353  33.909   0.824  14.792
29093W        W88354  24.112  18.170   3.285
29094W        W88355  44.886  40.805  13.423
29095W        W88356  39.437  39.057  14.830
29096W        W88357  15.807  13.671  11.944
29097W        W88358   0.294  24.107  10.461
29098W        W88359  40.806   4.266  13.411
29099W        W88360  35.436   4.807  10.489
29100W        W88361  16.114   7.182  11.605
29101W        W88362  12.753   9.767   1.882
29102W        W88363  25.974   1.807   0.417
29103W        W88364   9.690  13.661  14.880
29104W        W88365  38.946   8.317  12.362
29105W        W88366   4.367  17.649   3.771
29106W        W88367  35.899  16.230  12.375
29107W        W88368  36.920  42.997  12.539
29108W        W88369  30.087  14.120  12.910
29109W        W88370  31.603   4.924  11.082
29110W        W88371   5.764   5.828   2.836
29111W        W88372  35.452  39.049   2.221
29112W        W88373  40.858   4.338  10.528
29113W        W88374  10.255  18.590   2.769
29114W        W88375  37.067  13.605   4.144
29115W        W88376   4.756   3.267  10.106
29116W        W88377  44.348  26.961  11.557
29117W        W88378  27.009   5.851   2.698
29118W        W88379   2.399   7.171   4.227
29119W        W88380  40.977  13.792  14.494
29120W        W88381  25.006  43.837   9.953
29121W        W88382  41.348  39.881   2.824
29122W        W88383   0.773  38.059   2.775
29123W        W88384   5.206  15.635   2.709
29124W        W88385   7.231  31.505  14.871
29125W        W88386  32.895   0.329  13.401
29126W        W88387  33.882  17.600   2.699
29127W        W88388  28.679   2.344  14.011
29128W        W88389   1.315  13.824   2.828
29129W        W88390   0.456   5.921   3.192
29130W        W88391  19.173  18.642  12.411
29131W        W88392   3.721  30.048   2.196
29132W        W88393  17.559  34.532   0.925
29133W        W88394  44.779  15.177  12.983
29134W        W88395   6.839  34.416   3.793
29135W        W88396   6.868  36.350   2.385
29136W        W88397  14.791   7.689   2.701
29137W        W88398  35.867  28.544  14.284
29138W        W88399  14.645  44.955   3.173
29139W        W88400  26.506  19.069  14.769
29140W        W88401  20.153  29.461  13.990
29141W        W88402   8.802  18.248  14.325
29142W        W88403   5.417  27.047  10.594
29143W        W88404  31.488  25.482  14.930
29144W        W88405  41.886  33.036   4.677
29145W        W88406   5.834  25.191  11.878
29146W        W88407   3.392  24.635  13.369
29147W        W88408   6.428  19.721  11.533
29148W        W88409  15.230  10.703  13.481
29149W        W88410  22.685  28.950   2.780
29150W        W88411  11.780   3.779  12.449
29151W        W88412  30.441   3.384  13.438
29152W        W88413  10.767  36.390  13.496
29153W        W88414  28.959  19.610  13.455
29154W        W88415   5.915  40.843  13.849
29155W        W88416  27.462   2.309   0.819
29156W        W88417  43.412   5.904   3.730
29157W        W88418  15.656  17.107   2.362
29158W        W88419   7.796  14.191  12.082
29159W        W88420  30.510  22.650   4.153
29160W        W88421   6.409  33.037  12.872
29161W        W88422   0.743   3.838  12.340
29162W        W88423  26.582   5.873  14.880
29163W        W88424   5.716  27.630  10.896
29164W        W88425  22.714   0.421   4.194
29165W        W88426  26.528  42.322   2.339
29166W        W88427  21.630  35.430  12.080
29167W        W88428  39.848  40.415  12.076
29168W        W88429  22.612  34.024   1.377
29169W        W88430  24.175  29.448   4.599
29170W        W88431   3.826   5.759  14.016
29171W        W88432   3.290  26.586  11.457
29172W        W88433  37.404  11.700  12.926
29173W        W88434   3.748   0.401   0.473
29174W        W88435   0.926  21.078  12.405
29175W        W88436  42.430  15.823   4.680
29176W        W88437  11.744  37.833  14.923
29177W        W88438  11.334   5.259  14.978
29178W        W88439  12.250  28.122  11.488
29179W        W88440  17.703  16.100  12.858
29180W        W88441  31.507   6.869   1.247
29181W        W88442  33.902  20.105   3.742
29182W        W88443  35.426  16.248  13.406
29183W        W88444  16.121  19.684   1.707
29184W        W88445  30.147   2.832   0.843
29185W        W88446  20.063  27.660  10.903
29186W        W88447  17.658  38.882   3.380
29187W        W88448  14.758   4.337  14.763
29188W        W88449   9.806  17.645  13.436
29189W        W88450   5.285  17.286  13.027
29190W        W88451  31.012  14.297  14.860
29191W        W88452  24.149   8.179  13.979
29192W        W88453  22.589  18.064   3.328
29193W        W88454   0.944  11.753  10.422
29194W        W88455  27.650   3.839   1.703
29195W        W88456  24.217   6.889   2.763
29196W        W88457  38.912  24.679   3.770
29197W        W88458   3.836  15.211   4.688
29198W        W88459  30.103  42.906   5.302
29199W        W88460   0.941  31.025  14.916
29200W        W88461   8.318  26.511  11.916
29201W        W88462  21.185  14.784   0.882
29202W        W88463   0.766  31.522  10.970
29203W        W88464  42.338  29.979  13.009
29204W        W88465  38.430  16.082  14.315
29205W        W88466  37.487  32.910   1.841
29206W        W88467  36.430   3.731   1.277
29207W        W88468  15.152  41.491   3.630
29208W        W88469   9.363  14.691   0.892
29209W        W88470  35.105  34.407   0.382
29210W        W88471  44.945   3.268  13.824
29211W        W88472   8.670  44.915   1.751
29212W        W88473   6.336   7.898  14.976
29213W        W88474  35.516  28.062   1.234
29214W        W88475   5.731  35.101  10.481
29215W        W88476  38.392  11.302  10.531
29216W        W88477  17.676   8.749   4.644
29217W        W88478  28.635  22.111  13.461
29218W        W88479  20.576  10.147  13.915
29219W        W88480  26.650  32.605   3.780
29220W        W88481  12.253   3.753   3.753
29221W        W88482  10.192   8.356  11.985
29222W        W88483  27.646  16.082  11.104
29223W        W88484  41.978  17.064   4.256
29224W        W88485  30.433  22.561  12.837
29225W        W88486  25.497   6.288  13.965
29226W        W88487   4.273  14.260   1.341
29227W        W88488   0.456  10.644  11.057
29228W        W88489  21.209  41.419   0.813
29229W        W88490   2.323  29.143  11.124
29230W        W88491  27.549  41.898  10.912
29231W        W88492  29.054  16.192  13.490
29232W        W88493  33.024  10.258   2.206
29233W        W88494  29.991   5.244   1.375
29234W        W88495  34.867   5.370   2.373
29235W        W88496   6.705  38.063  11.589
29236W        W88497  23.597  18.134   4.628
29237W        W88498   4.339   6.260  14.431
29238W        W88499  26.061  28.634   1.800
29239W        W88500  19.053   5.741  13.935
29240W        W88501  22.713  30.094   1.344
29241W        W88502   6.818   9.250   1.868
29242W        W88503   2.800  10.170   2.203
29243W        W88504   0.876  35.372  14.847
29244W        W88505  44.866   7.299   4.741
29245W        W88506  43.949  23.235   3.243
29246W        W88507  38.339  34.469   0.803
29247W        W88508  34.891  37.450   2.193
29248W        W88509  22.080  12.285  14.765
29249W        W88510  32.456   5.255   2.874
29250W        W88511  16.189  12.116   3.631
29251W        W88512   5.417  20.567   1.757
29252W        W88513  12.162  26.542  13.935
29253W        W88514  11.364  12.266  14.846
29254W        W88515  44.354  11.672   3.339
29255W        W88516  43.922  10.719   3.382
29256W        W88517  10.832  21.625  10.406
29257W        W88518  30.052  32.977   1.757
29258W        W88519  20.072  40.931  11.031
29259W        W88520  16.249  23.550   1.390
29260W        W88521  41.520  17.639  12.017
29261W        W88522  23.112  44.338  11.502
29262W        W88523  28.940  27.675   0.847
29263W        W88524  10.672  14.806   2.202
29264W        W88525  11.736  10.649   0.775
29265W        W88526   6.822  21.125  14.910
29266W        W88527   6.202   5.829  11.989
29267W        W88528  24.616  39.023   4.824
29268W        W88529  19.632   1.855  13.350
29269W        W88530  15.107  10.792  12.899
29270W        W88531  39.877  40.880  11.611
29271W        W88532  27.550  39.919   2.254
29272W        W88533  18.217  25.547  13.518
29273W        W88534  43.494  28.014  14.479
29274W        W88535  18.675   6.208   0.945
29275W        W88536  34.485  20.614  14.883
29276W        W88537  40.991   4.723   3.686
29277W        W88538  21.700  18.081  12.881
29278W        W88539  29.061   7.710   0.397
29279W        W88540  15.134   0.820   0.411
29280W        W88541   9.787  24.487   4.642
29281W        W88542  27.547  28.090   0.330
29282W        W88543  30.052  19.256   1.427
29283W        W88544  15.729  17.616   4.117
29284W        W88545  24.009   3.407  11.595
29285W        W88546   1.463  29.667   4.144
29286W        W88547  39.948  27.094  11.898
29287W        W88548  12.354  13.743  10.644
29288W        W88549   3.912  42.893   2.888
29289W        W88550  11.370  42.381  14.918
29290W        W88551  39.983  41.482   2.901
29291W        W88552  43.311  20.687  11.913
29292W        W88553  13.350   5.924   3.350
29293W        W88554  33.039  14.171   3.168
29294W        W88555  24.598  10.715   4.692
29295W        W88556  19.558  17.154   4.724
29296W        W88557  24.089  29.543   1.781
29297W        W88558  32.096   3.286   4.623
29298W        W88559  41.401  28.579   5.268
29299W        W88560   9.866  39.385  13.964
29300W        W88561   7.826  24.663   0.269
29301W        W88562  16.130  25.105   3.193
29302W        W88563  17.750  31.507  10.995
29303W        W88564   6.354  40.971  14.894
29304W        W88565  29.059  16.601  13.883
29305W        W88566  23.665  11.636   1.375
29306W        W88567  28.590  35.540   4.620
29307W        W88568   6.387  36.368  12.569
29308W        W88569  44.893  26.602  10.624
29309W        W88570   8.864  28.078  11.029
29310W        W88571  10.234  21.596  12.052
29311W        W88572  29.444  13.225   2.710
29312W        W88573  32.013  36.972   2.698
29313W        W88574  16.154  26.618   0.832
29314W        W88575  10.165  36.486  12.411
29315W        W88576   1.858  12.242   2.204
29316W        W88577  40.936  43.393   2.350
29317W        W88578  17.177  20.625   3.295
29318W        W88579  22.658   0.895  11.489
29319W        W88580   1.242  25.106  11.390
29320W        W88581  11.205  28.079  10.547
29321W        W88582  21.086   8.657   0.442
29322W        W88583  13.259  12.325   1.712
29323W        W88584  29.578  18.676  14.772
29324W        W88585  35.524  33.924   3.845
29325W        W88586  42.865  11.345   1.353
29326W        W88587  21.191  31.081   2.365
29327W        W88588   6.892  13.606  14.851
29328W        W88589  41.908  33.455   3.710
29329W        W88590  25.120   9.222   4.184
29330W        W88591  19.580  10.771  11.388
29331W        W88592  28.074   2.470   0.863
29332W        W88593  38.974  28.620   2.860
29333W        W88594  10.801  17.783  14.870
29334W        W88595  36.050  13.247  11.580
29335W        W88596  29.072  20.592  14.377
29336W        W88597   4.383  19.139  13.865
29337W        W88598  44.411  23.636   1.252
29338W        W88599   1.240  21.596  14.329
29339W        W88600   9.244  22.599  13.433
29340W        W88601   7.281   9.357  10.946
29341W        W88602   6.767  26.148   1.319
29342W        W88603   5.691  16.585  11.045
29343W        W88604  18.268  41.042  14.490
29344W        W88605  26.493   3.787   1.391
29345W        W88606  17.085  28.073  11.589
29346W        W88607  27.048  22.743  10.996
29347W        W88608  42.496   2.304   3.305
29348W        W88609  44.379  36.375   9.635
29349W        W88610  29.631   1.816   2.229
29350W        W88611  34.615  36.001   4.637
29351W        W88612  14.730   4.397  13.331
29352W        W88613  13.760  32.926  10.441
29353W        W88614   1.372  21.135  14.948
29354W        W88615   6.251  11.246   4.290
29355W        W88616  12.148  13.746  13.877
29356W        W88617  43.887  14.707  12.532
29357W        W88618  36.932  31.901  10.932
29358W        W88619   3.951   5.348   0.352
29359W        W88620   0.915  32.467  14.288
29360W        W88621   2.453  29.137   2.294
29361W        W88622  16.215  12.761   4.261
29362W        W88623   4.235   5.201   4.205
29363W        W88624  20.654  43.402  12.903
29364W        W88625  28.161  19.709   1.282
29365W        W88626  44.766   6.324  10.407
29366W        W88627  28.171  11.780  11.919
29367W        W88628  29.105  15.119  14.799
29368W        W88629  13.696  43.965   2.848
29369W        W88630  32.090  15.656  13.807
29370W        W88631   0.365  18.726  14.936
29371W        W88632  15.142  30.945  11.963
29372W        W88633  19.637  16.619   3.766
29373W        W88634  37.371  44.001  10.474
29374W        W88635   8.179  16.077  13.821
29375W        W88636   4.444  26.150   3.813
29376W        W88637  17.242  20.614  13.546
29377W        W88638  38.502  23.690   3.649
29378W        W88639  29.138   6.304   4.295
29379W        W88640  34.476  35.936  12.983
29380W        W88641  32.900  29.999   0.890
29381W        W88642  43.419  12.222  14.293
29382W        W88643  41.795   2.389  10.986
29383W        W88644   0.373  14.222  10.992
29384W        W88645  16.231  26.690   4.770
29385W        W88646  22.652   0.797   4.836
29386W        W88647  23.652   4.268   0.778
29387W        W88648   7.313  34.414  11.528
29388W        W88649   8.885  40.500  12.565
29389W        W88650  39.878  10.840  13.813
29390W        W88651  41.429  13.732   3.311
29391W        W88652  10.326  35.062  10.581
29392W        W88653  34.034  23.026  13.394
29393W        W88654  27.609  40.536  11.879
29394W        W88655  25.593  10.198   5.250
29395W        W88656  21.211  12.269  13.903
29396W        W88657  43.379  11.737  12.558
29397W        W88658  17.719  36.453   0.921
29398W        W88659   8.328   3.924  12.397
29399W        W88660  22.050  32.116   0.297
29400W        W88661  43.904   3.311   1.867
29401W        W88662  44.886   5.327  14.982
29402W        W88663  31.493  14.638   4.329
29403W        W88664  26.141  32.478  10.974
29404W        W88665  36.972  32.545  14.426
29405W        W88666   4.777  24.558  13.535
29406W        W88667  37.846  30.557   1.888
29407W        W88668   8.283  23.549   3.789
29408W        W88669   7.806   8.327  12.538
29409W        W88670  35.054   3.894  12.918
29410W        W88671  27.653  36.877  13.430
29411W        W88672  35.897  44.826   4.676
29412W        W88673  32.002  44.899   2.337
29413W        W88674  30.009   9.658   1.824
29414W        W88675  25.603  13.271  11.914
29415W        W88676  16.607   6.346   2.242
29416W        W88677  23.643  28.500  11.443
29417W        W88678  29.458  16.278  14.483
29418W        W88679  10.824  32.569  14.515
29419W        W88680  42.886  40.032   4.815
29420W        W88681  44.299  29.979  14.284
29421W        W88682  17.081  20.271   0.822
29422W        W88683  21.079  36.952   3.354
29423W        W88684  36.850  25.515   3.770
29424W        W88685   6.335   2.419  14.376
29425W        W88686  21.117   3.340   1.415
29426W        W88687  16.742  38.851   3.385
29427W        W88688  44.389   8.677  13.432
29428W        W88689  36.412   9.706   1.864
29429W        W88690  31.987  15.208   4.258
29430W        W88691   4.372  33.604   4.678
29431W        W88692  27.657  29.488   0.736
29432W        W88693  19.653   9.384  14.883
29433W        W88694  37.368  17.761   0.439
29434W        W88695  27.952  34.961  11.115
29435W        W88696  22.593  21.733  13.883
29436W        W88697  27.080  37.950  13.859
29437W        W88698   2.455  10.266   5.117
29438W        W88699  30.937   7.181  12.363
29439W        W88700  29.940   8.803   1.330
29440W        W88701  30.909  40.340  11.432
29441W        W88702  17.628  10.661  12.401
29442W        W88703  15.322  25.984   0.473
29443W        W88704  12.735  14.301  11.437
29444W        W88705  31.127  36.407  13.991
29445W        W88706  37.960  10.878   4.624
29446W        W88707  37.405   2.232  13.967
29447W        W88708  15.579  36.927   0.934
29448W        W88709  21.114   3.780   1.917
29449W        W88710  30.575  33.614   1.301
29450W        W88711  29.503  11.269  10.587
29451W        W88712  23.670  28.046  12.858
29452W        W88713  11.329  15.733   4.709
29453W        W88714  36.486  16.216   3.245
29454W        W88715  17.114  42.474   0.935
29455W        W88716   0.782  29.156  14.454
29456W        W88717  30.575   0.794  13.478
29457W        W88718   2.891  32.984  10.637
29458W        W88719  13.336  15.731   5.310
29459W        W88720   8.794   5.398  14.960
29460W        W88721   9.824  31.042   1.818
29461W        W88722   2.776  27.485   4.610
29462W        W88723  41.294  35.048   2.667
29463W        W88724  38.931  23.178  12.919
29464W        W88725  15.121  38.955   0.785
29465W        W88726  37.977  41.534  14.515
29466W        W88727  42.372  14.319  10.956
29467W        W88728  33.554   7.699  13.997
29468W        W88729   3.366  20.087  13.540
29469W        W88730  21.148   0.322  12.528
29470W        W88731   0.314  34.111  13.454
29471W        W88732   7.860  40.549  12.357
29472W        W88733  40.325  10.186   4.752
29473W        W88734  26.498  14.246   3.192
29474W        W88735  18.213  24.061   1.718
29475W        W88736  32.937   8.405  13.936
29476W        W88737   5.349  39.038   2.680
29477W        W88738  16.606  37.853   3.169
29478W        W88739  20.078  39.941   1.383
29479W        W88740  23.200  14.239  11.608
29480W        W88741  20.718  38.396   1.784
29481W        W88742  23.525   1.445   4.125
29482W        W88743  10.662  32.462  13.804
29483W        W88744  22.176  14.773  13.314
29484W        W88745  11.136   3.259   3.833
29485W        W88746  20.035   0.318  12.990
29486W        W88747   8.834  29.488  11.447
29487W        W88748  20.213   0.344   2.218
29488W        W88749  16.186  11.173   1.446
29489W        W88750  24.980   0.380   2.277
29490W        W88751   2.288  20.242  12.390
29491W        W88752  12.632   2.250  10.577
29492W        W88753  33.035  42.341   0.259
29493W        W88754   8.377   4.783   5.798
29494W        W88755   2.251  42.437  12.091
29495W        W88756  40.042   1.921  11.468
29496W        W88757  22.206  14.246   1.888
29497W        W88758  22.546  41.943   2.196
29498W        W88759  13.109   2.861   3.661
29499W        W88760   9.855  42.347   1.330
29500W        W88761  24.178   0.746   3.774
29501W        W88762  36.910   7.392  14.324
29502W        W88763  37.560  31.405  12.519
29503W        W88764  25.218  17.187   3.767
29504W        W88765  36.071   5.350   4.601
29505W        W88766   5.934  26.537   1.766
29506W        W88767  13.243  37.926   0.906
29507W        W88768  20.526  24.488  11.464
29508W        W88769  16.766   3.815   3.665
29509W        W88770   5.716  23.591   3.377
29510W        W88771   9.848  16.113   0.417
29511W        W88772  32.042  17.795  12.969
29512W        W88773  24.013  42.402   4.293
29513W        W88774  34.080   2.875   1.815
29514W        W88775  44.757  26.168   2.750
29515W        W88776   4.912  31.622   4.730
29516W        W88777  14.693   0.786  12.873
29517W        W88778  13.831  36.381  12.998
29518W        W88779  18.718  24.612  12.851
29519W        W88780  20.696  32.089   3.685
29520W        W88781  24.149   0.374  14.975
29521W        W88782  24.663  25.519  14.801
29522W        W88783  29.951   4.927   3.735
29523W        W88784   8.330  38.467  12.537
29524W        W88785   8.757   6.818  14.811
29525W        W88786   0.854  41.949   3.182
29526W        W88787  44.446  21.209   0.837
29527W        W88788  37.398  15.204   1.406
29528W        W88789  11.664  10.260   1.830
29529W        W88790  33.951   5.823   4.132
29530W        W88791   9.770  29.456   3.353
29531W        W88792  13.699  13.713   0.891
29532W        W88793  12.788  25.017  11.593
29533W        W88794  34.426  26.199  13.490
29534W        W88795  26.671  21.699   3.244
29535W        W88796  42.352  12.118  12.859
29536W        W88797  31.538   5.801   0.839
29537W        W88798  13.718  16.742   4.725
29538W        W88799  40.542  13.262   4.301
29539W        W88800  25.053   2.832   3.740
29540W        W88801  26.487  40.989  12.989
29541W        W88802  12.162   6.335   1.880
29542W        W88803  35.371   7.193   0.459
29543W        W88804   1.901  42.987  11.531
29544W        W88805   2.319  16.268  13.529
29545W        W88806   9.732  30.535  11.401
29546W        W88807  41.518  30.498   0.808
29547W        W88808  22.040  23.552  14.926
29548W        W88809  11.181  33.894   4.709
29549W        W88810  12.815  11.173  10.435
29550W        W88811  20.161  28.471   2.394
29551W        W88812  28.607   5.763  12.988
29552W        W88813  18.251  37.917  12.976
29553W        W88814  23.524  20.572   3.376
29554W        W88815  36.896   5.402   4.784
29555W        W88816  27.613  36.462  13.546
29556W        W88817  31.071  31.121  14.987
29557W        W88818  39.024  12.225   1.928
29558W        W88819  15.245  29.028  10.409
29559W        W88820  17.636  32.052   1.715
29560W        W88821  11.142  34.068  12.960
29561W        W88822  12.811   5.396  13.829
29562W        W88823  29.125  12.659   4.637
29563W        W88824  33.007   9.775   0.940
29564W        W88825  10.304  29.047  14.019
29565W        W88826  42.847   1.866   3.814
29566W        W88827  36.065  33.421  10.029
29567W        W88828  41.892  11.203   0.885
29568W        W88829  13.302  26.119   2.247
29569W        W88830  36.429  23.130  13.546
29570W        W88831  42.015  15.687  11.963
29571W        W88832  25.084  32.580   2.335
29572W        W88833  27.071   6.182  12.534
29573W        W88834   9.299  23.059  14.341
29574W        W88835  33.055  24.604  14.445
29575W        W88836  41.834  33.924  11.540
29576W        W88837  34.064   0.464  11.066
29577W        W88838  20.660  29.996  11.066
29578W        W88839  19.151  41.795   2.183
29579W        W88840  34.593  26.696  12.930
29580W        W88841  19.156   6.402  13.546
29581W        W88842  20.247  27.093   1.385
29582W        W88843  20.555   7.801  11.594
29583W        W88844  39.506  39.437  12.954
29584W        W88845  24.723  14.242  11.874
29585W        W88846   5.335  44.939   2.301
29586W        W88847   1.799  18.742  11.921
29587W        W88848  15.601  18.176   1.746
29588W        W88849  16.668  35.497   2.390
29589W        W88850  10.741  32.463  13.026
29590W        W88851  33.052  30.915  14.425
29591W        W88852   9.865   4.807  10.501
29592W        W88853  20.116  14.180  12.537
29593W        W88854   4.860  10.782   0.310
29594W        W88855  36.073  18.563   2.208
29595W        W88856  19.749  13.272   5.149
29596W        W88857   1.769  38.545   4.252
29597W        W88858  21.197  19.765   2.307
29598W        W88859  22.699  36.094  11.939
29599W        W88860  26.539  44.501  11.107
29600W        W88861  41.988  18.229  12.431
29601W        W88862   5.209   7.834  11.931
29602W        W88863  18.611  36.351  14.789
29603W        W88864  24.482  36.096   0.372
29604W        W88865  20.541  14.666  14.318
29605W        W88866  29.061  38.490  13.432
29606W        W88867   3.902  15.647   3.313
29607W        W88868  38.408  25.982   0.470
29608W        W88869   8.802  25.474   0.476
29609W        W88870  14.259  17.219  12.040
29610W        W88871  11.297   5.755  11.424
29611W        W88872  13.331   0.863  12.076
29612W        W88873  34.506  23.629   0.915
29613W        W88874  43.270  32.413   2.882
29614W        W88875  23.547  22.232  13.317
29615W        W88876   8.277  16.596  11.455
29616W        W88877  36.035   2.373  11.855
29617W        W88878  34.613  18.103   0.272
29618W        W88879   6.292  44.915   0.484
29619W        W88880  38.504   7.910  14.829
29620W        W88881   7.759   6.319   3.347
29621W        W88882  23.034   3.723  10.111
29622W        W88883  34.102  21.639   4.770
29623W        W88884  18.625  29.594   1.263
29624W        W88885  24.646  33.131  13.804
29625W        W88886  30.615  44.815  11.881
29626W        W88887  34.052  25.083   4.736
29627W        W88888  19.701  11.693  11.590
29628W        W88889  18.569  12.171   0.783
29629W        W88890  37.395  35.004   2.305
29630W        W88891   9.886  36.000   4.127
29631W        W88892  29.636  44.876  13.347
29632W        W88893  13.240  31.406  10.952
29633W        W88894  14.651  35.039   0.326
29634W        W88895   2.871  11.215  11.934
29635W        W88896  10.149  23.076  14.896
29636W        W88897  19.093   1.861  10.449
29637W        W88898   1.250  18.784  13.311
29638W        W88899  31.437   0.887  14.374
29639W        W88900  19.715  33.060  11.005
29640W        W88901   8.776  33.928   1.898
29641W        W88902  30.557  10.802  10.612
29642W        W88903  26.614   0.275  12.955
29643W        W88904  17.114  33.966  14.011
29644W        W88905   6.216   0.744  14.907
29645W        W88906  21.158  11.205   2.201
29646W        W88907  37.343  12.659  12.419
29647W        W88908   4.264  22.701   4.751
29648W        W88909  10.735  13.682  14.304
29649W        W88910  25.182  39.017  10.417
29650W        W88911  16.308  34.572   1.808
29651W        W88912  38.887  17.650   3.844
29652W        W88913  20.227  21.135  10.938
29653W        W88914  29.048  25.117   4.652
29654W        W88915  21.649  18.142  14.399
29655W        W88916  39.002  13.232   4.701
29656W        W88917  20.724  30.961   0.248
29657W        W88918  18.082  19.055  13.032
29658W        W88919  42.960  15.677   4.702
29659W        W88920  31.561   4.326  13.315
29660W        W88921  33.968  36.980  13.430
29661W        W88922  15.639  28.521   2.671
29662W        W88923  30.974  23.680  11.560
29663W        W88924   5.374   7.213   2.727
29664W        W88925  28.994   0.363   2.266
29665W        W88926   4.839   7.753   2.808
29666W        W88927  28.665   7.385   1.234
29667W        W88928  15.789  30.108  13.969
29668W        W88929   5.266  10.321  14.504
29669W        W88930  11.708  11.171   2.412
29670W        W88931  18.290  33.456   2.847
29671W        W88932   8.814  42.860  12.996
29672W        W88933  34.078  19.548   0.729
29673W        W88934   0.413  23.671   4.723
29674W        W88935  40.313  41.870  11.881
29675W        W88936  19.171   4.941   2.337
29676W        W88937  24.573  17.132   2.747
29677W        W88938  16.283  21.750   1.844
29678W        W88939  36.505   8.754   0.280
29679W        W88940  15.113   7.721   0.442
29680W        W88941  41.884  27.033  13.835
29681W        W88942  37.864  37.569   0.402
29682W        W88943  11.846  21.575   0.957
29683W        W88944   5.918  38.010  12.892
29684W        W88945  18.055  19.596  12.980
29685W        W88946  26.493  10.839  13.327
29686W        W88947   5.863  16.714   1.907
29687W        W88948  19.209   4.246  14.314
29688W        W88949  40.903  12.647   4.604
29689W        W88950  33.112  29.045   0.807
29690W        W88951  42.493  27.958   4.154
29691W        W88952  36.475  13.630  13.016
29692W        W88953   6.905  30.412   1.235
29693W        W88954   4.821  39.051  10.570
29694W        W88955  34.870  27.529   3.355
29695W        W88956  24.100  30.148   0.839
29696W        W88957  23.180  12.244   0.466
29697W        W88958   5.748  41.004   1.888
29698W        W88959  21.181  40.975  13.348
29699W        W88960  26.047  43.948   2.673
29700W        W88961  27.112  12.359   2.244
29701W        W88962  38.348  31.407   1.267
29702W        W88963  31.026  10.785  12.979
29703W        W88964  22.033   4.897   2.880
29704W        W88965  20.137  22.054  14.978
29705W        W88966  28.440   5.240   0.356
29706W        W88967  16.167   6.684   4.690
29707W        W88968  39.453   7.902   2.809
29708W        W88969  25.514   3.798   3.177
29709W        W88970  32.431  35.477   3.746
29710W        W88971  13.677  17.721   0.343
29711W        W88972  11.209   3.739  12.895
29712W        W88973   9.718  16.293  12.896
29713W        W88974  23.729  19.201   2.701
29714W        W88975   1.370  38.512  10.943
29715W        W88976   2.226  43.892   0.761
29716W        W88977  20.202  34.553  13.423
29717W        W88978  26.468  13.170   2.843
29718W        W88979  26.963  12.693   0.857
29719W        W88980  37.012  15.291   4.823
29720W        W88981   4.416  43.772   4.147
29721W        W88982  25.599  10.335  14.316
29722W        W88983  34.417  44.918  10.907
29723W        W88984  19.216  18.245  12.510
29724W        W88985  35.961   9.178   5.157
29725W        W88986  26.156  37.030   1.811
29726W        W88987  17.240  21.180  10.966
29727W        W88988  30.063   7.231   1.780
29728W        W88989  35.991  32.560  14.803
29729W        W88990  29.989  28.010   0.284
29730W        W88991  12.233   5.767  13.035
29731W        W88992   7.670  28.477  13.935
29732W        W88993  19.122   5.856   0.451
29733W        W88994  23.662  39.947  12.577
29734W        W88995  35.515   3.793  14.505
29735W        W88996  18.117  28.974   5.201
29736W        W88997  11.171  20.763   0.736
29737W        W88998  37.033   3.723   1.445
29738W        W88999  39.524   8.897  10.938
29739W        W89000  21.083  27.481   0.750
29740W        W89001  40.534  29.078  12.829
29741W        W89002  29.463  22.023   1.224
29742W        W89003  43.324  13.272  11.010
29743W        W89004  12.158  32.420   2.369
29744W        W89005   4.333  34.031  12.022
29745W        W89006  16.696  30.937   4.142
29746W        W89007  14.601  16.742   3.723
29747W        W89008  15.790  11.698  11.607
29748W        W89009  37.340  43.405   0.478
29749W        W89010  13.316  13.785   4.755
29750W        W89011  15.257   2.722   0.730
29751W        W89012  26.661  21.203   2.887
29752W        W89013  15.256  34.088   4.837
29753W        W89014  14.151  19.745  12.053
29754W        W89015  37.057  11.143  12.042
29755W        W89016  29.468  36.418  14.851
29756W        W89017  20.614  14.248  10.631
29757W        W89018  20.670  43.445   2.208
29758W        W89019  29.627  15.280  11.457
29759W        W89020  28.941  29.996  11.453
29760W        W89021  44.494   0.349  11.409
29761W        W89022  12.227  11.839   0.835
29762W        W89023  16.733   2.937   4.643
29763W        W89024  43.301   8.172  14.799
29764W        W89025   8.402  34.119   0.438
29765W        W89026   2.331  24.161  13.020
29766W        W89027  41.919  32.088   9.943
29767W        W89028  14.638  35.574  11.910
29768W        W89029  41.335   4.802   0.329
29769W        W89030  29.001  34.564  12.868
29770W        W89031   1.292  24.596   3.809
29771W        W89032  27.970  39.502   4.293
29772W        W89033  20.225  29.629  10.894
29773W        W89034  25.136   1.266  10.934
29774W        W89035  36.000  36.944   1.334
29775W        W89036   3.278   8.255   2.409
29776W        W89037  36.057  22.125  11.109
29777W        W89038  15.665  38.006   4.312
29778W        W89039  28.064  37.940  13.806
29779W        W89040   8.683   8.779   0.782
29780W        W89041  44.993  35.946   0.765
29781W        W89042  31.587  21.583  14.941
29782W        W89043  28.566   8.260   3.279
29783W        W89044  13.669   4.434   0.731
29784W        W89045  10.255  37.469   0.330
29785W        W89046  33.622  33.129  10.932
29786W        W89047  30.083  13.602  12.880
29787W        W89048  12.679  22.660  13.060
29788W        W89049  29.667  37.079   2.244
29789W        W89050  20.665  31.105  14.783
29790W        W89051  12.257  42.465  13.416
29791W        W89052  20.133  25.213   3.683
29792W        W89053  44.967   4.917  10.112
29793W        W89054  39.356  43.331   2.727
29794W        W89055   9.843  33.925  14.436
29795W        W89056  31.116  38.531   4.247
29796W        W89057  25.072  32.408  13.875
29797W        W89058  12.156   3.908  11.437
29798W        W89059   4.777  28.108   4.785
29799W        W89060  36.527  42.935   0.343
29800W        W89061   7.235  13.788  13.488
29801W        W89062  20.235  11.665   2.694
29802W        W89063  24.226  41.891   0.425
29803W        W89064  23.710   4.815   1.915
29804W        W89065  42.016  11.670   2.417
29805W        W89066  13.623  16.183  14.472
29806W        W89067  44.503  20.530  14.964
29807W        W89068   8.726  41.836   2.735
29808W        W89069   5.383  19.179   0.782
29809W        W89070  37.972   9.262   0.822
29810W        W89071  35.857  14.670   4.219
29811W        W89072   6.282  18.175  10.512
29812W        W89073  42.870  31.624   3.202
29813W        W89074   0.971  19.272  13.353
29814W        W89075   9.184  23.079  12.923
29815W        W89076  18.671  26.595   1.322
29816W        W89077  31.634  36.403  12.407
29817W        W89078  14.619  20.642   4.693
29818W        W89079   6.776  40.966  10.972
29819W        W89080  30.972  13.130  13.827
29820W        W89081  29.468  26.693   5.321
29821W        W89082  27.582   3.432   4.749
29822W        W89083  10.877  43.298  12.443
29823W        W89084  35.552  21.156   0.268
29824W        W89085  42.326  44.837  12.491
29825W        W89086  24.620  17.611   2.352
29826W        W89087  25.629   8.735   4.162
29827W        W89088  22.621  12.814   1.722
29828W        W89089  30.127  20.589   1.913
29829W        W89090  10.764  24.515  10.988
29830W        W89091  43.889  34.046  14.989
29831W        W89092  32.975  32.084  14.786
29832W        W89093  31.054   3.751  10.410
29833W        W89094   9.867  35.881   1.227
29834W        W89095   8.689  10.375   3.192
29835W        W89096   0.809  12.772   5.287
29836W        W89097  42.481  43.937   0.830
29837W        W89098  20.190  33.088  11.065
29838W        W89099  42.959  40.859   0.267
29839W        W89100  43.876   0.257  14.879
29840W        W89101  19.234   4.270   4.204
29841W        W89102  41.495  16.238  11.028
29842W        W89103  26.040  30.436  14.992
29843W        W89104  39.907  11.858  14.830
29844W        W89105  35.490  25.184   3.646
29845W        W89106   6.228  24.034  14.291
29846W        W89107   5.347  35.890   1.323
29847W        W89108  15.790  29.973  10.502
29848W        W89109  12.839  15.318  11.998
29849W        W89110  32.628   3.360   2.743
29850W        W89111  21.753  43.920   2.882
29851W        W89112  39.326  11.229  11.936
29852W        W89113  10.168  41.358  14.027
29853W        W89114  28.437   6.226   2.263
29854W        W89115  39.917  19.536  13.516
29855W        W89116  44.338  18.156  10.068
29856W        W89117   3.835  39.475   0.418
29857W        W89118   7.749  13.306   2.670
29858W        W89119   6.385   8.738   1.345
29859W        W89120  15.216  13.809  14.015
29860W        W89121  35.934   6.241  12.562
29861W        W89122  39.044  41.477   1.272
29862W        W89123  15.173  24.630   1.242
29863W        W89124   8.187  19.596  12.384
29864W        W89125   9.238  27.464  14.940
29865W        W89126  23.075  11.338  14.827
29866W        W89127  36.443  35.512  14.950
29867W        W89128   7.763  41.007   3.174
29868W        W89129   4.765  32.543   1.853
29869W        W89130  37.916  43.834  11.472
29870W        W89131  30.556  34.027  11.932
29871W        W89132  36.517   1.300  13.307
29872W        W89133  26.513  21.092   4.189
29873W        W89134  36.041  39.377   4.670
29874W        W89135   7.267  31.081   3.793
29875W        W89136  29.514  15.173  11.998
29876W        W89137  42.437  27.140   4.294
29877W        W89138  21.196  17.660   2.226
29878W        W89139  30.416  14.139  12.545
29879W        W89140  11.731  11.316   2.796
29880W        W89141  35.523  36.350   0.731
29881W        W89142  34.040  42.921  11.038
29882W        W89143  40.501  24.045  10.125
29883W        W89144  11.192  23.691   3.727
29884W        W89145  32.885  40.381  14.787
29885W        W89146  22.068  26.953   3.652
29886W        W89147  17.592  14.290   3.345
29887W        W89148  22.746  14.129  14.791
29888W        W89149  10.160  28.121  11.884
29889W        W89150  12.656  43.476   1.898
29890W        W89151   5.880  44.828   4.276
29891W        W89152  27.976   4.299   2.199
29892W        W89153  26.466  38.931   4.602
29893W        W89154  21.057  44.382  12.992
29894W        W89155  35.071  15.094  12.492
29895W        W89156  17.645  37.835   4.191
29896W        W89157   5.914   1.867   1.375
29897W        W89158  15.166  28.533   2.718
29898W        W89159  43.324  44.298  11.484
29899W        W89160  18.638  25.110   4.610
29900W        W89161  40.970   5.826  10.487
29901W        W89162  21.039   6.810  14.294
29902W        W89163  39.923  14.159   4.208
29903W        W89164   9.285  27.117   1.844
29904W        W89165  41.790  42.028  14.854
29905W        W89166  17.169  16.706  10.463
29906W        W89167  36.077   1.459  11.926
29907W        W89168   3.843  19.284   4.259
29908W        W89169  33.570  24.049   0.799
29909W        W89170  38.970  39.345   4.623
29910W        W89171  35.909   6.686  14.941
29911W        W89172  37.394   0.272  10.490
29912W        W89173  40.939  42.785  13.889
29913W        W89174  36.494  43.965  10.981
29914W        W89175  17.126   7.725   1.741
29915W        W89176   9.683  34.098  11.393
29916W        W89177  20.149  17.658   4.267
29917W        W89178   1.369   3.398   0.450
29918W        W89179  33.582   0.386   4.165
29919W        W89180   1.780  13.168   4.646
29920W        W89181  32.062  34.977  14.762
29921W        W89182  16.246  38.009  12.894
29922W        W89183  35.562  21.617  14.420
29923W        W89184  30.095  31.617   1.296
29924W        W89185  40.832  29.535   1.932
29925W        W89186  19.277  20.529   4.684
29926W        W89187  20.112   8.313  11.416
29927W        W89188  36.435  30.505   2.230
29928W        W89189   0.297  33.018   0.766
29929W        W89190  41.479  27.005   5.700
29930W        W89191   5.916  37.015   0.312
29931W        W89192  25.116  14.166  14.308
29932W        W89193  35.437   6.209   2.250
29933W        W89194   7.305  10.226   4.793
29934W        W89195   1.852  21.574   4.599
29935W        W89196  36.377  34.377  11.026
29936W        W89197  20.634  43.785   1.239
29937W        W89198  25.009   8.683   1.275
29938W        W89199  29.504  24.050  11.543
29939W        W89200  13.234  32.126   2.898
29940W        W89201  30.099  39.879   0.817
29941W        W89202  20.758   2.847   3.217
29942W        W89203  39.929   9.857  12.434
29943W        W89204  28.165   0.930   9.475
29944W        W89205  12.856  17.779  13.025
29945W        W89206  12.276  38.507   4.274
29946W        W89207  10.696   9.189  10.439
29947W        W89208  12.121  43.813  12.527
29948W        W89209  39.498  28.540  11.503
29949W        W89210  32.472  38.479   1.833
29950W        W89211  37.008  21.246  14.873
29951W        W89212   3.902  34.369   3.201
29952W        W89213  23.530  39.909  14.920
29953W        W89214  28.580   7.784  10.556
29954W        W89215  34.596  41.853  14.949
29955W        W89216  38.037   5.358   0.899
29956W        W89217  14.333  15.150   0.818
29957W        W89218  12.157  23.112  11.516
29958W        W89219  24.089   8.292   1.783
29959W        W89220   2.246   4.242   1.900
29960W        W89221  29.143  43.498   2.185
29961W        W89222  31.060  26.181  11.079
29962W        W89223  40.528  15.640  14.486
29963W        W89224  22.053  40.022  13.942
29964W        W89225  13.735  18.591   1.855
29965W        W89226  27.180   3.808  13.345
29966W        W89227  14.686  40.543   1.709
29967W        W89228  38.953   4.731   3.275
29968W        W89229  13.773   8.667   1.401
29969W        W89230   9.791  27.056   2.255
29970W        W89231   8.247  32.407   0.472
29971W        W89232  19.256  19.679  14.474
29972W        W89233  32.968  22.696  12.964
29973W        W89234   0.280   6.216   2.298
29974W        W89235  13.346  30.956  11.461
29975W        W89236  15.714  29.050   5.173
29976W        W89237  38.446  11.219   1.370
29977W        W89238  10.265  38.988   2.304
29978W        W89239   8.314  44.378  14.969
29979W        W89240   8.726  38.380  13.455
29980W        W89241  16.156  32.425  14.356
29981W        W89242  31.429  35.520  14.883
29982W        W89243   5.369  24.539   2.371
29983W        W89244  29.108  32.014   4.790
29984W        W89245  30.466   9.854  11.067
29985W        W89246  28.627  25.967  11.052
29986W        W89247  12.783  31.518   3.156
29987W        W89248  19.572   8.242   1.334
29988W        W89249   5.383  41.809  14.856
29989W        W89250   6.271  27.950  11.964
29990W        W89251   2.386  37.923  11.062
29991W        W89252  34.865  12.787   0.841
29992W        W89253  21.522  30.949   4.652
29993W        W89254  25.621  18.755  14.344
29994W        W89255  14.590  17.567  13.034
29995W        W89256  30.079  33.559  13.531
29996W        W89257  37.009  29.522  14.333
29997W        W89258   3.437  20.252   4.820
29998W        W89259  20.058  19.226   0.462
29999W        W89260  28.614  26.661   0.461
30000W        W89261  17.134  16.224  14.431
30001W        W89262   8.687  44.418   1.905
30002W        W89263  11.184  25.972  12.365
30003W        W89264  33.017  12.748   4.801
30004W        W89265  26.079  26.600  13.870
30005W        W89266  10.240  40.317   1.240
30006W        W89267  36.485  12.120   3.726
30007W        W89268  11.337  39.844   3.150
30008W        W89269   9.308  14.300  13.537
30009W        W89270  22.033  14.284  11.931
30010W        W89271  14.261  38.405   1.418
30011W        W89272  17.680   5.890   1.281
30012W        W89273   1.821   2.722  13.865
30013W        W89274  11.170  42.837   4.642
30014W        W89275  32.555  44.280   1.792
30015W        W89276   4.874  16.671   0.297
30016W        W89277  13.844   6.293   4.713
30017W        W89278  20.627  12.720  14.450
30018W        W89279  41.816   3.925  11.972
30019W        W89280  13.285  17.154   1.370
30020W        W89281  25.097  28.624   0.791
30021W        W89282  38.828  40.858  10.937
30022W        W89283  30.012   5.229  11.458
30023W        W89284  37.463  27.021   0.832
30024W        W89285  33.980   5.411  10.518
30025W        W89286   2.434  17.064  12.387
30026W        W89287  37.924   1.788   3.257
30027W        W89288  28.449  26.578  13.449
30028W        W89289  40.817  23.641   5.803
30029W        W89290  23.088  30.990   1.812
30030W        W89291  37.066  19.173   0.459
30031W        W89292  34.559  27.195   1.762
30032W        W89293   9.170  42.946  13.846
30033W        W89294  15.133  41.441  12.065
30034W        W89295  35.017  30.502   1.337
30035W        W89296   0.450   3.258   4.730
30036W        W89297  37.452  34.422   0.407
30037W        W89298  43.956  39.337  14.297
30038W        W89299  32.080  23.681   2.735
30039W        W89300  19.149  43.781  14.801
30040W        W89301   2.354  12.804  13.368
30041W        W89302  20.089  29.170  14.357
30042W        W89303  10.340  19.569  13.866
30043W        W89304  42.495  22.538   0.339
30044W        W89305   8.200  26.166   1.719
30045W        W89306  23.723  25.062  11.497
30046W        W89307  31.130  16.581  11.089
30047W        W89308   4.841   2.341  11.044
30048W        W89309   3.894   3.299  12.845
30049W        W89310  32.055   1.450  12.006
30050W        W89311   9.155  33.053  12.390
30051W        W89312  28.045  17.104  14.808
30052W        W89313  12.781  36.987  13.865
30053W        W89314  16.744  11.770   0.765
30054W        W89315  32.136  22.707  10.932
30055W        W89316  20.257  24.003  10.501
30056W        W89317  20.716   7.700  13.484
30057W        W89318  21.052   6.760   3.322
30058W        W89319  21.062  23.113  12.388
30059W        W89320   5.208  14.132  13.860
30060W        W89321  43.868  10.873  14.867
30061W        W89322  17.072  16.107   1.859
30062W        W89323   3.453   8.763  14.954
30063W        W89324  13.787  24.551  12.037
30064W        W89325  21.733  15.790  10.934
30065W        W89326  23.223   9.665  14.276
30066W        W89327  30.106  11.751  10.475
30067W        W89328  25.048  40.534  13.415
30068W        W89329   0.391  44.903  13.943
30069W        W89330   3.761  13.775   3.684
30070W        W89331  31.519  34.447  14.957
30071W        W89332  24.515  16.642   3.328
30072W        W89333  13.269  31.005   3.214
30073W        W89334   3.236  15.727   3.786
30074W        W89335   4.284  30.963  12.343
30075W        W89336  38.449  22.996   1.373
30076W        W89337  38.004   0.285  12.894
30077W        W89338  27.123  44.475   2.198
30078W        W89339  36.511  31.608   0.728
30079W        W89340  37.919  27.173   2.867
30080W        W89341  33.415  18.583  12.963
30081W        W89342  42.869  37.927  11.449
30082W        W89343   0.917  31.074   0.844
30083W        W89344  12.144  29.587  14.019
30084W        W89345  15.721  41.029   0.743
30085W        W89346  29.536   5.866   4.632
30086W        W89347  15.202  28.018   2.231
30087W        W89348  32.935  30.426   3.684
30088W        W89349   4.444   5.742  10.888
30089W        W89350  22.189  16.632  14.939
30090W        W89351  19.585  28.464  13.886
30091W        W89352  24.028  10.828   4.651
30092W        W89353  30.063  23.725   2.738
30093W        W89354  25.104   2.760  10.905
30094W        W89355  28.591   9.692   4.330
30095W        W89356  24.610   1.299   4.649
30096W        W89357  18.285   6.770  12.391
30097W        W89358  29.653  39.360  10.929
30098W        W89359  27.476  14.203   1.833
30099W        W89360  39.036   1.827   1.898
30100W        W89361  30.418   7.786  14.384
30101W        W89362  10.154  36.437   1.408
30102W        W89363  33.988  44.372  10.103
30103W        W89364  24.635  40.947   2.709
30104W        W89365  36.562   5.727   0.912
30105W        W89366  30.539  43.445  10.602
30106W        W89367  19.272  42.392  11.066
30107W        W89368  21.735  32.057   4.673
30108W        W89369   4.934  35.969   0.297
30109W        W89370   4.336  42.810   2.827
30110W        W89371  29.940  12.167   1.877
30111W        W89372  24.189  41.004  14.845
30112W        W89373   2.325  28.085   4.828
30113W        W89374  25.617  28.485   4.355
30114W        W89375  14.283   8.240  12.084
30115W        W89376  26.054  20.592   3.865
30116W        W89377  30.649   1.358  11.578
30117W        W89378  36.070  22.541   4.298
30118W        W89379  38.489  13.160  14.820
30119W        W89380  41.791  37.539   1.899
30120W        W89381   9.758   4.279  13.840
30121W        W89382   1.307  43.008  14.913
30122W        W89383   7.397  20.674  13.871
30123W        W89384  34.923   1.800   1.899
30124W        W89385  10.163  31.134  10.411
30125W        W89386  21.755  15.723   1.390
30126W        W89387  17.232  29.120   0.911
30127W        W89388  20.114  27.191   4.282
30128W        W89389   4.214  25.576   4.677
30129W        W89390  42.315  17.063  12.351
30130W        W89391   4.290  13.665  12.000
30131W        W89392   3.814  10.321  13.441
30132W        W89393  37.961  18.169  14.328
30133W        W89394  20.675  34.495   1.704
30134W        W89395  24.160  44.314  13.928
30135W        W89396  28.949  41.800   4.754
30136W        W89397  33.406  11.854   3.743
30137W        W89398  30.075  16.234   0.390
30138W        W89399  13.697  25.181  12.404
30139W        W89400  32.924  14.258  10.522
30140W        W89401  17.574  10.258  11.935
30141W        W89402  21.549  11.823  13.438
30142W        W89403  39.425   7.867  12.909
30143W        W89404  16.286  39.869   2.847
30144W        W89405   3.722  24.715  12.896
30145W        W89406  14.767  13.607   3.263
30146W        W89407  26.191  28.117  12.909
30147W        W89408  16.734   4.356  10.515
30148W        W89409  34.914  33.594   5.250
30149W        W89410  42.416  44.493  14.986
30150W        W89411  18.150   1.298  12.439
30151W        W89412  11.644   1.452   1.406
30152W        W89413   2.835   4.414   4.647
30153W        W89414  38.882  33.958   4.654
30154W        W89415  29.072  36.013   2.205
30155W        W89416  10.222  15.183  14.937
30156W        W89417   2.831  44.359   3.646
30157W        W89418  38.481   3.889  11.421
30158W        W89419  41.925  19.669  11.009
30159W        W89420  39.939  35.859  11.022
30160W        W89421  39.975  33.016   1.425
30161W        W89422   3.230   5.904   1.393
30162W        W89423   9.716   7.715   2.850
30163W        W89424  42.427  27.972   1.277
30164W        W89425  28.031   7.321  12.096
30165W        W89426  28.129   8.894  11.411
30166W        W89427  33.975  44.350   3.200
30167W        W89428  11.735  42.515   3.769
30168W        W89429  14.282  31.429   0.872
30169W        W89430  32.433  36.854  14.855
30170W        W89431   7.369  24.521  10.409
30171W        W89432  27.627  22.655  11.017
30172W        W89433   3.768  25.116   0.759
30173W        W89434   4.413  12.651  10.964
30174W        W89435   8.200  20.623  13.422
30175W        W89436  12.131   5.210   0.456
30176W        W89437  37.893   8.876   2.403
30177W        W89438  43.853  40.398  14.867
30178W        W89439  42.938   8.742   1.915
30179W        W89440  28.143   5.360   3.799
30180W        W89441  39.330  30.969  14.895
30181W        W89442  40.848   5.735   1.894
30182W        W89443  21.160  24.607   4.838
30183W        W89444  14.633  14.109   2.780
30184W        W89445  21.595  31.515   4.278
30185W        W89446  24.157  10.225  12.026
30186W        W89447  21.065   7.249   4.683
30187W        W89448  25.108  36.382  14.336
30188W        W89449  20.213   4.790   9.523
30189W        W89450  22.619   4.790   4.691
30190W        W89451  26.052   0.402   0.460
30191W        W89452   4.421  12.770   4.718
30192W        W89453  34.095  10.688   2.795
30193W        W89454  38.947  14.114  10.540
30194W        W89455  39.333  21.617  13.026
30195W        W89456  27.551   5.849  10.494
30196W        W89457  23.114  41.471   1.293
30197W        W89458  41.438  21.604  13.964
30198W        W89459  42.462   2.851  12.394
30199W        W89460  26.960   3.843   4.249
30200W        W89461  24.111   0.337   3.688
30201W        W89462  14.313  29.066   4.149
30202W        W89463  41.797  28.089   2.197
30203W        W89464  37.458  36.461   3.848
30204W        W89465  16.783   0.804  10.619
30205W        W89466  16.758  17.771   4.789
30206W        W89467  35.952  34.077   3.206
30207W        W89468  13.615  18.784   4.330
30208W        W89469   8.901  41.874   1.237
30209W        W89470  16.145  27.562   1.890
30210W        W89471   7.308  24.508   4.307
30211W        W89472  36.454  24.686   0.348
30212W        W89473   5.312  16.229  12.487
30213W        W89474  40.044  16.262   2.417
30214W        W89475  18.150  32.615  14.387
30215W        W89476  21.064  13.789  11.880
30216W        W89477  27.957  33.887  12.958
30217W        W89478  14.108  36.534  10.463
30218W        W89479  26.679  29.112  10.000
30219W        W89480  40.046   7.337   2.246
30220W        W89481  34.555  11.131   5.218
30221W        W89482  12.620  32.055  12.417
30222W        W89483  42.380  27.484   3.780
30223W        W89484   3.876  34.992   3.668
30224W        W89485  20.633  34.444   3.188
30225W        W89486  38.943  15.127  12.392
30226W        W89487   1.439  34.453   4.671
30227W        W89488  32.391  13.145   4.644
30228W        W89489  43.321   0.347  13.934
30229W        W89490  25.153  18.762   3.787
30230W        W89491  26.692  27.119   4.755
30231W        W89492  11.662  20.063  14.832
30232W        W89493   0.372   8.373   1.284
30233W        W89494  22.064   7.685  12.849
30234W        W89495  22.656  20.060  10.895
30235W        W89496   5.788   3.348  10.960
30236W        W89497  26.586  28.159   1.338
30237W        W89498  38.335  23.103   2.853
30238W        W89499  23.111  40.448  11.107
30239W        W89500   5.880   6.328  14.770
30240W        W89501  13.733  40.033  14.398
30241W        W89502  24.564  19.608  14.358
30242W        W89503  28.580  10.219  12.874
30243W        W89504  27.954  22.178  14.887
30244W        W89505  41.475  32.403   2.279
30245W        W89506  21.034  18.164  13.468
30246W        W89507  32.934  42.945  10.939
30247W        W89508  33.925  11.763  13.496
30248W        W89509  10.360  27.941   2.192
30249W        W89510   0.288  20.697   3.766
30250W        W89511   3.811  28.025   0.341
30251W        W89512  39.997  33.071   9.643
30252W        W89513  22.731  28.495   1.277
30253W        W89514  22.521  31.059   1.315
30254W        W89515   7.861  13.304   1.926
30255W        W89516  21.216  38.878  14.896
30256W        W89517  20.595  11.694  14.458
30257W        W89518  32.549  33.019  14.316
30258W        W89519  19.726  39.548  10.900
30259W        W89520  41.302   4.904   2.799
30260W        W89521  32.410  14.302  13.054
30261W        W89522  40.854  15.110   4.161
30262W        W89523  27.453  30.133  13.410
30263W        W89524  21.578  17.158  13.411
30264W        W89525  21.584  19.588   2.280
30265W        W89526  11.137  28.146  13.436
30266W        W89527  43.342  15.784  12.422
30267W        W89528   4.333  21.130  11.930
30268W        W89529  12.281  20.097  10.890
30269W        W89530  40.811  14.793   3.840
30270W        W89531  24.182  12.359   4.215
30271W        W89532  20.198  29.454  11.929
30272W        W89533  20.714  12.324  14.015
30273W        W89534  39.552  29.560  13.824
30274W        W89535  21.733  44.282  12.558
30275W        W89536  35.972  31.049   2.859
30276W        W89537  29.080  39.553   4.682
30277W        W89538   9.240  37.546   1.921
30278W        W89539  32.917  35.988  14.780
30279W        W89540  40.339   3.339   3.679
30280W        W89541  16.641  32.049  12.547
30281W        W89542  41.316   4.911  12.971
30282W        W89543  36.369   9.165   5.093
30283W        W89544   6.356  18.173  12.082
30284W        W89545  10.821  25.989   1.789
30285W        W89546  17.575  12.292   4.785
30286W        W89547   7.220  32.409   2.728
30287W        W89548   5.819  32.549  11.382
30288W        W89549  16.693  40.964  13.428
30289W        W89550  39.424  30.140   3.794
30290W        W89551  34.893  33.440   1.443
30291W        W89552   0.442  12.158   2.195
30292W        W89553  30.016   5.260  13.997
30293W        W89554  20.059  35.950   3.310
30294W        W89555  11.632  44.286   1.902
30295W        W89556  11.688  35.514   4.289
30296W        W89557   1.787   3.932   0.263
30297W        W89558  24.580  29.990  14.976
30298W        W89559   7.276  10.806   0.321
30299W        W89560  35.466  23.571   4.153
30300W        W89561  17.268  36.029   3.774
30301W        W89562  12.339  34.500  10.481
30302W        W89563  11.857  30.086   2.320
30303W        W89564   1.745  37.535   1.399
30304W        W89565  35.583   4.388  14.762
30305W        W89566   6.891  27.543  12.863
30306W        W89567  19.707   1.779   2.858
30307W        W89568   4.249  29.977   0.381
30308W        W89569  30.093  19.227  11.412
30309W        W89570  43.356  14.677  12.527
30310W        W89571  34.452  24.547   4.174
30311W        W89572  16.196   3.729   1.735
30312W        W89573  39.480  37.373  13.500
30313W        W89574  38.962  22.059  10.581
30314W        W89575  13.749   8.173  11.595
30315W        W89576  24.993  26.631  10.488
30316W        W89577  16.304  39.440   2.180
30317W        W89578   3.749  21.111  10.636
30318W        W89579  13.134  17.780  10.600
30319W        W89580  33.120  18.290  14.338
30320W        W89581  40.466  43.446   2.258
30321W        W89582  36.556  29.998   2.726
30322W        W89583  34.377  35.893  11.492
30323W        W89584  34.503  10.334  10.921
30324W        W89585  37.545  21.690   1.425
30325W        W89586  36.015  10.329  14.293
30326W        W89587  44.405  12.343  10.959
30327W        W89588  40.872  39.447  10.610
30328W        W89589  42.876   2.362  12.403
30329W        W89590  22.640  43.429   3.189
30330W        W89591  27.464  38.452   3.816
30331W        W89592  21.227  25.577  12.909
30332W        W89593   0.853  16.280  10.527
30333W        W89594  25.187  17.235  14.931
30334W        W89595  24.222   9.867   0.789
30335W        W89596  32.977  29.596   2.370
30336W        W89597   1.428   6.402   2.786
30337W        W89598   2.401  32.018  10.949
30338W        W89599  17.305  30.646  13.038
30339W        W89600  13.636  30.552  14.022
30340W        W89601  12.691  39.905   3.696
30341W        W89602   7.199  41.812   3.690
30342W        W89603  22.543  34.564   2.282
30343W        W89604   4.397  21.224  14.801
30344W        W89605  16.087  15.622  12.915
30345W        W89606  36.896   9.250  10.532
30346W        W89607   6.341  43.482   3.372
30347W        W89608   4.287   3.260   0.793
30348W        W89609  12.818  30.579  13.016
30349W        W89610  43.327  31.502  10.992
30350W        W89611  22.013   6.428   1.803
30351W        W89612  40.304   3.884   2.274
30352W        W89613   4.710   0.906  13.403
30353W        W89614  27.161  30.962  12.938
30354W        W89615   3.841   1.455  10.995
30355W        W89616  11.331   0.840   3.734
30356W        W89617  14.189  14.259   1.756
30357W        W89618   9.301  43.332   3.842
30358W        W89619   1.323   2.838   0.407
30359W        W89620  13.678  43.451   4.619
30360W        W89621  37.491  19.647  10.632
30361W        W89622  30.510   2.873   2.216
30362W        W89623   0.298  37.916  13.933
30363W        W89624   6.891  16.212   2.745
30364W        W89625  12.662  42.914   3.805
30365W        W89626  40.425   2.781   3.191
30366W        W89627   4.384   5.315  14.501
30367W        W89628  44.757  33.397   4.225
30368W        W89629  24.012  40.397   2.766
30369W        W89630   6.374  14.829   3.740
30370W        W89631  15.612  30.924  13.813
30371W        W89632   6.843  14.804  12.546
30372W        W89633  41.821   6.893   4.160
30373W        W89634  33.620  13.310  14.381
30374W        W89635  25.587  43.403   3.742
30375W        W89636  10.142  25.005  14.444
30376W        W89637   2.943  24.079  14.759
30377W        W89638  44.775   1.437   1.797
30378W        W89639   6.770  25.482   1.441
30379W        W89640  22.547  25.650   4.779
30380W        W89641  31.133   3.259  12.429
30381W        W89642   9.304  24.091  12.949
30382W        W89643   0.778  11.297  13.444
30383W        W89644  26.145  11.257  12.000
30384W        W89645  29.621  27.585  13.509
30385W        W89646   0.899  26.613   2.665
30386W        W89647   4.323  39.342   1.775
30387W        W89648  41.005  38.365   3.381
30388W        W89649  27.525  37.456  13.424
30389W        W89650  26.180  24.538   3.666
30390W        W89651  25.176  38.076  10.639
30391W        W89652   3.242  16.594  14.411
30392W        W89653   0.867  43.468  12.490
30393W        W89654  30.582  21.234  12.014
30394W        W89655  14.804  20.645  11.586
30395W        W89656   0.401  44.391   2.724
30396W        W89657  39.053  18.171   0.343
30397W        W89658  26.612  33.519  11.477
30398W        W89659   0.295  15.199  13.410
30399W        W89660   4.363  38.026   0.302
30400W        W89661  38.486  17.556   4.711
30401W        W89662  15.697  43.316   2.417
30402W        W89663  42.895  33.949   1.825
30403W        W89664  44.763   2.788  12.398
30404W        W89665   0.490   8.784  12.038
30405W        W89666  33.967  18.246  13.537
30406W        W89667   1.776  34.574   3.267
30407W        W89668   3.838  41.969  14.943
30408W        W89669   8.264  14.159  13.420
30409W        W89670  16.123   5.337  10.927
30410W        W89671  24.174  23.726   4.749
30411W        W89672  26.678  12.690  11.121
30412W        W89673  28.600  33.512  14.902
30413W        W89674  12.172  26.506   1.829
30414W        W89675  21.630   8.655   0.425
30415W        W89676  28.115  17.687   2.765
30416W        W89677  29.570  12.854  13.512
30417W        W89678  39.534   9.280   2.729
30418W        W89679   8.175  27.447  12.076
30419W        W89680  42.393   5.819   3.806
30420W        W89681  25.016   6.187   0.819
30421W        W89682  43.366  40.435  13.979
30422W        W89683  11.693   1.358  12.559
30423W        W89684  35.543  36.438  12.844
30424W        W89685   4.810   2.459  11.982
30425W        W89686  13.678  28.625   3.756
30426W        W89687  40.884  13.119   2.844
30427W        W89688   4.378  42.345   4.747
30428W        W89689  32.467  16.247  14.407
30429W        W89690  33.579  10.679  13.910
30430W        W89691   9.379  31.943  12.374
30431W        W89692  12.728  36.068  10.990
30432W        W89693  38.019  15.705   4.337
30433W        W89694  17.281  30.528   3.373
30434W        W89695   3.228  10.346  10.959
30435W        W89696   3.228  19.735   3.348
30436W        W89697   3.900   7.191   3.301
30437W        W89698  32.506   0.260  14.473
30438W        W89699  12.334   7.672  10.481
30439W        W89700  12.741  21.704  10.494
30440W        W89701  35.871  19.648   2.663
30441W        W89702  42.348  21.221  11.077
30442W        W89703  19.093  11.128   3.835
30443W        W89704  39.036  27.685   0.242
30444W        W89705  18.723   1.799  14.377
30445W        W89706  44.265  27.655   0.379
30446W        W89707  17.141  35.424   4.310
30447W        W89708  25.139  42.797   2.330
30448W        W89709  23.697  11.158   1.801
30449W        W89710  13.827  13.813   3.358
30450W        W89711  34.421  15.722   2.870
30451W        W89712  21.752  32.910  14.398
30452W        W89713  24.674  40.429  11.393
30453W        W89714   5.248  31.944   1.704
30454W        W89715  22.117  11.297  11.013
30455W        W89716  21.213  42.500   4.739
30456W        W89717  23.522  21.553  12.992
30457W        W89718  37.933  29.602   0.336
30458W        W89719   5.428  13.618  12.491
30459W        W89720  22.036  34.027   4.227
30460W        W89721   9.838  35.876   3.348
30461W        W89722   9.722  13.107  11.404
30462W        W89723  40.918  29.092  10.563
30463W        W89724  37.033  40.014  11.017
30464W        W89725  39.875  27.947  13.963
30465W        W89726  23.492  40.333   2.718
30466W        W89727  29.008   8.226   0.935
30467W        W89728  36.966  14.202  10.963
30468W        W89729  36.474  30.541  14.449
30469W        W89730  42.361  29.528   2.366
30470W        W89731  16.289  36.874  11.924
30471W        W89732  41.448  16.663   2.814
30472W        W89733  15.131  21.610   0.452
30473W        W89734   6.253  27.591  11.574
30474W        W89735   6.755  40.427   3.276
30475W        W89736  41.989  22.693   4.642
30476W        W89737  42.002  38.036   4.160
30477W        W89738   6.424  23.521  13.391
30478W        W89739  18.096  15.190  14.337
30479W        W89740  10.300   7.779   1.797
30480W        W89741  15.642   0.796   3.299
30481W        W89742  29.018  16.765  13.013
30482W        W89743  11.704   5.242   0.314
30483W        W89744  32.083  39.369   2.879
30484W        W89745   0.454  32.466   1.316
30485W        W89746  37.477  26.198   1.446
30486W        W89747  35.430  22.102  13.406
30487W        W89748  33.984  29.643  14.364
30488W        W89749   8.669  18.554  14.777
30489W        W89750  20.217   2.320   4.130
30490W        W89751  38.363   4.717  11.008
30491W        W89752  23.198  12.645  13.974
30492W        W89753  41.952  23.097  10.010
30493W        W89754   1.471  38.365   2.238
30494W        W89755   3.259  35.854   1.786
30495W        W89756   6.829  22.070   2.199
30496W        W89757  36.953  14.276   3.287
30497W        W89758   6.246  36.028   2.696
30498W        W89759  24.666  26.962   2.747
30499W        W89760  31.118   6.363   1.731
30500W        W89761  20.197  10.245   2.339
30501W        W89762   4.316  23.597  12.399
30502W        W89763  29.041  10.782  11.083
30503W        W89764  42.480  21.635  13.016
30504W        W89765  28.114   0.954  12.429
30505W        W89766  20.245  16.158   3.153
30506W        W89767  33.406  28.074   5.235
30507W        W89768  29.148   4.313   1.910
30508W        W89769  21.176  33.566   2.333
30509W        W89770  30.659  14.812   1.765
30510W        W89771  32.566  36.491   1.778
30511W        W89772  33.908   8.858  14.812
30512W        W89773  16.653   8.794  12.345
30513W        W89774  22.719   2.952  13.369
30514W        W89775  29.488  22.205  11.063
30515W        W89776   8.765   8.284   0.922
30516W        W89777  31.985  21.047  11.948
30517W        W89778  25.107  29.959   1.790
30518W        W89779  36.092  36.035   1.878
30519W        W89780   0.987  37.950   1.780
30520W        W89781   6.203   2.853  12.889
30521W        W89782  13.135  11.671   1.840
30522W        W89783   9.310  44.479   1.439
30523W        W89784   9.352  42.348  12.861
30524W        W89785  28.986   3.814   0.961
30525W        W89786  19.275   6.830   1.893
30526W        W89787  42.489  36.061  12.060
30527W        W89788  18.172  35.529  11.941
30528W        W89789   3.226   8.778   2.892
30529W        W89790  43.834  39.449   2.720
30530W        W89791   8.270  39.382   3.789
30531W        W89792  44.850  27.043   1.314
30532W        W89793   3.791  13.687   4.710
30533W        W89794  11.174  13.242  11.611
30534W        W89795  21.738  21.522  14.371
30535W        W89796  42.977  36.584  14.392
30536W        W89797  30.971  32.487   1.246
30537W        W89798  12.679   9.791  11.050
30538W        W89799  39.024  19.733  14.770
30539W        W89800  20.755   5.882   0.427
30540W        W89801  38.422  43.019   1.757
30541W        W89802  30.908  30.076  11.952
30542W        W89803  22.717  23.055  12.825
30543W        W89804  34.936  25.701  14.277
30544W        W89805  35.478  42.015   1.251
30545W        W89806  22.600  38.525  10.018
30546W        W89807  29.448  26.954   2.391
30547W        W89808   2.910  41.312  11.513
30548W        W89809  24.074  39.833  11.947
30549W        W89810  26.208  19.077  14.418
30550W        W89811  18.050  10.777   2.253
30551W        W89812   5.366  33.519  13.795
30552W        W89813  16.616  39.452   4.269
30553W        W89814  43.865   4.927  14.306
30554W        W89815  41.412  40.018   1.783
30555W        W89816   5.205  18.250   4.632
30556W        W89817   0.284   8.705  13.001
30557W        W89818   0.333   4.262  12.553
30558W        W89819  30.984  11.834  12.913
30559W        W89820   2.329  33.519   3.385
30560W        W89821  18.715  30.620   3.696
30561W        W89822   5.715  18.587  11.031
30562W        W89823   5.417  27.951   0.936
30563W        W89824  27.622  10.832   4.259
30564W        W89825  27.116   5.227   2.406
30565W        W89826  29.932   0.487  14.479
30566W        W89827   2.419  21.227  12.554
30567W        W89828  25.096  11.179  11.106
30568W        W89829   9.874   2.463  13.938
30569W        W89830  31.626  15.727  11.972
30570W        W89831  12.841  29.605   0.473
30571W        W89832   3.757   5.391  12.413
30572W        W89833  28.967  14.599  14.314
30573W        W89834  18.162  12.332   1.266
30574W        W89835   9.223   1.396   3.383
30575W        W89836  18.742   0.785  13.055
30576W        W89837   4.308  24.221   1.867
30577W        W89838  35.918  43.411   3.228
30578W        W89839  40.960  20.662   3.151
30579W        W89840  39.929  26.518   1.800
30580W        W89841  31.119   7.290  10.506
30581W        W89842  42.918  31.414  14.950
30582W        W89843  12.770  40.837  11.059
30583W        W89844  29.440  19.178  14.773
30584W        W89845  16.301  43.334  10.640
30585W        W89846  34.932   7.189   3.751
30586W        W89847  28.957  30.988   3.810
30587W        W89848   4.442  33.926   4.833
30588W        W89849  20.639  22.101   4.150
30589W        W89850  44.820  14.277   1.319
30590W        W89851   5.731  38.006   3.349
30591W        W89852  41.009  10.798  14.957
30592W        W89853  29.165  38.830   4.214
30593W        W89854  32.407  38.474   2.798
30594W        W89855  42.486   9.190  14.309
30595W        W89856   3.253   1.465  14.979
30596W        W89857  29.973   3.377   0.790
30597W        W89858  13.737  13.740  13.025
30598W        W89859  25.629   9.301  12.064
30599W        W89860  26.695   5.267   0.736
30600W        W89861   2.305  24.504  10.954
30601W        W89862  20.170  34.021   1.788
30602W        W89863  38.002   8.798  12.363
30603W        W89864  16.123   4.408  12.349
30604W        W89865  36.467  41.805  13.981
30605W        W89866  22.188  17.638  13.414
30606W        W89867   3.820  32.409  11.466
30607W        W89868  35.055  27.531   2.876
30608W        W89869  27.157  39.400  12.907
30609W        W89870  22.742  41.397  13.395
30610W        W89871  44.756  34.477   1.704
30611W        W89872  24.670  13.792  13.011
30612W        W89873   2.372  28.136   0.899
30613W        W89874  31.908  33.460   1.720
30614W        W89875  31.531  30.034   0.347
30615W        W89876   1.910   3.948   0.757
30616W        W89877  28.995  16.112   3.849
30617W        W89878  37.543   2.908   2.386
30618W        W89879  28.165  21.651   1.369
30619W        W89880  24.677  39.326  11.558
30620W        W89881  40.933  33.074  12.061
30621W        W89882   3.429  33.965  13.865
30622W        W89883   9.275   5.211   0.355
30623W        W89884  11.346  38.340  10.952
30624W        W89885   5.254  43.981  14.777
30625W        W89886  31.601   6.768  12.361
30626W        W89887  21.124  12.118   3.317
30627W        W89888   6.394  20.638  12.055
30628W        W89889  17.801  17.558   2.684
30629W        W89890  16.771   0.857   0.843
30630W        W89891  28.066   4.224  12.460
30631W        W89892  19.210  32.501  12.474
30632W        W89893  23.146  21.194  13.915
30633W        W89894   7.208  23.072  11.393
30634W        W89895  26.534   1.314  10.622
30635W        W89896   4.299  30.570  11.911
30636W        W89897  18.616  24.701  10.541
30637W        W89898  36.520  10.328  11.448
30638W        W89899   9.827  13.738   0.418
30639W        W89900  44.875  36.456  10.474
30640W        W89901   1.472  19.247  14.408
30641W        W89902  22.527  26.990  12.424
30642W        W89903  23.051  38.357   1.270
30643W        W89904  13.292   8.221   1.746
30644W        W89905   8.243  20.753  11.440
30645W        W89906  42.012  30.642   0.799
30646W        W89907  25.566  28.483   3.675
30647W        W89908   4.389   7.375   2.903
30648W        W89909  13.306  25.635   1.906
30649W        W89910  15.329   0.274   3.866
30650W        W89911   0.751  25.540   4.775
30651W        W89912   4.735  36.045  13.495
30652W        W89913   2.367  14.331   5.150
30653W        W89914  30.024  21.124   3.310
30654W        W89915  41.398   4.243  11.058
30655W        W89916  22.202   5.697  10.520
30656W        W89917   6.269  33.908   1.808
30657W        W89918  13.646  16.618  11.388
30658W        W89919  42.483  41.340   3.315
30659W        W89920  19.214  19.596   2.347
30660W        W89921   8.342  34.099   3.802
30661W        W89922  38.480  17.085   3.843
30662W        W89923  28.525   7.720   2.247
30663W        W89924  26.963  18.735  12.832
30664W        W89925  15.700  37.038   2.828
30665W        W89926   2.834  16.263  10.491
30666W        W89927  41.458   4.231  14.301
30667W        W89928  38.463   6.301   2.682
30668W        W89929  26.537  33.956  13.952
30669W        W89930  20.154  24.203   3.813
30670W        W89931  26.504   4.429  11.602
30671W        W89932  18.079  43.922  10.993
30672W        W89933   5.198  13.119   0.292
30673W        W89934  28.612   5.351   3.800
30674W        W89935  31.505  42.345   0.304
30675W        W89936  23.113  20.704  14.983
30676W        W89937  11.298  37.400  14.823
30677W        W89938  34.429  12.627  12.082
30678W        W89939  17.134  33.938  10.530
30679W        W89940   1.974  24.549  13.384
30680W        W89941  23.667  27.573   0.758
30681W        W89942   2.925  23.112   2.755
30682W        W89943  23.062  14.304  12.355
30683W        W89944  40.342  16.127  14.399
30684W        W89945  12.727  14.200   2.220
30685W        W89946  25.986  36.406  10.642
30686W        W89947   1.475  27.116   3.241
30687W        W89948  24.001  31.096   2.336
30688W        W89949  15.768  38.967  13.017
30689W        W89950  38.856  30.955   0.421
30690W        W89951  44.924  22.120   1.436
30691W        W89952  27.039  29.136  14.294
30692W        W89953  13.723  44.879   0.903
30693W        W89954  37.874  25.618  13.337
30694W        W89955  30.943  42.495  11.989
30695W        W89956  37.990  23.062  11.030
30696W        W89957  13.276  23.013   3.804
30697W        W89958  41.801  38.333   1.313
30698W        W89959  26.181  20.759   1.935
30699W        W89960  26.015   1.856  14.327
30700W        W89961   4.345  27.513   3.340
30701W        W89962  24.610  23.027   0.261
30702W        W89963  12.792   5.405  14.453
30703W        W89964   5.848  41.918  13.860
30704W        W89965  27.981  25.009   4.285
30705W        W89966  24.055  30.617  12.358
30706W        W89967  28.096  35.106   1.912
30707W        W89968  21.746  33.052   1.439
30708W        W89969   1.285  44.892   0.350
30709W        W89970  19.574  29.063  13.983
30710W        W89971  11.656   2.903   3.699
30711W        W89972  12.301   0.787  10.636
30712W        W89973  23.606   1.457   3.341
30713W        W89974  23.157  29.113  10.497
30714W        W89975  44.294  12.790  10.983
30715W        W89976  34.390  18.756   1.210
30716W        W89977  42.477  10.286  12.878
30717W        W89978  39.314  21.213   2.265
30718W        W89979   3.934  31.022   0.951
30719W        W89980  10.747   4.749  11.053
30720W        W89981  30.113  32.394   2.682
30721W        W89982  23.497  10.820   4.286
30722W        W89983  36.968   6.835   4.786
30723W        W89984  30.047  29.541   4.322
30724W        W89985   4.876   3.425  14.425
30725W        W89986  26.039  30.004  11.528
30726W        W89987   3.724  21.748  14.017
30727W        W89988  27.486  17.111   3.222
30728W        W89989  26.963  23.138   2.235
30729W        W89990  25.030  14.230  11.457
30730W        W89991  31.558   6.186   0.871
30731W        W89992   7.320  37.522  13.383
30732W        W89993  12.837   7.827  13.925
30733W        W89994  26.140  26.631  12.978
30734W        W89995  40.420  40.508  11.106
30735W        W89996  35.969  29.446  11.376
30736W        W89997  31.985  44.965   1.861
30737W        W89998  10.699  14.732   2.732
30738W        W89999  41.811  31.958  13.028
30739W        W90000  29.100  32.630   4.703
30740W        W90001  16.581  20.569   9.610
30741W        W90002  36.046  41.449   0.739
30742W        W90003  38.414   2.728  12.933
30743W        W90004  28.459  17.681  10.429
30744W        W90005   2.236  43.011   2.842
30745W        W90006   5.355  17.658   1.215
30746W        W90007  10.737  34.431   3.148
30747W        W90008  27.013  29.025  13.346
30748W        W90009  27.679  24.596  10.556
30749W        W90010  28.006   9.377   1.899
30750W        W90011  38.415   8.839   0.859
30751W        W90012   6.294   5.840   1.232
30752W        W90013   6.778  19.585  13.879
30753W        W90014  34.976   4.390  13.497
30754W        W90015   1.746  23.704  13.884
30755W        W90016  20.177  33.925   4.256
30756W        W90017  33.041  16.079  13.502
30757W        W90018  25.470   3.902   2.721
30758W        W90019  14.307  44.372   1.748
30759W        W90020  31.138  21.542   3.861
30760W        W90021  26.958  10.793  13.352
30761W        W90022  33.560  35.989   3.709
30762W        W90023  23.569  26.573   2.394
30763W        W90024  38.053  39.856   2.830
30764W        W90025   6.333  15.095  14.305
30765W        W90026  31.097   4.911   2.878
30766W        W90027   1.272  26.094  12.914
30767W        W90028  30.062  18.729   4.615
30768W        W90029   0.933  32.413   2.293
30769W        W90030   6.893  21.677   1.444
30770W        W90031  42.522  20.669  11.609
30771W        W90032  28.138  40.041  13.352
30772W        W90033  14.820  39.027  14.384
30773W        W90034  42.808   6.922  10.591
30774W        W90035  12.705  18.563   4.308
30775W        W90036   7.889   2.742   1.359
30776W        W90037  41.802  37.057   4.168
30777W        W90038  41.428  28.525   0.946
30778W        W90039  21.224   1.868  12.928
30779W        W90040  24.122   8.312   2.218
30780W        W90041   3.901  11.818   1.704
30781W        W90042   6.810  43.892   4.165
30782W        W90043   8.866  23.023  12.902
30783W        W90044  20.716  23.647   5.646
30784W        W90045  26.989   4.823  11.994
30785W        W90046  42.401   5.310  11.593
30786W        W90047  36.040   2.341  13.481
30787W        W90048  15.754  17.668   9.948
30788W        W90049  39.541  38.862   2.734
30789W        W90050  37.927   7.735  13.317
30790W        W90051  10.774  16.602   1.799
30791W        W90052  15.696   3.770  12.002
30792W        W90053  14.293  17.196  14.799
30793W        W90054  44.960  27.128   1.802
30794W        W90055   9.787  36.008  11.904
30795W        W90056   3.238  35.516   3.298
30796W        W90057  42.340   9.339   1.213
30797W        W90058  17.658  36.917  11.111
30798W        W90059  41.488  39.997   2.376
30799W        W90060   5.851  32.545   0.451
30800W        W90061  12.779  24.694  12.857
30801W        W90062  33.548  32.566  13.434
30802W        W90063  27.005  24.141  12.035
30803W        W90064  21.061   0.792   2.753
30804W        W90065  28.618   2.377  11.923
30805W        W90066  21.729  12.620  10.899
30806W        W90067  28.471   2.887   3.204
30807W        W90068   5.886   2.935   4.759
30808W        W90069   5.228  22.079  13.897
30809W        W90070   3.868  35.563   4.753
30810W        W90071  23.206   1.937  14.860
30811W        W90072  25.496   3.274  12.361
30812W        W90073   1.318   6.338   2.333
30813W        W90074  44.927   0.281   0.873
30814W        W90075   3.794   6.726   4.113
30815W        W90076  18.748  23.179  10.461
30816W        W90077   1.377  32.508   4.696
30817W        W90078  28.484   9.759   0.949
30818W        W90079   1.870  34.095  14.813
30819W        W90080  44.852  25.049  13.054
30820W        W90081   2.794  16.813  12.401
30821W        W90082  10.679  35.537  10.618
30822W        W90083  29.134  14.126  13.369
30823W        W90084  39.062   4.321  12.364
30824W        W90085  33.567  17.725  13.950
30825W        W90086  39.906  33.078  14.388
30826W        W90087  30.534   4.786  13.362
30827W        W90088  14.281  33.926   3.241
30828W        W90089   9.663  12.224  10.949
30829W        W90090   9.760   9.776   2.845
30830W        W90091   6.768  42.520   1.428
30831W        W90092  25.025  16.262   0.774
30832W        W90093  16.760  42.282  13.869
30833W        W90094  22.524  10.838  14.956
30834W        W90095  23.022  30.658   0.781
30835W        W90096  16.636  16.668  11.945
30836W        W90097  33.952   3.902   4.137
30837W        W90098  14.707  13.289  11.058
30838W        W90099   6.682  43.966   2.308
30839W        W90100  39.926  44.863  14.377
30840W        W90101  27.042  35.370   4.119
30841W        W90102   9.171  18.221   5.296
30842W        W90103  42.457   6.267  13.345
30843W        W90104  32.932  43.903  12.027
30844W        W90105   5.782   9.346   0.461
30845W        W90106   5.759   1.400  13.386
30846W        W90107  27.192   9.155   2.217
30847W        W90108  41.857  33.528   2.826
30848W        W90109  44.951   2.325  12.903
30849W        W90110  32.018  19.084  10.422
30850W        W90111  10.246  15.204  13.514
30851W        W90112  25.018  35.918  14.420
30852W        W90113  19.246  25.687   1.303
30853W        W90114  34.425  30.953   1.282
30854W        W90115   9.678  43.313   1.800
30855W        W90116  20.086  30.089  12.952
30856W        W90117  33.463  14.777  10.957
30857W        W90118  30.429  30.927  11.481
30858W        W90119  16.623  30.952  11.495
30859W        W90120  18.124   4.862   0.911
30860W        W90121  37.857  25.560   3.270
30861W        W90122   0.348  43.370  14.328
30862W        W90123  34.428  22.591   4.604
30863W        W90124   7.902  24.086  12.997
30864W        W90125  19.059   8.710  11.418
30865W        W90126  35.924  43.496  14.020
30866W        W90127  18.208  21.106   1.934
30867W        W90128  35.017  25.022  10.922
30868W        W90129  27.454  15.823   2.797
30869W        W90130  31.643  13.709   2.716
30870W        W90131  24.525  31.107   3.208
30871W        W90132  28.987  29.043   1.773
30872W        W90133  10.674  10.332   3.380
30873W        W90134  38.920  19.129  12.830
30874W        W90135  29.024   9.852   2.346
30875W        W90136  42.367  30.583   2.698
30876W        W90137  12.258  23.113   2.226
30877W        W90138  19.147   0.479   4.681
30878W        W90139   3.238   4.890  10.062
30879W        W90140  24.075   5.215   2.841
30880W        W90141  10.140   0.284   9.939
30881W        W90142  43.421   4.286   3.781
30882W        W90143  34.960  14.140  13.548
30883W        W90144  24.493  37.938  14.427
30884W        W90145  38.549  14.143  13.392
30885W        W90146  32.549   2.849   3.298
30886W        W90147  37.525  29.543   0.831
30887W        W90148  22.042  22.747   4.695
30888W        W90149  11.346   8.405  11.073
30889W        W90150  31.532  35.430   2.199
30890W        W90151  21.201   6.833  11.020
30891W        W90152  10.716  41.331  11.104
30892W        W90153  43.925  29.937   2.867
30893W        W90154  40.430  39.865   2.737
30894W        W90155  13.653  22.176   2.875
30895W        W90156  10.848   2.740   1.348
30896W        W90157  21.226   2.312  12.372
30897W        W90158  38.887  17.255   5.249
30898W        W90159  31.121  23.012  13.545
30899W        W90160  30.046  32.975  11.097
30900W        W90161  43.984  12.306  13.910
30901W        W90162  18.570   3.373  13.504
30902W        W90163   0.388  26.196  14.942
30903W        W90164  32.537  31.899  10.536
30904W        W90165  17.289  34.066   4.702
30905W        W90166  23.571   2.414  14.940
30906W        W90167  17.573  10.338  10.895
30907W        W90168  21.171  28.174  13.809
30908W        W90169   4.778  39.968   2.215
30909W        W90170  34.055   3.856   1.380
30910W        W90171   4.293  20.753  13.541
30911W        W90172  13.346  15.625  12.877
30912W        W90173  31.010  13.788   1.244
30913W        W90174  12.727  16.183  14.361
30914W        W90175  16.695  34.867   4.185
30915W        W90176  34.496  35.088   2.270
30916W        W90177  40.967  12.302   2.406
30917W        W90178   0.488  15.704   1.339
30918W        W90179   1.360  42.466   0.843
30919W        W90180  15.578  11.690  11.057
30920W        W90181  21.148  41.344   2.300
30921W        W90182  21.649  17.141  13.822
30922W        W90183  35.434  20.580   3.745
30923W        W90184   3.801  40.389  13.841
30924W        W90185  27.951   6.325   3.820
30925W        W90186  15.747  21.054  10.588
30926W        W90187   3.852  37.052  12.040
30927W        W90188  14.610  23.667   2.371
30928W        W90189   8.818  12.692   3.801
30929W        W90190  10.736   2.276  10.555
30930W        W90191  31.007   2.438  12.497
30931W        W90192  41.810  26.528   1.282
30932W        W90193  43.922  44.970  12.888
30933W        W90194  18.603  13.201   4.791
30934W        W90195  10.298  41.418  13.051
30935W        W90196  23.508  22.524   2.835
30936W        W90197  35.481  35.942   4.664
30937W        W90198  31.961  11.191   3.362
30938W        W90199   7.871   3.834  12.362
30939W        W90200  27.144   7.801   0.346
30940W        W90201  33.594  17.782   0.777
30941W        W90202  21.241  18.093   3.714
30942W        W90203  18.174  41.406  13.961
30943W        W90204  16.602  14.668  11.452
30944W        W90205  14.706  29.643   0.388
30945W        W90206  39.375  12.171   1.898
30946W        W90207  26.122   4.781   1.755
30947W        W90208  21.236  43.770  13.898
30948W        W90209  27.519  42.807   4.189
30949W        W90210  39.930  11.789  10.943
30950W        W90211  13.206   1.409   1.410
30951W        W90212   7.210  35.546   0.746
30952W        W90213   6.821  38.479   2.790
30953W        W90214  23.508  33.441   2.329
30954W        W90215  10.635  43.777   0.799
30955W        W90216  25.567   3.257   2.809
30956W        W90217  32.962  24.077   4.721
30957W        W90218  18.260   6.382   1.341
30958W        W90219  36.592  24.118  12.077
30959W        W90220  24.698  12.164  11.880
30960W        W90221  38.362  15.307  13.056
30961W        W90222  42.990   6.410  12.522
30962W        W90223  41.008  25.194   1.894
30963W        W90224  39.541   9.276   0.796
30964W        W90225  11.792  43.470  14.761
30965W        W90226  24.001  16.627  14.314
30966W        W90227  35.381  29.587  10.503
30967W        W90228  21.101  17.561  11.377
30968W        W90229  16.300   5.384  12.565
30969W        W90230  24.488  19.706  10.566
30970W        W90231  42.893  37.042  11.897
30971W        W90232   0.460  10.233  12.069
30972W        W90233   1.293  33.008  12.057
30973W        W90234  43.005  37.435  11.915
30974W        W90235  37.489  19.192  12.988
30975W        W90236  41.866  13.629  11.594
30976W        W90237   5.750  23.506  13.907
30977W        W90238  34.023  30.926  12.527
30978W        W90239  11.699  25.475  10.506
30979W        W90240  16.576  35.072   1.890
30980W        W90241  16.314   9.736  11.511
30981W        W90242  23.683  37.868  10.443
30982W        W90243  26.993  14.314  10.607
30983W        W90244  29.461   2.816  10.556
30984W        W90245  26.120   5.222  14.454
30985W        W90246  43.917  12.802  14.003
30986W        W90247   2.381   8.738   1.770
30987W        W90248  40.854  24.095   1.810
30988W        W90249  43.919  27.101   1.823
30989W        W90250   1.955  17.689   4.614
30990W        W90251  11.822   9.167   2.224
30991W        W90252  37.864   2.364   2.262
30992W        W90253  12.684  40.411  14.344
30993W        W90254  34.548  39.945   0.402
30994W        W90255  19.757  18.751  10.891
30995W        W90256  16.088   2.871  11.861
30996W        W90257  30.592   7.769   4.679
30997W        W90258  38.039  29.616  13.846
30998W        W90259  32.051   6.428  11.510
30999W        W90260  28.992  36.577   2.215
31000W        W90261  14.609  42.342   4.276
31001W        W90262  20.266  27.095   2.265
31002W        W90263  12.826  42.304   1.332
31003W        W90264   2.233  17.206   0.872
31004W        W90265  10.192   5.809  13.342
31005W        W90266  43.873   8.897  13.486
31006W        W90267   9.687  10.372  11.987
31007W        W90268  13.834  28.450   2.250
31008W        W90269  16.161  40.897  13.384
31009W        W90270  31.961  42.301  14.353
31010W        W90271  15.621  13.238   4.837
31011W        W90272  27.038  35.930   2.797
31012W        W90273  29.603   5.721   1.766
31013W        W90274  18.608  30.038   3.373
31014W        W90275  14.808  12.194  13.043
31015W        W90276  28.446   1.303  11.069
31016W        W90277  24.141   3.447  12.860
31017W        W90278  21.741  40.889  12.851
31018W        W90279   8.216  23.597   3.167
31019W        W90280  30.598  41.944  11.919
31020W        W90281  21.133  30.078   0.882
31021W        W90282  44.372  38.842  10.441
31022W        W90283  13.778  23.492   1.773
31023W        W90284  33.609  34.397   3.318
31024W        W90285  22.146  33.967   1.793
31025W        W90286   2.812  35.439   2.870
31026W        W90287  26.951   1.947   5.307
31027W        W90288  20.206   2.392  11.086
31028W        W90289   1.403   9.861  14.029
31029W        W90290  26.105  23.015  13.513
31030W        W90291  20.559  18.165   0.453
31031W        W90292  25.108  38.917   1.364
31032W        W90293  37.989  31.126   3.671
31033W        W90294  22.080  41.858   1.228
31034W        W90295  39.395  32.930  14.313
31035W        W90296  18.560  29.975  11.588
31036W        W90297   7.905  31.613  14.425
31037W        W90298  28.669  33.993  14.369
31038W        W90299   8.717  29.498   0.887
31039W        W90300  10.167  17.593  12.913
31040W        W90301  17.198  22.587   0.895
31041W        W90302  15.641  24.596  13.950
31042W        W90303  25.179  43.510   1.728
31043W        W90304  20.759  40.052   4.143
31044W        W90305  24.002   9.855  12.558
31045W        W90306   3.393  11.248  12.057
31046W        W90307  18.569  18.583   3.250
31047W        W90308  17.244  19.073   4.674
31048W        W90309   5.739  41.805   2.394
31049W        W90310  26.680  40.348   4.715
31050W        W90311  28.176   3.437   4.128
31051W        W90312  44.893  27.567  10.074
31052W        W90313   7.809  13.154   2.333
31053W        W90314  41.895   7.728  14.855
31054W        W90315  27.650  12.155   2.344
31055W        W90316   2.393  24.557   0.908
31056W        W90317  37.557  35.922  14.029
31057W        W90318  39.532   3.794  13.837
31058W        W90319  25.134   8.371  10.427
31059W        W90320  38.050  39.881  14.851
31060W        W90321  40.310   8.703  13.437
31061W        W90322  30.629   2.865   4.672
31062W        W90323  43.006  21.544   1.437
31063W        W90324  43.286  39.365  14.463
31064W        W90325   5.225  36.506   0.947
31065W        W90326  19.581   8.862   0.397
31066W        W90327  33.879   0.837   4.670
31067W        W90328  12.634   6.212  10.443
31068W        W90329  24.130   5.242  13.951
31069W        W90330   3.220   2.230   4.269
31070W        W90331   2.425  39.930   2.894
31071W        W90332   1.799  13.244   4.284
31072W        W90333  11.323  42.872   3.745
31073W        W90334  40.974  25.059  11.003
31074W        W90335  42.828  14.246  12.469
31075W        W90336  24.486  14.675  11.052
31076W        W90337   2.814  40.356  10.976
31077W        W90338  43.428  18.129   2.770
31078W        W90339  32.104   8.328   9.972
31079W        W90340  11.812  25.042  10.046
31080W        W90341  14.799  21.097   2.891
31081W        W90342  10.351  37.394  13.001
31082W        W90343  35.592  16.657  13.319
31083W        W90344  32.482  17.111  12.457
31084W        W90345  11.817  34.006   1.757
31085W        W90346   4.764  44.351  11.858
31086W        W90347  24.151  37.342  10.455
31087W        W90348   1.796  35.940  11.998
31088W        W90349  39.377  34.550   4.189
31089W        W90350  25.212  26.607   2.262
31090W        W90351  30.462  17.130   1.873
31091W        W90352  28.467  20.670  13.467
31092W        W90353  34.561  26.506   3.635
31093W        W90354  30.011  27.688  11.084
31094W        W90355  10.687  31.961  11.989
31095W        W90356  39.871  30.488  12.520
31096W        W90357   0.405   8.750  14.931
31097W        W90358  35.388   7.244  13.844
31098W        W90359  14.595   3.416  10.502
31099W        W90360  17.240  13.332   1.335
31100W        W90361  43.421  17.069   2.376
31101W        W90362  21.186  10.207  14.304
31102W        W90363  32.137   8.899  14.369
31103W        W90364  17.644   3.306   1.883
31104W        W90365  12.718  34.505  13.984
31105W        W90366  42.897  36.095   1.870
31106W        W90367  30.587  19.673  10.629
31107W        W90368   2.326  23.112   4.269
31108W        W90369  32.949  12.239   3.197
31109W        W90370   4.842  26.473   1.898
31110W        W90371  44.266  21.237   5.117
31111W        W90372   8.354   6.842   4.601
31112W        W90373  34.946  14.716  11.059
31113W        W90374  35.895  36.532   1.891
31114W        W90375   5.305  24.550   0.791
31115W        W90376  34.029   7.857   5.633
31116W        W90377  29.439  42.980   1.386
31117W        W90378  14.681  10.781  14.515
31118W        W90379  20.707  25.659  12.442
31119W        W90380  15.137  21.649  13.510
31120W        W90381  37.893  10.732   1.776
31121W        W90382  21.045  27.645   3.269
31122W        W90383  14.331  26.474  14.380
31123W        W90384  40.828  37.483   4.597
31124W        W90385   7.257   5.369  14.768
31125W        W90386  30.954  35.920   2.381
31126W        W90387  43.824  23.596   2.838
31127W        W90388  28.546  15.094  13.044
31128W        W90389   1.957  38.065   2.781
31129W        W90390  30.966  17.565  14.007
31130W        W90391  17.727   3.805  11.489
31131W        W90392  37.019  30.106   3.755
31132W        W90393  43.957  17.709   0.482
31133W        W90394   8.281   3.421   4.305
31134W        W90395  30.509   6.337  10.519
31135W        W90396   3.368  28.184   0.729
31136W        W90397  23.647  34.039   3.355
31137W        W90398  42.998  32.631  14.847
31138W        W90399   8.338  41.833  12.940
31139W        W90400   5.759  24.185  12.876
31140W        W90401  38.555  33.393   1.866
31141W        W90402  38.946  33.086  11.970
31142W        W90403   2.799  11.174  11.441
31143W        W90404   6.685   3.237  13.020
31144W        W90405  11.676  39.040  11.883
31145W        W90406  24.715  41.383  11.509
31146W        W90407  24.136   1.938  11.917
31147W        W90408  24.195  33.914   4.328
31148W        W90409  29.045  38.834  13.485
31149W        W90410  14.299  26.081   1.703
31150W        W90411  26.158  18.281  12.022
31151W        W90412  44.891  22.117   4.211
31152W        W90413   7.770  13.310  13.530
31153W        W90414  43.330   4.382  13.910
31154W        W90415  13.259  23.552  11.011
31155W        W90416  28.086   0.814  14.922
31156W        W90417  32.103  39.834  13.895
31157W        W90418  12.311  21.547   3.255
31158W        W90419  18.603  40.461   1.414
31159W        W90420  36.465  26.683   2.419
31160W        W90421  14.131   1.441  11.454
31161W        W90422  11.253  25.129  10.943
31162W        W90423  21.192  36.569  12.395
31163W        W90424  22.544  25.148  10.887
31164W        W90425  32.515  23.233  11.411
31165W        W90426  30.917  28.544   2.827
31166W        W90427   7.686  10.782   0.468
31167W        W90428  21.086  32.465  14.354
31168W        W90429  42.509  20.164   3.348
31169W        W90430   1.971   9.275  10.971
31170W        W90431   3.777  44.369   0.396
31171W        W90432  39.466  39.374  14.766
31172W        W90433  22.606   9.272  13.999
31173W        W90434  32.528  26.952   0.424
31174W        W90435  23.187  35.940   2.394
31175W        W90436  36.926  44.349  12.087
31176W        W90437  37.861  26.480   0.749
31177W        W90438  35.029   9.327  10.487
31178W        W90439  16.620  20.189  11.119
31179W        W90440  10.306  15.159  11.378
31180W        W90441   9.752  12.661   4.600
31181W        W90442   0.492  32.500  10.917
31182W        W90443  37.838   2.944   3.868
31183W        W90444   3.313  21.548   4.783
31184W        W90445  33.617   1.784  12.853
31185W        W90446  23.649  38.414  13.978
31186W        W90447  43.335  38.940  14.824
31187W        W90448  43.417  42.283  11.872
31188W        W90449   4.299   5.352   9.960
31189W        W90450  18.591   4.204  12.374
31190W        W90451  11.717  17.293  11.491
31191W        W90452  40.549  35.405   2.256
31192W        W90453  23.647  36.005   0.425
31193W        W90454  35.467  14.657  13.502
31194W        W90455  24.150   2.846   3.323
31195W        W90456  26.037  30.097   3.730
31196W        W90457  20.673  43.346  14.771
31197W        W90458  40.401  16.298  12.439
31198W        W90459  24.640  31.443   0.956
31199W        W90460  17.579   2.950  14.344
31200W        W90461  15.175   9.652  10.512
31201W        W90462  37.866  22.675  12.404
31202W        W90463  13.802  13.185  10.989
31203W        W90464  29.566  12.245   4.313
31204W        W90465  44.386  41.945   3.207
31205W        W90466  23.102   8.201   2.753
31206W        W90467  20.624  22.081  14.378
31207W        W90468  18.234  21.716  13.414
31208W        W90469  16.571  13.311   0.245
31209W        W90470  32.631  19.119   1.245
31210W        W90471  37.977  38.975  11.061
31211W        W90472  27.679  10.206   2.788
31212W        W90473   8.825  41.434  10.551
31213W        W90474  37.841  29.502   4.812
31214W        W90475  23.223  14.280  10.445
31215W        W90476  26.656  29.069   1.760
31216W        W90477  21.674  34.114  12.538
31217W        W90478  36.869   5.859   3.754
31218W        W90479  12.353  36.942  12.932
31219W        W90480  18.274  26.551  11.092
31220W        W90481  29.166   0.297  12.854
31221W        W90482  29.557   8.308   0.395
31222W        W90483  26.075  14.630  11.374
31223W        W90484  42.480  28.457   5.729
31224W        W90485  24.128  13.682   0.405
31225W        W90486  38.556   5.219  11.888
31226W        W90487   1.816   9.217   0.852
31227W        W90488  18.586  23.081  12.383
31228W        W90489   5.260   8.287  12.945
31229W        W90490  11.198  34.485   2.781
31230W        W90491  38.335  37.959   4.692
31231W        W90492  26.573  29.032   4.707
31232W        W90493  16.679  12.648   3.366
31233W        W90494   1.949  43.361   2.200
31234W        W90495  16.202  38.469   0.819
31235W        W90496  13.216  19.237   1.828
31236W        W90497  34.570  28.589  11.474
31237W        W90498   3.867  10.323   1.832
31238W        W90499  44.389   7.381  13.891
31239W        W90500  34.594   7.262   2.189
31240W        W90501   6.842  15.753   1.843
31241W        W90502  43.399  41.828   3.181
31242W        W90503  27.953   4.293   9.945
31243W        W90504  16.121  19.713   4.211
31244W        W90505   8.220  12.122  13.926
31245W        W90506  40.929   2.948  13.423
31246W        W90507  44.782  43.976   1.441
31247W        W90508  22.049  21.152  12.055
31248W        W90509  23.620  33.093   0.398
31249W        W90510  30.939  40.507  14.769
31250W        W90511   6.268  26.151   3.270
31251W        W90512  26.180  16.682  14.356
31252W        W90513  41.410  33.025  14.901
31253W        W90514  41.843  12.644  10.464
31254W        W90515  22.147  36.533  14.375
31255W        W90516  36.470   5.315   2.333
31256W        W90517  19.214  33.412   0.734
31257W        W90518   1.399  26.017  14.350
31258W        W90519  28.470   7.763  14.326
31259W        W90520  15.202  41.897   2.308
31260W        W90521  11.227  28.010   1.717
31261W        W90522  43.864  37.032   1.333
31262W        W90523  27.519   8.684   1.849
31263W        W90524  16.132  44.329   2.359
31264W        W90525  20.629  28.621   1.854
31265W        W90526  30.099  10.858   0.412
31266W        W90527  26.560  18.725   1.430
31267W        W90528  43.362  14.237   1.735
31268W        W90529  27.450   5.786  11.475
31269W        W90530  29.077   9.647  12.498
31270W        W90531  35.010  15.179   4.177
31271W        W90532  24.187  18.236   5.165
31272W        W90533  28.533  28.471   2.693
31273W        W90534  41.910  23.651   3.244
31274W        W90535  28.568  16.682  14.372
31275W        W90536  33.999   4.376   1.907
31276W        W90537  24.183   1.319  14.838
31277W        W90538   5.870  38.940  13.508
31278W        W90539  28.559   3.801   3.368
31279W        W90540  13.254  13.670  12.871
31280W        W90541  44.976  10.279  14.445
31281W        W90542  29.658  20.670  14.909
31282W        W90543  18.601  23.734   1.449
31283W        W90544   9.354   0.446  13.307
31284W        W90545  24.033   0.328  11.864
31285W        W90546  24.987  20.683  13.965
31286W        W90547  21.712  34.058   2.876
31287W        W90548   9.229  28.129  13.384
31288W        W90549  39.021  43.972   4.349
31289W        W90550  39.892  27.053  11.451
31290W        W90551   3.877  18.189  10.925
31291W        W90552  19.129   9.284  11.420
31292W        W90553  14.758  13.687   2.217
31293W        W90554  13.717  42.849  14.019
31294W        W90555  29.515  29.441  13.933
31295W        W90556  18.555   0.469   4.322
31296W        W90557  41.462  30.463   2.869
31297W        W90558   7.357  41.995   2.299
31298W        W90559  41.877  42.810   3.277
31299W        W90560  20.059  10.646  14.481
31300W        W90561  16.742   7.289   5.171
31301W        W90562  23.638  22.246   4.716
31302W        W90563   6.427  30.944  12.391
31303W        W90564  40.312   4.938  11.930
31304W        W90565   2.281   9.187  13.984
31305W        W90566  39.458   3.379   1.301
31306W        W90567  34.420  16.223  14.001
31307W        W90568  36.585  10.288   0.735
31308W        W90569  33.079   2.731  13.540
31309W        W90570   4.376  44.806  12.055
31310W        W90571  34.867   3.331   2.784
31311W        W90572  16.710  22.609   4.167
31312W        W90573   6.347  23.616  12.579
31313W        W90574   0.889  11.235   3.795
31314W        W90575  33.962  23.515   2.254
31315W        W90576  31.596  25.572   2.831
31316W        W90577  15.137   4.283  12.066
31317W        W90578  18.154  35.902   1.335
31318W        W90579  37.054   8.716  14.877
31319W        W90580  14.278  29.920  12.436
31320W        W90581  44.377  31.633  14.004
31321W        W90582  15.631  33.564   4.290
31322W        W90583  33.040  43.866  11.503
31323W        W90584  28.160  11.645  10.946
31324W        W90585  28.014  16.626  14.000
31325W        W90586  33.536  14.708   0.460
31326W        W90587  37.067  27.559  10.504
31327W        W90588  26.173  40.943  14.310
31328W        W90589  25.123  20.606   3.804
31329W        W90590  40.811  13.657   2.367
31330W        W90591  43.925  40.824  10.493
31331W        W90592   6.416  10.194  10.617
31332W        W90593   7.299  11.821   0.747
31333W        W90594  21.080  42.484  11.437
31334W        W90595  34.919  31.032  14.434
31335W        W90596   2.814   6.311  14.796
31336W        W90597  36.494  21.191   3.673
31337W        W90598  18.730  42.002  11.532
31338W        W90599  33.514   1.319  10.437
31339W        W90600   5.780  33.891   1.227
31340W        W90601  36.476  17.067   3.746
31341W        W90602  19.605  30.574  10.441
31342W        W90603  37.444  29.455   4.139
31343W        W90604  28.071  26.458   4.666
31344W        W90605  20.252   1.976   3.348
31345W        W90606  34.032  23.522  14.940
31346W        W90607  14.697  18.227  12.847
31347W        W90608  40.313  28.666  12.441
31348W        W90609  30.137   8.706  13.503
31349W        W90610  30.138  26.005   2.373
31350W        W90611  17.757  36.523   3.638
31351W        W90612  27.134  40.030  13.996
31352W        W90613  33.002  10.243  14.308
31353W        W90614  36.448   8.406   9.949
31354W        W90615   9.276  14.793  13.829
31355W        W90616  19.251  23.516  12.040
31356W        W90617  11.632  10.778   3.810
31357W        W90618   9.730  33.113   0.327
31358W        W90619  22.650  24.491  14.301
31359W        W90620  33.586   2.416   4.317
31360W        W90621  29.515   6.788   4.116
31361W        W90622  13.683  26.072   2.408
31362W        W90623  36.505   1.968  14.868
31363W        W90624  44.458  37.521  11.065
31364W        W90625  25.962  43.491   4.750
31365W        W90626  39.361  27.100  14.498
31366W        W90627  16.727   3.250   4.700
31367W        W90628  16.709   8.197  14.484
31368W        W90629  43.334  31.961  14.823
31369W        W90630  15.214  31.456   1.934
31370W        W90631  20.577  22.634  13.367
31371W        W90632  40.861  40.362  14.302
31372W        W90633  44.911  12.200  13.811
31373W        W90634  24.516  36.970  10.560
31374W        W90635  34.377   5.299   1.327
31375W        W90636  14.136  18.117   0.931
31376W        W90637  14.169  20.186  13.790
31377W        W90638  14.275  19.537  13.947
31378W        W90639  13.654   9.665  11.115
31379W        W90640  34.524  39.006   4.671
31380W        W90641  43.274  33.416   1.338
31381W        W90642   2.962  41.486   1.750
31382W        W90643   7.170  33.050  14.871
31383W        W90644  42.800  26.621  12.970
31384W        W90645  16.238   9.767  13.487
31385W        W90646  26.491  34.072   2.899
31386W        W90647  17.164   6.356  10.058
31387W        W90648   1.297  17.729  13.002
31388W        W90649  44.450  18.575  14.958
31389W        W90650  28.640   3.278   1.375
31390W        W90651  26.622  29.115  14.347
31391W        W90652  17.721  21.151   3.863
31392W        W90653  16.086  35.452  13.457
31393W        W90654  44.832  38.954  13.987
31394W        W90655  36.903  22.084   0.344
31395W        W90656   4.346  38.997  13.383
31396W        W90657  32.083  23.663   4.692
31397W        W90658  11.163  14.224  13.425
31398W        W90659   6.879   2.357   4.750
31399W        W90660   0.813  38.971  10.596
31400W        W90661  16.810  10.709  12.996
31401W        W90662  25.637   0.249   0.897
31402W        W90663  40.900   4.379   4.220
31403W        W90664  36.943  33.996   1.764
31404W        W90665   8.862   9.319   0.285
31405W        W90666  39.347   3.262  12.523
31406W        W90667  20.241  40.834  14.496
31407W        W90668  40.039  20.089   5.229
31408W        W90669  19.101  21.743  10.889
31409W        W90670  26.697  18.162   3.268
31410W        W90671  37.575  12.252   0.445
31411W        W90672  19.240  37.027   2.395
31412W        W90673   4.818  11.257   1.404
31413W        W90674  42.334  33.109   3.663
31414W        W90675  15.741   2.803  14.468
31415W        W90676  37.407  33.380   0.768
31416W        W90677  37.381  35.530   4.234
31417W        W90678  20.268  36.509  13.396
31418W        W90679  39.457   6.373  11.507
31419W        W90680  27.554  24.494   3.747
31420W        W90681   6.218  35.601  14.493
31421W        W90682  14.773  18.286   2.334
31422W        W90683   9.385   9.168   0.324
31423W        W90684  44.934  15.157  13.909
31424W        W90685  37.416  29.670   5.151
31425W        W90686  27.619   3.713   5.154
31426W        W90687  38.065  25.706   2.327
31427W        W90688  36.015  10.203   3.176
31428W        W90689  14.308  41.417   2.737
31429W        W90690  25.646  12.624  13.039
31430W        W90691  27.561  19.767  12.090
31431W        W90692   3.401  28.076  13.034
31432W        W90693   6.259  31.444  10.495
31433W        W90694  35.093  31.034  10.413
31434W        W90695  26.023  40.528   4.144
31435W        W90696  24.542   9.232  11.426
31436W        W90697  42.447  43.778   1.230
31437W        W90698  13.755   4.700   0.883
31438W        W90699  44.928  17.231  13.813
31439W        W90700  24.104  44.264   0.354
31440W        W90701  16.585  43.434  10.917
31441W        W90702  29.483   7.769  12.009
31442W        W90703   1.322  10.870  11.901
31443W        W90704   9.750  16.587   1.436
31444W        W90705  26.016  27.006   0.411
31445W        W90706  40.807  27.167   3.330
31446W        W90707  12.829  31.065  11.082
31447W        W90708  31.590  28.019   2.263
31448W        W90709  44.962  35.928  12.948
31449W        W90710  27.066  25.541  11.403
31450W        W90711  11.350  22.579  13.350
31451W        W90712  17.239  35.041  12.091
31452W        W90713  29.629  22.615  10.612
31453W        W90714   2.413   8.390  10.633
31454W        W90715  16.799  20.105  13.544
31455W        W90716  41.329  37.054   2.248
31456W        W90717  11.246  31.013   0.817
31457W        W90718  43.414  27.082   0.932
31458W        W90719  10.353  15.581  13.837
31459W        W90720  16.707  18.729   3.236
31460W        W90721  40.373  14.723   1.902
31461W        W90722  11.702  26.955   3.250
31462W        W90723  10.248  41.970  11.597
31463W        W90724  11.763  20.240  13.334
31464W        W90725  30.466   1.370   0.259
31465W        W90726  10.815  12.239   0.387
31466W        W90727  19.050  16.663   4.189
31467W        W90728  17.240  44.947   0.927
31468W        W90729   5.328  25.584   1.760
31469W        W90730  25.070  38.912  11.487
31470W        W90731   5.290  15.640   4.342
31471W        W90732   9.192  38.376   0.758
31472W        W90733  17.286  28.537   5.613
31473W        W90734  20.071   4.258   3.256
31474W        W90735  42.845  26.159   0.827
31475W        W90736  41.324  11.143   1.331
31476W        W90737  35.982  40.318   3.294
31477W        W90738  18.248   0.272   1.422
31478W        W90739   9.259  28.108  10.941
31479W        W90740  29.530  37.518   1.840
31480W        W90741  42.987  11.811  10.536
31481W        W90742  10.751  11.839   1.273
31482W        W90743   2.454  16.683   1.769
31483W        W90744  14.799  44.494  11.393
31484W        W90745  33.081  44.797   0.425
31485W        W90746  13.702  14.255   2.801
31486W        W90747  15.701   2.914  12.969
31487W        W90748   3.438   4.749  11.544
31488W        W90749   7.885  32.990   4.784
31489W        W90750  20.273  12.829  12.889
31490W        W90751  22.558  30.015   1.851
31491W        W90752  18.281  12.179  12.361
31492W        W90753  32.561  22.174  10.408
31493W        W90754   9.809  31.975  14.381
31494W        W90755  14.336   7.369   4.237
31495W        W90756  43.835   7.323  14.906
31496W        W90757   3.318  38.536  13.486
31497W        W90758   4.795  42.912  10.126
31498W        W90759  36.034  39.377   2.300
31499W        W90760  35.556  15.173   0.883
31500W        W90761  19.612  10.732   2.288
31501W        W90762  24.680   5.787  13.501
31502W        W90763  27.136   0.760  11.445
31503W        W90764  11.313  30.029   1.368
31504W        W90765  36.414  24.523  11.586
31505W        W90766   9.803  41.508  12.533
31506W        W90767  23.561   0.875   4.663
31507W        W90768  22.021  21.134  14.816
31508W        W90769  36.043  21.688   1.698
31509W        W90770  30.983  16.756   3.353
31510W        W90771  41.394   6.387   2.415
31511W        W90772  11.188  13.106  14.449
31512W        W90773  43.360   9.313   1.848
31513W        W90774  23.530  44.005  12.008
31514W        W90775   4.917  30.987   3.305
31515W        W90776   6.307  33.997  12.042
31516W        W90777  17.710  25.981   4.117
31517W        W90778  20.228  11.860  11.868
31518W        W90779  30.053   9.861  11.008
31519W        W90780  21.638   3.364  14.429
31520W        W90781   2.353   2.872   4.256
31521W        W90782   2.756  21.026   0.347
31522W        W90783  37.972  20.130  13.979
31523W        W90784  36.086  18.682   1.246
31524W        W90785   0.361  30.132  10.492
31525W        W90786   0.464   6.197  13.843
31526W        W90787  16.780  44.916  13.956
31527W        W90788  11.710  29.135   0.881
31528W        W90789  10.761   6.883  11.018
31529W        W90790  44.359  18.636   4.760
31530W        W90791  26.481  24.539   3.258
31531W        W90792  31.098  34.373  12.362
31532W        W90793  13.607  11.271  11.508
31533W        W90794   6.311  11.218  12.361
31534W        W90795  40.809   3.321  13.446
31535W        W90796  32.124  20.171   2.664
31536W        W90797  15.783  12.613  13.484
31537W        W90798  34.119   1.760   2.744
31538W        W90799  37.543   0.477   2.189
31539W        W90800  39.398  15.283   3.346
31540W        W90801  44.901  15.791  14.352
31541W        W90802  44.493  40.358  14.815
31542W        W90803  28.031  42.468  10.984
31543W        W90804  31.131  24.515  12.555
31544W        W90805  24.005  36.590   1.290
31545W        W90806  12.835  22.723   0.459
31546W        W90807  26.660  35.433   4.345
31547W        W90808  24.018  26.164   3.307
31548W        W90809  43.999  25.985   1.420
31549W        W90810  18.581  44.974  12.925
31550W        W90811   9.346  30.047   1.722
31551W        W90812  33.008  22.022   2.365
31552W        W90813  17.199  30.968   2.757
31553W        W90814  40.314  38.898   1.867
31554W        W90815  31.089  42.329   2.240
31555W        W90816  33.050  21.608   2.739
31556W        W90817   7.895  26.989   0.383
31557W        W90818   4.817  40.382   1.777
31558W        W90819  38.821  27.167  11.103
31559W        W90820   4.889   3.712   1.222
31560W        W90821  39.325  28.017  12.476
31561W        W90822   3.834   7.750   5.309
31562W        W90823  33.497   7.746  12.947
31563W        W90824  41.890   6.256  14.846
31564W        W90825  22.536  39.453  14.973
31565W        W90826  39.055  25.692  14.840
31566W        W90827  25.677  37.502  14.981
31567W        W90828   0.468   9.152   0.740
31568W        W90829  37.562   9.288   0.336
31569W        W90830  39.030  13.798   0.930
31570W        W90831   6.422   2.303  13.358
31571W        W90832   2.863  41.475   1.389
31572W        W90833  15.641   5.308   3.242
31573W        W90834  16.594  19.101  12.424
31574W        W90835  22.534  28.183  13.036
31575W        W90836  25.594  19.174   1.410
31576W        W90837  32.969  28.563   2.248
31577W        W90838  20.640   1.852  13.836
31578W        W90839  43.998  41.833  13.013
31579W        W90840  26.205  20.555  14.784
31580W        W90841  38.366  32.891  14.487
31581W        W90842  10.289  38.009   4.647
31582W        W90843  44.820  30.930  11.973
31583W        W90844  42.363   1.900   0.469
31584W        W90845  30.086  39.858  14.280
31585W        W90846  21.160  36.506   0.453
31586W        W90847  26.700  15.755   2.704
31587W        W90848   9.731  30.996  12.443
31588W        W90849  36.471  38.512  10.619
31589W        W90850   7.181   8.161   2.862
31590W        W90851  21.736  41.372   4.301
31591W        W90852   5.223  38.440   1.712
31592W        W90853   4.291  28.063   1.906
31593W        W90854  41.804  44.470   2.837
31594W        W90855  33.389  44.273   0.775
31595W        W90856  32.107  36.019  10.026
31596W        W90857  37.385  34.000  13.943
31597W        W90858  41.890  20.728   0.432
31598W        W90859  42.844  29.110  11.521
31599W        W90860   4.790  29.110   0.452
31600W        W90861  15.777  23.117   3.276
31601W        W90862   1.442  43.874  14.353
31602W        W90863  13.194  30.037  14.428
31603W        W90864  12.651  31.947   2.702
31604W        W90865  42.482  31.482   0.805
31605W        W90866  32.547   9.835   1.253
31606W        W90867  13.251  20.258  14.382
31607W        W90868  44.753  31.022  10.970
31608W        W90869   2.782   4.253   1.781
31609W        W90870  17.555  14.306   3.750
31610W        W90871   1.793   7.874  11.127
31611W        W90872  42.822  34.588  12.454
31612W        W90873  15.317   5.296   2.863
31613W        W90874  42.385  36.488   3.314
31614W        W90875  32.049  30.600  13.009
31615W        W90876   1.946  16.705  13.348
31616W        W90877  42.476  14.225   1.847
31617W        W90878  22.535  34.044   2.288
31618W        W90879  32.101  42.004   1.818
31619W        W90880  15.669  33.941  13.379
31620W        W90881  19.634   4.213  10.532
31621W        W90882  17.127  30.964  12.440
31622W        W90883  24.496  36.574   0.876
31623W        W90884  33.899  10.364  13.334
31624W        W90885   8.336  40.402   0.831
31625W        W90886  23.678  41.961   1.908
31626W        W90887  30.570  12.244  12.919
31627W        W90888  31.102  23.177   0.930
31628W        W90889  32.397  44.819  11.525
31629W        W90890   6.230  38.355  12.565
31630W        W90891  33.043  40.872   0.741
31631W        W90892  22.225  13.265   0.845
31632W        W90893  24.100  34.110  12.066
31633W        W90894  27.607  16.771  11.558
31634W        W90895  28.519  37.353  13.054
31635W        W90896  37.913   7.208  13.019
31636W        W90897  24.659  13.129   4.340
31637W        W90898  16.689  18.056   0.310
31638W        W90899  33.916   2.844  12.059
31639W        W90900  27.645  41.360  13.926
31640W        W90901  18.071  31.487   4.352
31641W        W90902  14.640  19.055   3.225
31642W        W90903  26.649  40.830   0.337
31643W        W90904  44.402  35.001  10.058
31644W        W90905  34.427   6.749   2.381
31645W        W90906  30.045  31.040   1.292
31646W        W90907  28.934   8.333  14.986
31647W        W90908  10.234   1.258   0.818
31648W        W90909  24.157  43.801  14.883
31649W        W90910  32.497  33.618   4.820
31650W        W90911  30.142  41.022  14.030
31651W        W90912  41.872  23.627   1.220
31652W        W90913  40.049   8.205  13.899
31653W        W90914  39.018  33.612   1.892
31654W        W90915  31.930  26.987   1.775
31655W        W90916  32.035   5.403   4.746
31656W        W90917   6.751  43.835   0.854
31657W        W90918  15.688  34.497  10.488
31658W        W90919   7.225  27.113  14.370
31659W        W90920  28.064   0.468   0.323
31660W        W90921   1.737  25.469   2.391
31661W        W90922  22.705  42.330  12.363
31662W        W90923  39.317   2.812  10.957
31663W        W90924   3.452  33.057  13.029
31664W        W90925  25.000  11.159  14.902
31665W        W90926  11.218  43.352  14.353
31666W        W90927  24.711  35.547  14.949
31667W        W90928   8.213  29.986  11.563
31668W        W90929   1.474  36.855   1.265
31669W        W90930   1.962   3.433  11.586
31670W        W90931  29.122  24.590  12.532
31671W        W90932  19.235  43.395   1.790
31672W        W90933  11.195  18.066   4.169
31673W        W90934  29.428   2.886  14.960
31674W        W90935  11.329  13.609  12.900
31675W        W90936  14.210   5.251   2.250
31676W        W90937  33.622  30.979   0.901
31677W        W90938  16.657  41.397   4.230
31678W        W90939   9.185  35.856   3.263
31679W        W90940  42.456  19.730   0.940
31680W        W90941   5.278  39.452   4.154
31681W        W90942   7.902  14.699   1.385
31682W        W90943  25.576  34.889   1.822
31683W        W90944   5.359  11.222   0.390
31684W        W90945  34.003  10.753   3.837
31685W        W90946  32.005  23.018  14.849
31686W        W90947  12.794  12.627   2.772
31687W        W90948  16.274  30.532  13.016
31688W        W90949  15.699  41.869  13.478
31689W        W90950   4.273   0.894   3.710
31690W        W90951  38.965  43.458  12.988
31691W        W90952  14.802   0.395   1.864
31692W        W90953  22.069   4.268   0.373
31693W        W90954   6.395  31.115   4.133
31694W        W90955   5.407  40.358   1.902
31695W        W90956   1.299   6.366   4.217
31696W        W90957  40.023   8.856   1.816
31697W        W90958  18.272  31.914   1.902
31698W        W90959  10.797  29.494   3.201
31699W        W90960  25.703  20.582   2.209
31700W        W90961  17.179  38.017  13.326
31701W        W90962  37.462  34.066   1.217
31702W        W90963  44.904   7.382   2.348
31703W        W90964  31.135  43.429   2.840
31704W        W90965  31.462  42.981   0.869
31705W        W90966   0.381  44.387   4.715
31706W        W90967  34.398  10.852   4.164
31707W        W90968  18.219  11.177   3.173
31708W        W90969  19.613  41.326   3.220
31709W        W90970  10.180  35.400   0.950
31710W        W90971   7.909  19.693  13.353
31711W        W90972   8.836  29.452  13.981
31712W        W90973  29.061   1.316  12.437
31713W        W90974  21.212  40.961  13.900
31714W        W90975  33.520  43.293  14.909
31715W        W90976  23.735  37.955   3.351
31716W        W90977  24.664  19.778   5.256
31717W        W90978  18.292  38.356   3.286
31718W        W90979   5.401   2.299  12.498
31719W        W90980   0.325   9.686   1.384
31720W        W90981  13.301  33.473   4.836
31721W        W90982   1.755  26.966   1.422
31722W        W90983  42.420   4.293  11.984
31723W        W90984   5.381  34.508   2.312
31724W        W90985   8.329  33.022   4.771
31725W        W90986  26.180   3.889   2.337
31726W        W90987  11.186  24.570   1.867
31727W        W90988   9.714  22.074   3.690
31728W        W90989  16.120  17.200  11.952
31729W        W90990   9.253  36.413   4.219
31730W        W90991  41.858  23.590  13.344
31731W        W90992  19.157  40.368  10.579
31732W        W90993   4.752  14.328   1.852
31733W        W90994  20.760  22.138   2.871
31734W        W90995   5.914  34.906  12.463
31735W        W90996  24.593   0.477   4.189
31736W        W90997  18.203  31.643  13.475
31737W        W90998  18.293  34.500   1.294
31738W        W90999  20.250   4.359  14.825
31739W        W91000  32.594  28.577  11.386
31740W        W91001   8.789   3.317  14.366
31741W        W91002  18.066   2.863   0.915
31742W        W91003  26.020  26.467  10.019
31743W        W91004  36.460  27.639  13.835
31744W        W91005  24.493  11.242   3.847
31745W        W91006  10.304  12.278   2.276
31746W        W91007   5.303   5.370  13.470
31747W        W91008  27.681  44.967  13.334
31748W        W91009  23.599  22.514  11.498
31749W        W91010  32.533   2.346  10.889
31750W        W91011  19.285  16.802  11.900
31751W        W91012  29.630  40.490   2.240
31752W        W91013  41.856  28.945   1.897
31753W        W91014  18.088  23.232   0.382
31754W        W91015  32.935   4.790  12.838
31755W        W91016  38.415   4.323  14.843
31756W        W91017  15.256   1.939   4.184
31757W        W91018  21.585  40.488   4.655
31758W        W91019   5.902  26.697   1.239
31759W        W91020  41.913  26.150   0.280
31760W        W91021  30.112  39.534  11.985
31761W        W91022   1.299  39.467  10.622
31762W        W91023   1.433  20.058  12.827
31763W        W91024  11.185  27.182  10.997
31764W        W91025   6.681   6.305  13.799
31765W        W91026   6.872  15.144  13.546
31766W        W91027  32.054  12.304   2.372
31767W        W91028  14.098  44.350  10.021
31768W        W91029  10.295  32.481  11.494
31769W        W91030  41.392   5.346  10.948
31770W        W91031  21.531  14.337  11.384
31771W        W91032  31.969  17.096  11.126
31772W        W91033  26.539  32.483  12.060
31773W        W91034  34.418  38.048   1.743
31774W        W91035  38.005   2.371   3.665
31775W        W91036  30.517  10.705  14.841
31776W        W91037  37.954  24.722  14.788
31777W        W91038   1.323   0.308   2.218
31778W        W91039  17.763  14.725  10.610
31779W        W91040  18.612  33.109  10.643
31780W        W91041  41.003  37.910   2.672
31781W        W91042  36.940  17.753   1.867
31782W        W91043  44.359   2.357  12.427
31783W        W91044  18.664  28.163  14.770
31784W        W91045  31.090  18.638  10.978
31785W        W91046  37.016  12.706   4.192
31786W        W91047   5.249   0.940   0.832
31787W        W91048  33.080  34.112  13.376
31788W        W91049  20.061  21.228   0.880
31789W        W91050   5.333  13.732   4.324
31790W        W91051  11.627  10.876  11.986
31791W        W91052  44.903  32.058  11.029
31792W        W91053   3.739  25.212  13.342
31793W        W91054  22.591   9.852  12.532
31794W        W91055  41.023  14.649  14.361
31795W        W91056  15.698  37.839   0.849
31796W        W91057  25.019   2.848   0.400
31797W        W91058  16.190  34.907  11.118
31798W        W91059  38.331   2.738  12.073
31799W        W91060  28.033  34.501  13.546
31800W        W91061   8.718  43.790   2.730
31801W        W91062  41.530  30.101  12.962
31802W        W91063  24.144   3.898   1.835
31803W        W91064  37.507  24.056  13.897
31804W        W91065  39.388  42.519   4.139
31805W        W91066   5.828   4.913  11.066
31806W        W91067  30.508  38.977  12.372
31807W        W91068   2.849   4.412   1.449
31808W        W91069  25.483  34.092   4.247
31809W        W91070  22.630  12.270   3.342
31810W        W91071  31.065  11.361   4.184
31811W        W91072  14.796  19.766   0.405
31812W        W91073  16.143  25.160   9.958
31813W        W91074  43.365  21.139   4.350
31814W        W91075  24.076  30.526   0.833
31815W        W91076   1.895  13.344  12.839
31816W        W91077   9.229   0.350   4.190
31817W        W91078  26.116  32.058  10.461
31818W        W91079   3.384   5.739   3.777
31819W        W91080  43.327  32.531  14.867
31820W        W91081  29.427  10.170  13.392
31821W        W91082  31.570  26.544   3.314
31822W        W91083  39.419  20.192  10.087
31823W        W91084   8.406  18.599  14.890
31824W        W91085  25.963  42.356  13.309
31825W        W91086   6.733  24.707   2.830
31826W        W91087   3.315   7.337   4.237
31827W        W91088   2.875  17.773  12.409
31828W        W91089   4.731  22.528  11.051
31829W        W91090  11.157  30.540   3.669
31830W        W91091  31.063  42.882   3.764
31831W        W91092   4.314  44.486   3.758
31832W        W91093  41.997  28.461   2.774
31833W        W91094  36.561  38.992   9.982
31834W        W91095  34.920  31.023  14.787
31835W        W91096   5.230  29.592  14.360
31836W        W91097  38.431   4.847  12.473
31837W        W91098   9.182  18.163   1.344
31838W        W91099  19.255  13.789  12.052
31839W        W91100  14.310   8.850  11.522
31840W        W91101  16.737  10.719   4.266
31841W        W91102  36.407  11.270   2.195
31842W        W91103  38.040   4.788   2.334
31843W        W91104  20.763  41.508   0.398
31844W        W91105  40.353  25.997   0.802
31845W        W91106  37.388  24.483  14.969
31846W        W91107   1.949  33.591   3.300
31847W        W91108  22.637  17.762  14.399
31848W        W91109   9.694  35.048  13.971
31849W        W91110  44.842  28.999  11.043
31850W        W91111  25.118  27.480  12.041
31851W        W91112  43.376   0.765   9.951
31852W        W91113  24.070  22.502   2.288
31853W        W91114  36.466  10.356   2.735
31854W        W91115   0.258  34.615   3.650
31855W        W91116  24.084  23.985  10.567
31856W        W91117  33.564  18.597  11.119
31857W        W91118   6.426  40.354   3.239
31858W        W91119  29.988  29.431   3.265
31859W        W91120  18.237  36.420  10.951
31860W        W91121  21.241  29.937  13.368
31861W        W91122  36.866  34.568  13.062
31862W        W91123  40.511  42.985  12.344
31863W        W91124   5.868  19.593  10.928
31864W        W91125   6.763  31.538   1.423
31865W        W91126  12.816  25.599   2.845
31866W        W91127  33.994  14.654  14.379
31867W        W91128  11.838  34.114  10.630
31868W        W91129  33.999   7.674  11.444
31869W        W91130   0.396  17.073  12.931
31870W        W91131  16.231  14.098   2.355
31871W        W91132   5.256  12.802   4.715
31872W        W91133  22.715  29.980   4.228
31873W        W91134  10.833   1.264  13.940
31874W        W91135  33.597  32.927  11.372
31875W        W91136  40.399  21.617   2.823
31876W        W91137  31.110  39.389   3.225
31877W        W91138  19.651   0.914   4.827
31878W        W91139  26.603  28.503   0.310
31879W        W91140  23.629  20.122   2.736
31880W        W91141  10.674   9.773  10.531
31881W        W91142  35.439  30.655  12.548
31882W        W91143  34.111  16.735  11.933
31883W        W91144   3.415  22.021  12.383
31884W        W91145  29.633  18.634   2.781
31885W        W91146  18.102   9.804  13.874
31886W        W91147  40.496   6.755   2.405
31887W        W91148  28.953  39.549   3.752
31888W        W91149  21.141  23.565   0.788
31889W        W91150  22.019  32.590   4.812
31890W        W91151  24.056  35.547   3.251
31891W        W91152  36.387  32.135   3.347
31892W        W91153   6.862  31.524   4.709
31893W        W91154  27.643  40.947  14.405
31894W        W91155   7.750   7.799   2.773
31895W        W91156  25.067   9.232   0.440
31896W        W91157   5.695  37.539   3.642
31897W        W91158  39.493  31.608   3.811
31898W        W91159   1.883  32.121  13.967
31899W        W91160   6.244  31.467   9.959
31900W        W91161  33.966   1.851   1.267
31901W        W91162   2.912  30.084  12.431
31902W        W91163   8.175  42.317  11.110
31903W        W91164  35.410  40.846   3.707
31904W        W91165   7.890  20.749  10.567
31905W        W91166  19.266  30.442  14.906
31906W        W91167  41.818  24.974  14.442
31907W        W91168  28.181  14.652   1.729
31908W        W91169  33.437  24.553  14.776
31909W        W91170  35.462  37.536  10.951
31910W        W91171  37.384   0.795  12.347
31911W        W91172  15.117   7.205  11.423
31912W        W91173  27.960  35.066   2.371
31913W        W91174  44.829  34.389  11.474
31914W        W91175   6.716  41.042   2.862
31915W        W91176  22.026  29.107  12.574
31916W        W91177  38.064  15.778  12.547
31917W        W91178  33.603  38.386  13.364
31918W        W91179  31.559  42.468  12.484
31919W        W91180  26.616   7.750  12.988
31920W        W91181   7.260   9.728   1.428
31921W        W91182  12.792  23.551   0.318
31922W        W91183   0.936  13.110  13.039
31923W        W91184  44.763   9.323  11.089
31924W        W91185   9.209  33.494   4.175
31925W        W91186  28.984  40.830   3.729
31926W        W91187   7.682  32.126   2.751
31927W        W91188   1.369  26.120  13.868
31928W        W91189  25.990  33.602  11.565
31929W        W91190  20.653  17.072  10.487
31930W        W91191  32.050  11.848   0.875
31931W        W91192   8.897   7.702   4.148
31932W        W91193  22.228  41.806  10.482
31933W        W91194  40.832   3.320   0.932
31934W        W91195  20.245  36.487   0.379
31935W        W91196  18.754  42.957   3.698
31936W        W91197  30.980  23.691   0.857
31937W        W91198   8.193   2.885   1.294
31938W        W91199  44.503  35.070   5.253
31939W        W91200   0.484   7.243   3.267
31940W        W91201  37.411  21.550   3.797
31941W        W91202   7.345  36.364   0.761
31942W        W91203   5.420  17.152   3.707
31943W        W91204  35.855  20.717  13.912
31944W        W91205   7.770  36.451   0.390
31945W        W91206  21.694   2.283   2.753
31946W        W91207  23.581  35.040  13.008
31947W        W91208   7.815  20.542  11.601
31948W        W91209   2.917  42.522   4.657
31949W        W91210  41.038  12.762   1.870
31950W        W91211  24.616  36.410   4.252
31951W        W91212   2.897   1.444   0.916
31952W        W91213  39.470   1.348  14.824
31953W        W91214  38.372   5.881   2.734
31954W        W91215   3.373  27.526   4.810
31955W        W91216   6.824  38.002   2.804
31956W        W91217   2.312  19.683  14.000
31957W        W91218  11.792  30.469   5.193
31958W        W91219  15.756   2.448   2.363
31959W        W91220  20.245   7.367  14.982
31960W        W91221  17.625  38.821  12.416
31961W        W91222  28.455  22.128   3.339
31962W        W91223  36.015  17.098   1.708
31963W        W91224  13.743  27.086  10.427
31964W        W91225  20.261  22.150   2.671
31965W        W91226  13.788  28.449  11.530
31966W        W91227   6.732  41.844   1.366
31967W        W91228  14.145   1.891   0.323
31968W        W91229  39.341  17.061   5.786
31969W        W91230   5.395  19.690  10.924
31970W        W91231   4.238   7.826   3.218
31971W        W91232   2.895  30.935   1.853
31972W        W91233  30.965  33.519  13.987
31973W        W91234   4.263  27.496  10.579
31974W        W91235  34.078  20.665   4.262
31975W        W91236  17.648  14.172  12.985
31976W        W91237  35.531  21.239   2.198
31977W        W91238  30.558   2.407   0.336
31978W        W91239   5.894  34.418  11.470
31979W        W91240  41.823  40.416   9.937
31980W        W91241  42.328  39.430  11.440
31981W        W91242  20.615   5.850  12.438
31982W        W91243   3.935  41.450  12.902
31983W        W91244  16.176  22.621   0.476
31984W        W91245   3.718   5.382  11.990
31985W        W91246  13.753  28.641  14.370
31986W        W91247  32.128  12.198  13.990
31987W        W91248  44.867  32.127   3.743
31988W        W91249  10.666   5.327  10.964
31989W        W91250  22.684  42.487  11.457
31990W        W91251  39.369  40.953   2.419
31991W        W91252  20.565  10.219   0.950
31992W        W91253  18.262  29.950  11.588
31993W        W91254  28.187   8.823  13.530
31994W        W91255  25.593  41.000   1.732
31995W        W91256   8.245  31.925  14.864
31996W        W91257  40.959  35.049   2.885
31997W        W91258  30.532  20.113  10.972
31998W        W91259  22.220   7.827  14.900
31999W        W91260  41.979  30.064   0.785
32000W        W91261  12.158  37.559   5.129
32001W        W91262   6.862  13.199  12.537
32002W        W91263  40.344   6.876   3.734
32003W        W91264  34.498  23.138  11.004
32004W        W91265  14.669  43.358  12.036
32005W        W91266  37.340   6.779   1.711
32006W        W91267  26.675  27.159  11.104
32007W        W91268  11.325  43.940  10.601
32008W        W91269  28.153  44.753   2.704
32009W        W91270  16.136   2.897   3.214
32010W        W91271  27.995   8.350  11.595
32011W        W91272  36.995   4.430  11.962
32012W        W91273  38.541  40.394   3.840
32013W        W91274  18.748  26.044  11.543
32014W        W91275  10.138  28.141   4.280
32015W        W91276  15.097   2.856   5.261
32016W        W91277  38.958  16.256   4.679
32017W        W91278  26.100  25.169   2.900
32018W        W91279  42.365  17.654   9.940
32019W        W91280  41.901  16.590  14.977
32020W        W91281  18.273   6.298  14.416
32021W        W91282  25.566  19.210   0.813
32022W        W91283  32.041  27.528  13.513
32023W        W91284  31.903   0.889  11.028
32024W        W91285  28.475  32.900  12.472
32025W        W91286  26.964  28.999  11.043
32026W        W91287  42.466  14.314   4.182
32027W        W91288  43.341   6.813   1.789
32028W        W91289  17.282  19.569  11.902
32029W        W91290   1.930   0.777  10.603
32030W        W91291  40.926  36.406  11.953
32031W        W91292  16.611  14.635  13.996
32032W        W91293   1.896  41.384   4.607
32033W        W91294   4.261  25.050  10.956
32034W        W91295   0.286   9.157  10.596
32035W        W91296  30.033   6.790   1.783
32036W        W91297   4.385  40.945  13.001
32037W        W91298  32.972  28.025  13.454
32038W        W91299  33.612  19.197  11.578
32039W        W91300  20.537  21.516   0.469
32040W        W91301  10.339  27.598   3.326
32041W        W91302   7.851  41.517  11.556
32042W        W91303  37.888  19.273   0.778
32043W        W91304   4.376  11.664   1.921
32044W        W91305  35.480   4.801   2.784
32045W        W91306  31.087   1.820  13.474
32046W        W91307  11.737  23.716  10.992
32047W        W91308  20.254  15.186   2.224
32048W        W91309  25.592  42.377  14.442
32049W        W91310   0.364  18.670   5.084
32050W        W91311  40.458   1.270  12.046
32051W        W91312  12.168  42.511   1.802
32052W        W91313  12.829  27.983   0.746
32053W        W91314  13.234  23.525  13.443
32054W        W91315   7.878  35.106   0.245
32055W        W91316  35.598  17.161   1.266
32056W        W91317  28.471  42.909  13.025
32057W        W91318  43.369  21.164   1.297
32058W        W91319  21.658  25.088   1.327
32059W        W91320  20.579  37.356   0.813
32060W        W91321  21.695  27.671   0.962
32061W        W91322  34.010  24.163   2.303
32062W        W91323  33.102   8.257  11.892
32063W        W91324  11.664   3.396   2.400
32064W        W91325  27.984  13.623  11.517
32065W        W91326  18.580  36.865  12.569
32066W        W91327  35.419  12.222   9.541
32067W        W91328  40.536  20.568   2.288
32068W        W91329  22.055  38.052   2.201
32069W        W91330  14.611  15.753  11.048
32070W        W91331  33.485   0.897  11.598
32071W        W91332   4.812  41.801   0.760
32072W        W91333   4.934  29.055   3.203
32073W        W91334  35.058   8.857   0.848
32074W        W91335  16.203  43.302  12.879
32075W        W91336  41.448   4.313   4.742
32076W        W91337  30.049  13.146   3.759
32077W        W91338  28.552  23.047  10.900
32078W        W91339   4.440   8.378   9.937
32079W        W91340   1.858  22.695  11.493
32080W        W91341  20.183  22.206  10.898
32081W        W91342  40.998   0.283  14.385
32082W        W91343  40.042  17.768   1.328
32083W        W91344  34.475   1.448  13.470
32084W        W91345  21.714  30.461   3.670
32085W        W91346  18.230   8.816   1.223
32086W        W91347  35.968  18.226   2.789
32087W        W91348   8.840  39.005  14.922
32088W        W91349  25.699   3.796  11.508
32089W        W91350  38.991  40.504  14.314
32090W        W91351  41.298   1.366  14.899
32091W        W91352  41.939   7.802   1.347
32092W        W91353  40.524  31.442   2.758
32093W        W91354  14.749  39.889  10.535
32094W        W91355  44.793  43.332   2.740
32095W        W91356  25.112  36.005  13.930
32096W        W91357   2.297  44.413   1.795
32097W        W91358   2.298  22.029  13.343
32098W        W91359  44.901  34.078  13.430
32099W        W91360  32.120  14.687   3.764
32100W        W91361   1.408  28.101  12.858
32101W        W91362  27.155  41.792   1.213
32102W        W91363  22.071  25.048  10.573
32103W        W91364  17.254  40.988   2.884
32104W        W91365  38.386  38.958   1.840
32105W        W91366   1.300   9.291  14.965
32106W        W91367  18.688   3.727   1.423
32107W        W91368  36.499  13.649   4.606
32108W        W91369   3.440  28.068  14.787
32109W        W91370  39.527  27.557  13.991
32110W        W91371   8.293  29.075  10.475
32111W        W91372   1.743  24.057   4.203
32112W        W91373  16.609  44.944   1.847
32113W        W91374  34.433  27.536  13.052
32114W        W91375  13.668  40.509  13.903
32115W        W91376  26.689  28.096  14.366
32116W        W91377  17.675  18.138   0.906
32117W        W91378   3.915  15.696  12.424
32118W        W91379   3.418  33.025  14.366
32119W        W91380  27.553   3.277   5.774
32120W        W91381   4.437  27.500  12.995
32121W        W91382  20.524  42.827  10.496
32122W        W91383   5.866  22.612  11.394
32123W        W91384  27.493   9.682  10.544
32124W        W91385  37.498   6.371   1.261
32125W        W91386  42.411  24.149   2.849
32126W        W91387   9.389  28.142  14.997
32127W        W91388  11.740  26.474  11.441
32128W        W91389   9.797   6.909   1.921
32129W        W91390  43.432  23.659   1.701
32130W        W91391  12.285  26.017  10.517
32131W        W91392  28.544  38.369   1.253
32132W        W91393  37.507  28.596   3.668
32133W        W91394  38.040  33.040   4.164
32134W        W91395  16.733  39.460  12.953
32135W        W91396  35.002  34.935   3.693
32136W        W91397  33.119   1.938   3.161
32137W        W91398  38.551  25.038   2.794
32138W        W91399   8.327  16.251   0.929
32139W        W91400  16.668  15.210  12.555
32140W        W91401  37.002  20.135   3.781
32141W        W91402  17.288  33.594  12.544
32142W        W91403  34.069  42.911  11.480
32143W        W91404   9.653  42.784   2.230
32144W        W91405   2.869   1.308  12.479
32145W        W91406  35.562  33.078   2.829
32146W        W91407  31.556  39.002   2.686
32147W        W91408  14.656  26.544   3.373
32148W        W91409  11.237  15.657  12.455
32149W        W91410  13.311   6.403   9.936
32150W        W91411  38.538  18.120   3.747
32151W        W91412  13.213   9.777   0.764
32152W        W91413  35.054  15.269  10.419
32153W        W91414  32.513  30.572  12.446
32154W        W91415  39.954   4.256  10.962
32155W        W91416  40.484  38.388  12.573
32156W        W91417  23.056   2.732  14.819
32157W        W91418  11.241  36.350   1.451
32158W        W91419  21.249  22.017   3.864
32159W        W91420   9.726  21.139   1.251
32160W        W91421  11.672  23.163  14.478
32161W        W91422  30.060  28.932   2.832
32162W        W91423  18.708  41.334   0.947
32163W        W91424  41.848  15.609   3.251
32164W        W91425  11.222  39.059   3.217
32165W        W91426  31.900  27.031   0.923
32166W        W91427  22.253  26.476   4.829
32167W        W91428  32.633  17.112   0.263
32168W        W91429   1.763  15.120   4.219
32169W        W91430  14.254  35.884  12.572
32170W        W91431  19.632  33.072   4.202
32171W        W91432  11.309  28.525  10.620
32172W        W91433   1.778  15.217  13.413
32173W        W91434  26.538  36.020   1.260
32174W        W91435  24.695  12.126   1.389
32175W        W91436  41.009  32.932  10.563
32176W        W91437  31.488  43.463   3.147
32177W        W91438  33.541   3.885   1.407
32178W        W91439  23.067   7.736  11.940
32179W        W91440  35.055  23.654   0.472
32180W        W91441  23.564  44.486  12.925
32181W        W91442  12.848  12.183   2.391
32182W        W91443  24.514  16.778   3.723
32183W        W91444  29.923   4.310   3.832
32184W        W91445  44.499   4.271  11.408
32185W        W91446  19.538  18.562  12.828
32186W        W91447  21.697  15.252   2.792
32187W        W91448  16.290  31.539  14.280
32188W        W91449  24.649  28.049  10.408
32189W        W91450  15.700   4.222  11.414
32190W        W91451   8.731  33.095   2.234
32191W        W91452  10.818  10.799  14.348
32192W        W91453  16.260  18.713  13.414
32193W        W91454  34.557  37.450   3.718
32194W        W91455   0.405   4.222  10.421
32195W        W91456   1.818  33.071   4.795
32196W        W91457   4.364   9.213   1.390
32197W        W91458  37.514  16.169  14.407
32198W        W91459  36.397  35.001  10.932
32199W        W91460  17.135  15.620   0.927
32200W        W91461  30.111  29.964  14.871
32201W        W91462  16.575  41.960   1.449
32202W        W91463  37.454  34.894  11.047
32203W        W91464  39.447  33.117   4.194
32204W        W91465  18.181  22.141  14.402
32205W        W91466   2.723  26.962  12.417
32206W        W91467  42.793  22.636  13.827
32207W        W91468  20.577  21.186   5.301
32208W        W91469  32.995  14.095  13.331
32209W        W91470  27.667  17.658   4.327
32210W        W91471  37.525   0.941  13.950
32211W        W91472  16.300  36.371   1.831
32212W        W91473  34.390   2.356  11.578
32213W        W91474   1.482   6.815  11.109
32214W        W91475  21.750   5.322  13.792
32215W        W91476  42.884  23.004   1.252
32216W        W91477  11.862  27.505  11.078
32217W        W91478  27.998  31.545   2.206
32218W        W91479   0.382  19.550  13.927
32219W        W91480  23.607  13.779  11.388
32220W        W91481  29.144  20.187   2.404
32221W        W91482  41.042  18.773   3.868
32222W        W91483  24.620  22.132  14.840
32223W        W91484  44.500  21.220  10.406
32224W        W91485  23.024  38.425   2.337
32225W        W91486  10.179  35.385   3.196
32226W        W91487  12.265  24.988   0.737
32227W        W91488  32.100   1.954   0.473
32228W        W91489  37.890   1.456   3.215
32229W        W91490  33.877  33.985   3.867
32230W        W91491  13.824  38.391  14.379
32231W        W91492   3.739  35.024  14.515
32232W        W91493  23.685  39.986   3.276
32233W        W91494  12.119  32.435  13.951
32234W        W91495   2.307   3.403   1.341
32235W        W91496   1.830  43.394  11.438
32236W        W91497  29.529  21.215   1.696
32237W        W91498  10.845  30.647  13.892
32238W        W91499   0.364  29.643  14.027
32239W        W91500  44.755  38.859   4.675
32240W        W91501  33.520  11.239   2.340
32241W        W91502   3.315  25.494  10.983
32242W        W91503  20.183   6.790   0.274
32243W        W91504   4.298  20.227   4.179
32244W        W91505   2.259  26.989  11.121
32245W        W91506  15.108  30.040   0.803
32246W        W91507  18.576  17.093   1.278
32247W        W91508  44.966  21.152  14.864
32248W        W91509  22.011  39.314   2.701
32249W        W91510  43.305  13.259  14.368
32250W        W91511  25.153  20.270  14.297
32251W        W91512   6.844  44.755   3.258
32252W        W91513  24.143   2.750  12.527
32253W        W91514   1.807  39.552   2.269
32254W        W91515  37.958  22.623  13.867
32255W        W91516   1.899  34.550  11.022
32256W        W91517  13.619  39.834  11.025
32257W        W91518  40.532  37.046   2.827
32258W        W91519  33.463  11.851  11.030
32259W        W91520  16.183  16.716  14.396
32260W        W91521   5.820  18.241  13.951
32261W        W91522  26.512  43.397  14.972
32262W        W91523  16.663  36.418   4.718
32263W        W91524  28.073   1.280   1.389
32264W        W91525  44.004  23.668   9.628
32265W        W91526  19.729  20.201   1.823
32266W        W91527   0.473   3.276   1.838
32267W        W91528  37.883  34.408  14.962
32268W        W91529  12.152   4.907   4.216
32269W        W91530  20.690  19.588  13.402
32270W        W91531  32.603  38.999   9.994
32271W        W91532  31.135  42.819   0.734
32272W        W91533  10.724  16.142   1.219
32273W        W91534  39.045   9.305  12.452
32274W        W91535  27.591  20.101  10.889
32275W        W91536  25.013  43.315   4.199
32276W        W91537  35.064  11.235   0.785
32277W        W91538   8.845  42.831  10.498
32278W        W91539   3.376  41.470   3.666
32279W        W91540   1.403  40.019   3.363
32280W        W91541  26.958  15.155  12.515
32281W        W91542  30.457  43.969   1.891
32282W        W91543   4.827   3.426  12.442
32283W        W91544  40.054  17.592  14.955
32284W        W91545  28.435  38.941  10.983
32285W        W91546   7.294  41.886   1.723
32286W        W91547  13.226  36.863   3.675
32287W        W91548  24.657  22.128   2.232
32288W        W91549  12.141  22.639  12.960
32289W        W91550   3.729  28.004   3.810
32290W        W91551  33.075  21.227   1.320
32291W        W91552  29.943  39.415  12.378
32292W        W91553   5.841  29.478  13.885
32293W        W91554   9.830  33.920   3.631
32294W        W91555  22.008  28.101  11.989
32295W        W91556  21.113  25.565   1.316
32296W        W91557  25.594  12.798   0.942
32297W        W91558  22.660  18.165   4.822
32298W        W91559  25.568  20.230  10.467
32299W        W91560  28.058   5.815   2.879
32300W        W91561  40.541  14.280   2.859
32301W        W91562  39.935  11.266  12.079
32302W        W91563  30.931   8.302  13.985
32303W        W91564  33.521  16.213   3.266
32304W        W91565  36.020   3.215  10.482
32305W        W91566  44.935  16.270  11.001
32306W        W91567  40.964  38.866   2.366
32307W        W91568  12.614  13.636   1.290
32308W        W91569  29.554  30.087   4.178
32309W        W91570  36.049  38.353   4.739
32310W        W91571   2.950  14.240   4.764
32311W        W91572  14.253  26.176  12.018
32312W        W91573  28.458  21.598  13.854
32313W        W91574  25.551   1.480   0.322
32314W        W91575  32.531  16.268  12.878
32315W        W91576   8.851  23.189   3.368
32316W        W91577   1.805  38.956   4.726
32317W        W91578  16.753   1.315  11.124
32318W        W91579  20.077  21.524   0.960
32319W        W91580  11.280  43.792   2.694
32320W        W91581   3.365  28.574  10.575
32321W        W91582  36.569  23.172  14.758
32322W        W91583  29.632  30.995   4.751
32323W        W91584   2.398  38.828  13.807
32324W        W91585  38.959  26.093   1.835
32325W        W91586   5.397  39.826  10.974
32326W        W91587  18.058  37.934  13.414
32327W        W91588  31.094   7.670  12.424
32328W        W91589  35.104   2.832  10.420
32329W        W91590  41.371   4.210   0.783
32330W        W91591  17.721  34.964   4.641
32331W        W91592  25.108  26.036  12.004
32332W        W91593   0.460  35.883  13.404
32333W        W91594  16.672  16.778   3.673
32334W        W91595  34.575   8.190   4.230
32335W        W91596  30.045   0.987  10.508
32336W        W91597  21.131  26.580  14.839
32337W        W91598  43.417  17.128   1.865
32338W        W91599  32.906  35.495  12.507
32339W        W91600   1.347  39.435  10.929
32340W        W91601  11.846   0.351  13.387
32341W        W91602  34.903  29.101   2.858
32342W        W91603   5.224  12.814  12.419
32343W        W91604  33.431  44.459   4.779
32344W        W91605  44.802  37.562  13.434
32345W        W91606   0.875  26.608  14.789
32346W        W91607  35.059   0.935   2.842
32347W        W91608  37.368  38.516   0.371
32348W        W91609   4.247  23.633  11.062
32349W        W91610  41.426  13.736   4.728
32350W        W91611  39.930  41.503   3.241
32351W        W91612  20.592  16.277   1.225
32352W        W91613  20.085  22.074   4.657
32353W        W91614  38.834  17.224   4.310
32354W        W91615   5.353  42.479  13.323
32355W        W91616   6.863   0.444  10.467
32356W        W91617  28.633  11.812  13.430
32357W        W91618  31.563  15.254   3.234
32358W        W91619   5.336  19.754  14.801
32359W        W91620  14.831   3.243   4.339
32360W        W91621  32.563  16.669  13.946
32361W        W91622  24.714  38.366  13.519
32362W        W91623  31.073  12.700  13.798
32363W        W91624  41.841  30.146   3.359
32364W        W91625  23.004  42.366  14.362
32365W        W91626  24.047  42.387  14.315
32366W        W91627   8.344  12.649   2.804
32367W        W91628  10.328  30.037  12.386
32368W        W91629  31.912  43.910  11.932
32369W        W91630  22.558  39.818   1.932
32370W        W91631  43.476   3.238  13.022
32371W        W91632  40.963  14.828   1.756
32372W        W91633  40.826  24.210  10.468
32373W        W91634  22.699   5.341  14.891
32374W        W91635   8.798  35.874   1.413
32375W        W91636  17.115   6.894  14.421
32376W        W91637  35.359  39.559   4.756
32377W        W91638  19.235   1.279  12.973
32378W        W91639   4.237   9.650   1.789
32379W        W91640  33.988  25.015  11.021
32380W        W91641  11.749   0.338   2.198
32381W        W91642   7.247  31.950   5.174
32382W        W91643  44.820   8.658   5.135
32383W        W91644  27.570  40.958  11.522
32384W        W91645  44.464  19.259  13.845
32385W        W91646  23.654  35.977  11.610
32386W        W91647  33.929  44.932  11.560
32387W        W91648  27.460  34.391   0.402
32388W        W91649  41.325   1.436   1.695
32389W        W91650  32.522  44.492   3.248
32390W        W91651  23.606   0.823  10.941
32391W        W91652  44.892   8.303   0.294
32392W        W91653  38.403   9.249   0.303
32393W        W91654  13.814   7.723  11.408
32394W        W91655  19.674  23.687   4.660
32395W        W91656  40.880   0.308   0.319
32396W        W91657   1.780  40.543   1.439
32397W        W91658  36.870   3.911   2.804
32398W        W91659  32.511   3.429  14.885
32399W        W91660  27.679  26.096   2.778
32400W        W91661  11.818  12.213   1.303
32401W        W91662   4.350  42.022   3.722
32402W        W91663  12.255  20.730   0.740
32403W        W91664   7.744  35.015   1.808
32404W        W91665   0.436  25.664  14.418
32405W        W91666  10.218   1.925  11.995
32406W        W91667  39.323  12.751  12.979
32407W        W91668   8.759   4.765  13.796
32408W        W91669   8.876   1.829  13.884
32409W        W91670   1.913   4.314  12.883
32410W        W91671  21.177   5.823   4.280
32411W        W91672  28.485   8.393   2.867
32412W        W91673   6.205  37.074  11.530
32413W        W91674  21.579  27.686  13.800
32414W        W91675  20.589  33.989   1.921
32415W        W91676  36.398  19.171   2.883
32416W        W91677  10.214   4.865  11.401
32417W        W91678  16.801  19.621  13.048
32418W        W91679  41.442  26.646   2.343
32419W        W91680  43.997  22.560  14.835
32420W        W91681   8.766  17.642   1.441
32421W        W91682  32.083  10.729   0.760
32422W        W91683  25.714   6.728  14.965
32423W        W91684  37.064  27.092  11.463
32424W        W91685  41.951  13.711  11.861
32425W        W91686  14.634   2.420  12.554
32426W        W91687  14.113   3.741   1.889
32427W        W91688  44.389  34.560   1.893
32428W        W91689  43.833   5.917   1.701
32429W        W91690   2.795  26.687   4.741
32430W        W91691  19.270  11.768   1.865
32431W        W91692   0.772  38.526  11.980
32432W        W91693   5.819  10.664   0.777
32433W        W91694   5.931  42.307  12.393
32434W        W91695  29.530  37.349  11.529
32435W        W91696  14.173   6.408   3.633
32436W        W91697  44.498   4.701  11.099
32437W        W91698  30.528   3.457  11.377
32438W        W91699  31.510  18.788  12.569
32439W        W91700  27.071  20.181   3.682
32440W        W91701  19.696  32.427   2.369
32441W        W91702  19.770  21.077  10.526
32442W        W91703  26.053   8.708  13.367
32443W        W91704  24.686   8.899   1.858
32444W        W91705   1.797  17.138  13.845
32445W        W91706  14.256  37.058  13.531
32446W        W91707  29.526  43.814  10.931
32447W        W91708   0.799  31.554   3.275
32448W        W91709  21.650  35.057  12.517
32449W        W91710  28.610   4.381  14.398
32450W        W91711   5.703  24.643   2.348
32451W        W91712  39.335  41.458   1.766
32452W        W91713  39.380  21.653   3.726
32453W        W91714  30.971  25.094   4.122
32454W        W91715  12.755  44.944  14.502
32455W        W91716  37.399   8.374  13.455
32456W        W91717  36.538  18.748   0.441
32457W        W91718  37.535  43.854   0.418
32458W        W91719  18.166  29.470  11.490
32459W        W91720  22.240  30.081  10.063
32460W        W91721  31.443   7.708  14.814
32461W        W91722  22.716  33.028  12.851
32462W        W91723  25.146  29.004   2.756
32463W        W91724   9.191  31.521  10.623
32464W        W91725  27.028  20.102   1.390
32465W        W91726   9.703   4.303   0.301
32466W        W91727  36.962  26.004  11.005
32467W        W91728  24.688  32.442  14.985
32468W        W91729  43.020   3.895  11.555
32469W        W91730  10.850  40.862   3.851
32470W        W91731   6.789  33.077  14.781
32471W        W91732  25.680   5.734  13.523
32472W        W91733   4.780   0.986   1.731
32473W        W91734   3.365  44.763  11.556
32474W        W91735  33.885  10.231  12.440
32475W        W91736   6.413  23.020   4.633
32476W        W91737  24.212  27.074  11.957
32477W        W91738  25.009  13.210  14.007
32478W        W91739  36.998  22.194   4.615
32479W        W91740  13.183  39.002   2.181
32480W        W91741  37.469   9.822  10.552
32481W        W91742  10.685  21.018   0.455
32482W        W91743   2.308  18.180   3.658
32483W        W91744  39.434   5.296   4.321
32484W        W91745  32.430  38.382   4.115
32485W        W91746  42.848  33.042   1.318
32486W        W91747  21.134  38.458  10.479
32487W        W91748  36.845  21.585   0.368
32488W        W91749  21.534  14.699   2.180
32489W        W91750  36.404   1.316   2.889
32490W        W91751  27.057  22.997  13.019
32491W        W91752  33.456  20.178   2.695
32492W        W91753  27.604  24.632   0.920
32493W        W91754   9.253   2.837   4.145
32494W        W91755  21.164   0.965   3.303
32495W        W91756  37.070  17.558  11.887
32496W        W91757  27.969  20.157  11.998
32497W        W91758  29.134   7.806  11.900
32498W        W91759  41.810   7.267  11.584
32499W        W91760  34.369  28.964   0.934
32500W        W91761   0.914  42.778  10.590
32501W        W91762  42.477  36.025  14.928
32502W        W91763  33.391   4.842   0.806
32503W        W91764   0.822  30.152   3.209
32504W        W91765  23.572  32.434  11.539
32505W        W91766  25.008  33.546   3.300
32506W        W91767  31.468  21.676  11.989
32507W        W91768  10.822   7.699   3.353
32508W        W91769  17.608  12.259   2.199
32509W        W91770  17.184  42.985   0.762
32510W        W91771  20.215  21.040   4.651
32511W        W91772   7.220  23.092  14.770
32512W        W91773  34.026  10.187  11.595
32513W        W91774  36.554  10.204   4.284
32514W        W91775  17.300   6.387   2.677
32515W        W91776  44.957  21.679  10.931
32516W        W91777   7.906  20.192   1.243
32517W        W91778  33.934   4.809   3.660
32518W        W91779  28.440  21.601   2.684
32519W        W91780  34.504  29.101  10.919
32520W        W91781  33.112  31.079  14.935
32521W        W91782   5.764  42.833   1.437
32522W        W91783  41.413  32.038  12.995
32523W        W91784  25.514  19.184   4.244
32524W        W91785  37.416  18.598  14.914
32525W        W91786  16.704  44.376   4.598
32526W        W91787  29.141  24.188   4.644
32527W        W91788  34.066  32.994   3.746
32528W        W91789  11.780  33.391  12.483
32529W        W91790  13.191  14.752   2.229
32530W        W91791  23.731  41.007  11.954
32531W        W91792  17.250   3.927  14.893
32532W        W91793   5.306   9.726   2.747
32533W        W91794  20.142  18.225  11.551
32534W        W91795  11.372  26.121   2.335
32535W        W91796   0.476  41.968  13.493
32536W        W91797  19.579  30.959   2.726
32537W        W91798   4.438  43.923  11.514
32538W        W91799   2.873  27.483  10.622
32539W        W91800  30.585  39.928  12.516
32540W        W91801   8.320   2.800   3.677
32541W        W91802  23.223   8.221   1.769
32542W        W91803  22.565   6.900  11.031
32543W        W91804  23.695  30.420   4.318
32544W        W91805  17.602  34.978  14.905
32545W        W91806   1.825  32.136  11.008
32546W        W91807  41.827  41.295   3.798
32547W        W91808  26.012  39.974   1.874
32548W        W91809  23.125  12.771   3.207
32549W        W91810  42.972  18.272  14.474
32550W        W91811  21.689   6.833  12.072
32551W        W91812  10.774   1.912   4.227
32552W        W91813  29.478  31.474  13.476
32553W        W91814  26.599   4.256  13.431
32554W        W91815  25.574   9.751  13.822
32555W        W91816   7.241  40.897   4.786
32556W        W91817   1.409  36.414  14.364
32557W        W91818  32.005  39.978   3.214
32558W        W91819  37.954  42.508   4.710
32559W        W91820  37.839  12.186  14.405
32560W        W91821  34.422  27.030   0.314
32561W        W91822  28.628  30.077  12.534
32562W        W91823  33.579  14.221  13.537
32563W        W91824  26.078   7.829   0.410
32564W        W91825  17.784  16.721   2.774
32565W        W91826   6.312  42.938  14.305
32566W        W91827  22.132   2.354   1.228
32567W        W91828  23.654  23.994  11.471
32568W        W91829  41.416  31.460  10.467
32569W        W91830  20.119  15.103   3.306
32570W        W91831  18.208  34.493  14.027
32571W        W91832  42.794   8.723   4.225
32572W        W91833  32.505   0.281   3.282
32573W        W91834   0.838  29.590  12.858
32574W        W91835   9.294  22.692  11.097
32575W        W91836  42.328  19.062   5.250
32576W        W91837  17.670   8.329  14.447
32577W        W91838  10.821   3.274  12.890
32578W        W91839  44.861  40.514  11.493
32579W        W91840  19.703  21.556  14.488
32580W        W91841  38.013  42.874   2.313
32581W        W91842  20.638   8.671  12.851
32582W        W91843  28.553  26.977  10.450
32583W        W91844  33.462  31.024  14.290
32584W        W91845  43.012   1.443  10.607
32585W        W91846   4.253  42.783   2.383
32586W        W91847  35.977   1.420   1.766
32587W        W91848  24.062  22.564   1.849
32588W        W91849  32.574  37.039  10.565
32589W        W91850  12.739  26.663   0.389
32590W        W91851  10.308  26.593   1.756
32591W        W91852  34.950  22.595  13.005
32592W        W91853  23.235  32.496  11.385
32593W        W91854  13.351   3.353  13.413
32594W        W91855   1.344  15.748   3.777
32595W        W91856  29.129  31.627  14.875
32596W        W91857  42.498  11.185  11.414
32597W        W91858  40.424  33.913  12.937
32598W        W91859   1.320  37.850  10.474
32599W        W91860   2.436  37.992  14.816
32600W        W91861  37.350  43.303  14.367
32601W        W91862  23.544  31.925   3.694
32602W        W91863  22.029  24.487   1.803
32603W        W91864  26.194  22.083   4.709
32604W        W91865  15.323  29.090   2.388
32605W        W91866   9.343  44.344  11.874
32606W        W91867   5.320  29.670   1.228
32607W        W91868   7.799  19.196   4.137
32608W        W91869   0.806  11.136   4.124
32609W        W91870   4.272  35.018   1.309
32610W        W91871  26.590  40.317  11.860
32611W        W91872  29.951  25.108  12.919
32612W        W91873  11.677  26.469  10.531
32613W        W91874  36.375  39.859   2.234
32614W        W91875   4.263  37.891  11.456
32615W        W91876  34.967  43.279  12.374
32616W        W91877  22.532  30.636   2.737
32617W        W91878   7.255  35.039  14.505
32618W        W91879  44.357  27.473  12.513
32619W        W91880   1.949   2.289   3.233
32620W        W91881   7.267  10.291  14.885
32621W        W91882  40.823  21.137   3.293
32622W        W91883  19.039  38.924  13.425
32623W        W91884  15.753  25.047   2.781
32624W        W91885  19.750  26.986  13.499
32625W        W91886  39.545  43.959  12.917
32626W        W91887  10.838  19.072  14.775
32627W        W91888  43.294  10.679   1.396
32628W        W91889  25.027  18.782   2.674
32629W        W91890   4.702  40.458   3.633
32630W        W91891   2.440  34.606   2.754
32631W        W91892  26.551  26.009   1.335
32632W        W91893  36.079  21.169  12.980
32633W        W91894  28.678   5.815   4.354
32634W        W91895  17.583  38.065  10.642
32635W        W91896   8.669  27.140   3.825
32636W        W91897  41.018  36.041   0.413
32637W        W91898  37.917  34.470  11.963
32638W        W91899  40.365   2.809   4.198
32639W        W91900  23.683  14.768  14.358
32640W        W91901  33.426  29.450  12.863
32641W        W91902  26.985   0.287   3.717
32642W        W91903  22.214  14.630  12.830
32643W        W91904  17.771  11.361  15.000
32644W        W91905  27.449  23.082   4.178
32645W        W91906  10.253  29.508   3.256
32646W        W91907  23.496  16.712  12.090
32647W        W91908  18.155  43.272  12.546
32648W        W91909  24.122  33.046   4.354
32649W        W91910  14.773  11.656  13.825
32650W        W91911  16.129  15.324  10.901
32651W        W91912  31.553  31.614  10.541
32652W        W91913  42.982   5.891  13.317
32653W        W91914  29.477   2.724   0.289
32654W        W91915  25.092  18.172   3.257
32655W        W91916  27.538   5.290   0.446
32656W        W91917   4.447  22.099   2.346
32657W        W91918  23.726  32.035  12.830
32658W        W91919  11.818  32.593  10.930
32659W        W91920  35.378   0.771   4.680
32660W        W91921  33.114  38.527  10.437
32661W        W91922  40.004  19.122  10.896
32662W        W91923  12.341  21.716   0.397
32663W        W91924  23.661  31.042   5.585
32664W        W91925  14.288   9.180  10.936
32665W        W91926  25.099  42.302   0.919
32666W        W91927   7.364   6.205   5.229
32667W        W91928  30.525  36.088  12.567
32668W        W91929  18.258  39.971   4.710
32669W        W91930   5.224  27.984  14.408
32670W        W91931  20.153   0.356  13.379
32671W        W91932  35.083  32.400  13.531
32672W        W91933  32.441  25.516   2.753
32673W        W91934  44.973  28.607   2.859
32674W        W91935  31.485  43.875   2.326
32675W        W91936   1.358   9.860  14.791
32676W        W91937  36.979  13.320  12.879
32677W        W91938  20.581  32.992  11.538
32678W        W91939   7.821  21.075   2.884
32679W        W91940  27.022  43.298   4.230
32680W        W91941  16.268   7.237  10.938
32681W        W91942  26.171   9.158   1.250
32682W        W91943   4.879  21.565   4.320
32683W        W91944   8.821  38.837   3.746
32684W        W91945   0.783   3.951  12.843
32685W        W91946   4.806  17.127  13.336
32686W        W91947  33.954   9.784  13.367
32687W        W91948  16.637  18.605   3.768
32688W        W91949   5.798  36.433   1.917
32689W        W91950  43.783  11.363   0.402
32690W        W91951  40.512   4.893   0.462
32691W        W91952  10.664  17.063   1.223
32692W        W91953  27.663  23.636  11.082
32693W        W91954  14.276  42.007  10.969
32694W        W91955   6.243  28.617   2.222
32695W        W91956  33.509  43.904   1.892
32696W        W91957  21.670  14.700  10.899
32697W        W91958  43.788   3.373   3.234
32698W        W91959  14.687  17.159  14.437
32699W        W91960  29.090  30.642  10.915
32700W        W91961  34.582   2.908  14.927
32701W        W91962  28.182  44.435  12.969
32702W        W91963  35.468  40.924   1.385
32703W        W91964  44.268  38.447   4.757
32704W        W91965  42.527  14.594   2.739
32705W        W91966   5.746  36.041  10.465
32706W        W91967  19.176  16.663   0.385
32707W        W91968  44.319  27.080  10.955
32708W        W91969  36.443  23.498  11.598
32709W        W91970   0.780  25.216   2.374
32710W        W91971  37.904  28.572  14.923
32711W        W91972  20.185  11.232  13.943
32712W        W91973  38.333  10.769   0.916
32713W        W91974   1.876   0.924  11.023
32714W        W91975  18.555  29.159  14.277
32715W        W91976   7.893  41.821  11.503
32716W        W91977  42.281  14.295   0.419
32717W        W91978  39.893  22.034   2.684
32718W        W91979   2.861  38.369  12.967
32719W        W91980   7.397  42.863  13.792
32720W        W91981  22.655  26.589  12.364
32721W        W91982  20.109  22.067  11.959
32722W        W91983  40.938   8.198   2.803
32723W        W91984  37.951  22.669  10.531
32724W        W91985  11.804   0.971  12.050
32725W        W91986   9.327  43.817   2.802
32726W        W91987  17.662  43.815   2.669
32727W        W91988  23.116  18.089  13.533
32728W        W91989  25.520   8.705   5.092
32729W        W91990  39.369   9.787   0.470
32730W        W91991  26.155  24.541  10.890
32731W        W91992  21.078  35.402   2.319
32732W        W91993  35.552  17.110   3.284
32733W        W91994  28.125  29.957   0.274
32734W        W91995  22.061  31.410  12.457
32735W        W91996  37.853  39.984   0.250
32736W        W91997  19.188   9.807   3.381
32737W        W91998   6.875   8.845   1.219
32738W        W91999  10.835   8.384   4.297
32739W        W92000  32.453   6.371   0.444
32740W        W92001  14.779  20.123  10.931
32741W        W92002  13.819  42.792  11.456
32742W        W92003   6.402  20.766  10.518
32743W        W92004   4.289  25.689  12.579
32744W        W92005  11.303  34.576  11.590
32745W        W92006  22.150  28.073  14.310
32746W        W92007  37.065  23.094  13.465
32747W        W92008  25.524  40.930  13.332
32748W        W92009  39.025  36.846  12.388
32749W        W92010  40.517  33.029   1.840
32750W        W92011   8.874   0.427  13.897
32751W        W92012   6.206  32.925   3.774
32752W        W92013   2.789  34.034  14.993
32753W        W92014   3.449   4.802  11.988
32754W        W92015  28.936  19.709  12.046
32755W        W92016   2.253  38.480   3.354
32756W        W92017  28.474  44.882  14.284
32757W        W92018  14.288   1.254  11.888
32758W        W92019  33.429  34.397   1.836
32759W        W92020  15.697  15.784  13.803
32760W        W92021  11.362   7.729  14.833
32761W        W92022  14.095  11.218   1.830
32762W        W92023  10.243  15.609  12.479
32763W        W92024  42.803   8.738  12.447
32764W        W92025   3.261  18.091  10.973
32765W        W92026  23.176  22.668   2.210
32766W        W92027   8.822  22.621   2.207
32767W        W92028  30.109  42.385  10.619
32768W        W92029   9.768   1.361   0.441
32769W        W92030  31.414  32.624   0.904
32770W        W92031  21.134   4.932   2.273
32771W        W92032  26.636   0.836   1.433
32772W        W92033  29.509  35.468  10.425
32773W        W92034  26.460   9.860   0.820
32774W        W92035  22.605  22.570   3.286
32775W        W92036  21.206  38.364  11.071
32776W        W92037  31.552   6.773   4.259
32777W        W92038   5.340  10.356  12.401
32778W        W92039  37.903  38.003   4.640
32779W        W92040  44.970  34.372  13.519
32780W        W92041  38.445   8.824  12.395
32781W        W92042   5.855  12.641   3.374
32782W        W92043  29.963   7.709   0.421
32783W        W92044  34.467  22.556   1.418
32784W        W92045  33.066   9.201   0.269
32785W        W92046   9.759  18.550   0.319
32786W        W92047  37.030  15.776  11.574
32787W        W92048  21.112  18.691  13.815
32788W        W92049  35.102  42.855   4.335
32789W        W92050  40.374  15.233   1.389
32790W        W92051  11.335  18.740   3.647
32791W        W92052  24.539  14.729  13.953
32792W        W92053   4.315  22.561   3.696
32793W        W92054  42.776  38.414  10.082
32794W        W92055   9.779  39.319  12.532
32795W        W92056  42.436  13.820  14.858
32796W        W92057  30.999  14.256   0.429
32797W        W92058  44.768  41.996  10.603
32798W        W92059  35.043  33.620  11.420
32799W        W92060  41.800  38.891  14.903
32800W        W92061  16.152  27.999   1.280
32801W        W92062  42.021  41.424   3.182
32802W        W92063  22.637  33.031  14.830
32803W        W92064  18.697   5.688  14.489
32804W        W92065  29.116  15.140  11.079
32805W        W92066  33.432  12.690   3.216
32806W        W92067  37.881  38.371  11.887
32807W        W92068  31.551  24.985   2.880
32808W        W92069  35.467  29.950  13.939
32809W        W92070  20.528  39.897  11.600
32810W        W92071  30.907  42.445   0.380
32811W        W92072  43.292  32.411   1.235
32812W        W92073  19.735  11.863  10.898
32813W        W92074  19.263   0.889  14.005
32814W        W92075  23.111  24.557   0.825
32815W        W92076  15.120  29.166   3.365
32816W        W92077  17.665  36.432  13.879
32817W        W92078  38.058  40.450  14.476
32818W        W92079  26.681  16.758  13.456
32819W        W92080  20.668   0.433  12.575
32820W        W92081  12.734  17.190   2.329
32821W        W92082  30.657  22.133  14.015
32822W        W92083  19.076  44.450  13.324
32823W        W92084  15.197  43.802  12.015
32824W        W92085   6.297  43.423   4.787
32825W        W92086   2.757  18.287   3.840
32826W        W92087  10.730  35.046  14.413
32827W        W92088  33.003  44.451  14.868
32828W        W92089  13.167   1.747   3.710
32829W        W92090  40.317  24.645  11.861
32830W        W92091  44.274  36.962  14.371
32831W        W92092  25.509  17.699  10.888
32832W        W92093  40.488  21.708   2.331
32833W        W92094  28.152  12.785   3.218
32834W        W92095  27.131  28.568  13.451
32835W        W92096  29.984  16.612  13.980
32836W        W92097  26.171  43.419   5.208
32837W        W92098  15.285  40.814   3.166
32838W        W92099  18.248  44.333   1.371
32839W        W92100  36.943   5.705   2.774
32840W        W92101  19.268  36.535  13.479
32841W        W92102  19.719  17.174   0.770
32842W        W92103  36.358  31.435  13.991
32843W        W92104  35.966  38.855  11.893
32844W        W92105   6.393  43.280  11.026
32845W        W92106  42.489  29.605   5.095
32846W        W92107  25.021  40.040   2.805
32847W        W92108  20.123  26.593   3.659
32848W        W92109  39.447  14.133   3.209
32849W        W92110  18.217  44.925   1.798
32850W        W92111  37.417   2.949   3.724
32851W        W92112  24.700  38.922   2.810
32852W        W92113  10.841  13.777   4.807
32853W        W92114  44.489  19.070   0.359
32854W        W92115  22.069  42.959   3.838
32855W        W92116  38.830  21.148   0.842
32856W        W92117   6.231  18.133   0.473
32857W        W92118  37.960  31.634   2.886
32858W        W92119   7.864  37.581   3.251
32859W        W92120  21.217  19.619  11.025
32860W        W92121   0.770  10.299  10.494
32861W        W92122  26.199  39.454   3.270
32862W        W92123  16.593  14.298   3.859
32863W        W92124   5.875  25.995   2.326
32864W        W92125  18.100  14.741  14.958
32865W        W92126  13.280  43.811  12.927
32866W        W92127  38.472  40.915   2.408
32867W        W92128  16.168   9.270  11.884
32868W        W92129  15.327  19.088   4.229
32869W        W92130  31.133  33.989  11.612
32870W        W92131   3.804   9.763   1.894
32871W        W92132  22.012  22.204   3.333
32872W        W92133  22.247   3.230   2.233
32873W        W92134  37.990  31.454  13.478
32874W        W92135   6.716  19.553   1.425
32875W        W92136  29.611  20.103  12.894
32876W        W92137  15.165  12.182   2.832
32877W        W92138  43.313  25.674   2.825
32878W        W92139  36.065   8.726  13.321
32879W        W92140  32.080  37.971   1.861
32880W        W92141  17.666   8.874   3.156
32881W        W92142  20.256   4.934   0.454
32882W        W92143  42.788   7.271   2.746
32883W        W92144  39.994  33.970  13.007
32884W        W92145  34.990  41.408   4.302
32885W        W92146  11.314  17.178  10.935
32886W        W92147   6.742  44.457  10.964
32887W        W92148  42.995  11.359   3.227
32888W        W92149  35.931  38.453   2.732
32889W        W92150  21.198  25.605  13.517
32890W        W92151  21.710  42.331  12.400
32891W        W92152  26.984  36.396   0.268
32892W        W92153  16.675   1.783  13.477
32893W        W92154  10.774  44.379  14.839
32894W        W92155  19.108  16.166  14.503
32895W        W92156  11.157  10.194  14.909
32896W        W92157  29.519  14.135   5.213
32897W        W92158  35.552  13.345  11.519
32898W        W92159  37.446  33.488   3.783
32899W        W92160  26.118  11.841   0.315
32900W        W92161  12.219  24.182   4.730
32901W        W92162  11.345  42.367  14.506
32902W        W92163  38.919  20.212   4.627
32903W        W92164  26.657  18.242   2.861
32904W        W92165  10.805  41.881  14.959
32905W        W92166  26.463   1.467  11.437
32906W        W92167   6.366  41.508   3.632
32907W        W92168  17.156  30.590  13.510
32908W        W92169  14.801  21.230   3.264
32909W        W92170  38.523  21.256   0.948
32910W        W92171  34.904  30.003  11.115
32911W        W92172   4.225  30.553  12.835
32912W        W92173   4.318  12.660   1.438
32913W        W92174   8.386  14.706  11.474
32914W        W92175  26.018  39.867  14.998
32915W        W92176  15.141  31.052   4.802
32916W        W92177  24.028   4.394  13.387
32917W        W92178  14.164  28.160  12.510
32918W        W92179  39.899  42.932   3.822
32919W        W92180  40.909  13.669  10.586
32920W        W92181  40.955  36.070  14.978
32921W        W92182  32.959   3.242   3.210
32922W        W92183  18.674   3.907  10.069
32923W        W92184  11.692   1.974  11.889
32924W        W92185   3.754  24.091   1.839
32925W        W92186  36.047  40.988  14.989
32926W        W92187  44.823  15.674   0.409
32927W        W92188  18.683  21.055  10.913
32928W        W92189  39.019  43.502   2.776
32929W        W92190  22.032   3.743   4.739
32930W        W92191  14.612  17.237  13.397
32931W        W92192   4.742  20.175   4.119
32932W        W92193  39.361  32.095  12.990
32933W        W92194  37.558  40.835  14.815
32934W        W92195  37.969   4.262  10.607
32935W        W92196  40.335   2.286  10.635
32936W        W92197  38.551  11.695  12.836
32937W        W92198   4.375  34.035   0.409
32938W        W92199   8.306  15.214  10.893
32939W        W92200  15.688  41.314  12.027
32940W        W92201  15.669   9.702   1.837
32941W        W92202  26.468  43.856  14.324
32942W        W92203  33.945   3.922  13.947
32943W        W92204   7.308   0.484  10.417
32944W        W92205  44.500  33.980  14.993
32945W        W92206  38.984  17.652   2.854
32946W        W92207   1.301  34.583  10.938
32947W        W92208  13.123  10.352  11.905
32948W        W92209  31.134  26.664   5.308
32949W        W92210  42.874   2.291   2.678
32950W        W92211  35.870   1.798   1.252
32951W        W92212  31.419  43.017  14.292
32952W        W92213   5.277  23.611  14.461
32953W        W92214  36.517  28.072   0.929
32954W        W92215  20.697  42.885   2.725
32955W        W92216   5.395   0.288   0.959
32956W        W92217  36.488   2.389  13.872
32957W        W92218  36.049   1.764   4.728
32958W        W92219  39.541   4.704   2.850
32959W        W92220  20.587  22.091   1.724
32960W        W92221  32.921   0.840   2.237
32961W        W92222  22.591  43.295  14.480
32962W        W92223   9.862  10.376  11.071
32963W        W92224  32.534  11.810   4.294
32964W        W92225  27.948  33.932  12.425
32965W        W92226  44.269  43.798  11.866
32966W        W92227  39.335  25.581  11.864
32967W        W92228  38.980   2.908   4.658
32968W        W92229  37.081   7.182   1.442
32969W        W92230   1.330  23.997  11.457
32970W        W92231  25.697  22.197  11.888
32971W        W92232  43.403  31.934  12.505
32972W        W92233  31.492   1.320   3.369
32973W        W92234  15.769  33.033  12.437
32974W        W92235  29.969  15.213  13.343
32975W        W92236  33.026  44.440  11.907
32976W        W92237  26.159  29.483   5.806
32977W        W92238   8.734  15.678  10.959
32978W        W92239  10.860  22.073   4.608
32979W        W92240  32.518  31.922   5.281
32980W        W92241  36.086   3.406  13.944
32981W        W92242   4.905  22.623   3.298
32982W        W92243  12.773  37.428   1.303
32983W        W92244   0.859  20.242  13.511
32984W        W92245  44.857   1.456   4.156
32985W        W92246   0.265  35.446   2.239
32986W        W92247  27.646  40.369  13.791
32987W        W92248  22.222  32.930   3.766
32988W        W92249  40.027  24.561   0.397
32989W        W92250  41.976  41.043   2.709
32990W        W92251   4.930  38.896   3.339
32991W        W92252  38.892  13.772   5.188
32992W        W92253  29.156  40.509   1.696
32993W        W92254  43.793  29.553  11.016
32994W        W92255  29.157  16.128  14.372
32995W        W92256  33.031  40.311  12.910
32996W        W92257  36.902  20.150  11.891
32997W        W92258  39.490  15.113  10.539
32998W        W92259  13.732  20.730  13.947
32999W        W92260  27.062  16.584  13.837
33000W        W92261  25.703   6.284  11.089
33001W        W92262  13.243  33.393   1.843
33002W        W92263  10.827  27.058  10.895
33003W        W92264  16.099  12.832   2.233
33004W        W92265  42.781  29.923  10.541
33005W        W92266   0.748  38.395  12.977
33006W        W92267  21.707  25.714  11.394
33007W        W92268   8.803  35.888  11.960
33008W        W92269  14.596  41.979  14.876
33009W        W92270  28.017  16.163  11.010
33010W        W92271   9.780  42.004  12.908
33011W        W92272  19.563  40.338  12.020
33012W        W92273  27.451   5.359  12.863
33013W        W92274  19.657  18.183   2.724
33014W        W92275  21.141  39.914   1.869
33015W        W92276  44.382  34.402  14.414
33016W        W92277  42.446  19.168   3.172
33017W        W92278  13.646   3.950  14.964
33018W        W92279  16.111  36.937   2.887
33019W        W92280  19.191   7.320   2.699
33020W        W92281  24.221  18.757  14.323
33021W        W92282  22.644  32.408   3.815
33022W        W92283  35.473   9.182  14.929
33023W        W92284  29.101  27.482   4.300
33024W        W92285  38.967   9.708  14.782
33025W        W92286   3.762  14.613   3.329
33026W        W92287  38.044   0.929   0.802
33027W        W92288   6.229  18.192   3.782
33028W        W92289  31.035  32.946   0.793
33029W        W92290  15.701  33.024  14.511
33030W        W92291  18.217  23.525   4.613
33031W        W92292  37.882  38.359  14.018
33032W        W92293  36.430  26.197  10.530
33033W        W92294   4.879  43.332   2.239
33034W        W92295  30.082  29.465   0.284
33035W        W92296  17.648  22.060  12.479
33036W        W92297  26.047  43.782  14.378
33037W        W92298   3.300  27.539   0.924
33038W        W92299  24.673  24.656  12.830
33039W        W92300  10.232  16.234  14.283
33040W        W92301  39.327  40.479   4.144
33041W        W92302  34.439  42.968   1.856
33042W        W92303   5.907  38.926   0.789
33043W        W92304  44.291  24.528   2.682
33044W        W92305  25.177  31.927   1.368
33045W        W92306  31.495  43.470   2.903
33046W        W92307  40.873  13.106  13.804
33047W        W92308   4.355  43.288  13.404
33048W        W92309  24.131  24.221   1.238
33049W        W92310   9.233  43.306   4.154
33050W        W92311  21.236  30.093  12.945
33051W        W92312  16.725  33.566   2.322
33052W        W92313  42.409  12.627   1.884
33053W        W92314  34.989  21.679   1.736
33054W        W92315  15.725  43.995  14.794
33055W        W92316   3.860  36.853   1.379
33056W        W92317  31.544  40.045  14.462
33057W        W92318   0.327  39.002   1.412
33058W        W92319  44.346  38.056  11.447
33059W        W92320  16.104  42.032  14.825
33060W        W92321   8.717  36.859  13.932
33061W        W92322   8.248  21.151  11.565
33062W        W92323   8.784  29.588   1.907
33063W        W92324   1.435  30.517  14.892
33064W        W92325  38.830  14.704  13.993
33065W        W92326  20.089  14.296   1.256
33066W        W92327   0.847  27.624  12.443
33067W        W92328   2.466   0.879   3.346
33068W        W92329  44.913  31.509  14.399
33069W        W92330  40.400  27.664   0.389
33070W        W92331  16.168  19.053   2.323
33071W        W92332  36.954  30.127  10.966
33072W        W92333  14.307  19.127   4.607
33073W        W92334  29.584  33.906   2.250
33074W        W92335  29.041   5.844  12.988
33075W        W92336   4.903   2.451   4.221
33076W        W92337  25.697  37.894   3.147
33077W        W92338   0.972  14.757  14.953
33078W        W92339  27.674  18.617  13.932
33079W        W92340   9.353  24.617   4.242
33080W        W92341  16.158  39.535   1.405
33081W        W92342  40.511  20.269   3.146
33082W        W92343  16.218  21.029  12.450
33083W        W92344  32.417  29.496   0.246
33084W        W92345  42.854  25.147   1.791
33085W        W92346  32.118  38.541   3.647
33086W        W92347  14.233  18.121  12.903
33087W        W92348  21.703  17.127  11.491
33088W        W92349   0.938  23.673  11.513
33089W        W92350   9.304  15.139   4.135
33090W        W92351  23.630  25.028   2.359
33091W        W92352  34.419  43.389  11.532
33092W        W92353  22.055   4.393  13.008
33093W        W92354  40.310  12.630   4.685
33094W        W92355   3.400  12.299  12.525
33095W        W92356  16.594  42.480   1.903
33096W        W92357  29.455   7.321  14.938
33097W        W92358  36.938  10.223  13.028
33098W        W92359  20.665  37.368   1.870
33099W        W92360  43.926  19.248   1.865
33100W        W92361  13.170  39.556   4.622
33101W        W92362  35.372  40.521  11.947
33102W        W92363  33.945  11.341  13.444
33103W        W92364  22.597  20.066   0.921
33104W        W92365  38.497  34.530  11.927
33105W        W92366  22.050  11.727  12.939
33106W        W92367  13.652  23.015   3.758
33107W        W92368  34.047  37.866  14.405
33108W        W92369   8.271  32.468   1.805
33109W        W92370  33.415  21.027  10.594
33110W        W92371  22.221  18.079   4.615
33111W        W92372  20.675  21.263  12.042
33112W        W92373  38.884  27.586  13.340
33113W        W92374   6.818  20.050   1.711
33114W        W92375  42.795  42.923  12.075
33115W        W92376  39.411  14.722  10.467
33116W        W92377  16.805  33.129   1.415
33117W        W92378  37.008   3.239  10.513
33118W        W92379  44.944  12.765   4.664
33119W        W92380  17.631  33.130  14.874
33120W        W92381  33.580  19.101  11.995
33121W        W92382  39.346   0.326   4.776
33122W        W92383  36.073  13.111  13.525
33123W        W92384  26.030  23.561   4.735
33124W        W92385  34.003   4.311   2.814
33125W        W92386  34.584  18.754   2.665
33126W        W92387  22.600  37.542  13.432
33127W        W92388  23.621   6.730  14.782
33128W        W92389  10.681  12.703  14.020
33129W        W92390   8.181   2.738   0.856
33130W        W92391  12.731  16.077   3.184
33131W        W92392  32.600   7.697  10.893
33132W        W92393  14.099   5.207   5.257
33133W        W92394  42.809  14.217  11.015
33134W        W92395  18.114  41.440  12.937
33135W        W92396  41.929  16.107  14.396
33136W        W92397  32.396  34.607  13.383
33137W        W92398  32.411  39.323   1.749
33138W        W92399  15.768   8.204  12.069
33139W        W92400   9.765   3.712  13.320
33140W        W92401  17.664  19.187  13.357
33141W        W92402   6.184  22.509  10.047
33142W        W92403  39.325   1.472   0.361
33143W        W92404  30.050  16.766  12.945
33144W        W92405  36.550  24.532  14.875
33145W        W92406  27.515  31.417   2.407
33146W        W92407  35.994  14.716   0.730
33147W        W92408  24.068  25.079  14.001
33148W        W92409  39.825   1.751  14.334
33149W        W92410  19.563  38.842  11.579
33150W        W92411  21.751  24.106  13.453
33151W        W92412  39.950  16.757   2.213
33152W        W92413  13.240   3.279   5.275
33153W        W92414  42.007   3.769   1.845
33154W        W92415   4.388  40.044   2.780
33155W        W92416   9.312  15.293  12.946
33156W        W92417  32.113  18.738   2.769
33157W        W92418   2.835  42.391  10.562
33158W        W92419   4.707  23.051  11.085
33159W        W92420  28.169  12.294   0.374
33160W        W92421  19.233  36.986   1.733
33161W        W92422   6.884  11.271  12.896
33162W        W92423  24.144   0.804   0.889
33163W        W92424  28.094  13.826   1.300
33164W        W92425  19.264  41.358  11.043
33165W        W92426  27.024  15.158   3.236
33166W        W92427   3.929  39.986   3.805
33167W        W92428  32.889  17.203  13.325
33168W        W92429   5.706   4.311  10.579
33169W        W92430  24.634  33.433   1.838
33170W        W92431  24.217  17.571  11.943
33171W        W92432   5.362  15.641  11.482
33172W        W92433  10.212  33.971  11.374
33173W        W92434   9.333  40.381  14.490
33174W        W92435  12.772  33.045   1.339
33175W        W92436   8.859  19.148   4.242
33176W        W92437  40.478  11.803  11.533
33177W        W92438  26.683  20.572   3.173
33178W        W92439   4.873   5.820  11.862
33179W        W92440   7.176  30.039   4.317
33180W        W92441  10.223   9.704  10.604
33181W        W92442  25.550   1.378   3.181
33182W        W92443   7.699   9.799   0.458
33183W        W92444  37.903  18.073   2.870
33184W        W92445  37.064   2.858   1.329
33185W        W92446  32.595  15.327  13.393
33186W        W92447  14.160  44.755  13.470
33187W        W92448   3.401   3.730  12.942
33188W        W92449  44.889  10.759   3.147
33189W        W92450  29.163  28.163   1.714
33190W        W92451  21.629  21.104   2.296
33191W        W92452   2.906  36.023   0.731
33192W        W92453  35.399   3.249  10.550
33193W        W92454  39.504  35.591   0.808
33194W        W92455  44.290  25.610  13.474
33195W        W92456  15.704  30.527  10.087
33196W        W92457  44.270  14.808  13.396
33197W        W92458  37.428  39.855   3.155
33198W        W92459  27.458   9.879   3.282
33199W        W92460   6.186   1.962   3.747
33200W        W92461  35.971  42.410   2.874
33201W        W92462  35.029  41.494  11.000
33202W        W92463  44.953  40.497   3.774
33203W        W92464  12.327  15.101   0.768
33204W        W92465   3.385  42.985   1.419
33205W        W92466   7.800  43.425   2.375
33206W        W92467  26.178  11.688  14.012
33207W        W92468  10.793   9.745  11.966
33208W        W92469   0.354   4.778   0.467
33209W        W92470  26.038   9.313  11.486
33210W        W92471  35.603   5.406  10.483
33211W        W92472   9.326  20.167  13.877
33212W        W92473  17.243  36.970  13.514
33213W        W92474   3.425  14.784  11.464
33214W        W92475  15.628   7.229  13.816
33215W        W92476   1.735  42.299   2.419
33216W        W92477   1.467  31.001  14.432
33217W        W92478  37.026  44.422  13.394
33218W        W92479  24.498  37.431   1.292
33219W        W92480  42.378   3.243   1.387
33220W        W92481  10.874  11.206  10.608
33221W        W92482  39.912  43.975  13.425
33222W        W92483  30.135  41.442  13.938
33223W        W92484  21.712  41.909  13.983
33224W        W92485  23.646  24.649   2.318
33225W        W92486  10.279  15.736  13.472
33226W        W92487   0.275  31.116   4.618
33227W        W92488  34.519  28.631   4.216
33228W        W92489   4.843  21.113   2.309
33229W        W92490  42.400  42.309   4.623
33230W        W92491  31.013  17.139  12.048
33231W        W92492  42.425  18.769   0.838
33232W        W92493   3.794   0.802  12.028
33233W        W92494  25.633  16.648   3.150
33234W        W92495   3.795  30.158  14.429
33235W        W92496   1.251  34.863  13.506
33236W        W92497   4.395  26.691   4.297
33237W        W92498  41.015   4.930  12.478
33238W        W92499  16.303  21.080  14.408
33239W        W92500  44.269  17.188  13.490
33240W        W92501   7.173  42.504   2.340
33241W        W92502  38.500  41.868  11.091
33242W        W92503  19.732  39.967   4.153
33243W        W92504   2.400  27.092   0.806
33244W        W92505  19.148  37.901  13.914
33245W        W92506  18.669   8.823   0.250
33246W        W92507  39.373  18.787  11.055
33247W        W92508  26.474  19.734   4.753
33248W        W92509  24.626  13.840  12.496
33249W        W92510  35.410  30.060  14.946
33250W        W92511  35.509  25.177  12.848
33251W        W92512  27.684   6.209   3.197
33252W        W92513   0.966  33.117  12.402
33253W        W92514  19.590  41.411  12.905
33254W        W92515  19.637   4.299   1.852
33255W        W92516  25.509   8.265  12.416
33256W        W92517  44.988  23.237   4.760
33257W        W92518   5.922  10.381  12.043
33258W        W92519   4.362  25.655   4.284
33259W        W92520  34.534  13.231   2.384
33260W        W92521   5.434  32.518   0.408
33261W        W92522  20.246  14.680  11.965
33262W        W92523  11.736  10.209  10.465
33263W        W92524  43.325  25.126   1.763
33264W        W92525  30.558  26.603  11.114
33265W        W92526  36.936  36.449   0.808
33266W        W92527  39.843  24.657  13.522
33267W        W92528  14.130  43.312  13.430
33268W        W92529  30.000  44.857   9.652
33269W        W92530  27.055  37.345   0.821
33270W        W92531  39.432  25.063  14.868
33271W        W92532  12.309  19.712   0.409
33272W        W92533   9.682   3.722  11.055
33273W        W92534   4.940  21.598   0.460
33274W        W92535  35.406  22.080  12.070
33275W        W92536   1.254   8.858  11.495
33276W        W92537   3.874  39.537  10.925
33277W        W92538   9.349  40.526   2.346
33278W        W92539  26.202  10.155  11.565
33279W        W92540   7.676  16.148   3.175
33280W        W92541  10.712  29.530   4.757
33281W        W92542  43.925  17.274  13.944
33282W        W92543  34.003  10.846   9.569
33283W        W92544  33.878  12.655   3.200
33284W        W92545  26.011  16.227  12.530
33285W        W92546  11.792  20.196  14.356
33286W        W92547  24.556  37.957  11.523
33287W        W92548  10.180   4.791   9.511
33288W        W92549  13.223  17.665  14.497
33289W        W92550  43.344  32.508   3.224
33290W        W92551  35.492  33.916  10.475
33291W        W92552  37.078  14.686   1.804
33292W        W92553  30.103  42.923  12.343
33293W        W92554   9.694  12.192  14.985
33294W        W92555   3.755   2.411   4.211
33295W        W92556  44.295  16.756  12.494
33296W        W92557  12.309  24.616  13.470
33297W        W92558  13.121  37.381  12.350
33298W        W92559  20.625  38.874  13.899
33299W        W92560  39.546  16.719   9.651
33300W        W92561  22.507   7.902   0.256
33301W        W92562   0.949   9.377   3.658
33302W        W92563  14.775  40.332  14.516
33303W        W92564   7.802  10.698  14.428
33304W        W92565  23.579  38.340  12.054
33305W        W92566  44.978  17.128   3.309
33306W        W92567  13.841  22.625   4.294
33307W        W92568  13.171  41.024  10.984
33308W        W92569  19.217   9.706   2.701
33309W        W92570  19.141  39.461  12.398
33310W        W92571  30.587  31.517   0.406
33311W        W92572  24.059  12.620   0.436
33312W        W92573  19.274  35.532  11.085
33313W        W92574  32.546  35.892   1.845
33314W        W92575  21.751  30.463   0.481
33315W        W92576  18.563  16.281  14.912
33316W        W92577  41.494   2.458  14.905
33317W        W92578  24.214   7.390   3.340
33318W        W92579  21.651  21.733   1.296
33319W        W92580  26.195  12.121  11.588
33320W        W92581   5.258   6.773  11.489
33321W        W92582  15.092  24.994  12.352
33322W        W92583   8.779   1.978   1.902
33323W        W92584  26.683  42.446   3.748
33324W        W92585  15.309  34.456  11.014
33325W        W92586  28.976  37.007  12.005
33326W        W92587  13.263   7.196   4.269
33327W        W92588  39.387   2.880   3.166
33328W        W92589  16.194  15.129   1.260
33329W        W92590   4.276  17.704  11.880
33330W        W92591   3.867  41.489   0.289
33331W        W92592   9.171  37.543  14.516
33332W        W92593   6.228  36.453  10.613
33333W        W92594   4.327  33.490   0.446
33334W        W92595  42.418  31.091  11.589
33335W        W92596  17.791  16.304   2.693
33336W        W92597   2.273  36.385   1.815
33337W        W92598  23.136  33.039  13.833
33338W        W92599  39.887  33.607  12.064
33339W        W92600  43.358  20.698  10.956
33340W        W92601  42.786  42.294  13.434
33341W        W92602  16.764  40.023  14.864
33342W        W92603  22.138   1.854  13.886
33343W        W92604  41.333  43.943  14.933
33344W        W92605  25.687   6.850  11.100
33345W        W92606  43.851  13.295  10.454
33346W        W92607  24.079  34.929  11.036
33347W        W92608  29.670  12.131   1.385
33348W        W92609  22.056  26.995   2.804
33349W        W92610  13.332   5.271  10.620
33350W        W92611   9.203  35.389  11.053
33351W        W92612  16.161  19.746  13.054
33352W        W92613  35.964  24.045   3.804
33353W        W92614  26.046   7.814  12.990
33354W        W92615  29.085   3.791   1.316
33355W        W92616  32.460  30.097  13.018
33356W        W92617   2.439  22.614  12.954
33357W        W92618   3.859  33.438   3.235
33358W        W92619  24.594  38.328  14.852
33359W        W92620  24.542  27.023   4.757
33360W        W92621  19.115  14.237   4.779
33361W        W92622  37.004   6.372   4.752
33362W        W92623  39.821  15.668  13.990
33363W        W92624  40.864  26.100   0.292
33364W        W92625  40.942  42.517  13.361
33365W        W92626  25.975  11.821   2.690
33366W        W92627  36.350  40.926   1.450
33367W        W92628  40.450  11.703   0.809
33368W        W92629  36.465  19.616   9.959
33369W        W92630  30.054  35.883  11.514
33370W        W92631  30.568  24.553   2.732
33371W        W92632   9.826   2.893  14.780
33372W        W92633  37.405  43.936  14.367
33373W        W92634   2.751  35.914  14.465
33374W        W92635  24.066  35.588  14.314
33375W        W92636  12.643  38.456  13.434
33376W        W92637  22.049  28.935   4.642
33377W        W92638   2.920  26.185   0.263
33378W        W92639  28.097  13.260   4.252
33379W        W92640  30.508  41.861  13.401
33380W        W92641  14.776  41.860  11.587
33381W        W92642  43.838  42.809  12.499
33382W        W92643  42.386   0.831   1.898
33383W        W92644  41.487   8.834   3.384
33384W        W92645  22.718   3.440  11.568
33385W        W92646   9.223  38.892   4.232
33386W        W92647  37.525  26.116  12.417
33387W        W92648   4.748  13.623  12.498
33388W        W92649  37.069  23.125   0.340
33389W        W92650  35.360  43.016   0.966
33390W        W92651  27.997  42.290  12.935
33391W        W92652   7.712  41.514  13.495
33392W        W92653  36.063  39.984  10.561
33393W        W92654  43.773   4.817   4.839
33394W        W92655  38.966  13.673   4.620
33395W        W92656  34.561   9.214  10.593
33396W        W92657   0.894  24.119  11.577
33397W        W92658  41.403  44.000   4.186
33398W        W92659  19.648  42.526   2.806
33399W        W92660   5.892   0.941   0.773
33400W        W92661  24.635  13.317   3.205
33401W        W92662  43.337  10.154   2.289
33402W        W92663  27.576  21.259   4.233
33403W        W92664  27.026  14.109  11.881
33404W        W92665  31.448  24.135  14.333
33405W        W92666  12.701  42.431   4.273
33406W        W92667  23.675  10.216  13.926
33407W        W92668  11.340   9.813  14.502
33408W        W92669  31.614  20.227   3.692
33409W        W92670  24.107  41.825  10.556
33410W        W92671  41.829  38.520   1.841
33411W        W92672  41.908  28.522  11.937
33412W        W92673  10.383  44.318  11.377
33413W        W92674  40.386  30.562  14.886
33414W        W92675  24.185  34.372  11.432
33415W        W92676  22.227  44.402  13.926
33416W        W92677  42.476  13.746   3.160
33417W        W92678  30.110   6.710   1.322
33418W        W92679   5.889  30.573   2.198
33419W        W92680   0.398  32.408   2.288
33420W        W92681  34.109  34.937   4.767
33421W        W92682  23.005  40.844   3.855
33422W        W92683  39.412  23.210   0.803
33423W        W92684  44.322  11.665   0.417
33424W        W92685   0.486   2.768  11.124
33425W        W92686  27.587  42.911  11.931
33426W        W92687   9.880   6.340   1.840
33427W        W92688  41.031  30.162   4.157
33428W        W92689  38.385  12.781   2.865
33429W        W92690  40.445  44.451  11.862
33430W        W92691   3.445   6.829  13.509
33431W        W92692  20.074  33.912  13.422
33432W        W92693  41.461   0.970   5.273
33433W        W92694  12.226  40.473  13.916
33434W        W92695  44.313  41.836  14.458
33435W        W92696  18.736  34.865  11.559
33436W        W92697  26.004  22.173   1.285
33437W        W92698  15.590   7.712  14.877
33438W        W92699   6.747  10.355  14.386
33439W        W92700   8.219   0.387  13.480
33440W        W92701  44.323  39.412  10.537
33441W        W92702   9.684   1.481  13.537
33442W        W92703   9.805   7.189  14.412
33443W        W92704  16.654   9.765  13.349
33444W        W92705  39.363  17.611  12.525
33445W        W92706  13.802  44.323  10.474
33446W        W92707  11.641  44.870   2.260
33447W        W92708  22.041  33.445  13.373
33448W        W92709  22.046  39.511   4.741
33449W        W92710  18.228   2.779   1.425
33450W        W92711  17.156   9.870   4.814
33451W        W92712   5.834   8.818   5.255
33452W        W92713  33.418  42.948  10.990
33453W        W92714  25.636   5.863  11.899
33454W        W92715  18.675   5.331  11.481
33455W        W92716   5.353  22.722   3.297
33456W        W92717  34.068  37.454   0.346
33457W        W92718  37.543  26.689  14.457
33458W        W92719   1.746  23.518  11.970
33459W        W92720   1.439   8.270  13.352
33460W        W92721  12.676  24.652   3.780
33461W        W92722  31.547  14.666   0.367
33462W        W92723  39.326   3.286  14.827
33463W        W92724  30.129  10.723   2.187
33464W        W92725  31.943  35.395  10.446
33465W        W92726  27.091   2.865  12.470
33466W        W92727  29.969  10.302   4.672
33467W        W92728   6.298  40.802  11.452
33468W        W92729  18.053  10.658   0.872
33469W        W92730   7.232  43.928   1.788
33470W        W92731  43.282  11.305   0.477
33471W        W92732  10.664   7.860  14.805
33472W        W92733  15.234  30.539  14.760
33473W        W92734  10.747  36.059  13.805
33474W        W92735  27.492   8.214  10.429
33475W        W92736  23.110  15.104  13.402
33476W        W92737  14.604  26.670   3.644
33477W        W92738  33.993   0.262   1.439
33478W        W92739   8.655  24.973   3.768
33479W        W92740  20.217   9.657  11.080
33480W        W92741  37.004  24.121  13.994
33481W        W92742  17.176  19.127   9.452
33482W        W92743  23.032  40.030  12.991
33483W        W92744  24.719  43.964  13.038
33484W        W92745  21.589  33.543  11.949
33485W        W92746   0.290  13.787   2.901
33486W        W92747  26.504  24.008  12.070
33487W        W92748   4.724   8.727   5.189
33488W        W92749  19.091  23.596   2.665
33489W        W92750  37.979   5.316  13.938
33490W        W92751  37.953  40.921  11.543
33491W        W92752  19.763  37.549   4.688
33492W        W92753  30.530   6.250  12.465
33493W        W92754  44.868   1.426   1.395
33494W        W92755   0.403   6.778   3.678
33495W        W92756  31.043  33.573   1.369
33496W        W92757  19.202  12.720  13.844
33497W        W92758  12.316  16.190  13.915
33498W        W92759  11.727  10.300   5.199
33499W        W92760  41.919  15.088  12.972
33500W        W92761  30.078  30.561   0.328
33501W        W92762  14.604   1.363   1.398
33502W        W92763   7.765  12.801  10.029
33503W        W92764  15.314  13.249   4.620
33504W        W92765  27.561  36.864   0.855
33505W        W92766  32.015  14.615  13.884
33506W        W92767   0.330  34.098  12.572
33507W        W92768  30.490  15.234   3.690
33508W        W92769  36.895  28.624   3.643
33509W        W92770   4.320  42.464  11.075
33510W        W92771  25.060  14.591   2.196
33511W        W92772  35.872   9.668  12.424
33512W        W92773  38.549  43.861  10.979
33513W        W92774  18.293   7.760   1.931
33514W        W92775  42.862  42.451  14.855
33515W        W92776  37.335  22.728  10.643
33516W        W92777   1.340   2.431   2.213
33517W        W92778  10.309  27.169   0.831
33518W        W92779  31.949  13.331  14.914
33519W        W92780  19.670  14.115   3.834
33520W        W92781  38.868  25.595   9.612
33521W        W92782  17.566  43.835   4.249
33522W        W92783  27.028  35.010  10.587
33523W        W92784  35.508  16.134   1.309
33524W        W92785  38.989  14.195   4.245
33525W        W92786  26.147  21.191   1.722
33526W        W92787   7.342  25.517  14.449
33527W        W92788  27.976  44.431   1.328
33528W        W92789  11.840  36.997  12.439
33529W        W92790  11.336   6.374  14.894
33530W        W92791   2.254  32.555   4.336
33531W        W92792  35.920  20.677  13.338
33532W        W92793  33.380  18.158  12.072
33533W        W92794  13.713   0.475  13.346
33534W        W92795   8.679  18.177  12.377
33535W        W92796  30.422   4.917   4.780
33536W        W92797  14.336  40.542  12.529
33537W        W92798  17.225   0.838  12.855
33538W        W92799  31.493  41.804  10.916
33539W        W92800  41.472  35.393  11.879
33540W        W92801  24.024  14.125   3.834
33541W        W92802  10.160  24.072  12.369
33542W        W92803   5.410  44.799  11.015
33543W        W92804   3.292  19.561  13.953
33544W        W92805  20.720   4.776   2.871
33545W        W92806  18.067  30.089  11.985
33546W        W92807  31.499  16.790  10.546
33547W        W92808   5.230   8.795  12.377
33548W        W92809  22.027  43.475  11.500
33549W        W92810  32.442   7.210  14.907
33550W        W92811  34.890  21.636   4.721
33551W        W92812  43.984  11.294  12.962
33552W        W92813  31.501  19.264   1.283
33553W        W92814  31.954  24.096   4.258
33554W        W92815  42.365   6.247  12.020
33555W        W92816  21.155  44.859   1.414
33556W        W92817  13.251  37.839  14.015
33557W        W92818   6.828   2.782  13.460
33558W        W92819  26.612  18.195  14.889
33559W        W92820  26.548  35.081   4.689
33560W        W92821  17.154   3.453   1.415
33561W        W92822  32.609  39.394   3.785
33562W        W92823  10.214  30.591  12.872
33563W        W92824  27.684   1.822   0.242
33564W        W92825  42.405  39.367  12.918
33565W        W92826  38.543   6.713   2.876
33566W        W92827  28.982  40.473   0.303
33567W        W92828  38.340  34.017  12.384
33568W        W92829  16.728  25.527  14.442
33569W        W92830  18.196  29.101  13.888
33570W        W92831   7.740  36.083   3.846
33571W        W92832  25.476  30.584  14.871
33572W        W92833  36.028   3.893   3.832
33573W        W92834  43.445   7.738  14.416
33574W        W92835  30.596  18.694   0.835
33575W        W92836  10.762  32.635  10.406
33576W        W92837  33.053  36.995  13.458
33577W        W92838  41.019  18.556   2.190
33578W        W92839  20.745  27.978  11.029
33579W        W92840  43.469   3.788  13.348
33580W        W92841  14.329  43.940   2.234
33581W        W92842  31.466   8.272   0.772
33582W        W92843  21.691  41.502   0.406
33583W        W92844  17.067  10.152  14.317
33584W        W92845  10.160  17.711  12.437
33585W        W92846  13.199  34.944  10.926
33586W        W92847  38.570  25.562   0.296
33587W        W92848  42.371  40.858  12.985
33588W        W92849  25.122   2.819  10.488
33589W        W92850   3.241   5.798   2.712
33590W        W92851  34.572  41.870   0.961
33591W        W92852  42.780  17.646   2.366
33592W        W92853   1.269  14.134   3.720
33593W        W92854  32.957  27.189  10.616
33594W        W92855   9.307  13.600   1.795
33595W        W92856  17.618  33.931  14.391
33596W        W92857  43.842  17.089   1.759
33597W        W92858  24.029  26.065   4.609
33598W        W92859  27.103  35.956   1.908
33599W        W92860   2.379  40.908   4.672
33600W        W92861   5.259  44.915  12.440
33601W        W92862  44.996  36.012  13.444
33602W        W92863   5.781  34.591   1.781
33603W        W92864  34.497  26.122  12.540
33604W        W92865  13.227  12.159   0.377
33605W        W92866   7.322   7.255  11.508
33606W        W92867   3.928  43.302   3.171
33607W        W92868   1.277  31.086   4.763
33608W        W92869  18.084  39.863   0.484
33609W        W92870  43.819  16.164   0.919
33610W        W92871  29.024  20.638   4.733
33611W        W92872  26.524  26.595  12.050
33612W        W92873  10.314  11.244  13.464
33613W        W92874   1.429  22.153   2.302
33614W        W92875  13.663  36.033   1.808
33615W        W92876   7.200  41.900   1.364
33616W        W92877  17.157  19.228   1.222
33617W        W92878  40.832   4.810   0.431
33618W        W92879  27.106  23.550   4.167
33619W        W92880  29.965  36.522  13.365
33620W        W92881  32.933  23.721  13.507
33621W        W92882  40.905  38.879  11.594
33622W        W92883  18.263  32.015   0.471
33623W        W92884   7.399   3.349   3.369
33624W        W92885  29.976  42.479   1.277
33625W        W92886   7.379  22.083  11.897
33626W        W92887  31.904  10.151   1.820
33627W        W92888  39.817  27.569   1.213
33628W        W92889  43.953   7.730   2.306
33629W        W92890   8.702  29.930   4.605
33630W        W92891   0.978   0.473  14.348
33631W        W92892  35.459  17.685   3.772
33632W        W92893  17.124  15.766   2.381
33633W        W92894  30.528  34.087  11.003
33634W        W92895  39.368  37.450   2.346
33635W        W92896  38.457  23.164  12.884
33636W        W92897  16.596  20.620   4.694
33637W        W92898  38.498  31.460   4.159
33638W        W92899  24.087   8.312  11.040
33639W        W92900  28.540  30.652   0.343
33640W        W92901  29.515  11.839   2.185
33641W        W92902  34.025  38.921   4.140
33642W        W92903  32.055  10.845   1.770
33643W        W92904  38.978   9.823  10.501
33644W        W92905  41.952   6.895   2.393
33645W        W92906  15.643  42.890  14.843
33646W        W92907  33.418  43.363  11.984
33647W        W92908  20.159  22.563  13.525
33648W        W92909  31.618  15.742  14.399
33649W        W92910  11.364  37.464  10.528
33650W        W92911   5.909  28.052  14.293
33651W        W92912  24.613  34.065   0.779
33652W        W92913  42.965   1.346  12.976
33653W        W92914  24.153  15.167   2.817
33654W        W92915  38.028  36.031   4.181
33655W        W92916   8.727   8.245  11.407
33656W        W92917  11.294   7.882  13.956
33657W        W92918  37.397  29.646  10.891
33658W        W92919  38.885   3.416   0.466
33659W        W92920  25.496   7.705   3.798
33660W        W92921  34.983  25.033   4.291
33661W        W92922  28.536   0.743   4.176
33662W        W92923  23.230  28.010  13.963
33663W        W92924  31.502   9.346   2.249
33664W        W92925  17.669  38.570  12.057
33665W        W92926  27.158  12.622  14.028
33666W        W92927  26.981   6.711  10.620
33667W        W92928   7.192  44.316  12.862
33668W        W92929  43.843  34.085  13.056
33669W        W92930  10.188   8.181  14.489
33670W        W92931  29.109  32.496  11.011
33671W        W92932  16.574   2.264  14.840
33672W        W92933  36.454  34.412  12.444
33673W        W92934  37.426   4.356   0.762
33674W        W92935  21.024  22.730   4.171
33675W        W92936  38.368  18.243  11.887
33676W        W92937  19.580  44.302   4.188
33677W        W92938   7.753   3.405   2.774
33678W        W92939   0.788  33.035   2.866
33679W        W92940  36.892  23.231   1.711
33680W        W92941   8.351   5.833   0.455
33681W        W92942  10.782   3.423   0.829
33682W        W92943  28.956  38.332  13.866
33683W        W92944  17.112  38.377  14.945
33684W        W92945  29.468  29.448   4.142
33685W        W92946   6.410  13.732  14.775
33686W        W92947   4.395  38.822  14.288
33687W        W92948  25.078  37.383   1.844
33688W        W92949  19.235  30.445   3.720
33689W        W92950  29.461  15.718   3.762
33690W        W92951  10.230   4.721   1.448
33691W        W92952  29.134  11.260   3.714
33692W        W92953  23.194  28.086   4.296
33693W        W92954  41.517  11.254   3.207
33694W        W92955   4.390  40.482  13.859
33695W        W92956  23.136  11.829   3.184
33696W        W92957  44.897  37.582  12.442
33697W        W92958  34.478  33.400   2.210
33698W        W92959  18.129  43.983  13.423
33699W        W92960   4.920  20.689  11.418
33700W        W92961  25.606  38.513   1.878
33701W        W92962  24.991   7.805  10.951
33702W        W92963  26.543  15.715  10.483
33703W        W92964  29.166  17.589   1.289
33704W        W92965  37.083  30.096  14.376
33705W        W92966  31.515  12.694   1.445
33706W        W92967  21.725   7.355  14.790
33707W        W92968  10.687   0.958  10.578
33708W        W92969   7.860  13.338   1.248
33709W        W92970  20.042  11.831   2.362
33710W        W92971  33.426  12.171  12.392
33711W        W92972   4.719  13.279   2.181
33712W        W92973  44.310  21.247   2.221
33713W        W92974  25.995   3.266   1.383
33714W        W92975  17.666  18.742  14.828
33715W        W92976  14.606  37.481  12.572
33716W        W92977  29.477  18.261   4.239
33717W        W92978   9.232  43.465   0.290
33718W        W92979  18.292  15.194   2.791
33719W        W92980   9.669  32.444   0.412
33720W        W92981   2.239   8.820   4.253
33721W        W92982  29.993  13.774  14.909
33722W        W92983  36.070   9.742   2.378
33723W        W92984   7.362  25.036   0.321
33724W        W92985   4.331  24.005  11.896
33725W        W92986  40.336  10.762   2.394
33726W        W92987  12.714  39.391   4.151
33727W        W92988  39.844  21.596   4.830
33728W        W92989  18.749   2.837  11.873
33729W        W92990  42.968  12.121  11.417
33730W        W92991  22.169  14.211  12.885
33731W        W92992   9.710  32.087  13.543
33732W        W92993  30.474   9.738   1.799
33733W        W92994   5.267  33.440   1.225
33734W        W92995   4.341   7.850  14.299
33735W        W92996   6.188  11.703  14.492
33736W        W92997  18.148   1.923   1.851
33737W        W92998   5.337   6.268   0.843
33738W        W92999   7.279  30.950   2.413
33739W        W93000  21.677  31.529   1.878
33740W        W93001  44.955   6.269   3.268
33741W        W93002   0.980   6.428  13.861
33742W        W93003  33.891  26.508   0.954
33743W        W93004  19.219  32.571   1.337
33744W        W93005   3.952  44.961   4.266
33745W        W93006   0.879   0.409  12.366
33746W        W93007  15.761  44.951   3.332
33747W        W93008  40.368   1.443   2.894
33748W        W93009  25.207  18.639   1.400
33749W        W93010  36.099   2.256  13.883
33750W        W93011  30.630   2.246  10.621
33751W        W93012  23.596  26.205   4.177
33752W        W93013  32.898  40.843   1.764
33753W        W93014  39.996   9.665   4.785
33754W        W93015  15.180  20.117  11.606
33755W        W93016   3.224  28.440   2.723
33756W        W93017  17.776  24.164   0.764
33757W        W93018  34.553   2.828   3.372
33758W        W93019  43.447  42.478   2.827
33759W        W93020  24.609  33.085  11.539
33760W        W93021  25.596   5.725   4.756
33761W        W93022   5.304   8.168  12.392
33762W        W93023  39.985  24.047  12.904
33763W        W93024  40.549  17.700   5.231
33764W        W93025  11.746  18.267   9.997
33765W        W93026  15.236  26.474  11.425
33766W        W93027  37.571  44.971   0.827
33767W        W93028  23.053  34.069   3.659
33768W        W93029  24.495  12.153   4.647
33769W        W93030   3.426  38.570   3.722
33770W        W93031  16.131  37.354  11.482
33771W        W93032  15.668  43.274  12.384
33772W        W93033  40.541  10.320   4.163
33773W        W93034  44.936   0.816  14.773
33774W        W93035  33.566  13.245   0.774
33775W        W93036  19.132  20.725   3.185
33776W        W93037  13.747  33.946  10.952
33777W        W93038  32.946   6.331  11.575
33778W        W93039  20.130  20.234  11.479
33779W        W93040  12.666  37.927   1.819
33780W        W93041  39.431   0.442   4.240
33781W        W93042  43.516  20.661  12.953
33782W        W93043  24.637   1.964   5.142
33783W        W93044  13.172   0.256   2.240
33784W        W93045  26.072  37.080   0.737
33785W        W93046   2.757  33.022  11.395
33786W        W93047  14.119  31.008   5.270
33787W        W93048  20.125  27.129  12.038
33788W        W93049  34.074  31.555   2.297
33789W        W93050  42.016  22.569  14.790
33790W        W93051  11.196  23.047   1.215
33791W        W93052  35.460  30.961   1.230
33792W        W93053  27.611  27.013   3.290
33793W        W93054  18.127  43.944   1.422
33794W        W93055   8.219  27.120  11.091
33795W        W93056  11.746   0.835   2.265
33796W        W93057  32.573   4.366  14.004
33797W        W93058  37.571  23.495   9.954
33798W        W93059  27.968  42.405   1.352
33799W        W93060  15.125  30.570   2.344
33800W        W93061  44.996  42.011   3.678
33801W        W93062  41.803  34.446   2.301
33802W        W93063  36.412  26.473   5.260
33803W        W93064  36.095  42.293  13.891
33804W        W93065  10.768   6.710   4.290
33805W        W93066  13.676  19.725   0.875
33806W        W93067  12.656  40.945  13.397
33807W        W93068  42.013  31.912  11.911
33808W        W93069  12.857   2.866  14.448
33809W        W93070  29.490  23.506  11.908
33810W        W93071   5.235  43.330   1.742
33811W        W93072  33.104  29.067   1.286
33812W        W93073   5.362  10.670   0.367
33813W        W93074  30.086  30.044  10.112
33814W        W93075   8.197  34.883  12.481
33815W        W93076  36.022  28.442   2.820
33816W        W93077   2.838  41.514   0.316
33817W        W93078  15.319  34.372   1.241
33818W        W93079   5.253  15.581   3.837
33819W        W93080  39.968  26.593   1.280
33820W        W93081  27.107  43.898   3.707
33821W        W93082  27.039  34.986   5.290
33822W        W93083  31.056   0.901  14.912
33823W        W93084  12.172   3.391   2.225
33824W        W93085   2.350  44.389  11.902
33825W        W93086  35.013  34.520  12.417
33826W        W93087  39.065  37.464   0.386
33827W        W93088  44.976   7.190   0.474
33828W        W93089  22.506   2.297  14.418
33829W        W93090  17.782   7.838  13.825
33830W        W93091  31.900  37.438  13.321
33831W        W93092  35.980  32.398   4.210
33832W        W93093  15.182  21.645   2.711
33833W        W93094   8.176  31.513   4.116
33834W        W93095  31.445  20.039   2.257
33835W        W93096  24.043  44.913  10.980
33836W        W93097  28.648   0.920   3.174
33837W        W93098  18.596  25.024   4.306
33838W        W93099  42.499  27.470   0.472
33839W        W93100  41.477   2.298   1.336
33840W        W93101  21.634   2.946  12.458
33841W        W93102  31.973  34.013  12.956
33842W        W93103  38.359  14.220  12.444
33843W        W93104  38.834  12.235   4.615
33844W        W93105  10.653  35.538   2.259
33845W        W93106  29.452  11.268  13.977
33846W        W93107   1.826  20.260   3.749
33847W        W93108  12.817  25.973  12.497
33848W        W93109   5.222  40.351   1.320
33849W        W93110  21.202  24.711  12.980
33850W        W93111  41.924  40.877  13.472
33851W        W93112  28.531   4.330  12.475
33852W        W93113  31.082  16.089  14.914
33853W        W93114   4.221  28.461  13.317
33854W        W93115   9.693  41.011   4.643
33855W        W93116   7.279  18.054   4.187
33856W        W93117  39.435  15.591   3.707
33857W        W93118  18.700  28.463  12.367
33858W        W93119   9.860  10.274   2.299
33859W        W93120   5.766   9.185  14.964
33860W        W93121  27.976  29.048   0.954
33861W        W93122  30.126   4.893  11.424
33862W        W93123  13.258  23.691   5.239
33863W        W93124  11.320  15.821   0.732
33864W        W93125  38.037  24.550  13.926
33865W        W93126  14.686  20.530  11.065
33866W        W93127  30.083  25.529  13.383
33867W        W93128  41.520  44.965  14.292
33868W        W93129  15.785  10.745   2.826
33869W        W93130  35.588  28.652   1.299
33870W        W93131  14.739  25.677  11.411
33871W        W93132  19.100  36.001   4.336
33872W        W93133  24.987  39.880   3.150
33873W        W93134   6.398  26.632  10.004
33874W        W93135   9.690  31.642   3.344
33875W        W93136  13.777  43.431   4.136
33876W        W93137  20.141  22.743  13.029
33877W        W93138   1.772  10.741  14.327
33878W        W93139   1.243  26.043   4.753
33879W        W93140   4.853   0.478  13.023
33880W        W93141  44.484  44.833   4.827
33881W        W93142  38.012  39.349   4.745
33882W        W93143  17.072  32.056   4.195
33883W        W93144  26.626  44.410   1.796
33884W        W93145  44.835   9.150  13.431
33885W        W93146  40.438  21.677  13.523
33886W        W93147  37.066  42.805  10.893
33887W        W93148  40.997  25.523   0.328
33888W        W93149  15.630  11.267  14.882
33889W        W93150  15.821   6.359  14.311
33890W        W93151  19.597  35.011   3.376
33891W        W93152  15.158   5.870   2.267
33892W        W93153   3.339  19.223   1.371
33893W        W93154   7.867  23.096  11.493
33894W        W93155  40.531   8.767   4.681
33895W        W93156  26.978  44.490   5.787
33896W        W93157  28.997  34.587   3.758
33897W        W93158   4.330  18.550   3.750
33898W        W93159  14.736   6.827   2.875
33899W        W93160  32.500  22.744  11.483
33900W        W93161   1.443  21.636   1.226
33901W        W93162  26.098   4.829   1.422
33902W        W93163  17.754  34.538   0.303
33903W        W93164  23.591  23.226   2.395
33904W        W93165  25.150  36.350  13.859
33905W        W93166  14.668   1.327   2.716
33906W        W93167  11.862   7.360   4.792
33907W        W93168  28.961   8.326   4.713
33908W        W93169  34.060  32.447  13.314
33909W        W93170   2.953   7.271   3.704
33910W        W93171   6.684  10.747   0.269
33911W        W93172  13.180  25.005   9.992
33912W        W93173  16.691  38.542   3.834
33913W        W93174  11.807  32.939  14.317
33914W        W93175  13.609  34.538  13.472
33915W        W93176  17.668  41.868  14.777
33916W        W93177  24.000  28.667  12.572
33917W        W93178  34.120  36.445   2.368
33918W        W93179  27.944  32.077  14.473
33919W        W93180  21.652  24.226   3.681
33920W        W93181  12.788  35.442  11.869
33921W        W93182   3.840  11.647  10.509
33922W        W93183  11.649  32.604   4.138
33923W        W93184   6.183  33.090   4.810
33924W        W93185  26.613  31.026  10.418
33925W        W93186  28.576  37.880  12.887
33926W        W93187  40.484  29.659   3.257
33927W        W93188  23.630  22.710   0.848
33928W        W93189   9.309  33.555  10.966
33929W        W93190   6.891   7.728   3.194
33930W        W93191  19.597   5.760  14.779
33931W        W93192   4.718  12.669  11.610
33932W        W93193   6.817   1.468   2.227
33933W        W93194  43.972  29.013  14.921
33934W        W93195  18.589   9.224   1.715
33935W        W93196  18.117  13.691   0.882
33936W        W93197   5.702  36.099   0.449
33937W        W93198  11.349  34.578  10.552
33938W        W93199  15.588   4.233   2.233
33939W        W93200  43.871  37.953   2.737
33940W        W93201  43.419  36.370   4.345
33941W        W93202  24.599  24.029  11.455
33942W        W93203  27.614  29.988  12.060
33943W        W93204  34.606  30.616  13.864
33944W        W93205   2.852  12.221  14.506
33945W        W93206   3.236   0.427  10.417
33946W        W93207   0.337   6.687  11.989
33947W        W93208  10.195   1.794  14.307
33948W        W93209  40.504  15.620  12.045
33949W        W93210  17.559  20.598  14.761
33950W        W93211   3.458  39.508   1.782
33951W        W93212  28.004  28.513   3.645
33952W        W93213  12.219  26.142  14.879
33953W        W93214  29.951  14.829  12.358
33954W        W93215  18.092  22.558   3.374
33955W        W93216   6.365  18.638  10.970
33956W        W93217  12.174  20.169  12.518
33957W        W93218  40.815  27.110   5.303
33958W        W93219  15.813  27.064  14.006
33959W        W93220   8.334   6.208  13.470
33960W        W93221  28.680   2.768  12.445
33961W        W93222   4.806  23.577  11.900
33962W        W93223  44.802  10.319  11.862
33963W        W93224  38.364  43.303   3.180
33964W        W93225   8.268   0.835  13.536
33965W        W93226  12.148  31.432   4.774
33966W        W93227  10.707   1.249  14.326
33967W        W93228  31.094   2.233   3.712
33968W        W93229   2.380  41.341   1.412
33969W        W93230  30.162  38.930  11.128
33970W        W93231  21.642  21.530   3.749
33971W        W93232  19.587  34.561   2.846
33972W        W93233  29.433  32.008  14.468
33973W        W93234   9.383  18.582  10.918
33974W        W93235  20.264  24.982   3.337
33975W        W93236  37.863  33.559   3.829
33976W        W93237  37.570  21.210   1.430
33977W        W93238  36.868  16.186   4.620
33978W        W93239  23.627  27.591  12.055
33979W        W93240  35.466  15.817  12.840
33980W        W93241   4.439   7.223   1.347
33981W        W93242   2.878  10.711   2.852
33982W        W93243  36.005  29.476   2.245
33983W        W93244  16.635  34.387   0.254
33984W        W93245  11.758   4.236  12.847
33985W        W93246   2.404  25.687  14.002
33986W        W93247  41.802  43.303  11.505
33987W        W93248  41.367   6.297  13.925
33988W        W93249  41.801  12.742  14.862
33989W        W93250  15.139  26.184   5.714
33990W        W93251  34.612  39.906  10.970
33991W        W93252  30.949  23.213   4.610
33992W        W93253   9.830  12.207  12.506
33993W        W93254   5.708  28.131  13.449
33994W        W93255   6.398  36.024  11.992
33995W        W93256   2.244  19.221   0.938
33996W        W93257   8.254  14.655   1.785
33997W        W93258   5.814  39.392   3.264
33998W        W93259   9.358  26.680   2.713
33999W        W93260  23.993  12.267  12.461
34000W        W93261  24.512  40.417  11.128
34001W        W93262  24.559  15.320  12.024
34002W        W93263  15.129  20.539  14.311
34003W        W93264  33.035  44.814  14.016
34004W        W93265   4.944  15.716  10.639
34005W        W93266  43.438  29.025   2.837
34006W        W93267  24.578  18.737   1.270
34007W        W93268  18.600  34.882  14.478
34008W        W93269  39.386  33.892   0.930
34009W        W93270  22.584  26.064   2.376
34010W        W93271  23.008  32.474   5.115
34011W        W93272  44.437   4.708   4.639
34012W        W93273   8.369   8.173  14.828
34013W        W93274   8.882  13.644   0.463
34014W        W93275  25.643  31.109  11.595
34015W        W93276  42.523  25.656   2.277
34016W        W93277  38.891  15.313   2.810
34017W        W93278  35.942  41.883  10.471
34018W        W93279  36.421  19.248  10.946
34019W        W93280  13.697  11.845   0.929
34020W        W93281  29.164  43.866  12.396
34021W        W93282   6.390  11.208   2.274
34022W        W93283  34.406  20.659  11.040
34023W        W93284  38.479  19.562   2.412
34024W        W93285  33.558  21.150   2.305
34025W        W93286  22.614   6.735  14.362
34026W        W93287  38.375  20.097  14.462
34027W        W93288  40.350  29.028   3.258
34028W        W93289  20.559  18.143   0.773
34029W        W93290  18.085  29.063  13.482
34030W        W93291   1.408   2.782  13.939
34031W        W93292  31.974  21.047   4.181
34032W        W93293  37.863  24.608  12.931
34033W        W93294  32.420  11.834  11.601
34034W        W93295  34.427  10.192   2.868
34035W        W93296  35.037   1.838   1.267
34036W        W93297  11.293  17.754  12.021
34037W        W93298  14.121   0.418   0.855
34038W        W93299   2.227   6.286  12.955
34039W        W93300  32.011  44.856  11.476
34040W        W93301   2.310  10.300  12.045
34041W        W93302  10.319   5.399  10.454
34042W        W93303  40.848   1.884  13.894
34043W        W93304  24.155  25.531  12.340
34044W        W93305   3.775  25.995  11.075
34045W        W93306  30.419  21.548   4.341
34046W        W93307  20.677   3.766  12.455
34047W        W93308  24.135  33.120  10.528
34048W        W93309  19.623  30.442   0.837
34049W        W93310  15.262   5.841  12.912
34050W        W93311  29.628  44.879   0.449
34051W        W93312  22.091  24.138   3.254
34052W        W93313  19.126  40.951   2.675
34053W        W93314   9.287   6.426   3.288
34054W        W93315  10.839  44.800  10.990
34055W        W93316  38.342  34.942   2.700
34056W        W93317  20.741  41.936   2.726
34057W        W93318  27.002  27.662  13.016
34058W        W93319  16.225  43.945  12.376
34059W        W93320  11.857  35.006   4.114
34060W        W93321   0.453  28.627   1.903
34061W        W93322  27.065  21.739   3.711
34062W        W93323  14.802  41.302  11.110
34063W        W93324  15.614   7.179   0.957
34064W        W93325  31.512  39.448  12.399
34065W        W93326  16.682  38.968   4.243
34066W        W93327   6.410  30.607  14.415
34067W        W93328   7.273   6.375  12.546
34068W        W93329  11.707  21.171  12.376
34069W        W93330  13.281  10.866   0.903
34070W        W93331  10.221   0.481   1.935
34071W        W93332  24.159   1.420   9.640
34072W        W93333  12.836  12.776   2.292
34073W        W93334  11.304   2.916  11.435
34074W        W93335  35.083  27.107  14.309
34075W        W93336  30.118   6.204   3.634
34076W        W93337  42.898  18.089  13.484
34077W        W93338  34.991  28.090   3.742
34078W        W93339   3.733  37.478  10.945
34079W        W93340  21.201  11.373   4.239
34080W        W93341  29.041  28.952   4.605
34081W        W93342   3.798  44.278  10.574
34082W        W93343  16.590  36.057  14.007
34083W        W93344   4.361  15.683  12.891
34084W        W93345  14.259  14.138   0.756
34085W        W93346  16.295  19.734  13.455
34086W        W93347  30.949   0.334  14.381
34087W        W93348  31.995   8.702  12.418
34088W        W93349  26.457  34.399   0.817
34089W        W93350   8.738  30.004   2.752
34090W        W93351  24.058  23.569  10.562
34091W        W93352  43.945  27.681   1.711
34092W        W93353  37.415  13.200  14.306
34093W        W93354  37.413  19.695   0.458
34094W        W93355  35.918  16.786   2.187
34095W        W93356   0.459  26.094   1.899
34096W        W93357  19.165  39.041  12.876
34097W        W93358  16.656  38.947  11.467
34098W        W93359  19.684   2.457   1.721
34099W        W93360  32.460  24.639   0.748
34100W        W93361   5.779  17.763   0.919
34101W        W93362  43.017  24.077  11.078
34102W        W93363  10.697  17.188  14.436
34103W        W93364  34.609  22.126  12.555
34104W        W93365  39.387  37.532  14.002
34105W        W93366  26.562  29.463   4.264
34106W        W93367  37.536  42.904   0.336
34107W        W93368  42.864  26.015   0.364
34108W        W93369  28.500  12.715  10.458
34109W        W93370  10.875  11.779  11.387
34110W        W93371  17.159  25.565  13.451
34111W        W93372  21.573  26.169   3.662
34112W        W93373  30.482  27.027  11.955
34113W        W93374  12.272  33.594  14.998
34114W        W93375  18.064  25.069  13.332
34115W        W93376  16.298  39.427   3.186
34116W        W93377  15.707  11.231   0.870
34117W        W93378  27.640  37.413  10.510
34118W        W93379   7.296   1.304  12.539
34119W        W93380  22.706   2.852  10.996
34120W        W93381   6.720  23.706  14.402
34121W        W93382  11.143  24.074   3.279
34122W        W93383  31.520   4.403  14.386
34123W        W93384  15.680  17.307   5.258
34124W        W93385   3.419  37.546   0.820
34125W        W93386  12.342  19.739   2.251
34126W        W93387  19.548  18.195   4.626
34127W        W93388  17.690  44.327   1.815
34128W        W93389  32.614  20.571  13.933
34129W        W93390   0.884   2.407  14.808
34130W        W93391  19.630  29.117   2.898
34131W        W93392  15.661  35.881  13.480
34132W        W93393  41.901  40.426   2.877
34133W        W93394  36.513   5.835  12.914
34134W        W93395  15.264  43.883   3.230
34135W        W93396  39.920   6.225   3.307
34136W        W93397  17.606  36.958  13.813
34137W        W93398   8.169  42.464   1.249
34138W        W93399  40.000  31.899   0.444
34139W        W93400  42.947   9.830   1.696
34140W        W93401  13.323  43.477  12.451
34141W        W93402  38.476   1.312  14.865
34142W        W93403  36.481  41.000  13.357
34143W        W93404   1.356  18.219   4.298
34144W        W93405  14.752   9.159   0.837
34145W        W93406  44.918   5.277  11.969
34146W        W93407  35.872  14.213  12.001
34147W        W93408  37.439  43.909  11.874
34148W        W93409  12.854  12.699   0.837
34149W        W93410  40.505  32.930  10.461
34150W        W93411  13.607  20.106   4.694
34151W        W93412  30.496   5.387  10.621
34152W        W93413  40.994  15.656   3.375
34153W        W93414  25.162   1.732  14.761
34154W        W93415   0.817  42.410   1.933
34155W        W93416  27.975  38.344   3.858
34156W        W93417   2.421  25.039   5.309
34157W        W93418  22.087  12.684   2.884
34158W        W93419  24.974  13.173  12.347
34159W        W93420  40.931  23.140  10.897
34160W        W93421   0.885   9.829   2.691
34161W        W93422  25.152  25.992  12.905
34162W        W93423   3.795  28.057   3.280
34163W        W93424  30.959  33.458  10.433
34164W        W93425  44.995  14.814  12.456
34165W        W93426  19.283  28.565   5.136
34166W        W93427  44.359   1.434   4.216
34167W        W93428   1.238   6.708  12.840
34168W        W93429  29.090  23.019   3.833
34169W        W93430  15.711  41.852  14.493
34170W        W93431  24.113   8.833   0.885
34171W        W93432  32.577  36.048   4.715
34172W        W93433  20.191   2.932   0.962
34173W        W93434  20.150  23.726   4.626
34174W        W93435  13.620   2.443  11.390
34175W        W93436  33.111  42.509   2.804
34176W        W93437  34.505  25.538   0.902
34177W        W93438  37.376  22.198  14.341
34178W        W93439  18.764   2.302   1.225
34179W        W93440  21.060   8.783   5.275
34180W        W93441  25.178  38.937  10.981
34181W        W93442  10.785  29.138  13.516
34182W        W93443  35.565  31.584   2.180
34183W        W93444  41.925   5.292   2.723
34184W        W93445  41.827  14.723   5.191
34185W        W93446  44.471  17.614  13.892
34186W        W93447  31.042  27.152   4.762
34187W        W93448   2.723  29.431  14.309
34188W        W93449  20.232  19.752   3.163
34189W        W93450  16.763  33.129  13.036
34190W        W93451  16.787   3.275  13.311
34191W        W93452  30.417  44.782  14.924
34192W        W93453  34.488  15.232  10.589
34193W        W93454  14.599   8.269   1.359
34194W        W93455  27.078  22.252  13.482
34195W        W93456  25.013  39.024   2.805
34196W        W93457  32.574  25.103   4.743
34197W        W93458  27.484  11.821   4.171
34198W        W93459  11.155  27.492   3.669
34199W        W93460  21.683  41.803  11.105
34200W        W93461  26.003  29.580   2.798
34201W        W93462  25.542  41.525  10.442
34202W        W93463  21.171  37.054   0.337
34203W        W93464  23.573   4.213   2.668
34204W        W93465   8.755  34.019  13.996
34205W        W93466  19.634  14.278   0.286
34206W        W93467  29.128  14.600   1.909
34207W        W93468   1.964  11.349   3.179
34208W        W93469  44.986  33.089   2.742
34209W        W93470  35.959  27.613   3.189
34210W        W93471  17.623   9.354  10.059
34211W        W93472  22.078  40.312   2.403
34212W        W93473  13.647  16.727   2.757
34213W        W93474  39.882   2.922  12.097
34214W        W93475  14.238  33.941   0.801
34215W        W93476   7.271  42.983  12.523
34216W        W93477  36.888  17.217  12.516
34217W        W93478  35.921  32.449   3.292
34218W        W93479  30.583  30.912   3.693
34219W        W93480  23.578  25.683  10.528
34220W        W93481  30.442   4.775   4.148
34221W        W93482  30.575  19.228   3.361
34222W        W93483   1.795   5.194  13.370
34223W        W93484  39.829  30.528  11.027
34224W        W93485  36.580   2.338   1.224
34225W        W93486  10.767  13.232   4.136
34226W        W93487   5.713  24.643  10.936
34227W        W93488  32.019   7.717  11.104
34228W        W93489  34.082  20.704  13.426
34229W        W93490  43.377   2.399  10.941
34230W        W93491  12.758  18.567   1.307
34231W        W93492  24.624  28.528  13.999
34232W        W93493  25.480   6.311  11.608
34233W        W93494  30.955   9.825   0.802
34234W        W93495   1.915  40.318  11.484
34235W        W93496  14.624  28.085   1.895
34236W        W93497   2.725  22.739   4.279
34237W        W93498   9.207  28.142  11.887
34238W        W93499  40.549  34.067  14.992
34239W        W93500  16.802  19.172   0.807
34240W        W93501  20.065   3.224   9.942
34241W        W93502   5.303  20.689  12.458
34242W        W93503   4.838  37.957  11.425
34243W        W93504  16.122   9.821   3.221
34244W        W93505  34.613  12.211   3.755
34245W        W93506  19.080   0.764   1.213
34246W        W93507   4.871   9.291  11.898
34247W        W93508   5.306   4.929   4.332
34248W        W93509   5.415  25.481   4.680
34249W        W93510  14.720  39.526  13.497
34250W        W93511  24.039  25.183  10.992
34251W        W93512  19.618   9.150  12.518
34252W        W93513  23.030   2.872  14.488
34253W        W93514  26.170  29.989  13.336
34254W        W93515  43.363  14.147   1.225
34255W        W93516  31.012  10.824  13.895
34256W        W93517  14.616  18.279   1.283
34257W        W93518  19.556   8.699   4.752
34258W        W93519   7.757   8.862   1.390
34259W        W93520  36.984   8.894   3.757
34260W        W93521  18.241   1.943   3.262
34261W        W93522  24.059   3.947  11.902
34262W        W93523  32.031  29.661  13.835
34263W        W93524  22.554  26.024   4.273
34264W        W93525   1.433  17.772   0.906
34265W        W93526  26.020  22.072   4.291
34266W        W93527   1.466   5.409  14.310
34267W        W93528  18.690  18.118   4.650
34268W        W93529   6.813   5.733   0.813
34269W        W93530  11.734  24.510   3.312
34270W        W93531  32.033   6.241  13.904
34271W        W93532  40.801   1.910  12.828
34272W        W93533  39.510  24.034  10.968
34273W        W93534  41.957  25.038   2.290
34274W        W93535   1.267  15.157  14.348
34275W        W93536   5.235  20.618   0.935
34276W        W93537   6.729  17.651   4.641
34277W        W93538  38.941  15.791  14.997
34278W        W93539  16.578   2.319  12.857
34279W        W93540  31.032  35.603  14.400
34280W        W93541  19.219   6.814  11.111
34281W        W93542  30.531  11.674   2.869
34282W        W93543  11.660  43.999   1.333
34283W        W93544   0.872  11.358  12.866
34284W        W93545   9.355   8.829   4.150
34285W        W93546  20.177  33.890  10.967
34286W        W93547  28.525   9.167   2.222
34287W        W93548  42.817  34.033   2.404
34288W        W93549  29.620  11.222  12.382
34289W        W93550   0.856   0.382   0.298
34290W        W93551  23.604  27.527   4.707
34291W        W93552  33.471  44.309   3.730
34292W        W93553  43.422  13.634  13.992
34293W        W93554  13.230  42.317  14.964
34294W        W93555  35.885   1.817   3.722
34295W        W93556  25.577  42.887  14.990
34296W        W93557   7.254   6.808   2.250
34297W        W93558  43.283  26.585   0.752
34298W        W93559   6.708  39.007   2.789
34299W        W93560  29.128  18.151  14.979
34300W        W93561   2.931  11.692  14.430
34301W        W93562  15.628  27.984  14.939
34302W        W93563  43.002  27.689  10.570
34303W        W93564  33.025  28.602  13.374
34304W        W93565  37.552  34.538  14.761
34305W        W93566   2.321  29.560   3.329
34306W        W93567   0.879  24.631  12.091
34307W        W93568  32.087  33.966   1.847
34308W        W93569   2.348  44.812  14.835
34309W        W93570  26.004  21.082  12.412
34310W        W93571  27.115   6.188  11.111
34311W        W93572  18.152  26.462   4.773
34312W        W93573  21.587  10.149   2.725
34313W        W93574  10.691  40.918   2.692
34314W        W93575  29.168  39.541   1.712
34315W        W93576  32.908   3.918   2.397
34316W        W93577  17.696  41.874  13.980
34317W        W93578  24.490  23.035  10.563
34318W        W93579  22.997   0.839  10.632
34319W        W93580  10.331  22.086   3.730
34320W        W93581  11.682  31.506  13.424
34321W        W93582   8.402  22.599   1.271
34322W        W93583  14.658  42.955   0.265
34323W        W93584  34.425  30.023   2.875
34324W        W93585   9.741   7.789  13.342
34325W        W93586  16.791  29.986  14.954
34326W        W93587   5.914  38.358   2.232
34327W        W93588   9.724   7.303  10.971
34328W        W93589  34.590  17.109  10.583
34329W        W93590  14.743  12.269   0.470
34330W        W93591  38.541  35.478   1.894
34331W        W93592   6.723  16.630   0.966
34332W        W93593  35.061  33.435   0.871
34333W        W93594   0.925   4.817  12.901
34334W        W93595   4.237  44.390   2.895
34335W        W93596  19.685  12.824   2.732
34336W        W93597  36.995  12.344   4.833
34337W        W93598  23.634   2.451  13.385
34338W        W93599  22.063   1.829   4.815
34339W        W93600  28.596  40.323   3.228
34340W        W93601  23.985  32.600   1.837
34341W        W93602  30.427  38.927  14.435
34342W        W93603   1.761  10.159   0.325
34343W        W93604   2.317  18.051  11.509
34344W        W93605  32.936  16.220  13.983
34345W        W93606  19.098  22.533  13.379
34346W        W93607  19.548  44.942  10.893
34347W        W93608   9.241   0.915  14.978
34348W        W93609  43.334  41.842  11.913
34349W        W93610  16.674  40.987   4.740
34350W        W93611  24.682  36.925   1.924
34351W        W93612   3.938  44.324  14.923
34352W        W93613  25.633   6.762   1.836
34353W        W93614  41.397  12.838   0.743
34354W        W93615   7.268  30.950   1.381
34355W        W93616   2.916  16.162   4.276
34356W        W93617  33.058  15.169   0.437
34357W        W93618  42.879  14.589  12.956
34358W        W93619  20.086  12.143   1.758
34359W        W93620  38.872  40.817   2.716
34360W        W93621  30.101   4.347   4.721
34361W        W93622  23.176  36.089   4.688
34362W        W93623  35.920  13.256   2.349
34363W        W93624  40.443  35.915   2.261
34364W        W93625   6.196  34.612  12.531
34365W        W93626  22.239  24.664  10.430
34366W        W93627  21.689  32.078  12.519
34367W        W93628  21.155  19.185  14.895
34368W        W93629  30.061  15.156  10.497
34369W        W93630   2.270  33.914   3.169
34370W        W93631  26.612   0.885   5.230
34371W        W93632  15.659  17.622  14.020
34372W        W93633  17.771  33.908   3.226
34373W        W93634  34.506   8.844   2.828
34374W        W93635  34.485  11.724  11.893
34375W        W93636  40.006  37.004  14.281
34376W        W93637  24.627   9.672  14.795
34377W        W93638  18.688  42.428   1.421
34378W        W93639  28.485   9.316  14.479
34379W        W93640   8.783  29.963   0.276
34380W        W93641  14.225   5.701   1.910
34381W        W93642  38.939   3.811  10.155
34382W        W93643   5.337  15.177  11.899
34383W        W93644   1.349   4.223   0.876
34384W        W93645   6.768   9.746  11.938
34385W        W93646   2.399  38.909  14.395
34386W        W93647  15.209  25.101  13.374
34387W        W93648   6.192  17.559   1.905
34388W        W93649   2.786   1.788  13.496
34389W        W93650  30.526  24.614  13.356
34390W        W93651   2.245  35.872  12.076
34391W        W93652  35.556  22.728  13.488
34392W        W93653   9.353  30.928   4.287
34393W        W93654  27.616  25.061  14.503
34394W        W93655  31.942  25.706  13.548
34395W        W93656  11.294   2.419   3.287
34396W        W93657  34.892   8.239  12.946
34397W        W93658  23.994  26.136  12.412
34398W        W93659  40.356  18.272   0.930
34399W        W93660   5.427  41.322   0.863
34400W        W93661   4.698  24.716   0.768
34401W        W93662  34.081   3.360   4.328
34402W        W93663  11.315  39.904   3.669
34403W        W93664  11.641  10.862  13.002
34404W        W93665  28.651  21.208  12.376
34405W        W93666  13.320   8.747  14.312
34406W        W93667  26.146   0.827  11.472
34407W        W93668  17.178  37.068  12.492
34408W        W93669  32.423  25.477  10.473
34409W        W93670  10.316  27.024  14.324
34410W        W93671   9.295  22.215  13.321
34411W        W93672  41.027  34.910  12.998
34412W        W93673  29.567  25.595  14.932
34413W        W93674  44.875   6.312  12.092
34414W        W93675  19.739  34.605  11.117
34415W        W93676   1.820  20.221   3.158
34416W        W93677   7.347  43.286   0.868
34417W        W93678  20.252  37.871   3.683
34418W        W93679  28.659  10.806  10.463
34419W        W93680  18.081  38.863  13.005
34420W        W93681  25.682  31.142  13.982
34421W        W93682  39.497  44.864   4.751
34422W        W93683   0.445   3.733  12.469
34423W        W93684  28.938  11.846  10.420
34424W        W93685  36.849   4.942   3.792
34425W        W93686  40.437  24.496  10.601
34426W        W93687   4.299  19.589  11.393
34427W        W93688  20.718  39.844   2.723
34428W        W93689  15.142  19.565   0.314
34429W        W93690  41.903  32.511   5.156
34430W        W93691   8.380  12.230  14.323
34431W        W93692  36.538  25.559  11.949
34432W        W93693  31.561  26.984  14.880
34433W        W93694  12.620   9.848   3.239
34434W        W93695   0.796  30.013   0.728
34435W        W93696  28.560  38.378   2.788
34436W        W93697  39.315  30.053  13.972
34437W        W93698  12.680  33.939  10.541
34438W        W93699  36.898  20.616  14.290
34439W        W93700   0.926  16.573   4.242
34440W        W93701  23.615  38.044  14.445
34441W        W93702  20.107  29.951   3.148
34442W        W93703   8.326  23.191   1.717
34443W        W93704  34.515   6.888   1.876
34444W        W93705  18.135   5.713  14.499
34445W        W93706  38.491  15.598  11.937
34446W        W93707   2.882  19.711  13.951
34447W        W93708  13.771   6.209  11.123
34448W        W93709  24.571  11.746   3.335
34449W        W93710  33.029  41.002   4.231
34450W        W93711  25.128  14.715  11.474
34451W        W93712   8.687   8.177  10.930
34452W        W93713  36.873  34.580  14.818
34453W        W93714  27.613  24.482  11.604
34454W        W93715  17.619  40.378   0.345
34455W        W93716  36.951  12.845  14.369
34456W        W93717  33.455  18.712   4.314
34457W        W93718   9.743   5.886  12.928
34458W        W93719  27.517  21.709   4.601
34459W        W93720  30.637  18.591  14.498
34460W        W93721  15.585  34.536  14.423
34461W        W93722  16.684  22.030   9.455
34462W        W93723  18.178  39.962  12.488
34463W        W93724  29.482  24.642  10.580
34464W        W93725  22.590  16.088   2.271
34465W        W93726  13.242  18.077  11.462
34466W        W93727  44.862  21.087  13.516
34467W        W93728   5.349  21.169   1.288
34468W        W93729  15.614   4.435  12.398
34469W        W93730  24.029  43.362   3.775
34470W        W93731  36.416  34.974   2.892
34471W        W93732  15.293  33.874  13.379
34472W        W93733  21.101   6.215   2.795
34473W        W93734  37.469  37.379  14.404
34474W        W93735  33.098  29.609  11.436
34475W        W93736   7.850   1.376   0.429
34476W        W93737  43.013  10.239  10.557
34477W        W93738   3.376  10.316   2.209
34478W        W93739  44.299   7.341   3.229
34479W        W93740   6.785  35.512   4.639
34480W        W93741  37.873   8.377   2.871
34481W        W93742  28.597  16.572   3.370
34482W        W93743  10.694  12.654  14.351
34483W        W93744   5.725  10.795   2.418
34484W        W93745  37.052   8.716   0.318
34485W        W93746  42.432  25.075   3.370
34486W        W93747  42.854   7.692  11.942
34487W        W93748  12.331  22.092  11.873
34488W        W93749  23.127   6.761  14.017
34489W        W93750  39.949  16.635  11.946
34490W        W93751   2.401  33.970  13.848
34491W        W93752  24.984  43.468  13.858
34492W        W93753  44.000   1.958   4.696
34493W        W93754  36.544  21.203   0.304
34494W        W93755  27.101   4.316   3.705
34495W        W93756  28.116  10.138  13.452
34496W        W93757   2.292  14.832  10.461
34497W        W93758  27.628  42.509  11.607
34498W        W93759  36.481  26.591  10.008
34499W        W93760  43.303  39.380   2.772
34500W        W93761   4.420  29.654  12.893
34501W        W93762   4.748  21.123  12.893
34502W        W93763  33.999  12.207  10.975
34503W        W93764  18.706  18.779   0.777
34504W        W93765   2.347  29.597   1.366
34505W        W93766  20.720  40.456   3.204
34506W        W93767  44.765  24.694   2.737
34507W        W93768   3.877  14.649  10.920
34508W        W93769  19.160  23.692  10.157
34509W        W93770  16.083   9.346  13.448
34510W        W93771  33.995   5.350  14.790
34511W        W93772  33.582   3.396  13.986
34512W        W93773   2.458  42.961  11.537
34513W        W93774  36.412   0.477   4.623
34514W        W93775  13.800   4.800  12.008
34515W        W93776  39.841  14.693  13.824
34516W        W93777  14.168  23.043   0.471
34517W        W93778  33.131  16.195   3.197
34518W        W93779  30.080   8.340  13.326
34519W        W93780  18.163  28.493   5.123
34520W        W93781  27.625  44.904   1.346
34521W        W93782  10.772  23.994   0.781
34522W        W93783   0.838  17.107   2.370
34523W        W93784  42.312   2.378   0.749
34524W        W93785  19.649  42.477  10.624
34525W        W93786  43.965   0.821   0.359
34526W        W93787  31.556   6.781   4.663
34527W        W93788  37.872  10.299  13.346
34528W        W93789  22.687  27.553  13.855
34529W        W93790  28.623  22.620  13.968
34530W        W93791  17.298  33.410  13.504
34531W        W93792  28.139  29.999  14.465
34532W        W93793  36.062   0.882  11.007
34533W        W93794  17.070  41.462  11.967
34534W        W93795  13.716  42.001   1.872
34535W        W93796  10.311  26.059   0.299
34536W        W93797  37.485  31.541   1.363
34537W        W93798   7.858   0.365  14.894
34538W        W93799  39.856   0.319  13.342
34539W        W93800  33.084  14.112   1.294
34540W        W93801  43.909  13.230   1.309
34541W        W93802  10.730  21.652   3.359
34542W        W93803  38.405  38.469  14.007
34543W        W93804  43.817  39.899   1.370
34544W        W93805  28.591  26.198  13.327
34545W        W93806  35.447  27.108   0.400
34546W        W93807  10.161  24.519   2.275
34547W        W93808  23.052  29.079  11.472
34548W        W93809  43.899   4.882   1.389
34549W        W93810   2.455  12.178  14.015
34550W        W93811   2.418  31.448   4.145
34551W        W93812   3.826  26.484   0.867
34552W        W93813  31.577  41.385   4.810
34553W        W93814  28.476  13.712   4.741
34554W        W93815  33.540  36.417  14.839
34555W        W93816  27.002  38.481  12.920
34556W        W93817  25.967  16.309   1.773
34557W        W93818  44.283  18.182   1.835
34558W        W93819   8.805   9.654  12.536
34559W        W93820  37.956  22.730   3.214
34560W        W93821  20.264  14.829   4.300
34561W        W93822  43.441  27.560  14.797
34562W        W93823  32.028  15.294  12.478
34563W        W93824  36.024  15.270  12.841
34564W        W93825  15.319   6.842  12.445
34565W        W93826  40.540   6.366  11.958
34566W        W93827  44.866  24.205   0.416
34567W        W93828  27.502  18.147   2.697
34568W        W93829   1.359  18.624   0.459
34569W        W93830  37.363  36.529   3.307
34570W        W93831  30.527   4.740  12.343
34571W        W93832  16.289  34.506   4.302
34572W        W93833  39.376  39.812   2.698
34573W        W93834  31.030  43.854   4.355
34574W        W93835  42.395   8.681   2.344
34575W        W93836  35.046  43.959   0.805
34576W        W93837  33.098  36.436  11.387
34577W        W93838  29.542  44.431   4.292
34578W        W93839  29.571  16.780  13.435
34579W        W93840   5.818  36.083   2.790
34580W        W93841  17.076  32.595   4.709
34581W        W93842   3.874  27.493  14.290
34582W        W93843  32.113   7.729  13.957
34583W        W93844  32.403  12.618  13.930
34584W        W93845  13.149  43.828   1.212
34585W        W93846  26.961  33.048  11.411
34586W        W93847   1.763  11.738   3.316
34587W        W93848  44.459  20.643   2.258
34588W        W93849   9.259  10.235  14.004
34589W        W93850  18.789  23.517  12.479
34590W        W93851   6.862  15.706  13.542
34591W        W93852  25.624  22.177  13.324
34592W        W93853  43.415  20.087   1.338
34593W        W93854  23.599  40.909   2.263
34594W        W93855  37.451  34.544   3.333
34595W        W93856  29.113   7.290  14.921
34596W        W93857  17.784  21.739  10.924
34597W        W93858  38.015  22.700   2.770
34598W        W93859  14.745  13.310  14.441
34599W        W93860  39.037  11.310  11.101
34600W        W93861   7.173   9.817  12.021
34601W        W93862  44.311   7.265  11.949
34602W        W93863  22.567  33.945  11.493
34603W        W93864  24.551  26.592  11.085
34604W        W93865  21.125  35.982   0.289
34605W        W93866   6.688  32.557  14.905
34606W        W93867  12.224  26.981   2.801
34607W        W93868  24.638  13.294  14.318
34608W        W93869  29.023  19.209  12.499
34609W        W93870  11.686   1.357   2.840
34610W        W93871   7.180  39.022   4.153
34611W        W93872  33.108  24.150  13.501
34612W        W93873  25.196  13.122  11.113
34613W        W93874  35.388  32.507   4.167
34614W        W93875  42.449   5.826   1.809
34615W        W93876   8.716   7.802  14.780
34616W        W93877  17.094  20.666   4.750
34617W        W93878  16.202  37.485   3.854
34618W        W93879  37.360  43.440  11.511
34619W        W93880   6.405   0.390  14.881
34620W        W93881  19.627  40.449   2.710
34621W        W93882  33.945  19.078   4.664
34622W        W93883  11.803  43.957  12.924
34623W        W93884  37.442   8.681   2.675
34624W        W93885  39.395  18.097   1.221
34625W        W93886  44.288   9.705  11.522
34626W        W93887  29.633  35.068  13.332
34627W        W93888  37.012   4.356  13.534
34628W        W93889  23.720  11.214  14.377
34629W        W93890  20.204  39.317  10.963
34630W        W93891  32.398   1.413  14.795
34631W        W93892  24.565  15.116   0.804
34632W        W93893  28.113   3.724   1.899
34633W        W93894  14.194  41.926   0.460
34634W        W93895  10.825  27.565   3.702
34635W        W93896  22.550  21.521   3.854
34636W        W93897  20.044   1.919   0.944
34637W        W93898  38.555   8.852  11.861
34638W        W93899  24.005   2.738  11.871
34639W        W93900  16.679  20.644   5.190
34640W        W93901   1.739  41.838   4.678
34641W        W93902  38.893   6.771  12.065
34642W        W93903  44.453  15.289   3.777
34643W        W93904  39.059  14.304   1.734
34644W        W93905  29.974   7.319  13.316
34645W        W93906  40.949  24.165   1.315
34646W        W93907  15.213  23.991  12.065
34647W        W93908  41.383  35.945   0.814
34648W        W93909  23.061  44.889  14.994
34649W        W93910   5.746  28.463  13.321
34650W        W93911  38.432  10.299  13.833
34651W        W93912  33.581  22.115  13.048
34652W        W93913  11.344  23.066   4.221
34653W        W93914   8.730   5.265  13.431
34654W        W93915  34.579  21.695   1.433
34655W        W93916  40.483  29.139  11.009
34656W        W93917  26.483  18.588  14.339
34657W        W93918  36.386  19.185  12.521
34658W        W93919   5.380  31.621   1.729
34659W        W93920  23.231   7.180   2.300
34660W        W93921   8.809  39.058  13.984
34661W        W93922  21.581  14.665   4.212
34662W        W93923  37.980  17.063  14.956
34663W        W93924  34.072   0.918  12.053
34664W        W93925   1.269  26.559   2.898
34665W        W93926  22.079  30.077  13.013
34666W        W93927  31.024  44.382   3.208
34667W        W93928  14.185   7.779  13.036
34668W        W93929  19.186   1.734  11.998
34669W        W93930  20.542  37.554   4.132
34670W        W93931  39.033  19.744  10.921
34671W        W93932   3.443   0.425  14.332
34672W        W93933  33.945  30.494  13.928
34673W        W93934  35.090  31.125   4.836
34674W        W93935  28.653  15.131   4.236
34675W        W93936   0.374  42.471   1.345
34676W        W93937  10.726  25.521   3.719
34677W        W93938  10.853  30.931   4.713
34678W        W93939  31.999  18.563   1.842
34679W        W93940  12.741  16.607  13.972
34680W        W93941   9.722  29.658  11.951
34681W        W93942  20.241  26.143   1.839
34682W        W93943  31.042   9.331   0.738
34683W        W93944  38.331  36.010  11.607
34684W        W93945   2.938  11.351   1.778
34685W        W93946  40.482  43.416   0.968
34686W        W93947   7.235  38.905  11.890
34687W        W93948  16.738  41.863  13.829
34688W        W93949   3.915  12.855   2.391
34689W        W93950  13.620  21.152  13.483
34690W        W93951  11.136  29.497  13.348
34691W        W93952  17.106  36.539  12.571
34692W        W93953  21.594  20.690  14.916
34693W        W93954  41.367  41.371   1.805
34694W        W93955   9.240   8.799  11.107
34695W        W93956  35.426  35.506   4.618
34696W        W93957  14.208   5.838   2.218
34697W        W93958  44.924  30.037   3.161
34698W        W93959   5.857  11.276  11.454
34699W        W93960   8.750  25.684  14.881
34700W        W93961  13.687  33.622  13.423
34701W        W93962   2.321  20.058   4.731
34702W        W93963   1.294   8.765  14.366
34703W        W93964  23.705  38.067  14.933
34704W        W93965  21.607  19.101   9.516
34705W        W93966   3.246  14.249  10.563
34706W        W93967  27.642  43.399   1.727
34707W        W93968  19.242  13.831   2.194
34708W        W93969  11.645  40.965   1.224
34709W        W93970  41.305  19.192  11.906
34710W        W93971  11.863  13.695  12.941
34711W        W93972  33.514  26.027   4.814
34712W        W93973  19.598   1.810  11.110
34713W        W93974   1.888  14.812   0.396
34714W        W93975  44.285   2.927  14.866
34715W        W93976  33.048  13.660  12.422
34716W        W93977  36.552   3.433   1.279
34717W        W93978  21.743  28.065  13.925
34718W        W93979  25.670  20.677   4.598
34719W        W93980  31.119  11.200   3.732
34720W        W93981  16.803   4.709   1.701
34721W        W93982  15.580  11.767  12.845
34722W        W93983  16.259  10.780  14.474
34723W        W93984  31.149  17.755   4.216
34724W        W93985   1.837  43.859   2.214
34725W        W93986   1.856  30.094  12.523
34726W        W93987  43.505  14.282  13.433
34727W        W93988  10.372   8.168   5.125
34728W        W93989  10.236   2.861   4.652
34729W        W93990  21.586  33.878  13.875
34730W        W93991  14.192  10.810   0.945
34731W        W93992   7.388  19.755   3.151
34732W        W93993  26.655  19.165   0.830
34733W        W93994  25.614  16.105  12.870
34734W        W93995  29.513   9.264   2.395
34735W        W93996   2.939   0.421  14.383
34736W        W93997   7.227  40.344   3.670
34737W        W93998   0.795   9.368  11.500
34738W        W93999  15.219  13.276   2.706
34739W        W94000  18.115  27.547   1.734
34740W        W94001  29.650  12.146   3.285
34741W        W94002   8.698  16.250  13.048
34742W        W94003  40.501  17.651   9.493
34743W        W94004   0.798  39.422   1.263
34744W        W94005  29.126  17.676   3.351
34745W        W94006  34.903   1.854  14.384
34746W        W94007   2.271  28.026   0.319
34747W        W94008  39.496  30.498  13.823
34748W        W94009  41.830  31.101   0.372
34749W        W94010  39.827  13.788  12.913
34750W        W94011   4.396  44.824   3.660
34751W        W94012  15.736  16.745   3.226
34752W        W94013   7.343   3.357   0.764
34753W        W94014  23.200  41.947  10.938
34754W        W94015  11.360  38.958  12.938
34755W        W94016  29.092  33.969   2.275
34756W        W94017  40.345  16.083  10.989
34757W        W94018  41.786  13.620   1.817
34758W        W94019  30.122  26.539   0.750
34759W        W94020   8.729  24.592  14.326
34760W        W94021  41.424  12.658  14.907
34761W        W94022  36.409  21.180   2.669
34762W        W94023   0.314   6.183  10.524
34763W        W94024   2.281  14.323  12.093
34764W        W94025  22.696  22.579  10.950
34765W        W94026  40.448  27.990   0.260
34766W        W94027  21.674  29.426   2.876
34767W        W94028   6.316  12.612  11.897
34768W        W94029   4.300  19.087   4.154
34769W        W94030  39.041  31.597   0.798
34770W        W94031   3.320  34.984  12.017
34771W        W94032  28.024  21.220   4.354
34772W        W94033  25.210  44.426   1.335
34773W        W94034  35.576  29.033   0.807
34774W        W94035   6.242  10.661  12.397
34775W        W94036  25.647  10.770  12.012
34776W        W94037  16.073  42.386   3.774
34777W        W94038  36.039  44.936   3.171
34778W        W94039  28.470  15.647   0.780
34779W        W94040  43.876  24.100  12.861
34780W        W94041   6.192  30.551   2.198
34781W        W94042  15.309  34.405  10.565
34782W        W94043  13.706  43.768   4.787
34783W        W94044  24.542   9.696   4.290
34784W        W94045  12.836  21.133   4.320
34785W        W94046  44.788  27.662  14.408
34786W        W94047  27.120  39.359   3.838
34787W        W94048  25.087  30.031  12.350
34788W        W94049   0.960  10.652  12.830
34789W        W94050  18.280  41.305   1.382
34790W        W94051   4.360   6.333   2.878
34791W        W94052  42.886  37.379   2.807
34792W        W94053  10.659  23.001  14.848
34793W        W94054  11.660  20.674  13.496
34794W        W94055   5.733  32.390   1.922
34795W        W94056   6.242  43.767  13.522
34796W        W94057  38.022  12.752  14.329
34797W        W94058  36.540  37.899  12.882
34798W        W94059  31.479  32.529  13.352
34799W        W94060  38.043  20.099   4.294
34800W        W94061  30.130  39.869  12.860
34801W        W94062  21.587  15.137  12.009
34802W        W94063  29.105  30.574   0.284
34803W        W94064  38.902  18.132  12.995
34804W        W94065  33.565  19.095   3.309
34805W        W94066  20.755   6.202  12.487
34806W        W94067  35.418  38.449  14.794
34807W        W94068  42.485  40.926  12.044
34808W        W94069  23.671  14.740   2.326
34809W        W94070   6.192   5.358   3.202
34810W        W94071  24.526  10.248  10.063
34811W        W94072  10.221  22.226   0.963
34812W        W94073  32.477  38.457  13.469
34813W        W94074   3.887   3.880  12.882
34814W        W94075   3.712   0.460  11.857
34815W        W94076  20.665  20.731  12.860
34816W        W94077  32.601   6.921  11.488
34817W        W94078  34.499  16.804  10.592
34818W        W94079  19.065  20.207  12.405
34819W        W94080  44.445  36.460   0.265
34820W        W94081  15.180   9.814   0.315
34821W        W94082   8.885  17.749  14.511
34822W        W94083   8.298   4.251   4.135
34823W        W94084   8.881   0.375  12.567
34824W        W94085   9.787  22.662  12.062
34825W        W94086  40.333  36.873   0.271
34826W        W94087  44.278  26.590  12.920
34827W        W94088  43.425   5.401   1.769
34828W        W94089  42.412  12.670  12.081
34829W        W94090   0.776  10.804   2.732
34830W        W94091  37.446   2.452  13.371
34831W        W94092  27.076  38.068  12.358
34832W        W94093   6.297  12.789  10.040
34833W        W94094   9.871   4.373   3.343
34834W        W94095   6.417  35.417  12.565
34835W        W94096  17.211  44.496  11.461
34836W        W94097   6.335  12.280   4.348
34837W        W94098  30.489   0.260  12.568
34838W        W94099  42.289  22.707  14.422
34839W        W94100  14.655   6.821   1.373
34840W        W94101  24.035  10.148   4.752
34841W        W94102   8.193  23.051  13.382
34842W        W94103  37.912   2.420  11.899
34843W        W94104  23.530  24.074   2.359
34844W        W94105   2.374  23.492  13.496
34845W        W94106  39.897  16.222  13.041
34846W        W94107  17.064  14.149   2.229
34847W        W94108  26.530  14.146  13.503
34848W        W94109  17.594  12.626   3.788
34849W        W94110  41.315  39.406   0.753
34850W        W94111  43.913  25.109  10.948
34851W        W94112  11.361  23.182  12.967
34852W        W94113  38.499  20.530   1.440
34853W        W94114  11.129  32.953  11.937
34854W        W94115  15.675  44.923  13.909
34855W        W94116  12.729  11.322  14.863
34856W        W94117  42.378  19.572  13.822
34857W        W94118  35.552  35.065  14.814
34858W        W94119  20.685  39.041   2.302
34859W        W94120  20.525  16.649   4.821
34860W        W94121  18.051   0.965   3.633
34861W        W94122  36.583  21.171  13.997
34862W        W94123  19.052  19.242   2.850
34863W        W94124  26.554  16.117  11.024
34864W        W94125   0.404   6.250  11.977
34865W        W94126   1.889  24.091   4.603
34866W        W94127  36.017  23.077  12.856
34867W        W94128  42.309   3.777   1.294
34868W        W94129   2.316  24.518   1.780
34869W        W94130   6.899  43.457  13.816
34870W        W94131  14.831  25.661   3.319
34871W        W94132  11.639  32.432   3.241
34872W        W94133  37.475  41.826   2.388
34873W        W94134  24.625   9.388   4.307
34874W        W94135   5.806   8.221  14.895
34875W        W94136  13.180  12.718  14.448
34876W        W94137  24.107  37.019  11.086
34877W        W94138   8.188   8.318  12.907
34878W        W94139  16.663  15.163  12.036
34879W        W94140   8.401  41.971   3.856
34880W        W94141  42.823  18.549   5.139
34881W        W94142  30.518  38.001   2.784
34882W        W94143  34.958  38.056   0.753
34883W        W94144  19.275  30.537   1.928
34884W        W94145  29.121   1.245   4.735
34885W        W94146  34.404  32.404  12.888
34886W        W94147   8.789  37.883  13.984
34887W        W94148  14.699  33.071  14.902
34888W        W94149  35.012   1.897   3.714
34889W        W94150  19.586  10.786  10.958
34890W        W94151  29.659   6.239   3.237
34891W        W94152  43.925   7.691  13.328
34892W        W94153  35.096   6.880  11.408
34893W        W94154   7.722  24.670  10.483
34894W        W94155  33.119  14.181   0.455
34895W        W94156  34.908  12.635  10.916
34896W        W94157  36.080   9.305  10.026
34897W        W94158  23.235  30.008  11.498
34898W        W94159  13.631  17.094  12.398
34899W        W94160  36.856   7.722   3.267
34900W        W94161  27.162  31.055   3.725
34901W        W94162  33.084  30.468   4.705
34902W        W94163  28.559  34.050   4.670
34903W        W94164   1.239  23.626   1.290
34904W        W94165  15.694   2.247   1.284
34905W        W94166  42.968   9.346  13.038
34906W        W94167   5.765  12.688  11.116
34907W        W94168  13.618  31.006  12.962
34908W        W94169  13.307  30.000  13.401
34909W        W94170  35.100  13.221   2.267
34910W        W94171   0.873  16.301  13.349
34911W        W94172  20.217   0.454  11.509
34912W        W94173  33.024  39.340  12.377
34913W        W94174  22.122  34.431  13.905
34914W        W94175   5.913  22.018  11.525
34915W        W94176  43.004  35.414  14.907
34916W        W94177  34.501  30.048  11.476
34917W        W94178   5.788  15.622   2.707
34918W        W94179  23.583   9.658  13.862
34919W        W94180  34.605  24.534   0.396
34920W        W94181  23.598  37.022  13.881
34921W        W94182  20.587   3.391  12.917
34922W        W94183   6.689  13.223   4.326
34923W        W94184  21.638  27.581   1.882
34924W        W94185  17.243  13.304   3.782
34925W        W94186  43.290  12.683   3.235
34926W        W94187  34.547  10.677  12.541
34927W        W94188  17.291  33.459   1.224
34928W        W94189  41.911  24.156   1.311
34929W        W94190  21.058  39.020   1.735
34930W        W94191  20.078  28.609   2.689
34931W        W94192   0.429  24.577  14.988
34932W        W94193  14.204  27.635  14.344
34933W        W94194  25.039  24.488   3.688
34934W        W94195  34.509  43.946   0.766
34935W        W94196  14.752  35.892   3.215
34936W        W94197  24.218  36.045   2.245
34937W        W94198  24.655  12.327  12.857
34938W        W94199  33.437  26.487   5.311
34939W        W94200  18.197  12.696   3.688
34940W        W94201   9.322  11.700   4.117
34941W        W94202  19.696   0.958   4.221
34942W        W94203  31.896  29.637  12.940
34943W        W94204  23.167  33.622  12.383
34944W        W94205  29.991  41.334   1.446
34945W        W94206  23.096  32.921   1.763
34946W        W94207   5.212  40.023  10.404
34947W        W94208  12.644  10.755   4.270
34948W        W94209   0.871  41.407  12.828
34949W        W94210  32.006  40.920   2.789
34950W        W94211  35.977  41.901   5.133
34951W        W94212   3.721   8.751   0.736
34952W        W94213   9.845  36.519  12.934
34953W        W94214  41.369  21.118   0.261
34954W        W94215  28.512  35.528   0.313
34955W        W94216  14.645  12.184  10.404
34956W        W94217  34.610  33.570   4.788
34957W        W94218  38.844  35.021   1.431
34958W        W94219  32.980  30.132  10.466
34959W        W94220  38.351  17.748   2.757
34960W        W94221  43.420  39.553  12.347
34961W        W94222   4.232  33.485  11.092
34962W        W94223  31.444  31.983  12.465
34963W        W94224  14.600  41.938   4.630
34964W        W94225  25.519  17.223   0.421
34965W        W94226  36.558  25.107  10.111
34966W        W94227  33.607   5.437   3.642
34967W        W94228   7.304  21.091   3.288
34968W        W94229  42.464  43.382  12.896
34969W        W94230  38.414   7.834   4.321
34970W        W94231   1.461  32.469   1.825
34971W        W94232  20.541  18.207  13.871
34972W        W94233   6.683  40.009  11.889
34973W        W94234  42.829   1.393  13.387
34974W        W94235  26.494   9.643   1.738
34975W        W94236  39.055  19.105  11.863
34976W        W94237   9.811  40.368  13.973
34977W        W94238  18.591  25.470   1.381
34978W        W94239  17.688  33.572   4.807
34979W        W94240  44.846  34.536   5.302
34980W        W94241  21.751  25.164  11.989
34981W        W94242   8.702  16.172   4.795
34982W        W94243  18.050   9.336   4.314
34983W        W94244  34.544  14.151   0.411
34984W        W94245  28.968  26.999  14.355
34985W        W94246  41.813  16.195  14.859
34986W        W94247  42.387  40.367   4.818
34987W        W94248   1.404   1.737  13.394
34988W        W94249  32.138  29.975  14.926
34989W        W94250   0.248  24.485   4.735
34990W        W94251  26.114  41.829  14.445
34991W        W94252   4.243   3.886   4.186
34992W        W94253  10.781  40.003   2.692
34993W        W94254  25.611  34.404   2.303
34994W        W94255  29.960   6.296  13.845
34995W        W94256   5.844  22.049  14.841
34996W        W94257  37.998  40.925  14.329
34997W        W94258  34.587  28.595  13.492
34998W        W94259  34.529  15.270  13.027
34999W        W94260  15.691  21.531  12.412
35000W        W94261   2.757  30.466   1.384
35001W        W94262  15.248  28.176   0.402
35002W        W94263  42.376  20.084  11.409
35003W        W94264  34.370   3.450   2.764
35004W        W94265  21.140  22.530   3.361
35005W        W94266  34.526  40.931  11.950
35006W        W94267   4.284  40.799   0.397
35007W        W94268  25.477  30.964  13.461
35008W        W94269  14.119  25.109   3.724
35009W        W94270   4.348  18.128  13.464
35010W        W94271  38.380  32.512   4.665
35011W        W94272  42.794  20.131  13.506
35012W        W94273   8.745  39.512  10.906
35013W        W94274   2.327   8.267   3.370
35014W        W94275  18.097   6.218   0.753
35015W        W94276  14.121   1.393  11.114
35016W        W94277  44.960   6.297   0.944
35017W        W94278  19.122  21.252  12.864
35018W        W94279  28.168  16.077   2.761
35019W        W94280  20.677   5.318   3.327
35020W        W94281   1.855  14.192  13.836
35021W        W94282  10.714   9.740   0.883
35022W        W94283   4.325  30.068  11.432
35023W        W94284  28.122  42.519   4.703
35024W        W94285  40.928  13.675   1.810
35025W        W94286  23.064   9.394   0.352
35026W        W94287   9.818  40.506   0.399
35027W        W94288  13.151  35.594   3.752
35028W        W94289   2.796  14.167  11.021
35029W        W94290  10.312  40.548  11.381
35030W        W94291  17.181  37.928   3.230
35031W        W94292  30.068  11.771   3.369
35032W        W94293  44.951  38.930   1.252
35033W        W94294  17.076  30.429  10.571
35034W        W94295   6.837  15.817  14.302
35035W        W94296  13.250  32.637  13.809
35036W        W94297  36.512  12.344  13.804
35037W        W94298  41.532  24.612   2.309
35038W        W94299  40.838  31.144  12.070
35039W        W94300  29.930  39.023   4.831
35040W        W94301  44.817  35.012  11.998
35041W        W94302  36.522  35.360  13.369
35042W        W94303  25.126  15.704  13.903
35043W        W94304  10.196  34.057   4.811
35044W        W94305  20.173   3.348  13.026
35045W        W94306  13.233  43.822  13.976
35046W        W94307  26.659  19.268   1.900
35047W        W94308  27.992  41.469   3.656
35048W        W94309  16.630   7.378  12.850
35049W        W94310  32.076  42.474  12.476
35050W        W94311   2.791   1.277   2.301
35051W        W94312  41.926  44.358   2.216
35052W        W94313  44.476  22.588  10.406
35053W        W94314  39.378  18.627  11.536
35054W        W94315  40.377  20.114   2.720
35055W        W94316  35.947  21.057  13.976
35056W        W94317   9.812   9.321   1.700
35057W        W94318  30.576  43.842  12.424
35058W        W94319   6.787  14.137   4.638
35059W        W94320  29.026  10.156   1.749
35060W        W94321   4.240  29.567  10.544
35061W        W94322  15.696  39.391   4.653
35062W        W94323  35.459   8.386  14.424
35063W        W94324   7.170  40.951  10.467
35064W        W94325   0.291  36.036   2.196
35065W        W94326   8.835   2.965  10.445
35066W        W94327  39.502  21.050   4.771
35067W        W94328  25.618  37.476   0.390
35068W        W94329  30.519   5.333   3.330
35069W        W94330  39.954  15.632   0.275
35070W        W94331  36.902  35.012   0.755
35071W        W94332   8.701  15.315  10.510
35072W        W94333  24.688  17.082   2.417
35073W        W94334  10.364  31.417  12.454
35074W        W94335   8.262   4.329   0.462
35075W        W94336  29.438  25.574  13.006
35076W        W94337   4.207  11.145   4.253
35077W        W94338  20.135  21.142  12.885
35078W        W94339  44.395  11.269   2.853
35079W        W94340   7.216  10.652  13.016
35080W        W94341   1.264  23.007   4.222
35081W        W94342  37.415  28.953  14.417
35082W        W94343  27.982  27.039  11.898
35083W        W94344   3.340  19.062  14.830
35084W        W94345   5.367  21.256  10.455
35085W        W94346  12.262  21.549  10.923
35086W        W94347  13.157  42.837  14.944
35087W        W94348  32.612  40.450   1.304
35088W        W94349  38.904  17.792  10.433
35089W        W94350  13.780  32.531  10.470
35090W        W94351  29.126  15.247  14.287
35091W        W94352   9.853  31.569   0.363
35092W        W94353  23.190  31.967  11.002
35093W        W94354   5.260  29.169  14.352
35094W        W94355   4.410  18.561  12.389
35095W        W94356  38.019   3.823   0.260
35096W        W94357  40.820   4.935  12.830
35097W        W94358  42.288   6.375   3.150
35098W        W94359  24.562   6.359  10.499
35099W        W94360  40.450  22.595  12.996
35100W        W94361  13.735  10.284   2.245
35101W        W94362  17.159  42.028   1.392
35102W        W94363  15.269  22.183   0.339
35103W        W94364  33.091   4.840   0.479
35104W        W94365  21.056  36.553   1.846
35105W        W94366   8.824  25.122  11.987
35106W        W94367   4.299  31.986  13.881
35107W        W94368  29.469   8.671   1.932
35108W        W94369  15.790  16.620  10.027
35109W        W94370  27.941  33.427  12.577
35110W        W94371  22.241  16.086  11.056
35111W        W94372  44.941  16.248   0.740
35112W        W94373   7.242  18.676  12.902
35113W        W94374  38.890  43.841  12.418
35114W        W94375  16.141  33.578  12.843
35115W        W94376  37.082  19.096   4.732
35116W        W94377  38.017   4.245   0.440
35117W        W94378  11.307  20.107  14.331
35118W        W94379  22.656  31.991   5.306
35119W        W94380   1.346  40.388  12.979
35120W        W94381  21.040  14.780   1.329
35121W        W94382  34.532  18.662   4.678
35122W        W94383  19.090   2.295  13.900
35123W        W94384   4.926  26.984  11.025
35124W        W94385  24.718  23.510  11.543
35125W        W94386   1.866   5.697   1.876
35126W        W94387   0.369  31.621   4.818
35127W        W94388  35.434  41.355  14.441
35128W        W94389  13.653  44.267   3.342
35129W        W94390   9.173  12.729   2.413
35130W        W94391  30.074  34.886   1.348
35131W        W94392  31.614  41.024  12.872
35132W        W94393  25.143  31.006   3.198
35133W        W94394  42.488  16.286  12.970
35134W        W94395  32.902  42.506  13.011
35135W        W94396   2.422   1.311  14.875
35136W        W94397  40.529  34.398   2.298
35137W        W94398   0.782  39.972   0.313
35138W        W94399  15.736  24.675   1.253
35139W        W94400  25.584  28.510   3.231
35140W        W94401  41.467  28.545   3.381
35141W        W94402   7.807   4.443  13.013
35142W        W94403  40.856  14.271  10.924
35143W        W94404   2.370  22.621  14.285
35144W        W94405  26.573  34.055  10.907
35145W        W94406  10.148  36.545   4.703
35146W        W94407  37.527   5.906   4.164
35147W        W94408  16.196  23.735   0.884
35148W        W94409  19.084  37.571  14.932
35149W        W94410  36.590  26.668  11.457
35150W        W94411  39.536   5.279   1.223
35151W        W94412  17.294  14.134  12.542
35152W        W94413  16.112  43.446   0.755
35153W        W94414  44.926  17.130  14.285
35154W        W94415  12.306  44.500   4.149
35155W        W94416   0.770  41.897  12.437
35156W        W94417  33.890  21.198  12.386
35157W        W94418   7.696   7.344  13.391
35158W        W94419  31.025  27.137   3.719
35159W        W94420  25.685  35.373  14.780
35160W        W94421  15.141   0.493   4.775
35161W        W94422  19.060   7.877   3.840
35162W        W94423   1.745  17.630  13.999
35163W        W94424  28.058  22.597   1.340
35164W        W94425  28.524  33.954  10.155
35165W        W94426  39.991  28.960   1.275
35166W        W94427  32.061   7.726   0.430
35167W        W94428   9.287  42.510   2.702
35168W        W94429   6.250  15.229   2.864
35169W        W94430  41.790  21.569   2.768
35170W        W94431  39.009  11.323  12.095
35171W        W94432  24.047   6.236  10.538
35172W        W94433  26.068  21.214   2.180
35173W        W94434   2.435  29.965  12.534
35174W        W94435  19.640   4.883  10.622
35175W        W94436  25.546  27.193  12.999
35176W        W94437  42.409  11.845  11.449
35177W        W94438  25.641  34.538   3.796
35178W        W94439  17.151  20.087   3.633
35179W        W94440  11.142  40.482  13.832
35180W        W94441  11.632  29.939   4.149
35181W        W94442  10.147   5.805   1.824
35182W        W94443  37.994  33.065   3.758
35183W        W94444  28.676  36.399   1.767
35184W        W94445   1.762  15.611  12.460
35185W        W94446  25.005  20.751  14.944
35186W        W94447  16.194  23.713  10.448
35187W        W94448   8.744  19.662  12.859
35188W        W94449  16.256   6.854   2.682
35189W        W94450  10.812  23.562   3.379
35190W        W94451  10.334   9.850   3.698
35191W        W94452   0.390  23.158  11.030
35192W        W94453  21.256  42.956   9.976
35193W        W94454   3.283   2.839  11.435
35194W        W94455  27.531  18.241   1.926
35195W        W94456   2.311  18.116  14.443
35196W        W94457  23.677   2.324   0.269
35197W        W94458  40.996  21.519  11.016
35198W        W94459  11.354  12.611   1.705
35199W        W94460  18.185  12.654  14.317
35200W        W94461   1.822  16.690   2.804
35201W        W94462  16.592  40.384   4.598
35202W        W94463  14.735  44.296   4.707
35203W        W94464  11.262  44.912  11.517
35204W        W94465  25.486  13.783   1.310
35205W        W94466  25.068  41.451  12.546
35206W        W94467  20.184   0.383   3.715
35207W        W94468  39.983  15.291  13.393
35208W        W94469  31.027  21.210   0.476
35209W        W94470  43.408   9.724  11.013
35210W        W94471  39.504   1.944  11.038
35211W        W94472   9.816  18.079  12.022
35212W        W94473  33.590  23.156  14.771
35213W        W94474  27.476  43.794   3.811
35214W        W94475   4.860  44.348   1.751
35215W        W94476  34.867  15.254   1.802
35216W        W94477  28.493  11.144  12.387
35217W        W94478  14.727  26.529  14.004
35218W        W94479  10.837  22.249  11.917
35219W        W94480  25.029  23.123  10.926
35220W        W94481   2.374  32.092  13.366
35221W        W94482  30.095  26.703  10.520
35222W        W94483  24.197   0.479   0.869
35223W        W94484  13.133  33.593   1.384
35224W        W94485   9.363  17.669  11.088
35225W        W94486  10.229  30.098  14.014
35226W        W94487  26.670  12.335  12.035
35227W        W94488  36.041  30.592  10.544
35228W        W94489  36.508  31.644  11.466
35229W        W94490  17.101  40.945  10.916
35230W        W94491   3.922  27.560   4.134
35231W        W94492   9.868  26.648   0.826
35232W        W94493  41.391  39.845  14.403
35233W        W94494  30.988  29.124   5.087
35234W        W94495  10.288  43.924   1.740
35235W        W94496  42.441  25.977   9.537
35236W        W94497  44.378  18.190  11.045
35237W        W94498  12.150  35.597  14.335
35238W        W94499   1.869  13.237   3.300
35239W        W94500  23.118   1.265   0.762
35240W        W94501  42.824  18.659  14.843
35241W        W94502  15.792  31.099   2.900
35242W        W94503  34.100  30.599  10.443
35243W        W94504   2.322   4.375   3.334
35244W        W94505  21.684   6.765  14.904
35245W        W94506   2.263  37.007  12.423
35246W        W94507  13.601  31.115  13.878
35247W        W94508  42.442  16.710   1.447
35248W        W94509  38.404  14.726   0.961
35249W        W94510  28.528   3.249  13.430
35250W        W94511   2.804  12.272  11.883
35251W        W94512   2.925  33.952  14.450
35252W        W94513  33.421  17.722  13.493
35253W        W94514  16.754  38.869  14.836
35254W        W94515  18.190  33.448   4.299
35255W        W94516  17.615   4.807  11.535
35256W        W94517   3.728  17.703   2.753
35257W        W94518  15.767  16.611   1.362
35258W        W94519  42.818   5.419  13.355
35259W        W94520  22.616  39.924  13.539
35260W        W94521  37.572  31.137   0.359
35261W        W94522  37.444  21.691   1.814
35262W        W94523   2.955  40.987   0.880
35263W        W94524   3.330  34.976  11.079
35264W        W94525  26.207  13.115  13.884
35265W        W94526   5.232  28.663  11.093
35266W        W94527  39.828  42.481  13.898
35267W        W94528  31.574  30.938   4.286
35268W        W94529  15.165  11.162  10.422
35269W        W94530  35.014  16.179  11.414
35270W        W94531   9.191  42.376  10.477
35271W        W94532  18.144   3.802  11.531
35272W        W94533  27.028  40.436   9.965
35273W        W94534  26.692  18.097   2.312
35274W        W94535  39.536  19.615   0.955
35275W        W94536  18.605   5.262   9.960
35276W        W94537  31.479  13.166   3.718
35277W        W94538   7.339  26.019  13.810
35278W        W94539  33.600  12.237   1.862
35279W        W94540  19.161  34.489   2.311
35280W        W94541  36.032  40.430   0.345
35281W        W94542  26.464  38.020   1.882
35282W        W94543  10.732   6.827   1.906
35283W        W94544  40.912   0.973   2.853
35284W        W94545  14.713  33.592  13.910
35285W        W94546  34.039  17.597   3.182
35286W        W94547  21.117  26.538  10.963
35287W        W94548  41.805  36.350  14.895
35288W        W94549  11.652  28.662  14.777
35289W        W94550  36.455  25.072   0.392
35290W        W94551  37.017  36.860   2.806
35291W        W94552  31.083  44.470  12.077
35292W        W94553  44.800  24.526  13.524
35293W        W94554   5.927  41.796   1.710
35294W        W94555  23.187  16.247  12.824
35295W        W94556  35.556  35.454   0.457
35296W        W94557  11.748  32.546   2.766
35297W        W94558  18.559  42.980  10.634
35298W        W94559  12.144  20.084   4.189
35299W        W94560  41.808  11.652   0.768
35300W        W94561  40.426  16.294  13.920
35301W        W94562  17.634  19.689   2.412
35302W        W94563  23.598  27.678   3.307
35303W        W94564  43.994  22.022   1.349
35304W        W94565   6.300  42.315  11.445
35305W        W94566  28.178  18.116   2.673
35306W        W94567  20.552  29.102   2.747
35307W        W94568  42.424  15.604  13.900
35308W        W94569  21.569  11.724  10.449
35309W        W94570   2.892  14.684  11.920
35310W        W94571  22.232  28.643  13.337
35311W        W94572  39.062   0.479  11.412
35312W        W94573  31.507  35.373   4.350
35313W        W94574  15.819   7.670  13.387
35314W        W94575  14.111   6.330  13.480
35315W        W94576  20.072   8.718   4.122
35316W        W94577  11.319  13.691  11.606
35317W        W94578  17.784   1.919   1.858
35318W        W94579  38.053  21.690   4.224
35319W        W94580  14.276   8.743   1.815
35320W        W94581  37.472  26.614   5.120
35321W        W94582  16.649  40.948  11.502
35322W        W94583  31.475  27.648   0.913
35323W        W94584  28.988  37.027   0.826
35324W        W94585  16.132  40.004  11.476
35325W        W94586  32.585  41.315  11.514
35326W        W94587  28.501  43.336  10.446
35327W        W94588  23.720  30.654   2.283
35328W        W94589   8.321  14.331   2.809
35329W        W94590  37.531  26.495  11.551
35330W        W94591  23.581   0.249   4.825
35331W        W94592   7.220  16.111  11.936
35332W        W94593  23.100  38.962   2.188
35333W        W94594  19.189   4.324  12.855
35334W        W94595  42.495  33.608  12.861
35335W        W94596  42.384  12.771  14.018
35336W        W94597   6.198  37.046   1.328
35337W        W94598  41.966   5.772   4.260
35338W        W94599  29.626   7.808   0.447
35339W        W94600  16.260  12.324  13.504
35340W        W94601  13.188  29.990  13.051
35341W        W94602  34.084  34.491   3.170
35342W        W94603  33.439   8.327  13.054
35343W        W94604   5.370  21.678  13.318
35344W        W94605  14.176  44.011   0.254
35345W        W94606   3.276  25.550   1.922
35346W        W94607  34.925  25.685   3.203
35347W        W94608  33.517  42.281   2.401
35348W        W94609  36.983   9.888  14.944
35349W        W94610   4.713  16.173   1.915
35350W        W94611  12.776  26.552   1.919
35351W        W94612  33.124   9.262   5.675
35352W        W94613   4.873  31.528  11.911
35353W        W94614  27.008  44.929  10.043
35354W        W94615  39.871   1.344   1.916
35355W        W94616  30.106  40.025   4.635
35356W        W94617  35.096  39.940  13.420
35357W        W94618  12.356  35.480   0.863
35358W        W94619  23.020  32.924   4.222
35359W        W94620  29.990  25.686   3.218
35360W        W94621   5.406  23.112   2.342
35361W        W94622  32.084  22.109  14.423
35362W        W94623  27.638  13.676   3.631
35363W        W94624  15.641   6.235  13.986
35364W        W94625  16.249  29.101  11.411
35365W        W94626  34.939  38.915  13.007
35366W        W94627   5.815   1.366   0.327
35367W        W94628  13.272   3.936   3.741
35368W        W94629  38.927  21.022  14.032
35369W        W94630  18.133  44.817  12.002
35370W        W94631   4.431  25.143   4.810
35371W        W94632  13.280  40.518   3.165
35372W        W94633  24.491  41.441   4.834
35373W        W94634  37.368  18.739  13.912
35374W        W94635  42.282  26.549   5.178
35375W        W94636   0.362  29.575  12.548
35376W        W94637  17.061  44.259  14.342
35377W        W94638  16.212   9.801  13.029
35378W        W94639  28.603  15.667   3.196
35379W        W94640  16.709  37.001   2.819
35380W        W94641  11.165  38.911  12.464
35381W        W94642   0.742  37.484   3.191
35382W        W94643  15.310  14.734  10.967
35383W        W94644  20.116   9.383  12.411
35384W        W94645  41.488   9.808  13.502
35385W        W94646  13.178  10.791  11.430
35386W        W94647  20.036  11.681  12.572
35387W        W94648  21.571  30.045   0.377
35388W        W94649  32.075  24.145  12.545
35389W        W94650   5.846  33.875  12.895
35390W        W94651  13.339  37.557  11.091
35391W        W94652  43.374  41.872   2.825
35392W        W94653  30.427  32.946   2.331
35393W        W94654  36.370  32.964   2.793
35394W        W94655  24.523  24.174   2.277
35395W        W94656  11.240  41.437  14.806
35396W        W94657  22.076  38.898   4.630
35397W        W94658  17.103   3.283   4.632
35398W        W94659   9.812  10.139  13.429
35399W        W94660  41.449  22.662   0.331
35400W        W94661   4.711  43.801   3.696
35401W        W94662  29.538  23.721  14.938
35402W        W94663  42.884  15.165   3.764
35403W        W94664  33.569  18.619   0.441
35404W        W94665   8.263  24.650  11.861
35405W        W94666  34.119   0.754  11.540
35406W        W94667   8.697   6.254   3.351
35407W        W94668  25.029  19.063  10.621
35408W        W94669  26.141  23.174   1.797
35409W        W94670  39.369  44.503  13.954
35410W        W94671  13.797   8.310   0.442
35411W        W94672  27.195   8.326   1.356
35412W        W94673  30.923   5.822   2.872
35413W        W94674  35.881  32.952   2.778
35414W        W94675  13.219  16.672   0.801
35415W        W94676  28.613  25.651   3.782
35416W        W94677  37.574  11.237  10.561
35417W        W94678   6.892  13.347   0.417
35418W        W94679  23.073  15.738   3.307
35419W        W94680   5.218   2.907  12.934
35420W        W94681  34.417   1.870   3.744
35421W        W94682  19.186   8.880  13.866
35422W        W94683   4.776  16.243   4.638
35423W        W94684  17.752  17.800  14.441
35424W        W94685  35.057  10.786   2.398
35425W        W94686  37.058  12.617   4.733
35426W        W94687   7.243  16.237  12.848
35427W        W94688  28.648   3.954   0.482
35428W        W94689  36.019  31.147  14.400
35429W        W94690  10.361  21.523   0.484
35430W        W94691   6.820   5.927   0.253
35431W        W94692  13.826  15.326   1.241
35432W        W94693  43.813  44.937   1.302
35433W        W94694  25.045  28.566   2.776
35434W        W94695  26.180   5.813   2.271
35435W        W94696  31.992   7.257   2.755
35436W        W94697  42.862   3.753   0.794
35437W        W94698  26.518  26.463   0.799
35438W        W94699   6.872   4.391   1.740
35439W        W94700  31.896  37.009   0.399
35440W        W94701  37.048  15.237  14.929
35441W        W94702  17.741   8.268  12.924
35442W        W94703   0.336  37.513  10.991
35443W        W94704  21.248  24.722  13.462
35444W        W94705   7.218  26.550  11.389
35445W        W94706   0.910   5.202   3.269
35446W        W94707  22.522  43.782   4.772
35447W        W94708  41.440  30.610  12.908
35448W        W94709  34.885   1.792  10.582
35449W        W94710  28.598  20.069   3.360
35450W        W94711  35.382  30.524   2.765
35451W        W94712  33.500  12.154  14.385
35452W        W94713  22.228   5.758   4.146
35453W        W94714  21.128  14.592  14.376
35454W        W94715  41.788  28.018   2.804
35455W        W94716  25.690  23.715   1.774
35456W        W94717  24.664  22.081   0.738
35457W        W94718  40.942  43.281  11.509
35458W        W94719  24.496  19.540   0.793
35459W        W94720   8.815  17.783   4.664
35460W        W94721  33.978  17.560  12.546
35461W        W94722   7.905   1.908  12.074
35462W        W94723  10.773   9.834  11.408
35463W        W94724  42.451  35.852  12.416
35464W        W94725  11.332   5.306  10.902
35465W        W94726  25.500  29.017   2.683
35466W        W94727   1.358  31.488  14.475
35467W        W94728  42.850  11.147  11.916
35468W        W94729  21.188  11.781  12.920
35469W        W94730  30.125  37.953   0.248
35470W        W94731   8.673  33.486   2.740
35471W        W94732  10.184   0.827   1.218
35472W        W94733  29.598  18.219  11.377
35473W        W94734  14.661  31.443  11.870
35474W        W94735  16.149  29.660  14.406
35475W        W94736  38.995  37.953  11.031
35476W        W94737   2.762   5.435   1.726
35477W        W94738   6.717  30.149  13.511
35478W        W94739  23.589  26.064  11.005
35479W        W94740  19.144  33.443   3.864
35480W        W94741  44.898  41.440   2.295
35481W        W94742  15.632   1.247  11.061
35482W        W94743  18.183  20.674  12.923
35483W        W94744  17.099   8.178  10.520
35484W        W94745  27.602  16.103  13.985
35485W        W94746  15.166  35.501  11.436
35486W        W94747  26.137  35.489   1.880
35487W        W94748  28.138  28.976   3.194
35488W        W94749  11.223  38.021   0.818
35489W        W94750  13.215  16.570  11.935
35490W        W94751   8.402  15.173   3.789
35491W        W94752  23.149  26.178  10.613
35492W        W94753  43.017   2.441   3.287
35493W        W94754  25.504  30.657   3.250
35494W        W94755  37.454  17.678  11.440
35495W        W94756   6.230   2.441  11.457
35496W        W94757  15.319  29.433   3.778
35497W        W94758  26.457  43.931  14.003
35498W        W94759  43.477  19.213  10.996
35499W        W94760   3.743   7.212  13.049
35500W        W94761   1.942  43.361  14.819
35501W        W94762  38.028  18.200  10.534
35502W        W94763  26.200  29.520  12.404
35503W        W94764  37.035   2.900  12.506
35504W        W94765  42.955   4.907   4.817
35505W        W94766   5.709  36.071   4.825
35506W        W94767  17.304  19.228   5.293
35507W        W94768   5.744  39.997   2.694
35508W        W94769  31.003  23.212   3.673
35509W        W94770  29.561  34.893   3.184
35510W        W94771  43.786   2.414  11.071
35511W        W94772  44.310  31.028  10.946
35512W        W94773  31.933   9.706  13.424
35513W        W94774  13.278  15.801  11.411
35514W        W94775  19.207  39.382  12.886
35515W        W94776  33.417  44.922  11.983
35516W        W94777   5.212  44.316  14.922
35517W        W94778  36.407  29.157   4.339
35518W        W94779  21.124   6.354   3.379
35519W        W94780  43.437  15.663   3.676
35520W        W94781   5.242   6.277  10.526
35521W        W94782   8.790  29.590   0.243
35522W        W94783  30.033  17.560   3.839
35523W        W94784  20.743  10.175  11.895
35524W        W94785  14.249  24.168  13.032
35525W        W94786  34.000  38.016  11.439
35526W        W94787  27.494  19.078  11.950
35527W        W94788  15.177   2.777  11.907
35528W        W94789  30.596  11.840  14.811
35529W        W94790  17.101  44.759   2.744
35530W        W94791  20.710   7.829   1.902
35531W        W94792   9.212  28.501   2.849
35532W        W94793   0.838   3.287   4.728
35533W        W94794  37.043  22.615   0.790
35534W        W94795  43.372  26.179   5.204
35535W        W94796  20.179   7.400   3.206
35536W        W94797   3.889  28.968  12.851
35537W        W94798  21.130  31.642   2.326
35538W        W94799  35.897  31.491   1.449
35539W        W94800   9.270  26.036   1.818
35540W        W94801   3.370  23.161  13.326
35541W        W94802   6.250  23.202  13.794
35542W        W94803  32.505  28.958  14.953
35543W        W94804  29.065  18.072   2.310
35544W        W94805   8.721   5.850  14.951
35545W        W94806  12.727   8.371   2.189
35546W        W94807  24.714  24.592   3.208
35547W        W94808   0.784  20.070  11.042
35548W        W94809  37.504  42.336   0.825
35549W        W94810  17.288  37.340   0.400
35550W        W94811   6.788  22.650   1.928
35551W        W94812  24.091  28.458   3.253
35552W        W94813  40.798   6.296  11.024
35553W        W94814  27.562  13.780   2.232
35554W        W94815  32.093   2.932   2.390
35555W        W94816  30.639   1.249   4.815
35556W        W94817   0.415  11.630   3.180
35557W        W94818  41.859   8.815  12.842
35558W        W94819  35.537   3.415  11.089
35559W        W94820   0.476  19.148   2.827
35560W        W94821  12.338  36.377  13.531
35561W        W94822  21.051  28.512  14.908
35562W        W94823  20.705  17.195   3.796
35563W        W94824   2.780  32.967   3.148
35564W        W94825  31.099  10.288   2.295
35565W        W94826  15.165  35.997  14.495
35566W        W94827  13.191  22.109  11.938
35567W        W94828  14.669  41.514  12.847
35568W        W94829  20.745  10.341  12.851
35569W        W94830  41.863  20.196  10.971
35570W        W94831  26.105  17.679  14.011
35571W        W94832  34.913  36.059   4.212
35572W        W94833  23.190   4.764  14.880
35573W        W94834  19.100  38.357  14.381
35574W        W94835  38.925  12.147  10.901
35575W        W94836  31.632   8.160  10.502
35576W        W94837  26.595  17.756   3.277
35577W        W94838  16.741   3.407  11.061
35578W        W94839  24.017  29.533   2.333
35579W        W94840  44.472  10.734   4.799
35580W        W94841  28.143  32.972   0.342
35581W        W94842  23.153  34.609   4.116
35582W        W94843  30.989  22.595   9.958
35583W        W94844  29.097  38.918   3.795
35584W        W94845   2.369  16.217   0.268
35585W        W94846  13.825  28.978  12.010
35586W        W94847   4.407  28.164  12.903
35587W        W94848  36.006  14.770  11.584
35588W        W94849  33.951  42.780  14.314
35589W        W94850  13.281  25.133  12.967
35590W        W94851   7.197  27.628  14.799
35591W        W94852  32.069  11.184  14.995
35592W        W94853  22.082  23.650   3.767
35593W        W94854   0.454   3.225   5.311
35594W        W94855  43.307  23.668  13.966
35595W        W94856  26.080  20.183   1.420
35596W        W94857  14.250  27.618   3.859
35597W        W94858  42.790  42.318   0.862
35598W        W94859   3.884  29.098  14.786
35599W        W94860  17.105  15.802  12.908
35600W        W94861  26.636  37.882  13.334
35601W        W94862   5.250  39.359   0.303
35602W        W94863  10.208  34.884  14.476
35603W        W94864  33.988  15.167  14.914
35604W        W94865  31.985  37.494  11.450
35605W        W94866   5.929  32.597  11.912
35606W        W94867  22.230  26.584   1.703
35607W        W94868  33.930  14.291  10.997
35608W        W94869  16.270  38.380   0.430
35609W        W94870  38.828  12.778  11.860
35610W        W94871  15.803   5.303   0.481
35611W        W94872   1.308  22.168  14.819
35612W        W94873  20.056  25.181   1.700
35613W        W94874  15.221  31.983  10.514
35614W        W94875  11.173  38.489  13.364
35615W        W94876   0.448  36.502   2.289
35616W        W94877   5.363  34.905   4.121
35617W        W94878   3.727  33.959  12.376
35618W        W94879  35.068  42.023  13.011
35619W        W94880   6.843  25.603   3.737
35620W        W94881  12.283  44.927   3.282
35621W        W94882  32.606  27.113   2.380
35622W        W94883  26.972   6.697  10.986
35623W        W94884  30.493   6.918  11.498
35624W        W94885  30.493  39.980   1.709
35625W        W94886  22.144  12.692   0.381
35626W        W94887  27.587  44.807  12.843
35627W        W94888  41.881   1.806   1.403
35628W        W94889  11.701  31.409   1.873
35629W        W94890  17.582  25.159  12.075
35630W        W94891  29.123  44.462   3.789
35631W        W94892  28.931  28.659  11.964
35632W        W94893  42.839   5.363   2.857
35633W        W94894  27.054   7.385  12.038
35634W        W94895  33.528  42.979   3.379
35635W        W94896  16.244  15.745  11.372
35636W        W94897  40.881  43.346  14.307
35637W        W94898   7.222  11.642   1.361
35638W        W94899  17.255  24.026   3.166
35639W        W94900  37.840   0.764   2.262
35640W        W94901  29.925  10.261  10.933
35641W        W94902  10.333  43.338  14.277
35642W        W94903  41.819  13.276  10.614
35643W        W94904  30.010  23.654  14.933
35644W        W94905  26.017  30.614   0.417
35645W        W94906   9.672  30.933  11.472
35646W        W94907   9.315   3.791   2.353
35647W        W94908   8.177  44.431   1.317
35648W        W94909  21.654  35.964  12.425
35649W        W94910  42.866  42.392  11.534
35650W        W94911  27.650  14.104   2.258
35651W        W94912   4.270  20.689   4.345
35652W        W94913  19.098   8.862   2.331
35653W        W94914   4.870  25.620   2.735
35654W        W94915  10.221   6.716   0.430
35655W        W94916  12.674  25.055   1.759
35656W        W94917  23.239  42.345  13.366
35657W        W94918  39.407  37.441  10.479
35658W        W94919  10.826  37.546  13.808
35659W        W94920  34.410   4.732  11.526
35660W        W94921  17.679  32.446  10.506
35661W        W94922  28.086  28.642   4.148
35662W        W94923  21.545  17.120   1.434
35663W        W94924  38.456  29.100  14.461
35664W        W94925  39.830  24.720   3.232
35665W        W94926   7.844   4.426   3.735
35666W        W94927  26.559   9.150   3.257
35667W        W94928  29.096   5.732   4.205
35668W        W94929  32.546   0.271  10.889
35669W        W94930  15.196   7.363   0.280
35670W        W94931  22.641  42.016  11.516
35671W        W94932  16.223   4.215   2.405
35672W        W94933  25.972  17.225  14.357
35673W        W94934  11.716  24.079   1.443
35674W        W94935   7.192  31.938  13.402
35675W        W94936  32.503   3.274  11.069
35676W        W94937   4.775  39.002  11.980
35677W        W94938  19.177  20.650  13.535
35678W        W94939  31.598  16.138  14.318
35679W        W94940   7.199   4.214   5.754
35680W        W94941  21.152  18.188  13.040
35681W        W94942  12.210  33.913   1.272
35682W        W94943  41.339  23.126   1.234
35683W        W94944  16.696  23.120  12.471
35684W        W94945  14.645  19.751  11.558
35685W        W94946  10.327  20.600   0.421
35686W        W94947  33.973   6.328  14.404
35687W        W94948  44.273   6.428   0.340
35688W        W94949  20.113  24.690  14.457
35689W        W94950  29.531   7.366   4.124
35690W        W94951  26.005  31.429  14.324
35691W        W94952  32.430  31.947   0.772
35692W        W94953  30.160  39.905   2.725
35693W        W94954  31.000  32.474   1.841
35694W        W94955  34.457  15.590  12.384
35695W        W94956  41.406  33.423   4.748
35696W        W94957  33.994  24.058   4.818
35697W        W94958  41.872   1.973  11.492
35698W        W94959  19.107  27.942   0.263
35699W        W94960  14.737  22.202   3.326
35700W        W94961   8.213  19.127   1.216
35701W        W94962  21.063  10.645  12.960
35702W        W94963  26.619  36.054  11.591
35703W        W94964  26.019  38.937   3.729
35704W        W94965   4.873  40.352  10.458
35705W        W94966   9.337  23.527  11.892
35706W        W94967  22.220  12.134   3.798
35707W        W94968  27.529   8.216  11.565
35708W        W94969   5.821   1.463   3.333
35709W        W94970  41.512   7.671   3.225
35710W        W94971   0.449  12.771  13.840
35711W        W94972  33.113  15.616   1.310
35712W        W94973   5.817   9.310   2.379
35713W        W94974  31.619   3.352  13.031
35714W        W94975   8.760  33.560  10.966
35715W        W94976  17.130  31.125  14.457
35716W        W94977   5.852  39.025   4.152
35717W        W94978  21.063   1.794  11.915
35718W        W94979  16.269  42.902   3.309
35719W        W94980   3.239  29.138  14.764
35720W        W94981  43.386   6.691   2.243
35721W        W94982   6.185  43.398   4.131
35722W        W94983  43.907  36.511  11.996
35723W        W94984  23.623  21.141   2.353
35724W        W94985   9.747  43.271   0.939
35725W        W94986  21.091  29.070   0.910
35726W        W94987  13.609   3.911   5.663
35727W        W94988  22.612  19.539   1.408
35728W        W94989  32.998   3.214   1.394
35729W        W94990   4.814  44.963   0.884
35730W        W94991  43.910  12.267  14.796
35731W        W94992   9.843   4.291  12.501
35732W        W94993  44.312  23.655  13.027
35733W        W94994  27.151  23.564  14.997
35734W        W94995  30.429  16.636  13.857
35735W        W94996   4.768  27.585  12.924
35736W        W94997  19.628  17.085   0.337
35737W        W94998  12.123   8.841  12.040
35738W        W94999  22.696  43.909  14.022
35739W        W95000  10.803   2.276   3.306
35740W        W95001  38.902  38.328   3.369
35741W        W95002  39.531  18.706  13.989
35742W        W95003  21.691  22.026   0.422
35743W        W95004  39.062  20.526  13.438
35744W        W95005  33.066  35.985   2.190
35745W        W95006   2.781  36.891  13.055
35746W        W95007  38.403  32.123   4.797
35747W        W95008   3.724   5.865   2.748
35748W        W95009  35.034  44.379   4.682
35749W        W95010   6.418  13.183   1.341
35750W        W95011  32.463   1.298  10.488
35751W        W95012  21.511  43.373   4.141
35752W        W95013  38.438  37.024   0.813
35753W        W95014   3.879   8.696  14.401
35754W        W95015  12.762  36.350  12.374
35755W        W95016  35.467   0.460  12.492
35756W        W95017  11.319  21.143   1.428
35757W        W95018  29.533  19.082   0.274
35758W        W95019  29.566   2.830   1.774
35759W        W95020  34.984   2.231  10.591
35760W        W95021   2.282  11.141  10.954
35761W        W95022   5.841  37.486   4.160
35762W        W95023  10.157  43.793  14.908
35763W        W95024  17.790  15.204   3.319
35764W        W95025  29.990  21.708   3.325
35765W        W95026  11.145  33.060  11.040
35766W        W95027  21.616  34.925   0.805
35767W        W95028  26.055  23.653  12.344
35768W        W95029  14.121  15.762  12.056
35769W        W95030   5.925  12.191   4.811
35770W        W95031  24.011  39.395  14.300
35771W        W95032  40.549   8.342  11.987
35772W        W95033   8.186  19.637   4.735
35773W        W95034  43.915  37.435   3.218
35774W        W95035  10.331   8.265   9.603
35775W        W95036  38.364   5.199  10.945
35776W        W95037  43.283  12.293  11.381
35777W        W95038  14.118  21.034   2.846
35778W        W95039  24.564  23.614   0.269
35779W        W95040  17.721  21.136  10.437
35780W        W95041  12.704  44.878  13.846
35781W        W95042  43.279   2.390  14.509
35782W        W95043   1.459  21.693   4.772
35783W        W95044  40.810  40.431   1.765
35784W        W95045  17.102   0.757  14.476
35785W        W95046   0.282  30.971   4.285
35786W        W95047  42.491  14.255   2.679
35787W        W95048  11.781   6.271  10.621
35788W        W95049   4.863  39.479   9.929
35789W        W95050  32.510  33.487  12.579
35790W        W95051  11.651  27.070  14.466
35791W        W95052  27.959   5.915   5.314
35792W        W95053  28.069  21.665  13.381
35793W        W95054   0.417  20.230   1.218
35794W        W95055   1.855  13.771   4.735
35795W        W95056  31.567  24.527  13.327
35796W        W95057  42.418  30.916   3.866
35797W        W95058  11.234  41.876   3.300
35798W        W95059  32.928   7.254   2.697
35799W        W95060  23.620  12.158   2.796
35800W        W95061  41.970   2.833   2.377
35801W        W95062   7.681  41.455   2.798
35802W        W95063  23.560  10.294   2.347
35803W        W95064   4.399  35.960   2.271
35804W        W95065  16.631  13.329   4.814
35805W        W95066   4.905  41.375   3.681
35806W        W95067  41.945  34.563  12.004
35807W        W95068  37.930  33.023   1.219
35808W        W95069  41.984  39.958  12.475
35809W        W95070  40.899  38.004   3.692
35810W        W95071  29.947  33.510   2.889
35811W        W95072  18.691  26.086   3.226
35812W        W95073  26.514  13.349  14.772
35813W        W95074   5.374  25.595  11.603
35814W        W95075  15.603   4.245  10.617
35815W        W95076  27.641  19.671   4.797
35816W        W95077   6.720  11.671   0.797
35817W        W95078  15.238  11.669  14.852
35818W        W95079  36.993  24.520   1.849
35819W        W95080   5.292  22.250   1.330
35820W        W95081  19.128  16.746   2.346
35821W        W95082  31.554  43.809   3.725
35822W        W95083  23.642  16.286   3.738
35823W        W95084  20.182  19.621   0.952
35824W        W95085   3.387  43.784   2.336
35825W        W95086  15.123  16.588   2.419
35826W        W95087  25.666  23.591   4.693
35827W        W95088   8.316  18.568  13.881
35828W        W95089  11.795  40.355   3.302
35829W        W95090   3.779  10.660   2.842
35830W        W95091  23.533  43.950   0.735
35831W        W95092   6.841   0.448   0.398
35832W        W95093  18.213  19.126   2.201
35833W        W95094  12.297   2.263   0.839
35834W        W95095   0.843   3.863  11.394
35835W        W95096  39.834  41.863   0.955
35836W        W95097  39.486   4.835   1.335
35837W        W95098   9.351  40.964   4.253
35838W        W95099  40.540  29.636  13.426
35839W        W95100  35.404  17.650   2.338
35840W        W95101  12.718   8.285   3.784
35841W        W95102  36.969  16.134   2.370
35842W        W95103  36.099  43.315  13.431
35843W        W95104  29.609  25.667   1.421
35844W        W95105  42.013  30.907  10.984
35845W        W95106  10.366  26.054   1.380
35846W        W95107   1.287  35.537   0.421
35847W        W95108  41.359  16.197   2.710
35848W        W95109  38.893  33.096  10.475
35849W        W95110  28.184  40.978   4.610
35850W        W95111  44.951  36.524   4.761
35851W        W95112  23.100  33.566  10.045
35852W        W95113  37.475  36.936   1.229
35853W        W95114   9.317   8.354  11.014
35854W        W95115   3.250  35.109  12.559
35855W        W95116  19.115   9.815   3.754
35856W        W95117  34.009  21.115  14.854
35857W        W95118  40.406  41.498   0.768
35858W        W95119  12.691  32.034  11.864
35859W        W95120  28.648   8.350  11.093
35860W        W95121  22.555  43.862  13.448
35861W        W95122   7.390  17.229  13.863
35862W        W95123  41.841  15.798   2.740
35863W        W95124  35.428  13.312   3.182
35864W        W95125  11.705  34.546   4.193
35865W        W95126   8.806  43.313   3.311
35866W        W95127  44.774  25.693  10.442
35867W        W95128  15.678  11.167   2.713
35868W        W95129  19.046  23.023   3.321
35869W        W95130  25.979  33.964   4.312
35870W        W95131  28.129  17.107  11.019
35871W        W95132  36.592  22.507   3.768
35872W        W95133   5.908  35.856  13.889
35873W        W95134  35.430  10.671  13.455
35874W        W95135  44.856   3.907   4.642
35875W        W95136  25.531  40.432  11.514
35876W        W95137  10.695  40.932  14.824
35877W        W95138  15.299   0.771   3.852
35878W        W95139  23.490  31.023   5.270
35879W        W95140  12.117   3.457   5.217
35880W        W95141  20.135  41.332  12.959
35881W        W95142  12.759  16.622  11.513
35882W        W95143  42.514   8.192  14.334
35883W        W95144   0.448  28.599  14.403
35884W        W95145   3.816   8.161   3.201
35885W        W95146  13.326  37.895   0.404
35886W        W95147  40.344  14.707   1.415
35887W        W95148  32.529  42.961   0.266
35888W        W95149  17.790   8.285   2.901
35889W        W95150  17.726  19.585   1.859
35890W        W95151   0.475  26.049   1.292
35891W        W95152   1.444  11.857   4.809
35892W        W95153  38.423  36.907   4.644
35893W        W95154   2.358   8.881  11.911
35894W        W95155  37.046  31.134   4.206
35895W        W95156  34.431  37.480   4.762
35896W        W95157  13.234  41.458  13.933
35897W        W95158  39.030  16.624   4.158
35898W        W95159  42.393  26.549   4.713
35899W        W95160   9.237  24.203   1.781
35900W        W95161  28.472   9.158  12.991
35901W        W95162   2.242  10.261  10.026
35902W        W95163  35.481  41.923  10.509
35903W        W95164   4.220   2.439  13.044
35904W        W95165  21.205  13.159   3.800
35905W        W95166  10.218   3.849   0.341
35906W        W95167  12.681  27.062  13.430
35907W        W95168  30.439  44.435  11.056
35908W        W95169   1.351  29.975  13.332
35909W        W95170  21.591  31.098   4.314
35910W        W95171   4.928  42.936  14.292
35911W        W95172   8.395  34.519   3.226
35912W        W95173  21.575  43.999   4.785
35913W        W95174  36.890  40.334  11.032
35914W        W95175   2.781  11.841  10.963
35915W        W95176  42.488  23.173   3.702
35916W        W95177  39.868  23.057   2.349
35917W        W95178  38.352  25.090  11.519
35918W        W95179  26.078  36.356   2.855
35919W        W95180  16.082  37.909   0.244
35920W        W95181  14.632  10.338   0.357
35921W        W95182  32.504   7.697   9.992
35922W        W95183  28.524  11.865   4.299
35923W        W95184  20.128   8.896  10.567
35924W        W95185  33.127  31.092   0.841
35925W        W95186  32.549   6.211  14.322
35926W        W95187   4.450  43.287   3.373
35927W        W95188  11.320   5.743  13.031
35928W        W95189   7.785  38.416  11.398
35929W        W95190  10.842  42.323  13.800
35930W        W95191   9.804  15.206   3.349
35931W        W95192  10.701  20.188  12.527
35932W        W95193   7.783  42.358   1.811
35933W        W95194  28.479  11.220   3.844
35934W        W95195   0.381  24.094   0.338
35935W        W95196  19.071  35.934  12.862
35936W        W95197  11.835  38.415  13.914
35937W        W95198  29.996  38.987  11.991
35938W        W95199   3.886  21.734   3.860
35939W        W95200  38.973  23.628  11.058
35940W        W95201  44.765  27.105  12.432
35941W        W95202  44.364  43.360   2.749
35942W        W95203  15.093   0.818   0.779
35943W        W95204  33.407  11.273  13.817
35944W        W95205  18.567   0.960   0.866
35945W        W95206  17.243   3.855  12.019
35946W        W95207  28.490  37.540  11.054
35947W        W95208   6.839  34.105   4.179
35948W        W95209  11.228  10.152  13.363
35949W        W95210  32.085   8.681   0.415
35950W        W95211  24.213  18.148  10.058
35951W        W95212   9.366  34.896  14.293
35952W        W95213  11.790  12.740   4.240
35953W        W95214  26.474   8.827  13.464
35954W        W95215  34.609  41.948   4.207
35955W        W95216  15.102  22.606  13.931
35956W        W95217  33.946  38.411  12.983
35957W        W95218  14.746  38.910   4.782
35958W        W95219  28.488  36.022  12.398
35959W        W95220  20.219  27.446  11.959
35960W        W95221  30.538  36.360   4.631
35961W        W95222  44.778  38.982   2.224
35962W        W95223  22.213  25.002   4.166
35963W        W95224   4.368  26.093  14.408
35964W        W95225  16.191   3.389  10.052
35965W        W95226   4.246  42.325   2.690
35966W        W95227  26.058  12.751   1.715
35967W        W95228  26.185  31.099  11.461
35968W        W95229  43.012  15.706   2.236
35969W        W95230  30.143  26.009   0.353
35970W        W95231  42.412  26.195  13.871
35971W        W95232  21.193  26.072  12.466
35972W        W95233  15.330  20.154  14.291
35973W        W95234  36.093  27.619  10.614
35974W        W95235  19.196  40.937   0.272
35975W        W95236  31.138  33.932  13.925
35976W        W95237  21.098   2.258   4.765
35977W        W95238  14.710   0.290  13.359
35978W        W95239  18.279  15.125  11.428
35979W        W95240  11.164   7.680   0.470
35980W        W95241   2.825  27.486  13.864
35981W        W95242   7.791  34.865   2.335
35982W        W95243  11.234  40.489   3.731
35983W        W95244  44.802  10.846  11.983
35984W        W95245  10.363  19.604   5.209
35985W        W95246   6.819  25.146  14.822
35986W        W95247  17.254  16.662   2.239
35987W        W95248  37.853  27.657   1.857
35988W        W95249  16.216  29.968  12.885
35989W        W95250   9.249  19.629  14.769
35990W        W95251  39.006  21.713  12.539
35991W        W95252  11.653  35.430  12.006
35992W        W95253  40.487  38.529  14.815
35993W        W95254  21.587  13.733  12.578
35994W        W95255   4.883  27.493  12.503
35995W        W95256  44.006  15.607  12.472
35996W        W95257  11.282   4.294   0.812
35997W        W95258  13.703  20.128   3.864
35998W        W95259  34.444   8.359   2.226
35999W        W95260  36.490   4.340  11.025
36000W        W95261  44.278   4.396   3.832
36001W        W95262  15.665  30.143   4.251
36002W        W95263   7.252  34.014  12.929
36003W        W95264  29.087  33.534  10.581
36004W        W95265  22.641   9.816  12.844
36005W        W95266  43.442  19.590  12.988
36006W        W95267  14.764  16.699  10.565
36007W        W95268  39.856   0.938   0.411
36008W        W95269  19.534  40.543  13.358
36009W        W95270   1.473  36.363  12.880
36010W        W95271  36.912  44.443  13.036
36011W        W95272  27.047   0.267   2.182
36012W        W95273  35.966  43.863   1.335
36013W        W95274  29.062   1.861  12.003
36014W        W95275   8.703  20.081   4.317
36015W        W95276   5.912  37.577  14.979
36016W        W95277  12.287  18.681  14.796
36017W        W95278   0.429  10.731   4.326
36018W        W95279   4.333  32.054  11.129
36019W        W95280  35.997  30.990   3.377
36020W        W95281   4.728  14.190  13.389
36021W        W95282   3.396   5.783  14.956
36022W        W95283  20.635  27.499   1.303
36023W        W95284  40.488  13.766   2.704
36024W        W95285  23.601  41.509   3.739
36025W        W95286  44.490  15.697   4.620
36026W        W95287  31.005  41.481   3.772
36027W        W95288  32.124  43.507  12.848
36028W        W95289  28.613  25.655   0.922
36029W        W95290  18.688   7.410   1.818
36030W        W95291  40.316   8.213   3.175
36031W        W95292  38.989   3.795  13.885
36032W        W95293  39.808  28.543  13.465
36033W        W95294  34.582  15.153  11.073
36034W        W95295  12.321  41.367  14.444
36035W        W95296   4.223  43.362  11.087
36036W        W95297  37.841   0.488  10.483
36037W        W95298  16.770  40.822   2.780
36038W        W95299  43.768  17.166   1.327
36039W        W95300  44.856  32.403   2.412
36040W        W95301   0.780  37.370  12.849
36041W        W95302  23.124   2.413  14.312
36042W        W95303  22.059  44.369  14.296
36043W        W95304  21.254  28.572  10.592
36044W        W95305   4.445  44.400   2.353
36045W        W95306   4.772   7.878   4.341
36046W        W95307   0.941  16.118   5.114
36047W        W95308  41.469  16.224   0.916
36048W        W95309  20.592  10.756  13.452
36049W        W95310   3.306  36.584   3.191
36050W        W95311  11.697  10.381   1.368
36051W        W95312  21.148  11.729  12.460
36052W        W95313  25.104  13.195   3.633
36053W        W95314  36.944  38.393   2.180
36054W        W95315  19.239  42.401  10.450
36055W        W95316  23.185  23.705  11.401
36056W        W95317  31.409  24.093  13.835
36057W        W95318  35.094  40.863   3.295
36058W        W95319   6.192  25.083  13.035
36059W        W95320   0.318  29.945   0.308
36060W        W95321  27.055  29.053  11.883
36061W        W95322   3.743   9.718  14.022
36062W        W95323  35.093  19.771  10.949
36063W        W95324  29.013   7.766   2.765
36064W        W95325  40.317  13.119  14.475
36065W        W95326  22.522  16.223  14.021
36066W        W95327   8.782   5.356   2.260
36067W        W95328  21.668  20.183   5.226
36068W        W95329  12.738  20.218  11.491
36069W        W95330  21.616  33.956  13.422
36070W        W95331  24.985  30.449   1.757
36071W        W95332  41.982   8.252   0.388
36072W        W95333  41.981   4.890   0.844
36073W        W95334   7.772  17.307   5.295
36074W        W95335  20.223  19.681   3.794
36075W        W95336   3.308  36.096   3.329
36076W        W95337  27.642  29.525   5.234
36077W        W95338   8.850  13.130  14.759
36078W        W95339  38.059  25.148   0.850
36079W        W95340   6.255  22.738  11.907
36080W        W95341  23.053  41.041  10.915
36081W        W95342  16.161  32.407  13.812
36082W        W95343  37.848  43.785   0.779
36083W        W95344  39.885  19.141   3.863
36084W        W95345  10.215  17.068  12.566
36085W        W95346  32.957   2.891   2.728
36086W        W95347  44.805  19.623  11.100
36087W        W95348   8.761  24.009  11.885
36088W        W95349  15.228  35.081  13.478
36089W        W95350  25.682  31.135   2.415
36090W        W95351  30.433  23.592   1.290
36091W        W95352   6.738  42.782  14.304
36092W        W95353  23.562  23.131  14.429
36093W        W95354  22.159  30.070   0.381
36094W        W95355   6.836   7.274  11.483
36095W        W95356   9.166  11.276  13.427
36096W        W95357  18.554  32.394   4.751
36097W        W95358  19.682  33.542  10.981
36098W        W95359   1.456  25.199   0.812
36099W        W95360  41.487  17.771  12.554
36100W        W95361  19.041  15.191  14.492
36101W        W95362  36.532  33.887  12.953
36102W        W95363  12.770  34.436   4.137
36103W        W95364  16.143  22.056  13.480
36104W        W95365  34.865  35.049  11.009
36105W        W95366  18.230   8.717   1.855
36106W        W95367  21.602  13.316  13.950
36107W        W95368  38.342  15.749  14.415
36108W        W95369  36.397  22.589  14.449
36109W        W95370  33.037  42.017  12.907
36110W        W95371  17.095   2.350  14.938
36111W        W95372  28.081  37.495  13.360
36112W        W95373  21.736  33.013   2.296
36113W        W95374   7.255  38.986  14.392
36114W        W95375  18.679  39.967  14.867
36115W        W95376  14.589  39.963   4.156
36116W        W95377  36.479  30.060  13.431
36117W        W95378   1.305  20.734  10.973
36118W        W95379  31.913   1.736   9.927
36119W        W95380  35.478  20.206   4.821
36120W        W95381  11.298  25.624   1.707
36121W        W95382  24.607  16.308   0.361
36122W        W95383   3.916  28.570   3.153
36123W        W95384  31.992  24.691   2.204
36124W        W95385  36.583  12.117  10.930
36125W        W95386  35.374  23.102  14.771
36126W        W95387  10.190  39.480   4.798
36127W        W95388  12.792  44.366  13.901
36128W        W95389  29.568  34.606   2.696
36129W        W95390  19.764   7.902  14.805
36130W        W95391  27.514  41.794  14.508
36131W        W95392  39.906  35.415   2.725
36132W        W95393   5.412   9.295  14.023
36133W        W95394   3.926  33.060   2.791
36134W        W95395  42.390  36.847   0.290
36135W        W95396  41.479  26.194  13.998
36136W        W95397  44.883  28.444  14.373
36137W        W95398   9.717  13.606  10.421
36138W        W95399   3.840  35.949  12.460
36139W        W95400  15.293  40.524   3.266
36140W        W95401  16.571  21.746  11.971
36141W        W95402  37.060  29.428  12.370
36142W        W95403   4.875   5.219   1.734
36143W        W95404  11.169   6.833   3.302
36144W        W95405  13.142   6.359  14.900
36145W        W95406   5.707  13.634  12.368
36146W        W95407  26.524  18.676   4.690
36147W        W95408  38.025  23.717   4.197
36148W        W95409  23.636  41.853  14.883
36149W        W95410  34.918  25.552  10.422
36150W        W95411   8.662   3.892  13.915
36151W        W95412   8.201  34.021  13.053
36152W        W95413  37.914  38.548   0.789
36153W        W95414  38.928  24.116  12.929
36154W        W95415  15.209   3.923  14.869
36155W        W95416  31.445  27.639  13.821
36156W        W95417   2.925  22.096  11.391
36157W        W95418  30.517   8.279   1.792
36158W        W95419  36.436   6.327   1.295
36159W        W95420  22.126  36.053  13.325
36160W        W95421  32.948  37.424   3.741
36161W        W95422   4.262   6.824  12.022
36162W        W95423  24.513  25.544   2.188
36163W        W95424  10.856  36.513   1.862
36164W        W95425   0.787  23.098  13.347
36165W        W95426  29.588  41.347   1.763
36166W        W95427  36.876  13.134  12.010
36167W        W95428   9.802   5.851   0.321
36168W        W95429  24.025  41.363  11.442
36169W        W95430  34.007  19.573  11.408
36170W        W95431  40.425  26.487  13.515
36171W        W95432  44.839  37.022   4.147
36172W        W95433  11.626  38.371  10.603
36173W        W95434   1.969  22.509  10.445
36174W        W95435   0.897  44.270   1.869
36175W        W95436  32.896  31.450  12.529
36176W        W95437   7.824  38.483   0.776
36177W        W95438  20.098  11.301   2.379
36178W        W95439  41.878  28.521   5.295
36179W        W95440  32.137  30.128  12.846
36180W        W95441  34.991  29.011   2.373
36181W        W95442  22.117  43.827  14.307
36182W        W95443  30.548  40.426  14.019
36183W        W95444  38.964  38.948   1.316
36184W        W95445  22.030  21.236   1.711
36185W        W95446  35.852  21.722   3.243
36186W        W95447  36.045  16.752  12.860
36187W        W95448   1.776  11.273  10.510
36188W        W95449  11.246  26.570  12.415
36189W        W95450   1.861   4.388  13.342
36190W        W95451  12.786  30.912  12.074
36191W        W95452  22.621  12.126  13.932
36192W        W95453   1.338  14.795   4.674
36193W        W95454  42.846   0.824   1.251
36194W        W95455   2.882  24.230   3.708
36195W        W95456  10.719   7.792  10.930
36196W        W95457  19.563  13.321   3.156
36197W        W95458  30.429  22.565  14.482
36198W        W95459  27.002  11.323  11.048
36199W        W95460  13.333  22.747  12.577
36200W        W95461   5.391  29.656  14.830
36201W        W95462  24.648   6.855  10.437
36202W        W95463  10.650   7.902   4.606
36203W        W95464  30.910  34.997  13.493
36204W        W95465   2.378   5.358   4.220
36205W        W95466   8.282  16.098   2.817
36206W        W95467   2.375   5.851  13.530
36207W        W95468   3.711  20.673   2.301
36208W        W95469   9.797  36.589   3.368
36209W        W95470  21.241   6.316  13.329
36210W        W95471  34.899  36.083  11.075
36211W        W95472   0.248  41.865  11.032
36212W        W95473  19.711  15.126  13.364
36213W        W95474  13.109  37.411   2.715
36214W        W95475   7.258  41.424   2.374
36215W        W95476  17.800  13.207   4.647
36216W        W95477  28.446  32.544   1.740
36217W        W95478  38.882  30.595   3.157
36218W        W95479  13.317  31.954   2.399
36219W        W95480  26.176  10.710   3.708
36220W        W95481  35.032  37.941   1.229
36221W        W95482  32.508  12.630   4.709
36222W        W95483  39.868  39.933   1.368
36223W        W95484   9.725   6.865  14.297
36224W        W95485  29.584   1.767  10.904
36225W        W95486  44.914   3.246   3.201
36226W        W95487  44.766  28.457   0.373
36227W        W95488  19.745  44.784   4.195
36228W        W95489  21.622  31.455  13.922
36229W        W95490   5.780  10.708   0.328
36230W        W95491  19.117  18.597  14.014
36231W        W95492  23.587  20.088  11.988
36232W        W95493  13.283  36.066   4.282
36233W        W95494   1.279  38.884  12.421
36234W        W95495  18.612  44.300  12.010
36235W        W95496  18.738  31.582   3.272
36236W        W95497  26.599  34.615   3.696
36237W        W95498  22.678   9.849  14.419
36238W        W95499  27.659  31.586   1.875
36239W        W95500   5.341  30.606   0.386
36240W        W95501  19.638  27.151  10.570
36241W        W95502  18.752  41.912  13.950
36242W        W95503  38.891  35.481   5.136
36243W        W95504  31.606  40.965   3.716
36244W        W95505  10.764  28.584  10.413
36245W        W95506  15.137  15.623  10.550
36246W        W95507   2.824   2.275   2.226
36247W        W95508  43.307  34.042  13.450
36248W        W95509  13.682  27.662   0.768
36249W        W95510   1.779   5.366  12.948
36250W        W95511  30.954  24.182   4.244
36251W        W95512  13.144  17.268  13.487
36252W        W95513  24.491  27.565   1.328
36253W        W95514  14.723   1.435   3.843
36254W        W95515   5.862  30.422  11.556
36255W        W95516   6.283  17.770  11.400
36256W        W95517  24.595  27.447  13.990
36257W        W95518  43.389  44.981  12.396
36258W        W95519  29.000  24.064  11.985
36259W        W95520  21.626  40.330  11.020
36260W        W95521  10.198  34.998   5.186
36261W        W95522  37.982  44.333   2.800
36262W        W95523   5.901  40.461   2.830
36263W        W95524  37.579  33.889  10.942
36264W        W95525  29.642  12.708   3.678
36265W        W95526  11.689  30.538   1.399
36266W        W95527  44.483  32.528   3.256
36267W        W95528  19.727  35.946  13.998
36268W        W95529  11.354  15.733  14.886
36269W        W95530   2.880   5.203  14.015
36270W        W95531  24.628  40.844  13.811
36271W        W95532   8.161  44.420   3.765
36272W        W95533  10.180  37.351   0.739
36273W        W95534  13.752  34.080  10.579
36274W        W95535  15.316  44.798   1.832
36275W        W95536  16.133  35.957  11.089
36276W        W95537  34.569  35.551   0.378
36277W        W95538  34.609   5.791   0.347
36278W        W95539  35.006  29.122  12.397
36279W        W95540   3.373  16.241   2.728
36280W        W95541   4.241  35.890   1.898
36281W        W95542  34.949   4.879  12.036
36282W        W95543  13.638  27.072  11.528
36283W        W95544  34.570  34.472  13.399
36284W        W95545   0.798  16.123  13.943
36285W        W95546   6.294  16.235  14.413
36286W        W95547   0.291  17.293   4.734
36287W        W95548  14.133  23.645   3.176
36288W        W95549  14.618   7.834   0.951
36289W        W95550  31.086  10.829   1.301
36290W        W95551  41.441  33.547   5.270
36291W        W95552  11.189  11.804  10.507
36292W        W95553  32.896   5.289   1.224
36293W        W95554  35.507   1.961  12.880
36294W        W95555   6.427   4.370  13.369
36295W        W95556  26.684   7.254   4.816
36296W        W95557   6.391  23.189   0.419
36297W        W95558  16.086  41.862  11.450
36298W        W95559  29.036  34.055   0.960
36299W        W95560  23.138  11.636   2.688
36300W        W95561  44.919  44.910   1.245
36301W        W95562  20.118  36.062   3.834
36302W        W95563   1.473  29.534   1.908
36303W        W95564  28.659  19.121   0.365
36304W        W95565  22.575  30.941  12.479
36305W        W95566  17.107  39.329   2.297
36306W        W95567  10.154   6.886   4.711
36307W        W95568  25.025  44.343   3.229
36308W        W95569   8.892  42.293  13.985
36309W        W95570  17.655  29.101   2.849
36310W        W95571  16.648  12.119   4.334
36311W        W95572  10.850  33.059  14.826
36312W        W95573  18.764  29.985   0.458
36313W        W95574  44.413  39.838  10.948
36314W        W95575  41.445  42.974  14.836
36315W        W95576  27.672  33.046  10.920
36316W        W95577  11.704   5.740   4.681
36317W        W95578   0.908  15.756  12.087
36318W        W95579  26.156   9.258   2.333
36319W        W95580  43.014  18.123   0.747
36320W        W95581   4.738  13.286  10.947
36321W        W95582  44.332  32.131   4.638
36322W        W95583  41.031   0.388  13.054
36323W        W95584  42.502  39.001   2.272
36324W        W95585   9.870   9.767  12.086
36325W        W95586  30.129  27.461  11.595
36326W        W95587  30.121  36.024  12.942
36327W        W95588   7.881  43.851  10.629
36328W        W95589  39.435   7.789   1.887
36329W        W95590   9.161  28.550  12.537
36330W        W95591  30.521  31.967  12.859
36331W        W95592  35.899  28.456  11.926
36332W        W95593   2.732  35.522  12.393
36333W        W95594   4.723   3.417   4.318
36334W        W95595   2.882  37.501   4.617
36335W        W95596  23.526  44.293  14.795
36336W        W95597  13.692  17.798   1.848
36337W        W95598   0.339   2.877   0.339
36338W        W95599  10.221  30.556  13.459
36339W        W95600   0.810   6.840  11.035
36340W        W95601  43.511   0.375   0.796
36341W        W95602  39.066  23.693   1.917
36342W        W95603   6.848  38.986  13.985
36343W        W95604   8.403  20.190   4.720
36344W        W95605  43.415  38.991   0.755
36345W        W95606   9.725  23.707  12.411
36346W        W95607  44.883   4.941  12.480
36347W        W95608  23.235   9.190   2.308
36348W        W95609  26.699  39.464  10.633
36349W        W95610  30.035   7.229  11.860
36350W        W95611  43.915   5.772  10.447
36351W        W95612  18.179  22.511   0.840
36352W        W95613   9.824  44.462   4.664
36353W        W95614  18.141   1.778  14.451
36354W        W95615  35.358  44.980  11.023
36355W        W95616  20.208   5.293   1.827
36356W        W95617   5.336   7.308  14.848
36357W        W95618  11.836  20.637   4.167
36358W        W95619  33.470  42.424   0.436
36359W        W95620  40.433  10.744   4.299
36360W        W95621  29.630  21.066  12.550
36361W        W95622   9.242  18.751   3.258
36362W        W95623   4.796  36.533  14.915
36363W        W95624  15.651  25.185  13.428
36364W        W95625  20.740  27.467  10.624
36365W        W95626   2.866  21.249  13.033
36366W        W95627  43.896  17.592  13.947
36367W        W95628  21.116  27.042  11.517
36368W        W95629  14.786  11.740   2.203
36369W        W95630  28.090  33.944   0.939
36370W        W95631   3.293  29.104  10.079
36371W        W95632   4.292  16.759  14.797
36372W        W95633  37.461  37.028  13.401
36373W        W95634  13.346  42.493  14.314
36374W        W95635  38.382  41.309   1.438
36375W        W95636  21.190  27.014  14.321
36376W        W95637  43.286   4.850  11.008
36377W        W95638  44.989  29.003   2.201
36378W        W95639  22.744   8.802  10.148
36379W        W95640  17.128   8.387   4.650
36380W        W95641  12.724   6.858  13.913
36381W        W95642  11.169  40.999   1.842
36382W        W95643  29.976  33.925  13.966
36383W        W95644  32.571  36.348  12.578
36384W        W95645  10.367  43.379  13.522
36385W        W95646  31.903  44.280   4.619
36386W        W95647  43.290   7.330  12.060
36387W        W95648   8.656   9.823   1.436
36388W        W95649  11.783  41.033   0.254
36389W        W95650  16.571  24.644   2.832
36390W        W95651  37.353  38.452   2.758
36391W        W95652  36.041   3.259   4.703
36392W        W95653  37.456  42.846   1.714
36393W        W95654  26.552   9.298  11.945
36394W        W95655  15.578  29.116  13.452
36395W        W95656  34.972  14.605  11.902
36396W        W95657  42.496  39.426   9.930
36397W        W95658   6.352  16.812  10.993
36398W        W95659   4.330  35.889  12.096
36399W        W95660  14.633  38.056  10.625
36400W        W95661   4.324  27.097   2.822
36401W        W95662   3.830  27.179   1.314
36402W        W95663  34.545  22.706  11.564
36403W        W95664   0.433  27.638   0.391
36404W        W95665  44.862   7.729  13.344
36405W        W95666  31.598  31.075  12.449
36406W        W95667  40.892   2.783   3.157
36407W        W95668  11.627  10.827   2.755
36408W        W95669  17.194  11.687  11.050
36409W        W95670  12.820  34.443   0.247
36410W        W95671  12.687  13.668   2.361
36411W        W95672  12.659  12.815   4.350
36412W        W95673   1.374  37.430  13.853
36413W        W95674  25.962  42.501  14.923
36414W        W95675   3.838  10.723   3.254
36415W        W95676  36.915  43.834  13.998
36416W        W95677  44.849  38.887   0.347
36417W        W95678  33.068  28.461   3.863
36418W        W95679   7.833   9.682  11.421
36419W        W95680  27.154  35.494   4.672
36420W        W95681  31.021  12.760   0.404
36421W        W95682  28.603  41.298  11.047
36422W        W95683  31.006  33.426   3.149
36423W        W95684  25.209  24.599   0.350
36424W        W95685  14.184  34.523   1.239
36425W        W95686  37.962  36.844   2.759
36426W        W95687  20.196  23.241   4.286
36427W        W95688  23.617   3.890  10.439
36428W        W95689  34.454  21.167   2.668
36429W        W95690   9.767  13.282  10.428
36430W        W95691  36.967  44.923  13.062
36431W        W95692  18.605  28.128  12.894
36432W        W95693  22.064   3.335   4.135
36433W        W95694   5.832  33.471  12.454
36434W        W95695  41.462  21.730  14.458
36435W        W95696  39.557   6.875  14.015
36436W        W95697  21.090  25.142   3.294
36437W        W95698  18.087   0.848   0.773
36438W        W95699  32.142   2.438  11.109
36439W        W95700  27.021  41.893  14.447
36440W        W95701  32.036  21.039  14.371
36441W        W95702  16.130  31.471  11.373
36442W        W95703  22.575  20.654   2.777
36443W        W95704   7.294  40.437  14.763
36444W        W95705  23.524   3.871  12.931
36445W        W95706  28.538   5.437   2.861
36446W        W95707  43.499  27.027  14.496
36447W        W95708  30.022  21.088  10.984
36448W        W95709  20.213  36.056   5.189
36449W        W95710  30.656  25.984  12.989
36450W        W95711  11.844  10.685  13.995
36451W        W95712  14.340  33.418   0.904
36452W        W95713  36.849  29.586  13.988
36453W        W95714  12.719  39.350   3.755
36454W        W95715   1.284  22.192  13.831
36455W        W95716  41.344  21.570   4.195
36456W        W95717  10.282  14.301   2.276
36457W        W95718  11.794  41.391   4.828
36458W        W95719  18.132  38.066  14.352
36459W        W95720  34.506  41.355  10.928
36460W        W95721   7.296   9.232   3.259
36461W        W95722  30.917  44.857  11.000
36462W        W95723  44.993   5.872   4.178
36463W        W95724  22.668   1.933   3.692
36464W        W95725  22.599  15.757  14.813
36465W        W95726  12.221  18.144   1.408
36466W        W95727  26.080  18.249  14.337
36467W        W95728  31.561   0.337  14.416
36468W        W95729  20.532   5.285   1.227
36469W        W95730  34.594  13.328  12.539
36470W        W95731   4.877   0.817  13.821
36471W        W95732  38.992   3.806  12.360
36472W        W95733  44.327  42.923  13.836
36473W        W95734  20.580  42.302   2.809
36474W        W95735  23.029  20.624   3.199
36475W        W95736  31.026   3.398  13.356
36476W        W95737  36.439   7.670  10.130
36477W        W95738   8.382   6.411   9.666
36478W        W95739  41.037  42.353   2.194
36479W        W95740  33.973  21.640   0.820
36480W        W95741  13.260  20.747  13.449
36481W        W95742  13.279   0.753  14.336
36482W        W95743  16.772  38.395   0.843
36483W        W95744   3.813  40.863   4.794
36484W        W95745  17.253  26.010   0.480
36485W        W95746  26.571   9.657   4.740
36486W        W95747   4.419  42.031  14.495
36487W        W95748  23.507  33.918  14.011
36488W        W95749   3.323   1.265  13.912
36489W        W95750  27.136  42.286   0.885
36490W        W95751  39.422   6.208   3.694
36491W        W95752   7.389  18.695   1.711
36492W        W95753   1.410  24.615  10.602
36493W        W95754  31.475   1.826   1.914
36494W        W95755  12.729  41.010  14.023
36495W        W95756  34.927  12.759   5.161
36496W        W95757  28.124  35.865  13.407
36497W        W95758  12.648  18.108   2.778
36498W        W95759  12.694  19.734  13.410
36499W        W95760  27.670  28.443  11.411
36500W        W95761  39.557  10.269   0.314
36501W        W95762   0.403  42.468  13.803
36502W        W95763  25.644  39.508   2.188
36503W        W95764  25.989   8.783   0.458
36504W        W95765  34.085  21.513  13.057
36505W        W95766  17.593  24.976  10.087
36506W        W95767  31.977  19.076  10.964
36507W        W95768  27.522  20.595   0.435
36508W        W95769  33.103  43.998   1.441
36509W        W95770  22.041  13.263   4.800
36510W        W95771  17.128  13.700  11.007
36511W        W95772   9.171  33.393  13.413
36512W        W95773  43.420  12.268   2.729
36513W        W95774  10.714   3.843   3.383
36514W        W95775  26.530  32.892   4.239
36515W        W95776  36.429  12.332  11.965
36516W        W95777  24.147  10.149  14.447
36517W        W95778  11.260  35.944  11.577
36518W        W95779  39.954   7.820   0.424
36519W        W95780  37.948  29.010   5.246
36520W        W95781  28.475  23.628  13.349
36521W        W95782  37.411  28.454  13.927
36522W        W95783  43.954  37.011   0.469
36523W        W95784  35.070  12.147  11.440
36524W        W95785  20.603  30.444   0.794
36525W        W95786  16.211  44.795  10.908
36526W        W95787  24.145  43.418  12.964
36527W        W95788  35.375   9.324   1.437
36528W        W95789   5.406  38.389  12.985
36529W        W95790  44.804   4.354  13.901
36530W        W95791   5.378  17.775   3.272
36531W        W95792  14.804  36.022  13.861
36532W        W95793  25.536  33.015  11.602
36533W        W95794   6.228   1.242   1.281
36534W        W95795   5.730  10.147  11.088
36535W        W95796   8.695  37.413  14.313
36536W        W95797  10.175  41.901  10.527
36537W        W95798  23.562  40.922   1.932
36538W        W95799  18.138  30.567   0.365
36539W        W95800   7.411  20.142   1.383
36540W        W95801  44.888  41.931  14.338
36541W        W95802   6.841  14.723   4.597
36542W        W95803  18.640  11.681  11.534
36543W        W95804  28.470  37.048  10.614
36544W        W95805  13.137  20.204  11.035
36545W        W95806   2.255  15.796  13.999
36546W        W95807   8.766   7.706  14.469
36547W        W95808   1.754   3.267  11.874
36548W        W95809  13.639  13.760  13.488
36549W        W95810   8.785  10.227   4.289
36550W        W95811  18.784  12.173   2.260
36551W        W95812  35.421  23.201   4.838
36552W        W95813  30.083   2.394  10.543
36553W        W95814  10.654   7.834  11.920
36554W        W95815   6.330  37.902  14.369
36555W        W95816  35.051  28.673   4.176
36556W        W95817  17.659  37.582   2.812
36557W        W95818  43.474  25.677   1.768
36558W        W95819  40.515   4.856   2.349
36559W        W95820   2.751  13.618   2.273
36560W        W95821  39.966   9.149  13.885
36561W        W95822  18.157  27.457  13.383
36562W        W95823  36.448  24.571   3.283
36563W        W95824  28.069  29.112  14.505
36564W        W95825   2.313   5.929  11.591
36565W        W95826  31.119  24.649   0.830
36566W        W95827  21.564   6.908   2.678
36567W        W95828  26.474   6.764   3.757
36568W        W95829  29.547  14.332   2.683
36569W        W95830  10.255  40.544  14.918
36570W        W95831  20.071  14.256   2.236
36571W        W95832  42.337  21.723  14.008
36572W        W95833  44.376  20.162   1.907
36573W        W95834   5.898  16.217   4.651
36574W        W95835   6.722  30.563  13.464
36575W        W95836  15.092   4.883   0.258
36576W        W95837  12.709  32.056  12.828
36577W        W95838  33.613  31.596   1.929
36578W        W95839  15.692  38.987  10.630
36579W        W95840   3.321  17.159   3.734
36580W        W95841  19.092   6.782   0.830
36581W        W95842  24.994  15.235  13.980
36582W        W95843   7.854   5.251   2.293
36583W        W95844   4.322  19.580   3.748
36584W        W95845  17.697  44.263   3.785
36585W        W95846  31.434  41.314  13.978
36586W        W95847  32.621  43.487  13.849
36587W        W95848   4.911  10.761  11.381
36588W        W95849  13.633  12.812   3.766
36589W        W95850   0.468   7.778  12.342
36590W        W95851  28.640  26.674  11.961
36591W        W95852  27.464  20.147   0.938
36592W        W95853  15.761  28.146   2.186
36593W        W95854  33.115   5.198   5.572
36594W        W95855  15.663  36.896  14.012
36595W        W95856   9.796  29.444   4.334
36596W        W95857   5.271   3.364  11.521
36597W        W95858  35.102  12.202   9.549
36598W        W95859  34.466  26.603   0.294
36599W        W95860  10.832   4.931   0.752
36600W        W95861  26.001  29.613  11.429
36601W        W95862  40.546  20.234   4.221
36602W        W95863  20.255  36.845  13.804
36603W        W95864  28.618  12.691   1.787
36604W        W95865   5.891  17.679   4.613
36605W        W95866  33.001  38.350   4.322
36606W        W95867  24.991  42.880   3.789
36607W        W95868  12.637  11.744  14.967
36608W        W95869  16.178  43.827   1.450
36609W        W95870  36.028  14.255  14.980
36610W        W95871  28.565  41.012  13.388
36611W        W95872  28.024  38.569  13.948
36612W        W95873  38.017  19.667   9.986
36613W        W95874  30.632  26.030  11.519
36614W        W95875  41.376  16.195   4.639
36615W        W95876   9.866  39.346  13.338
36616W        W95877  24.638  13.734   3.851
36617W        W95878   7.879   2.463   3.799
36618W        W95879  33.429  36.593  12.474
36619W        W95880  13.746   7.726  12.448
36620W        W95881  20.180  20.269   1.852
36621W        W95882   4.782  14.785  13.539
36622W        W95883  28.529  36.503   3.853
36623W        W95884  26.668  38.406   3.264
36624W        W95885   4.910  40.519  13.978
36625W        W95886  32.051  35.994   1.781
36626W        W95887  33.416  28.018  11.030
36627W        W95888  39.478  25.968   0.901
36628W        W95889   8.162  22.619  12.093
36629W        W95890  26.185  31.955   1.426
36630W        W95891  28.962  41.795  10.965
36631W        W95892  38.908  24.600  11.406
36632W        W95893  34.946   3.402   3.297
36633W        W95894   0.982  16.102   0.362
36634W        W95895  30.063  13.189  14.350
36635W        W95896   7.735  24.490  12.359
36636W        W95897  21.666  37.499   0.270
36637W        W95898  38.020  11.367   4.679
36638W        W95899   7.729  20.227   0.896
36639W        W95900  11.134   7.355  14.878
36640W        W95901   1.452  20.102   4.693
36641W        W95902  33.121  10.322   1.857
36642W        W95903  24.642  42.882   1.450
36643W        W95904  22.507  35.363  12.430
36644W        W95905  32.138   5.292  10.603
36645W        W95906  17.294  21.211  11.953
36646W        W95907  20.619  36.472  13.537
36647W        W95908  13.289  41.321  10.943
36648W        W95909  15.775  40.371  10.584
36649W        W95910  38.960  27.993  13.033
36650W        W95911  38.380  36.522  11.406
36651W        W95912  15.124   2.248   0.950
36652W        W95913  23.708  16.216   0.859
36653W        W95914  37.067   4.799   3.150
36654W        W95915  42.929   7.693   1.252
36655W        W95916  32.393   2.308  14.817
36656W        W95917  36.051   0.461  14.394
36657W        W95918  42.934  31.045   1.289
36658W        W95919  22.606  19.685  13.846
36659W        W95920  41.519  11.340  12.997
36660W        W95921  15.244  42.875  11.858
36661W        W95922   4.230  41.420  12.941
36662W        W95923  25.147  12.636   2.326
36663W        W95924   6.354   1.337  10.893
36664W        W95925  24.583  26.690  13.944
36665W        W95926  27.192   6.776  11.974
36666W        W95927  28.520  23.216   1.225
36667W        W95928  16.211  24.086   2.776
36668W        W95929  36.920  35.934   3.744
36669W        W95930  18.085  11.206   3.848
36670W        W95931   5.259  20.739  14.920
36671W        W95932  33.112  24.658   1.403
36672W        W95933   6.404  38.503  14.777
36673W        W95934  19.269  10.213  13.328
36674W        W95935  43.944  18.095   2.861
36675W        W95936  23.154  29.501   4.617
36676W        W95937  26.998   7.705  12.879
36677W        W95938  18.145  27.068   9.567
36678W        W95939  23.586  31.482  11.381
36679W        W95940  33.085  10.732   2.801
36680W        W95941  25.683   2.419   3.146
36681W        W95942  20.112  13.613  13.524
36682W        W95943  35.553  35.109  10.561
36683W        W95944  29.080  42.904  12.089
36684W        W95945   1.236   9.728   4.247
36685W        W95946  15.768  21.226  12.489
36686W        W95947  10.155  21.114   2.245
36687W        W95948  26.545  25.489   0.272
36688W        W95949  12.144  36.023  12.842
36689W        W95950  28.516   8.180  13.403
36690W        W95951   0.461   6.259   4.756
36691W        W95952   8.204  15.596  13.500
36692W        W95953   8.263  28.108  11.012
36693W        W95954  29.004  25.075   3.694
36694W        W95955  29.651  29.963   1.447
36695W        W95956  42.776   5.834  14.913
36696W        W95957   2.325  16.111  10.529
36697W        W95958  29.479  20.255  12.357
36698W        W95959   2.363  31.021   4.746
36699W        W95960  11.720  30.025  11.113
36700W        W95961   4.293  21.658   0.384
36701W        W95962  18.093   4.435   2.735
36702W        W95963  19.672  12.670  12.477
36703W        W95964  19.741   8.166  13.907
36704W        W95965   2.442  39.037  12.437
36705W        W95966  41.325  23.629  14.954
36706W        W95967  37.048  40.437  10.409
36707W        W95968  16.683   7.181   5.596
36708W        W95969   3.798   4.822   4.187
36709W        W95970  15.730  24.148   4.355
36710W        W95971   1.269   5.734   2.291
36711W        W95972  16.193  18.552   3.279
36712W        W95973  22.138  14.775   0.917
36713W        W95974  42.453   1.432  10.476
36714W        W95975  39.484  38.990  13.012
36715W        W95976  14.589  36.522   4.304
36716W        W95977  35.905  32.112  14.781
36717W        W95978  35.964  41.038   1.743
36718W        W95979   2.390  12.355   2.893
36719W        W95980  38.542  37.086   3.789
36720W        W95981  37.390   4.327  14.274
36721W        W95982  21.247  42.497   1.864
36722W        W95983  39.333  12.780   3.355
36723W        W95984  15.773   7.360   1.317
36724W        W95985  26.514   0.471   3.666
36725W        W95986  25.122  44.880  13.389
36726W        W95987  28.487  35.363  13.896
36727W        W95988  22.051  42.810  13.818
36728W        W95989  17.105  22.556   1.372
36729W        W95990  44.330  24.558   2.336
36730W        W95991  29.466  11.712   3.286
36731W        W95992   1.867  30.142   2.279
36732W        W95993  21.244   8.671   2.404
36733W        W95994  42.520  40.504   0.758
36734W        W95995  37.444  30.095   0.942
36735W        W95996  32.105  19.743  10.147
36736W        W95997   8.300   8.294   4.610
36737W        W95998  31.942  13.765   2.192
36738W        W95999   5.395   8.378   1.310
36739W        W96000  16.731  31.419  12.957
36740W        W96001  13.652  37.929   4.141
36741W        W96002  26.589  36.536  12.049
36742W        W96003  15.821   3.230   3.164
36743W        W96004  40.949  27.006  14.868
36744W        W96005  42.828  21.039   0.411
36745W        W96006  29.929  43.849  13.473
36746W        W96007  35.475  40.336   2.236
36747W        W96008  17.591  22.244   0.375
36748W        W96009  22.640  23.113   1.331
36749W        W96010   4.381   0.331  12.001
36750W        W96011  25.638   7.398   2.304
36751W        W96012  30.988  32.075   3.190
36752W        W96013  26.144   6.380   3.284
36753W        W96014  41.380  20.197  12.507
36754W        W96015   4.252  22.509   3.379
36755W        W96016  33.062  35.428   1.910
36756W        W96017  15.188  37.522   0.865
36757W        W96018  32.013  34.116  11.007
36758W        W96019  36.542   5.742   1.445
36759W        W96020  26.510  12.802  14.907
36760W        W96021  17.176  25.187  13.883
36761W        W96022   7.295  17.743  10.996
36762W        W96023  33.595  32.401  11.447
36763W        W96024  21.212  33.051  13.323
36764W        W96025  22.245   5.932  11.436
36765W        W96026  40.377  14.144   3.259
36766W        W96027  17.769  30.416  12.086
36767W        W96028  19.684  17.178   4.136
36768W        W96029  11.689  29.073  12.425
36769W        W96030  42.935  25.565  12.471
36770W        W96031   1.245  26.966   0.789
36771W        W96032  41.412   7.175   0.801
36772W        W96033  42.852  28.066   3.815
36773W        W96034  40.407  26.644   5.235
36774W        W96035   7.752  42.398  12.998
36775W        W96036  39.337  12.178  10.645
36776W        W96037  34.594  43.020   2.711
36777W        W96038  41.036   5.258  14.931
36778W        W96039  31.617  20.679   0.371
36779W        W96040  32.925   8.677   3.762
36780W        W96041   4.894  33.608   2.762
36781W        W96042  24.124   8.182  13.324
36782W        W96043  12.823  28.566  14.838
36783W        W96044  41.406  23.117   5.672
36784W        W96045  34.024   1.963  10.471
36785W        W96046  21.589   0.344  14.996
36786W        W96047  12.743  33.557   0.471
36787W        W96048  43.848   2.330  12.361
36788W        W96049   6.705  42.853  13.844
36789W        W96050  14.645   7.310  13.950
36790W        W96051  41.299  26.952  13.902
36791W        W96052   5.789  27.664   2.879
36792W        W96053   8.715  27.478  13.853
36793W        W96054  29.627  20.044   1.733
36794W        W96055   3.297  22.081   2.766
36795W        W96056   5.343  27.954  14.028
36796W        W96057  20.097  30.991  13.472
36797W        W96058   1.865  40.799   3.321
36798W        W96059  15.692  31.121  11.047
36799W        W96060  15.105  18.159   0.754
36800W        W96061  28.506  28.582   3.867
36801W        W96062   8.844  13.174   1.418
36802W        W96063  22.624  11.287  10.069
36803W        W96064  34.566  43.863  14.886
36804W        W96065  21.103  35.960  14.408
36805W        W96066  19.707  25.985   0.960
36806W        W96067  23.996  13.802   4.766
36807W        W96068  28.951  41.395   0.843
36808W        W96069  30.103  38.544  12.093
36809W        W96070   3.864  30.641  10.624
36810W        W96071   6.292  44.996   3.742
36811W        W96072  26.050  12.780  11.015
36812W        W96073  13.704   7.678  11.056
36813W        W96074   0.985   6.754   0.875
36814W        W96075   7.766  29.162   3.188
36815W        W96076  10.175   9.849  12.032
36816W        W96077  14.337  25.526   3.362
36817W        W96078  21.123  37.855  12.340
36818W        W96079  27.024  25.989  14.762
36819W        W96080  32.011   5.433   0.482
36820W        W96081  19.735   8.878  13.368
36821W        W96082  37.422  28.479   3.160
36822W        W96083  39.393  35.858  14.895
36823W        W96084  34.501  25.091   0.409
36824W        W96085   5.239  43.288   2.411
36825W        W96086  16.588  32.407   2.723
36826W        W96087   4.384  16.614   2.186
36827W        W96088   1.272  14.278  11.017
36828W        W96089  20.152  37.927   2.850
36829W        W96090   9.300  22.710   0.942
36830W        W96091  27.456  10.301  14.003
36831W        W96092   8.724  38.392   3.225
36832W        W96093  40.926  13.626   0.961
36833W        W96094  35.961   9.707  10.483
36834W        W96095  39.892  37.509   1.765
36835W        W96096  42.810  38.561   0.889
36836W        W96097  12.342  40.533   0.350
36837W        W96098   7.379  39.822  11.376
36838W        W96099  41.946  17.719   1.790
36839W        W96100  19.155  44.290   4.742
36840W        W96101  14.245  16.680   1.234
36841W        W96102  35.995  30.446   4.745
36842W        W96103  30.933  13.310   2.227
36843W        W96104  44.767  44.935   0.780
36844W        W96105  33.599  24.628  11.605
36845W        W96106  19.628   1.269  14.943
36846W        W96107  43.409  44.299  11.863
36847W        W96108   6.750  16.701   0.346
36848W        W96109  35.408  12.643   2.770
36849W        W96110   8.186   9.850   4.346
36850W        W96111  29.493  19.159  13.515
36851W        W96112  32.449  24.187   4.328
36852W        W96113  43.874  36.852  12.464
36853W        W96114   2.387  26.510   3.790
36854W        W96115   4.932  19.088  13.819
36855W        W96116   4.817   7.811   1.717
36856W        W96117  16.758   3.917  10.499
36857W        W96118   8.365  41.468   2.776
36858W        W96119  41.894  11.733  12.941
36859W        W96120  11.336   5.200   0.452
36860W        W96121   9.819  21.057  11.919
36861W        W96122   0.467  11.365  11.993
36862W        W96123   1.973  33.881   0.331
36863W        W96124  22.610   0.267   0.801
36864W        W96125  16.275  36.531   2.287
36865W        W96126   0.828  30.623  13.904
36866W        W96127  12.856  41.496   3.302
36867W        W96128  29.030  32.008   2.346
36868W        W96129  39.849  35.602  12.434
36869W        W96130   1.964  14.182   0.791
36870W        W96131  38.931   0.423   1.829
36871W        W96132   0.880   1.773  10.068
36872W        W96133  33.540  12.615  13.870
36873W        W96134  42.973  20.638   1.733
36874W        W96135  22.508  31.440   0.385
36875W        W96136  20.551   6.211  10.914
36876W        W96137  44.828   0.456  14.874
36877W        W96138   6.902  27.027   0.355
36878W        W96139   9.293  39.813  13.339
36879W        W96140  43.991  15.233   3.749
36880W        W96141  24.036  41.526   2.849
36881W        W96142   4.925  21.593   2.208
36882W        W96143  32.402  36.038  13.445
36883W        W96144   1.455  14.145   0.814
36884W        W96145  30.416  10.635  14.287
36885W        W96146  24.719   1.394  11.440
36886W        W96147  24.990  15.680  14.768
36887W        W96148  40.817   7.715  12.026
36888W        W96149  34.061  10.868   5.314
36889W        W96150  34.934  31.988   2.771
36890W        W96151  27.106  17.747  13.890
36891W        W96152  18.779  26.613   2.889
36892W        W96153   2.926  44.476   3.284
36893W        W96154  34.520   6.895  12.067
36894W        W96155   6.768  20.170   2.339
36895W        W96156   0.419  38.474  12.443
36896W        W96157   6.759   4.776   2.817
36897W        W96158  14.299  21.260  12.389
36898W        W96159  29.964   0.797  13.319
36899W        W96160   1.857  11.129   4.268
36900W        W96161   2.950  34.472   4.286
36901W        W96162  11.166  41.332  11.404
36902W        W96163  13.275  25.999   0.401
36903W        W96164  17.640   9.395   3.271
36904W        W96165   6.752  18.550   3.237
36905W        W96166  38.970   7.399  14.994
36906W        W96167   3.927  24.033  12.879
36907W        W96168  24.643  27.952  11.065
36908W        W96169  10.812  24.174   1.270
36909W        W96170  28.064  24.606   3.817
36910W        W96171  39.530  39.979  10.921
36911W        W96172  16.116  16.098   2.688
36912W        W96173  11.356   8.402  14.774
36913W        W96174   0.953  33.482   1.310
36914W        W96175  33.500   1.897  12.382
36915W        W96176  33.398  36.939   2.895
36916W        W96177   9.240   4.750   4.619
36917W        W96178  39.383  10.251   4.629
36918W        W96179  40.038   1.908   4.130
36919W        W96180   9.371  41.991   2.243
36920W        W96181  36.082  40.947   1.293
36921W        W96182   9.747  33.583  12.396
36922W        W96183  17.217  18.576  14.000
36923W        W96184  24.038  24.046  11.485
36924W        W96185  19.600  23.524  12.528
36925W        W96186   8.309  39.986   0.271
36926W        W96187  10.152  20.130  14.782
36927W        W96188  44.830  22.660  11.384
36928W        W96189  22.672  30.035   5.119
36929W        W96190   2.456  30.529   4.119
36930W        W96191  24.183  34.086  12.871
36931W        W96192  41.043  10.767  11.467
36932W        W96193  41.880  34.985   0.956
36933W        W96194  19.096   2.899   3.226
36934W        W96195  22.135  22.673   1.232
36935W        W96196   9.311  41.395   0.820
36936W        W96197  35.045  24.543   4.817
36937W        W96198   6.866  29.083  14.496
36938W        W96199  10.261  11.859   4.235
36939W        W96200  12.289  12.845   0.728
36940W        W96201  33.541   1.938  13.415
36941W        W96202  30.463  17.713  11.484
36942W        W96203  44.283  13.315   2.381
36943W        W96204  15.675  30.476  11.376
36944W        W96205  32.055  23.028  10.443
36945W        W96206  40.449  12.304  12.483
36946W        W96207   7.229  37.861   0.961
36947W        W96208  40.305  29.128   4.708
36948W        W96209  17.712  29.516   1.695
36949W        W96210  39.924   7.327   1.923
36950W        W96211   3.720  10.359  12.924
36951W        W96212  43.792  24.525  12.564
36952W        W96213   6.240  14.652  13.367
36953W        W96214  16.303  22.152  10.443
36954W        W96215  21.589  42.995   1.294
36955W        W96216  35.005   2.376  14.838
36956W        W96217  31.427  32.083   0.262
36957W        W96218   4.913  44.815  10.512
36958W        W96219  36.989  35.055  10.532
36959W        W96220  23.128   0.817   2.848
36960W        W96221   1.393  38.452   4.156
36961W        W96222  38.440  39.010  13.793
36962W        W96223   7.880  14.665   0.900
36963W        W96224  40.518  23.008  10.900
36964W        W96225  22.026  33.021   1.332
36965W        W96226   5.195  15.290  10.991
36966W        W96227  36.040  31.442   3.714
36967W        W96228   2.723  24.005   1.372
36968W        W96229   5.692  25.201   4.747
36969W        W96230  15.197  28.993  13.925
36970W        W96231  16.808  32.122   3.705
36971W        W96232   2.816  29.974   3.846
36972W        W96233  19.059   5.272  12.078
36973W        W96234  43.801   6.873   3.822
36974W        W96235  11.356  44.479  11.868
36975W        W96236  30.042   9.277   3.737
36976W        W96237  15.176  44.482  10.985
36977W        W96238  17.707  25.667   4.291
36978W        W96239  25.184  23.067  10.532
36979W        W96240  24.656  14.793   4.122
36980W        W96241  44.429   9.835  13.790
36981W        W96242  22.195  29.599  14.782
36982W        W96243  37.999   9.228  12.044
36983W        W96244  14.834  44.278  11.048
36984W        W96245   8.243  35.919  14.922
36985W        W96246  12.643   6.759   1.249
36986W        W96247  30.575  18.191   2.288
36987W        W96248  27.991  36.857   9.951
36988W        W96249  12.244   2.786  11.048
36989W        W96250  14.109  41.854   3.197
36990W        W96251  20.117  23.051   4.796
36991W        W96252  29.560  15.631  14.841
36992W        W96253   2.456   8.170  13.827
36993W        W96254  11.866  37.005  11.497
36994W        W96255  30.447   2.390  10.887
36995W        W96256  43.514  16.312   9.965
36996W        W96257   0.977   6.677   3.780
36997W        W96258  42.960  27.968  11.861
36998W        W96259   5.920   9.355   4.312
36999W        W96260  34.028  17.622   4.777
37000W        W96261  39.439  26.553   2.403
37001W        W96262  34.992  42.863  11.969
37002W        W96263   4.733  35.067  13.039
37003W        W96264  42.360  33.454  12.037
37004W        W96265  40.835  36.566   2.351
37005W        W96266  32.973  24.608   1.796
37006W        W96267  44.469  26.138   4.117
37007W        W96268  31.535  16.810  12.824
37008W        W96269   7.183  28.636  12.510
37009W        W96270  27.161   8.249   0.446
37010W        W96271  38.521  24.170  13.928
37011W        W96272   5.927  33.022  12.048
37012W        W96273   1.974  21.074   3.334
37013W        W96274  42.892  27.467   3.684
37014W        W96275  36.534  34.884   3.659
37015W        W96276  31.572   0.759  10.952
37016W        W96277  29.071  22.146  14.477
37017W        W96278   0.877   1.237   3.347
37018W        W96279   8.178   0.830  13.053
37019W        W96280  20.201  37.919  13.366
37020W        W96281   5.317  44.897  11.926
37021W        W96282  13.640  43.298  12.447
37022W        W96283  42.466  38.336   1.799
37023W        W96284  15.124   9.771  12.909
37024W        W96285  37.578  18.734  12.999
37025W        W96286   9.812  41.372  11.497
37026W        W96287  44.840  21.111  13.979
37027W        W96288  17.237  11.673   4.665
37028W        W96289  11.745  21.740   2.409
37029W        W96290  30.116  32.054  13.056
37030W        W96291  42.451  23.198   1.413
37031W        W96292  31.122   9.687  10.531
37032W        W96293  14.107  39.035  12.912
37033W        W96294  41.305   4.448  13.415
37034W        W96295  32.514   3.409   1.799
37035W        W96296   8.356  31.983  11.385
37036W        W96297  23.514  15.734  11.536
37037W        W96298  21.083  39.412   4.673
37038W        W96299  23.046   5.698  10.465
37039W        W96300  24.530   4.714   2.208
37040W        W96301  25.012  39.510   0.394
37041W        W96302  27.457  22.650  14.854
37042W        W96303   1.883  24.684  11.890
37043W        W96304   1.262  12.347  12.872
37044W        W96305  38.565  16.272   0.429
37045W        W96306  40.512  31.631   0.906
37046W        W96307  12.279  44.395  11.010
37047W        W96308  24.644   1.474  14.018
37048W        W96309  41.458  14.736  10.554
37049W        W96310  36.087  38.070   1.245
37050W        W96311  11.248  40.894  11.868
37051W        W96312   3.923   8.717  14.962
37052W        W96313   3.879  41.491  14.361
37053W        W96314   1.299  39.343   4.674
37054W        W96315  36.913   5.195   3.819
37055W        W96316  31.490  36.503   4.789
37056W        W96317  34.870  37.453  13.456
37057W        W96318  18.555  33.623   0.325
37058W        W96319  23.691  18.658   3.817
37059W        W96320   0.900  19.669  10.941
37060W        W96321  36.383  23.232   4.308
37061W        W96322  12.156  41.477  10.461
37062W        W96323  44.378  38.842   2.738
37063W        W96324   5.787  43.007  10.946
37064W        W96325   5.268  42.833  13.881
37065W        W96326   3.277   1.389   2.742
37066W        W96327  12.339  40.540   4.282
37067W        W96328   4.375  34.877  10.964
37068W        W96329   2.299  42.403  13.360
37069W        W96330  38.853   1.241   0.443
37070W        W96331  23.723  40.949  12.415
37071W        W96332  12.224  18.067   2.289
37072W        W96333  14.291  19.257  10.419
37073W        W96334   9.180  37.982  14.017
37074W        W96335  20.658  44.443  11.547
37075W        W96336  16.741   7.381   3.720
37076W        W96337  17.120   5.276   1.917
37077W        W96338  18.735   5.814  12.909
37078W        W96339   8.854  35.592   4.117
37079W        W96340  25.135   3.277   1.271
37080W        W96341  32.135  31.514  11.476
37081W        W96342  17.068  11.677   3.317
37082W        W96343  39.998  30.957  13.329
37083W        W96344  37.936  31.077   2.818
37084W        W96345  23.230  12.215  11.858
37085W        W96346   3.941  19.150  14.439
37086W        W96347   9.182  21.527  12.556
37087W        W96348  39.477   9.849  13.470
37088W        W96349  24.587  31.609   2.893
37089W        W96350  23.616  13.332   1.857
37090W        W96351  26.136   8.380   2.848
37091W        W96352  15.293  10.279   2.386
37092W        W96353  16.263   2.759   2.790
37093W        W96354  14.716  25.085   2.672
37094W        W96355   0.295  10.212   4.781
37095W        W96356  22.204  16.204  13.500
37096W        W96357  35.099  19.696   0.953
37097W        W96358  26.091  20.104  13.428
37098W        W96359  38.877  38.361   1.276
37099W        W96360   2.350  25.599   2.315
37100W        W96361  24.684  43.348   1.233
37101W        W96362  36.507  36.516   3.229
37102W        W96363  25.035  30.472  12.430
37103W        W96364  22.547  39.401  11.084
37104W        W96365   2.731  36.426   3.187
37105W        W96366   2.404  11.844   1.857
37106W        W96367  17.608  17.082   3.253
37107W        W96368  24.526  20.265  14.275
37108W        W96369  12.151  18.642   3.682
37109W        W96370  40.869  13.315   3.679
37110W        W96371   2.836  43.974  14.919
37111W        W96372  28.458   5.375  10.938
37112W        W96373  35.056  11.153   2.243
37113W        W96374  24.515  12.322  10.496
37114W        W96375   9.243  17.777   1.267
37115W        W96376  11.172  28.147  14.304
37116W        W96377  22.707   1.776   2.209
37117W        W96378  34.405  14.333  10.617
37118W        W96379   2.311  33.522  14.877
37119W        W96380  21.667   1.801   5.202
37120W        W96381  19.732  17.214  12.973
37121W        W96382  27.101  22.574   0.946
37122W        W96383   2.739   0.449  11.507
37123W        W96384  37.033   4.771   4.747
37124W        W96385   7.840  44.383   3.860
37125W        W96386  34.954  36.932   4.244
37126W        W96387  23.710   0.832   3.293
37127W        W96388  10.230  17.564   0.426
37128W        W96389  44.283  14.802   2.737
37129W        W96390  31.931  16.658   1.286
37130W        W96391  23.155  38.379  11.574
37131W        W96392  24.637  41.438   3.689
37132W        W96393   3.413  22.191  13.866
37133W        W96394  32.461  27.059  13.813
37134W        W96395  15.741   6.773  12.554
37135W        W96396  41.443   3.877   0.257
37136W        W96397  30.644  37.060   3.862
37137W        W96398  19.212  23.997   2.705
37138W        W96399  37.369  22.539  10.971
37139W        W96400  26.133  32.444   5.140
37140W        W96401   5.365  25.989  11.417
37141W        W96402  32.444  36.531   3.174
37142W        W96403  13.686  19.256  13.000
37143W        W96404  42.005   9.731   4.725
37144W        W96405  24.712  34.381   4.186
37145W        W96406  23.532  22.058  11.884
37146W        W96407  21.166  12.667   0.921
37147W        W96408   1.968  30.490  12.083
37148W        W96409  23.137  28.045   4.790
37149W        W96410  21.261  27.625  11.582
37150W        W96411  22.094  15.584   4.345
37151W        W96412  14.701  28.589   2.201
37152W        W96413  37.997  13.335   1.854
37153W        W96414  33.096  24.716   4.351
37154W        W96415  25.078  38.835   4.610
37155W        W96416  31.988  25.600   1.783
37156W        W96417   4.293  30.969   2.671
37157W        W96418  27.152   9.240   3.362
37158W        W96419  30.116  29.053   1.870
37159W        W96420  29.057   4.930   9.942
37160W        W96421  16.667  40.418  12.039
37161W        W96422   7.875  26.699  11.981
37162W        W96423  35.542  44.871   2.808
37163W        W96424  19.601   5.813   1.345
37164W        W96425  17.131  12.718  13.424
37165W        W96426   8.404  27.010   2.832
37166W        W96427  31.020   0.929   4.667
37167W        W96428  40.850   6.310   4.262
37168W        W96429  10.329  33.561   4.705
37169W        W96430  35.536   3.813  13.947
37170W        W96431   3.800  31.960   3.169
37171W        W96432   4.450   4.762  13.442
37172W        W96433  40.521  13.717  13.324
37173W        W96434  40.420  20.188  13.982
37174W        W96435   4.382  24.688   0.476
37175W        W96436  27.190  35.020  14.791
37176W        W96437  26.031   6.719  10.896
37177W        W96438  26.990  17.731  12.911
37178W        W96439  42.878   4.444  14.816
37179W        W96440  14.307  14.654  14.353
37180W        W96441  16.743  21.565   0.954
37181W        W96442  18.762  10.664   4.822
37182W        W96443  22.996   8.799  11.876
37183W        W96444  33.949   6.859   4.204
37184W        W96445  41.966  36.438   3.334
37185W        W96446  35.580  26.550   0.426
37186W        W96447  30.611  29.666   3.366
37187W        W96448   6.254  10.635   4.302
37188W        W96449  33.484  28.631   1.219
37189W        W96450  31.011  27.160   4.236
37190W        W96451  15.123  23.198  13.888
37191W        W96452  21.157  41.351  11.079
37192W        W96453  37.437   0.290  13.358
37193W        W96454  44.271  35.603  13.910
37194W        W96455  13.270   2.743   0.819
37195W        W96456  27.605  42.014  11.518
37196W        W96457   2.906  15.187  14.405
37197W        W96458   6.364  21.586  11.967
37198W        W96459   3.790  43.913  10.571
37199W        W96460  30.457  32.416   1.719
37200W        W96461  41.923  12.796   2.776
37201W        W96462  24.075   4.233   0.809
37202W        W96463  27.627  27.535   0.312
37203W        W96464  31.427  40.498  13.969
37204W        W96465   9.768  28.497   3.342
37205W        W96466   2.269  22.225   4.219
37206W        W96467  44.471  19.609   3.711
37207W        W96468  32.137   5.772  10.932
37208W        W96469  19.776   0.773  10.893
37209W        W96470   5.438  15.699   4.757
37210W        W96471   4.821  18.610  12.916
37211W        W96472  42.475   5.827  10.634
37212W        W96473  44.494   5.752   0.416
37213W        W96474   0.911  44.439   2.894
37214W        W96475  21.206  33.117  10.063
37215W        W96476  29.538  41.437   3.169
37216W        W96477  13.739  18.083   4.118
37217W        W96478   0.334  42.447  11.016
37218W        W96479   8.383   8.195   1.232
37219W        W96480  13.250   7.288   3.859
37220W        W96481  33.431   0.262  14.459
37221W        W96482   6.681  26.461   2.835
37222W        W96483   7.262  40.439  10.926
37223W        W96484  38.419  21.660  12.417
37224W        W96485   2.233   4.432  12.560
37225W        W96486  18.165  32.603  11.464
37226W        W96487  27.155   8.868  12.524
37227W        W96488  13.639  11.699   1.427
37228W        W96489  28.077  33.054  12.344
37229W        W96490  42.903  21.620  13.456
37230W        W96491  35.918  26.522  11.501
37231W        W96492   5.346   2.253   4.666
37232W        W96493   7.891  23.527  11.380
37233W        W96494  11.315  40.875  14.897
37234W        W96495  18.162   7.340   3.380
37235W        W96496  16.645  24.079  14.760
37236W        W96497  17.753  32.525   3.233
37237W        W96498  17.103   8.375  14.397
37238W        W96499  16.227  32.576  12.825
37239W        W96500   2.935   8.280  14.311
37240W        W96501  19.110  43.837  10.626
37241W        W96502   2.351  35.934  12.439
37242W        W96503   4.793  14.791  10.553
37243W        W96504  16.733  27.621   0.247
37244W        W96505  28.103  39.008   1.212
37245W        W96506   1.776   0.757  12.876
37246W        W96507  38.555  30.032   2.766
37247W        W96508   7.821  16.072  11.968
37248W        W96509  14.795  14.594   2.264
37249W        W96510  33.572   3.445  11.541
37250W        W96511  15.707  39.851   0.414
37251W        W96512  29.546  37.366  12.988
37252W        W96513  16.260  23.238  13.850
37253W        W96514   3.244  17.184  12.377
37254W        W96515  15.674  40.534   0.330
37255W        W96516   8.274  10.321  11.857
37256W        W96517  20.114  30.556   4.257
37257W        W96518  42.313  44.435   1.320
37258W        W96519   4.883  42.435  13.439
37259W        W96520  14.108  19.148   0.922
37260W        W96521  42.422   5.800  13.317
37261W        W96522  37.074  12.629  13.030
37262W        W96523  25.215  22.068   0.343
37263W        W96524  24.515  19.186  13.431
37264W        W96525  15.318  39.452  13.486
37265W        W96526  44.976  11.648   2.328
37266W        W96527  34.911  42.975   2.261
37267W        W96528  13.624  11.641  12.017
37268W        W96529   6.388  17.075  14.294
37269W        W96530  39.437  34.430  14.853
37270W        W96531  33.071  21.078   0.864
37271W        W96532   3.337   9.850  12.045
37272W        W96533   3.433  39.494   1.365
37273W        W96534  16.156   4.240  10.029
37274W        W96535  43.273  32.902  14.818
37275W        W96536  23.213  20.701   0.434
37276W        W96537   4.868  34.470   2.664
37277W        W96538  28.509  43.914  13.804
37278W        W96539  34.041  43.342   1.252
37279W        W96540  38.915   4.346   4.641
37280W        W96541  23.698  44.288  10.474
37281W        W96542  34.501  31.524  13.409
37282W        W96543  40.356  33.979  12.518
37283W        W96544   6.188   2.437  10.423
37284W        W96545  44.971  15.654  12.415
37285W        W96546  34.459  11.244   3.774
37286W        W96547  30.623  18.692   1.887
37287W        W96548  21.242  35.861   4.334
37288W        W96549  10.798  27.513   0.848
37289W        W96550  38.338   9.181  14.328
37290W        W96551  16.621  36.591  14.940
37291W        W96552  25.992  19.085   1.824
37292W        W96553  31.586   4.915   0.243
37293W        W96554  17.298  24.979  11.388
37294W        W96555  20.056   4.222   4.788
37295W        W96556  18.119  30.480   2.668
37296W        W96557  19.679  13.268   2.312
37297W        W96558   5.394   6.789   4.666
37298W        W96559  13.146  26.953  11.421
37299W        W96560   6.293  33.058  14.867
37300W        W96561  40.012  26.997  10.546
37301W        W96562  29.487  40.484  10.605
37302W        W96563  25.139  11.190  11.480
37303W        W96564  43.475  40.374   2.795
37304W        W96565  21.578  30.502   3.179
37305W        W96566  25.565  11.695  12.925
37306W        W96567  13.253  34.901   2.187
37307W        W96568  37.543   2.773   0.866
37308W        W96569  24.226  13.778  13.885
37309W        W96570  25.987   2.399  14.761
37310W        W96571  21.021   9.746   1.213
37311W        W96572   0.832  24.705  11.115
37312W        W96573   4.284   0.257   1.345
37313W        W96574   5.424  15.774  12.018
37314W        W96575  22.241   0.251  12.935
37315W        W96576  38.873   2.407   0.311
37316W        W96577  33.512  38.885   1.787
37317W        W96578  19.085   6.405   4.127
37318W        W96579  29.132  11.835  14.276
37319W        W96580  44.907  10.814   1.314
37320W        W96581  21.155  28.529  12.915
37321W        W96582  26.192   0.331   2.709
37322W        W96583   5.246  25.116  14.842
37323W        W96584   8.665  26.626  13.895
37324W        W96585  37.351  40.837   2.285
37325W        W96586  34.438  41.828  13.326
37326W        W96587  29.932   7.316  13.032
37327W        W96588   9.688  39.992   0.774
37328W        W96589  41.316  25.117  11.911
37329W        W96590  24.620  14.118   4.314
37330W        W96591  32.589  31.145  11.114
37331W        W96592  35.502  41.417  12.956
37332W        W96593  29.552  34.504  14.452
37333W        W96594  27.651   3.855  14.326
37334W        W96595  17.095  23.202   2.288
37335W        W96596  12.796  39.442   0.329
37336W        W96597  28.030  22.549   3.178
37337W        W96598  17.173  17.701  11.597
37338W        W96599  25.570   0.305  12.392
37339W        W96600  36.506   4.848  10.410
37340W        W96601  13.707  42.892   0.727
37341W        W96602   5.799  32.112   4.290
37342W        W96603   8.317  36.954  11.475
37343W        W96604  23.622  34.458   4.241
37344W        W96605  33.414   8.332   1.718
37345W        W96606  33.517   7.402  11.006
37346W        W96607  22.222  33.895   3.287
37347W        W96608  13.301  20.123   2.352
37348W        W96609   8.874  43.505  14.924
37349W        W96610  32.052   0.391   2.274
37350W        W96611  24.651   5.865  14.361
37351W        W96612  24.516  34.521  11.547
37352W        W96613  33.022   2.421   2.361
37353W        W96614   6.339  14.821   2.212
37354W        W96615  42.866   4.792  14.436
37355W        W96616   2.834   9.752  13.990
37356W        W96617  34.447  38.826  12.548
37357W        W96618   3.459  29.652  10.945
37358W        W96619   2.441  37.964   0.383
37359W        W96620  19.563   9.283  14.022
37360W        W96621  28.530  19.278  14.338
37361W        W96622  23.061  29.661   3.648
37362W        W96623  37.357  34.044  13.341
37363W        W96624   8.171  33.456   4.792
37364W        W96625  11.162  42.828   0.405
37365W        W96626  38.445  21.705   4.629
37366W        W96627   7.239  42.934   3.340
37367W        W96628   7.757   5.243  12.892
37368W        W96629  10.831   0.927   2.220
37369W        W96630  32.015  33.421   3.368
37370W        W96631  40.841  26.090  10.544
37371W        W96632  15.114   3.259  10.053
37372W        W96633   3.873   4.887  12.348
37373W        W96634  30.085  14.701   4.192
37374W        W96635  10.367   9.356  12.959
37375W        W96636  42.975  17.076   0.782
37376W        W96637  27.522  42.933  11.049
37377W        W96638   3.799  38.471   3.150
37378W        W96639  16.243  17.755   4.300
37379W        W96640  20.063  17.733   1.777
37380W        W96641  44.827   8.389   4.766
37381W        W96642  15.203  37.949   1.874
37382W        W96643  14.109   3.274   5.276
37383W        W96644  18.199   4.867   2.724
37384W        W96645  14.267   3.359   1.720
37385W        W96646  30.129   7.397   4.650
37386W        W96647  28.090   5.349  11.544
37387W        W96648   8.322  25.611  13.540
37388W        W96649   1.259  31.579   0.377
37389W        W96650   7.818  32.427   4.773
37390W        W96651  21.031  15.578  10.460
37391W        W96652  34.027  25.660  13.350
37392W        W96653   0.470   1.940  12.465
37393W        W96654   2.738  22.237  14.847
37394W        W96655  22.054  27.194   0.243
37395W        W96656  18.145   8.244   0.870
37396W        W96657   8.405  24.662   2.292
37397W        W96658  39.419   7.417   0.411
37398W        W96659  18.125  19.177   0.390
37399W        W96660  29.664  11.692   5.127
37400W        W96661  31.601  16.736   0.960
37401W        W96662  19.721   2.841   0.792
37402W        W96663  24.616   8.701  12.857
37403W        W96664  39.325   5.272  14.857
37404W        W96665  33.000  42.786  11.462
37405W        W96666  44.407   8.777  11.126
37406W        W96667   2.446  42.478   1.876
37407W        W96668   7.804  12.276   4.819
37408W        W96669  34.920  44.866   2.684
37409W        W96670  32.424  39.983   2.868
37410W        W96671  29.980   3.867   2.376
37411W        W96672   3.804  15.141   2.796
37412W        W96673  10.278  43.959  10.514
37413W        W96674  23.200  20.211   9.522
37414W        W96675  41.389   6.427   3.350
37415W        W96676  16.684   5.390   3.795
37416W        W96677  26.536  19.536  14.760
37417W        W96678   3.872   8.175   2.236
37418W        W96679  14.826  26.129   1.444
37419W        W96680  27.490  42.841  10.428
37420W        W96681  29.978  31.007  11.559
37421W        W96682  27.485  35.062  14.305
37422W        W96683   8.355  24.997  11.432
37423W        W96684  13.333  36.367  11.464
37424W        W96685   1.474  29.920  14.976
37425W        W96686  28.960  24.543  11.434
37426W        W96687  41.855   2.370  11.476
37427W        W96688  27.542  17.269   0.908
37428W        W96689  23.063  11.691   2.256
37429W        W96690   8.801  20.701  11.963
37430W        W96691   8.715   2.853  13.466
37431W        W96692  27.521   9.251  14.367
37432W        W96693  40.812   9.759  14.300
37433W        W96694  19.084   7.821  11.871
37434W        W96695  41.008  24.688  12.884
37435W        W96696  12.234  10.752   1.755
37436W        W96697  42.845   0.892   0.402
37437W        W96698  35.024  26.061   1.915
37438W        W96699   7.904  31.988   3.703
37439W        W96700  11.847  22.135   3.859
37440W        W96701  11.346  40.045  11.070
37441W        W96702   7.865   1.828  11.428
37442W        W96703  28.125  26.072   4.674
37443W        W96704  31.555  33.876  14.400
37444W        W96705  40.486   2.903   0.384
37445W        W96706  28.114  43.459  12.480
37446W        W96707  23.221  28.558   3.199
37447W        W96708  13.142   8.812   2.798
37448W        W96709   0.796  24.983  12.450
37449W        W96710  25.541  33.434   1.715
37450W        W96711  18.205  15.721   5.208
37451W        W96712  19.539  21.157  12.889
37452W        W96713   1.483  44.922   4.786
37453W        W96714  29.588  24.994  12.465
37454W        W96715  41.415   7.324   3.184
37455W        W96716  31.046  27.976   2.413
37456W        W96717   7.184  31.109  13.336
37457W        W96718  38.443  17.719  10.556
37458W        W96719  12.850  38.998  10.410
37459W        W96720  22.612  26.093  11.398
37460W        W96721   9.386  18.246  10.049
37461W        W96722   4.312  26.569   3.682
37462W        W96723  26.614  31.598  12.416
37463W        W96724  14.729  16.629  12.558
37464W        W96725   1.396  40.884   2.827
37465W        W96726  19.731  31.066   0.752
37466W        W96727  11.142  34.954   0.288
37467W        W96728  27.531  24.648   4.650
37468W        W96729   2.445  13.121   3.278
37469W        W96730  36.980  18.291  12.069
37470W        W96731  24.098  24.643  11.546
37471W        W96732   3.415  32.092  10.991
37472W        W96733  42.979  34.043  10.609
37473W        W96734  44.856  25.623   3.813
37474W        W96735  28.560  11.840   3.193
37475W        W96736  39.953  15.736   0.819
37476W        W96737  19.117  24.056   1.849
37477W        W96738  43.820  15.795   3.261
37478W        W96739  23.240  16.105   0.851
37479W        W96740  37.999   9.363  11.122
37480W        W96741  28.472  39.501  12.554
37481W        W96742   7.757  36.859  10.481
37482W        W96743   7.711  23.520   2.788
37483W        W96744  30.981  40.457   4.265
37484W        W96745  33.103  31.121  11.529
37485W        W96746   3.746  19.238   2.300
37486W        W96747   8.709  39.430   2.314
37487W        W96748  26.181  29.087   2.715
37488W        W96749  36.557  42.421   3.849
37489W        W96750  10.327  15.606  13.008
37490W        W96751  19.161  26.490  11.012
37491W        W96752  37.002   3.892  13.332
37492W        W96753  39.002  30.461  12.370
37493W        W96754  24.987  23.231   4.216
37494W        W96755  23.518  31.545  12.884
37495W        W96756  11.662  37.467   3.193
37496W        W96757  36.858  33.032  11.127
37497W        W96758  13.232  25.502   3.705
37498W        W96759  39.419  20.096   0.776
37499W        W96760  33.105  16.180   2.746
37500W        W96761  32.431   3.352   0.897
37501W        W96762  41.325  33.116  12.072
37502W        W96763  14.771  14.732  13.802
37503W        W96764  37.504   5.365  14.314
37504W        W96765   2.442  14.274   3.283
37505W        W96766  14.214  13.215   3.252
37506W        W96767  11.319  39.509  11.950
37507W        W96768  31.147  31.647  10.449
37508W        W96769   6.722  12.336  13.972
37509W        W96770  41.956  29.949   1.383
37510W        W96771   7.774  10.382  10.932
37511W        W96772  15.126  41.303  12.489
37512W        W96773   7.211  40.328  11.899
37513W        W96774  20.222   2.468  12.530
37514W        W96775  27.988  10.706  13.511
37515W        W96776  13.721  14.104  12.540
37516W        W96777  40.850   0.932  11.017
37517W        W96778  20.154   7.810  11.444
37518W        W96779   2.768  36.022   4.695
37519W        W96780  35.939  36.849   2.397
37520W        W96781   5.374   8.279   2.903
37521W        W96782   8.714   7.672  11.901
37522W        W96783  15.195  44.773  13.977
37523W        W96784  26.044   7.324  12.974
37524W        W96785  14.742  23.236   4.664
37525W        W96786  37.500  34.022   0.748
37526W        W96787   5.860  10.862  10.525
37527W        W96788  21.186  17.101  13.489
37528W        W96789  44.010  29.485   3.161
37529W        W96790  37.986  39.856  14.422
37530W        W96791  27.047  40.394  12.025
37531W        W96792  20.531  24.025   3.808
37532W        W96793   3.759  42.295  11.978
37533W        W96794   3.785  23.556  13.334
37534W        W96795  42.483  10.717   0.802
37535W        W96796  42.948   3.258   0.811
37536W        W96797   0.376  13.641   4.635
37537W        W96798  37.391  21.530  12.383
37538W        W96799  11.781  16.165  12.568
37539W        W96800  28.531  30.488  14.301
37540W        W96801  25.135  15.300   4.621
37541W        W96802  20.202  15.596   1.754
37542W        W96803  44.855  30.555   0.370
37543W        W96804  40.017   3.800   1.243
37544W        W96805  37.857  27.968  14.874
37545W        W96806  40.964  38.947  10.491
37546W        W96807   4.720  23.213   4.116
37547W        W96808   5.915  23.713   2.877
37548W        W96809   6.847   4.251  11.054
37549W        W96810  43.320  31.477   2.344
37550W        W96811  26.957   0.987  13.902
37551W        W96812   7.783  22.690   9.932
37552W        W96813  42.345  41.017   1.214
37553W        W96814  37.366   9.824  12.827
37554W        W96815  23.009   3.882   3.147
37555W        W96816  10.376  34.876   0.890
37556W        W96817   3.870  15.748   1.820
37557W        W96818  20.250  17.733   5.116
37558W        W96819  36.920  32.497  11.486
37559W        W96820  40.371   9.299   1.868
37560W        W96821  36.062  24.600   2.769
37561W        W96822  21.162  18.178  11.940
37562W        W96823  32.528  11.686   3.172
37563W        W96824   9.725  40.950   3.369
37564W        W96825   9.219  32.037   1.380
37565W        W96826  31.067   6.717  12.994
37566W        W96827  30.061  12.758   3.349
37567W        W96828  34.381  27.668  14.809
37568W        W96829  16.102  32.610   3.267
37569W        W96830  13.342   8.182  14.940
37570W        W96831  14.096  12.160   3.387
37571W        W96832  29.452  37.034  14.358
37572W        W96833  40.342   1.861  11.875
37573W        W96834  38.397  28.611  14.824
37574W        W96835  12.778  32.911   1.761
37575W        W96836  43.949  11.373   1.827
37576W        W96837  38.960  18.744  14.875
37577W        W96838   4.400   5.832  12.428
37578W        W96839   9.827  27.171  14.968
37579W        W96840  28.639  44.458   0.349
37580W        W96841  40.997  35.533   1.878
37581W        W96842   8.273  42.849   0.374
37582W        W96843  36.990   8.220  10.464
37583W        W96844   7.178   0.457  14.912
37584W        W96845  36.540  17.602  14.439
37585W        W96846  16.605   9.276   4.730
37586W        W96847   8.291   8.818   3.829
37587W        W96848   5.793   0.756  14.407
37588W        W96849  39.820   1.476   2.791
37589W        W96850  26.503  28.170   0.769
37590W        W96851  33.547  15.194   3.796
37591W        W96852  26.517   7.230   0.278
37592W        W96853  16.162   4.861  10.148
37593W        W96854   3.449  37.852  13.986
37594W        W96855  37.982   7.682  11.993
37595W        W96856  38.463   5.926  13.030
37596W        W96857  38.917  12.635   2.397
37597W        W96858   5.392  35.529   3.246
37598W        W96859  25.502  40.884   4.633
37599W        W96860  40.877   8.822  10.619
37600W        W96861  36.444  36.002  10.975
37601W        W96862  25.136  22.032  12.380
37602W        W96863   2.326  30.911   0.952
37603W        W96864  38.979  21.524   2.189
37604W        W96865   5.700  30.606  13.822
37605W        W96866  16.218   3.318  13.377
37606W        W96867  39.416  43.377  11.533
37607W        W96868  22.697  44.309  11.011
37608W        W96869  13.220  25.151  14.420
37609W        W96870  23.524  14.223  10.952
37610W        W96871  29.174  41.449  12.378
37611W        W96872  22.652  25.091  12.830
37612W        W96873   7.705   9.667  12.511
37613W        W96874  42.015  43.966   2.248
37614W        W96875   2.280  39.891   4.232
37615W        W96876  42.010  11.762   3.646
37616W        W96877  40.858  40.417   4.748
37617W        W96878  28.668  20.568   4.708
37618W        W96879   7.747  17.754  10.631
37619W        W96880  22.137   8.320  10.555
37620W        W96881  34.112  25.003   1.382
37621W        W96882  14.159  27.457   1.333
37622W        W96883  19.226  43.777   0.769
37623W        W96884   6.408   7.676   3.752
37624W        W96885  20.659  17.169  11.111
37625W        W96886   5.273  40.483  11.373
37626W        W96887  16.252   4.698   5.198
37627W        W96888  41.955  15.093  11.451
37628W        W96889  28.931  12.198  14.312
37629W        W96890  41.294  15.159  12.960
37630W        W96891  38.345  44.963   0.344
37631W        W96892  27.094   5.899  13.327
37632W        W96893  32.064  12.320   1.405
37633W        W96894  18.086  38.526   4.317
37634W        W96895  31.930  27.530   3.233
37635W        W96896  35.868  41.476   3.670
37636W        W96897  37.472  28.185  11.934
37637W        W96898  26.061  23.206   2.832
37638W        W96899  35.988   2.943   3.154
37639W        W96900  13.259  24.647   1.376
37640W        W96901  35.953  36.067   4.252
37641W        W96902  19.236   1.424   2.886
37642W        W96903  33.030  44.467  13.997
37643W        W96904  41.406   3.902  11.501
37644W        W96905   9.692  37.442   4.783
37645W        W96906   5.887  38.883  11.006
37646W        W96907  27.036  23.008  10.451
37647W        W96908  14.122  22.621  11.990
37648W        W96909  12.844  17.727  14.759
37649W        W96910  44.386   8.235  11.002
37650W        W96911  30.625  44.480  11.895
37651W        W96912  12.778  23.993   3.232
37652W        W96913  15.295  36.017   2.805
37653W        W96914  15.685  16.713  11.007
37654W        W96915  29.662  15.793  11.004
37655W        W96916  19.110  10.727  12.539
37656W        W96917  20.727  39.447   4.680
37657W        W96918  25.041  37.841   2.685
37658W        W96919  11.856  13.747   1.275
37659W        W96920  41.860  14.286   2.837
37660W        W96921  40.480  23.984   0.947
37661W        W96922   6.725  29.429  10.460
37662W        W96923  14.789  35.035   2.271
37663W        W96924  20.145  41.040   4.753
37664W        W96925  42.031  21.651  10.915
37665W        W96926  19.748  24.031  10.573
37666W        W96927  25.552  14.247  14.889
37667W        W96928  41.459  32.430   2.781
37668W        W96929   5.859  18.111   1.430
37669W        W96930  19.273  18.688   3.317
37670W        W96931  13.186  13.307   0.315
37671W        W96932  18.156   5.720  12.930
37672W        W96933  32.427  18.710   4.224
37673W        W96934  16.212  36.433   2.892
37674W        W96935  28.069  17.230  13.409
37675W        W96936  27.627  20.716   0.763
37676W        W96937  20.541  28.009  14.982
37677W        W96938   1.860  19.608   0.960
37678W        W96939  35.445   6.320   2.711
37679W        W96940  39.935  29.656   4.264
37680W        W96941  38.899  26.152   2.860
37681W        W96942  42.379  23.583  13.326
37682W        W96943  29.965  10.766   4.284
37683W        W96944  22.158  29.131   0.258
37684W        W96945  18.592  43.293  12.028
37685W        W96946  33.621   2.843   4.670
37686W        W96947  24.664  41.803   2.208
37687W        W96948  24.033  17.639  13.466
37688W        W96949   0.448   8.659   0.763
37689W        W96950  12.211  31.441  11.960
37690W        W96951  27.569  42.014   0.270
37691W        W96952  19.699  42.869   4.628
37692W        W96953  21.675  16.706  10.418
37693W        W96954  37.526  40.410  14.491
37694W        W96955   0.452  28.167   1.915
37695W        W96956  37.999  30.150  13.520
37696W        W96957  11.174  32.492  11.089
37697W        W96958  35.490  38.022  12.347
37698W        W96959   1.977  32.065  12.001
37699W        W96960  30.094  21.160  14.954
37700W        W96961  37.487  11.708   2.282
37701W        W96962  33.388   2.720  12.477
37702W        W96963  43.805  37.076   3.772
37703W        W96964   2.285  35.087   0.913
37704W        W96965  35.497  36.053  13.349
37705W        W96966  13.228  22.204   3.801
37706W        W96967  44.850   6.258   1.282
37707W        W96968  27.023  29.136   2.276
37708W        W96969  12.308   2.929  11.415
37709W        W96970  22.596  21.684  11.543
37710W        W96971  37.907   4.881  10.417
37711W        W96972  32.502   2.384   1.861
37712W        W96973  17.679  34.373  11.984
37713W        W96974   3.394  33.403   0.814
37714W        W96975  26.487  12.229  13.923
37715W        W96976  28.004  31.448   1.695
37716W        W96977  20.259   8.349  11.030
37717W        W96978  21.670   9.782  14.844
37718W        W96979   2.383  43.363  14.776
37719W        W96980   9.154   5.378   2.738
37720W        W96981  33.897   7.385   2.734
37721W        W96982  22.647  44.955   2.320
37722W        W96983  44.505  40.398   3.164
37723W        W96984  21.108   3.889  12.832
37724W        W96985  33.410  25.529  11.953
37725W        W96986  41.498  17.123  13.938
37726W        W96987  22.702  13.194   0.379
37727W        W96988  26.132  24.205   2.224
37728W        W96989   6.831  32.637  13.992
37729W        W96990  18.130  31.629  12.554
37730W        W96991  18.574   7.696   1.443
37731W        W96992  26.067   1.735   3.352
37732W        W96993  39.019  15.611   1.294
37733W        W96994   2.443  25.001  14.506
37734W        W96995  41.413  39.437   0.483
37735W        W96996  18.253  12.642   2.837
37736W        W96997  21.237  18.284   0.281
37737W        W96998  26.056  28.479   9.961
37738W        W96999  19.608   1.822   3.228
37739W        W97000   4.812  12.318   2.685
37740W        W97001  35.855  25.035  14.445
37741W        W97002   3.955   9.368  11.463
37742W        W97003  35.921  30.096  13.369
37743W        W97004  25.204  18.559   5.196
37744W        W97005  11.652  44.947  13.311
37745W        W97006  16.677  29.995  10.073
37746W        W97007   2.921  33.031  14.424
37747W        W97008  32.612   7.832  12.955
37748W        W97009  13.225   3.944   4.169
37749W        W97010   6.872   8.334  11.574
37750W        W97011  25.126   3.892   1.437
37751W        W97012  33.386  10.751   0.283
37752W        W97013   6.711  32.090  14.375
37753W        W97014  40.884  26.193   5.273
37754W        W97015  44.860   8.338  10.483
37755W        W97016  25.598  35.924   2.751
37756W        W97017  27.657  12.670   1.888
37757W        W97018  30.042  17.786   2.848
37758W        W97019  34.459  37.969   3.719
37759W        W97020  11.725  41.833  12.355
37760W        W97021  37.848  37.879  10.083
37761W        W97022  39.924   2.302   0.244
37762W        W97023  39.864  10.345  14.945
37763W        W97024  32.590  32.977  11.009
37764W        W97025  35.920  34.092   2.321
37765W        W97026   8.741  40.823  13.475
37766W        W97027  29.925  34.022   0.343
37767W        W97028  20.528  39.058   4.617
37768W        W97029  17.788   8.861   1.927
37769W        W97030  15.217  33.989   3.321
37770W        W97031  29.612  37.371   4.759
37771W        W97032  30.582   6.355  12.862
37772W        W97033  23.642  18.093   2.370
37773W        W97034  18.065  18.219  14.847
37774W        W97035  16.169   3.340  12.958
37775W        W97036  18.166  32.003  12.034
37776W        W97037  42.951  17.138   1.351
37777W        W97038  38.917  20.079  11.375
37778W        W97039   3.369  41.029   2.789
37779W        W97040  21.552  31.998   0.404
37780W        W97041  29.024  18.787   4.833
37781W        W97042  29.597  10.323  12.524
37782W        W97043  39.038   2.324  10.574
37783W        W97044  29.056  33.480   4.124
37784W        W97045  38.955  27.965  14.831
37785W        W97046  36.027  14.280  14.389
37786W        W97047  15.180  12.638   1.227
37787W        W97048  23.625  11.685   0.327
37788W        W97049  20.046  10.703   4.176
37789W        W97050  18.693   4.866  11.086
37790W        W97051  12.659  21.694   4.291
37791W        W97052  44.969  14.711   3.758
37792W        W97053   2.840  16.259   0.842
37793W        W97054  17.180  20.186   2.392
37794W        W97055  13.714   9.654  13.947
37795W        W97056  39.810  28.517   2.879
37796W        W97057  31.495   5.272   3.233
37797W        W97058  18.200  40.041   4.127
37798W        W97059  25.631   7.378   4.609
37799W        W97060  26.565   2.847   1.334
37800W        W97061  32.442  38.486   3.286
37801W        W97062  40.531  27.513   4.258
37802W        W97063   4.793  14.743  14.961
37803W        W97064  38.486  14.641  13.490
37804W        W97065  32.048  41.319  12.853
37805W        W97066  43.012  39.858   3.312
37806W        W97067   2.895  11.629  13.997
37807W        W97068   2.740  20.191   4.689
37808W        W97069  12.850  23.024  14.409
37809W        W97070  37.368  30.449  12.095
37810W        W97071  42.805  10.327   4.836
37811W        W97072  25.034   9.743  12.056
37812W        W97073  40.536  27.558  13.010
37813W        W97074  28.162  31.450   3.642
37814W        W97075   0.433  25.160   0.827
37815W        W97076  24.572   8.278   4.680
37816W        W97077   5.240  41.344   4.808
37817W        W97078  16.116  19.729  11.504
37818W        W97079  13.771  20.670  14.351
37819W        W97080  16.605  26.145   0.248
37820W        W97081  28.534  15.170   0.430
37821W        W97082  21.629  24.671  11.978
37822W        W97083  32.930  17.172   4.214
37823W        W97084  39.826  31.152   2.880
37824W        W97085  25.138  30.148  13.460
37825W        W97086  20.119  25.176  10.053
37826W        W97087   6.870  15.749   4.114
37827W        W97088  22.182   8.729   3.733
37828W        W97089  27.528   3.442   5.098
37829W        W97090  28.087   0.261  12.929
37830W        W97091  43.789  38.557   4.254
37831W        W97092  36.579  31.959   2.183
37832W        W97093   3.216  10.350   3.867
37833W        W97094   1.300  44.955  11.399
37834W        W97095  31.409   2.756   2.855
37835W        W97096  14.668  35.522   1.224
37836W        W97097  14.640  35.555   1.867
37837W        W97098  34.597  39.328  12.505
37838W        W97099  40.973   8.836  10.976
37839W        W97100  30.915  28.185  12.985
37840W        W97101  29.573  38.370  13.856
37841W        W97102  33.401  24.200  14.486
37842W        W97103  14.706  29.583   4.283
37843W        W97104   3.291   7.674   1.312
37844W        W97105  24.039  40.930   2.341
37845W        W97106  43.790   4.787  13.441
37846W        W97107  29.048  13.185   1.888
37847W        W97108  10.372   3.363  12.361
37848W        W97109  25.020   9.740  13.374
37849W        W97110  13.618  39.868  12.573
37850W        W97111  17.222  44.903   1.403
37851W        W97112   9.383   6.702  12.009
37852W        W97113  31.503   1.251   4.722
37853W        W97114  21.168  24.973   2.403
37854W        W97115  41.338  39.941  13.494
37855W        W97116   2.772   9.845  14.986
37856W        W97117   5.852   8.192   3.782
37857W        W97118  38.430  20.272  12.012
37858W        W97119   5.867   5.352  14.032
37859W        W97120   0.868  14.192   5.166
37860W        W97121  33.080   0.382  14.376
37861W        W97122  20.567   5.353   2.388
37862W        W97123  39.988   2.763  10.896
37863W        W97124   2.316  27.953  14.427
37864W        W97125   3.772  17.698  12.927
37865W        W97126  16.765  26.043   1.380
37866W        W97127  43.400  12.663  11.017
37867W        W97128   8.257  43.471   1.826
37868W        W97129  11.180   9.269   0.777
37869W        W97130  26.169  11.273  13.919
37870W        W97131  22.550  12.281  13.027
37871W        W97132  32.393  32.045   4.191
37872W        W97133  20.583  34.996   0.263
37873W        W97134  31.581  37.351  14.471
37874W        W97135   2.313  40.942  14.826
37875W        W97136  14.120   7.741  12.492
37876W        W97137  24.188  28.986   1.379
37877W        W97138  20.612  44.375   2.389
37878W        W97139  10.826  42.460   0.759
37879W        W97140  11.177   0.453  13.811
37880W        W97141  21.179  10.783   3.174
37881W        W97142  15.722  29.590  12.055
37882W        W97143  15.235  16.782  11.387
37883W        W97144  44.947  44.282  10.091
37884W        W97145  41.937  28.003  14.883
37885W        W97146  35.090   7.669  13.046
37886W        W97147  28.982  21.671  11.481
37887W        W97148  40.917   7.771  12.930
37888W        W97149  11.167  44.783   0.885
37889W        W97150   0.850   5.717   1.431
37890W        W97151  11.249  23.667  12.014
37891W        W97152  24.672   3.390   0.860
37892W        W97153  13.106   6.763  10.961
37893W        W97154   9.255  39.335   4.147
37894W        W97155  30.611   2.828  12.019
37895W        W97156  44.337  27.595  10.892
37896W        W97157  42.457  44.001   0.372
37897W        W97158  22.620  30.556   0.462
37898W        W97159   3.845  40.391   1.743
37899W        W97160  36.987   7.342   3.771
37900W        W97161  32.049   4.880  12.866
37901W        W97162  32.977   4.940   2.249
37902W        W97163  34.471  26.699  10.498
37903W        W97164  40.930  36.991   0.932
37904W        W97165  20.177  15.770   4.785
37905W        W97166  11.373  22.664  11.919
37906W        W97167   8.722  43.282  11.542
37907W        W97168  18.574   7.898  14.359
37908W        W97169   6.343  16.682  13.041
37909W        W97170  13.294  19.602   0.445
37910W        W97171  43.337  24.642  11.469
37911W        W97172   4.401   8.228   0.734
37912W        W97173  20.704   4.403  13.334
37913W        W97174  17.766  25.057  12.575
37914W        W97175  24.014  31.035  13.323
37915W        W97176  30.652   5.759   1.220
37916W        W97177   8.768  29.047   0.300
37917W        W97178   2.325  39.504   2.415
37918W        W97179  18.199  25.160   1.413
37919W        W97180  43.983  32.622   2.892
37920W        W97181   5.871  36.574   4.719
37921W        W97182  39.845  19.152   1.437
37922W        W97183  23.622  24.636  10.942
37923W        W97184  40.939   3.461  12.842
37924W        W97185  16.182  28.570   3.634
37925W        W97186  12.171  35.884  14.991
37926W        W97187  25.110  29.660   2.764
37927W        W97188  33.998   5.856   1.400
37928W        W97189  12.118  25.572   4.333
37929W        W97190  15.096  10.737  11.895
37930W        W97191  20.054  30.476  13.021
37931W        W97192  39.416   9.392  10.416
37932W        W97193  44.432  21.550   1.303
37933W        W97194  13.713  33.386   2.685
37934W        W97195   0.824  25.701   2.821
37935W        W97196  27.168  32.480   0.844
37936W        W97197  33.497  43.403   0.466
37937W        W97198   0.269  13.115   3.864
37938W        W97199  15.324   5.742   1.878
37939W        W97200  26.191  15.673  10.892
37940W        W97201   6.852  30.414  11.497
37941W        W97202  31.151  12.323  12.570
37942W        W97203   7.741  29.456   3.766
37943W        W97204  35.585  19.161   2.796
37944W        W97205   7.712  36.852  12.844
37945W        W97206  43.810  44.914   0.425
37946W        W97207   4.315  36.067  13.368
37947W        W97208  12.679  15.126  10.407
37948W        W97209  40.397  31.150   1.821
37949W        W97210   2.954  31.940  10.564
37950W        W97211  37.055  13.846   1.249
37951W        W97212   1.900  36.860   3.822
37952W        W97213  18.133  17.125  13.416
37953W        W97214  24.973  17.080  10.408
37954W        W97215  35.017  27.133   2.389
37955W        W97216  40.920  29.486  12.985
37956W        W97217   7.238  32.929  12.478
37957W        W97218  39.502  26.558   0.432
37958W        W97219  28.629  34.068   2.282
37959W        W97220  13.698  35.569  14.843
37960W        W97221  11.838  16.632  11.525
37961W        W97222  11.840   2.854  11.456
37962W        W97223  25.133  42.462   4.653
37963W        W97224  14.102   0.384   2.252
37964W        W97225  10.255  35.449  13.919
37965W        W97226  27.622  14.236  14.471
37966W        W97227  32.436  19.589   5.196
37967W        W97228   4.716  18.167   0.365
37968W        W97229  29.467  16.620   1.298
37969W        W97230  20.273  44.405   3.149
37970W        W97231  20.681  25.545   1.782
37971W        W97232  27.151   1.926   2.217
37972W        W97233  15.751  11.196   4.181
37973W        W97234  17.677   5.234  12.348
37974W        W97235  31.567  25.545   3.262
37975W        W97236   8.879  21.118   2.228
37976W        W97237   0.382  37.865   0.772
37977W        W97238  38.419  24.617   0.887
37978W        W97239  39.851  11.209  14.482
37979W        W97240   7.903  42.794   3.765
37980W        W97241  10.760   3.760   4.292
37981W        W97242  31.126  27.658  14.841
37982W        W97243   9.384  31.937  14.793
37983W        W97244  31.595  29.586  11.093
37984W        W97245  32.526  37.957  11.558
37985W        W97246  42.331  40.409  14.335
37986W        W97247  22.108  14.303   4.750
37987W        W97248   9.815  36.480  11.551
37988W        W97249  35.460  19.650   4.710
37989W        W97250  10.709  30.419   0.456
37990W        W97251  17.608  24.571  13.318
37991W        W97252  27.959  28.005  13.522
37992W        W97253   7.257  41.806   0.293
37993W        W97254  30.117  16.300  11.930
37994W        W97255  19.155   0.366   1.832
37995W        W97256   3.441  41.396   4.163
37996W        W97257  21.569  11.221  11.514
37997W        W97258   1.423  37.473   2.828
37998W        W97259  16.316  19.155   4.821
37999W        W97260  43.421  29.964   1.935
38000W        W97261  39.358  40.400   2.698
38001W        W97262  39.481  24.523   5.231
38002W        W97263  13.673  28.660  12.365
38003W        W97264  21.662  37.031   2.850
38004W        W97265  16.683   1.941   4.233
38005W        W97266  23.518  20.586  14.850
38006W        W97267  29.624  28.522   2.214
38007W        W97268  26.644  28.596   0.860
38008W        W97269  37.531  18.587   3.674
38009W        W97270  26.524  35.997   2.206
38010W        W97271   9.216  16.767  10.585
38011W        W97272   4.280  40.491  13.501
38012W        W97273   2.816  15.268   0.746
38013W        W97274   9.236  32.034  10.416
38014W        W97275  41.470  12.288   1.927
38015W        W97276  17.194   1.316  12.065
38016W        W97277  32.999  38.496   3.151
38017W        W97278   7.250  33.486  14.283
38018W        W97279  44.842   2.383   3.753
38019W        W97280  11.780  26.127   3.724
38020W        W97281  41.954  19.543  12.451
38021W        W97282  24.231  18.108  10.454
38022W        W97283   7.823  28.932  12.399
38023W        W97284  17.207  32.920  11.503
38024W        W97285   3.386   3.953  11.071
38025W        W97286   8.324  41.962  12.462
38026W        W97287   1.837  32.588  10.888
38027W        W97288  44.448   4.249  14.412
38028W        W97289  44.946  36.956  11.458
38029W        W97290  10.865  27.116   0.430
38030W        W97291  14.223  25.573   0.397
38031W        W97292  41.012   4.860   2.849
38032W        W97293  28.476  43.395  12.067
38033W        W97294  33.414   9.718   1.311
38034W        W97295  32.406  17.130   3.337
38035W        W97296  41.896  18.775   1.884
38036W        W97297  13.297  22.218   0.788
38037W        W97298  14.214  12.267  12.901
38038W        W97299  44.375  43.941   4.718
38039W        W97300  40.386  12.616  14.024
38040W        W97301  27.965  22.104   0.256
38041W        W97302  34.473  10.195  12.914
38042W        W97303   8.737  16.221  14.825
38043W        W97304  31.463  13.190   2.861
38044W        W97305  34.437  40.962  13.962
38045W        W97306  40.925  39.891  12.415
38046W        W97307  36.024  25.595  13.801
38047W        W97308   8.277  29.594   4.170
38048W        W97309  28.037   8.729  13.958
38049W        W97310  42.896   2.818  14.026
38050W        W97311   9.341  29.436  12.860
38051W        W97312  39.822   3.739  13.000
38052W        W97313  35.545   5.423   2.191
38053W        W97314  12.718  13.258  14.451
38054W        W97315   9.770  34.562   2.819
38055W        W97316  40.440  28.455   1.932
38056W        W97317  44.315  29.126   1.728
38057W        W97318  26.181  30.467  12.523
38058W        W97319   5.842  44.505   1.387
38059W        W97320  26.657   4.828   1.809
38060W        W97321   7.797  43.943   1.359
38061W        W97322  18.703  13.200   4.224
38062W        W97323  37.909  32.889   2.842
38063W        W97324  27.972   0.875   0.958
38064W        W97325  40.855  14.271   4.741
38065W        W97326  20.597  39.001  13.335
38066W        W97327  29.959  35.027  11.484
38067W        W97328  10.151   1.914   2.279
38068W        W97329  21.561  20.073  11.421
38069W        W97330  20.148   0.490  12.344
38070W        W97331  43.284  36.010   2.360
38071W        W97332  39.528  33.090   0.729
38072W        W97333  23.550  12.126   0.809
38073W        W97334  10.757  20.552   0.246
38074W        W97335   9.654  10.183   2.766
38075W        W97336  33.967  10.301  14.290
38076W        W97337  22.512  27.654  12.963
38077W        W97338  23.728  17.678  13.972
38078W        W97339  24.596  26.644  12.580
38079W        W97340   3.220   9.859  12.475
38080W        W97341   1.334  19.660   3.794
38081W        W97342  39.480  16.712   1.767
38082W        W97343   5.253  42.474   2.866
38083W        W97344   4.425  13.162  13.920
38084W        W97345  37.084  15.799   4.189
38085W        W97346  41.393  15.663  13.023
38086W        W97347   9.366  20.045  11.073
38087W        W97348  34.418  40.434   0.809
38088W        W97349   9.345  36.500  13.369
38089W        W97350  14.152  12.856  11.902
38090W        W97351  20.235  32.544   0.894
38091W        W97352   0.391  25.471   1.279
38092W        W97353  42.801  38.954  14.835
38093W        W97354  23.685  29.578   4.166
38094W        W97355  35.528   4.427   2.288
38095W        W97356  26.569  38.862   0.964
38096W        W97357  44.372  13.291   2.841
38097W        W97358  19.181  36.029   2.280
38098W        W97359  28.949  25.501   1.879
38099W        W97360  27.140  37.985  12.891
38100W        W97361  41.332  15.808   4.223
38101W        W97362  13.663  28.975  13.438
38102W        W97363   6.737  39.931  12.553
38103W        W97364   5.893  32.525   4.271
38104W        W97365   4.886  14.260   5.287
38105W        W97366   8.896  27.551   4.127
38106W        W97367  39.381  43.420   2.371
38107W        W97368  36.943   4.285   0.262
38108W        W97369  19.169   8.770   0.959
38109W        W97370   1.325  31.015   2.680
38110W        W97371  36.898   8.693  12.900
38111W        W97372  40.509  29.073   1.376
38112W        W97373  18.228  23.124   4.285
38113W        W97374  39.990  17.253  14.998
38114W        W97375  30.525  18.660   0.323
38115W        W97376  16.288   6.231  11.475
38116W        W97377  16.177  31.069   1.213
38117W        W97378  16.211   8.326   1.725
38118W        W97379   2.408  27.063   4.728
38119W        W97380  21.602  28.449  13.371
38120W        W97381  25.982   3.892   2.676
38121W        W97382  20.664  27.668  10.960
38122W        W97383  19.265  14.616  11.583
38123W        W97384  44.483  11.848  11.584
38124W        W97385  12.754  17.154  10.521
38125W        W97386  10.214  39.029   3.679
38126W        W97387  15.764  13.331  12.363
38127W        W97388  23.535   4.226  12.547
38128W        W97389   9.285  29.559  10.636
38129W        W97390   8.815  24.047   3.161
38130W        W97391  17.281  43.398  10.413
38131W        W97392  28.155  27.076  12.910
38132W        W97393   6.202  24.618  11.490
38133W        W97394   9.706  35.070  11.081
38134W        W97395  11.634  10.874   4.733
38135W        W97396  38.348  29.487   0.404
38136W        W97397  20.528  19.066  13.948
38137W        W97398  16.257   1.256   2.369
38138W        W97399  15.806  17.151  12.884
38139W        W97400  43.328  26.074  14.008
38140W        W97401  19.048  24.558  13.983
38141W        W97402  36.354  33.456   3.833
38142W        W97403   8.293  19.261   1.708
38143W        W97404   5.924  26.522   4.352
38144W        W97405  29.939  11.623  13.896
38145W        W97406  31.119  41.470   0.843
38146W        W97407  32.930   2.771   0.446
38147W        W97408  36.904   6.688   0.953
38148W        W97409  26.106  18.293  11.479
38149W        W97410  33.450  13.744  13.813
38150W        W97411  40.916  37.908   4.273
38151W        W97412  41.923  19.718  11.978
38152W        W97413   8.346  31.636   1.850
38153W        W97414  18.189  40.536  10.566
38154W        W97415  25.675  36.376  10.493
38155W        W97416  37.992   8.865   1.430
38156W        W97417  15.608  36.938  10.628
38157W        W97418   2.240   9.674  13.477
38158W        W97419  26.159  31.608   0.397
38159W        W97420  20.146  13.213   3.796
38160W        W97421  20.227  42.524   0.877
38161W        W97422  37.388  28.185  10.534
38162W        W97423   9.300   4.942   0.945
38163W        W97424   7.247  10.261   0.769
38164W        W97425  39.863  28.443   3.630
38165W        W97426   0.778  38.833  14.435
38166W        W97427  26.979  25.131   5.089
38167W        W97428  25.558  35.542   1.837
38168W        W97429   3.747  20.551   0.823
38169W        W97430   3.391   1.412  12.477
38170W        W97431  13.195  31.112  10.015
38171W        W97432   3.943  22.185  14.821
38172W        W97433  28.462  36.017  13.796
38173W        W97434  40.045  30.962   1.761
38174W        W97435  25.966  22.502  12.550
38175W        W97436   4.939  24.038   1.357
38176W        W97437  37.423  36.432  14.774
38177W        W97438  22.162  24.701   4.677
38178W        W97439  14.144  24.520   3.848
38179W        W97440  16.241  31.026  12.872
38180W        W97441   3.234  38.945  14.941
38181W        W97442  32.054  35.032   0.768
38182W        W97443   8.209  25.674  10.947
38183W        W97444  12.250  11.636  13.911
38184W        W97445  19.059  11.296  14.389
38185W        W97446  14.185  28.104  14.012
38186W        W97447  38.408  32.920   1.247
38187W        W97448  29.458  21.215   2.398
38188W        W97449  37.064  30.034   4.340
38189W        W97450  31.915  44.910   2.684
38190W        W97451  17.274  44.468   0.771
38191W        W97452  22.029   2.277  14.407
38192W        W97453  22.249  44.831  14.905
38193W        W97454  31.611  41.296  14.375
38194W        W97455  25.096  27.023   0.341
38195W        W97456   0.349  44.456   4.354
38196W        W97457  11.336   4.257  12.439
38197W        W97458  16.616   3.357   3.211
38198W        W97459  36.000   4.306  13.812
38199W        W97460   9.270  18.731   1.720
38200W        W97461  10.177   6.701   4.224
38201W        W97462  37.935  17.161   1.751
38202W        W97463   6.415  15.132   1.811
38203W        W97464   6.804  32.610   2.200
38204W        W97465  39.323   3.895  14.804
38205W        W97466   6.710  13.684   1.325
38206W        W97467  24.584  42.454  10.995
38207W        W97468   2.258  31.985   0.769
38208W        W97469   6.345   7.174  13.041
38209W        W97470  28.052  20.679   3.283
38210W        W97471  11.624   4.414  11.611
38211W        W97472  25.474  26.661  13.030
38212W        W97473  31.437  30.087   3.271
38213W        W97474   5.326  27.507  13.522
38214W        W97475  43.304  11.780  12.936
38215W        W97476   5.277  25.673  12.083
38216W        W97477   0.318   3.910   3.691
38217W        W97478   0.907  38.026  10.405
38218W        W97479  15.747  11.348   1.809
38219W        W97480  33.553  33.968   2.699
38220W        W97481  19.064  27.985  13.337
38221W        W97482   9.259  23.051   4.331
38222W        W97483  43.290  20.229   5.622
38223W        W97484   3.364  34.391  12.577
38224W        W97485   4.900   9.390   4.237
38225W        W97486  16.172   7.802   2.415
38226W        W97487  42.329  24.115  11.507
38227W        W97488  33.568  18.171   2.208
38228W        W97489  42.384  17.178   3.166
38229W        W97490  40.408  30.495  11.517
38230W        W97491   8.385  27.189   2.242
38231W        W97492  34.983  13.722  13.818
38232W        W97493  32.561  36.058  12.374
38233W        W97494  13.696  21.069  10.944
38234W        W97495  14.671  32.537  13.452
38235W        W97496  15.157  30.119   4.163
38236W        W97497  23.003  12.165   1.909
38237W        W97498   1.406  30.418  12.452
38238W        W97499   4.447  27.995   3.186
38239W        W97500  40.857  21.060   1.248
38240W        W97501  23.213  11.802  10.990
38241W        W97502  13.317  14.289  12.930
38242W        W97503  12.649  40.483  10.534
38243W        W97504  13.259  10.668   3.387
38244W        W97505  14.615  11.693  10.589
38245W        W97506  33.075  38.412  12.360
38246W        W97507  39.033  29.992  13.966
38247W        W97508   0.920  16.703   1.297
38248W        W97509  37.560  12.819   3.858
38249W        W97510  38.885  43.837   1.918
38250W        W97511   1.398  18.622   1.926
38251W        W97512  11.789  24.082   3.761
38252W        W97513  24.020  24.230   0.805
38253W        W97514  13.290  11.819  11.936
38254W        W97515  29.930   1.443  10.934
38255W        W97516  27.609  16.114  10.598
38256W        W97517  17.285   3.327   3.178
38257W        W97518  43.893  24.980   1.734
38258W        W97519   7.879  30.514   4.598
38259W        W97520  35.517   2.308  13.397
38260W        W97521  27.944  11.773   1.790
38261W        W97522  26.205  26.025  14.981
38262W        W97523  34.912  42.807  10.416
38263W        W97524  35.095  27.031   0.374
38264W        W97525   0.487  22.099   2.762
38265W        W97526  28.970  16.576  11.448
38266W        W97527   4.928   9.851  14.919
38267W        W97528  21.077  17.196  11.911
38268W        W97529  19.257  27.161   0.874
38269W        W97530  26.166  17.648  13.467
38270W        W97531  30.002  24.996   1.417
38271W        W97532  34.929   4.230   3.772
38272W        W97533  13.699  20.087   2.777
38273W        W97534  13.150  43.877   3.678
38274W        W97535  31.603  18.767  11.089
38275W        W97536  20.686  24.031  11.085
38276W        W97537  19.147  18.266   0.424
38277W        W97538  29.595  14.174  12.064
38278W        W97539   4.207  14.682   2.187
38279W        W97540   7.729  35.856   5.276
38280W        W97541  31.521  37.026   1.877
38281W        W97542  43.478  22.152   2.864
38282W        W97543  18.604  31.514   4.754
38283W        W97544  43.343  14.222  11.395
38284W        W97545   6.251   1.323  10.541
38285W        W97546  38.073  34.906  14.923
38286W        W97547   3.317  31.443   1.361
38287W        W97548  42.413  11.253  10.899
38288W        W97549  39.873  20.731  14.899
38289W        W97550  38.331  10.778  10.499
38290W        W97551  26.129  17.284   4.241
38291W        W97552   9.821  27.618   4.123
38292W        W97553  33.590  42.829   3.738
38293W        W97554   8.194  31.513   2.407
38294W        W97555  40.499  43.322  12.463
38295W        W97556  11.328  28.635  14.889
38296W        W97557  22.034   9.718  13.385
38297W        W97558  17.583  16.170  14.366
38298W        W97559  20.701  43.928  13.346
38299W        W97560  27.486  41.035  13.967
38300W        W97561   5.428  18.588   0.471
38301W        W97562   5.803  13.181   1.774
38302W        W97563  30.431   0.896   1.383
38303W        W97564  29.988  26.577  14.469
38304W        W97565  28.933  31.525  12.547
38305W        W97566  36.956   4.786   0.735
38306W        W97567  24.544  22.032  12.376
38307W        W97568  26.150   6.263   1.376
38308W        W97569  19.169  39.537  14.853
38309W        W97570  29.645  19.691  12.991
38310W        W97571  23.685   5.216  13.496
38311W        W97572  38.349   7.666   3.262
38312W        W97573  23.220  37.066  14.810
38313W        W97574  10.214  24.679   3.245
38314W        W97575   8.223   0.393   2.189
38315W        W97576   9.260  34.387  10.603
38316W        W97577   9.685   6.865  11.888
38317W        W97578  14.304  32.449   0.350
38318W        W97579  17.647  15.617   3.289
38319W        W97580  35.416  11.706  10.043
38320W        W97581  16.581  34.568  14.329
38321W        W97582  44.924  33.545  12.865
38322W        W97583  15.196  14.729  12.415
38323W        W97584   9.319  38.414   4.724
38324W        W97585  41.794  32.593  10.459
38325W        W97586  17.626   1.776  11.510
38326W        W97587  17.067  11.209  12.857
38327W        W97588  10.785  28.138   4.726
38328W        W97589  30.120  27.037   1.890
38329W        W97590  31.469   7.909  11.600
38330W        W97591  18.634  30.488   2.706
38331W        W97592  23.107   1.255  12.928
38332W        W97593  21.126  16.572   0.791
38333W        W97594  31.612  37.503   0.437
38334W        W97595  18.098   5.821   2.412
38335W        W97596  22.238  38.438   3.284
38336W        W97597  34.445  45.000   0.249
38337W        W97598  34.544  13.264  11.964
38338W        W97599  28.010  44.283  13.897
38339W        W97600  28.568  21.163   2.327
38340W        W97601  15.791  42.453  13.398
38341W        W97602  17.224  26.622  10.557
38342W        W97603  41.970  32.503   4.238
38343W        W97604  29.484  41.925  11.612
38344W        W97605  19.760   3.355   3.185
38345W        W97606  23.137  17.722  13.455
38346W        W97607  19.563  24.130   3.266
38347W        W97608  24.196  24.500  10.636
38348W        W97609  33.899  38.938   1.395
38349W        W97610  15.672  14.642   3.250
38350W        W97611  14.831  12.162   1.745
38351W        W97612  34.392  43.863  13.817
38352W        W97613  12.220  10.382  14.836
38353W        W97614  40.946  32.123   4.654
38354W        W97615   6.827   7.690  14.830
38355W        W97616   7.229  33.422   2.359
38356W        W97617   2.833  40.865   4.347
38357W        W97618  13.231  38.477  10.611
38358W        W97619  23.636  29.557   1.318
38359W        W97620   8.359  44.932  13.036
38360W        W97621   4.311  19.216  14.456
38361W        W97622  39.555  10.707  11.076
38362W        W97623  30.076  28.656   3.707
38363W        W97624   3.907   3.849  13.431
38364W        W97625   3.905  23.240  13.443
38365W        W97626  28.991  17.245   4.759
38366W        W97627   4.391  10.743  12.409
38367W        W97628  27.658   6.859  12.447
38368W        W97629  36.547  43.314   3.649
38369W        W97630  11.819  22.072  11.004
38370W        W97631   5.721  36.907   3.727
38371W        W97632  26.702  26.158   4.790
38372W        W97633   4.928  30.109  12.411
38373W        W97634  13.281   5.435   1.427
38374W        W97635  33.964  27.464   3.746
38375W        W97636  28.577  41.874   4.122
38376W        W97637   3.265  11.735  14.410
38377W        W97638  27.160  23.724  10.600
38378W        W97639  21.224  34.380   4.782
38379W        W97640  33.969  25.573   4.118
38380W        W97641   7.323  30.530  11.106
38381W        W97642  29.574  40.984  13.949
38382W        W97643  37.013   9.161   2.780
38383W        W97644  11.213  33.056   0.277
38384W        W97645  36.593  13.223   2.220
38385W        W97646  13.217   7.208   9.670
38386W        W97647  39.387  33.606  12.010
38387W        W97648  33.483  44.459   5.213
38388W        W97649  41.802  18.100   2.360
38389W        W97650  38.356  18.137   9.523
38390W        W97651  21.176  40.829   4.135
38391W        W97652  19.756  25.035   3.157
38392W        W97653  28.467  15.665   3.795
38393W        W97654  19.657  35.364  14.485
38394W        W97655   1.459  39.985  11.984
38395W        W97656  37.940  32.976  11.916
38396W        W97657   4.268  22.569   1.834
38397W        W97658  20.157  17.560   2.756
38398W        W97659   3.244  20.613  11.875
38399W        W97660   0.267  17.627  14.812
38400W        W97661  35.858   7.355   3.722
38401W        W97662  24.098   8.314  14.368
38402W        W97663  15.689  40.879  14.372
38403W        W97664  23.086  40.003  14.387
38404W        W97665  13.219  38.380  14.814
38405W        W97666  16.292   9.205  13.902
38406W        W97667  42.516   8.899   0.346
38407W        W97668  11.785   4.303  10.030
38408W        W97669   8.389  29.489   0.788
38409W        W97670  22.700  11.173   0.379
38410W        W97671  41.879  17.766   0.891
38411W        W97672  20.664   9.199  12.890
38412W        W97673  18.297  34.074  13.792
38413W        W97674  36.029  22.619   2.680
38414W        W97675  41.011  10.289   4.326
38415W        W97676  39.408  15.726   2.830
38416W        W97677   9.298  17.584   4.605
38417W        W97678  38.363   8.722  10.636
38418W        W97679  13.229   3.260  14.964
38419W        W97680  17.189  27.982  10.432
38420W        W97681  15.816  24.496  10.554
38421W        W97682  42.924   7.692  14.287
38422W        W97683  43.788  44.397  14.355
38423W        W97684  38.381  44.485   2.207
38424W        W97685  16.259  11.632  11.915
38425W        W97686  40.946  23.154   5.133
38426W        W97687  20.187  36.431   4.266
38427W        W97688  16.190   1.887   0.452
38428W        W97689   4.773  23.532   4.716
38429W        W97690  13.125   3.886  14.307
38430W        W97691  35.951  22.240  12.486
38431W        W97692   1.861  15.731   5.209
38432W        W97693  41.322  15.200   4.753
38433W        W97694  23.628  44.302  13.309
38434W        W97695  19.247  33.901   0.254
38435W        W97696   5.205  12.196  12.968
38436W        W97697  19.252  37.573   1.735
38437W        W97698  33.458  40.413   0.826
38438W        W97699  41.828  41.952   1.780
38439W        W97700  37.492  38.881   4.708
38440W        W97701  11.782   6.723   0.403
38441W        W97702  22.623  37.954  12.081
38442W        W97703   3.951  17.652   2.265
38443W        W97704  36.497   9.658   2.230
38444W        W97705  43.772  36.491  12.867
38445W        W97706  11.355  31.982   2.874
38446W        W97707   8.782   6.751  11.997
38447W        W97708  18.723  27.145   3.687
38448W        W97709  23.536  32.405  11.001
38449W        W97710  29.994  21.662   2.866
38450W        W97711  30.452  30.936   1.929
38451W        W97712  27.554   6.194   3.774
38452W        W97713  36.960  24.100   0.335
38453W        W97714  28.044   1.347   1.859
38454W        W97715  17.581   9.354   0.330
38455W        W97716   9.788  10.348  12.980
38456W        W97717  29.038  23.494  12.058
38457W        W97718   6.921   8.806   0.428
38458W        W97719  18.084  42.997  14.759
38459W        W97720  24.064  36.425  11.485
38460W        W97721  31.066  44.438  14.294
38461W        W97722  17.289  36.401  11.943
38462W        W97723   0.480  18.590   2.230
38463W        W97724   4.879  36.527  11.897
38464W        W97725  29.435  31.503   0.894
38465W        W97726   0.263  24.022   1.241
38466W        W97727  30.026  19.206   0.805
38467W        W97728  10.651   8.826  11.558
38468W        W97729   3.711   8.189   4.627
38469W        W97730  13.669  38.383  14.875
38470W        W97731  15.281  15.675   0.435
38471W        W97732  38.439   7.348   4.609
38472W        W97733   5.292  20.168  10.497
38473W        W97734  30.476  16.749   0.318
38474W        W97735   8.686  42.470   2.765
38475W        W97736  19.658  14.150  14.851
38476W        W97737  14.338  17.083   0.835
38477W        W97738  19.195  10.163  14.978
38478W        W97739   4.300  22.629   2.197
38479W        W97740  28.438   8.885   0.447
38480W        W97741   4.836   9.704   1.904
38481W        W97742  12.666  31.107  14.465
38482W        W97743  25.504  35.995  10.994
38483W        W97744  25.648   6.339   2.875
38484W        W97745  32.031  11.134  10.562
38485W        W97746   6.707  35.376  10.890
38486W        W97747  27.962  12.167   4.351
38487W        W97748  23.685  12.758   4.682
38488W        W97749  10.156  17.080   3.655
38489W        W97750  33.522  21.664   3.204
38490W        W97751   1.732  30.619   3.656
38491W        W97752   8.782  19.093   1.817
38492W        W97753  13.118   5.326  12.882
38493W        W97754  31.985  14.272   1.806
38494W        W97755  33.594  30.639  11.539
38495W        W97756  41.426  28.068  10.093
38496W        W97757   9.693  15.278   4.263
38497W        W97758  28.106  25.587  10.982
38498W        W97759  33.052  24.050   0.755
38499W        W97760  30.104  37.444  14.508
38500W        W97761  11.136   0.366   2.231
38501W        W97762  37.869   4.755   4.799
38502W        W97763  37.991   6.346  13.032
38503W        W97764  19.072  19.633  13.020
38504W        W97765   5.396  42.805  10.544
38505W        W97766  39.384  16.197  11.897
38506W        W97767  28.680  17.677   1.718
38507W        W97768  17.758  29.933   0.354
38508W        W97769  24.078  41.484  13.986
38509W        W97770   3.799  18.289   3.705
38510W        W97771  32.514  21.715  14.295
38511W        W97772  33.049  12.650   1.404
38512W        W97773  30.014  40.921  10.623
38513W        W97774   8.351  40.848  11.372
38514W        W97775   9.188   4.341   4.707
38515W        W97776  44.919  35.459   2.897
38516W        W97777  36.421  20.048   3.343
38517W        W97778  13.630  13.713   2.890
38518W        W97779  26.672   5.896   3.316
38519W        W97780   0.292  36.460   4.777
38520W        W97781  18.692   5.395  13.941
38521W        W97782  20.644  31.557   2.286
38522W        W97783  23.057  21.048  12.496
38523W        W97784  44.415  26.085   9.584
38524W        W97785   6.812  33.119   4.608
38525W        W97786   5.912  12.663   0.452
38526W        W97787  37.843  43.990   0.449
38527W        W97788  21.101  28.031  13.454
38528W        W97789   5.360   3.854   1.733
38529W        W97790  33.926  26.035  14.405
38530W        W97791  18.730  22.522  14.331
38531W        W97792  34.892   6.820  10.499
38532W        W97793  11.648  28.003   4.763
38533W        W97794  42.924  22.605   4.120
38534W        W97795  42.301  38.835   4.196
38535W        W97796  37.416  26.487   0.768
38536W        W97797   4.863  19.101  14.778
38537W        W97798  37.566  39.838  10.481
38538W        W97799   1.452  10.343  13.908
38539W        W97800   3.245  38.503   2.679
38540W        W97801  31.640  34.914   0.316
38541W        W97802  34.951  12.325   5.146
38542W        W97803  25.185  40.305   1.770
38543W        W97804  16.317  20.206   3.340
38544W        W97805  21.591  20.558   2.317
38545W        W97806  29.973  43.294  14.419
38546W        W97807  40.953  10.668   0.823
38547W        W97808  19.694  13.673   0.452
38548W        W97809  21.114   6.326   4.780
38549W        W97810  30.915  22.202  10.602
38550W        W97811   6.741  13.258   1.772
38551W        W97812   6.811   1.244   0.778
38552W        W97813   9.191  32.618   3.677
38553W        W97814  29.930   2.449  12.580
38554W        W97815  41.395  30.116   1.417
38555W        W97816  11.221  15.634  11.499
38556W        W97817  39.029  21.135   1.769
38557W        W97818  32.634   4.372   2.326
38558W        W97819  10.238  38.358  10.107
38559W        W97820  22.171  18.758   1.336
38560W        W97821   2.935  13.112  12.910
38561W        W97822   0.370  30.564   0.307
38562W        W97823  22.502  15.088   3.684
38563W        W97824  35.888  38.067  11.424
38564W        W97825   7.851  22.026   0.881
38565W        W97826   9.888  17.572   1.735
38566W        W97827  13.196  33.892   2.767
38567W        W97828  25.635  18.667  13.863
38568W        W97829   4.699  10.869  13.991
38569W        W97830  40.929  21.616   2.667
38570W        W97831  12.715  29.937  10.437
38571W        W97832  11.818  16.261   1.844
38572W        W97833  26.119  13.735  13.312
38573W        W97834  42.806  12.219  14.307
38574W        W97835   5.367   7.680  11.464
38575W        W97836  40.981  37.582   1.794
38576W        W97837  24.186  32.511   2.285
38577W        W97838  32.436  10.633   1.381
38578W        W97839  14.115  27.663  12.967
38579W        W97840   0.961  22.188   0.916
38580W        W97841  33.047  28.531  11.551
38581W        W97842  38.467  21.580  14.918
38582W        W97843   9.165  28.512  14.466
38583W        W97844  10.212  43.961   0.293
38584W        W97845  44.816  31.585   2.290
38585W        W97846  28.140   3.888  12.387
38586W        W97847  38.327   9.738   1.271
38587W        W97848  15.247   0.814  12.425
38588W        W97849  21.217  27.080  13.540
38589W        W97850   8.723  44.497  12.959
38590W        W97851  20.618   8.237  14.319
38591W        W97852  19.681  33.516  12.891
38592W        W97853  35.987   2.274   1.905
38593W        W97854  35.456  38.349   1.813
38594W        W97855   3.776  44.934  13.388
38595W        W97856  26.071  15.101   4.715
38596W        W97857   7.393   7.864  14.985
38597W        W97858  23.123  22.582   3.287
38598W        W97859  18.291   8.220   1.394
38599W        W97860  15.589   9.242  10.434
38600W        W97861  31.141   2.436   1.406
38601W        W97862   6.251  11.743  12.825
38602W        W97863   1.969  18.149  14.365
38603W        W97864  32.947  41.807   3.647
38604W        W97865  38.076  27.941  11.049
38605W        W97866   9.734  36.958   4.303
38606W        W97867  35.082  21.616  11.595
38607W        W97868  26.670  30.535  14.018
38608W        W97869  24.692  13.823   4.321
38609W        W97870  16.784  34.997   2.376
38610W        W97871  12.230  36.014   1.795
38611W        W97872  26.164  38.437   0.754
38612W        W97873  35.022  17.621   0.455
38613W        W97874  20.637  40.502  13.499
38614W        W97875   8.844  35.583  12.960
38615W        W97876  28.552   9.255   3.227
38616W        W97877   0.798  37.971  14.913
38617W        W97878  13.329  30.476   0.328
38618W        W97879  34.005  34.575  12.487
38619W        W97880  42.776  19.144   1.857
38620W        W97881  43.997  36.858   1.771
38621W        W97882  16.263   7.390  12.023
38622W        W97883  10.363  31.938   2.295
38623W        W97884  14.098  31.139   4.739
38624W        W97885   7.853  15.173  10.911
38625W        W97886  10.153  40.927   3.641
38626W        W97887  22.503  37.007  12.032
38627W        W97888  44.845  10.322  12.374
38628W        W97889  28.623  20.709  12.874
38629W        W97890  44.404  21.645   2.761
38630W        W97891  44.971  19.137  14.760
38631W        W97892  11.851  42.890   4.302
38632W        W97893  34.922  33.131  13.405
38633W        W97894  24.529  23.732   3.860
38634W        W97895  32.473  26.195   4.713
38635W        W97896  16.252  22.718   2.339
38636W        W97897  30.143  19.621   3.330
38637W        W97898   3.734  22.688   3.275
38638W        W97899  42.401   1.767  13.531
38639W        W97900  18.172   2.269  14.404
38640W        W97901   8.700  28.523  12.353
38641W        W97902   4.416   2.349  13.948
38642W        W97903  26.472   6.733   0.253
38643W        W97904   2.854  44.816   1.719
38644W        W97905  16.203  24.645   0.894
38645W        W97906  37.537  10.271   3.247
38646W        W97907  38.048  21.256   1.861
38647W        W97908  13.170   0.412  11.563
38648W        W97909  31.154  32.995   2.235
38649W        W97910   6.802  31.060  11.418
38650W        W97911  18.637   3.379  14.014
38651W        W97912  10.696  32.629  14.904
38652W        W97913  41.008  26.173  13.447
38653W        W97914  41.802  12.168   2.186
38654W        W97915  27.993  13.215  10.534
38655W        W97916  19.699  25.650  14.023
38656W        W97917  21.584  44.392   3.347
38657W        W97918  40.929  21.017  13.395
38658W        W97919   8.756  43.872  14.952
38659W        W97920  26.018  28.117   2.230
38660W        W97921  44.934   0.742  12.383
38661W        W97922   2.248  16.196   3.727
38662W        W97923  39.324  35.453   5.568
38663W        W97924  10.163   4.935   5.117
38664W        W97925   6.792  19.152   2.252
38665W        W97926  16.270  36.002  12.941
38666W        W97927   2.435  40.798   1.257
38667W        W97928   6.753  38.989  14.972
38668W        W97929   6.868  16.106  12.514
38669W        W97930  23.065  39.508  12.028
38670W        W97931  29.444  30.098   5.569
38671W        W97932  33.529   4.881   0.289
38672W        W97933  30.485  19.550   2.888
38673W        W97934  26.614  38.495   0.888
38674W        W97935  27.054  37.439   2.239
38675W        W97936  37.921  10.708   0.347
38676W        W97937   4.917  15.817   0.280
38677W        W97938  29.627  22.724  13.329
38678W        W97939  19.192  27.129  12.094
38679W        W97940   1.971  37.577  13.432
38680W        W97941  15.182  32.062   4.690
38681W        W97942  42.890  41.922  13.840
38682W        W97943  32.494   0.824  13.369
38683W        W97944  27.667  10.825   0.423
38684W        W97945  33.060  22.663   2.340
38685W        W97946   3.270  13.647  13.332
38686W        W97947  14.663   9.234   0.262
38687W        W97948  16.210  25.538   0.422
38688W        W97949  31.548  15.767  10.019
38689W        W97950  33.394  18.759  14.386
38690W        W97951  13.776  34.118  11.543
38691W        W97952  14.667  23.535   2.693
38692W        W97953  14.800   4.829  13.530
38693W        W97954   3.403  26.136   1.894
38694W        W97955  15.804   3.955  12.927
38695W        W97956   8.684  37.440  12.349
38696W        W97957  11.754  24.707   3.783
38697W        W97958  40.013  43.469   2.765
38698W        W97959  21.511  13.282   0.423
38699W        W97960  10.186   4.906  14.365
38700W        W97961  25.560  38.571  11.010
38701W        W97962  33.409  41.392   0.372
38702W        W97963   5.262  29.511  10.434
38703W        W97964   0.962  37.551   4.679
38704W        W97965   1.735  24.061   0.320
38705W        W97966  35.374  17.671   2.671
38706W        W97967   9.171   7.364   1.341
38707W        W97968  35.445  12.737   3.161
38708W        W97969  16.803  27.487   0.827
38709W        W97970  33.880  25.050   3.158
38710W        W97971  42.846  10.847   1.845
38711W        W97972   3.855  11.337  11.989
38712W        W97973  13.770  10.697   1.266
38713W        W97974   9.306  15.138  11.587
38714W        W97975   0.262   1.442  13.051
38715W        W97976  30.141  27.468   4.606
38716W        W97977  43.849   3.294  10.430
38717W        W97978  44.316  10.821  11.396
38718W        W97979  18.055  19.662  11.938
38719W        W97980  31.048  15.277  11.438
38720W        W97981  24.625   5.350   5.318
38721W        W97982  24.230  19.185   4.238
38722W        W97983   2.239  36.874   4.229
38723W        W97984   8.680  10.377  11.449
38724W        W97985  34.107   3.389   1.249
38725W        W97986  19.597  10.377   4.213
38726W        W97987   6.846  10.342   3.221
38727W        W97988  28.053  38.858   1.797
38728W        W97989   1.808  19.183   0.891
38729W        W97990  22.675  40.535   1.318
38730W        W97991  30.025  15.600  12.046
38731W        W97992   1.805  34.010   3.149
38732W        W97993  19.187  23.024  12.422
38733W        W97994  30.046   3.825   0.437
38734W        W97995  34.878  14.106  12.881
38735W        W97996  35.510   1.322  13.382
38736W        W97997  26.005  21.519  14.791
38737W        W97998  39.394   8.662  13.917
38738W        W97999  10.781  22.136  12.833
38739W        W98000  18.667  31.526   0.403
38740W        W98001  24.032   4.386   4.259
38741W        W98002  36.961  30.501   4.632
38742W        W98003  40.047  18.610  13.544
38743W        W98004   7.214  41.977  14.453
38744W        W98005  14.166   2.356   0.315
38745W        W98006  26.680   9.796   4.134
38746W        W98007  31.506   3.422   5.218
38747W        W98008  19.084  21.079   4.747
38748W        W98009  41.485  33.882  12.435
38749W        W98010  40.868  18.249   1.868
38750W        W98011  31.083  41.298   9.921
38751W        W98012  36.530  19.675  13.891
38752W        W98013  16.123  15.085  10.590
38753W        W98014   6.834  32.017   3.244
38754W        W98015  21.156  37.978  11.599
38755W        W98016  25.015   8.204   4.152
38756W        W98017  34.008  42.897   3.641
38757W        W98018  37.544   1.452  14.986
38758W        W98019   0.924  23.193  11.994
38759W        W98020  27.105  14.671  10.949
38760W        W98021  29.481  33.130  11.027
38761W        W98022  26.518  40.044  11.077
38762W        W98023  15.159  44.794  11.063
38763W        W98024  34.594  37.442   1.210
38764W        W98025  34.010  18.754  13.899
38765W        W98026  23.001  23.149  13.526
38766W        W98027  18.176  44.784  10.485
38767W        W98028  16.290  11.646  12.982
38768W        W98029  12.153  24.137   2.412
38769W        W98030   9.193  12.267   2.823
38770W        W98031  23.521  11.647  11.092
38771W        W98032  13.842  34.598  12.944
38772W        W98033  23.682  35.417  11.058
38773W        W98034  26.491   6.718  10.502
38774W        W98035  17.114   9.179  10.502
38775W        W98036   9.717  22.692  13.825
38776W        W98037  25.176  32.045   0.263
38777W        W98038   6.359  18.616   3.344
38778W        W98039  44.814   5.801   1.366
38779W        W98040  11.230  19.280   0.455
38780W        W98041  30.063  23.637   3.681
38781W        W98042  10.272  23.521  14.380
38782W        W98043  15.141  34.500   3.245
38783W        W98044  34.505  24.574  11.548
38784W        W98045  23.683  15.244   2.298
38785W        W98046  10.829  16.240   3.719
38786W        W98047   1.904   4.236  13.871
38787W        W98048  38.372  17.686  13.431
38788W        W98049  40.875  33.963  11.021
38789W        W98050  39.396  40.341   2.259
38790W        W98051   2.953  42.792   2.236
38791W        W98052  23.630  14.609   1.291
38792W        W98053   3.780  20.162   2.755
38793W        W98054  16.243   0.419  12.919
38794W        W98055  21.619  33.930   1.837
38795W        W98056  20.220  18.646  12.417
38796W        W98057  24.038  12.176   0.907
38797W        W98058  15.800  28.490  14.921
38798W        W98059  39.918  21.601  11.089
38799W        W98060  26.960  32.462   1.406
38800W        W98061  44.893  31.920  12.406
38801W        W98062  13.269  17.636   2.346
38802W        W98063  22.048  28.975  13.832
38803W        W98064  44.266  29.623  14.896
38804W        W98065   3.854  17.659  12.036
38805W        W98066   4.448  26.030  12.063
38806W        W98067  14.824  18.241   3.742
38807W        W98068   1.316  39.346   3.373
38808W        W98069  35.898   5.254  14.357
38809W        W98070  22.099  34.048  10.572
38810W        W98071   0.810  24.037   1.716
38811W        W98072  24.569  19.080   1.755
38812W        W98073  17.064  19.635   3.847
38813W        W98074  35.439   7.227   0.887
38814W        W98075  36.042   4.220   2.876
38815W        W98076  11.193  31.929   0.478
38816W        W98077  26.190  27.998   1.251
38817W        W98078   8.303  18.729  12.506
38818W        W98079  23.689  19.065  12.564
38819W        W98080  14.296  14.824  10.926
38820W        W98081  41.822  19.745   3.298
38821W        W98082  25.480  13.662  12.862
38822W        W98083  42.869  11.850  14.807
38823W        W98084  18.146  17.291   3.801
38824W        W98085   8.738  26.979   0.438
38825W        W98086  21.675   1.831  11.426
38826W        W98087  24.125  28.469   4.630
38827W        W98088  21.077  13.131   1.814
38828W        W98089   4.921  18.136  12.551
38829W        W98090   5.235  19.238  14.760
38830W        W98091  38.876  11.794  12.488
38831W        W98092  10.245  33.492  13.364
38832W        W98093  15.274  31.027   1.273
38833W        W98094   5.687  20.737   2.878
38834W        W98095  27.514  41.869   1.322
38835W        W98096  32.988  24.672  14.908
38836W        W98097   5.425  34.980   4.605
38837W        W98098  39.928  12.313  12.998
38838W        W98099   9.203  12.231   4.716
38839W        W98100  27.517  10.343   3.772
38840W        W98101  15.640  18.633  10.515
38841W        W98102  14.282  11.303  12.498
38842W        W98103  35.576   5.856  13.884
38843W        W98104   6.681  41.927   0.424
38844W        W98105  14.589   5.316   1.699
38845W        W98106  15.165   3.777  11.989
38846W        W98107  30.912  22.579   4.233
38847W        W98108  37.942  30.602  13.485
38848W        W98109  40.335  24.989   3.652
38849W        W98110  42.958   3.781   2.763
38850W        W98111  35.963  10.192  12.063
38851W        W98112  44.894  23.708   2.323
38852W        W98113  42.974  44.930   0.388
38853W        W98114  11.849  25.173  11.970
38854W        W98115  12.764  36.031  14.300
38855W        W98116  17.213  33.605  11.068
38856W        W98117  12.783  14.636  10.413
38857W        W98118  16.111  15.582  13.816
38858W        W98119  36.366  14.798  12.903
38859W        W98120  12.257  34.099   4.202
38860W        W98121  31.480  35.547   0.934
38861W        W98122  14.646  39.362   4.236
38862W        W98123  40.464  43.957   2.177
38863W        W98124  16.163  41.449   1.374
38864W        W98125  35.403  44.895   1.839
38865W        W98126  37.538  43.016   4.838
38866W        W98127   8.881  43.905  14.467
38867W        W98128  36.872  41.336   4.811
38868W        W98129  37.533  36.433  11.973
38869W        W98130   5.738   3.375  13.422
38870W        W98131   0.961  32.488  10.422
38871W        W98132  15.669  33.478   0.394
38872W        W98133  10.252   5.434   0.857
38873W        W98134  32.570  22.589   4.774
38874W        W98135  43.490  28.569   1.218
38875W        W98136  39.490   9.342  14.397
38876W        W98137   8.236  22.688   3.828
38877W        W98138  17.700  27.005  10.892
38878W        W98139  21.603  27.126   0.843
38879W        W98140  14.157  44.414  12.451
38880W        W98141   1.358  20.254  13.908
38881W        W98142   8.819   6.395   0.438
38882W        W98143  35.581  29.513  14.855
38883W        W98144  43.947  20.124  14.503
38884W        W98145  42.364  37.345  11.925
38885W        W98146  18.219  34.578   3.214
38886W        W98147  29.123  19.734   4.716
38887W        W98148  18.759  22.046   1.871
38888W        W98149  36.490   7.850  14.337
38889W        W98150  17.695  44.483  14.418
38890W        W98151  32.059   3.866   0.374
38891W        W98152  29.426  35.066   4.226
38892W        W98153  30.102  27.499   1.734
38893W        W98154  25.974  24.055   1.935
38894W        W98155  30.013  11.187   2.204
38895W        W98156   6.839  24.089   4.625
38896W        W98157  31.972  16.621  14.783
38897W        W98158  36.538  13.674   3.245
38898W        W98159  44.841  12.164  14.857
38899W        W98160   8.406  43.466   4.631
38900W        W98161  13.842  22.190  14.435
38901W        W98162  20.709  23.631   3.335
38902W        W98163  36.459   5.821   3.312
38903W        W98164   7.904   1.450  13.377
38904W        W98165   4.860  31.004   1.764
38905W        W98166  21.708  20.179   0.365
38906W        W98167  40.532  24.038   2.811
38907W        W98168  36.900  34.878   1.878
38908W        W98169  29.427   5.854  13.024
38909W        W98170  10.660  26.110   1.285
38910W        W98171  29.044  23.662   0.802
38911W        W98172   5.774  25.987  12.032
38912W        W98173  18.581   8.682  11.980
38913W        W98174  10.375  19.203   2.849
38914W        W98175  14.110   5.407   4.161
38915W        W98176  22.044  31.524   3.187
38916W        W98177  42.436  20.093   2.419
38917W        W98178   0.346  11.181   1.749
38918W        W98179  11.215  40.460   1.377
38919W        W98180  29.106  19.538  12.479
38920W        W98181  40.023  21.093  11.079
38921W        W98182  40.838  44.306  12.534
38922W        W98183  29.012  18.268   4.286
38923W        W98184  11.204  40.996   2.787
38924W        W98185   2.800   5.728   3.870
38925W        W98186   9.360   2.334  11.113
38926W        W98187  40.930  34.584   0.330
38927W        W98188   7.283  12.829   0.765
38928W        W98189  11.287   9.687   4.289
38929W        W98190  39.039  15.612  11.391
38930W        W98191  18.619  31.991  12.457
38931W        W98192  29.617  29.041   1.799
38932W        W98193  17.232  14.749   2.736
38933W        W98194  40.930  38.820   3.816
38934W        W98195  32.097  30.137   3.788
38935W        W98196  11.274  27.033   0.771
38936W        W98197  11.757  17.794   1.858
38937W        W98198  32.980   9.210   0.771
38938W        W98199  14.186  41.535   4.307
38939W        W98200  13.728   8.752  13.314
38940W        W98201  33.989  41.018   4.156
38941W        W98202   3.321  23.670   3.695
38942W        W98203  10.835  35.959  12.889
38943W        W98204  11.129   8.376   2.676
38944W        W98205   1.891  13.805  11.401
38945W        W98206   5.830  14.206  11.519
38946W        W98207  38.472  44.858  11.547
38947W        W98208  37.533   8.826  11.473
38948W        W98209   0.877  18.057   3.665
38949W        W98210   2.338  21.522   4.643
38950W        W98211   2.765  14.660  13.463
38951W        W98212   3.934  32.022   1.894
38952W        W98213  20.035   2.793  10.599
38953W        W98214  44.932  30.026   4.629
38954W        W98215  41.459  27.477  10.067
38955W        W98216  20.127   5.283  12.881
38956W        W98217  40.485  17.793   1.424
38957W        W98218  20.162  19.725   0.250
38958W        W98219  21.575  40.537  13.878
38959W        W98220  16.197  15.123  12.356
38960W        W98221  34.102  11.662   0.833
38961W        W98222   4.369  40.502  11.089
38962W        W98223  40.507  29.122   3.638
38963W        W98224  24.184  40.410   1.913
38964W        W98225  32.053   3.379  10.591
38965W        W98226  16.567  44.777   2.808
38966W        W98227  29.984   8.848   4.331
38967W        W98228   2.228   2.428  12.907
38968W        W98229  25.585  37.855   1.399
38969W        W98230  43.863  22.746  11.875
38970W        W98231  35.994  40.494   4.353
38971W        W98232  16.314  20.064   0.456
38972W        W98233  21.635  21.115  13.526
38973W        W98234   5.806   1.795   2.290
38974W        W98235  42.906  32.418  12.862
38975W        W98236  43.870  34.919   0.413
38976W        W98237   2.857  32.609   2.894
38977W        W98238  11.652  14.118   2.207
38978W        W98239  10.194  32.126   4.185
38979W        W98240   4.263  17.570   1.788
38980W        W98241  30.503  13.746   2.827
38981W        W98242   6.680   3.250   3.347
38982W        W98243   5.333   9.292  11.122
38983W        W98244  21.617  36.370  10.604
38984W        W98245   1.442  29.527  11.463
38985W        W98246  28.460  38.424   2.392
38986W        W98247  36.349  38.540  14.902
38987W        W98248  22.166  36.459   1.720
38988W        W98249  17.658  43.510  14.473
38989W        W98250  39.927  13.237  10.942
38990W        W98251  23.647  40.005   3.827
38991W        W98252  20.702  39.546  10.626
38992W        W98253  44.785  12.358  11.062
38993W        W98254  35.366   6.795   2.279
38994W        W98255  26.512  29.540   2.293
38995W        W98256  34.569  29.929   3.830
38996W        W98257  34.120  27.024   1.772
38997W        W98258  30.486  37.575  14.313
38998W        W98259  21.085   4.293  11.860
38999W        W98260   9.354   5.928   2.824
39000W        W98261  35.596  19.251   0.804
39001W        W98262  27.036   2.953  11.124
39002W        W98263  21.621   5.730   2.816
39003W        W98264  35.104   0.258  12.937
39004W        W98265   0.902  15.725   1.263
39005W        W98266   2.910  41.376   3.252
39006W        W98267  32.509   1.397   3.850
39007W        W98268  24.489  37.069  13.951
39008W        W98269  35.928  41.805  12.972
39009W        W98270   8.264  38.494   0.751
39010W        W98271  10.690  11.165  12.034
39011W        W98272  14.738  25.144   5.236
39012W        W98273  16.627  44.364   3.732
39013W        W98274  27.546  38.889  10.449
39014W        W98275  35.575  14.219  10.468
39015W        W98276  10.838  22.021   4.241
39016W        W98277  21.634  24.998  13.890
39017W        W98278   4.425   6.679  13.354
39018W        W98279  15.675  36.900   4.298
39019W        W98280  11.837  39.451  11.394
39020W        W98281  10.774  39.940  13.415
39021W        W98282  27.608  33.001   1.726
39022W        W98283  25.045  24.034   0.430
39023W        W98284  16.632  44.400   4.174
39024W        W98285  33.979  11.852  14.384
39025W        W98286  17.707  22.591   9.981
39026W        W98287  21.195   4.445   1.729
39027W        W98288  18.554  12.666   2.193
39028W        W98289  35.564  32.549   0.876
39029W        W98290  41.330   6.365   3.797
39030W        W98291   2.363  11.235   3.770
39031W        W98292  28.555  20.599   0.899
39032W        W98293  36.427  15.084   2.696
39033W        W98294  38.475  20.743   4.295
39034W        W98295  39.850  26.998  14.461
39035W        W98296  21.757  34.959  10.561
39036W        W98297  34.533   9.746  12.014
39037W        W98298  10.639  11.840   0.936
39038W        W98299  16.666  35.536  14.410
39039W        W98300   8.337  21.210   3.230
39040W        W98301  40.909  13.190   1.823
39041W        W98302  37.057   0.369   3.782
39042W        W98303  34.502  11.736  14.350
39043W        W98304  37.473  43.295   4.245
39044W        W98305   7.230  41.333  12.415
39045W        W98306   4.777  32.432   0.351
39046W        W98307   0.904  37.839   0.762
39047W        W98308  13.107  24.488  11.550
39048W        W98309  37.860   9.307  14.902
39049W        W98310  13.776  20.100  12.495
39050W        W98311  22.632   9.858  11.411
39051W        W98312  44.953  29.655   0.778
39052W        W98313   7.690  32.471  12.567
39053W        W98314  42.298  40.342  10.495
39054W        W98315   2.741  25.965  12.403
39055W        W98316  27.534   8.889  11.902
39056W        W98317  38.036  38.413   4.213
39057W        W98318  13.817  41.916   0.947
39058W        W98319   2.929  40.952   1.909
39059W        W98320  15.643  41.043  12.986
39060W        W98321  28.970  40.036  14.945
39061W        W98322  30.566  11.189  12.006
39062W        W98323  25.028  14.662   3.226
39063W        W98324  41.508  36.580  14.842
39064W        W98325  17.575  29.034   3.286
39065W        W98326   8.267  14.634  14.015
39066W        W98327  36.500   6.421   0.963
39067W        W98328   3.747  15.297   0.396
39068W        W98329  36.395  33.954   0.802
39069W        W98330  24.533  28.603  14.994
39070W        W98331  33.030  21.597  13.541
39071W        W98332  12.633   1.766  13.818
39072W        W98333  43.512  26.681   4.616
39073W        W98334   0.403  40.871   2.406
39074W        W98335  21.552  21.527   3.291
39075W        W98336  34.090  40.313  14.026
39076W        W98337  10.822  33.078   0.951
39077W        W98338  20.230  29.609   2.895
39078W        W98339  15.326  37.961  11.887
39079W        W98340   2.273  44.004  10.623
39080W        W98341  38.422  39.537   2.699
39081W        W98342  38.376  42.920   4.348
39082W        W98343   8.863  27.179  14.957
39083W        W98344  35.470   6.781   3.243
39084W        W98345  17.117  36.368  13.953
39085W        W98346  14.322  33.092   4.753
39086W        W98347  40.988  26.965  10.604
39087W        W98348  34.560   9.817  14.029
39088W        W98349  27.011  18.267  13.912
39089W        W98350  14.261  20.626   3.660
39090W        W98351  31.461  12.195   0.381
39091W        W98352  43.458  17.193   2.778
39092W        W98353  39.474  14.234  13.343
39093W        W98354   6.287  44.312   2.385
39094W        W98355  34.020  41.460   0.353
39095W        W98356  43.841   0.748   4.826
39096W        W98357  13.744  35.858   0.881
39097W        W98358  44.331   4.855   2.850
39098W        W98359  39.927  43.412  12.459
39099W        W98360  29.030  35.540  13.490
39100W        W98361   5.842  44.498   1.699
39101W        W98362  16.183  26.572   2.301
39102W        W98363  20.092  17.243  12.852
39103W        W98364  19.547  35.531   4.276
39104W        W98365   8.780  39.057   5.179
39105W        W98366  38.913  44.844   3.349
39106W        W98367  18.596  27.015  11.483
39107W        W98368  20.043  29.639   5.090
39108W        W98369  41.030  19.154  12.370
39109W        W98370  20.529  24.067   4.639
39110W        W98371  25.112  35.566  12.466
39111W        W98372  35.359   5.323   3.238
39112W        W98373  36.866  29.071   4.152
39113W        W98374   9.163  39.831   0.949
39114W        W98375   4.867  44.465  13.907
39115W        W98376  38.407  37.069  10.899
39116W        W98377  43.419  29.585   0.332
39117W        W98378  14.805  21.033   4.761
39118W        W98379  25.164   0.402   4.321
39119W        W98380   5.698  15.671   0.242
39120W        W98381   1.784  19.712   3.196
39121W        W98382   2.798  13.256  14.020
39122W        W98383  37.490  40.481  11.437
39123W        W98384  43.777  11.265   0.897
39124W        W98385   4.775  39.903  12.379
39125W        W98386  24.159  14.777   4.129
39126W        W98387  24.208   2.380   2.845
39127W        W98388  42.296   6.304  13.057
39128W        W98389   7.764  11.324   4.783
39129W        W98390  37.031  27.093   4.632
39130W        W98391  13.662   3.875  10.927
39131W        W98392  34.614  33.120  14.838
39132W        W98393   7.697  30.466   4.307
39133W        W98394   1.470   3.920  11.551
39134W        W98395  24.635   1.859  10.099
39135W        W98396  28.973  37.890   3.296
39136W        W98397  20.234   9.669  10.638
39137W        W98398   0.951  43.926   3.786
39138W        W98399   2.398  11.647   3.748
39139W        W98400  18.286  25.125   2.673
39140W        W98401  41.807  12.171  14.829
39141W        W98402  25.708  17.161  12.063
39142W        W98403  22.612   0.470   2.351
39143W        W98404  37.021  32.595  11.055
39144W        W98405  20.211  30.592  14.029
39145W        W98406  40.855  22.238   0.814
39146W        W98407  35.883   6.900  14.503
39147W        W98408  30.087  30.138   0.846
39148W        W98409  21.666  38.486   4.135
39149W        W98410  38.016  44.350   4.318
39150W        W98411  33.497  10.813   1.852
39151W        W98412  27.023  38.947  13.846
39152W        W98413  38.069  10.869  14.415
39153W        W98414  15.671  14.760  13.361
39154W        W98415  41.040  21.176   2.709
39155W        W98416   8.668  32.901   4.135
39156W        W98417  31.412  35.568  14.432
39157W        W98418  19.280  38.998  10.425
39158W        W98419  27.964  16.128   3.149
39159W        W98420  31.984  35.505  12.512
39160W        W98421  36.939   9.194  11.414
39161W        W98422   4.266  33.992   3.258
39162W        W98423  30.618  21.150   4.607
39163W        W98424   9.209  41.484   4.141
39164W        W98425  17.294  34.054   1.392
39165W        W98426   8.389   5.790   2.189
39166W        W98427  39.838   1.969  12.419
39167W        W98428  19.046  28.082  12.073
39168W        W98429  32.021   8.343   1.429
39169W        W98430  23.604  42.413  11.570
39170W        W98431   7.790   9.701  13.462
39171W        W98432  21.565  42.435   1.290
39172W        W98433  16.180  20.125  13.352
39173W        W98434  44.430   2.917  10.428
39174W        W98435  23.239  44.782  11.386
39175W        W98436  10.796  35.958  12.568
39176W        W98437  18.571  13.763  10.975
39177W        W98438  44.397  12.826  12.457
39178W        W98439  41.813   5.427  13.354
39179W        W98440  30.492  24.207   0.328
39180W        W98441  24.143  22.224  12.941
39181W        W98442  29.017  43.942   0.894
39182W        W98443  35.945  27.050   1.892
39183W        W98444  17.240  24.535  13.018
39184W        W98445  18.568   6.364  13.008
39185W        W98446  36.523  22.623   3.363
39186W        W98447  30.636  38.862  11.094
39187W        W98448  25.664  39.049   4.722
39188W        W98449  14.591   1.309  14.966
39189W        W98450   0.958  17.731   2.686
39190W        W98451  22.230  22.542   3.367
39191W        W98452  42.838  13.345   0.887
39192W        W98453  44.900  34.955  13.449
39193W        W98454  36.942  25.091   1.358
39194W        W98455  10.835  37.082  12.385
39195W        W98456  31.130   7.840   1.801
39196W        W98457  38.553  17.064   0.371
39197W        W98458   3.953   5.859  11.010
39198W        W98459  25.692   6.804   0.760
39199W        W98460  25.650  31.503  12.917
39200W        W98461  44.843   7.772   4.750
39201W        W98462  18.777  19.147  13.932
39202W        W98463  10.795  19.176   1.879
39203W        W98464  35.496  31.448   0.742
39204W        W98465  44.884  16.674  11.372
39205W        W98466  29.057  23.117   2.855
39206W        W98467   3.454  25.190  14.979
39207W        W98468  34.441  12.664  10.621
39208W        W98469   7.171  26.980  11.895
39209W        W98470  23.089  25.667   1.837
39210W        W98471  44.342  33.918  13.365
39211W        W98472  13.844   5.785  10.035
39212W        W98473  35.570  32.923  11.947
39213W        W98474  36.981  30.463   5.111
39214W        W98475  43.286  22.516  11.449
39215W        W98476  38.042  14.243  12.964
39216W        W98477   8.733   7.402   0.857
39217W        W98478  44.792  40.530   1.826
39218W        W98479  26.635  39.420  12.866
39219W        W98480   8.747  37.370   1.446
39220W        W98481  39.051  32.576   4.825
39221W        W98482  42.281  13.809   0.447
39222W        W98483  23.010  44.895   3.307
39223W        W98484   1.844  12.249   4.150
39224W        W98485   2.316   6.708  10.968
39225W        W98486   7.766   3.756  10.128
39226W        W98487  38.945  29.491   0.790
39227W        W98488  11.130  27.160  13.005
39228W        W98489  22.186  23.656   3.234
39229W        W98490  10.819  43.009   4.300
39230W        W98491   2.270  44.002   4.192
39231W        W98492  34.978  42.314   0.437
39232W        W98493  25.990   0.917   0.413
39233W        W98494   6.397  36.050  12.849
39234W        W98495  11.243  14.688   4.243
39235W        W98496  17.740  32.131   2.419
39236W        W98497   6.378  11.784  11.502
39237W        W98498   7.779   3.849   2.362
39238W        W98499   7.702   6.905   2.198
39239W        W98500  33.922  33.625   0.859
39240W        W98501  37.037  28.945   1.392
39241W        W98502  26.664  25.020   4.233
39242W        W98503  18.634   0.812  13.380
39243W        W98504  22.070  24.511  12.060
39244W        W98505   1.763  37.065  14.331
39245W        W98506   9.216   5.280  14.428
39246W        W98507  22.124   1.807  12.069
39247W        W98508   4.717  44.274   5.216
39248W        W98509   4.759  39.488  14.950
39249W        W98510  20.644   6.812   2.290
39250W        W98511  42.909  41.872  10.538
39251W        W98512  15.083  35.889  12.995
39252W        W98513  39.842  12.824  12.941
39253W        W98514  10.355  41.497   2.708
39254W        W98515  37.465  25.038  12.866
39255W        W98516  35.095  21.105  11.867
39256W        W98517  15.730  35.951  12.074
39257W        W98518  16.313  44.836  14.377
39258W        W98519  38.452  28.492  11.935
39259W        W98520   6.267  30.605  14.845
39260W        W98521   5.324  30.924  13.543
39261W        W98522  25.498  19.763  11.876
39262W        W98523  23.104  27.526   4.612
39263W        W98524   3.408  37.055  14.763
39264W        W98525  19.630  10.361  14.401
39265W        W98526  11.143  23.581   1.694
39266W        W98527  44.463  30.989   5.297
39267W        W98528  39.017  17.137  12.847
39268W        W98529  28.547  18.219  12.460
39269W        W98530  19.168  15.323  10.984
39270W        W98531  17.302  14.630   0.959
39271W        W98532  29.530  30.556   0.779
39272W        W98533   5.335  31.935   1.364
39273W        W98534  41.032  11.151   1.256
39274W        W98535  33.055  15.800   2.204
39275W        W98536  27.548  12.201  13.902
39276W        W98537  10.185  23.013   3.306
39277W        W98538  11.786  35.066  13.879
39278W        W98539  37.336  16.582  11.493
39279W        W98540  44.451  17.166   1.443
39280W        W98541  39.989  18.741   2.773
39281W        W98542  44.004  13.143   0.412
39282W        W98543  16.229  25.506   1.365
39283W        W98544  38.956   5.416   3.823
39284W        W98545   1.916  18.223   0.417
39285W        W98546  31.970  36.417  14.410
39286W        W98547   5.770  11.247  12.515
39287W        W98548  31.565   0.911   4.302
39288W        W98549   6.370   0.919  14.314
39289W        W98550  35.552  13.729   2.286
39290W        W98551  10.155  24.188   0.943
39291W        W98552   8.767  17.260   2.316
39292W        W98553  42.846  42.894  12.855
39293W        W98554  23.568  23.725  12.433
39294W        W98555  37.837  15.303  13.902
39295W        W98556  27.136  32.971  13.362
39296W        W98557  24.598  40.881   0.890
39297W        W98558  21.575   5.276  14.344
39298W        W98559  20.617  33.970  11.897
39299W        W98560  29.098  27.099   1.311
39300W        W98561  29.087  23.185   1.861
39301W        W98562  27.942  38.934   5.294
39302W        W98563  13.149  29.425  13.024
39303W        W98564  34.904  31.095  11.435
39304W        W98565  40.989  19.674   1.280
39305W        W98566  30.164  21.153   4.727
39306W        W98567  40.823   9.669  12.505
39307W        W98568  22.054  36.432  14.000
39308W        W98569  12.693  27.682  13.876
39309W        W98570  23.183  40.877  14.989
39310W        W98571  30.118  22.512  10.622
39311W        W98572  44.888   6.426   4.656
39312W        W98573  38.466   1.789  14.954
39313W        W98574  26.000  25.084   1.854
39314W        W98575  14.135  39.809  11.888
39315W        W98576   5.861  14.145   2.863
39316W        W98577   4.234  32.396  14.292
39317W        W98578  22.224  23.538  11.079
39318W        W98579  15.670  26.959   3.717
39319W        W98580   0.378  40.416  12.354
39320W        W98581  12.786  33.553   3.815
39321W        W98582   5.730   5.891  12.060
39322W        W98583   0.793  39.484   1.842
39323W        W98584  22.546  27.018   1.917
39324W        W98585  21.076  38.365  10.044
39325W        W98586  13.245  32.590  14.409
39326W        W98587  21.714  39.389  10.949
39327W        W98588  28.938  35.528   2.774
39328W        W98589   7.754  10.191   2.348
39329W        W98590  24.553  31.590  14.331
39330W        W98591  35.984  25.622   0.910
39331W        W98592  36.974  14.241   3.857
39332W        W98593  30.436  18.572   2.782
39333W        W98594  18.204  18.583  13.525
39334W        W98595  36.537  24.578   0.930
39335W        W98596  11.867  31.935  13.469
39336W        W98597  23.606  31.933  11.511
39337W        W98598  20.133  23.128   2.868
39338W        W98599   1.891  14.695   2.735
39339W        W98600  16.310   6.313  14.285
39340W        W98601  38.987  19.703   4.245
39341W        W98602  15.605  44.422  10.941
39342W        W98603   0.978  38.929   1.695
39343W        W98604   7.735   8.842  14.999
39344W        W98605  42.383   8.742   5.195
39345W        W98606  26.172  14.699  12.019
39346W        W98607  44.939   8.191  14.915
39347W        W98608  13.173  23.701   0.478
39348W        W98609  33.032  21.628  11.587
39349W        W98610  33.532  43.962  11.526
39350W        W98611  40.047  12.239  13.923
39351W        W98612  19.689   9.278   4.218
39352W        W98613   7.262   4.791   2.289
39353W        W98614  12.344  22.691  12.546
39354W        W98615  10.335   0.955  12.837
39355W        W98616   5.359   0.372  10.549
39356W        W98617  31.470  11.673   2.262
39357W        W98618   1.322   5.794   2.672
39358W        W98619  13.664  43.777  11.997
39359W        W98620   9.855  23.648   2.735
39360W        W98621  42.787  32.067   4.803
39361W        W98622  24.523   7.862  13.870
39362W        W98623  42.811  32.432   4.676
39363W        W98624  33.491  43.329   2.190
39364W        W98625  28.104  35.061  14.943
39365W        W98626  20.601  25.689  14.962
39366W        W98627  16.317  43.791  13.949
39367W        W98628  37.939   3.925  13.060
39368W        W98629   9.831  15.218   1.790
39369W        W98630  26.107  10.856   1.422
39370W        W98631   5.861  33.434   0.770
39371W        W98632  15.121  21.078  10.514
39372W        W98633   7.883  17.604   1.898
39373W        W98634  19.046  28.544  13.956
39374W        W98635  38.911  42.504   0.312
39375W        W98636  43.850  44.814  14.352
39376W        W98637  31.516  40.376   4.657
39377W        W98638  29.581  26.600  10.941
39378W        W98639  42.955  16.665   2.862
39379W        W98640   5.884   2.362  11.549
39380W        W98641  11.805  18.129  14.031
39381W        W98642   7.187  15.785   0.264
39382W        W98643  11.737  24.192  11.873
39383W        W98644  10.860   4.298   4.233
39384W        W98645  38.052  26.498   0.482
39385W        W98646  23.984  13.801   2.730
39386W        W98647  16.714  34.461  13.354
39387W        W98648  23.563   1.330  13.057
39388W        W98649   7.344   1.777   5.736
39389W        W98650  11.222  28.101   3.280
39390W        W98651  35.913  34.966  13.351
39391W        W98652  12.780  27.595  11.068
39392W        W98653  12.198  17.112   3.824
39393W        W98654   5.237  34.374   0.344
39394W        W98655   1.845  12.697  14.849
39395W        W98656  10.724   4.845   0.350
39396W        W98657   1.314  31.409   1.890
39397W        W98658   9.668  17.745  14.330
39398W        W98659  32.633  12.612  13.009
39399W        W98660  31.506   5.776  14.310
39400W        W98661  25.494  19.263  10.574
39401W        W98662  26.065  14.635  10.425
39402W        W98663   8.321  14.223   3.862
39403W        W98664   9.321  27.476   2.273
39404W        W98665  10.839  37.962   0.472
39405W        W98666  44.833   7.251  12.969
39406W        W98667  20.224   1.348  12.504
39407W        W98668   7.359  43.885   4.349
39408W        W98669  32.461  36.451   4.723
39409W        W98670  34.460   7.250   5.143
39410W        W98671   7.666  30.449   3.664
39411W        W98672  36.502   4.420   0.740
39412W        W98673  12.787  35.361  12.433
39413W        W98674  32.464  29.658  13.862
39414W        W98675  21.247  44.957  11.962
39415W        W98676  21.182  12.820   3.379
39416W        W98677  27.600  30.544  11.856
39417W        W98678  26.125   7.708   3.771
39418W        W98679  23.177   6.248   4.723
39419W        W98680  31.000  24.054  12.845
39420W        W98681  31.506   1.329  13.314
39421W        W98682   0.762  34.400  12.039
39422W        W98683  16.178  16.306  14.817
39423W        W98684  32.592  34.955  14.861
39424W        W98685   0.354   8.300   2.808
39425W        W98686  43.968  44.905   0.765
39426W        W98687   8.225   9.767  14.932
39427W        W98688  21.717  16.740   1.433
39428W        W98689  38.403   7.897  10.936
39429W        W98690  16.139  43.989   0.815
39430W        W98691  35.902  12.251  10.909
39431W        W98692  39.367   7.802   3.851
39432W        W98693  44.483   8.214   1.850
39433W        W98694  22.592   7.293  11.460
39434W        W98695  19.583  22.652  10.498
39435W        W98696  28.611   4.364   4.241
39436W        W98697  14.782  11.261   3.153
39437W        W98698   0.943  24.082  10.997
39438W        W98699  23.725  20.043  11.029
39439W        W98700  16.316  25.068   0.284
39440W        W98701  25.983  11.774  14.829
39441W        W98702  17.578  33.943  11.935
39442W        W98703  21.084  27.127   4.263
39443W        W98704  41.887  21.213  14.789
39444W        W98705  22.028   7.288  11.017
39445W        W98706  23.985  18.591  13.433
39446W        W98707  11.771   5.700   4.288
39447W        W98708  21.643  29.165  12.547
39448W        W98709  34.876  12.241  10.641
39449W        W98710  43.927  14.284   3.255
39450W        W98711  35.387  44.293  11.092
39451W        W98712   0.934  14.799   2.258
39452W        W98713   6.374  18.698  10.414
39453W        W98714  22.611  35.488   4.672
39454W        W98715   3.812  30.567   1.926
39455W        W98716  38.517   4.789  13.482
39456W        W98717   6.919  39.393   1.846
39457W        W98718  15.647   8.674  13.990
39458W        W98719  30.139   2.407  12.975
39459W        W98720  41.345  30.512  11.404
39460W        W98721   9.267  24.122  14.891
39461W        W98722  44.477  40.866  13.026
39462W        W98723  38.898  32.464  12.003
39463W        W98724  19.111  34.540  13.938
39464W        W98725  27.595  16.813   2.206
39465W        W98726  23.040  15.606  12.534
39466W        W98727  18.188  24.224  12.554
39467W        W98728  10.840  27.065  12.394
39468W        W98729   8.286   0.270   3.304
39469W        W98730  11.197  32.487  13.824
39470W        W98731  28.989  37.555   3.342
39471W        W98732   5.745  19.051  13.546
39472W        W98733  36.418  39.333  14.438
39473W        W98734   5.807   9.161  10.558
39474W        W98735  33.932  40.508   0.379
39475W        W98736  42.885  15.253   0.350
39476W        W98737  39.426  43.828   3.767
39477W        W98738  32.992   2.779   1.237
39478W        W98739  30.520  41.338  13.047
39479W        W98740  12.727  36.087   4.764
39480W        W98741   2.939  12.798  14.934
39481W        W98742  36.551  41.456  12.959
39482W        W98743  15.712  23.174   4.270
39483W        W98744   1.253   6.409   3.732
39484W        W98745  19.736  29.167   5.100
39485W        W98746  37.502  23.591  11.429
39486W        W98747   1.261  43.454  13.389
39487W        W98748   3.448  25.547   1.309
39488W        W98749  42.321  31.915  12.521
39489W        W98750  18.130  36.408   3.818
39490W        W98751  29.113   0.398  14.847
39491W        W98752  17.064  10.176   0.881
39492W        W98753   8.368  41.424  14.338
39493W        W98754  44.451  34.447  11.095
39494W        W98755  14.238  27.576   0.756
39495W        W98756  22.601  14.178   0.864
39496W        W98757  13.791  15.086   0.367
39497W        W98758  20.109  43.882   1.696
39498W        W98759   1.475  41.482  12.465
39499W        W98760   9.308  11.669  14.279
39500W        W98761  21.049  28.056  11.076
39501W        W98762  42.485   2.768   3.634
39502W        W98763   8.314  38.833   3.275
39503W        W98764  34.460  34.442   1.840
39504W        W98765  38.916  18.206   5.247
39505W        W98766   5.315  22.697  14.798
39506W        W98767  15.221  23.504  12.919
39507W        W98768  29.112   6.336  12.469
39508W        W98769  25.171  17.727  14.495
39509W        W98770   3.406  17.694  11.546
39510W        W98771  10.161  14.321  11.012
39511W        W98772  27.138  31.049  10.598
39512W        W98773  26.661  37.466   3.158
39513W        W98774  12.730  28.573  13.318
39514W        W98775  38.512  32.037  10.988
39515W        W98776  44.995  27.628   4.353
39516W        W98777  28.648  37.834  13.961
39517W        W98778  36.371  27.500  12.558
39518W        W98779  11.697  33.086  14.830
39519W        W98780  17.249  39.873  13.041
39520W        W98781  10.146  29.074  13.310
39521W        W98782  43.343  17.199  12.076
39522W        W98783   6.267  24.664   3.857
39523W        W98784  16.773  23.213  11.869
39524W        W98785   9.875   6.789  13.878
39525W        W98786  39.988   1.848   4.725
39526W        W98787  42.356  38.950   3.755
39527W        W98788   1.301  32.586  13.441
39528W        W98789  28.168  16.073   1.820
39529W        W98790  38.540  22.248  13.803
39530W        W98791  10.166  19.222   0.754
39531W        W98792  15.234   8.659  14.285
39532W        W98793  39.380  14.794  12.824
39533W        W98794  38.377  25.564   0.736
39534W        W98795  10.326  14.638   4.791
39535W        W98796  14.267  11.741  10.477
39536W        W98797  33.904  11.267   4.697
39537W        W98798  36.415   0.873   2.738
39538W        W98799   7.288  33.934  10.894
39539W        W98800   8.765  20.088  14.505
39540W        W98801  25.147  11.146   4.190
39541W        W98802  27.538  41.831   2.224
39542W        W98803   2.772  25.203   1.243
39543W        W98804  14.168  10.216  14.467
39544W        W98805  35.440  31.021   2.861
39545W        W98806  30.581  28.528   0.949
39546W        W98807  26.492  44.320  14.295
39547W        W98808  41.939  24.623  14.816
39548W        W98809  18.068   6.428  13.317
39549W        W98810  43.356  34.500   1.377
39550W        W98811  38.510   9.347  13.835
39551W        W98812  23.211   8.805   0.904
39552W        W98813   1.322  18.682  11.045
39553W        W98814  38.053  40.334   2.178
39554W        W98815  13.336  44.904  13.818
39555W        W98816   0.299  28.085   0.891
39556W        W98817  30.487  30.420  14.915
39557W        W98818  40.874   8.667   0.925
39558W        W98819  18.098  12.350   4.691
39559W        W98820   8.789  33.612   4.792
39560W        W98821  20.753  24.147  13.936
39561W        W98822  37.564  12.680  11.526
39562W        W98823  26.968  32.960   5.182
39563W        W98824  40.889  37.875   0.283
39564W        W98825  27.031   5.932   3.788
39565W        W98826  13.704  34.534   1.712
39566W        W98827  34.077  17.739  12.024
39567W        W98828   8.203   5.830  10.472
39568W        W98829  28.167  22.008   2.288
39569W        W98830  38.434   5.231   3.743
39570W        W98831  11.790   7.249  11.445
39571W        W98832  30.002  17.608  10.505
39572W        W98833  30.909  19.224   3.283
39573W        W98834   6.199  11.670  12.564
39574W        W98835  12.157   2.726   3.156
39575W        W98836  17.625  18.751   9.638
39576W        W98837  19.733  17.272  14.465
39577W        W98838  23.517  41.040  13.937
39578W        W98839   4.945  33.887   1.417
39579W        W98840  27.570  13.343  14.289
39580W        W98841  36.410  36.872   2.870
39581W        W98842  39.342  35.563   2.324
39582W        W98843  26.154   2.368  12.512
39583W        W98844  19.042  36.516   2.411
39584W        W98845  14.211  24.127   4.321
39585W        W98846   0.870   5.296  11.443
39586W        W98847  31.446  33.599   3.196
39587W        W98848   8.784  15.134   2.849
39588W        W98849  13.663   3.885   4.695
39589W        W98850  34.093  31.540  14.417
39590W        W98851  31.913  40.937   1.234
39591W        W98852  11.694  36.450   2.762
39592W        W98853   3.452  36.986  14.015
39593W        W98854  11.216  37.054  11.120
39594W        W98855  19.678   4.838   2.230
39595W        W98856  37.924   6.318  10.992
39596W        W98857   0.835  21.677  11.916
39597W        W98858  43.841  21.031   1.281
39598W        W98859  11.652   5.851   2.392
39599W        W98860  41.388  37.491   5.613
39600W        W98861   4.898  11.346   3.844
39601W        W98862  29.493  16.187  13.831
39602W        W98863  33.495  30.032   3.328
39603W        W98864   0.386   2.373   3.836
39604W        W98865   3.226  27.082   3.752
39605W        W98866  28.482  32.950  12.921
39606W        W98867  37.439  18.714  11.005
39607W        W98868  35.447  37.980   1.373
39608W        W98869  19.216  14.250   3.322
39609W        W98870  20.711   9.390   1.234
39610W        W98871  35.900  40.333  13.019
39611W        W98872  12.623  10.280   2.691
39612W        W98873  43.977  17.762  14.849
39613W        W98874   4.258  14.793  10.607
39614W        W98875  23.203  34.068   9.513
39615W        W98876  13.783  13.780   0.350
39616W        W98877  24.724  14.330   0.406
39617W        W98878  15.807  19.772   2.677
39618W        W98879   2.810   6.794   0.956
39619W        W98880   5.817  16.091   3.706
39620W        W98881  15.102  36.959  13.807
39621W        W98882   3.947   9.176   4.167
39622W        W98883  26.086   8.698   4.315
39623W        W98884  40.984  33.602   1.275
39624W        W98885  39.360  42.324  13.870
39625W        W98886  44.986   3.264   4.754
39626W        W98887   7.705  44.316   0.432
39627W        W98888  25.495  43.498   2.282
39628W        W98889  11.857  11.181  12.893
39629W        W98890   5.231   9.274   0.929
39630W        W98891  43.317   7.733   0.928
39631W        W98892  14.339  40.476   3.648
39632W        W98893   0.386  26.047   0.279
39633W        W98894   3.421  38.434  12.965
39634W        W98895  39.834  37.869   3.707
39635W        W98896   8.320  17.730   4.668
39636W        W98897   5.748   3.446   3.780
39637W        W98898   6.266  30.972   1.724
39638W        W98899  36.434  41.041  12.993
39639W        W98900   6.322  19.740   3.287
39640W        W98901  29.113  34.948  11.873
39641W        W98902  20.651  42.458  11.110
39642W        W98903  30.561   7.257   0.895
39643W        W98904   2.945  12.173  12.500
39644W        W98905   3.947   0.952   9.974
39645W        W98906   2.278  20.268  11.080
39646W        W98907  35.419   1.392  12.564
39647W        W98908  42.938  14.616  11.018
39648W        W98909  37.997  15.159  14.491
39649W        W98910  20.033  15.650  10.437
39650W        W98911  33.946   5.429  12.096
39651W        W98912  19.693  19.573  14.300
39652W        W98913  11.351   4.844  14.992
39653W        W98914  36.374  36.907  14.815
39654W        W98915  39.061  26.997  12.420
39655W        W98916  12.639   9.270   2.714
39656W        W98917  13.230  27.513  10.062
39657W        W98918  32.007  19.608   3.320
39658W        W98919  36.916  23.680  12.347
39659W        W98920  18.566   4.330   2.741
39660W        W98921  26.171  12.357  12.524
39661W        W98922  23.101  19.720  14.813
39662W        W98923  37.902  31.985  10.960
39663W        W98924  21.569  32.107  14.871
39664W        W98925  13.179   9.759   1.711
39665W        W98926  16.731  14.618   3.798
39666W        W98927  33.544  14.175  12.938
39667W        W98928  30.475  39.540   2.353
39668W        W98929   1.248  41.852  11.408
39669W        W98930   3.775  12.656   1.361
39670W        W98931   2.749  15.303   1.303
39671W        W98932   2.794  15.583  14.909
39672W        W98933  31.045  40.329  13.412
39673W        W98934  35.988  19.692   0.261
39674W        W98935  13.293  20.693   1.850
39675W        W98936  21.256  29.061  11.506
39676W        W98937  21.087  14.140   2.671
39677W        W98938  17.118  17.770   0.265
39678W        W98939  26.056  43.336  11.869
39679W        W98940  31.113  28.143  13.415
39680W        W98941  15.323  31.936  12.566
39681W        W98942   6.875  43.373  12.464
39682W        W98943  22.685  35.004  13.493
39683W        W98944  37.867  28.673   4.302
39684W        W98945  21.133   5.832   1.884
39685W        W98946  22.647  10.749  10.592
39686W        W98947   1.461  29.141   1.240
39687W        W98948  22.160  22.733  13.889
39688W        W98949  27.510  36.092   0.851
39689W        W98950   1.413  34.034   4.699
39690W        W98951   4.222  44.478  12.033
39691W        W98952  21.225  14.656   4.642
39692W        W98953   2.749  44.395   2.777
39693W        W98954  28.067  30.653  13.878
39694W        W98955  10.336  17.635   0.838
39695W        W98956  38.439  26.018   2.338
39696W        W98957  42.856  14.268   0.401
39697W        W98958  36.400  13.249   4.805
39698W        W98959  15.590  38.848   1.279
39699W        W98960  35.405  39.389   0.925
39700W        W98961   6.918   9.807  14.281
39701W        W98962  29.531  15.274   1.901
39702W        W98963  22.733  34.607   9.986
39703W        W98964  26.961   8.812  14.881
39704W        W98965  36.585  27.623   2.786
39705W        W98966  15.619  18.147  14.293
39706W        W98967  38.330  16.603  11.982
39707W        W98968   7.907  16.808  11.040
39708W        W98969  21.661  17.639   1.238
39709W        W98970  23.185  20.535   2.270
39710W        W98971  41.460   1.880  14.798
39711W        W98972  26.059   0.987  13.014
39712W        W98973  40.545  21.132   1.400
39713W        W98974  25.128   5.347   3.711
39714W        W98975  34.470  22.035   1.722
39715W        W98976  41.433   1.336   2.757
39716W        W98977  21.024  27.011   2.184
39717W        W98978   3.424  39.462   4.779
39718W        W98979  13.108  20.648   3.379
39719W        W98980  17.748  24.977   2.676
39720W        W98981  33.982   2.940   2.740
39721W        W98982  12.852  14.608  13.342
39722W        W98983   8.245   6.350  14.292
39723W        W98984  11.365  43.359  13.514
39724W        W98985  11.776  14.226  10.425
39725W        W98986  29.095  15.110   3.283
39726W        W98987  22.606  39.419   1.925
39727W        W98988   3.422  44.485  11.906
39728W        W98989  37.560  38.038   2.248
39729W        W98990   7.385  31.972   1.338
39730W        W98991  31.074   9.166  12.071
39731W        W98992  30.964  30.458  10.569
39732W        W98993  33.536  14.762   1.279
39733W        W98994   7.793   7.668  14.865
39734W        W98995   7.209  17.625   1.329
39735W        W98996   6.325  39.334   1.212
39736W        W98997   7.197   7.377   3.850
39737W        W98998  42.001  15.800   9.455
39738W        W98999  25.040  19.644   1.759
39739W        W99000  28.558  13.183  12.834
39740W        W99001  25.654  17.159   1.918
39741W        W99002  24.663  28.472   2.819
39742W        W99003  40.322  24.557  12.904
39743W        W99004  20.697  23.089   9.457
39744W        W99005   6.355  22.077   4.790
39745W        W99006  15.239  27.131   0.865
39746W        W99007  31.500  24.135  13.384
39747W        W99008  25.035  29.451  13.375
39748W        W99009  41.991  41.835   3.685
39749W        W99010  14.740  26.544  11.090
39750W        W99011   1.880  32.481  13.965
39751W        W99012  25.497   1.929   1.852
39752W        W99013  21.544   1.277  14.493
39753W        W99014  37.459  32.431  10.535
39754W        W99015   4.312  32.612  12.848
39755W        W99016  23.620   6.705   1.709
39756W        W99017  30.481  33.439   1.864
39757W        W99018  33.054   5.822   1.301
39758W        W99019  19.671   9.355   2.676
39759W        W99020  15.709  10.383   4.336
39760W        W99021  20.743  37.902  12.358
39761W        W99022  42.347  22.158  11.088
39762W        W99023  41.854  10.186  12.978
39763W        W99024  43.808  36.883  14.970
39764W        W99025  38.396  20.618   2.735
39765W        W99026  25.624  30.546  12.046
39766W        W99027  43.816  24.480   4.733
39767W        W99028  16.580  23.185  13.909
39768W        W99029  12.656  35.100  13.428
39769W        W99030  25.609   3.454  13.429
39770W        W99031  42.450   2.787  14.774
39771W        W99032  17.721   5.284  13.916
39772W        W99033   3.241  44.291  14.887
39773W        W99034   4.790  43.921  10.596
39774W        W99035  11.672  20.682   4.740
39775W        W99036  11.760  17.142  14.382
39776W        W99037  24.699  15.670   2.757
39777W        W99038  37.967  17.153   2.677
39778W        W99039   4.313   0.856  13.329
39779W        W99040  17.617  36.369   0.309
39780W        W99041  13.630  15.651   0.360
39781W        W99042   4.863  33.588   3.812
39782W        W99043  24.108  29.430   5.305
39783W        W99044   2.323  18.719   3.670
39784W        W99045  14.629   6.251  12.339
39785W        W99046  44.290  10.749  12.432
39786W        W99047   2.237  20.564   3.653
39787W        W99048   7.357   4.342   1.246
39788W        W99049  42.966   2.746   3.324
39789W        W99050  27.688  17.668  11.947
39790W        W99051   4.415  37.462  10.912
39791W        W99052  21.112  19.654  12.447
39792W        W99053   3.417  25.194  12.420
39793W        W99054  30.603  12.210   2.391
39794W        W99055  26.630  42.935  12.999
39795W        W99056   1.409   0.938   4.238
39796W        W99057  19.262  19.656   0.825
39797W        W99058  42.802  11.285   2.359
39798W        W99059  41.944   3.742   0.441
39799W        W99060  18.211  26.064   4.232
39800W        W99061  36.996  41.819  12.477
39801W        W99062  23.106   6.787   0.730
39802W        W99063  37.868  20.265   3.378
39803W        W99064  18.634  38.935   1.433
39804W        W99065   3.232  35.412   4.253
39805W        W99066  21.183  34.384  10.557
39806W        W99067  44.417  31.136   4.264
39807W        W99068   1.355   2.296  14.806
39808W        W99069   7.731  26.054  14.902
39809W        W99070   6.325  33.894  12.565
39810W        W99071   7.875   2.277  10.940
39811W        W99072  29.498   5.385   4.735
39812W        W99073   5.380  19.646  10.537
39813W        W99074  18.738  19.134   0.270
39814W        W99075  32.035   2.928  11.569
39815W        W99076   1.761  17.776  11.541
39816W        W99077  38.487  12.266   3.750
39817W        W99078  14.261  37.848  12.425
39818W        W99079  22.025  11.300  14.913
39819W        W99080  21.093  42.452   2.375
39820W        W99081  41.360  32.042  13.392
39821W        W99082  14.631   5.735   2.716
39822W        W99083  28.135  38.425  14.418
39823W        W99084  37.086  44.772  13.455
39824W        W99085  35.045  43.880  14.498
39825W        W99086  27.150  33.109  13.821
39826W        W99087  35.433  44.897   4.254
39827W        W99088   0.804   4.222  11.607
39828W        W99089  20.722  14.303  12.906
39829W        W99090  39.420  32.070   3.719
39830W        W99091  14.178  26.083   0.414
39831W        W99092  36.377  32.602  12.528
39832W        W99093   2.737  20.706  10.962
39833W        W99094  24.684  36.043  11.896
39834W        W99095  21.677   0.779   0.796
39835W        W99096   5.247  12.164   1.412
39836W        W99097  21.532   9.237  14.917
39837W        W99098   3.865   5.707   3.159
39838W        W99099   8.403  23.997   4.637
39839W        W99100  17.660  42.511   1.912
39840W        W99101  10.643  32.621  11.080
39841W        W99102   6.847  26.076  13.825
39842W        W99103   5.213  16.763   1.802
39843W        W99104  32.508   6.218   1.837
39844W        W99105  13.339  31.452  12.491
39845W        W99106  36.423  36.572   0.905
39846W        W99107  25.558  18.196   2.396
39847W        W99108  38.370  36.360   2.695
39848W        W99109  35.936   9.364   2.232
39849W        W99110   7.200  16.253   2.335
39850W        W99111  14.658   2.958  13.916
39851W        W99112  30.633  36.546  10.998
39852W        W99113  39.940  32.470  13.455
39853W        W99114  28.560  43.346   4.764
39854W        W99115   3.421  25.505   0.843
39855W        W99116  11.372  43.979  13.042
39856W        W99117  39.317   5.822  12.884
39857W        W99118   9.664  14.692  12.089
39858W        W99119  37.451   5.780  14.877
39859W        W99120   9.285  34.557   0.335
39860W        W99121  12.302  42.022   1.741
39861W        W99122   4.220  38.863   2.859
39862W        W99123  23.033  35.364  13.975
39863W        W99124  27.089  20.571   3.261
39864W        W99125  43.362  29.962  13.312
39865W        W99126  12.712  16.263  12.869
39866W        W99127   6.304  13.231   3.812
39867W        W99128   8.309   8.203  13.401
39868W        W99129  23.051  28.492  11.052
39869W        W99130  16.264   3.742   2.779
39870W        W99131  39.425  23.730  12.560
39871W        W99132  39.525  15.613  14.862
39872W        W99133  25.572  27.487  12.350
39873W        W99134  27.128  23.548  12.982
39874W        W99135  23.517  14.647   3.170
39875W        W99136  34.458  29.154  11.553
39876W        W99137   9.688  30.529   3.793
39877W        W99138   5.881  19.630   2.217
39878W        W99139   0.788  32.500   4.158
39879W        W99140  28.438  42.457   3.820
39880W        W99141   1.447  21.596  11.029
39881W        W99142  27.002  27.501  12.023
39882W        W99143   1.886  24.051   0.903
39883W        W99144  22.680  40.851  11.007
39884W        W99145   7.878   3.386  13.486
39885W        W99146  19.047  26.524   0.273
39886W        W99147  20.041  33.114   0.266
39887W        W99148  33.395   7.307  13.018
39888W        W99149   8.818   6.187  14.988
39889W        W99150  14.604  37.448   2.393
39890W        W99151   3.252   9.350   1.389
39891W        W99152   3.419  22.535  12.579
39892W        W99153  16.613  33.483   1.793
39893W        W99154  38.342  34.436   3.792
39894W        W99155  21.571   3.720   1.221
39895W        W99156  41.811  31.538   2.864
39896W        W99157  22.135   9.756   1.802
39897W        W99158  15.802  31.022   2.196
39898W        W99159  12.189   6.206  11.123
39899W        W99160  22.078   0.753   1.928
39900W        W99161  15.746   1.252   0.900
39901W        W99162  22.565  25.175   0.387
39902W        W99163   5.249  10.648  13.314
39903W        W99164   1.767  17.096   0.823
39904W        W99165  33.467  41.004  10.947
39905W        W99166   3.366  17.592   1.221
39906W        W99167  44.992  10.729   4.286
39907W        W99168   9.786   4.808  13.994
39908W        W99169  25.011  34.895   2.705
39909W        W99170  36.891  38.496   2.671
39910W        W99171  10.205   2.241   3.308
39911W        W99172  29.944  22.045  11.996
39912W        W99173  15.658  17.174   3.365
39913W        W99174  31.586  24.152   4.621
39914W        W99175   5.281   7.271   4.685
39915W        W99176  30.940  14.096   4.623
39916W        W99177  31.429  30.975  11.017
39917W        W99178  28.532  26.998   1.408
39918W        W99179   5.353  36.350   4.836
39919W        W99180  44.834  44.955   3.197
39920W        W99181  27.576   0.802  15.000
39921W        W99182  12.191  42.857  10.444
39922W        W99183  15.801  23.013   3.679
39923W        W99184   5.439  17.578   2.311
39924W        W99185  38.426   0.296  14.030
39925W        W99186  12.837  20.679  12.918
39926W        W99187   7.724  28.169  11.513
39927W        W99188  16.798  24.065  10.484
39928W        W99189   0.983  17.656  11.895
39929W        W99190   0.286  11.303   3.179
39930W        W99191   7.910  15.788   2.393
39931W        W99192  39.967   8.721  11.115
39932W        W99193  35.973  44.454   0.266
39933W        W99194  41.892   3.343   0.247
39934W        W99195  26.679  40.321  14.515
39935W        W99196  36.422  17.270   1.246
39936W        W99197  42.953  35.888   4.269
39937W        W99198  23.709  41.845   3.865
39938W        W99199  23.001  42.500  13.820
39939W        W99200  13.821  24.589  10.922
39940W        W99201   6.901  41.481  12.895
39941W        W99202  30.529   2.877  10.406
39942W        W99203  20.672  13.223   3.329
39943W        W99204  19.720   5.374  13.453
39944W        W99205  30.510  43.927   3.852
39945W        W99206  30.596  10.756   0.821
39946W        W99207  33.384  34.052  12.827
39947W        W99208  38.557  37.500  13.416
39948W        W99209  42.020  33.939   4.239
39949W        W99210   1.452  16.583   2.326
39950W        W99211  10.712  12.738  13.409
39951W        W99212  21.249  35.992  12.038
39952W        W99213  28.579  25.626   4.168
39953W        W99214  17.720   4.853   3.163
39954W        W99215   5.430   1.429  11.601
39955W        W99216   9.780  19.690  14.408
39956W        W99217  44.878  23.495  10.597
39957W        W99218  21.511  43.002   4.305
39958W        W99219  33.929  26.137  12.006
39959W        W99220  29.034   4.250   2.791
39960W        W99221  17.742  10.675  13.939
39961W        W99222   1.805  23.103   2.339
39962W        W99223  35.545  38.840   1.846
39963W        W99224  23.670   3.790  10.971
39964W        W99225  25.625  22.075   3.246
39965W        W99226  11.843   9.224   4.800
39966W        W99227  35.938  13.622   3.661
39967W        W99228  12.182  38.929  11.080
39968W        W99229  37.043  21.568   2.332
39969W        W99230  31.121  27.612  11.495
39970W        W99231   0.793  37.031  12.997
39971W        W99232  15.221  40.835   3.694
39972W        W99233  25.628   8.330   2.806
39973W        W99234  27.957  36.481  10.618
39974W        W99235   7.265  22.183  12.899
39975W        W99236   7.808  19.606  14.311
39976W        W99237  12.797   6.795   2.830
39977W        W99238  14.628  17.626   2.681
39978W        W99239  24.681   1.318   1.705
39979W        W99240  30.051   9.238   1.358
39980W        W99241  24.043  38.921  10.493
39981W        W99242  41.892  42.285   2.697
39982W        W99243  25.691   4.807  10.149
39983W        W99244  24.973  39.416  14.443
39984W        W99245  26.477  15.619   2.234
39985W        W99246  13.192  20.257   4.202
39986W        W99247  44.836   5.795  13.332
39987W        W99248  21.021  37.360   2.194
39988W        W99249  16.245   3.914  14.381
39989W        W99250  40.865  37.849  11.415
39990W        W99251  11.139  10.664   3.359
39991W        W99252  43.376  31.511   4.754
39992W        W99253   8.744  40.425  11.063
39993W        W99254  29.665   6.350   4.268
39994W        W99255  13.780  14.778   1.761
39995W        W99256  31.558  15.698   3.243
39996W        W99257  23.497  37.018  10.953
39997W        W99258  24.149  17.076  14.899
39998W        W99259  29.460  10.832  12.500
39999W        W99260  26.593   0.342  14.972
40000W        W99261  26.128  21.756   0.427
40001W        W99262  27.565  10.233   2.221
40002W        W99263   6.900  15.116   2.681
40003W        W99264  25.195   7.763  14.888
40004W        W99265  14.278  36.579   0.420
40005W        W99266   0.889   0.813  12.394
40006W        W99267  37.364  30.950  14.336
40007W        W99268  43.954  31.562   2.211
40008W        W99269  13.257  36.475   3.297
40009W        W99270  43.805  33.104   1.384
40010W        W99271  23.696  29.980   1.214
40011W        W99272  16.254  11.797   0.266
40012W        W99273  40.993   5.697   4.791
40013W        W99274   1.894  19.552   2.384
40014W        W99275  44.335   5.286  13.053
40015W        W99276  42.512  12.832  11.554
40016W        W99277  17.283  28.631   0.368
40017W        W99278  13.302  30.415   2.745
40018W        W99279  18.092  44.985  13.364
40019W        W99280  39.433  26.563   4.675
40020W        W99281  21.102   7.211   2.683
40021W        W99282   5.376  44.905   3.386
40022W        W99283  16.081   1.733   1.264
40023W        W99284  38.519  12.331   1.293
40024W        W99285   7.377  44.267  10.923
40025W        W99286  20.193  29.458   0.411
40026W        W99287  19.550  41.494   2.686
40027W        W99288  35.368  31.030  13.534
40028W        W99289  31.558   7.804  12.454
40029W        W99290  32.059  14.608  10.983
40030W        W99291   7.254  39.936   3.170
40031W        W99292  23.689   9.334  10.898
40032W        W99293  23.009   1.419   5.722
40033W        W99294  16.776  15.113  11.070
40034W        W99295  37.405  19.226  14.993
40035W        W99296   6.854  16.637   2.827
40036W        W99297  10.149  31.904  13.805
40037W        W99298  22.225  13.350  14.970
40038W        W99299  24.671   3.732   0.843
40039W        W99300  11.673   5.894  10.549
40040W        W99301   1.362  40.836  14.014
40041W        W99302   8.365   4.820   0.298
40042W        W99303  37.000   2.262   2.395
40043W        W99304  42.355  31.990   0.889
40044W        W99305  17.296  16.793  13.419
40045W        W99306  20.153  30.038  10.414
40046W        W99307  27.495   3.940   4.217
40047W        W99308  40.982  31.440   4.269
40048W        W99309   4.915  32.887   1.831
40049W        W99310  14.109  36.877   3.368
40050W        W99311  26.545  11.218   2.316
40051W        W99312  21.633  41.421   1.752
40052W        W99313  31.104  44.987   1.260
40053W        W99314  42.910  18.610  13.837
40054W        W99315   4.850   7.209  14.933
40055W        W99316  21.547  23.024   1.281
40056W        W99317   4.275  26.626   9.959
40057W        W99318  42.281  11.358   0.789
40058W        W99319  37.944  36.517   0.850
40059W        W99320  18.282  27.581  12.352
40060W        W99321   4.235  18.750  10.556
40061W        W99322  41.357  29.518   0.840
40062W        W99323   2.472   6.409  14.973
40063W        W99324  26.207  20.116   2.833
40064W        W99325  36.551  25.535   3.818
40065W        W99326   7.844  28.545  11.511
40066W        W99327  17.672  14.780  12.823
40067W        W99328   2.786  19.094  14.799
40068W        W99329  28.475  27.629  13.500
40069W        W99330  35.578   2.930  11.553
40070W        W99331  38.347   5.228  11.427
40071W        W99332  12.218  15.738  13.846
40072W        W99333  26.100  23.535   3.720
40073W        W99334  26.587  38.484   9.996
40074W        W99335  39.811  22.558  10.917
40075W        W99336  33.478  39.932   0.254
40076W        W99337  22.233  17.073  11.030
40077W        W99338  25.694  44.314  14.784
40078W        W99339  30.034  42.505  12.549
40079W        W99340  13.728  42.384  11.094
40080W        W99341  28.144  24.076   0.301
40081W        W99342  27.568   0.966  11.950
40082W        W99343   7.906  31.974   1.897
40083W        W99344  20.736   4.326   4.708
40084W        W99345  32.067  33.014   2.379
40085W        W99346  38.859  31.102   2.310
40086W        W99347   4.295  15.304  13.888
40087W        W99348  34.473  17.754  11.462
40088W        W99349  31.907   3.320   1.932
40089W        W99350  41.400  22.622  13.358
40090W        W99351  27.955   6.238   5.245
40091W        W99352  32.588  26.178  12.474
40092W        W99353   2.779  11.268   4.835
40093W        W99354  15.713   3.800  10.979
40094W        W99355  11.200  20.769  11.569
40095W        W99356   5.196  28.483  14.972
40096W        W99357  23.556   2.937   3.696
40097W        W99358  24.635  34.028   5.262
40098W        W99359  22.176  35.022   0.410
40099W        W99360  35.462   2.295  12.095
40100W        W99361  39.428  28.070   2.837
40101W        W99362  31.142   3.374   2.223
40102W        W99363  17.261   7.691  12.437
40103W        W99364  38.340  42.337   0.247
40104W        W99365  24.181  22.171  13.432
40105W        W99366  10.809   4.439  13.810
40106W        W99367   2.234   0.742  14.423
40107W        W99368  37.416  24.699   1.250
40108W        W99369  25.150  37.988  14.315
40109W        W99370  29.166  18.627  14.008
40110W        W99371  20.209  18.218  13.345
40111W        W99372  33.541  22.739  11.115
40112W        W99373  43.897   6.282   2.725
40113W        W99374  17.191  24.088   2.245
40114W        W99375  27.455  29.937   1.448
40115W        W99376   4.430  36.358  14.760
40116W        W99377  36.471  24.159  12.527
40117W        W99378   7.358  18.051   0.357
40118W        W99379  23.186  16.780  12.096
40119W        W99380  28.469  39.402   4.166
40120W        W99381  20.066  27.122  11.381
40121W        W99382   4.410  44.909   4.754
40122W        W99383  39.374  23.161  13.815
40123W        W99384  35.900  40.862  13.043
40124W        W99385  42.922  38.502  14.006
40125W        W99386  42.454  32.990  14.354
40126W        W99387  39.061   1.734  13.457
40127W        W99388   5.788  15.673   4.677
40128W        W99389  21.116  13.624   0.437
40129W        W99390  11.240  12.131  12.044
40130W        W99391  21.259  20.735  13.495
40131W        W99392  30.050  27.076   0.727
40132W        W99393  15.783  27.664   3.698
40133W        W99394  11.244  21.689  12.416
40134W        W99395  15.667  15.598   1.836
40135W        W99396   6.775  30.029   4.297
40136W        W99397  21.708  34.522  14.785
40137W        W99398  28.560  31.558   1.929
40138W        W99399  36.076  34.893  10.904
40139W        W99400  34.974  37.077  13.944
40140W        W99401  42.476  11.714   4.147
40141W        W99402  31.485   7.266   1.348
40142W        W99403  32.490  40.360   2.754
40143W        W99404   3.829  35.075   3.232
40144W        W99405  12.714  44.967  10.456
40145W        W99406   0.434  32.546  13.533
40146W        W99407  28.964  10.195  11.962
40147W        W99408  17.105  22.726   4.154
40148W        W99409  36.095  16.790  14.949
40149W        W99410   0.883  43.436  11.419
40150W        W99411   1.249   3.940  12.880
40151W        W99412  13.158  15.314   4.308
40152W        W99413   4.419   8.209   2.362
40153W        W99414  18.632  44.395   4.222
40154W        W99415  19.644  37.944  10.920
40155W        W99416  28.157  19.645   0.304
40156W        W99417   8.160   9.206  10.100
40157W        W99418  11.140   3.774   3.294
40158W        W99419  20.605  26.191   0.759
40159W        W99420   5.811  10.693   4.772
40160W        W99421  27.616  41.894   0.886
40161W        W99422  37.395   6.740   3.801
40162W        W99423  40.456  15.147   2.191
40163W        W99424  26.611  43.498   4.833
40164W        W99425  28.545  29.462  14.970
40165W        W99426  24.028  20.611  13.531
40166W        W99427  31.486  33.982   3.257
40167W        W99428  23.119   8.403  10.460
40168W        W99429  16.260  30.633   3.694
40169W        W99430  10.815  32.955   0.439
40170W        W99431  34.106  24.585  13.390
40171W        W99432  16.725   2.234   1.870
40172W        W99433  27.081  26.992   1.828
40173W        W99434  18.731  32.532   0.904
40174W        W99435   8.245  22.149  14.806
40175W        W99436  18.746  18.100   1.719
40176W        W99437  26.471  36.405   4.630
40177W        W99438  34.089  31.517   3.836
40178W        W99439   9.208   3.455  14.293
40179W        W99440  42.924  36.973   3.655
40180W        W99441  39.501  30.573   2.689
40181W        W99442  37.002  37.949  12.938
40182W        W99443  32.029  27.455   0.429
40183W        W99444  40.828  34.399   1.421
40184W        W99445  39.366  17.123  13.346
40185W        W99446   0.468  21.235  10.404
40186W        W99447  35.360  19.243   3.662
40187W        W99448  44.322  17.787   9.499
40188W        W99449  24.601  31.604   3.649
40189W        W99450  29.449  34.876  12.442
40190W        W99451  12.303  37.931   1.450
40191W        W99452  26.969  38.065  10.468
40192W        W99453  21.667  20.721  12.540
40193W        W99454  20.038  16.783  10.501
40194W        W99455   0.318  33.064   4.303
40195W        W99456  11.372   7.306   0.244
40196W        W99457   0.377  11.237  12.880
40197W        W99458  18.720  20.677  13.799
40198W        W99459  28.117  15.120   3.794
40199W        W99460  13.177  39.425   1.866
40200W        W99461   7.269   4.699  13.434
40201W        W99462   0.386  20.626  11.535
40202W        W99463  44.260  13.341  14.971
40203W        W99464  17.677  15.135   1.806
40204W        W99465  41.300  12.355  12.929
40205W        W99466   8.358  26.687  14.411
40206W        W99467  27.157   6.379  10.458
40207W        W99468   6.715  34.041  12.071
40208W        W99469  15.255  16.240   2.192
40209W        W99470  29.155  36.558   4.116
40210W        W99471  29.480  42.823   4.821
40211W        W99472  19.778   8.222   4.336
40212W        W99473  44.367  40.384  12.964
40213W        W99474  34.098  44.764  10.566
40214W        W99475  24.648  15.769   0.835
40215W        W99476  28.592   2.322  14.420
40216W        W99477   0.752  21.617   9.976
40217W        W99478   4.432   8.212  14.843
40218W        W99479   5.425   7.900  12.848
40219W        W99480   3.404  34.949   4.259
40220W        W99481  36.535  38.004  11.878
40221W        W99482  36.584   9.361  14.405
40222W        W99483   5.338  15.775  10.531
40223W        W99484   8.731  10.302   1.758
40224W        W99485  18.107   4.785  12.900
40225W        W99486   5.367  11.826   0.919
40226W        W99487  32.507   1.871  13.798
40227W        W99488  19.758  30.058   4.340
40228W        W99489  33.026  23.208  12.026
40229W        W99490  42.858  18.672  12.000
40230W        W99491   0.908  10.261   3.235
40231W        W99492   6.896  34.423  13.334
40232W        W99493   7.313   0.843  13.908
40233W        W99494  41.461  19.245  10.406
40234W        W99495  25.519   8.167   0.814
40235W        W99496   2.306  16.758   0.749
40236W        W99497  15.162  39.520  12.565
40237W        W99498  15.195  44.009   0.831
40238W        W99499  39.509  42.914   0.772
40239W        W99500  21.532  15.769   4.289
40240W        W99501  35.521  31.480   3.757
40241W        W99502   1.252  34.503  14.510
40242W        W99503  34.422   7.746  13.314
40243W        W99504  25.180  17.087   1.347
40244W        W99505  34.982  42.285   3.680
40245W        W99506  24.694  26.038  10.609
40246W        W99507  40.804  40.475   2.233
40247W        W99508  33.107  29.550  11.058
40248W        W99509   5.279  30.128  12.095
40249W        W99510  41.454   5.815   1.771
40250W        W99511   6.337  17.638  14.474
40251W        W99512  11.341   5.251  13.317
40252W        W99513  22.540  11.304   3.180
40253W        W99514   1.920  31.451  10.433
40254W        W99515  31.523  11.785   4.305
40255W        W99516  22.552  28.034  11.882
40256W        W99517  21.112  33.462   5.262
40257W        W99518   9.755  14.116  14.467
40258W        W99519  22.145  23.577   4.219
40259W        W99520   7.172   4.345  13.521
40260W        W99521   2.463  25.193  11.378
40261W        W99522   7.277  13.819  11.859
40262W        W99523  16.205  11.695   1.228
40263W        W99524  31.480  28.096  12.051
40264W        W99525  32.486  28.164   3.697
40265W        W99526   8.361  38.046  14.827
40266W        W99527  37.980   2.822  13.537
40267W        W99528   4.212  17.302   1.311
40268W        W99529  31.631   5.211   4.275
40269W        W99530  16.295   0.283   1.288
40270W        W99531  40.885   6.717  14.004
40271W        W99532  14.325  36.468  13.824
40272W        W99533  16.099   1.286   1.709
40273W        W99534  31.925  30.953   3.714
40274W        W99535  39.901   6.806  13.333
40275W        W99536   5.921  21.199   4.234
40276W        W99537  13.345  27.142  13.476
40277W        W99538  30.554   2.269  12.360
40278W        W99539  25.547  17.220   3.669
40279W        W99540  42.423   2.759  10.450
40280W        W99541  19.108  16.717   1.324
40281W        W99542  28.616  33.969   2.820
40282W        W99543  33.059  41.010   0.383
40283W        W99544  28.139   0.814   2.780
40284W        W99545  16.121  21.086   1.852
40285W        W99546   2.243  44.481   0.339
40286W        W99547   8.821  21.187   1.421
40287W        W99548  39.429  15.314   1.274
40288W        W99549   7.280  10.842   0.786
40289W        W99550  26.650  31.511  10.021
40290W        W99551  37.578  19.211  13.851
40291W        W99552  12.151  22.537  12.086
40292W        W99553  42.005   5.340  10.945
40293W        W99554  19.659  27.102  11.104
40294W        W99555  30.028  43.878   3.833
40295W        W99556   8.214  40.399  14.372
40296W        W99557  30.110  18.608   0.455
40297W        W99558  22.182   2.309  12.578
40298W        W99559  38.327  40.404  11.445
40299W        W99560  28.597  26.145  11.969
40300W        W99561   0.868  22.657  11.912
40301W        W99562  13.675  40.031   4.142
40302W        W99563  29.584  21.596  11.981
40303W        W99564  17.165  36.464   4.227
40304W        W99565   8.255   1.968   2.829
40305W        W99566  21.253  44.264  13.934
40306W        W99567  38.357  19.261  13.049
40307W        W99568  44.879  43.836   1.775
40308W        W99569   1.866   7.328  11.004
40309W        W99570  36.351  44.312   0.864
40310W        W99571  24.527   0.440  13.988
40311W        W99572  27.083  24.577  12.011
40312W        W99573  14.702  16.225  13.539
40313W        W99574  31.574  12.220   4.182
40314W        W99575   7.671  31.111  10.619
40315W        W99576  17.637  35.359   0.289
40316W        W99577  33.596  17.242  11.924
40317W        W99578  41.030  34.435  13.509
40318W        W99579  18.626  13.610  14.374
40319W        W99580  35.401  24.502   1.908
40320W        W99581  10.857   0.313  14.411
40321W        W99582  15.613   7.771  12.519
40322W        W99583   4.420   4.815   3.231
40323W        W99584  40.991  26.141   1.825
40324W        W99585  16.601  21.240  13.439
40325W        W99586  21.208  30.519  12.461
40326W        W99587   1.373  33.525   0.775
40327W        W99588  24.133   0.428   1.910
40328W        W99589  13.695  40.942   4.169
40329W        W99590  37.853  37.348  11.044
40330W        W99591  22.081   9.346  12.017
40331W        W99592  18.596  44.773   0.434
40332W        W99593  22.248  30.928  14.315
40333W        W99594   5.262  27.047  13.442
40334W        W99595  27.484  19.148   0.417
40335W        W99596  16.644  17.134   1.304
40336W        W99597  14.295   7.413  13.004
40337W        W99598  27.468  24.507  13.887
40338W        W99599  37.021   0.252  10.988
40339W        W99600   0.842  26.019  11.054
40340W        W99601  10.237  10.662   3.157
40341W        W99602  10.271  37.055  11.117
40342W        W99603  12.325   1.977  11.925
40343W        W99604  30.965   4.941  14.396
40344W        W99605   4.928  31.104   4.804
40345W        W99606  36.032  12.244  13.473
40346W        W99607  18.720  39.380  11.604
40347W        W99608  32.440  43.403  14.989
40348W        W99609  23.626   4.918   2.891
40349W        W99610  26.958  31.139  10.089
40350W        W99611  12.835  30.928  10.505
40351W        W99612  11.797   7.737  13.912
40352W        W99613  41.825  21.023   4.749
40353W        W99614  25.998  26.111  13.366
40354W        W99615  37.980   8.356  11.100
40355W        W99616  13.202  30.994  13.402
40356W        W99617   9.888  24.565  13.857
40357W        W99618  44.447  40.364   2.901
40358W        W99619   0.299  13.703  10.535
40359W        W99620  17.679   6.714   2.195
40360W        W99621  19.171   0.358  11.380
40361W        W99622  35.933  34.978   2.391
40362W        W99623  25.594  28.997   2.397
40363W        W99624   7.870  39.929   3.776
40364W        W99625   0.787  36.520   0.474
40365W        W99626  34.517   5.800  12.553
40366W        W99627  33.594   8.308   2.410
40367W        W99628  28.163   6.821   0.726
40368W        W99629  14.302  36.535  11.079
40369W        W99630  22.503  41.806   3.219
40370W        W99631   5.854  30.493   3.670
40371W        W99632   5.708  17.302  13.887
40372W        W99633  44.281   5.818  11.500
40373W        W99634  10.275  43.992   2.709
40374W        W99635  25.511  21.528  13.021
40375W        W99636  15.645  31.026   3.355
40376W        W99637  15.085  42.915   2.298
40377W        W99638  18.635  21.524  13.384
40378W        W99639  30.612  40.314  12.438
40379W        W99640  34.062  28.474  12.882
40380W        W99641  39.860  32.083  10.432
40381W        W99642  32.965  19.056   2.700
40382W        W99643  32.456   1.249  11.041
40383W        W99644  29.931  26.512  13.360
40384W        W99645  40.425  22.209   1.218
40385W        W99646   0.255  25.631  12.879
40386W        W99647  20.258   0.800   1.262
40387W        W99648  41.377  18.210   2.385
40388W        W99649  44.464  15.119  12.940
40389W        W99650  16.602  20.207   2.334
40390W        W99651   4.431  32.585  14.804
40391W        W99652  18.082  43.415  13.917
40392W        W99653  19.716   2.949  14.887
40393W        W99654   0.406  42.957   1.292
40394W        W99655  33.108  23.517  14.864
40395W        W99656   1.773   0.316   1.294
40396W        W99657   5.384   4.418   0.249
40397W        W99658  35.423  25.705  10.957
40398W        W99659  31.084   2.760   9.446
40399W        W99660  29.071  24.059  14.990
40400W        W99661  26.616  10.339   4.299
40401W        W99662  22.564  10.241   1.440
40402W        W99663  40.846  34.997   3.760
40403W        W99664  33.427  22.182  13.838
40404W        W99665  30.919   0.279  13.521
40405W        W99666  23.667  16.211   2.678
40406W        W99667  21.042  30.091  13.855
40407W        W99668  14.109  34.044   4.636
40408W        W99669   3.408   2.878  13.521
40409W        W99670  23.182  23.702   4.132
40410W        W99671  18.202  17.583  10.979
40411W        W99672  37.848  12.230  12.403
40412W        W99673   5.831  32.527  13.009
40413W        W99674  28.132  17.658  14.848
40414W        W99675   9.216  33.009   1.755
40415W        W99676  39.394  33.030   1.805
40416W        W99677  43.421  26.580   2.662
40417W        W99678   7.685  31.098  14.389
40418W        W99679   8.881  43.330   4.832
40419W        W99680  13.122  42.009   1.415
40420W        W99681  36.842  39.554   0.452
40421W        W99682  28.049  14.739  10.104
40422W        W99683  14.243  27.953  11.942
40423W        W99684  37.479  11.234  11.957
40424W        W99685  25.090  40.307   0.834
40425W        W99686  25.095   2.459   9.532
40426W        W99687  40.387  30.413   5.271
40427W        W99688  13.298   1.293  11.919
40428W        W99689  29.142  23.004   0.762
40429W        W99690  41.829  24.550  13.847
40430W        W99691  11.174  28.460   1.259
40431W        W99692   0.863  35.357  11.976
40432W        W99693  38.457  42.284  13.055
40433W        W99694  30.542   9.790  13.457
40434W        W99695   7.368   8.682  13.393
40435W        W99696  21.111  37.898   0.420
40436W        W99697  44.416  36.879  12.556
40437W        W99698  11.346  42.810  12.419
40438W        W99699   9.272  13.764  11.981
40439W        W99700   7.341   3.346  13.511
40440W        W99701   3.351  28.102  13.334
40441W        W99702  34.879   1.240   4.242
40442W        W99703  27.594   8.325   3.328
40443W        W99704  31.443   8.753  13.851
40444W        W99705  17.293  38.918   1.829
40445W        W99706  22.214   0.827   4.344
40446W        W99707  36.347   8.659   3.274
40447W        W99708  29.448  34.544  14.973
40448W        W99709  13.161  18.294   4.728
40449W        W99710  44.419  31.580  11.473
40450W        W99711  12.359   5.238   3.316
40451W        W99712   0.771   0.464   1.889
40452W        W99713  30.926  17.270  13.357
40453W        W99714  13.337  25.968   4.243
40454W        W99715   7.783  41.977  12.487
40455W        W99716   1.924  37.509   0.795
40456W        W99717  15.244   0.393   2.820
40457W        W99718   7.694  33.543  13.995
40458W        W99719   8.782  24.692   2.662
40459W        W99720  40.885  11.631  13.989
40460W        W99721   7.743  21.140  12.000
40461W        W99722  24.014   7.720  13.351
40462W        W99723   3.949  41.437  10.896
40463W        W99724  32.427  27.507  10.461
40464W        W99725  14.629  14.181   0.869
40465W        W99726  22.747   6.275  11.868
40466W        W99727  11.788  33.561   5.213
40467W        W99728  36.948  18.077  11.046
40468W        W99729  24.635  39.968   4.698
40469W        W99730  35.005  10.836  10.101
40470W        W99731  23.078   9.329   0.731
40471W        W99732  19.235  34.050  11.413
40472W        W99733  31.481  15.624   1.854
40473W        W99734  36.589   0.407  11.505
40474W        W99735  44.773   7.781  13.823
40475W        W99736  15.220  34.605   0.879
40476W        W99737   2.952  22.074   4.163
40477W        W99738  44.888  35.894  14.972
40478W        W99739  39.324  16.669  12.038
40479W        W99740  37.939  22.680  11.537
40480W        W99741  27.941  32.007  11.989
40481W        W99742   6.324  17.197  12.009
40482W        W99743   5.416  13.608  13.961
40483W        W99744  41.980  25.687  14.785
40484W        W99745  23.705   5.258  11.384
40485W        W99746   7.772  44.856  11.064
40486W        W99747  38.567  25.604   2.330
40487W        W99748  34.052  25.553  11.528
40488W        W99749  11.226  44.287   0.402
40489W        W99750  11.770  23.582  12.078
40490W        W99751  30.500   6.242  13.905
40491W        W99752  43.798  35.903   4.629
40492W        W99753  13.332  39.962  12.011
40493W        W99754  43.317  32.967  13.963
40494W        W99755  11.202  31.107   1.395
40495W        W99756  43.009  32.586  13.902
40496W        W99757   3.419  26.989  11.887
40497W        W99758  39.899  11.314   1.771
40498W        W99759  10.139  37.400   3.185
40499W        W99760  15.776  11.841  14.362
40500W        W99761  41.321  29.980   2.378
40501W        W99762  18.104  25.705   0.845
40502W        W99763  38.903   8.319   1.743
40503W        W99764  27.045  36.907   4.195
40504W        W99765  17.254  19.253   3.201
40505W        W99766  33.414  29.139   5.253
40506W        W99767  22.508  35.597   4.265
40507W        W99768  43.926  16.194  12.964
40508W        W99769  19.778   9.361   3.271
40509W        W99770  18.590  17.718   3.164
40510W        W99771  17.684   7.377   1.766
40511W        W99772  42.286  37.404   3.764
40512W        W99773  10.832  32.933   4.275
40513W        W99774  17.220   0.970  11.991
40514W        W99775  14.674  23.122   3.176
40515W        W99776  38.074   5.404   1.245
40516W        W99777  29.934   9.204  12.879
40517W        W99778  26.102  14.780   2.664
40518W        W99779  42.396  30.476  10.953
40519W        W99780  40.333  14.665   0.876
40520W        W99781  20.758  32.087  10.540
40521W        W99782  37.034  28.039  11.040
40522W        W99783  12.715  16.210  12.548
40523W        W99784  20.546  31.499  14.818
40524W        W99785  16.624  32.058  10.908
40525W        W99786  11.355  28.666  14.427
40526W        W99787   9.701   6.247  13.900
40527W        W99788   9.706  38.528   1.293
40528W        W99789  10.300  36.449  13.922
40529W        W99790   2.253  16.659   1.237
40530W        W99791  39.400  12.253  11.071
40531W        W99792  35.406  27.948   2.215
40532W        W99793  10.292  12.819   5.189
40533W        W99794  40.861  14.281  10.070
40534W        W99795  25.612   5.801   0.344
40535W        W99796  12.733  25.046   2.777
40536W        W99797  27.086  24.041   3.832
40537W        W99798  31.130  29.547  13.849
40538W        W99799  14.632  29.435  11.422
40539W        W99800  18.197  24.014  10.511
40540W        W99801  28.091  34.090  13.310
40541W        W99802  30.452   7.410  13.438
40542W        W99803  17.733   8.748  10.512
40543W        W99804  19.207  29.489   0.906
40544W        W99805  43.467   8.246   1.787
40545W        W99806  27.643  23.633  14.312
40546W        W99807  36.504  27.574   1.315
40547W        W99808  27.448  41.527   1.792
40548W        W99809  38.339  24.555   3.195
40549W        W99810  38.547  19.614  12.844
40550W        W99811  14.187   1.415   0.919
40551W        W99812  17.292  17.082   4.292
40552W        W99813  27.014  21.688  12.440
40553W        W99814  26.982  15.243  14.509
40554W        W99815  31.040   4.435  14.513
40555W        W99816  29.540  15.259   3.275
40556W        W99817  10.762  23.522  13.978
40557W        W99818  14.656  36.529  11.977
40558W        W99819  24.703  37.566  13.432
40559W        W99820  35.457  16.797  12.554
40560W        W99821   7.181  20.228  10.542
40561W        W99822   8.892  19.159  13.505
40562W        W99823  40.889  13.606   5.803
40563W        W99824  17.151   9.719   1.331
40564W        W99825  26.054  31.409   4.353
40565W        W99826  28.473   9.698   0.286
40566W        W99827   6.865  30.473   4.255
40567W        W99828  11.748  42.409   2.726
40568W        W99829  19.184  37.529  12.995
40569W        W99830  43.512   3.312   1.713
40570W        W99831  38.049  10.870   4.177
40571W        W99832  41.474  34.440   3.323
40572W        W99833  44.886  33.496  13.358
40573W        W99834  39.003  34.900  10.599
40574W        W99835  30.631  37.036  12.834
40575W        W99836  28.557   8.818  14.921
40576W        W99837  38.499  35.506   0.456
40577W        W99838  18.666  36.939  11.061
40578W        W99839  41.462  13.846   0.393
40579W        W99840  12.643  23.055   4.752
40580W        W99841  27.049   1.460  13.504
40581W        W99842  27.965  30.054  12.083
40582W        W99843  41.973  18.282   5.210
40583W        W99844   9.700  34.887  11.903
40584W        W99845  36.359  14.739  10.981
40585W        W99846  33.515  13.690  13.328
40586W        W99847   0.859  33.924   3.744
40587W        W99848   0.484  14.146   1.412
40588W        W99849  38.455  10.842   4.830
40589W        W99850  19.135  13.155  10.618
40590W        W99851  31.534  33.408   3.862
40591W        W99852  17.108  33.396   1.713
40592W        W99853   3.733   8.689   1.764
40593W        W99854  29.129  42.777   3.654
40594W        W99855  14.220   9.828  10.946
40595W        W99856  26.535  14.825  12.351
40596W        W99857  43.485  20.678  10.052
40597W        W99858  15.098  17.722   3.215
40598W        W99859  19.572  23.687  13.509
40599W        W99860  42.828  33.053   4.270
40600W        W99861   2.245  13.140  13.836
40601W        W99862   4.943   8.847   0.779
40602W        W99863  40.453  12.659   1.244
40603W        W99864   0.349  10.185  13.064
40604W        W99865  31.087  24.627  13.956
40605W        W99866  37.576  35.577   3.685
40606W        W99867  28.998  29.055  11.930
40607W        W99868  27.035  27.079  11.602
40608W        W99869  34.470  22.047  10.978
40609W        W99870  37.357  28.558   2.220
40610W        W99871  28.040  10.748   2.856
40611W        W99872  42.324   1.771   2.395
40612W        W99873  31.530  13.755   0.477
40613W        W99874  10.661   5.897   2.283
40614W        W99875  19.262  24.065   2.310
40615W        W99876  35.572   0.494   1.289
40616W        W99877   8.815  24.001   4.631
40617W        W99878  19.098  28.493   1.701
40618W        W99879  42.414   9.270  12.885
40619W        W99880   5.273  24.072   3.665
40620W        W99881   1.772  22.225  14.445
40621W        W99882  12.682  25.705  13.964
40622W        W99883  22.165  12.291  12.481
40623W        W99884  24.224  15.582   3.727
40624W        W99885  30.526  16.083   1.224
40625W        W99886  37.428  13.325  13.865
40626W        W99887  28.535  21.057  13.051
40627W        W99888   4.820  20.262  12.870
40628W        W99889  26.197  13.108   1.416
40629W        W99890  14.137  15.661   4.694
40630W        W99891  26.575   6.261   2.388
40631W        W99892   8.162   3.763   1.259
40632W        W99893  37.531  12.304  14.834
40633W        W99894  18.610   2.247  13.414
40634W        W99895  22.545  21.028   2.784
40635W        W99896  33.528   0.952  12.038
40636W        W99897  44.832  42.281   1.406
40637W        W99898  44.364  15.112  14.773
40638W        W99899  41.869  15.314   0.452
40639W        W99900  14.340  23.023   2.394
40640W        W99901  16.260  20.540  11.035
40641W        W99902  25.158  29.122   3.307
40642W        W99903  19.173  21.021  11.969
40643W        W99904  36.080  38.917  12.433
40644W        W99905  15.318  38.517   2.751
40645W        W99906  24.487  25.652  14.514
40646W        W99907  14.281  20.080  14.437
40647W        W99908   6.763  11.823   4.217
40648W        W99909  36.578   7.291   0.403
40649W        W99910  27.662   6.761  13.821
40650W        W99911  12.148  38.329   3.637
40651W        W99912  16.192  43.973  12.061
40652W        W99913  26.042   9.292  14.854
40653W        W99914  15.149  28.549   0.807
40654W        W99915   5.312  41.299   3.643
40655W        W99916   7.756  25.125  12.842
40656W        W99917  19.136   3.897  14.513
40657W        W99918  17.747  12.676  10.994
40658W        W99919  30.971  10.357   1.417
40659W        W99920  35.388  35.071   1.331
40660W        W99921  33.889  26.202  14.945
40661W        W99922  40.049  16.622  14.776
40662W        W99923   9.311  15.245  14.468
40663W        W99924   0.917  39.372   2.872
40664W        W99925   0.829  32.627   1.750
40665W        W99926  36.389  23.990  11.498
40666W        W99927  44.901  20.664  11.926
40667W        W99928  31.986  34.087   2.701
40668W        W99929  30.008  24.119  11.509
40669W        W99930   4.737  11.355  11.581
40670W        W99931  11.329  26.998  11.947
40671W        W99932   9.844  35.017   0.819
40672W        W99933   5.392  33.924   2.753
40673W        W99934  20.733  32.968   3.240
40674W        W99935  23.090   0.790  13.838
40675W        W99936   2.932  25.598  11.936
40676W        W99937   6.391  23.000  14.820
40677W        W99938  40.375  36.003  14.994
40678W        W99939  14.765  26.194  12.032
40679W        W99940   0.370  16.694  13.347
40680W        W99941   1.738  14.125   1.868
40681W        W99942   4.302  27.660   1.758
40682W        W99943  23.210  32.612   1.445
40683W        W99944  11.708  11.832   2.310
40684W        W99945  25.680  36.516  11.095
40685W        W99946   4.757  20.666   1.828
40686W        W99947  36.554  15.624   3.243
40687W        W99948  17.228  11.244  14.946
40688W        W99949   0.783  29.617   0.381
40689W        W99950  10.365  18.059  11.583
40690W        W99951  42.295  11.838  11.988
40691W        W99952  36.370  33.440  11.921
40692W        W99953  41.309  35.917   0.384
40693W        W99954  21.076  15.206  13.372
40694W        W99955  33.397  19.780  12.965
40695W        W99956  17.786   6.315  11.449
40696W        W99957   9.204  36.497   1.236
40697W        W99958  23.631  13.665   0.255
40698W        W99959  20.029   3.883   2.861
40699W        W99960  21.543   9.646   3.701
40700W        W99961  10.372  40.501  13.529
40701W        W99962  31.643   6.714  10.451
40702W        W99963  11.274  10.767   0.745
40703W        W99964  18.118  13.254  12.574
40704W        W99965   4.824   5.744  13.970
40705W        W99966  31.602  43.328   2.409
40706W        W99967  12.633  31.103   1.752
40707W        W99968   5.407   4.274  10.476
40708W        W99969  33.995  42.338  14.353
40709W        W99970  36.864  19.730   5.168
40710W        W99971  33.095  42.025   1.237
40711W        W99972  40.341   8.390  14.903
40712W        W99973  31.134  10.726  11.932
40713W        W99974  11.247  25.652  12.887
40714W        W99975  36.453  28.604   1.244
40715W        W99976  44.338  22.091   0.897
40716W        W99977  12.297   5.806   0.325
40717W        W99978   1.372  17.778  14.822
40718W        W99979  28.079  11.263   2.255
40719W        W99980  35.958   3.797   2.896
40720W        W99981  24.980   0.758   9.951
40721W        W99982  28.569  32.075  10.487
40722W        W99983  42.503  33.954  11.008
40723W        W99984  37.919  21.537  13.990
40724W        W99985  13.626  39.438  10.607
40725W        W99986  22.728  29.994  12.038
40726W        W99987   6.689  18.715   2.297
40727W        W99988  26.129  19.615  11.565
40728W        W99989   2.732  14.646   4.736
40729W        W99990  20.664   6.878   0.948
40730W        W99991  31.978  42.299   4.321
40731W        W99992  10.843  16.804  14.289
40732W        W99993  23.100  18.746   4.701
40733W        W99994  14.323  35.957  14.017
40734W        W99995  11.865  21.650   1.307
40735W        W99996  16.078   7.844  10.630
40736W        W99997  44.295  26.485  11.045
40737W        W99998  32.490  25.019   2.897
40738W        W99999  30.505  30.630  14.030
40739W        W    0  30.941  37.363  12.087
40740W        W    1  14.744   2.933  10.479
40741W        W    2  39.365  43.311  13.062
40742W        W    3  35.989  27.551   4.349
40743W        W    4   4.722  38.416   4.836
40744W        W    5  19.644  34.607  14.804
40745W        W    6  19.182  35.005  12.074
40746W        W    7  43.940  30.465  13.477
40747W        W    8   0.800   0.988  11.916
40748W        W    9  25.614  37.579  11.393
40749W        W   10  38.073  31.041   1.788
40750W        W   11   6.336  20.589   2.354
40751W        W   12  16.683  17.122   4.305
40752W        W   13  44.445  34.562  13.421
40753W        W   14  30.532  27.119  14.909
40754W        W   15  39.323  23.736   2.235
40755W        W   16  43.981  33.530   4.231
40756W        W   17  16.097  13.203   3.681
40757W        W   18  15.714  24.551  14.444
40758W        W   19  33.457   5.306  11.584
40759W        W   20  30.944  10.776  14.895
40760W        W   21  13.143   9.331   4.817
40761W        W   22   9.850   4.821  11.978
40762W        W   23  18.642   7.203  14.294
40763W        W   24  10.706  43.940  12.532
40764W        W   25  16.221  23.667   4.661
40765W        W   26  17.727  15.615  11.572
40766W        W   27  26.145   4.277  12.831
40767W        W   28  38.536  43.364   0.906
40768W        W   29   0.902  26.165   3.811
40769W        W   30  26.591  43.977   1.733
40770W        W   31  38.448  30.030  12.848
40771W        W   32  29.072  35.002   3.720
40772W        W   33   0.827  12.172   0.959
40773W        W   34  44.261  21.240  13.814
40774W        W   35  13.601  41.367   1.830
40775W        W   36  37.484  39.476  13.839
40776W        W   37  25.517  40.022   4.242
40777W        W   38  33.614  13.208  12.556
40778W        W   39  14.672  41.860  10.609
40779W        W   40   7.711   2.916  12.067
40780W        W   41   4.339  42.505   3.733
40781W        W   42   4.238  37.993  10.898
40782W        W   43  11.822  25.125   4.265
40783W        W   44  42.305   5.910  14.785
40784W        W   45  38.509  26.533   4.792
40785W        W   46   3.332  37.568   3.796
40786W        W   47  11.749  29.950   2.691
40787W        W   48   1.918  44.888  14.337
40788W        W   49   9.671  29.476  14.439
40789W        W   50  18.644  24.018   1.303
40790W        W   51   3.875  38.351  12.555
40791W        W   52   1.478  12.179   1.764
40792W        W   53  23.696  39.415   2.782
40793W        W   54  20.154   8.884  14.896
40794W        W   55  11.161  30.982  10.915
40795W        W   56   8.744   0.312  11.895
40796W        W   57   5.835  43.886  12.360
40797W        W   58   3.429  19.219   3.381
40798W        W   59  30.605  20.591   1.359
40799W        W   60  32.561  41.328  11.125
40800W        W   61   2.438  30.505   4.769
40801W        W   62  27.959   8.820  12.565
40802W        W   63  13.832  17.660  11.889
40803W        W   64   5.294  16.645  12.851
40804W        W   65  33.405  37.509   4.238
40805W        W   66  40.396  24.670   1.771
40806W        W   67   5.338  31.945  13.383
40807W        W   68   6.741  15.300   4.713
40808W        W   69  43.792  30.653  12.002
40809W        W   70  34.946  27.672  11.038
40810W        W   71  12.616  36.901   1.761
40811W        W   72  23.696  27.954  14.347
40812W        W   73  27.159  39.848  10.983
40813W        W   74   0.924  21.181  10.896
40814W        W   75  44.470  34.449  12.995
40815W        W   76  19.181  27.690   4.704
40816W        W   77   4.429   4.882  13.854
40817W        W   78   8.705  32.546   2.742
40818W        W   79  37.521   4.707   0.381
40819W        W   80  30.145  30.629  12.437
40820W        W   81  19.773  40.993  13.854
40821W        W   82  32.520  22.735  12.851
40822W        W   83  27.523  22.205  11.106
40823W        W   84  35.524  41.041  12.915
40824W        W   85  43.971  20.759  11.909
40825W        W   86   2.769  43.426  11.097
40826W        W   87  41.971  20.716  13.458
40827W        W   88  22.507  12.766   4.270
40828W        W   89  28.629   4.303  11.108
40829W        W   90   0.872  17.684  10.512
40830W        W   91  15.221  42.853   3.336
40831W        W   92  28.599  36.456   4.676
40832W        W   93  44.486  13.125   3.313
40833W        W   94  33.887   1.945  12.543
40834W        W   95  41.868  30.035   2.661
40835W        W   96  43.485   9.379   4.345
40836W        W   97  28.657  13.288  14.452
40837W        W   98   7.760   4.412  14.785
40838W        W   99  38.020  24.582  10.514
40839W        W  100  21.202   1.455   2.191
40840W        W  101  28.502   1.367   4.318
40841W        W  102  26.493  18.088  10.623
40842W        W  103  28.507  14.209   5.290
40843W        W  104  30.113   8.693   2.341
40844W        W  105  23.692  30.651  14.885
40845W        W  106  16.572  14.289   2.257
40846W        W  107  39.542  27.057   0.303
40847W        W  108  21.100  25.018  13.949
40848W        W  109  28.544  43.836  13.455
40849W        W  110  38.873  41.840  12.352
40850W        W  111  43.893  26.642   9.654
40851W        W  112  13.617  14.666   4.207
40852W        W  113  24.710  40.468  12.419
40853W        W  114  11.324   9.281   0.288
40854W        W  115  11.712  24.627   0.793
40855W        W  116  36.507  25.476   3.320
40856W        W  117  32.528  33.613  14.987
40857W        W  118  30.947  19.102   1.270
40858W        W  119  38.060  44.356  10.560
40859W        W  120  36.875  15.583   3.659
40860W        W  121   3.351  39.876   2.254
40861W        W  122  11.347  20.244   3.378
40862W        W  123  36.496  25.999   0.873
40863W        W  124  30.550  27.614   4.837
40864W        W  125  13.149  29.598   4.242
40865W        W  126  29.520   8.760  11.942
40866W        W  127  39.437  27.162  13.495
40867W        W  128  39.496  27.618  14.299
40868W        W  129  13.843  30.497  12.533
40869W        W  130  31.139   9.683   9.565
40870W        W  131  31.454  32.614   0.356
40871W        W  132  35.936  16.749  10.456
40872W        W  133  36.991  11.776  10.419
40873W        W  134  24.186  40.800  10.485
40874W        W  135  44.788  31.539  13.867
40875W        W  136   7.262   3.241   4.276
40876W        W  137  39.467   8.736  10.437
40877W        W  138  41.357  12.676  12.549
40878W        W  139  42.953   2.899   0.806
40879W        W  140   9.799   9.854  11.108
40880W        W  141  42.516  30.600  11.544
40881W        W  142  10.236  31.474   0.440
40882W        W  143  21.220  44.321   1.753
40883W        W  144  26.013   8.770   0.814
40884W        W  145  31.487   7.229  12.347
40885W        W  146  15.266   4.277   2.842
40886W        W  147   8.278  29.964  12.895
40887W        W  148  29.652  41.915  14.980
40888W        W  149  22.709   2.783   3.341
40889W        W  150  37.369   4.430   1.388
40890W        W  151   4.748  36.538   2.757
40891W        W  152  34.870  39.539  13.495
40892W        W  153  43.985  38.367  11.994
40893W        W  154  32.101  11.266  11.035
40894W        W  155  23.731  14.724   1.816
40895W        W  156  27.676  35.973  12.391
40896W        W  157  44.764  19.538  13.480
40897W        W  158  23.604  38.915  10.472
40898W        W  159  33.012   3.297  14.415
40899W        W  160  39.552   9.786   0.953
40900W        W  161   2.433  28.556   4.602
40901W        W  162  18.698  36.864  11.887
40902W        W  163   7.822  19.758   4.737
40903W        W  164  16.263  38.474  12.444
40904W        W  165  25.039  34.005  10.898
40905W        W  166  42.943  40.992   4.238
40906W        W  167  37.365  19.567  14.338
40907W        W  168  41.866  31.514  10.953
40908W        W  169   0.981   3.457  11.508
40909W        W  170  10.220  35.892   0.857
40910W        W  171  39.532  17.732  12.096
40911W        W  172  36.077  39.350   0.410
40912W        W  173   5.230   7.227   1.369
40913W        W  174   1.822   4.864   3.689
40914W        W  175  34.068  40.490   0.909
40915W        W  176  35.415  41.880  14.871
40916W        W  177  10.218  32.142   0.245
40917W        W  178  30.560  25.011   2.806
40918W        W  179   7.843  28.601   4.704
40919W        W  180  26.635  43.270  14.443
40920W        W  181   9.284  12.757  11.942
40921W        W  182   6.207  18.784   2.335
40922W        W  183  41.397  38.889  14.293
40923W        W  184   5.195  25.165   0.248
40924W        W  185   4.841  11.768   2.757
40925W        W  186   3.778   5.808  10.498
40926W        W  187  21.591  26.049   0.484
40927W        W  188  39.382  40.953  11.116
40928W        W  189   2.449   0.492   2.860
40929W        W  190  26.599   8.346  12.081
40930W        W  191  20.736  20.740  12.561
40931W        W  192  39.491  15.085  12.550
40932W        W  193   2.901  32.935  14.780
40933W        W  194  31.472  44.317   3.214
40934W        W  195  36.977  43.349  13.793
40935W        W  196  22.145  25.974   1.382
40936W        W  197  18.749  38.453  13.345
40937W        W  198   5.718  22.682  13.996
40938W        W  199  20.753  15.658  12.965
40939W        W  200  20.087   5.928   1.433
40940W        W  201  31.054  38.852   4.710
40941W        W  202  43.884   8.318   4.243
40942W        W  203  41.355  17.194   0.832
40943W        W  204  23.095  33.108   4.721
40944W        W  205   9.335  18.151   4.208
40945W        W  206  27.072  28.117  10.597
40946W        W  207   0.957  26.126   3.156
40947W        W  208  10.278  21.737  12.985
40948W        W  209  44.826  12.786  10.457
40949W        W  210  39.844  15.094  13.925
40950W        W  211   3.880  26.205   1.394
40951W        W  212   3.932  28.998   1.361
40952W        W  213  16.195   2.239   2.413
40953W        W  214  37.850  41.867  11.445
40954W        W  215  40.940  31.971   0.406
40955W        W  216   2.872  31.438   4.680
40956W        W  217  10.654  36.874   1.810
40957W        W  218  15.116  11.175  10.997
40958W        W  219   5.335  14.674  12.850
40959W        W  220  26.094  34.421   1.884
40960W        W  221  17.586  17.755  12.895
40961W        W  222  26.100   5.348   3.745
40962W        W  223  32.560  11.346   4.122
40963W        W  224  11.131   9.742  13.894
40964W        W  225  12.792   0.819  14.764
40965W        W  226  39.373  44.929  11.859
40966W        W  227   6.880  12.621   2.407
40967W        W  228  19.085   6.263   2.788
40968W        W  229  42.934   3.902   5.291
40969W        W  230  30.480   5.264   2.720
40970W        W  231  27.073  33.394  12.087
40971W        W  232   0.929  27.063   4.299
40972W        W  233   8.871   1.480  11.126
40973W        W  234   8.819  37.009   0.963
40974W        W  235  36.449   5.308  14.946
40975W        W  236  37.336  34.867  11.460
40976W        W  237   8.186  14.813  10.476
40977W        W  238   4.428   5.378   3.209
40978W        W  239  21.734  40.908   2.337
40979W        W  240  14.198  42.373   4.723
40980W        W  241  13.645   7.693   2.198
40981W        W  242  37.949  11.276   1.256
40982W        W  243   1.871  18.592  10.510
40983W        W  244  19.045   1.801   1.413
40984W        W  245   9.771   1.975   1.262
40985W        W  246  25.196   2.409   1.282
40986W        W  247  13.330  32.063   4.219
40987W        W  248  40.335  32.504  11.091
40988W        W  249  33.456  41.431  12.405
40989W        W  250  31.532  19.750  11.028
40990W        W  251  29.472  43.953   0.316
40991W        W  252  20.068  32.008  14.959
40992W        W  253  19.601  44.348  13.505
40993W        W  254   3.786   2.230  13.430
40994W        W  255  22.170   4.404  13.938
40995W        W  256  13.631  41.874   4.647
40996W        W  257  14.257  21.149  11.876
40997W        W  258  17.760   7.817   0.361
40998W        W  259  34.002  26.071  13.814
40999W        W  260  28.989   9.163   1.727
41000W        W  261  41.935  16.259   4.747
41001W        W  262  28.488  39.544  12.848
41002W        W  263  39.000  25.104   1.791
41003W        W  264  42.286  38.338   5.786
41004W        W  265  19.557  26.049   1.289
41005W        W  266  38.390  33.081  13.050
41006W        W  267  36.405  27.119   3.781
41007W        W  268   5.322  35.108  11.901
41008W        W  269  12.732  38.830   0.907
41009W        W  270  38.975  11.260   4.838
41010W        W  271   9.767  35.918  13.027
41011W        W  272  43.923  40.309  11.475
41012W        W  273  16.799  15.618  13.412
41013W        W  274  10.236   0.434   4.234
41014W        W  275  31.466  10.789   3.765
41015W        W  276  27.464  18.110   0.908
41016W        W  277   4.329  12.695   2.322
41017W        W  278   5.301  11.164  11.417
41018W        W  279  26.594   4.263   0.398
41019W        W  280  35.422   7.307  10.608
41020W        W  281  36.016  33.486  11.520
41021W        W  282  28.494  15.746   2.865
41022W        W  283  14.598  20.660  11.938
41023W        W  284   0.884  21.663   2.682
41024W        W  285  13.208  41.395   3.310
41025W        W  286   7.678  43.841   2.858
41026W        W  287  10.243   9.685  10.980
41027W        W  288  36.890  28.521  10.985
41028W        W  289   1.809  26.170   3.666
41029W        W  290  30.440  13.257  14.342
41030W        W  291  32.896   4.728   2.663
41031W        W  292   5.413   8.356  11.108
41032W        W  293  12.254  42.300  10.557
41033W        W  294   4.792  20.036  14.484
41034W        W  295  23.997   3.282  13.495
41035W        W  296  24.991  33.501  12.438
41036W        W  297  29.980  40.916   1.765
41037W        W  298  31.421  35.460   3.303
41038W        W  299   6.749  31.595  14.444
41039W        W  300  19.650  25.589  12.490
41040W        W  301  29.531  11.156  12.915
41041W        W  302  40.352  21.547  10.540
41042W        W  303  32.923  37.884   1.873
41043W        W  304  24.125  10.660  13.350
41044W        W  305  33.623  21.512  13.313
41045W        W  306  42.453  38.868  11.494
41046W        W  307  10.858  15.694   3.655
41047W        W  308  23.562  39.454  10.507
41048W        W  309  35.401  42.405   3.667
41049W        W  310  29.124  30.123   5.691
41050W        W  311   1.807  39.370   1.348
41051W        W  312  33.025   9.871   1.406
41052W        W  313   5.215  18.645   1.248
41053W        W  314  11.156  42.497  13.921
41054W        W  315  33.445  40.315  10.031
41055W        W  316   9.696  35.484  11.464
41056W        W  317  24.046  14.724  13.922
41057W        W  318   0.406  24.201   4.257
41058W        W  319   8.348   9.806   1.401
41059W        W  320  44.793  36.414   4.140
41060W        W  321  31.954   2.248   3.222
41061W        W  322  43.288  40.337   4.311
41062W        W  323  15.299   5.362  14.339
41063W        W  324  30.980  38.955   3.357
41064W        W  325  44.923  42.985  12.539
41065W        W  326  26.161  44.808   9.510
41066W        W  327  17.139  28.069   0.424
41067W        W  328   5.732  32.965   2.321
41068W        W  329  24.653   2.780  10.620
41069W        W  330  18.556  21.070   3.668
41070W        W  331   6.777  13.178  11.495
41071W        W  332  41.500   2.342   3.169
41072W        W  333   3.436  18.663   2.240
41073W        W  334  38.913  32.554  13.390
41074W        W  335  17.704  22.230  14.021
41075W        W  336   8.308  21.738   1.804
41076W        W  337  21.169  43.442   2.695
41077W        W  338  34.419  24.657   3.648
41078W        W  339   4.856  35.498  12.481
41079W        W  340  33.899  14.589   0.879
41080W        W  341   0.860   7.209   2.871
41081W        W  342   6.370  29.504   0.870
41082W        W  343  15.655  34.864   3.171
41083W        W  344  21.156  24.994   4.314
41084W        W  345  35.023  11.128   2.681
41085W        W  346  27.676  15.239   4.653
41086W        W  347  18.724   5.345  11.020
41087W        W  348  33.994  22.095   4.308
41088W        W  349  18.722   0.815  10.554
41089W        W  350  13.160  12.213   4.244
41090W        W  351  22.251  25.217  10.974
41091W        W  352  22.061   6.305   3.347
41092W        W  353  32.925  19.060   4.232
41093W        W  354  38.826  29.108  14.860
41094W        W  355  12.780  10.355   2.212
41095W        W  356   4.370   6.218   0.818
41096W        W  357  23.536  23.642   0.743
41097W        W  358   4.813   8.253  11.954
41098W        W  359  44.923  39.950  14.446
41099W        W  360  25.584   4.713  14.490
41100W        W  361  15.215  41.951  14.363
41101W        W  362  44.819  25.656  12.348
41102W        W  363  32.533  30.442   3.678
41103W        W  364  22.712  37.027  10.602
41104W        W  365  42.303   6.411  10.550
41105W        W  366  31.146  12.738  10.910
41106W        W  367   4.762  24.203   0.380
41107W        W  368  38.956  26.614  10.457
41108W        W  369   2.957  10.765   4.114
41109W        W  370  23.545  21.556   2.324
41110W        W  371   1.756   2.455   0.827
41111W        W  372   4.774  28.570   4.204
41112W        W  373  20.135  40.474  12.386
41113W        W  374  28.183  10.346   2.206
41114W        W  375  33.478  13.202   4.775
41115W        W  376  14.613  16.802   1.377
41116W        W  377  26.173  42.377  11.959
41117W        W  378  34.514  25.650  10.908
41118W        W  379   6.206   1.442   2.288
41119W        W  380   6.200  35.545  10.958
41120W        W  381   3.831  24.989   1.211
41121W        W  382  20.583   5.738  11.592
41122W        W  383  27.630  40.958  12.998
41123W        W  384  33.477   4.704  10.943
41124W        W  385  39.065   3.805   2.810
41125W        W  386  19.072  22.736  13.015
41126W        W  387  19.145  38.037   4.601
41127W        W  388  39.387  19.612   1.235
41128W        W  389  36.852  11.659   2.828
41129W        W  390  26.038   1.426  12.004
41130W        W  391  12.239  28.581   1.293
41131W        W  392   2.903   7.755  13.013
41132W        W  393  36.944  20.240  10.935
41133W        W  394  43.306  10.765  13.939
41134W        W  395  26.202  43.934   3.792
41135W        W  396  33.983  19.051   0.285
41136W        W  397  19.155  18.187   3.713
41137W        W  398  21.159  19.133  13.544
41138W        W  399  41.903  19.734   4.688
41139W        W  400  25.996  21.601   1.426
41140W        W  401  10.633  26.612  11.454
41141W        W  402  18.703  30.090   3.647
41142W        W  403  13.122  12.195  11.000
41143W        W  404   0.392  34.414  14.837
41144W        W  405  36.542  40.325   4.222
41145W        W  406  42.900  32.111   2.729
41146W        W  407  40.814  39.822  11.931
41147W        W  408  34.558  24.112   3.273
41148W        W  409  10.377  16.314  11.966
41149W        W  410  12.189   7.838  14.316
41150W        W  411  22.543  29.133   4.767
41151W        W  412  31.642  43.470  11.592
41152W        W  413  34.549  15.754  12.966
41153W        W  414  23.139  26.684  13.816
41154W        W  415   6.364   9.722   1.416
41155W        W  416   6.781  37.398  14.419
41156W        W  417   7.772  32.563  10.982
41157W        W  418   5.415  28.088  12.948
41158W        W  419  11.861  44.469   4.736
41159W        W  420  35.000   8.166   1.746
41160W        W  421  39.992  16.187  13.907
41161W        W  422   7.318  42.303  11.589
41162W        W  423  29.652  39.443   4.345
41163W        W  424  27.015  34.583  11.579
41164W        W  425   1.946   9.668  10.413
41165W        W  426   1.397  26.674   0.481
41166W        W  427  33.957  18.214   1.793
41167W        W  428  36.939  25.534  14.916
41168W        W  429  34.415   5.427   5.237
41169W        W  430  40.409  27.510   1.709
41170W        W  431  13.765   7.382  10.600
41171W        W  432   6.824  31.972  14.971
41172W        W  433   7.699  18.121  11.981
41173W        W  434  20.610  27.946   3.250
41174W        W  435  27.648  14.604  12.038
41175W        W  436  21.689  12.668   0.317
41176W        W  437  19.607  15.583   3.165
41177W        W  438  42.423  28.011   3.689
41178W        W  439  44.453  11.671  13.489
41179W        W  440  21.734  43.958   2.229
41180W        W  441  23.001  24.539   4.822
41181W        W  442  16.234  17.231  14.460
41182W        W  443   8.242  18.108  11.409
41183W        W  444   4.860   7.204  12.512
41184W        W  445  12.229   9.740  11.976
41185W        W  446   9.764   6.397   4.809
41186W        W  447  32.140  18.088  13.797
41187W        W  448  11.365  14.139   0.332
41188W        W  449  40.848   2.803  11.539
41189W        W  450   2.416   7.704   1.379
41190W        W  451  18.560  13.777   4.611
41191W        W  452  18.104   5.387   2.868
41192W        W  453  15.629  31.521   3.190
41193W        W  454  22.103   1.420   1.397
41194W        W  455  43.292  23.729  14.834
41195W        W  456  26.952  15.820  11.539
41196W        W  457  25.203  41.420  12.066
41197W        W  458  24.724  21.148  14.841
41198W        W  459  12.348  42.976  12.992
41199W        W  460  36.887  34.872   2.377
41200W        W  461   7.784  18.682   0.332
41201W        W  462  23.108  30.442  12.457
41202W        W  463  16.671  42.963  14.978
41203W        W  464   4.418  16.304   3.654
41204W        W  465  32.117  36.433  12.429
41205W        W  466  38.899  42.990  12.017
41206W        W  467   1.794  12.251  11.095
41207W        W  468  35.502  26.517   1.245
41208W        W  469  34.015   4.296   4.740
41209W        W  470  10.695  15.240   0.465
41210W        W  471   1.779  25.974   4.278
41211W        W  472  28.154   4.312  11.402
41212W        W  473  24.606  17.604   2.747
41213W        W  474   6.334  35.961  14.340
41214W        W  475   2.394  32.403   2.790
41215W        W  476  30.011  23.168   1.441
41216W        W  477  35.047   0.409  13.474
41217W        W  478  41.820   2.279  10.495
41218W        W  479  10.320  20.148  10.509
41219W        W  480   4.793   6.371   0.467
41220W        W  481  44.856  19.536   2.815
41221W        W  482  17.751  15.185   0.934
41222W        W  483   3.321  11.654   0.374
41223W        W  484   1.870  42.352  11.043
41224W        W  485  41.472  15.749   3.782
41225W        W  486  13.135  24.538   0.809
41226W        W  487   6.751  35.080  10.938
41227W        W  488  14.114  42.023  13.423
41228W        W  489  20.627  26.175  14.843
41229W        W  490  37.514   7.331   4.175
41230W        W  491  32.010   5.892  14.778
41231W        W  492  35.377   6.845   0.354
41232W        W  493  33.590  43.967   9.967
41233W        W  494  13.785  30.120   4.162
41234W        W  495  10.295  26.697   4.283
41235W        W  496  27.503  38.461   2.321
41236W        W  497  19.193  41.501   0.871
41237W        W  498  39.476  14.754   4.672
41238W        W  499  19.177  26.175   0.742
41239W        W  500  41.347  11.795  14.374
41240W        W  501  40.832  22.198  13.484
41241W        W  502  27.088  40.037  13.483
41242W        W  503  33.913  39.922   2.332
41243W        W  504  42.526  27.130   0.964
41244W        W  505   2.847  36.537  14.903
41245W        W  506  41.358   7.263  10.608
41246W        W  507  18.258  38.924   2.267
41247W        W  508  24.497  34.026  13.871
41248W        W  509  28.464  39.323  10.914
41249W        W  510  27.124  23.495   3.647
41250W        W  511   8.776  20.529   3.325
41251W        W  512   9.229  39.398   1.433
41252W        W  513  16.111   6.794  12.071
41253W        W  514  16.633  19.633   2.282
41254W        W  515  21.577  35.942   2.406
41255W        W  516  33.089  16.629  11.565
41256W        W  517  12.761  43.905  14.773
41257W        W  518  17.617  17.292  14.801
41258W        W  519   0.464  14.711   0.934
41259W        W  520   3.317  10.369  14.368
41260W        W  521  16.155  15.762  13.330
41261W        W  522  19.719  16.113  12.440
41262W        W  523   2.311  37.547  13.870
41263W        W  524  35.872  20.155  13.915
41264W        W  525  41.386   3.382  11.494
41265W        W  526  27.949  34.459   1.881
41266W        W  527  44.804  12.312  13.061
41267W        W  528  24.628  20.741   2.315
41268W        W  529  41.814  29.114   5.290
41269W        W  530  27.158   3.266   5.265
41270W        W  531   8.217  19.059   3.833
41271W        W  532  35.432  44.818   4.752
41272W        W  533   7.218  32.901  13.330
41273W        W  534  10.167   3.284  12.966
41274W        W  535  21.517  36.530   2.750
41275W        W  536   1.960  36.026   3.324
41276W        W  537  21.096  14.760  14.811
41277W        W  538  25.163  39.430   2.361
41278W        W  539  43.874  19.593  11.487
41279W        W  540  29.560  34.944   1.242
41280W        W  541  43.375  10.277   9.989
41281W        W  542  13.662   4.747  12.405
41282W        W  543   9.157  41.516  10.627
41283W        W  544   8.707   2.269   4.233
41284W        W  545  41.852  22.094   0.895
41285W        W  546  38.943  32.106   0.386
41286W        W  547   9.181   7.907  12.378
41287W        W  548  25.541  43.797   2.666
41288W        W  549  33.970  13.312   0.750
41289W        W  550  27.975  28.082   5.302
41290W        W  551   8.290   9.314   0.819
41291W        W  552  26.554  23.703   4.289
41292W        W  553  13.345  15.176  14.439
41293W        W  554  40.525  31.630  11.582
41294W        W  555  25.665  30.053   3.313
41295W        W  556  39.472  24.496   0.870
41296W        W  557  16.249  28.577  13.955
41297W        W  558  30.005  42.885  11.526
41298W        W  559  16.736  15.262  13.364
41299W        W  560  42.892  44.801   2.317
41300W        W  561   3.750   7.786  11.083
41301W        W  562  22.650  40.315  12.493
41302W        W  563  39.465   4.859   4.750
41303W        W  564  12.287  35.854   0.359
41304W        W  565   0.300  12.210  13.870
41305W        W  566  39.334   3.806   3.172
41306W        W  567  15.131  16.717   3.859
41307W        W  568  38.456   6.677  13.456
41308W        W  569  19.596  16.697  13.889
41309W        W  570  31.642  41.898  14.959
41310W        W  571  22.517  32.501   3.341
41311W        W  572  18.577  43.398  11.495
41312W        W  573  24.644   6.854   3.726
41313W        W  574  18.625  16.734  14.020
41314W        W  575   4.805  43.850  14.352
41315W        W  576  38.858   3.335   2.782
41316W        W  577  30.557  34.490  10.490
41317W        W  578  10.752  14.650   1.277
41318W        W  579   7.817  33.876  12.404
41319W        W  580  27.609  44.972   4.172
41320W        W  581  21.710   0.485   0.817
41321W        W  582  31.099   6.397   0.473
41322W        W  583  16.292  10.783  13.915
41323W        W  584  17.178  13.249  11.930
41324W        W  585  39.827  21.045  10.532
41325W        W  586   4.415  23.177  10.926
41326W        W  587  39.033  38.886  13.417
41327W        W  588   2.771  40.798  10.585
41328W        W  589   2.906  18.151   1.304
41329W        W  590  36.959  28.510   0.895
41330W        W  591   3.382  13.260  12.482
41331W        W  592  33.894  39.484   0.778
41332W        W  593   6.311   0.838   3.250
41333W        W  594  35.380  35.938  12.385
41334W        W  595  43.512   3.847  12.388
41335W        W  596   2.418  11.836  11.992
41336W        W  597  32.406  37.481   0.410
41337W        W  598  42.779  36.379  14.779
41338W        W  599  22.107  37.831   4.689
41339W        W  600  13.165  34.454  11.993
41340W        W  601   4.234  22.099   1.227
41341W        W  602   6.914   4.703   1.906
41342W        W  603   5.214  21.222  13.472
41343W        W  604  15.147   2.872   3.159
41344W        W  605  13.225  31.978   3.686
41345W        W  606   4.433   0.898  13.873
41346W        W  607  16.217  43.004   2.203
41347W        W  608  44.975  19.773   9.530
41348W        W  609  31.938  32.404  10.535
41349W        W  610  30.001   1.778   4.792
41350W        W  611  19.736   5.341  13.936
41351W        W  612  15.225  31.517   2.886
41352W        W  613  23.179  35.108  11.465
41353W        W  614  38.404  25.625   3.239
41354W        W  615  16.154  41.395   5.272
41355W        W  616  34.056  40.512  12.961
41356W        W  617   6.909  40.024  14.372
41357W        W  618  18.273  29.661   3.680
41358W        W  619  20.123  34.085   2.302
41359W        W  620  31.011  38.359  14.320
41360W        W  621   9.803  22.536  11.492
41361W        W  622  26.127  43.331  14.410
41362W        W  623  18.109  32.036   0.876
41363W        W  624  31.547  37.430   1.221
41364W        W  625  32.109  41.345  13.544
41365W        W  626   0.761  33.575  10.635
41366W        W  627  21.550  18.764   3.643
41367W        W  628  41.788  23.696   3.635
41368W        W  629  41.369  23.574   3.856
41369W        W  630  38.062  14.097  10.557
41370W        W  631  19.072  21.530   0.931
41371W        W  632   6.347  31.987   1.440
41372W        W  633  14.650   1.258   1.766
41373W        W  634  33.049  30.135   1.394
41374W        W  635  31.410  38.561  12.970
41375W        W  636  39.874  40.045   3.229
41376W        W  637  18.173  39.958  13.859
41377W        W  638   9.715  40.872  14.851
41378W        W  639  25.707   9.273  12.401
41379W        W  640  17.750  13.323  13.368
41380W        W  641  36.385  23.180  14.284
41381W        W  642  22.565  39.387  13.450
41382W        W  643  38.886  35.413  14.781
41383W        W  644   7.211   4.337   4.246
41384W        W  645  44.760  20.119   5.119
41385W        W  646  26.553  18.577  12.360
41386W        W  647  12.669  12.191   2.780
41387W        W  648  37.837  20.686  11.109
41388W        W  649  27.589  35.489  12.357
41389W        W  650   3.811  10.847   1.898
41390W        W  651   1.472  39.922  14.300
41391W        W  652  21.124  36.095  11.546
41392W        W  653  18.592  11.341  12.951
41393W        W  654  42.463  30.142  13.380
41394W        W  655  28.639  44.915   3.843
41395W        W  656  14.715  37.922  13.334
41396W        W  657  39.824  23.562  14.770
41397W        W  658  40.493  10.748   3.146
41398W        W  659  18.608  38.904  11.511
41399W        W  660   6.392  33.001   1.210
41400W        W  661  16.758  12.715  10.562
41401W        W  662  16.660  31.958   0.250
41402W        W  663   3.712   4.826   3.368
41403W        W  664  18.690  36.952  14.891
41404W        W  665  34.513  38.937   3.278
41405W        W  666  27.151   3.305   3.333
41406W        W  667   1.316   0.877  11.429
41407W        W  668  43.460  31.098   2.298
41408W        W  669  42.501  34.542  14.958
41409W        W  670  43.322  26.045   9.928
41410W        W  671   4.722  35.960  12.460
41411W        W  672  33.125  25.113  14.296
41412W        W  673   0.816  41.903  13.911
41413W        W  674  38.511  17.617  13.842
41414W        W  675   4.270   6.369   1.923
41415W        W  676   8.676  15.219   3.637
41416W        W  677   4.905   0.292   1.364
41417W        W  678  32.631   2.933  12.403
41418W        W  679   2.956  44.440  14.010
41419W        W  680  15.230   1.313   4.143
41420W        W  681  44.361   7.193   1.818
41421W        W  682  42.865   3.414  10.116
41422W        W  683  44.397  28.942  11.048
41423W        W  684  15.670  19.713   3.772
41424W        W  685  32.548   5.343  13.328
41425W        W  686   6.296  39.319  11.887
41426W        W  687  23.724  12.129  13.897
41427W        W  688   6.317  25.644  11.913
41428W        W  689  14.659   6.814   4.834
41429W        W  690  15.297  42.919   4.754
41430W        W  691  21.136   3.860   4.295
41431W        W  692  39.970  29.604  10.423
41432W        W  693   3.390  40.011   3.716
41433W        W  694  30.573  14.105  11.892
41434W        W  695  14.178   2.824  11.984
41435W        W  696  34.506  32.891   4.803
41436W        W  697  10.292   8.316  12.921
41437W        W  698  30.933  32.428   2.814
41438W        W  699  31.567  11.315   0.255
41439W        W  700  14.731   7.402   3.858
41440W        W  701   5.719  18.293   0.910
41441W        W  702  19.743  18.290   0.355
41442W        W  703   3.794   1.762   1.218
41443W        W  704  37.895  28.483   4.804
41444W        W  705   9.787  34.458   0.932
41445W        W  706   6.895  24.705  12.498
41446W        W  707   2.943  44.482   1.783
41447W        W  708  21.677  34.474  13.356
41448W        W  709  41.957  42.490  14.950
41449W        W  710  22.238  43.919   4.826
41450W        W  711  17.237   4.840   1.901
41451W        W  712  12.247   7.406  13.361
41452W        W  713  27.161   6.678   4.277
41453W        W  714  29.459   4.747   3.737
41454W        W  715  23.111   3.418   5.185
41455W        W  716  43.444   3.247   4.680
41456W        W  717  41.846   1.379  10.559
41457W        W  718  35.068   8.247  13.528
41458W        W  719  42.961  11.633   0.774
41459W        W  720  10.832  43.452  14.799
41460W        W  721  31.503  32.020  12.911
41461W        W  722  25.043   2.936   1.451
41462W        W  723  44.767  33.127  11.085
41463W        W  724  35.394  34.420   0.782
41464W        W  725  41.020  11.837   4.833
41465W        W  726  11.628  44.494   0.481
41466W        W  727  21.100  35.047  10.633
41467W        W  728  17.305   2.957   2.698
41468W        W  729   2.405  40.530  14.389
41469W        W  730  10.298  14.275   0.467
41470W        W  731   1.352  22.700  14.842
41471W        W  732  21.054  12.721  13.965
41472W        W  733   9.889  23.101   4.326
41473W        W  734  10.658  36.033  11.426
41474W        W  735  17.259   8.837  12.550
41475W        W  736  36.005  42.920   2.179
41476W        W  737  12.338  29.010   2.279
41477W        W  738  12.326  32.141   3.822
41478W        W  739   5.262   4.771   0.743
41479W        W  740  43.405   7.228   0.882
41480W        W  741   5.863  37.513  11.384
41481W        W  742   1.812   1.407   0.739
41482W        W  743  41.431  17.153   2.748
41483W        W  744  16.126  26.548   9.467
41484W        W  745  37.086   4.742  11.560
41485W        W  746  33.093   2.433   4.161
41486W        W  747  34.096  27.523  12.841
41487W        W  748  24.131  14.301  13.335
41488W        W  749  34.004  12.233  11.871
41489W        W  750  10.679   9.807   3.367
41490W        W  751  42.818   3.882  13.407
41491W        W  752  23.560   5.390   1.427
41492W        W  753  25.519  41.487  12.416
41493W        W  754   9.179  13.193   2.673
41494W        W  755   7.334  39.925  12.925
41495W        W  756  40.959  12.668   1.432
41496W        W  757  39.459   8.250   1.250
41497W        W  758   5.811  22.651   1.750
41498W        W  759   8.677  19.697  13.978
41499W        W  760  42.024  36.360  12.514
41500W        W  761   0.836  43.399   0.780
41501W        W  762  29.006   6.398  11.484
41502W        W  763  25.578  11.153   4.686
41503W        W  764  17.244  22.047   4.230
41504W        W  765   6.846  20.217  10.958
41505W        W  766   1.291   8.720   3.702
41506W        W  767  23.044  19.534   2.213
41507W        W  768   1.957  19.548  11.529
41508W        W  769  20.219  29.100  13.512
41509W        W  770  24.993  34.494   3.304
41510W        W  771  12.811  14.793   2.898
41511W        W  772  25.195  10.658   1.385
41512W        W  773  16.093  21.209   1.239
41513W        W  774  43.823  11.858   3.688
41514W        W  775  21.707  37.943  13.053
41515W        W  776  42.983  30.063   0.412
41516W        W  777  11.839  38.882   3.797
41517W        W  778  30.547   8.329   0.866
41518W        W  779  14.256  32.019   1.839
41519W        W  780  14.180  24.060   3.733
41520W        W  781  41.004  21.521  10.564
41521W        W  782   6.213  41.456   4.273
41522W        W  783  22.023  37.356   1.741
41523W        W  784  36.418  32.569  14.820
41524W        W  785  38.394   1.462  10.441
41525W        W  786   0.751   3.348  13.991
41526W        W  787  14.668  17.129   4.681
41527W        W  788  26.552   5.241  14.403
41528W        W  789  21.601  21.626  13.002
41529W        W  790  32.983   4.941  11.884
41530W        W  791  25.984   8.757   2.783
41531W        W  792  23.100  26.041   1.331
41532W        W  793  16.708  13.167  13.375
41533W        W  794  26.149  37.353  12.440
41534W        W  795  34.893  19.649  12.379
41535W        W  796  20.068  29.600   2.200
41536W        W  797   9.656  42.376   3.168
41537W        W  798  31.943  29.973   4.244
41538W        W  799  40.816  14.775   2.222
41539W        W  800  26.623   7.764  11.532
41540W        W  801  26.081  24.605   0.402
41541W        W  802  39.504  28.440   1.908
41542W        W  803  26.627  10.365   5.108
41543W        W  804  29.629  33.883  11.866
41544W        W  805  11.743  15.104   0.267
41545W        W  806  37.857  23.492  13.454
41546W        W  807  14.285  37.006  13.925
41547W        W  808   0.276   1.874   1.824
41548W        W  809  29.102  37.931  12.919
41549W        W  810  29.106  32.893   3.695
41550W        W  811  20.525  28.596   2.336
41551W        W  812  26.135  31.048   0.451
41552W        W  813  28.657  37.956  14.836
41553W        W  814  42.809   8.333  12.394
41554W        W  815  21.575  26.025  10.415
41555W        W  816   8.325  29.043  10.939
41556W        W  817  42.969  42.491  13.883
41557W        W  818  30.492  39.839   2.349
41558W        W  819  18.191  31.443  11.608
41559W        W  820   7.410  44.409   3.184
41560W        W  821  44.291  24.555   4.213
41561W        W  822  27.526  43.936   2.729
41562W        W  823   1.298  35.579   1.355
41563W        W  824  27.518  42.483   2.851
41564W        W  825  21.165  13.192   2.327
41565W        W  826  14.740  23.705   1.350
41566W        W  827  32.003  23.512   2.225
41567W        W  828  25.044  21.589   1.816
41568W        W  829   0.955  24.717   4.229
41569W        W  830  25.484   2.376   2.306
41570W        W  831  15.219  30.605   3.151
41571W        W  832   9.254  24.717  13.960
41572W        W  833  23.510  43.914   2.388
41573W        W  834   7.770  30.646   3.182
41574W        W  835   1.910  31.049  12.998
41575W        W  836  23.731  26.953   0.442
41576W        W  837  13.626  33.954   1.266
41577W        W  838  38.338  13.116  12.358
41578W        W  839  34.599  15.643   0.918
41579W        W  840  28.125  40.888  12.029
41580W        W  841  26.623  42.384   2.810
41581W        W  842  21.174  12.254  10.594
41582W        W  843  18.122  18.067   1.277
41583W        W  844   3.861  38.946  13.379
41584W        W  845   9.275  19.696  11.423
41585W        W  846  38.918   9.319   3.861
41586W        W  847   3.811   6.851  13.010
41587W        W  848  24.088   7.231   0.822
41588W        W  849  40.436  14.710   2.249
41589W        W  850  43.912  30.524  10.484
41590W        W  851  24.098  27.992  13.423
41591W        W  852   8.365  28.159   4.165
41592W        W  853  39.365  36.444  13.816
41593W        W  854   8.382  42.362   0.823
41594W        W  855   7.858  31.910  12.854
41595W        W  856  11.372  31.967  12.063
41596W        W  857   7.870   9.314   1.789
41597W        W  858  32.036  36.995  11.413
41598W        W  859  31.454   5.261   1.733
41599W        W  860   5.795  34.481  14.392
41600W        W  861   8.382  16.706  14.982
41601W        W  862  42.521  33.091   4.303
41602W        W  863  18.627  38.368   0.398
41603W        W  864  30.416  28.458   1.336
41604W        W  865  16.145  20.120   3.866
41605W        W  866  34.528  25.133   3.155
41606W        W  867  44.986  40.022  10.434
41607W        W  868  31.614   1.893   4.761
41608W        W  869   0.283   5.416  12.509
41609W        W  870  31.469  17.216   1.387
41610W        W  871  11.650  20.729   1.379
41611W        W  872  31.410  24.619  11.601
41612W        W  873  11.840  44.389  12.075
41613W        W  874  32.589  29.939   4.625
41614W        W  875  15.307  21.632  12.500
41615W        W  876  36.060  17.263   2.886
41616W        W  877  34.013  24.598   3.377
41617W        W  878  20.126  30.063  10.893
41618W        W  879  22.073  39.892   0.961
41619W        W  880  43.900  32.940  13.884
41620W        W  881  34.938  37.076   2.835
41621W        W  882  38.432  39.917  14.401
41622W        W  883  41.833   9.347  13.451
41623W        W  884  44.453  21.171  13.349
41624W        W  885  43.939  25.551   0.454
41625W        W  886  11.787  18.662  12.442
41626W        W  887  25.158  39.989   1.930
41627W        W  888   6.723  28.136  11.907
41628W        W  889  10.785  16.770  13.395
41629W        W  890  25.183  21.064   1.388
41630W        W  891  12.754  34.972   3.349
41631W        W  892  40.424  12.287  11.924
41632W        W  893  38.420  35.516  10.602
41633W        W  894  43.907  36.857  13.415
41634W        W  895  35.420   3.754   4.191
41635W        W  896  30.451  19.082   1.898
41636W        W  897  10.681  40.373  14.478
41637W        W  898  29.054  27.999   1.284
41638W        W  899   4.235   4.319  13.970
41639W        W  900  37.934  34.925  12.932
41640W        W  901   9.708  40.991  10.424
41641W        W  902   8.247  42.939   4.202
41642W        W  903  29.989   1.434   1.268
41643W        W  904   3.750  21.553   1.786
41644W        W  905  38.977  13.191   1.788
41645W        W  906  35.036  20.208   2.888
41646W        W  907  12.220   8.780  11.382
41647W        W  908  26.963  15.306  11.546
41648W        W  909   0.351  27.135   3.849
41649W        W  910  37.485  20.187   4.690
41650W        W  911  36.525  25.108   2.868
41651W        W  912  28.071  16.757  11.084
41652W        W  913  27.173  24.598   1.856
41653W        W  914  21.099  27.486  14.845
41654W        W  915   0.397  38.028  13.012
41655W        W  916  38.455  31.023   0.814
41656W        W  917   2.730  41.387  11.915
41657W        W  918  28.022   1.795   0.922
41658W        W  919  13.125  40.026   1.422
41659W        W  920  41.986   2.237   2.733
41660W        W  921   8.264  36.072   4.238
41661W        W  922  11.358   8.357  12.342
41662W        W  923  41.372  43.805  10.935
41663W        W  924  21.198  36.459  10.644
41664W        W  925  30.533  27.054  10.909
41665W        W  926  31.516  32.623  14.013
41666W        W  927  43.804  34.378  11.450
41667W        W  928  10.264  38.376  14.503
41668W        W  929  19.705  22.161   0.464
41669W        W  930  18.691  34.524  11.983
41670W        W  931  26.203  26.104   3.244
41671W        W  932  42.839  18.085   2.728
41672W        W  933  42.019  13.150   2.273
41673W        W  934  39.812  22.636  12.957
41674W        W  935   8.731  13.299   4.289
41675W        W  936   0.746  12.653  12.088
41676W        W  937  43.411  42.965   1.846
41677W        W  938  12.743   6.331  12.968
41678W        W  939  44.493  20.740   0.860
41679W        W  940  28.457   5.860  14.435
41680W        W  941   5.310  10.189   3.789
41681W        W  942  34.924  34.373   3.833
41682W        W  943  32.487  28.492  13.336
41683W        W  944  31.030  42.796   3.178
41684W        W  945  22.101  36.530  13.528
41685W        W  946   2.250  11.137   0.922
41686W        W  947  42.813  35.467   0.440
41687W        W  948   0.843  42.322   3.702
41688W        W  949  31.603   6.258  10.954
41689W        W  950  33.384   7.235  14.421
41690W        W  951   9.648  23.560  11.079
41691W        W  952   3.870  38.339  13.503
41692W        W  953  29.544  11.145   4.618
41693W        W  954  43.420  11.745   2.739
41694W        W  955   1.444  24.676  13.431
41695W        W  956  29.580  32.531  12.426
41696W        W  957  27.969  14.813  14.952
41697W        W  958  39.462   6.398   4.611
41698W        W  959  27.121  33.563  13.372
41699W        W  960  24.533  22.232   4.173
41700W        W  961  21.653   6.874  13.417
41701W        W  962   2.316  26.586  12.016
41702W        W  963  11.735   5.361   1.850
41703W        W  964  21.069  16.778  12.084
41704W        W  965  36.497   1.458  10.943
41705W        W  966  11.135  34.967  14.356
41706W        W  967  18.180  40.377   2.800
41707W        W  968  17.275   3.373   4.299
41708W        W  969   2.904   2.372  14.030
41709W        W  970  10.795  40.439   4.264
41710W        W  971   1.243   2.442   0.400
41711W        W  972  30.996  31.617  11.563
41712W        W  973  42.867  28.112   0.401
41713W        W  974  17.692  27.594   1.358
41714W        W  975  26.661  43.854   4.801
41715W        W  976  39.418  25.612  14.805
41716W        W  977  34.009  25.677  14.284
41717W        W  978   1.942  28.055   0.268
41718W        W  979  36.389   6.212   4.341
41719W        W  980  38.065  17.235  10.584
41720W        W  981  37.904  22.540  14.919
41721W        W  982  29.102  13.118   0.906
41722W        W  983  25.573   6.291   1.854
41723W        W  984   5.391   9.247   5.163
41724W        W  985  11.138  24.077   2.292
41725W        W  986   2.789  24.209   3.221
41726W        W  987  29.009   7.276   2.875
41727W        W  988  14.243   3.949  14.760
41728W        W  989  10.283  31.462   3.720
41729W        W  990  18.291  22.034  12.889
41730W        W  991  11.178   7.310  11.435
41731W        W  992  23.508   3.742   9.512
41732W        W  993  29.947  33.919   3.318
41733W        W  994  20.686  24.108  11.871
41734W        W  995  37.873  32.049   4.619
41735W        W  996   8.401  33.078  11.428
41736W        W  997   9.182  43.361   0.806
41737W        W  998   0.256   7.398   4.740
41738W        W  999  43.315   4.845  11.894
41739W        W 1000   5.776  31.976  14.328
41740W        W 1001  13.322   6.330  13.450
41741W        W 1002   2.412  13.140  13.411
41742W        W 1003  36.854  33.908   3.681
41743W        W 1004  20.151   8.312   1.245
41744W        W 1005  29.068   7.694   4.309
41745W        W 1006  15.298  16.595  13.821
41746W        W 1007  39.043  12.817  14.381
41747W        W 1008  44.300  42.377   4.642
41748W        W 1009  17.592  29.928   1.391
41749W        W 1010  28.187   9.345   3.335
41750W        W 1011   4.264  25.519   2.795
41751W        W 1012  11.212  15.277   4.723
41752W        W 1013  25.988  26.668  11.042
41753W        W 1014  43.965  20.106  14.909
41754W        W 1015  21.701  38.941   3.636
41755W        W 1016   9.240  10.770  11.911
41756W        W 1017  15.694  10.729   3.772
41757W        W 1018  41.333   3.874  14.920
41758W        W 1019  44.792  38.441  10.634
41759W        W 1020  36.971  21.159   2.242
41760W        W 1021  32.125  12.636   3.340
41761W        W 1022  16.627  14.255  14.490
41762W        W 1023  28.675  11.842  12.376
41763W        W 1024   8.356  19.266  14.776
41764W        W 1025  13.804  23.720   2.784
41765W        W 1026   4.229   2.812   3.753
41766W        W 1027  23.651  27.104   4.750
41767W        W 1028   0.392   0.787  12.509
41768W        W 1029  28.440  31.527  10.528
41769W        W 1030  11.837   2.332   2.741
41770W        W 1031  35.972  36.934  12.452
41771W        W 1032  20.171  26.206  10.537
41772W        W 1033  22.119  24.172   4.349
41773W        W 1034  11.708  29.012  12.030
41774W        W 1035   1.856  22.547   1.430
41775W        W 1036  17.622   3.895  14.009
41776W        W 1037   3.868  18.165  13.868
41777W        W 1038  23.661  36.062   4.195
41778W        W 1039  36.399   2.262  14.318
41779W        W 1040   3.258  26.639   4.314
41780W        W 1041   2.824  32.902   0.411
41781W        W 1042  40.923  39.986   3.342
41782W        W 1043   5.813  27.456  11.374
41783W        W 1044  36.489   7.242   1.370
41784W        W 1045   4.438   6.704   0.902
41785W        W 1046  19.205   2.392   0.776
41786W        W 1047  40.889  27.684   1.329
41787W        W 1048   6.913  26.553  12.469
41788W        W 1049  40.354   3.337  12.476
41789W        W 1050  15.603  27.522   1.306
41790W        W 1051  17.292  30.018   4.337
41791W        W 1052  13.258  44.331  10.435
41792W        W 1053   2.802  34.950  12.888
41793W        W 1054  32.525  14.235  14.024
41794W        W 1055   6.294  32.559  14.292
41795W        W 1056  27.666  21.736  12.401
41796W        W 1057  28.537  22.219   4.247
41797W        W 1058  29.170  40.492  14.477
41798W        W 1059  12.823  38.445  12.977
41799W        W 1060  11.278   8.283   3.746
41800W        W 1061  41.860  39.369   1.297
41801W        W 1062  11.703  19.547  14.891
41802W        W 1063  39.847  42.511  10.620
41803W        W 1064   8.802  12.765   4.212
41804W        W 1065  41.893  15.204   0.798
41805W        W 1066  16.663  30.550   1.298
41806W        W 1067   5.415   9.690   0.825
41807W        W 1068   6.700  26.635   4.154
41808W        W 1069  11.279  42.422   2.315
41809W        W 1070  15.117  21.724  14.783
41810W        W 1071  37.010  26.964   4.348
41811W        W 1072  15.662  22.140   1.350
41812W        W 1073  38.341  33.614   4.713
41813W        W 1074  32.924  33.439  12.943
41814W        W 1075  44.840   2.296  13.374
41815W        W 1076  35.405  25.608   3.680
41816W        W 1077  38.829  11.196  14.970
41817W        W 1078  22.102  42.795   3.179
41818W        W 1079  19.696   4.840   0.730
41819W        W 1080  19.265  36.571  13.916
41820W        W 1081   9.276   8.294   3.729
41821W        W 1082  32.587  37.988  14.975
41822W        W 1083  24.646   9.241   2.273
41823W        W 1084  28.983   3.302   1.756
41824W        W 1085  25.113  16.147  11.860
41825W        W 1086  21.532   3.842   0.406
41826W        W 1087  24.995  27.589  10.122
41827W        W 1088  44.974  17.673  12.527
41828W        W 1089   3.264  34.459  14.381
41829W        W 1090  34.975  16.080   4.727
41830W        W 1091  38.919  42.524   2.849
41831W        W 1092  39.038   4.870   5.249
41832W        W 1093  27.098  31.079  14.848
41833W        W 1094  38.550  18.764  11.898
41834W        W 1095   0.979  23.209   0.390
41835W        W 1096  39.432  25.584  13.814
41836W        W 1097   6.701  34.542   3.324
41837W        W 1098   5.815  40.404   1.251
41838W        W 1099  24.665  20.636   1.243
41839W        W 1100  18.614  39.846   3.221
41840W        W 1101  23.066  19.584   4.610
41841W        W 1102  36.460  28.070  12.838
41842W        W 1103  18.666  38.858  14.974
41843W        W 1104   5.321  11.352   3.714
41844W        W 1105  25.215  35.922  10.534
41845W        W 1106  14.774  27.509   1.820
41846W        W 1107   7.838  32.927  13.320
41847W        W 1108  19.220   0.929  10.475
41848W        W 1109  44.325  29.580   5.182
41849W        W 1110   8.724   0.965   0.424
41850W        W 1111  38.430   6.708   4.177
41851W        W 1112  21.088  38.414   2.687
41852W        W 1113  36.365  37.561   4.190
41853W        W 1114  41.397  19.753   4.613
41854W        W 1115  19.597  40.357  11.381
41855W        W 1116   5.823   0.359  14.795
41856W        W 1117  11.796  26.199   1.839
41857W        W 1118  38.426   0.434   2.218
41858W        W 1119  39.376  19.684  14.278
41859W        W 1120  38.888  28.435  14.919
41860W        W 1121   6.349  29.020   3.370
41861W        W 1122  33.114   6.252  10.411
41862W        W 1123  36.431   7.265  13.384
41863W        W 1124  11.623  19.064  10.403
41864W        W 1125  22.619   9.365  12.885
41865W        W 1126  44.261   7.416   2.376
41866W        W 1127  17.111  30.140   5.317
41867W        W 1128  26.605  27.138  14.963
41868W        W 1129  39.021  17.777   0.798
41869W        W 1130  43.908   1.421  10.610
41870W        W 1131   8.183   0.358  11.930
41871W        W 1132  19.222   1.287  10.995
41872W        W 1133  41.015  38.038   2.396
41873W        W 1134  38.410  16.276   9.614
41874W        W 1135  43.950   1.953  13.349
41875W        W 1136  27.553  44.886   0.464
41876W        W 1137  26.641  38.568  11.548
41877W        W 1138  12.829  17.301  12.898
41878W        W 1139  35.483  20.245  12.447
41879W        W 1140  32.561   1.977  11.955
41880W        W 1141  12.665  14.131   1.727
41881W        W 1142  26.096  30.428  13.541
41882W        W 1143  11.339  28.954   1.747
41883W        W 1144   1.821  24.548   2.308
41884W        W 1145  27.686  28.136   2.662
41885W        W 1146  19.762  16.141  13.394
41886W        W 1147  44.784  42.488   0.833
41887W        W 1148   2.942  25.474   4.351
41888W        W 1149  41.835   0.309  11.558
41889W        W 1150  38.023  33.542  11.945
41890W        W 1151   0.428   1.276   2.203
41891W        W 1152  34.525  24.220  13.813
41892W        W 1153  22.136   3.859   1.418
41893W        W 1154  42.917  12.354   4.349
41894W        W 1155  41.420  22.112  14.500
41895W        W 1156  19.078  24.025  11.569
41896W        W 1157  11.621  44.953   3.212
41897W        W 1158   7.336  23.138   4.282
41898W        W 1159  20.594  13.151  11.007
41899W        W 1160  43.386  42.445   0.287
41900W        W 1161  25.034  15.774   5.264
41901W        W 1162  31.632  21.233  13.448
41902W        W 1163   6.922  15.678   3.772
41903W        W 1164   9.271   0.831  11.040
41904W        W 1165  27.168  31.457   2.368
41905W        W 1166   1.261  38.821  11.400
41906W        W 1167   0.743  44.298   3.222
41907W        W 1168  42.969  21.622   0.849
41908W        W 1169  10.863   6.401  10.623
41909W        W 1170  27.009  36.952  12.399
41910W        W 1171  37.547  17.306  13.988
41911W        W 1172  23.505  17.066  13.000
41912W        W 1173   9.263  14.222  14.433
41913W        W 1174   6.761  17.697  12.890
41914W        W 1175  19.632  43.906   3.213
41915W        W 1176  39.021  38.000  14.769
41916W        W 1177  31.137  12.681   3.662
41917W        W 1178  26.490   1.911  11.568
41918W        W 1179  10.787  44.978   1.285
41919W        W 1180   0.915  13.181   4.114
41920W        W 1181  10.384  32.505  13.447
41921W        W 1182  43.438   8.257   3.863
41922W        W 1183  26.663  25.529  13.374
41923W        W 1184  38.898   7.361  10.483
41924W        W 1185  35.392  25.071   3.300
41925W        W 1186  14.791   2.785   4.698
41926W        W 1187  25.112  24.657  11.076
41927W        W 1188  21.755  17.238   1.884
41928W        W 1189  44.931  18.251  13.501
41929W        W 1190  37.930   3.768  10.933
41930W        W 1191  44.477  27.940   9.664
41931W        W 1192  16.671  14.234  13.380
41932W        W 1193  30.924   1.951   3.643
41933W        W 1194  20.692  24.526   0.343
41934W        W 1195  15.820  24.510  11.908
41935W        W 1196   3.879   8.211   4.264
41936W        W 1197  38.829  13.836   1.286
41937W        W 1198  20.079  35.586   1.901
41938W        W 1199   3.301   2.373  12.493
41939W        W 1200   1.479  43.272   0.267
41940W        W 1201  38.420  21.578   3.743
41941W        W 1202   4.878   7.403   2.191
41942W        W 1203   7.714   2.956  14.760
41943W        W 1204  16.619  44.998   4.355
41944W        W 1205  34.386  11.669  14.021
41945W        W 1206   0.355  36.390  12.013
41946W        W 1207  30.135   5.202  11.915
41947W        W 1208   6.781  33.022   2.391
41948W        W 1209  26.012   2.414   0.341
41949W        W 1210  36.566  38.563  10.894
41950W        W 1211  26.088  24.696   2.374
41951W        W 1212   0.445  23.051   1.884
41952W        W 1213  11.782  11.261  13.816
41953W        W 1214  10.638  25.140   0.247
41954W        W 1215   8.183  38.861   1.252
41955W        W 1216  23.173  25.030   4.603
41956W        W 1217  20.094  15.167  13.335
41957W        W 1218  34.943  31.499   3.700
41958W        W 1219  26.139  43.016  14.860
41959W        W 1220  12.216   5.299   2.879
41960W        W 1221   5.201  13.283  14.978
41961W        W 1222  31.630  15.234  11.108
41962W        W 1223  22.584  36.014   4.173
41963W        W 1224  21.118  24.977  14.333
41964W        W 1225   5.359  10.838  12.970
41965W        W 1226   0.377  35.564  13.502
41966W        W 1227  43.971  36.506  14.905
41967W        W 1228  31.429   8.658   0.850
41968W        W 1229  13.219   7.837  10.053
41969W        W 1230  13.788  42.019  14.411
41970W        W 1231  42.968  26.503  12.546
41971W        W 1232   4.834  29.932  12.823
41972W        W 1233   7.229   5.208   3.286
41973W        W 1234  15.249  39.382  11.025
41974W        W 1235  31.920  33.605   3.644
41975W        W 1236  34.520  10.857   5.176
41976W        W 1237   6.736  25.982   4.650
41977W        W 1238   7.737  43.843   2.190
41978W        W 1239  42.000  22.033  10.074
41979W        W 1240   5.399   0.358   2.891
41980W        W 1241  40.033  32.477   4.649
41981W        W 1242   3.424  42.398  14.450
41982W        W 1243  14.663  40.526   2.260
41983W        W 1244  38.561  17.673  14.795
41984W        W 1245  37.437   6.892   2.869
41985W        W 1246  14.669  36.551   1.839
41986W        W 1247  13.695  22.745  13.460
41987W        W 1248  26.668  32.012  13.861
41988W        W 1249  20.253  12.327   0.336
41989W        W 1250  25.164   1.451  13.547
41990W        W 1251  31.001  41.823  12.978
41991W        W 1252  21.523  20.542   0.391
41992W        W 1253  24.663  28.166   1.308
41993W        W 1254  33.598  40.052  13.384
41994W        W 1255  27.689  13.758  14.890
41995W        W 1256   2.957  42.373  11.372
41996W        W 1257  17.178  19.227  13.053
41997W        W 1258  28.555  39.881   2.290
41998W        W 1259  21.257  30.026  10.930
41999W        W 1260  34.595  15.771   0.265
42000W        W 1261  23.688  25.186  14.806
42001W        W 1262  44.829  30.613   2.801
42002W        W 1263   2.842  38.432   2.365
42003W        W 1264  42.321  18.170  12.010
42004W        W 1265  43.494  22.131  13.394
42005W        W 1266  21.666  22.122   0.896
42006W        W 1267  20.145  25.011   4.148
42007W        W 1268  34.901  21.046  14.514
42008W        W 1269  19.769  30.058  10.961
42009W        W 1270   3.263  39.867  12.904
42010W        W 1271  13.310  26.031  11.447
42011W        W 1272  29.503  14.209  11.594
42012W        W 1273  19.586   0.847  13.841
42013W        W 1274  44.930  33.610   4.613
42014W        W 1275  13.226  12.316  14.358
42015W        W 1276  40.032  26.484  13.967
42016W        W 1277  27.505   3.427   0.910
42017W        W 1278  38.432  10.846   1.325
42018W        W 1279  36.969   1.348   4.745
42019W        W 1280  20.541  42.355  10.491
42020W        W 1281  30.467  15.710  12.485
42021W        W 1282  28.649  41.868   3.654
42022W        W 1283  15.324   1.365  14.508
42023W        W 1284  29.646  10.864  14.804
42024W        W 1285  13.746  37.847  12.924
42025W        W 1286  37.082  36.548   2.836
42026W        W 1287  31.964  30.070   1.293
42027W        W 1288  16.679  17.601  11.900
42028W        W 1289   4.834  41.037  10.423
42029W        W 1290  30.455  15.580  11.607
42030W        W 1291  32.004   6.413   2.377
42031W        W 1292  34.509   7.238   1.336
42032W        W 1293  16.661  22.022   2.700
42033W        W 1294  12.693   6.261  14.480
42034W        W 1295   6.322  11.367  14.430
42035W        W 1296  12.259  17.578   2.370
42036W        W 1297  25.211  26.044  12.574
42037W        W 1298  18.571  41.839   0.767
42038W        W 1299   3.951  31.646   3.246
42039W        W 1300  17.061  20.204  13.496
42040W        W 1301   6.683   6.863  13.815
42041W        W 1302  23.645  16.782   2.328
42042W        W 1303  29.937  17.680   4.340
42043W        W 1304  10.321  38.518  13.383
42044W        W 1305   0.770   9.883   3.734
42045W        W 1306  19.593  44.998  14.341
42046W        W 1307  23.606  31.041   2.414
42047W        W 1308   9.779   7.898   2.199
42048W        W 1309  41.447  42.822  10.935
42049W        W 1310  13.109  13.213  13.836
42050W        W 1311  21.669  24.180   0.776
42051W        W 1312  23.174  19.587  12.831
42052W        W 1313  28.945  22.161   0.832
42053W        W 1314  37.581  43.327   1.719
42054W        W 1315  23.088  29.650   1.325
42055W        W 1316   3.789  38.519   2.293
42056W        W 1317  29.163  39.401  14.378
42057W        W 1318  32.969   2.851  14.362
42058W        W 1319  15.724  32.555   5.253
42059W        W 1320  31.016  36.075   5.197
42060W        W 1321  30.578  25.568  11.558
42061W        W 1322  31.941  15.175  11.471
42062W        W 1323  28.573  40.389  10.435
42063W        W 1324  35.897  10.657  14.911
42064W        W 1325  30.026  15.627   3.384
42065W        W 1326  31.076  41.378  11.526
42066W        W 1327  21.672  39.857  14.502
42067W        W 1328  43.357  10.683   4.670
42068W        W 1329  24.714  34.912   1.282
42069W        W 1330   5.765  23.625   2.184
42070W        W 1331  11.129   5.716   4.141
42071W        W 1332  21.233  12.820  11.874
42072W        W 1333  38.054  34.559   3.152
42073W        W 1334   2.959   3.730   2.411
42074W        W 1335  18.283  20.064   1.911
42075W        W 1336  34.463  10.711   4.652
42076W        W 1337   1.359  28.008  10.561
42077W        W 1338  19.115   0.851   0.267
42078W        W 1339   3.913  26.121  12.404
42079W        W 1340   8.295  21.706  11.435
42080W        W 1341   7.339  29.521   4.701
42081W        W 1342  17.647  18.237   3.756
42082W        W 1343  39.888  33.532   4.215
42083W        W 1344  22.206  40.494  11.046
42084W        W 1345  44.363  25.667  11.065
42085W        W 1346  12.152  13.257  12.367
42086W        W 1347  39.558  42.404   1.835
42087W        W 1348  25.071   5.759  11.915
42088W        W 1349  11.324  41.020  12.892
42089W        W 1350  12.678  10.761  12.412
42090W        W 1351   5.717  28.150   3.662
42091W        W 1352   4.340  41.942  11.398
42092W        W 1353   1.735  20.103   4.790
42093W        W 1354   9.309  24.176  13.382
42094W        W 1355  39.407  13.844  13.332
42095W        W 1356  43.770  12.713  10.926
42096W        W 1357  20.090  16.763   3.804
42097W        W 1358  31.994   4.388   2.208
42098W        W 1359  27.037  41.430   3.263
42099W        W 1360  38.441  31.483  11.967
42100W        W 1361   2.416  28.976  14.967
42101W        W 1362  33.938   3.885  14.957
42102W        W 1363  28.464  27.486   3.704
42103W        W 1364  44.348  32.000   3.773
42104W        W 1365   3.867   8.809  13.374
42105W        W 1366  19.720   3.262   5.110
42106W        W 1367  41.841  22.175   3.704
42107W        W 1368  34.554  23.549   3.285
42108W        W 1369  11.842   8.226   3.254
42109W        W 1370   1.740  15.805   2.668
42110W        W 1371   6.914   2.381  13.548
42111W        W 1372  19.700  33.010  13.406
42112W        W 1373  17.667   1.435   4.785
42113W        W 1374  23.616  40.451   3.701
42114W        W 1375  33.932  10.642  11.385
42115W        W 1376  22.091  30.418   1.316
42116W        W 1377  39.947   2.308   4.806
42117W        W 1378  43.008  41.390  10.065
42118W        W 1379  37.849  16.152   3.706
42119W        W 1380  22.160   8.694  11.976
42120W        W 1381  19.061  10.855   1.898
42121W        W 1382  24.672  16.202  10.901
42122W        W 1383  15.681  16.225   2.313
42123W        W 1384   0.985  22.213   4.330
42124W        W 1385  13.730  37.385   4.229
42125W        W 1386  19.040   6.396  13.829
42126W        W 1387  20.668   3.260   2.193
42127W        W 1388   1.449  25.547  12.518
42128W        W 1389   5.922  11.368   4.348
42129W        W 1390  40.380  12.820   0.888
42130W        W 1391  38.009  35.537   9.565
42131W        W 1392  34.376   1.924  14.349
42132W        W 1393  35.589  16.309   2.768
42133W        W 1394   7.898  22.701   4.609
42134W        W 1395   3.877  32.434   3.331
42135W        W 1396  21.703  14.757   1.888
42136W        W 1397   2.452  32.045  10.593
42137W        W 1398  13.620   9.784   1.223
42138W        W 1399  20.227  14.097  10.088
42139W        W 1400  11.700  43.372   1.365
42140W        W 1401  40.391  33.534   2.416
42141W        W 1402  38.548  13.602   1.915
42142W        W 1403  31.030  32.137   0.458
42143W        W 1404  23.649  25.119  11.905
42144W        W 1405  24.029   7.367  10.086
42145W        W 1406  29.613  31.000   2.365
42146W        W 1407  32.606  33.075   4.299
42147W        W 1408  22.662   8.238   0.802
42148W        W 1409   0.293  13.198   0.321
42149W        W 1410  20.528   2.880  11.473
42150W        W 1411  23.170  30.414  13.465
42151W        W 1412  21.515  39.995   3.812
42152W        W 1413  14.260   4.874   0.473
42153W        W 1414   6.687   9.251  13.049
42154W        W 1415  28.463  32.985   3.258
42155W        W 1416  20.749  35.025   0.745
42156W        W 1417  27.487  39.017   1.382
42157W        W 1418  23.491   6.689   0.946
42158W        W 1419   7.899  35.450  12.397
42159W        W 1420  23.691  29.046  14.496
42160W        W 1421  42.995  25.154  12.511
42161W        W 1422  30.591  16.657  14.287
42162W        W 1423  34.893  38.448   2.676
42163W        W 1424  34.550  17.168  12.368
42164W        W 1425   1.338  25.653   4.268
42165W        W 1426  13.309  30.471   3.791
42166W        W 1427  25.023  42.910   4.274
42167W        W 1428   8.241  17.569   0.483
42168W        W 1429  17.258  42.520  10.492
42169W        W 1430  22.145  33.422   3.794
42170W        W 1431   4.414  40.312  14.886
42171W        W 1432   3.713  36.033   3.722
42172W        W 1433  29.602  13.197  11.610
42173W        W 1434   3.947  32.976   0.953
42174W        W 1435  39.459  20.175   1.259
42175W        W 1436  26.641  24.039   5.210
42176W        W 1437  32.955  25.706  10.408
42177W        W 1438  39.860  16.267   3.163
42178W        W 1439  28.967  19.091  11.555
42179W        W 1440  19.604   7.317   4.352
42180W        W 1441  33.018  17.218  11.112
42181W        W 1442  11.648  26.582  14.297
42182W        W 1443  21.024  12.717  10.905
42183W        W 1444  31.982  41.850  12.472
42184W        W 1445  36.389  15.765  13.446
42185W        W 1446  40.860  24.561   0.262
42186W        W 1447   8.717   9.342   5.258
42187W        W 1448   9.762  40.383   4.627
42188W        W 1449  11.308  10.332  11.607
42189W        W 1450   6.870  11.233  13.501
42190W        W 1451  17.585  37.341   3.858
42191W        W 1452  25.142  16.654  10.458
42192W        W 1453  27.596  18.791   3.321
42193W        W 1454   1.806  40.020   3.156
42194W        W 1455  23.510  43.307  12.083
42195W        W 1456  32.411  40.829  11.595
42196W        W 1457   8.737   0.968  11.931
42197W        W 1458  40.334  36.957   0.746
42198W        W 1459  16.123   8.333  14.406
42199W        W 1460  38.511  31.098  14.972
42200W        W 1461  17.115  39.926  11.976
42201W        W 1462  19.112  31.004  13.517
42202W        W 1463  35.530  26.110  10.422
42203W        W 1464  22.165  42.451   0.942
42204W        W 1465  42.862  11.127  11.598
42205W        W 1466  44.380  15.183   0.967
42206W        W 1467  34.952   4.332   2.414
42207W        W 1468  39.054  25.609  12.054
42208W        W 1469   1.751  40.540   2.662
42209W        W 1470  21.093   1.463  10.925
42210W        W 1471  22.594   5.798  13.446
42211W        W 1472  24.491  43.496  12.889
42212W        W 1473   8.388  31.633   2.740
42213W        W 1474   6.812  40.039  12.844
42214W        W 1475  40.948  37.468  12.433
42215W        W 1476  40.053  43.511   2.359
42216W        W 1477  17.223  42.498   1.867
42217W        W 1478   7.345  25.529  11.426
42218W        W 1479  33.917  12.151  13.043
42219W        W 1480  17.596   9.846   0.329
42220W        W 1481   5.806  13.803  13.455
42221W        W 1482  39.056   3.739  13.522
42222W        W 1483  34.888   6.740  12.371
42223W        W 1484  36.866  37.341   0.400
42224W        W 1485   8.880  10.637  14.023
42225W        W 1486  15.622  14.204   5.111
42226W        W 1487  20.677  16.206   4.669
42227W        W 1488  11.311   3.949   0.957
42228W        W 1489  31.475  12.800  10.619
42229W        W 1490  44.376  32.612  14.302
42230W        W 1491  24.116  20.221   1.264
42231W        W 1492  31.960  31.035   0.937
42232W        W 1493  20.193  40.392  11.865
42233W        W 1494  43.991  40.315   0.353
42234W        W 1495  40.314   0.307  11.924
42235W        W 1496  10.366  13.234   4.215
42236W        W 1497  24.506  10.306   1.303
42237W        W 1498   4.436  26.999  12.901
42238W        W 1499  29.165  41.415  14.370
42239W        W 1500  12.184  21.640   2.321
42240W        W 1501  36.479   9.669  10.919
42241W        W 1502  17.178  13.830  13.054
42242W        W 1503  42.824  10.645   1.284
42243W        W 1504  44.993  19.075  10.501
42244W        W 1505   8.245  33.496  13.484
42245W        W 1506  30.441   5.803   4.309
42246W        W 1507  37.868  27.109  14.289
42247W        W 1508  38.403  44.279  14.898
42248W        W 1509  33.002  33.602  10.473
42249W        W 1510  24.609   6.391   1.287
42250W        W 1511  29.097  21.201  14.447
42251W        W 1512  10.204  30.546  11.859
42252W        W 1513   8.681   4.900  14.311
42253W        W 1514  44.803  33.530   0.938
42254W        W 1515  31.620   0.815   3.258
42255W        W 1516  17.266   0.364   9.985
42256W        W 1517   9.392   7.227   4.257
42257W        W 1518  26.149  30.562   2.833
42258W        W 1519  29.007  23.595  12.535
42259W        W 1520  25.083  32.630  12.402
42260W        W 1521  44.465  42.022   5.307
42261W        W 1522  15.329   2.407   4.798
42262W        W 1523  24.603  43.964   1.238
42263W        W 1524  34.446  39.322  13.925
42264W        W 1525   8.884   5.315  14.454
42265W        W 1526  34.118  15.775  10.440
42266W        W 1527  39.351  32.903  11.982
42267W        W 1528  29.545   4.877   5.294
42268W        W 1529  31.614  44.000  14.417
42269W        W 1530  42.508  32.618   3.690
42270W        W 1531  44.418  44.937  14.771
42271W        W 1532   4.830  13.283  11.433
42272W        W 1533   9.648  16.298   2.291
42273W        W 1534   4.744   6.184   4.806
42274W        W 1535  40.815  16.591  13.444
42275W        W 1536  30.421  34.556  10.905
42276W        W 1537   4.736  32.099  14.440
42277W        W 1538   3.231  11.836   3.713
42278W        W 1539  40.392   6.700  10.412
42279W        W 1540  43.867  15.128   1.825
42280W        W 1541  25.674  14.618   2.334
42281W        W 1542  14.228  22.223   0.857
42282W        W 1543  26.101  15.232  11.575
42283W        W 1544  28.170  37.066   0.258
42284W        W 1545  42.885   7.394   3.740
42285W        W 1546  26.521  15.105   1.222
42286W        W 1547  24.064  44.761   4.313
42287W        W 1548   5.314  15.210  13.909
42288W        W 1549  21.096   7.777   0.956
42289W        W 1550  25.645  19.103   2.249
42290W        W 1551  23.020  11.702  11.931
42291W        W 1552  41.512  22.562  13.955
42292W        W 1553  35.992  28.045  11.943
42293W        W 1554  13.144  18.135   3.184
42294W        W 1555  17.564   4.282  14.455
42295W        W 1556  39.385  37.022  14.490
42296W        W 1557  27.593  37.875   3.340
42297W        W 1558  10.681   9.260   1.296
42298W        W 1559  20.619   7.906   1.289
42299W        W 1560  43.825   5.921  11.985
42300W        W 1561  38.916  28.965   0.879
42301W        W 1562  21.688  28.608   4.611
42302W        W 1563  35.957  16.671   4.681
42303W        W 1564  24.225  14.146  14.334
42304W        W 1565  11.279   0.891  14.287
42305W        W 1566  11.271   0.333   3.763
42306W        W 1567  21.064  32.890  14.825
42307W        W 1568  24.197   5.395  11.385
42308W        W 1569  19.250  39.876  11.121
42309W        W 1570  32.005  33.014   2.860
42310W        W 1571  33.604  34.605   9.956
42311W        W 1572  31.591  44.762  13.059
42312W        W 1573   6.420  23.104  12.923
42313W        W 1574  10.215  14.637   3.214
42314W        W 1575  33.040   3.854  11.543
42315W        W 1576   2.956  17.607   4.740
42316W        W 1577   5.716  26.641  12.569
42317W        W 1578  29.098  12.667   4.127
42318W        W 1579  30.958  24.165   2.343
42319W        W 1580  15.625  30.536  10.536
42320W        W 1581  37.466  22.248   2.357
42321W        W 1582  42.851  28.589   0.894
42322W        W 1583  39.334  40.343  12.484
42323W        W 1584  19.243  31.479   4.257
42324W        W 1585  10.278  44.470   5.244
42325W        W 1586  40.434  22.726   4.812
42326W        W 1587   4.260   5.315  12.476
42327W        W 1588   8.319  24.687   1.772
42328W        W 1589  38.509   0.366   3.348
42329W        W 1590  10.868  25.553   0.783
42330W        W 1591  20.269  25.506  14.444
42331W        W 1592  44.489   9.209   1.877
42332W        W 1593   0.928  38.887   4.127
42333W        W 1594   0.347   5.310   2.679
42334W        W 1595  22.616  20.254   5.264
42335W        W 1596  22.060  10.757   4.675
42336W        W 1597  37.060  31.977  12.963
42337W        W 1598  13.722  24.608   0.865
42338W        W 1599  17.580  31.559  11.944
42339W        W 1600  41.858  33.390   1.305
42340W        W 1601   7.349  33.063   0.483
42341W        W 1602   8.674  19.113  12.018
42342W        W 1603  19.071  33.431  10.953
42343W        W 1604  23.028   5.893   4.778
42344W        W 1605  23.176  44.009  14.882
42345W        W 1606   6.273   9.644  10.619
42346W        W 1607  31.000  27.196   0.928
42347W        W 1608  37.086   0.839  12.975
42348W        W 1609  33.417  17.592  12.511
42349W        W 1610   7.678  11.294  13.429
42350W        W 1611   4.803  35.065  13.391
42351W        W 1612  17.640  32.019   3.868
42352W        W 1613  40.993  14.283   3.356
42353W        W 1614   8.340  35.057  12.869
42354W        W 1615  22.724  14.116  10.968
42355W        W 1616  28.634  24.209   4.194
42356W        W 1617   5.919  20.582  12.479
42357W        W 1618  39.038  33.422  12.393
42358W        W 1619  27.489  36.892   0.343
42359W        W 1620  24.997  23.133  11.492
42360W        W 1621   1.383   9.172  13.057
42361W        W 1622  32.120   4.327  10.544
42362W        W 1623  15.237   1.897  12.448
42363W        W 1624  40.459  19.610  11.501
42364W        W 1625  26.960  31.114  12.508
42365W        W 1626  32.418  40.548  13.501
42366W        W 1627  29.460  24.550   1.851
42367W        W 1628  39.437  23.085  10.100
42368W        W 1629   2.415   7.864  11.105
42369W        W 1630  25.090   7.735   0.911
42370W        W 1631  18.285  25.610   3.324
42371W        W 1632   0.858  14.328   4.645
42372W        W 1633  14.251   8.695  12.028
42373W        W 1634  43.500  19.650  12.094
42374W        W 1635  19.555  31.638   2.759
42375W        W 1636  20.661  20.173  12.072
42376W        W 1637  11.746   0.984   3.201
42377W        W 1638  28.531  40.938   4.314
42378W        W 1639  28.577  10.819  14.305
42379W        W 1640  10.300  35.028   0.372
42380W        W 1641  14.775  39.893  12.369
42381W        W 1642  18.762  11.684  12.391
42382W        W 1643  27.461  27.590   1.862
42383W        W 1644  18.605   6.428  13.825
42384W        W 1645  39.982  11.152  13.542
42385W        W 1646  41.904  36.038  14.302
42386W        W 1647  14.607  35.023   1.217
42387W        W 1648  29.593  19.617  12.057
42388W        W 1649   8.824  12.177  10.600
42389W        W 1650  40.377  15.720   3.340
42390W        W 1651  35.894  30.134  12.486
42391W        W 1652  28.983  34.422   4.187
42392W        W 1653  41.294  37.456  12.386
42393W        W 1654  36.001  16.178   0.852
42394W        W 1655  39.850  19.767   2.206
42395W        W 1656   6.773   4.307  14.357
42396W        W 1657  34.583   4.813   3.375
42397W        W 1658  33.584   1.240   3.847
42398W        W 1659   7.392  43.847   3.340
42399W        W 1660  24.724  10.153   4.744
42400W        W 1661  11.849  27.651   3.217
42401W        W 1662  10.351   3.879  14.399
42402W        W 1663  28.599  25.996  13.934
42403W        W 1664  32.563  21.614  13.375
42404W        W 1665  29.492  38.971   3.148
42405W        W 1666  40.442  41.531  14.897
42406W        W 1667  23.566   4.849  13.517
42407W        W 1668  37.344   6.359   0.747
42408W        W 1669   1.831   3.284   4.685
42409W        W 1670  40.861  22.249  10.044
42410W        W 1671  14.323  34.874  11.864
42411W        W 1672   7.907  30.439  12.837
42412W        W 1673  23.552  12.222   0.424
42413W        W 1674  13.831  15.253  10.616
42414W        W 1675  18.755  10.311   5.113
42415W        W 1676  13.238  31.053   9.510
42416W        W 1677   6.725  11.806   3.645
42417W        W 1678  43.782  27.506   1.414
42418W        W 1679  25.649  38.829  10.000
42419W        W 1680  36.000  21.515  14.023
42420W        W 1681  11.771  35.912  12.386
42421W        W 1682  25.581  22.720   2.307
42422W        W 1683   7.275   2.320   0.308
42423W        W 1684   7.396   0.938   2.727
42424W        W 1685  23.726  18.240   4.257
42425W        W 1686  37.891   6.411   0.317
42426W        W 1687  26.951  15.188   0.806
42427W        W 1688  35.599   7.327   3.770
42428W        W 1689  11.693  27.482   1.407
42429W        W 1690  24.983   7.302   4.733
42430W        W 1691  38.876  29.046  13.818
42431W        W 1692  18.263  14.238  13.324
42432W        W 1693  15.184  23.147   0.767
42433W        W 1694   0.866   4.852   1.807
42434W        W 1695  21.040   8.800   3.865
42435W        W 1696  42.829  19.203   3.327
42436W        W 1697  11.840   9.191   2.733
42437W        W 1698  19.232  38.852   1.374
42438W        W 1699  39.955  22.746   1.324
42439W        W 1700  29.454  10.795  10.408
42440W        W 1701  14.809  24.176   1.293
42441W        W 1702  14.807   7.821   2.376
42442W        W 1703  44.868  35.416   2.348
42443W        W 1704  33.062  20.194  11.117
42444W        W 1705  32.623  14.290   0.286
42445W        W 1706  15.633  32.588  14.482
42446W        W 1707   2.764  27.643  14.829
42447W        W 1708   2.393  42.955   3.694
42448W        W 1709  21.597   0.954  13.369
42449W        W 1710  36.048  20.247   0.840
42450W        W 1711  43.309   4.870  11.544
42451W        W 1712  32.138  27.587   2.389
42452W        W 1713  36.002  35.579  11.988
42453W        W 1714  42.493  28.437  11.477
42454W        W 1715  17.556   3.238  10.449
42455W        W 1716   5.345  21.048  12.869
42456W        W 1717  38.486  30.067   3.278
42457W        W 1718   0.355   6.819  14.458
42458W        W 1719   0.300  10.780  13.876
42459W        W 1720  18.075  31.120   1.229
42460W        W 1721  21.623  18.551   0.788
42461W        W 1722  38.879  21.212  14.469
42462W        W 1723  12.752   0.268   4.127
42463W        W 1724  23.560   6.260   3.810
42464W        W 1725  20.583  14.783  14.944
42465W        W 1726  28.615  23.650   4.637
42466W        W 1727  10.224   3.341  14.402
42467W        W 1728   9.779  16.236  10.905
42468W        W 1729  27.533  20.602  12.465
42469W        W 1730  35.592  11.152   1.739
42470W        W 1731  14.767  18.598   0.315
42471W        W 1732  29.453  27.553   1.807
42472W        W 1733  32.019  29.548   1.449
42473W        W 1734  34.935  34.487   4.260
42474W        W 1735  22.707  26.576   5.189
42475W        W 1736  39.816   1.320  11.121
42476W        W 1737  20.252  32.533  12.402
42477W        W 1738  28.020  41.960   0.432
42478W        W 1739   2.878  14.290  14.913
42479W        W 1740   0.836  19.759   0.805
42480W        W 1741  11.243   0.974   2.674
42481W        W 1742  28.069  24.230   4.331
42482W        W 1743  26.497  43.505   0.307
42483W        W 1744   7.743  20.719  12.380
42484W        W 1745  18.138  25.149  12.051
42485W        W 1746   7.351  18.234   3.376
42486W        W 1747  22.231   8.242  13.910
42487W        W 1748  26.465  13.610   4.191
42488W        W 1749  22.176   8.680  11.078
42489W        W 1750   9.200  14.618  11.511
42490W        W 1751  42.889  30.110   3.751
42491W        W 1752   6.813  42.883   4.625
42492W        W 1753  41.992  29.083  11.947
42493W        W 1754  14.620  43.808   0.257
42494W        W 1755   6.222  44.346  13.390
42495W        W 1756  40.938   0.295   3.736
42496W        W 1757  40.040  33.023  14.951
42497W        W 1758   0.762  28.090   2.316
42498W        W 1759   4.393  22.999  13.907
42499W        W 1760  14.321   7.360  14.031
42500W        W 1761  20.194  32.568   2.838
42501W        W 1762  15.602  41.430  13.975
42502W        W 1763   5.689  38.360  12.497
42503W        W 1764  28.947  15.253   1.337
42504W        W 1765  29.987   0.453   2.194
42505W        W 1766  17.280   9.215   2.739
42506W        W 1767  33.032   7.713  13.833
42507W        W 1768   0.885   7.888   1.837
42508W        W 1769  19.719  25.637   2.361
42509W        W 1770  39.520  20.568  12.440
42510W        W 1771  10.373  39.558  14.394
42511W        W 1772  25.976   0.466  13.034
42512W        W 1773  19.173  19.735   1.253
42513W        W 1774  29.089   3.931  12.558
42514W        W 1775  24.597  35.418  11.507
42515W        W 1776  20.538  10.256   1.935
42516W        W 1777  40.860  31.520  11.925
42517W        W 1778   9.311  10.723   4.275
42518W        W 1779   8.216  34.521  13.501
42519W        W 1780  39.948  33.887  12.464
42520W        W 1781  40.512  22.605   3.754
42521W        W 1782  39.437  26.171   1.880
42522W        W 1783  42.309  44.895   3.212
42523W        W 1784  27.182  29.563   1.348
42524W        W 1785  25.525  35.385  12.362
42525W        W 1786   5.246  10.339  10.421
42526W        W 1787  15.822  33.105   3.217
42527W        W 1788  35.591  27.571   3.688
42528W        W 1789  19.124  40.922  13.994
42529W        W 1790   8.332  42.381  10.538
42530W        W 1791  12.270  41.841  10.924
42531W        W 1792  22.016  23.228   1.839
42532W        W 1793  19.147   5.367  12.452
42533W        W 1794   5.374  16.316  11.384
42534W        W 1795  29.986  22.196  10.520
42535W        W 1796  32.486   0.946  14.452
42536W        W 1797  32.455   6.692   0.790
42537W        W 1798  33.463  43.385  11.038
42538W        W 1799  15.091   1.836   3.176
42539W        W 1800   7.733  42.471  10.439
42540W        W 1801  31.442  22.999   4.826
42541W        W 1802  10.270  43.810  13.347
42542W        W 1803  44.420  17.607   0.750
42543W        W 1804  22.146  31.934   4.295
42544W        W 1805  15.743  17.303   1.419
42545W        W 1806  31.533   8.744  14.344
42546W        W 1807  33.002  19.683   0.288
42547W        W 1808   6.723   4.812   0.319
42548W        W 1809  39.905  25.483  14.857
42549W        W 1810   8.294  21.628  10.435
42550W        W 1811  32.113  13.135  13.362
42551W        W 1812  24.216   6.800   1.767
42552W        W 1813  20.763  39.332   3.829
42553W        W 1814   9.257  24.057  10.998
42554W        W 1815  24.117   2.250   1.338
42555W        W 1816  32.402   4.819   2.871
42556W        W 1817  40.813   6.806  10.995
42557W        W 1818  14.666  18.103   0.419
42558W        W 1819  12.761  31.611   2.381
42559W        W 1820   8.885  21.114  12.484
42560W        W 1821   7.887  12.353   0.881
42561W        W 1822  19.068  41.426   2.849
42562W        W 1823   4.227  35.523  13.970
42563W        W 1824  44.492  34.611   3.168
42564W        W 1825  21.722  41.025  12.550
42565W        W 1826  18.784  39.379   0.435
42566W        W 1827   0.407  37.438  12.069
42567W        W 1828  18.620  18.728  12.019
42568W        W 1829  42.869   8.751  10.946
42569W        W 1830  35.590  24.976   4.315
42570W        W 1831   3.821   6.818  10.485
42571W        W 1832  17.244  44.360   1.306
42572W        W 1833   5.836  14.724   1.795
42573W        W 1834  41.375  12.352  14.422
42574W        W 1835  26.611  10.354   4.812
42575W        W 1836  32.590  10.257   3.852
42576W        W 1837  29.475  21.205  14.869
42577W        W 1838  19.204  35.106  12.509
42578W        W 1839  12.208   9.354  13.435
42579W        W 1840  40.940  21.180   4.187
42580W        W 1841  12.154  23.697   4.304
42581W        W 1842  24.478  42.919   2.383
42582W        W 1843  20.070   3.909  14.815
42583W        W 1844  11.838  30.975   1.352
42584W        W 1845  22.503  41.792   4.638
42585W        W 1846   9.203  23.068   1.824
42586W        W 1847  17.785  10.184  10.033
42587W        W 1848  14.814  16.080  12.414
42588W        W 1849  30.145  32.476  13.845
42589W        W 1850   7.883  12.658  13.864
42590W        W 1851  23.654  16.715  12.351
42591W        W 1852   2.816  17.764  13.042
42592W        W 1853  14.834  17.215  14.759
42593W        W 1854  17.096  21.655  14.880
42594W        W 1855  38.925  18.128  13.350
42595W        W 1856  31.125  42.983  12.432
42596W        W 1857   6.273  16.674   2.320
42597W        W 1858  19.748  10.788  12.981
42598W        W 1859  39.831  38.892   3.277
42599W        W 1860   0.810  26.630  12.853
42600W        W 1861  16.090   8.283  11.489
42601W        W 1862  38.507  42.899  11.538
42602W        W 1863  20.180  29.975  14.941
42603W        W 1864  18.771  30.160  10.600
42604W        W 1865  14.275  36.897  12.969
42605W        W 1866  24.523  25.557  13.021
42606W        W 1867  29.593  22.009   2.730
42607W        W 1868  37.388  15.734   1.708
42608W        W 1869  22.627  32.503  11.895
42609W        W 1870   6.265  16.234  12.066
42610W        W 1871  30.010   0.920  12.971
42611W        W 1872  15.703  38.441  10.096
42612W        W 1873   4.286  33.895  10.487
42613W        W 1874  44.991   1.749   2.304
42614W        W 1875  26.076  33.569   5.804
42615W        W 1876  24.136   9.350  12.521
42616W        W 1877   3.285  18.204   1.728
42617W        W 1878  17.606  23.496   3.854
42618W        W 1879  11.188  31.624  10.516
42619W        W 1880  39.331  23.156  12.954
42620W        W 1881  32.968   3.306   1.714
42621W        W 1882   7.190  25.627   1.838
42622W        W 1883   8.677  40.864   0.314
42623W        W 1884  40.327  16.238   4.132
42624W        W 1885  15.223   5.325  13.830
42625W        W 1886  34.905   0.294   0.935
42626W        W 1887  40.517  26.161   0.424
42627W        W 1888  39.059  32.021  14.929
42628W        W 1889  12.208  31.960  11.548
42629W        W 1890  34.465   2.445   3.221
42630W        W 1891  18.584  42.461   2.798
42631W        W 1892  16.709   9.774   0.867
42632W        W 1893  12.809  21.671  13.319
42633W        W 1894  42.816  39.060  13.428
42634W        W 1895  31.421  43.769  13.999
42635W        W 1896   7.674   2.308   2.341
42636W        W 1897  16.275  21.155  11.957
42637W        W 1898   2.912  24.516  11.910
42638W        W 1899  16.576  32.420   3.847
42639W        W 1900  39.547   2.854  12.921
42640W        W 1901  37.477  29.149  11.472
42641W        W 1902  39.877  24.113   2.367
42642W        W 1903  37.470  30.961   2.679
42643W        W 1904  44.888  22.673  10.022
42644W        W 1905  12.342  43.949  14.514
42645W        W 1906  33.978   5.234  11.460
42646W        W 1907  25.983  10.364  10.585
42647W        W 1908  18.740  31.976   0.802
42648W        W 1909   6.871  41.477   4.170
42649W        W 1910  27.971  36.913  11.123
42650W        W 1911  43.301   2.272  12.534
42651W        W 1912   9.184   4.727   4.214
42652W        W 1913  20.078   6.678  13.967
42653W        W 1914  17.171   2.318   4.165
42654W        W 1915  33.945  32.948   4.809
42655W        W 1916  37.436   8.890   1.897
42656W        W 1917  24.678  41.397   1.735
42657W        W 1918  42.795   6.363  10.993
42658W        W 1919  12.757  27.598   4.297
42659W        W 1920  10.382  32.030  11.483
42660W        W 1921  33.583  37.901  14.426
42661W        W 1922  13.755  22.106  13.489
42662W        W 1923  12.780  21.041   0.357
42663W        W 1924  28.953  15.163  11.429
42664W        W 1925  20.624  37.415  14.401
42665W        W 1926  25.985  25.562   2.852
42666W        W 1927  12.213  44.317   1.860
42667W        W 1928  21.691  21.175   0.821
42668W        W 1929  44.903   4.824   4.167
42669W        W 1930  19.250  40.034  10.427
42670W        W 1931  34.592  11.703  10.483
42671W        W 1932  17.179  22.146   1.382
42672W        W 1933  19.233  33.538   4.699
42673W        W 1934  23.154  29.493  14.882
42674W        W 1935  13.626   0.400   4.191
42675W        W 1936  44.861  10.214  11.020
42676W        W 1937   7.744  16.274  10.645
42677W        W 1938  33.997   8.291  10.521
42678W        W 1939  16.576  41.995   4.327
42679W        W 1940  40.993  15.313  11.090
42680W        W 1941  13.691   4.745  14.472
42681W        W 1942   0.264  19.583   2.751
42682W        W 1943   2.249  39.369   4.158
42683W        W 1944   4.408  13.260  13.442
42684W        W 1945  33.436   0.835   0.881
42685W        W 1946   0.880  36.093  14.823
42686W        W 1947  19.179  17.789  14.276
42687W        W 1948  16.157  14.311   1.341
42688W        W 1949   8.230  28.632   1.214
42689W        W 1950  14.154  35.396   3.828
42690W        W 1951  10.224  40.051   9.998
42691W        W 1952  34.518   0.345  11.569
42692W        W 1953  35.910  34.029  14.824
42693W        W 1954  32.569  13.677   1.369
42694W        W 1955  33.937  12.194   2.827
42695W        W 1956  30.140  15.156  14.450
42696W        W 1957  41.989  29.491   5.103
42697W        W 1958   3.893  42.880   0.450
42698W        W 1959  21.648  15.749   3.163
42699W        W 1960  44.382  24.710   5.672
42700W        W 1961   8.168  44.400   3.165
42701W        W 1962  31.976  42.943   3.798
42702W        W 1963  15.803   0.423  11.440
42703W        W 1964   4.843  39.912  14.410
42704W        W 1965  32.073  41.005   0.815
42705W        W 1966  41.475  41.905   1.344
42706W        W 1967  30.021  10.170  12.393
42707W        W 1968  17.248  14.705   3.835
42708W        W 1969  17.080   5.812   2.675
42709W        W 1970  37.843  38.011   0.318
42710W        W 1971  17.652  35.453   4.144
42711W        W 1972  20.606  29.077  10.568
42712W        W 1973  22.194  33.486   1.221
42713W        W 1974  14.303  10.300  10.604
42714W        W 1975  30.501   1.309   4.197
42715W        W 1976  21.217  30.961  12.855
42716W        W 1977  32.436  17.709  10.552
42717W        W 1978  15.644   9.306  12.565
42718W        W 1979  32.470  36.463   2.891
42719W        W 1980  12.751  39.917   0.395
42720W        W 1981  10.715   6.680   3.677
42721W        W 1982   9.798  35.884  10.986
42722W        W 1983  27.599  37.361   1.378
42723W        W 1984  36.073   8.676   2.367
42724W        W 1985  21.223  41.944   0.243
42725W        W 1986   9.392   5.248   3.783
42726W        W 1987  12.730  38.369  14.960
42727W        W 1988  23.731  39.812  13.899
42728W        W 1989  40.961  28.481   1.861
42729W        W 1990   0.253  44.286   1.441
42730W        W 1991  37.578  15.216  12.996
42731W        W 1992  34.419   3.321   3.790
42732W        W 1993   6.847  40.380   1.848
42733W        W 1994  42.358   4.855  13.918
42734W        W 1995  33.052  25.154  12.351
42735W        W 1996  16.704   5.801  14.808
42736W        W 1997  41.838  24.018   1.906
42737W        W 1998   8.184  24.530   2.862
42738W        W 1999   8.259  37.514  14.006
42739W        W 2000  21.705   9.823   4.190
42740W        W 2001   2.444  37.541   2.700
42741W        W 2002  30.102  29.138   0.387
42742W        W 2003  36.406  35.927  14.353
42743W        W 2004  20.102  17.744  12.492
42744W        W 2005  42.445  13.732  10.001
42745W        W 2006   0.834   5.391   1.382
42746W        W 2007  44.368  40.905   1.915
42747W        W 2008  29.427  20.179  13.849
42748W        W 2009  14.625   9.168   5.148
42749W        W 2010  33.060  35.068   3.186
42750W        W 2011  36.859  20.246  11.583
42751W        W 2012  37.857  29.575   3.631
42752W        W 2013  37.438   0.863  11.601
42753W        W 2014  25.996  20.054  14.457
42754W        W 2015   6.699  14.655  10.986
42755W        W 2016  22.633  27.567   3.290
42756W        W 2017  17.148  10.679  14.295
42757W        W 2018  38.524  40.941   3.854
42758W        W 2019  29.066  34.946  12.953
42759W        W 2020   9.214  44.887   2.204
42760W        W 2021   6.812  27.026   0.899
42761W        W 2022  32.628   9.280   1.390
42762W        W 2023   6.362   9.716   0.814
42763W        W 2024  36.037  34.455   1.401
42764W        W 2025  34.602  17.579  10.897
42765W        W 2026  23.986  26.991   1.774
42766W        W 2027  18.226  16.082  12.414
42767W        W 2028  27.649   8.736  14.466
42768W        W 2029  41.509   2.412   0.821
42769W        W 2030  12.684  40.400  13.315
42770W        W 2031  44.973   8.807  10.434
42771W        W 2032  40.866  16.681  11.989
42772W        W 2033  33.896  21.022   1.738
42773W        W 2034   3.317  35.884  12.983
42774W        W 2035  31.055  24.973   1.268
42775W        W 2036  30.551  28.595   2.296
42776W        W 2037   2.416  26.999  12.909
42777W        W 2038  43.917  36.097  10.075
42778W        W 2039  22.737  37.960  11.462
42779W        W 2040  24.155  26.521  11.548
42780W        W 2041  41.401   5.715   0.828
42781W        W 2042  31.554  27.084   1.928
42782W        W 2043  19.673  16.756  14.944
42783W        W 2044   8.322  19.198  12.963
42784W        W 2045   8.311   8.685   5.591
42785W        W 2046   7.672  18.220  11.432
42786W        W 2047  25.963  20.128   1.917
42787W        W 2048  18.582  37.041   2.775
42788W        W 2049  32.504   7.685   1.253
42789W        W 2050  15.600   3.421  10.585
42790W        W 2051   9.381   9.350  14.491
42791W        W 2052   3.819   5.923   0.432
42792W        W 2053  43.886  42.829  14.365
42793W        W 2054  14.823  15.660   4.234
42794W        W 2055   2.877   2.441  14.508
42795W        W 2056  37.065  16.568   1.842
42796W        W 2057  30.120  36.376  12.826
42797W        W 2058  22.136  15.306  14.294
42798W        W 2059  18.573  37.492  13.530
42799W        W 2060  14.620  22.694  14.970
42800W        W 2061  33.081  28.954  12.088
42801W        W 2062  26.504  35.898   1.706
42802W        W 2063  38.003   1.360   1.371
42803W        W 2064  13.768  11.832   4.705
42804W        W 2065   4.238  30.653  13.366
42805W        W 2066  10.810  23.664   2.320
42806W        W 2067  25.018  28.528   1.324
42807W        W 2068   5.929   6.247   0.922
42808W        W 2069  19.564  44.292  10.523
42809W        W 2070  11.273  35.949  13.490
42810W        W 2071  14.805   8.264  12.972
42811W        W 2072  30.498   7.853  10.638
42812W        W 2073  24.665  39.961  13.843
42813W        W 2074  33.943  25.019  14.024
42814W        W 2075  14.169  19.603   4.706
42815W        W 2076  39.895  12.665  11.419
42816W        W 2077   5.239  39.964  14.343
42817W        W 2078  38.499  34.512   4.319
42818W        W 2079  37.967  34.484   0.925
42819W        W 2080  10.294  28.510  14.792
42820W        W 2081  14.677   2.864  12.390
42821W        W 2082  32.561  15.304  11.997
42822W        W 2083  23.659   3.847  13.959
42823W        W 2084  41.026  41.521   0.341
42824W        W 2085  14.194  28.078   2.805
42825W        W 2086  41.803   3.314   0.792
42826W        W 2087  15.725  32.071  12.451
42827W        W 2088  24.143  43.938   4.810
42828W        W 2089  16.572   8.775   2.196
42829W        W 2090   6.727  27.181  13.428
42830W        W 2091   7.212  24.705   2.380
42831W        W 2092  43.343   3.439  11.992
42832W        W 2093  13.172   7.846   2.822
42833W        W 2094  44.343  32.544   3.826
42834W        W 2095  44.414   6.914  10.020
42835W        W 2096   0.889  24.171  14.011
42836W        W 2097  33.980   5.363   2.718
42837W        W 2098  31.003  19.664   0.335
42838W        W 2099  16.282  32.925  14.440
42839W        W 2100   5.811   6.380  12.986
42840W        W 2101  20.680  12.176  13.355
42841W        W 2102  18.208  17.686  13.794
42842W        W 2103  36.031  29.160  10.947
42843W        W 2104  27.596  42.919   2.701
42844W        W 2105  21.569   9.259   4.281
42845W        W 2106  34.981  41.531  12.392
42846W        W 2107   2.886  21.086  11.433
42847W        W 2108  22.028  23.111   0.855
42848W        W 2109   0.835  24.635  13.909
42849W        W 2110  12.320  34.068  13.491
42850W        W 2111  36.842  25.560   4.706
42851W        W 2112  30.532  26.492   0.785
42852W        W 2113  19.209  27.154  10.992
42853W        W 2114  17.711  11.724  12.834
42854W        W 2115  29.016  27.644  11.406
42855W        W 2116  33.560  36.057   4.184
42856W        W 2117  37.977  15.082   3.804
42857W        W 2118  38.898  40.517   4.162
42858W        W 2119  19.706  16.637   0.832
42859W        W 2120  33.047  17.680   3.223
42860W        W 2121  33.415  23.216  10.968
42861W        W 2122   3.838  33.945  14.442
42862W        W 2123  11.723  19.144  11.866
42863W        W 2124  29.482   6.882   2.400
42864W        W 2125  42.001  43.392   4.324
42865W        W 2126  32.634  29.020  12.947
42866W        W 2127   0.350   5.856   2.245
42867W        W 2128  32.402   9.374   3.207
42868W        W 2129   8.800  30.097   2.247
42869W        W 2130  26.603  18.131   1.761
42870W        W 2131  23.542  22.070  11.491
42871W        W 2132  34.459  26.057   1.876
42872W        W 2133   0.956  33.019   3.274
42873W        W 2134  43.430  34.043   1.316
42874W        W 2135  14.733   2.443   4.309
42875W        W 2136  37.421   9.217  12.833
42876W        W 2137  20.689   9.810  11.052
42877W        W 2138  19.758  38.962  12.939
42878W        W 2139  12.818  21.112   2.204
42879W        W 2140  40.941   6.732   2.856
42880W        W 2141  36.911   4.269  10.544
42881W        W 2142  20.631   1.842   0.433
42882W        W 2143   1.329  22.520  11.024
42883W        W 2144   2.246  20.135  13.002
42884W        W 2145  21.591  27.614   3.221
42885W        W 2146  15.249  20.118  14.804
42886W        W 2147  11.256  25.140  14.343
42887W        W 2148   3.716  36.400   1.919
42888W        W 2149  36.071  11.666   3.680
42889W        W 2150  16.772  19.077  14.854
42890W        W 2151  42.509  26.630   0.763
42891W        W 2152  21.682  35.456  10.418
42892W        W 2153   0.360  14.313   1.852
42893W        W 2154  14.303   9.870  12.883
42894W        W 2155   9.793   5.234  11.554
42895W        W 2156  35.075   7.191   4.343
42896W        W 2157   8.807  15.223   0.461
42897W        W 2158  13.157  10.247   0.448
42898W        W 2159  14.304  41.535   3.779
42899W        W 2160  11.361  33.080   3.831
42900W        W 2161   9.713  20.570  14.364
42901W        W 2162  42.988  30.957   1.814
42902W        W 2163  31.417   9.187   5.092
42903W        W 2164  39.416  32.120   4.334
42904W        W 2165  32.391   2.961   4.740
42905W        W 2166  23.115  28.485   0.305
42906W        W 2167   9.726  11.686  13.520
42907W        W 2168  40.967  32.417  11.425
42908W        W 2169   5.805  19.160  13.024
42909W        W 2170  28.001  29.929   1.891
42910W        W 2171  28.958   7.721   1.829
42911W        W 2172  11.135  16.588   0.327
42912W        W 2173  40.352  17.557  11.483
42913W        W 2174  33.577  26.557   0.859
42914W        W 2175  30.566  42.807  13.910
42915W        W 2176   8.357  16.689   0.943
42916W        W 2177  36.047  17.153   1.233
42917W        W 2178  42.980  16.300  11.505
42918W        W 2179   9.276   0.814  10.004
42919W        W 2180  24.123   5.866   1.226
42920W        W 2181  35.994  43.342  11.386
42921W        W 2182  19.069   3.950   2.822
42922W        W 2183  17.255  19.162  12.438
42923W        W 2184  30.109  31.648  14.863
42924W        W 2185  30.414   2.918  12.864
42925W        W 2186  22.619  35.527   1.404
42926W        W 2187   4.421  22.637  13.484
42927W        W 2188  12.848  19.076   4.610
42928W        W 2189  16.671  31.503   2.823
42929W        W 2190  33.496  23.044  11.526
42930W        W 2191  43.786  19.632  13.486
42931W        W 2192   6.288  23.518  11.521
42932W        W 2193  14.126   9.393   1.699
42933W        W 2194  14.741  38.934   3.366
42934W        W 2195  42.487  27.943  11.413
42935W        W 2196  25.682  31.019   0.905
42936W        W 2197  18.684  17.215  10.453
42937W        W 2198  10.657  18.549  14.968
42938W        W 2199   7.393   9.683  11.008
42939W        W 2200  24.000  29.925   3.336
42940W        W 2201  29.101  43.457  10.422
42941W        W 2202  13.250  32.447   4.339
42942W        W 2203  44.982  23.634  14.499
42943W        W 2204  31.592  11.227   1.745
42944W        W 2205  19.116  42.475  13.904
42945W        W 2206  40.043  27.500  13.899
42946W        W 2207   5.409  30.122  14.371
42947W        W 2208  21.747  41.970  14.930
42948W        W 2209  40.507  42.021  14.765
42949W        W 2210  21.663   7.212   3.233
42950W        W 2211  11.696   2.787   0.893
42951W        W 2212  26.512  41.450  13.515
42952W        W 2213  18.764  11.170   3.796
42953W        W 2214  25.140  42.317   2.348
42954W        W 2215   8.834   3.269   3.731
42955W        W 2216   9.163  21.738  11.453
42956W        W 2217  26.500  17.789  13.791
42957W        W 2218   5.790  42.999  14.457
42958W        W 2219   6.278   4.903  13.348
42959W        W 2220  15.687  38.014  11.480
42960W        W 2221  33.885  34.601  11.108
42961W        W 2222  42.403  12.285  11.952
42962W        W 2223  27.187  21.030  10.586
42963W        W 2224  27.611   1.433  11.968
42964W        W 2225  42.802  26.563   4.146
42965W        W 2226  40.037  11.275  10.522
42966W        W 2227   7.805  13.824  10.526
42967W        W 2228  42.448   3.241  12.053
42968W        W 2229  33.962  36.396   3.799
42969W        W 2230   8.393  43.436  13.908
42970W        W 2231  12.738  25.010   3.734
42971W        W 2232   8.313  44.891  10.917
42972W        W 2233  38.983   5.894   0.936
42973W        W 2234   5.894  42.515  14.377
42974W        W 2235  34.535   5.438  14.434
42975W        W 2236   3.860  14.230   9.933
42976W        W 2237   3.269  41.406  11.902
42977W        W 2238   2.418  35.569   0.759
42978W        W 2239  16.220  11.847   3.257
42979W        W 2240  24.523   0.920  11.511
42980W        W 2241  25.683  10.215   2.677
42981W        W 2242  18.233  29.947  14.948
42982W        W 2243   5.325  25.199   3.264
42983W        W 2244  28.667  24.515   0.812
42984W        W 2245  38.423  36.049  11.048
42985W        W 2246  24.645   4.398  10.586
42986W        W 2247  16.655  28.664   0.847
42987W        W 2248  35.378  31.414  12.985
42988W        W 2249  21.105  34.557  12.445
42989W        W 2250  13.802  26.526   1.447
42990W        W 2251   7.238   0.828   0.769
42991W        W 2252  24.641  21.206  12.411
42992W        W 2253  25.213  27.947  10.644
42993W        W 2254  34.089   8.899   3.367
42994W        W 2255  40.864  44.456  11.547
42995W        W 2256  29.031  31.425  11.982
42996W        W 2257  37.043  27.478  11.036
42997W        W 2258   3.261  15.759  11.464
42998W        W 2259  30.527  43.799  10.532
42999W        W 2260  33.407  40.872  14.932
43000W        W 2261  23.183   8.221  11.489
43001W        W 2262  36.996  19.156  11.544
43002W        W 2263   1.237  42.895   2.365
43003W        W 2264  20.736  26.654  12.341
43004W        W 2265  22.621  35.910   3.231
43005W        W 2266  23.023  28.591  13.943
43006W        W 2267  25.968  34.370  13.821
43007W        W 2268  19.098  29.171   1.724
43008W        W 2269  36.366   8.873  14.873
43009W        W 2270  27.114  23.240   1.324
43010W        W 2271   7.696  17.788   0.249
43011W        W 2272  12.245  23.069   4.679
43012W        W 2273   5.754  34.536   1.404
43013W        W 2274   7.363   7.813   0.433
43014W        W 2275  21.701  19.596   3.262
43015W        W 2276  15.270  22.239  13.528
43016W        W 2277  30.535  39.968   4.321
43017W        W 2278  10.195  10.794   4.328
43018W        W 2279  29.473   4.821   4.788
43019W        W 2280  18.770  26.647   0.866
43020W        W 2281  37.030  40.975   4.717
43021W        W 2282  42.485   5.693  14.456
43022W        W 2283   6.289  13.130  13.956
43023W        W 2284  25.654  29.541  11.390
43024W        W 2285  36.466  38.332   3.821
43025W        W 2286  42.428  38.394  13.023
43026W        W 2287  34.398   2.902   1.931
43027W        W 2288  15.740   1.360  14.021
43028W        W 2289  37.568  40.852  12.405
43029W        W 2290  43.817  22.121  12.375
43030W        W 2291  17.791   3.880   1.283
43031W        W 2292  17.776  44.454  13.986
43032W        W 2293  21.572  22.558   2.716
43033W        W 2294  10.699  33.904  11.019
43034W        W 2295  20.035   4.732  12.848
43035W        W 2296  30.605   9.332  14.815
43036W        W 2297  20.713  35.387  13.353
43037W        W 2298  36.931  39.544  11.087
43038W        W 2299  43.936  21.193   1.854
43039W        W 2300  32.624   7.776  14.279
43040W        W 2301  29.590  11.290  10.895
43041W        W 2302  39.405  44.353   2.257
43042W        W 2303  31.459  21.159  11.451
43043W        W 2304  13.800  38.831   3.254
43044W        W 2305  10.314  34.407   4.654
43045W        W 2306  17.666  43.356   4.262
43046W        W 2307  42.437   4.816   2.250
43047W        W 2308  33.476  29.547  12.358
43048W        W 2309  22.576  13.813  12.856
43049W        W 2310  21.099  41.320   3.689
43050W        W 2311  15.314  17.225  14.860
43051W        W 2312  22.247  32.928   0.867
43052W        W 2313  29.524  18.572  13.499
43053W        W 2314  20.169  32.452   4.130
43054W        W 2315  32.445  23.232  14.296
43055W        W 2316  10.219   6.761   2.241
43056W        W 2317   7.269  20.654  13.428
43057W        W 2318   2.424  13.679  14.483
43058W        W 2319   2.361  19.693   4.151
43059W        W 2320  40.888   8.681  13.064
43060W        W 2321  24.109  35.075  13.497
43061W        W 2322   5.433  31.430  12.920
43062W        W 2323  28.540   8.740  12.000
43063W        W 2324   4.858  29.581   4.315
43064W        W 2325  34.580  15.724  14.864
43065W        W 2326  26.048  38.002  13.857
43066W        W 2327   6.690  27.016  14.326
43067W        W 2328   6.894   5.332  13.500
43068W        W 2329  12.254  21.602  12.552
43069W        W 2330  19.646  39.395   4.162
43070W        W 2331  24.139  32.926  11.077
43071W        W 2332  30.559  13.263   1.376
43072W        W 2333   9.858  44.442   0.950
43073W        W 2334  17.576  27.120   0.474
43074W        W 2335  12.216  21.596  13.480
43075W        W 2336  13.712  19.602   1.395
43076W        W 2337  24.515  42.842   3.245
43077W        W 2338  19.189  17.680  10.486
43078W        W 2339  36.893   9.766  11.055
43079W        W 2340  20.619  29.110   0.951
43080W        W 2341  21.194  29.669  13.791
43081W        W 2342  13.628  25.545  12.556
43082W        W 2343  10.795   2.899  10.965
43083W        W 2344  14.186  16.114   0.965
43084W        W 2345  31.532  13.845   2.221
43085W        W 2346  38.513   6.839  13.924
43086W        W 2347  30.443  36.515   2.316
43087W        W 2348   0.941  17.300   1.365
43088W        W 2349   0.340  23.016  11.459
43089W        W 2350  13.198  10.751   2.335
43090W        W 2351  42.026  10.716  12.535
43091W        W 2352   8.688  35.949  11.612
43092W        W 2353  13.228  38.848   3.327
43093W        W 2354  17.222  10.704   0.956
43094W        W 2355  29.969   0.294  12.065
43095W        W 2356   9.706  32.561  14.030
43096W        W 2357  33.087  15.669  12.549
43097W        W 2358  11.723  16.291  12.823
43098W        W 2359  35.530   1.467  10.990
43099W        W 2360   9.174  13.241  10.943
43100W        W 2361  15.261  20.618   3.796
43101W        W 2362  19.175  41.839  14.020
43102W        W 2363  22.730  21.664  12.960
43103W        W 2364  38.034  34.970   0.788
43104W        W 2365  21.053  12.137   2.741
43105W        W 2366  42.455   5.256  14.326
43106W        W 2367  23.521   5.226   0.370
43107W        W 2368  19.043  37.939   0.768
43108W        W 2369  18.761   2.345  12.027
43109W        W 2370  39.455   3.804   1.869
43110W        W 2371  37.830   8.901   0.334
43111W        W 2372  10.348  42.434   3.287
43112W        W 2373  43.358  30.645   4.278
43113W        W 2374  19.602  35.471   2.383
43114W        W 2375  13.326  24.542   0.295
43115W        W 2376  30.634  19.173  10.522
43116W        W 2377  36.090   9.683  12.947
43117W        W 2378  24.541  31.533  11.473
43118W        W 2379  32.906  25.533  13.443
43119W        W 2380  36.383   4.815  11.859
43120W        W 2381  22.018  22.101  13.795
43121W        W 2382  36.874  15.185  10.634
43122W        W 2383  16.793   5.304   2.738
43123W        W 2384  17.580  40.049  13.467
43124W        W 2385  31.924  38.863  14.805
43125W        W 2386  32.924  35.501   1.408
43126W        W 2387  37.408  20.761   4.276
43127W        W 2388  17.644   3.342   3.182
43128W        W 2389   9.864   5.201  13.037
43129W        W 2390  11.345  31.969  14.890
43130W        W 2391  41.888  44.442   1.287
43131W        W 2392  19.105  34.513  13.021
43132W        W 2393  33.105   8.684   0.947
43133W        W 2394   2.395   9.261  11.032
43134W        W 2395   4.428  27.132  14.417
43135W        W 2396  33.132  44.297   4.829
43136W        W 2397  22.669  11.668   1.367
43137W        W 2398   3.452   3.260   2.347
43138W        W 2399  18.654  19.199   1.370
43139W        W 2400   7.867  23.582  13.367
43140W        W 2401  36.048  13.733   1.239
43141W        W 2402  12.715  29.452  14.936
43142W        W 2403  13.276  14.166   1.212
43143W        W 2404  15.660  31.134  10.072
43144W        W 2405   9.381  44.456  14.826
43145W        W 2406  32.092   1.892   1.219
43146W        W 2407  13.832  24.595   0.282
43147W        W 2408  38.835  38.943   4.784
43148W        W 2409   0.336  18.230   1.278
43149W        W 2410  15.286   0.771  12.953
43150W        W 2411  28.474   7.255   2.791
43151W        W 2412  21.648  18.077  11.589
43152W        W 2413  22.547  28.162   3.295
43153W        W 2414  12.349  18.181   4.213
43154W        W 2415  18.081  32.987   3.221
43155W        W 2416  13.121   7.330  14.475
43156W        W 2417  38.483  15.713  11.517
43157W        W 2418  18.280  41.036  13.961
43158W        W 2419  26.137  21.572  13.344
43159W        W 2420  35.359  18.615   4.670
43160W        W 2421   6.787  33.876   2.761
43161W        W 2422   5.769  16.165   3.263
43162W        W 2423  17.592  18.283   4.348
43163W        W 2424  30.506  30.651  11.043
43164W        W 2425  35.550  36.566  11.475
43165W        W 2426  40.456  43.422   4.629
43166W        W 2427  34.052   7.903  14.330
43167W        W 2428  28.045  22.632  11.480
43168W        W 2429  15.302  32.944  14.839
43169W        W 2430  43.773  25.504   3.694
43170W        W 2431  14.763   9.193   1.908
43171W        W 2432  40.911  14.110  12.084
43172W        W 2433  12.320  26.644   2.817
43173W        W 2434  36.569  43.476  10.962
43174W        W 2435  12.249  28.576   2.210
43175W        W 2436  32.532  21.167   2.245
43176W        W 2437  17.667  25.082   1.905
43177W        W 2438  23.133  20.662   1.847
43178W        W 2439  20.127  21.679  12.859
43179W        W 2440  35.517  40.838  11.586
43180W        W 2441  13.338   4.244   4.814
43181W        W 2442  23.494  36.958  14.439
43182W        W 2443  20.249  43.014  14.353
43183W        W 2444  16.776   9.739  11.970
43184W        W 2445  12.277  29.622   4.666
43185W        W 2446   7.228   3.779   2.360
43186W        W 2447  41.346  12.698   1.392
43187W        W 2448  18.205  44.359  12.895
43188W        W 2449  26.990  24.167  13.947
43189W        W 2450  42.527  20.113   1.259
43190W        W 2451  11.209   8.691   3.181
43191W        W 2452  42.503  15.102   0.249
43192W        W 2453  41.994  40.394   3.769
43193W        W 2454  31.071  21.246  12.461
43194W        W 2455  41.499  33.569   3.864
43195W        W 2456   2.231  11.825   2.375
43196W        W 2457  25.046  33.573  13.903
43197W        W 2458   5.433  36.020  11.448
43198W        W 2459  32.929   0.791  13.886
43199W        W 2460  38.936  33.028   1.329
43200W        W 2461   7.667  37.033   3.696
43201W        W 2462  22.998  30.654   3.804
43202W        W 2463  13.714  12.782   4.717
43203W        W 2464  22.691  15.663   4.343
43204W        W 2465   7.848  37.479   0.851
43205W        W 2466  44.872  40.329   1.356
43206W        W 2467   0.484  38.901  11.997
43207W        W 2468  43.362  24.166   2.709
43208W        W 2469  44.924   8.765  12.947
43209W        W 2470   2.434  30.471  11.443
43210W        W 2471  39.458   1.380  11.542
43211W        W 2472   2.306  18.751  14.507
43212W        W 2473  23.612  36.389   2.408
43213W        W 2474  25.125  11.861   1.426
43214W        W 2475   7.799   2.936   4.610
43215W        W 2476   6.279  21.575   0.409
43216W        W 2477   4.380  33.394  11.901
43217W        W 2478  31.992  22.584   0.444
43218W        W 2479  19.536  18.148  14.318
43219W        W 2480  10.354   7.225   4.637
43220W        W 2481  30.016  31.519   3.869
43221W        W 2482  20.052   8.257  14.487
43222W        W 2483  31.914  43.453   0.831
43223W        W 2484  11.860  16.085  10.976
43224W        W 2485  31.122  30.627   4.305
43225W        W 2486   5.853   6.864  14.434
43226W        W 2487   4.402   1.891   1.778
43227W        W 2488   2.873  38.837  10.631
43228W        W 2489   6.374  21.144  11.388
43229W        W 2490  16.798  38.473  11.902
43230W        W 2491  21.577   4.880   3.151
43231W        W 2492  17.262  12.855   0.845
43232W        W 2493  27.071  25.047  14.977
43233W        W 2494  34.981  23.727   2.761
43234W        W 2495  14.289  13.143   2.691
43235W        W 2496  32.033  12.654  13.397
43236W        W 2497   0.859  14.799   1.397
43237W        W 2498  28.562  35.559  12.897
43238W        W 2499  11.714  18.606   3.781
43239W        W 2500  14.310  22.247   4.313
43240W        W 2501  20.183   1.371   4.644
43241W        W 2502   1.881   7.214  14.321
43242W        W 2503   6.356   8.187   0.299
43243W        W 2504  27.943  24.166  13.444
43244W        W 2505  15.760  33.911   3.368
43245W        W 2506  44.410  14.805  14.281
43246W        W 2507  24.022   7.798   4.208
43247W        W 2508   9.170  40.890   3.201
43248W        W 2509  26.138  36.433   1.724
43249W        W 2510  41.506  39.897   3.677
43250W        W 2511  14.331   4.344  14.940
43251W        W 2512  19.243  40.895  10.525
43252W        W 2513   3.946  19.125  14.988
43253W        W 2514  44.262  40.469   4.716
43254W        W 2515  13.129  23.997  11.550
43255W        W 2516  27.010   6.845   4.715
43256W        W 2517  17.750   2.419   1.748
43257W        W 2518  36.356   5.855  14.940
43258W        W 2519  15.247  18.263   0.259
43259W        W 2520  35.478   4.824  13.058
43260W        W 2521  22.625  42.501  14.488
43261W        W 2522  32.096  35.088  12.533
43262W        W 2523  22.644  37.958  14.504
43263W        W 2524   3.790  28.998  10.533
43264W        W 2525  11.245  26.172   4.620
43265W        W 2526  34.003   2.312   1.407
43266W        W 2527  36.543  13.813   2.821
43267W        W 2528   5.407  41.330  14.480
43268W        W 2529  39.526  29.511   1.426
43269W        W 2530  11.155  41.935  11.461
43270W        W 2531  19.743  19.644  12.037
43271W        W 2532  11.359   3.370  12.983
43272W        W 2533  10.700  19.621  13.836
43273W        W 2534  10.671  31.607  11.127
43274W        W 2535  23.187   8.872   3.382
43275W        W 2536  36.537   4.787  12.558
43276W        W 2537  26.565  31.586   1.834
43277W        W 2538   8.775   2.403   1.883
43278W        W 2539  27.076  15.112   1.905
43279W        W 2540  11.685  15.754  12.511
43280W        W 2541  15.279  32.587  10.601
43281W        W 2542  20.172   8.252   4.636
43282W        W 2543  28.160  25.156   3.789
43283W        W 2544  41.384  15.789   5.317
43284W        W 2545  34.046  21.088   0.734
43285W        W 2546  16.271  32.042   1.834
43286W        W 2547  37.476  10.140   1.217
43287W        W 2548  39.548  25.622   0.777
43288W        W 2549   7.700  11.670   4.682
43289W        W 2550   1.934  41.402   1.789
43290W        W 2551  24.697  29.964   2.797
43291W        W 2552  33.471  27.100   2.900
43292W        W 2553  19.697   6.222   1.858
43293W        W 2554   5.916  37.903   0.262
43294W        W 2555  23.107  15.296  12.347
43295W        W 2556  24.107  29.954  11.013
43296W        W 2557  31.991  22.148  14.896
43297W        W 2558   4.284  25.213  13.443
43298W        W 2559  44.982  39.999   3.768
43299W        W 2560  26.083  42.448   1.827
43300W        W 2561  16.123   1.245  12.391
43301W        W 2562   4.297  29.457  11.964
43302W        W 2563   9.338   5.387  13.880
43303W        W 2564  41.314  29.937   3.751
43304W        W 2565  13.156  30.942  12.368
43305W        W 2566  24.497  42.429   2.336
43306W        W 2567   1.808  28.045  14.403
43307W        W 2568  21.048  40.851  12.043
43308W        W 2569  19.114   1.357  10.526
43309W        W 2570   7.694  18.083  13.824
43310W        W 2571   7.362  21.152   1.761
43311W        W 2572  12.315  27.141   0.769
43312W        W 2573  12.698  23.639   2.838
43313W        W 2574  16.732  29.654  13.525
43314W        W 2575  15.658  31.050   4.122
43315W        W 2576  17.605  40.462  11.458
43316W        W 2577  18.088   8.842   2.892
43317W        W 2578   9.354  21.222  14.345
43318W        W 2579   8.351  37.961  14.438
43319W        W 2580   8.282  37.356  14.856
43320W        W 2581  28.116  28.489  14.334
43321W        W 2582  39.815  31.966   1.848
43322W        W 2583  34.903  16.665  12.461
43323W        W 2584  36.488   4.421   4.806
43324W        W 2585  23.993  36.477   2.330
43325W        W 2586  15.801   8.720   0.404
43326W        W 2587  19.643  38.410  14.955
43327W        W 2588   5.333  20.701  10.422
43328W        W 2589   8.865  14.603  13.986
43329W        W 2590  10.798  35.537  13.460
43330W        W 2591   7.359  25.018   4.659
43331W        W 2592  20.761  39.352  13.532
43332W        W 2593  34.099  12.842   0.329
43333W        W 2594  33.017  28.139   1.436
43334W        W 2595  44.845   9.350  14.944
43335W        W 2596  24.123   9.711  13.530
43336W        W 2597  32.502  39.038   4.818
43337W        W 2598  20.043  36.510  11.011
43338W        W 2599  24.997   2.422   0.470
43339W        W 2600   6.365   1.424  13.961
43340W        W 2601  33.550  12.264   1.214
43341W        W 2602  19.547   1.360   1.344
43342W        W 2603   2.273  38.398   0.343
43343W        W 2604  10.345  11.825   5.204
43344W        W 2605  12.715  18.562  13.838
43345W        W 2606  42.005  43.876   1.239
43346W        W 2607  38.444   1.336  13.827
43347W        W 2608   0.825  29.608   4.115
43348W        W 2609  16.789  32.927  11.930
43349W        W 2610  22.709  36.041  11.540
43350W        W 2611  16.775  11.720  14.784
43351W        W 2612  22.645   7.262   1.922
43352W        W 2613  41.877  15.212  11.979
43353W        W 2614  37.522   3.418   3.314
43354W        W 2615  24.109  43.921  10.480
43355W        W 2616  25.159  27.002   1.338
43356W        W 2617  29.461  32.117   9.535
43357W        W 2618   0.848   9.230   2.219
43358W        W 2619  21.153  16.136   1.780
43359W        W 2620  26.018  18.564  11.529
43360W        W 2621  18.576  39.814   3.828
43361W        W 2622  35.909  29.000   2.415
43362W        W 2623  39.550  30.417   2.283
43363W        W 2624  22.729  36.050   0.396
43364W        W 2625  41.377  10.705   4.139
43365W        W 2626  21.617  42.380   3.360
43366W        W 2627  32.633  17.238  14.515
43367W        W 2628  16.600  28.514  12.561
43368W        W 2629   1.732  12.289   1.320
43369W        W 2630   7.881  41.834  10.473
43370W        W 2631  33.062  40.980  12.377
43371W        W 2632  10.384   0.854   3.337
43372W        W 2633  42.948  43.352  10.976
43373W        W 2634  13.215  20.630  11.613
43374W        W 2635   8.733  14.161  10.124
43375W        W 2636  37.489   4.837   0.909
43376W        W 2637   1.406  21.210   3.316
43377W        W 2638   9.294  18.694   4.231
43378W        W 2639  34.610  44.822   4.352
43379W        W 2640   8.229   3.241   0.932
43380W        W 2641  23.042  39.006   0.396
43381W        W 2642   2.263  29.099   0.822
43382W        W 2643  14.162  13.336   4.222
43383W        W 2644  16.312   9.655   1.781
43384W        W 2645   8.775  39.896   3.712
43385W        W 2646  22.607   0.842  12.911
43386W        W 2647   4.731  36.394   3.659
43387W        W 2648  17.767  34.615  14.485
43388W        W 2649  29.568  12.255   1.711
43389W        W 2650  12.657  22.645   0.864
43390W        W 2651   9.347  20.177  11.376
43391W        W 2652  13.298  18.210   1.766
43392W        W 2653  33.880  39.418   3.311
43393W        W 2654  26.496  38.835  14.347
43394W        W 2655  10.364  28.044  13.821
43395W        W 2656  44.307  22.654  12.050
43396W        W 2657  38.389  27.506   4.116
43397W        W 2658  33.929  39.031  12.838
43398W        W 2659  14.294  25.691  10.890
43399W        W 2660  12.156   2.904  10.634
43400W        W 2661   2.821   0.370  11.874
43401W        W 2662  22.185  34.520   3.728
43402W        W 2663  18.676  10.675  11.871
43403W        W 2664  12.618  39.057  12.377
43404W        W 2665  40.030  41.835  13.323
43405W        W 2666  21.692  18.643  13.472
43406W        W 2667  25.696  11.800   0.844
43407W        W 2668  32.520  15.686   2.838
43408W        W 2669  27.558  14.263   4.142
43409W        W 2670  24.205  12.277   3.223
43410W        W 2671  36.024   3.351  12.444
43411W        W 2672  10.139  41.877   0.298
43412W        W 2673  39.936  38.831   2.349
43413W        W 2674  20.175  29.084  13.828
43414W        W 2675   1.906  43.362   4.216
43415W        W 2676  44.946   2.267  11.110
43416W        W 2677  36.842  29.923   2.416
43417W        W 2678  22.718  15.766  13.854
43418W        W 2679  25.697  28.178  13.882
43419W        W 2680  24.020   1.322   4.161
43420W        W 2681  25.073  43.923   4.636
43421W        W 2682   0.791  18.585   0.454
43422W        W 2683  37.547  30.917  13.020
43423W        W 2684  44.455  10.850  10.999
43424W        W 2685  34.407  28.038   3.253
43425W        W 2686  35.363  26.982   2.216
43426W        W 2687   5.836  29.574   0.752
43427W        W 2688  20.620  11.242  13.335
43428W        W 2689  20.542  35.449  14.917
43429W        W 2690   0.748  43.852   3.352
43430W        W 2691  31.043  40.510  14.508
43431W        W 2692  39.007  12.668   4.139
43432W        W 2693  14.327  38.866   3.209
43433W        W 2694  40.383   3.371   9.987
43434W        W 2695  41.473   8.837   0.423
43435W        W 2696  23.984  28.609   1.351
43436W        W 2697   5.874   4.912   5.106
43437W        W 2698   2.928  16.074  14.856
43438W        W 2699  11.667  19.049   0.364
43439W        W 2700  27.515  23.655   2.296
43440W        W 2701  26.119  42.353   3.757
43441W        W 2702  13.697  11.255   2.270
43442W        W 2703  31.514  25.041   0.905
43443W        W 2704  35.973  13.695  12.527
43444W        W 2705   9.824  30.655  10.487
43445W        W 2706  16.749  40.987  11.929
43446W        W 2707   5.825  28.999  10.949
43447W        W 2708   1.969  38.945   2.749
43448W        W 2709  13.226  14.787  10.980
43449W        W 2710  37.025  27.942   3.832
43450W        W 2711  31.486  34.864  11.423
43451W        W 2712   8.669  30.428  11.468
43452W        W 2713  19.678  15.710  10.008
43453W        W 2714  28.463  19.760   3.219
43454W        W 2715  25.610  21.722  10.532
43455W        W 2716  38.013  17.628  14.775
43456W        W 2717  25.691  21.606   1.793
43457W        W 2718  43.473  30.473  12.492
43458W        W 2719   3.810  25.549   1.262
43459W        W 2720  36.561  37.983   2.396
43460W        W 2721   7.742  22.105   4.166
43461W        W 2722   9.289   9.275  11.068
43462W        W 2723  31.951  16.692  14.492
43463W        W 2724  39.453  23.634   1.909
43464W        W 2725   5.749   3.323  14.979
43465W        W 2726  21.713   7.193  10.533
43466W        W 2727  38.974  24.692  14.416
43467W        W 2728   0.851  42.371  12.515
43468W        W 2729  37.462  23.112   3.306
43469W        W 2730  25.060  16.779   9.985
43470W        W 2731  16.275   6.783   3.736
43471W        W 2732  17.746  14.732   0.952
43472W        W 2733  24.058   1.356   0.773
43473W        W 2734  39.379  12.132  12.503
43474W        W 2735  43.021  21.224  10.592
43475W        W 2736   3.905  22.621  10.994
43476W        W 2737   0.843   9.231   4.235
43477W        W 2738  33.609  25.577  14.866
43478W        W 2739  34.936  11.717   3.146
43479W        W 2740   3.381  35.377   2.413
43480W        W 2741  24.158  43.366   0.840
43481W        W 2742  39.898   7.767   4.292
43482W        W 2743  36.067  24.710  12.882
43483W        W 2744   5.232   8.764   0.249
43484W        W 2745  43.449   6.223  12.962
43485W        W 2746  35.048  20.664   2.699
43486W        W 2747  27.174  13.185  13.968
43487W        W 2748  22.706  25.548  12.455
43488W        W 2749  14.106  19.191   1.919
43489W        W 2750   2.871  28.181   3.336
43490W        W 2751   8.847  43.898  12.008
43491W        W 2752  26.049   6.196   9.998
43492W        W 2753  33.127  16.774  14.329
43493W        W 2754  37.920  24.980  10.979
43494W        W 2755   1.287  33.972   0.942
43495W        W 2756  36.884  21.044  13.055
43496W        W 2757  34.377  37.080   3.794
43497W        W 2758  20.231  23.525   2.700
43498W        W 2759   1.808  33.012  12.347
43499W        W 2760  23.154  39.432   0.811
43500W        W 2761  19.716  21.693  12.464
43501W        W 2762  35.924  29.133   3.642
43502W        W 2763  36.885  33.582  10.417
43503W        W 2764   1.412  28.941   0.277
43504W        W 2765  21.732  12.729   3.856
43505W        W 2766  28.462  33.120   2.255
43506W        W 2767  11.750  10.721  14.378
43507W        W 2768   4.367  28.995  14.379
43508W        W 2769  39.814  36.894   0.419
43509W        W 2770  14.745  27.638   0.803
43510W        W 2771   7.779   0.277   4.114
43511W        W 2772   7.400   1.270  12.092
43512W        W 2773  11.312  32.601  12.833
43513W        W 2774  37.911  41.381  11.865
43514W        W 2775  34.091  16.277   1.895
43515W        W 2776  13.266  13.846   0.316
43516W        W 2777  17.284  41.871   0.403
43517W        W 2778  21.109   1.804   2.283
43518W        W 2779  34.470  15.277   0.418
43519W        W 2780   1.974  22.044  12.351
43520W        W 2781  36.485  20.729  12.826
43521W        W 2782  34.560  24.140   2.675
43522W        W 2783   4.419  14.723   0.876
43523W        W 2784  36.359  26.079   1.270
43524W        W 2785   7.742  25.990  10.960
43525W        W 2786  44.977  28.027  13.528
43526W        W 2787  33.587  10.655  12.386
43527W        W 2788  14.744  29.063  11.108
43528W        W 2789  28.636  17.783   4.739
43529W        W 2790  11.317  22.122  12.907
43530W        W 2791  28.674  10.648   2.716
43531W        W 2792  19.713  40.308   3.804
43532W        W 2793  24.506  21.260  12.019
43533W        W 2794  28.586   3.224   4.123
43534W        W 2795   8.701  19.734   4.215
43535W        W 2796   6.744   9.683   1.229
43536W        W 2797  23.136  12.227  13.856
43537W        W 2798  41.871  38.516  12.486
43538W        W 2799   0.780   0.860   4.820
43539W        W 2800  41.985  10.191   4.804
43540W        W 2801  34.023  42.410  14.918
43541W        W 2802  20.742  20.666   1.892
43542W        W 2803   5.897  34.440  11.887
43543W        W 2804  43.324  39.558  10.992
43544W        W 2805  16.803  14.335   4.130
43545W        W 2806   6.871  14.248   2.861
43546W        W 2807  13.627   6.818  14.929
43547W        W 2808  25.064   2.314  12.900
43548W        W 2809  27.571  39.529  13.329
43549W        W 2810  29.040  33.543   1.215
43550W        W 2811  18.121  42.411  13.934
43551W        W 2812  24.648   1.464  12.899
43552W        W 2813  37.407  40.522  11.001
43553W        W 2814  33.440  41.462   3.711
43554W        W 2815  11.642  43.515   4.705
43555W        W 2816  11.305  17.800   3.326
43556W        W 2817  31.125   1.777  10.088
43557W        W 2818  12.304  31.460   2.218
43558W        W 2819   3.954  27.649  10.888
43559W        W 2820  24.216   3.836  11.423
43560W        W 2821   2.398  14.697   0.435
43561W        W 2822  11.846  40.321   2.712
43562W        W 2823  19.078  18.286   1.702
43563W        W 2824   2.316  34.082  14.300
43564W        W 2825  15.146  43.295  11.466
43565W        W 2826  38.411  30.423   4.229
43566W        W 2827  12.187  17.089   1.901
43567W        W 2828  20.158   5.927  13.396
43568W        W 2829  17.237  44.972  14.459
43569W        W 2830  19.659  13.826  14.406
43570W        W 2831   5.421  14.338  12.392
43571W        W 2832  31.101  11.321   1.754
43572W        W 2833  30.594  15.631   1.255
43573W        W 2834  27.636  16.783  11.924
43574W        W 2835  17.585  38.003  10.997
43575W        W 2836  10.728   4.409  12.091
43576W        W 2837  10.213  20.685  13.908
43577W        W 2838  19.607  26.509   4.239
43578W        W 2839  26.676   4.934   3.721
43579W        W 2840   2.767  15.318   3.168
43580W        W 2841  44.366   2.752  13.506
43581W        W 2842   3.773   0.896  13.971
43582W        W 2843   3.326  19.674   9.950
43583W        W 2844   4.924  19.577   4.281
43584W        W 2845  42.501  34.949   2.843
43585W        W 2846  39.363  13.125  14.988
43586W        W 2847  27.484  20.197   3.700
43587W        W 2848  23.096   2.376  11.879
43588W        W 2849  27.955  16.152   2.227
43589W        W 2850  18.769  43.007   3.317
43590W        W 2851   9.671   2.729   4.773
43591W        W 2852  41.416  17.189  11.006
43592W        W 2853  42.355  37.941   1.851
43593W        W 2854  23.618   0.821   5.216
43594W        W 2855  32.079  38.887   5.217
43595W        W 2856   1.331  21.240  10.085
43596W        W 2857  26.011  17.588   1.916
43597W        W 2858  33.965  22.109   1.237
43598W        W 2859  38.865   2.265   3.275
43599W        W 2860  41.015   6.921  10.563
43600W        W 2861  27.075  28.183  13.858
43601W        W 2862  12.232  16.598   2.785
43602W        W 2863  28.172  29.921  11.386
43603W        W 2864  43.912  25.599  11.378
43604W        W 2865   7.224  37.426   0.417
43605W        W 2866  20.549  12.650   1.428
43606W        W 2867   1.269  17.138   3.739
43607W        W 2868  36.541   6.286   2.805
43608W        W 2869  15.606  30.422   1.323
43609W        W 2870  16.116  13.730  11.469
43610W        W 2871  38.496   6.260   4.147
43611W        W 2872  43.450   0.843   3.696
43612W        W 2873   4.445   1.941  13.906
43613W        W 2874  31.512  35.536  13.327
43614W        W 2875  22.209  28.483   0.811
43615W        W 2876   9.357  31.059   3.236
43616W        W 2877  30.048   3.357   3.805
43617W        W 2878  42.900  20.238  10.442
43618W        W 2879  43.854  26.191   5.734
43619W        W 2880   4.326  15.742   2.323
43620W        W 2881  25.710   8.331   3.819
43621W        W 2882  18.719  17.152  12.551
43622W        W 2883   7.355  15.251   1.352
43623W        W 2884  23.110  25.136  13.005
43624W        W 2885  20.229  17.291   0.812
43625W        W 2886  22.667  33.466  12.853
43626W        W 2887  36.364   9.287   4.814
43627W        W 2888   9.647  41.002   2.262
43628W        W 2889  38.016  15.658  13.992
43629W        W 2890   4.751  13.711   3.667
43630W        W 2891   5.221  20.618   2.418
43631W        W 2892  31.008   0.307   4.801
43632W        W 2893  17.100   2.868  12.500
43633W        W 2894  28.151  13.285   2.368
43634W        W 2895  14.319  26.613   3.852
43635W        W 2896  17.183  22.058  10.059
43636W        W 2897   5.344  14.658   0.743
43637W        W 2898  33.522  16.594   1.754
43638W        W 2899  22.049   4.285   2.262
43639W        W 2900  10.777  28.616  14.477
43640W        W 2901  34.550  39.387   1.932
43641W        W 2902  29.928  29.150  14.373
43642W        W 2903  23.098   7.293  14.872
43643W        W 2904  17.184  40.346  14.457
43644W        W 2905  27.655  42.487   3.665
43645W        W 2906  25.642  44.840  11.046
43646W        W 2907  37.362  41.947  13.837
43647W        W 2908  23.504   2.816  13.953
43648W        W 2909  28.562  15.582   1.425
43649W        W 2910  42.803  41.836  10.952
43650W        W 2911   4.839   2.880   2.729
43651W        W 2912  34.000  15.090   2.323
43652W        W 2913  31.097  43.877   0.359
43653W        W 2914  15.615  42.423   3.705
43654W        W 2915  25.643  25.142  13.791
43655W        W 2916  12.657  15.593   4.811
43656W        W 2917  39.890  15.676  14.985
43657W        W 2918  13.142  34.033   3.366
43658W        W 2919  15.135  21.526  10.509
43659W        W 2920  16.144  37.556  14.859
43660W        W 2921  29.627  32.920   4.245
43661W        W 2922  23.510  15.139   0.329
43662W        W 2923  44.499  25.525   3.178
43663W        W 2924  16.659   3.240  14.984
43664W        W 2925  14.601  38.958  13.461
43665W        W 2926  17.590  32.436   2.743
43666W        W 2927   2.255  13.157   4.280
43667W        W 2928  23.531  43.996  11.002
43668W        W 2929  41.318  36.037  10.930
43669W        W 2930  42.879   8.325   0.873
43670W        W 2931  16.812  30.444   3.780
43671W        W 2932  41.819   5.895   3.655
43672W        W 2933  15.243  18.737  11.091
43673W        W 2934  27.449  38.999  14.367
43674W        W 2935   0.314  11.731  13.374
43675W        W 2936  16.114   5.773   0.775
43676W        W 2937  18.140  29.124  12.561
43677W        W 2938  42.299  42.840   4.244
43678W        W 2939  28.062  34.526  14.391
43679W        W 2940  44.967  32.078   2.720
43680W        W 2941  20.135   0.346  10.919
43681W        W 2942  36.542  15.773  12.044
43682W        W 2943  41.791  22.548   1.227
43683W        W 2944  40.842  38.467   4.235
43684W        W 2945  24.974  38.891   1.784
43685W        W 2946  11.240  19.194  13.808
43686W        W 2947  29.091  30.464  10.535
43687W        W 2948  24.681  27.644  12.966
43688W        W 2949  30.922  19.151   0.920
43689W        W 2950  40.521  43.915   4.313
43690W        W 2951  16.811  22.632   2.346
43691W        W 2952  42.905  28.093  14.964
43692W        W 2953  13.186   5.746  14.960
43693W        W 2954  37.540  34.484   4.601
43694W        W 2955   3.232  18.603  12.937
43695W        W 2956   8.765  26.494  11.461
43696W        W 2957  44.928  24.103  11.111
43697W        W 2958   0.778  36.064   3.187
43698W        W 2959   9.709  41.316  10.923
43699W        W 2960  37.878  41.529  12.479
43700W        W 2961  32.967  39.876   1.438
43701W        W 2962  19.160  32.984  12.407
43702W        W 2963  42.920   8.304  12.861
43703W        W 2964   3.394   3.405   5.093
43704W        W 2965  28.441  35.981  10.993
43705W        W 2966  24.510   6.382  14.776
43706W        W 2967  44.830  24.009  12.465
43707W        W 2968  41.981  22.106   0.278
43708W        W 2969  16.243  44.910  13.421
43709W        W 2970  10.703   1.885  11.115
43710W        W 2971  37.076  14.155   2.672
43711W        W 2972  12.332   4.720   0.432
43712W        W 2973  31.555  36.956   0.819
43713W        W 2974   9.159   7.261  12.848
43714W        W 2975  28.985  22.682   2.704
43715W        W 2976   4.394   0.786  14.483
43716W        W 2977  16.582  41.908   2.801
43717W        W 2978  42.504  19.126  14.845
43718W        W 2979  35.413  13.348   1.698
43719W        W 2980  35.012  22.522  14.876
43720W        W 2981  26.538  15.089  13.384
43721W        W 2982  26.546  33.592  10.447
43722W        W 2983  16.186   4.777  10.551
43723W        W 2984  27.975  31.438   4.812
43724W        W 2985  34.117   3.424  10.005
43725W        W 2986  11.746  10.639   1.854
43726W        W 2987  34.397  39.017  13.486
43727W        W 2988  11.272  35.965   2.242
43728W        W 2989  26.513  33.976  13.417
43729W        W 2990  14.252  39.837   3.710
43730W        W 2991  37.344  10.367  12.042
43731W        W 2992  15.096  37.042  10.487
43732W        W 2993  43.322  24.137   0.292
43733W        W 2994  25.479  30.154  11.856
43734W        W 2995  31.445  12.804   0.945
43735W        W 2996  30.591   8.840   0.258
43736W        W 2997  26.626  26.692  14.845
43737W        W 2998  42.851   7.672   5.178
43738W        W 2999  12.213  27.566   2.211
43739W        W 3000  21.135  43.477  12.357
43740W        W 3001  44.383   3.426  12.995
43741W        W 3002  17.652  11.267   4.642
43742W        W 3003  17.231  34.977   2.807
43743W        W 3004   4.290  37.991  12.409
43744W        W 3005   8.861  44.926  12.823
43745W        W 3006  39.930  18.666   3.188
43746W        W 3007  29.643   1.892   0.328
43747W        W 3008   3.726  16.171   0.778
43748W        W 3009  30.088  35.357   0.960
43749W        W 3010  37.374  16.760  14.325
43750W        W 3011  24.611   7.355  13.521
43751W        W 3012  31.581  26.976   0.895
43752W        W 3013  37.888  23.592   4.662
43753W        W 3014  18.103  30.096   0.249
43754W        W 3015  37.012  32.016   4.777
43755W        W 3016  20.136   6.382  11.125
43756W        W 3017  14.676  41.528   2.696
43757W        W 3018   4.829  29.176  14.833
43758W        W 3019   0.302  22.686   2.388
43759W        W 3020   9.327   5.690   5.794
43760W        W 3021  40.977  23.521   5.216
43761W        W 3022   8.237   5.284  14.777
43762W        W 3023  11.735  21.619   4.695
43763W        W 3024  40.871  41.343   2.179
43764W        W 3025  37.549  22.113  13.399
43765W        W 3026  40.456  40.461  11.865
43766W        W 3027  31.970  29.963  12.503
43767W        W 3028   3.858  15.765   3.727
43768W        W 3029  31.928  26.512   3.762
43769W        W 3030  23.556  25.581   4.826
43770W        W 3031  20.259  17.584   1.238
43771W        W 3032   5.691   2.405   2.674
43772W        W 3033  14.185  37.478  14.452
43773W        W 3034  26.600   0.455  13.403
43774W        W 3035  41.849   1.813   3.365
43775W        W 3036   8.754  39.534   4.760
43776W        W 3037  37.033  30.526  11.564
43777W        W 3038  19.109  33.951  13.896
43778W        W 3039   5.705  17.594  12.912
43779W        W 3040  11.232   1.353   2.800
43780W        W 3041  32.411  44.453   1.343
43781W        W 3042  44.447   1.777   4.616
43782W        W 3043   8.194  28.596  14.884
43783W        W 3044   7.809  43.288  11.413
43784W        W 3045  25.079  19.142   1.313
43785W        W 3046   7.780  44.780   2.781
43786W        W 3047   4.419  25.052   1.858
43787W        W 3048  44.872  44.443   3.246
43788W        W 3049  40.997  22.718  14.021
43789W        W 3050  28.513  21.565  12.522
43790W        W 3051   1.477  37.390   2.417
43791W        W 3052  22.678   3.746  11.911
43792W        W 3053   8.291  40.048  13.056
43793W        W 3054   6.245   1.887   1.222
43794W        W 3055  15.622  26.073   1.729
43795W        W 3056  15.717  40.444   5.200
43796W        W 3057  42.510  28.048   2.294
43797W        W 3058   6.740  19.558  11.544
43798W        W 3059  29.455  22.037  13.335
43799W        W 3060  33.087  22.246   4.340
43800W        W 3061   3.768   3.927   0.813
43801W        W 3062  28.439   0.274   3.804
43802W        W 3063  36.027  12.360  14.884
43803W        W 3064  19.231  35.497  13.900
43804W        W 3065  36.998   5.884  10.501
43805W        W 3066  44.408   4.852   0.865
43806W        W 3067   3.765  29.097   1.928
43807W        W 3068  27.142   5.931  13.810
43808W        W 3069   5.258  42.505   4.201
43809W        W 3070  17.613  15.677  14.767
43810W        W 3071  23.736   6.890  13.478
43811W        W 3072  12.831   8.400  14.865
43812W        W 3073  31.151  34.959   3.363
43813W        W 3074   4.259  14.201  12.531
43814W        W 3075   9.348  37.416   0.738
43815W        W 3076  32.992   8.319   3.365
43816W        W 3077  10.678  34.075   3.245
43817W        W 3078   8.293  44.484   0.460
43818W        W 3079  15.773  19.124   3.739
43819W        W 3080  44.475  25.180   3.373
43820W        W 3081  30.609  28.941  12.845
43821W        W 3082  14.225  41.818  13.821
43822W        W 3083   5.432   2.320   2.867
43823W        W 3084  30.030  31.079  11.963
43824W        W 3085   8.833  14.267   2.233
43825W        W 3086  14.321   5.207  13.488
43826W        W 3087  26.977  14.686   1.434
43827W        W 3088   6.800  19.188  14.322
43828W        W 3089  38.920  43.871   9.948
43829W        W 3090  33.387   0.929  13.050
43830W        W 3091  39.038  38.983  11.924
43831W        W 3092  11.154  10.352  13.831
43832W        W 3093  43.955  22.743  10.914
43833W        W 3094  23.090  20.148  14.341
43834W        W 3095  21.132  36.929  11.077
43835W        W 3096   0.745  18.712   9.999
43836W        W 3097  10.198  20.572   3.372
43837W        W 3098   6.326  32.612  11.029
43838W        W 3099  35.555  43.314   0.327
43839W        W 3100  21.230  34.550   4.222
43840W        W 3101   5.198   1.978  11.596
43841W        W 3102  32.128  43.329   3.722
43842W        W 3103  43.367  37.027  12.848
43843W        W 3104  30.917   9.786   2.662
43844W        W 3105  16.131   3.342   4.328
43845W        W 3106  40.410  10.326  13.453
43846W        W 3107  32.504  20.095  11.066
43847W        W 3108  29.152  35.942  12.095
43848W        W 3109  43.329  25.551  13.959
43849W        W 3110  20.606  41.371  12.960
43850W        W 3111  17.194  28.139  12.501
43851W        W 3112  40.827  14.330  13.895
43852W        W 3113   7.176  18.582  10.440
43853W        W 3114  31.544   4.837  13.983
43854W        W 3115  23.214   3.910   2.228
43855W        W 3116  18.084  15.737   4.170
43856W        W 3117  19.632  36.593  13.845
43857W        W 3118  28.093   7.269  10.607
43858W        W 3119  36.972  17.611   2.217
43859W        W 3120  10.192  41.309   1.925
43860W        W 3121   0.279  18.250   0.267
43861W        W 3122  30.521  36.842   0.921
43862W        W 3123  34.478   0.811   1.805
43863W        W 3124  27.582  43.468   4.814
43864W        W 3125  40.921  27.985   0.832
43865W        W 3126  31.468  31.557   4.134
43866W        W 3127  14.833  26.588   1.725
43867W        W 3128  32.474  43.387   0.788
43868W        W 3129   8.722  17.180  13.931
43869W        W 3130   4.430   5.259   3.661
43870W        W 3131  38.968   6.895   1.389
43871W        W 3132  35.472  35.920   3.636
43872W        W 3133   6.849  38.343   2.335
43873W        W 3134  41.998  17.576  11.402
43874W        W 3135  26.553  40.860  14.370
43875W        W 3136  30.577  21.619  14.793
43876W        W 3137   6.769  42.468   0.904
43877W        W 3138  32.096   8.890  12.067
43878W        W 3139  29.147   3.890  12.002
43879W        W 3140  31.540  19.737  13.458
43880W        W 3141  21.644  20.237  13.823
43881W        W 3142  25.029   6.745   3.299
43882W        W 3143  31.962  34.030  14.489
43883W        W 3144  37.912  36.392   0.476
43884W        W 3145  39.981  30.938  14.283
43885W        W 3146  39.492  13.219   2.384
43886W        W 3147   1.919  16.107   3.633
43887W        W 3148   4.773  22.603  12.487
43888W        W 3149   9.890   8.771   4.120
43889W        W 3150  10.190  20.248   3.786
43890W        W 3151  22.034   6.319  11.605
43891W        W 3152  28.026  10.813   0.946
43892W        W 3153  38.550  10.694  13.886
43893W        W 3154   5.366  30.154  13.543
43894W        W 3155   1.423  40.838  13.020
43895W        W 3156   3.774  13.335   3.645
43896W        W 3157  27.684  18.692   2.321
43897W        W 3158   8.187   3.907  10.510
43898W        W 3159  18.745  15.625   9.993
43899W        W 3160  27.182   0.929   0.255
43900W        W 3161  21.635  38.928  14.909
43901W        W 3162  39.005  29.460   4.132
43902W        W 3163  43.012  32.038   0.918
43903W        W 3164  44.992   3.738   3.193
43904W        W 3165   4.230  16.296  14.948
43905W        W 3166  33.484  43.430  13.834
43906W        W 3167  24.646  22.550   3.794
43907W        W 3168  22.188  14.614  14.984
43908W        W 3169  21.645  35.360  14.340
43909W        W 3170  11.216  24.191  14.933
43910W        W 3171  17.116   3.798   1.859
43911W        W 3172  31.935   5.214   1.267
43912W        W 3173  36.989   5.725  13.387
43913W        W 3174  14.619  27.684   1.262
43914W        W 3175  42.473   1.841  11.453
43915W        W 3176   5.927  14.606   2.314
43916W        W 3177  10.855  36.851  14.994
43917W        W 3178  21.627   1.932  10.550
43918W        W 3179  33.050  41.507   1.922
43919W        W 3180  20.642  29.086  13.426
43920W        W 3181  43.992  23.117   9.562
43921W        W 3182  18.074  44.809  10.997
43922W        W 3183  17.778  42.914  12.006
43923W        W 3184  13.609  17.190  11.083
43924W        W 3185  24.574  24.180  14.882
43925W        W 3186  19.605  39.860   3.743
43926W        W 3187  34.865   9.190  11.119
43927W        W 3188  22.508  36.058   0.776
43928W        W 3189  21.579  41.885  13.001
43929W        W 3190  24.207   5.709   0.255
43930W        W 3191  28.581  24.016   0.299
43931W        W 3192  40.841  42.813   2.192
43932W        W 3193  11.777  11.734   0.398
43933W        W 3194  33.555  13.189  13.941
43934W        W 3195  25.706  12.785  13.329
43935W        W 3196   1.964  13.834   1.739
43936W        W 3197  13.787  22.694   2.702
43937W        W 3198   2.721  25.185   3.854
43938W        W 3199  40.961  11.134  14.498
43939W        W 3200  42.304  33.071  12.925
43940W        W 3201  40.020  40.364   2.179
43941W        W 3202  20.758  23.494  12.891
43942W        W 3203  31.419   4.241  12.866
43943W        W 3204  43.771   6.272  11.421
43944W        W 3205  37.545   7.350  14.013
43945W        W 3206  21.557  42.843  10.566
43946W        W 3207  10.203   0.781   1.915
43947W        W 3208  25.143  27.131  10.498
43948W        W 3209  44.950  39.433  12.875
43949W        W 3210  23.241  36.841  14.014
43950W        W 3211  22.691  26.201   4.728
43951W        W 3212  15.304  44.387   3.370
43952W        W 3213  42.877  27.605   1.733
43953W        W 3214  13.187   9.850  14.443
43954W        W 3215  20.665  24.107   0.737
43955W        W 3216  18.572  34.450  14.489
43956W        W 3217   0.771  34.553   1.368
43957W        W 3218  11.636  16.257   4.657
43958W        W 3219  41.943  25.191  13.520
43959W        W 3220  43.944  44.944   3.674
43960W        W 3221  38.844  38.847  10.105
43961W        W 3222  34.452  17.759   3.802
43962W        W 3223   6.881  23.493   2.727
43963W        W 3224  15.585   5.932   2.752
43964W        W 3225   8.703   4.371   3.160
43965W        W 3226  16.112  27.002   1.335
43966W        W 3227  36.414  10.684  14.370
43967W        W 3228   7.731  36.074  10.552
43968W        W 3229  41.295  34.435  13.864
43969W        W 3230  11.854  21.568  14.997
43970W        W 3231  39.522   7.855  13.811
43971W        W 3232  35.533  14.756  14.874
43972W        W 3233  37.004  27.101  14.925
43973W        W 3234  10.238   6.328   4.147
43974W        W 3235   9.239  35.045   3.154
43975W        W 3236  41.385   2.920   3.781
43976W        W 3237  17.290  22.648  11.378
43977W        W 3238   7.209  21.092  10.441
43978W        W 3239   2.239  29.551  12.837
43979W        W 3240  23.735  18.681  14.797
43980W        W 3241  15.214  12.322  14.355
43981W        W 3242  34.000  35.095  14.459
43982W        W 3243  25.174  29.452   3.851
43983W        W 3244  36.856  11.156   1.883
43984W        W 3245   0.961  16.629  12.844
43985W        W 3246  34.384  23.240  11.600
43986W        W 3247   0.325  11.815  14.508
43987W        W 3248  43.967   0.377  10.462
43988W        W 3249  44.489  14.830   3.325
43989W        W 3250  26.096  21.615   0.789
43990W        W 3251  25.212  43.376  14.827
43991W        W 3252   6.428  19.674  13.932
43992W        W 3253  38.059   5.741  10.485
43993W        W 3254   0.753  44.903  11.025
43994W        W 3255  43.340  32.565   4.338
43995W        W 3256   1.449  21.641  11.401
43996W        W 3257  34.894  11.145  13.415
43997W        W 3258  25.177   0.303  10.891
43998W        W 3259  39.539  42.877  14.003
43999W        W 3260   5.298  17.166  14.297
44000W        W 3261  33.105  20.654   4.188
44001W        W 3262  33.907  13.791   4.263
44002W        W 3263  24.697   3.827   1.818
44003W        W 3264  44.985  11.759   0.809
44004W        W 3265  33.465  15.148   2.812
44005W        W 3266  30.959  41.888  10.533
44006W        W 3267  30.118   3.343   1.747
44007W        W 3268  41.802  38.551   0.344
44008W        W 3269  42.823  33.558   4.304
44009W        W 3270  15.146  29.013  12.500
44010W        W 3271  41.406  16.587   1.396
44011W        W 3272   4.406  28.934  10.465
44012W        W 3273  19.562  41.836  13.338
44013W        W 3274   6.261  15.136  12.907
44014W        W 3275  20.241  44.918  11.583
44015W        W 3276  31.580  31.423  11.447
44016W        W 3277  23.677  16.283  13.977
44017W        W 3278  19.735  26.085  12.389
44018W        W 3279  35.542  37.878  13.856
44019W        W 3280  32.106  40.350   4.124
44020W        W 3281  33.564  19.551   1.439
44021W        W 3282   7.668  40.898  14.853
44022W        W 3283   9.888  26.686  13.433
44023W        W 3284  17.652  33.966  14.961
44024W        W 3285  29.934   6.218   3.176
44025W        W 3286   4.881  13.834  11.374
44026W        W 3287   8.886  26.459  13.327
44027W        W 3288  27.458  18.754   3.859
44028W        W 3289  20.566  21.660  13.366
44029W        W 3290  29.502  25.978   3.356
44030W        W 3291  14.330   7.304   2.246
44031W        W 3292  43.947   0.747  11.970
44032W        W 3293  14.744   4.430  11.459
44033W        W 3294   7.230   7.801   5.101
44034W        W 3295  41.416  18.251  13.045
44035W        W 3296   3.762   4.248   4.177
44036W        W 3297   4.242  37.891   1.801
44037W        W 3298  14.639  37.448   0.396
44038W        W 3299   0.373  17.775  13.434
44039W        W 3300   8.661  28.441   4.280
44040W        W 3301  29.438  16.179  10.485
44041W        W 3302  10.870  15.778   0.791
44042W        W 3303  17.119  11.340  10.895
44043W        W 3304  12.244   6.321  14.441
44044W        W 3305   1.324   3.214   1.921
44045W        W 3306   9.803  41.003  12.932
44046W        W 3307   6.709  12.645   0.857
44047W        W 3308  40.038   0.791  10.566
44048W        W 3309  41.403  41.483  14.846
44049W        W 3310  31.442  40.380  12.973
44050W        W 3311  17.147  34.063  14.880
44051W        W 3312  16.312  41.893   2.307
44052W        W 3313  40.918  28.444  14.020
44053W        W 3314  44.813  27.514  12.871
44054W        W 3315  19.730  21.723  11.427
44055W        W 3316  39.911  34.013  10.419
44056W        W 3317  39.401  29.456   0.942
44057W        W 3318  37.879  35.525   2.409
44058W        W 3319  41.379  23.000   0.346
44059W        W 3320  27.112  17.271  14.804
44060W        W 3321  25.644  15.090   2.359
44061W        W 3322  12.222  30.638   1.771
44062W        W 3323   5.266  44.499  12.390
44063W        W 3324  14.826  26.655  14.366
44064W        W 3325  28.113  38.898  12.400
44065W        W 3326  35.427  26.124  14.933
44066W        W 3327   2.360  25.656   4.231
44067W        W 3328  30.012   2.750   3.695
44068W        W 3329  41.526  15.158   4.189
44069W        W 3330  18.134  25.621   3.822
44070W        W 3331  28.100   7.313  11.428
44071W        W 3332  44.427   0.471   0.966
44072W        W 3333  15.169  20.266   0.954
44073W        W 3334  16.691   6.677   5.126
44074W        W 3335  14.337   8.174   1.313
44075W        W 3336   2.863  16.654   4.307
44076W        W 3337   9.233  36.028   4.238
44077W        W 3338   5.329  13.320  10.448
44078W        W 3339   6.720  20.220  13.807
44079W        W 3340  33.106   7.684   2.844
44080W        W 3341  17.625  14.711   2.398
44081W        W 3342  38.411   9.690  11.406
44082W        W 3343  14.313  18.614   1.336
44083W        W 3344   7.210  27.537  12.511
44084W        W 3345  23.127   7.717   1.821
44085W        W 3346  39.891  10.652   3.274
44086W        W 3347  24.138  17.143  12.006
44087W        W 3348  19.593   7.239   1.850
44088W        W 3349   7.277  15.289  11.100
44089W        W 3350  25.582  18.264   4.723
44090W        W 3351  29.582  33.108   1.332
44091W        W 3352  34.424  29.064   2.310
44092W        W 3353   3.450  43.360  14.849
44093W        W 3354  40.390  34.021  11.527
44094W        W 3355  40.868  16.129  11.544
44095W        W 3356   8.710  23.679   3.735
44096W        W 3357  26.662  31.559  13.917
44097W        W 3358  36.487   6.304  13.328
44098W        W 3359  10.735  21.592  12.966
44099W        W 3360  13.623   6.749   2.307
44100W        W 3361  17.097  26.642   5.181
44101W        W 3362  27.168   2.776   3.671
44102W        W 3363  13.721  17.776   2.194
44103W        W 3364  33.472   8.355  14.020
44104W        W 3365  16.721  42.873   1.881
44105W        W 3366  36.419   1.892  11.923
44106W        W 3367  40.372  37.540  13.949
44107W        W 3368  13.751  31.573   3.850
44108W        W 3369  20.194  18.624   3.154
44109W        W 3370  40.875  40.466  12.082
44110W        W 3371  41.033  20.195   2.239
44111W        W 3372  37.888  22.060  13.992
44112W        W 3373  36.020   8.251  11.568
44113W        W 3374   4.904  31.094  13.923
44114W        W 3375  12.310   8.698   4.336
44115W        W 3376   4.812  33.911   2.758
44116W        W 3377  24.490  23.492  12.946
44117W        W 3378  31.941  24.135  11.005
44118W        W 3379  31.460  31.016   1.892
44119W        W 3380  35.464  35.970   1.797
44120W        W 3381   9.324  18.779   3.667
44121W        W 3382  28.490  42.383   3.321
44122W        W 3383  28.078   2.358   0.433
44123W        W 3384  43.454  18.076  14.321
44124W        W 3385   9.830   3.926  12.828
44125W        W 3386   4.450  32.497   1.700
44126W        W 3387  19.059  21.205   4.219
44127W        W 3388   4.281  42.974   3.193
44128W        W 3389  26.073  11.742  10.494
44129W        W 3390  13.106  36.883  11.386
44130W        W 3391  32.629   3.745   1.840
44131W        W 3392   9.156  41.816   1.785
44132W        W 3393  33.573  34.874  11.503
44133W        W 3394   5.771  11.238  11.983
44134W        W 3395  30.631   4.765  14.007
44135W        W 3396  29.081  22.664  13.032
44136W        W 3397  21.685   2.257   3.339
44137W        W 3398   9.282  40.015   4.280
44138W        W 3399  12.272   8.347  13.999
44139W        W 3400  43.425  20.194   0.330
44140W        W 3401  26.596  15.619   9.985
44141W        W 3402  26.502   8.230  13.863
44142W        W 3403  29.538   7.911   3.197
44143W        W 3404  24.707   9.226   3.675
44144W        W 3405  20.197  16.223  10.484
44145W        W 3406  39.387  21.217  12.978
44146W        W 3407  30.616   3.234  11.027
44147W        W 3408  44.299   5.371   3.297
44148W        W 3409   8.226  19.198   2.243
44149W        W 3410  40.492  21.671   3.186
44150W        W 3411  38.832  32.629  14.378
44151W        W 3412  28.637  34.953  14.003
44152W        W 3413  31.623  26.166  13.044
44153W        W 3414   1.336  21.168  11.386
44154W        W 3415   8.246  25.668   0.741
44155W        W 3416  30.548  38.008   1.438
44156W        W 3417  20.162   2.808   4.182
44157W        W 3418  25.620  41.461   4.135
44158W        W 3419   3.292   3.258   1.832
44159W        W 3420  14.150  33.502  14.471
44160W        W 3421  31.954  40.439  14.316
44161W        W 3422  38.838  15.818  11.943
44162W        W 3423  24.666  28.156  14.759
44163W        W 3424   8.780  16.616  11.596
44164W        W 3425  34.999  30.584   3.635
44165W        W 3426  18.229  24.974  12.563
44166W        W 3427  21.056  32.985  10.501
44167W        W 3428  37.009  34.010  10.957
44168W        W 3429   7.819  18.282   4.249
44169W        W 3430  15.279  40.549  11.404
44170W        W 3431  11.322  33.548   0.452
44171W        W 3432  27.048   0.281  11.920
44172W        W 3433   0.309  14.725  10.543
44173W        W 3434  23.122  36.495  14.781
44174W        W 3435  14.196  25.657  13.059
44175W        W 3436  27.973  20.257   1.214
44176W        W 3437  30.586  25.554   0.378
44177W        W 3438  33.472  41.027   2.228
44178W        W 3439  33.425  11.291   3.384
44179W        W 3440  42.801  40.515   4.614
44180W        W 3441  19.059  33.042  14.494
44181W        W 3442  28.648  21.758  13.398
44182W        W 3443   6.737  25.994   3.731
44183W        W 3444   7.751  12.180  14.327
44184W        W 3445  10.815  42.842  11.537
44185W        W 3446  12.306  27.970  12.081
44186W        W 3447  37.949  21.165  10.148
44187W        W 3448  14.122  41.858   1.765
44188W        W 3449  29.963  36.406   4.782
44189W        W 3450  41.373   1.954   0.826
44190W        W 3451   0.374  18.217  12.506
44191W        W 3452  21.579  23.990   1.805
44192W        W 3453   8.215  35.981  12.369
44193W        W 3454  28.046  34.375   3.746
44194W        W 3455  37.562  25.586   2.718
44195W        W 3456   6.249  24.090   3.797
44196W        W 3457  39.332  26.134   1.262
44197W        W 3458  43.781   3.328  10.929
44198W        W 3459  35.955  39.054  13.043
44199W        W 3460  38.442  22.583  12.513
44200W        W 3461  20.225  39.978   2.381
44201W        W 3462  42.372  11.748  13.420
44202W        W 3463  10.794  43.380  13.473
44203W        W 3464  42.290  43.004   1.901
44204W        W 3465   7.306  28.941   0.308
44205W        W 3466   3.876   3.755  14.321
44206W        W 3467   5.752  11.693   2.881
44207W        W 3468   9.681   7.408   0.482
44208W        W 3469  17.143  38.423  13.851
44209W        W 3470  34.865  22.587  11.381
44210W        W 3471  12.679  32.920  14.476
44211W        W 3472   6.324  30.069  13.005
44212W        W 3473  25.977  29.658   0.789
44213W        W 3474  38.995  22.995   0.805
44214W        W 3475  26.626  16.240  12.070
44215W        W 3476  38.908  19.605   0.280
44216W        W 3477  15.308  41.461   2.206
44217W        W 3478  14.807  44.940  13.405
44218W        W 3479  10.248  29.125   2.743
44219W        W 3480  28.986  15.792  10.950
44220W        W 3481  17.600  35.555   0.935
44221W        W 3482  28.034   8.815  10.935
44222W        W 3483  10.679  18.265  14.797
44223W        W 3484  12.222   2.889   1.420
44224W        W 3485  10.356  27.984   4.789
44225W        W 3486   4.799  42.846   1.912
44226W        W 3487  35.944  27.021   0.393
44227W        W 3488  34.499  43.892   4.817
44228W        W 3489  35.591  21.540   0.383
44229W        W 3490  24.222  19.225  13.528
44230W        W 3491   2.325  18.572  13.341
44231W        W 3492  19.719   1.320  11.863
44232W        W 3493  22.104  37.415  13.310
44233W        W 3494  34.544  18.683  12.342
44234W        W 3495   2.364  20.696  13.822
44235W        W 3496  28.544  15.282  11.598
44236W        W 3497   0.986  40.904   3.729
44237W        W 3498  34.110  35.100  13.826
44238W        W 3499  41.981  30.967   2.300
44239W        W 3500  32.060  12.299   0.484
44240W        W 3501  39.432   0.361  12.883
44241W        W 3502  41.384  31.094  10.432
44242W        W 3503  22.105   2.844   3.272
44243W        W 3504  22.037   5.745  14.383
44244W        W 3505  20.199  32.904  13.468
44245W        W 3506  14.155  30.478   3.728
44246W        W 3507  19.105  33.622  14.923
44247W        W 3508  23.602  16.730   3.757
44248W        W 3509   0.898  11.152  10.588
44249W        W 3510  11.777  15.784   2.255
44250W        W 3511  30.629  32.011   0.434
44251W        W 3512  41.427   1.786  11.968
44252W        W 3513  22.722   5.307  14.018
44253W        W 3514  26.538  10.726  11.028
44254W        W 3515  41.820  41.016   4.786
44255W        W 3516  44.767   6.723  13.792
44256W        W 3517  13.250  17.073  13.968
44257W        W 3518  38.512  16.214  10.900
44258W        W 3519  33.085  42.394  14.776
44259W        W 3520   9.317  33.993  12.415
44260W        W 3521  37.578  37.548  12.010
44261W        W 3522  24.059  26.689  12.870
44262W        W 3523  41.936  43.325   1.834
44263W        W 3524  16.254  24.615  12.528
44264W        W 3525  36.890  26.590  13.002
44265W        W 3526  21.622  13.806  10.602
44266W        W 3527  28.142   0.429   2.719
44267W        W 3528  41.526  21.119   3.699
44268W        W 3529  19.192  17.082  11.066
44269W        W 3530   2.467  27.129  11.519
44270W        W 3531  13.277   6.869   2.818
44271W        W 3532   9.803  42.490  14.799
44272W        W 3533  28.070  13.204  14.331
44273W        W 3534   1.760  13.295   0.254
44274W        W 3535  17.157   5.802  13.357
44275W        W 3536   0.857  16.310   4.241
44276W        W 3537   8.788  23.666  10.568
44277W        W 3538  35.382  10.260  11.879
44278W        W 3539  20.219  42.932  13.820
44279W        W 3540   2.309  37.064  10.426
44280W        W 3541  40.843   8.309  12.874
44281W        W 3542   6.840  16.232   0.840
44282W        W 3543   6.694  25.106  12.073
44283W        W 3544   9.282  42.979   4.756
44284W        W 3545  21.040  37.038  12.561
44285W        W 3546  22.064  11.778   1.839
44286W        W 3547  43.513  10.675   2.292
44287W        W 3548  23.053  16.646   0.852
44288W        W 3549  42.379  31.083  12.096
44289W        W 3550  43.966  18.213  10.518
44290W        W 3551  33.436  22.642   4.661
44291W        W 3552  17.660  44.331   4.330
44292W        W 3553  42.786  41.509   2.245
44293W        W 3554  11.635  26.160  14.326
44294W        W 3555  20.252  20.213  12.404
44295W        W 3556   4.287  32.142   3.789
44296W        W 3557  24.492  26.955  11.438
44297W        W 3558  35.078  26.991   2.878
44298W        W 3559  23.137   9.848   1.760
44299W        W 3560   1.818  14.751  12.980
44300W        W 3561   7.306  17.705   2.886
44301W        W 3562  35.928  44.990   3.635
44302W        W 3563  10.838  30.133  13.358
44303W        W 3564  36.010  38.880   4.666
44304W        W 3565  15.145   3.316  13.821
44305W        W 3566  17.159  19.275   4.131
44306W        W 3567  36.457  37.364  14.783
44307W        W 3568  10.759  10.854  11.529
44308W        W 3569   5.692  35.537   2.898
44309W        W 3570  24.204  32.523   0.807
44310W        W 3571  15.100  13.233  13.405
44311W        W 3572  41.949   3.911  10.562
44312W        W 3573  32.906  36.452   0.296
44313W        W 3574  37.871  38.567   3.327
44314W        W 3575  15.781  22.083  14.444
44315W        W 3576  29.113   9.869   2.700
44316W        W 3577  13.774   5.360  12.031
44317W        W 3578  18.752   9.158  10.894
44318W        W 3579  44.821  13.700  14.373
44319W        W 3580  13.716  14.761   3.193
44320W        W 3581  21.587  31.405   2.803
44321W        W 3582   7.357   2.253  12.463
44322W        W 3583  27.633  28.569   0.933
44323W        W 3584  12.254  42.514   2.787
44324W        W 3585  10.660  32.950  10.979
44325W        W 3586  18.667   4.379  14.818
44326W        W 3587  26.177   9.733  10.432
44327W        W 3588  34.031  31.040   3.166
44328W        W 3589  22.174   3.432   0.484
44329W        W 3590  14.338  12.851   3.826
44330W        W 3591   5.911   8.820  12.930
44331W        W 3592  43.438  36.998  14.351
44332W        W 3593  43.986  36.495   2.725
44333W        W 3594  41.811  41.910   0.481
44334W        W 3595  22.178  19.642  13.428
44335W        W 3596  15.637  37.369   3.305
44336W        W 3597  27.692  31.898  13.426
44337W        W 3598  37.437  28.599  14.468
44338W        W 3599   7.184   6.290  11.027
44339W        W 3600  22.052   0.254  12.346
44340W        W 3601  10.758  16.752  11.397
44341W        W 3602  38.851   7.844  12.899
44342W        W 3603  10.722  40.881   1.861
44343W        W 3604  25.116  13.223   2.833
44344W        W 3605   5.842   1.416   1.409
44345W        W 3606  23.602   4.862  12.876
44346W        W 3607  37.850  25.163  10.632
44347W        W 3608  19.700  24.218  12.850
44348W        W 3609  26.203  30.539   1.221
44349W        W 3610  20.589  41.373  13.443
44350W        W 3611  40.970  21.062  10.437
44351W        W 3612  34.502   0.856   2.345
44352W        W 3613  26.105  23.685   4.142
44353W        W 3614  14.743   5.781  13.919
44354W        W 3615  25.481  44.756   4.294
44355W        W 3616  39.867  23.524   4.723
44356W        W 3617  35.890  22.522  11.867
44357W        W 3618  25.483   8.230   2.387
44358W        W 3619  22.212  18.602  11.968
44359W        W 3620  42.964  12.640  13.312
44360W        W 3621  20.114   7.324  13.797
44361W        W 3622  23.203   2.833  14.017
44362W        W 3623  41.338  40.366   4.734
44363W        W 3624  23.509  26.078  14.453
44364W        W 3625   6.790  26.559   3.760
44365W        W 3626  30.943   0.815  11.009
44366W        W 3627  33.120  15.121   1.386
44367W        W 3628  24.680   5.339  13.914
44368W        W 3629   8.278  32.933  13.850
44369W        W 3630  25.196  19.723  10.597
44370W        W 3631  36.574  30.520   0.797
44371W        W 3632   5.357  39.835  13.040
44372W        W 3633   0.426  20.573   4.338
44373W        W 3634   4.435  24.668  13.808
44374W        W 3635  33.417  10.286   4.207
44375W        W 3636   1.382  34.522  14.851
44376W        W 3637  14.319   5.379  11.608
44377W        W 3638  26.605  41.958  12.941
44378W        W 3639  37.534  14.315   2.759
44379W        W 3640  25.654  42.473   4.193
44380W        W 3641  28.016  21.566   0.843
44381W        W 3642  16.783  28.615  12.938
44382W        W 3643  38.327  15.222   3.862
44383W        W 3644  21.054  34.589   3.375
44384W        W 3645  25.030  16.764  14.444
44385W        W 3646   7.876   0.859   3.335
44386W        W 3647  32.560  19.179  13.995
44387W        W 3648   3.290  39.523  11.495
44388W        W 3649  32.084  19.577   3.870
44389W        W 3650  11.837  22.719  10.032
44390W        W 3651  43.849  23.118  10.987
44391W        W 3652  43.289  21.205  14.506
44392W        W 3653   9.261   1.963  14.313
44393W        W 3654  28.935  38.033  12.569
44394W        W 3655   6.298  10.813   2.214
44395W        W 3656  44.304  42.287  13.846
44396W        W 3657  23.092  33.451   0.867
44397W        W 3658  37.410   7.737  12.478
44398W        W 3659  39.412  34.094  12.958
44399W        W 3660  12.827  36.489  14.495
44400W        W 3661  38.006  34.101  13.018
44401W        W 3662   4.796  36.530  10.078
44402W        W 3663  32.484   7.305  10.546
44403W        W 3664   2.911  25.673   0.300
44404W        W 3665  39.360  43.496   0.309
44405W        W 3666   3.447  25.588  12.072
44406W        W 3667   2.465   8.765  12.503
44407W        W 3668  11.690  26.997   3.668
44408W        W 3669   4.257  22.543  12.541
44409W        W 3670  38.503  32.101   3.812
44410W        W 3671  31.491   3.751  10.553
44411W        W 3672  34.972  44.352   0.739
44412W        W 3673  11.713  20.259  12.915
44413W        W 3674  42.459  34.461  13.492
44414W        W 3675  11.626   0.401  10.634
44415W        W 3676  36.389  12.614  14.420
44416W        W 3677  32.982   0.987  10.928
44417W        W 3678  41.327  32.440  14.858
44418W        W 3679  31.447   7.377   2.236
44419W        W 3680  22.725  27.166   0.879
44420W        W 3681   8.400   2.407  10.488
44421W        W 3682  29.457  19.537   5.298
44422W        W 3683  34.941   6.279  11.071
44423W        W 3684  28.935   2.934   3.279
44424W        W 3685   7.299  24.549  14.488
44425W        W 3686  30.049  25.688  11.476
44426W        W 3687  41.986  30.622  13.955
44427W        W 3688  40.878  29.067   1.325
44428W        W 3689  43.872  25.483   2.313
44429W        W 3690  23.601   7.289  12.535
44430W        W 3691  44.419  36.002  12.939
44431W        W 3692  39.014  32.557  11.116
44432W        W 3693  42.858   0.965  12.460
44433W        W 3694   2.966  10.275  14.494
44434W        W 3695  15.690  37.551  14.290
44435W        W 3696  35.448   3.261   3.717
44436W        W 3697   8.247  43.893  11.930
44437W        W 3698  30.563  25.212   0.844
44438W        W 3699  25.214  18.218   2.745
44439W        W 3700  31.917  24.076  13.793
44440W        W 3701   6.373  28.565   4.765
44441W        W 3702  39.408   7.757  14.447
44442W        W 3703  24.649  44.858  11.912
44443W        W 3704   4.431  11.280   0.786
44444W        W 3705  32.931  12.321   4.115
44445W        W 3706  26.031  32.575  10.439
44446W        W 3707  27.064   2.294  13.947
44447W        W 3708  38.511  38.404   0.885
44448W        W 3709  13.199  15.167  13.917
44449W        W 3710  19.259  36.583  14.296
44450W        W 3711  32.887  33.408  13.893
44451W        W 3712   3.388   5.363   5.109
44452W        W 3713   5.416   9.725  10.990
44453W        W 3714  42.838  12.149   2.229
44454W        W 3715  40.490  40.510  12.404
44455W        W 3716  37.508  24.039   0.842
44456W        W 3717  39.920   3.945  11.608
44457W        W 3718  33.567  41.435   3.310
44458W        W 3719  11.692  19.705  11.945
44459W        W 3720  35.395  28.054  11.439
44460W        W 3721  14.803  43.460  14.780
44461W        W 3722  14.698  40.040  11.866
44462W        W 3723  36.862  24.575   3.282
44463W        W 3724   0.288  33.948   0.921
44464W        W 3725  20.112  22.107   3.358
44465W        W 3726  24.563  10.305   3.799
44466W        W 3727  36.960  44.462  10.419
44467W        W 3728  41.909  34.533   2.716
44468W        W 3729  25.211  44.391   0.339
44469W        W 3730  15.224  28.085   0.760
44470W        W 3731  30.000  31.441   0.857
44471W        W 3732  32.562   8.208   3.853
44472W        W 3733  20.241  16.812  11.963
44473W        W 3734  12.776   3.851   3.670
44474W        W 3735  17.762  43.354   0.438
44475W        W 3736  44.909   9.217  13.966
44476W        W 3737  16.714  42.524  13.413
44477W        W 3738  27.674   8.712   4.814
44478W        W 3739  40.899  20.609   0.422
44479W        W 3740  12.289  32.113   2.735
44480W        W 3741  43.854  37.474   0.780
44481W        W 3742  22.045   9.779  10.960
44482W        W 3743  23.029  34.519  12.489
44483W        W 3744   4.364  19.183  13.548
44484W        W 3745  38.460  16.101   9.972
44485W        W 3746  10.769  17.756   0.379
44486W        W 3747  32.438  30.641  12.953
44487W        W 3748  36.879  10.305  12.447
44488W        W 3749  44.807  22.702   2.188
44489W        W 3750  15.095  39.054  13.307
44490W        W 3751  35.086  38.375   1.918
44491W        W 3752  40.043  36.490  13.958
44492W        W 3753  37.965  24.056  12.470
44493W        W 3754   3.354  36.504   4.822
44494W        W 3755  43.925  13.830  14.772
44495W        W 3756  13.772  21.655   3.336
44496W        W 3757   9.646  44.894   0.451
44497W        W 3758  30.413   6.405   1.411
44498W        W 3759   9.735  28.611  13.826
44499W        W 3760  14.333  37.377   0.299
44500W        W 3761  36.903  16.810   4.175
44501W        W 3762  21.247  21.248  12.825
44502W        W 3763   7.704  19.642  14.986
44503W        W 3764  33.969  42.381   1.319
44504W        W 3765  24.989  42.797  12.985
44505W        W 3766   9.227  30.634  14.935
44506W        W 3767  38.541  39.930   3.640
44507W        W 3768  39.506  30.508  12.900
44508W        W 3769  36.452   6.354  10.451
44509W        W 3770  35.551  26.555  14.293
44510W        W 3771  41.977  23.662   2.690
44511W        W 3772  19.558  29.129  13.032
44512W        W 3773  16.225   2.447  11.899
44513W        W 3774  33.553  29.157  12.071
44514W        W 3775  20.094   1.255   0.758
44515W        W 3776  33.879  24.620   2.780
44516W        W 3777  19.661  20.030  14.817
44517W        W 3778  38.044  25.106  12.441
44518W        W 3779   0.894  35.000   1.835
44519W        W 3780  16.673  25.603  13.453
44520W        W 3781  41.441  38.853   2.712
44521W        W 3782  23.665   9.663  14.988
44522W        W 3783   8.249  37.846   1.430
44523W        W 3784  25.058  36.873   3.280
44524W        W 3785  38.998  37.943   9.455
44525W        W 3786  18.753  41.792   2.771
44526W        W 3787  20.585  20.719   0.866
44527W        W 3788  32.037  32.579   0.883
44528W        W 3789   0.745  34.498   0.930
44529W        W 3790  25.171  37.446   3.695
44530W        W 3791   3.222  24.066   3.786
44531W        W 3792  34.475   8.722   4.644
44532W        W 3793  38.863  16.743  13.392
44533W        W 3794  44.888   4.334  14.817
44534W        W 3795  34.955  20.063  11.591
44535W        W 3796   2.398  13.173   4.826
44536W        W 3797   4.888   4.888  10.131
44537W        W 3798  44.828  22.532  10.558
44538W        W 3799   2.740  26.664   0.374
44539W        W 3800  14.172  43.465  10.919
44540W        W 3801  21.165  33.480  14.405
44541W        W 3802  33.955  35.578  14.351
44542W        W 3803  28.945  10.381  13.836
44543W        W 3804  23.202  38.029   3.283
44544W        W 3805   9.369  36.856  12.393
44545W        W 3806  33.042   0.254   1.256
44546W        W 3807   6.794  42.982  12.535
44547W        W 3808  34.489  30.096   4.821
44548W        W 3809  12.632  10.786   1.933
44549W        W 3810  21.220  34.927   2.710
44550W        W 3811  10.214  22.693   2.877
44551W        W 3812  11.790  16.566  12.900
44552W        W 3813  12.344  20.599   2.685
44553W        W 3814  11.344  19.100  13.464
44554W        W 3815  35.872  35.385   2.863
44555W        W 3816  39.006  37.850   3.812
44556W        W 3817  41.528  20.598  12.432
44557W        W 3818   2.419  44.011  13.539
44558W        W 3819  42.389  43.899  14.495
44559W        W 3820  34.947   5.874  11.957
44560W        W 3821  35.969  31.956   1.867
44561W        W 3822  28.594  24.105  12.091
44562W        W 3823   9.217  18.690  12.066
44563W        W 3824   2.237  20.611  13.061
44564W        W 3825   0.960   7.786   2.897
44565W        W 3826  11.795  23.656   3.856
44566W        W 3827  23.012   2.805   0.385
44567W        W 3828  37.463  39.054   4.153
44568W        W 3829   1.364  21.124   0.272
44569W        W 3830  20.767  25.600   2.335
44570W        W 3831  18.064  33.452   2.364
44571W        W 3832  18.176  43.797   2.284
44572W        W 3833  20.164  30.620  10.992
44573W        W 3834   9.256  18.769   2.783
44574W        W 3835  35.550  14.599  12.056
44575W        W 3836  40.400  31.412   2.260
44576W        W 3837  32.067  25.483   5.183
44577W        W 3838  30.621  44.398  13.524
44578W        W 3839  26.669  20.685  10.566
44579W        W 3840   9.394  33.898   4.728
44580W        W 3841  26.468   4.383   4.161
44581W        W 3842  11.830  41.928  11.456
44582W        W 3843  13.174  44.387   1.823
44583W        W 3844  33.409   4.350   2.246
44584W        W 3845   8.686  22.696  13.346
44585W        W 3846  37.963  19.108   0.461
44586W        W 3847  42.837  21.186  11.465
44587W        W 3848  22.011  27.449  13.340
44588W        W 3849  18.265   6.732   1.909
44589W        W 3850   8.345  41.390   3.233
44590W        W 3851  37.352  10.737   1.324
44591W        W 3852  16.573  20.056   3.682
44592W        W 3853  39.442   8.377  12.006
44593W        W 3854  24.121  16.747   0.282
44594W        W 3855  40.467  43.898  11.003
44595W        W 3856  31.640  18.277   0.244
44596W        W 3857   2.804  35.560  13.479
44597W        W 3858   8.813  41.810   4.736
44598W        W 3859   7.723   1.844   0.913
44599W        W 3860   4.300  38.071  13.470
44600W        W 3861  11.632  41.855   4.293
44601W        W 3862  26.116  28.603   4.693
44602W        W 3863  35.557  41.304   4.165
44603W        W 3864   3.236  17.205   1.749
44604W        W 3865   4.921  42.422  14.916
44605W        W 3866   2.285   3.389   0.402
44606W        W 3867  33.955  10.656   3.375
44607W        W 3868  34.005  19.550   2.687
44608W        W 3869   8.745  32.047   4.709
44609W        W 3870  35.583  18.066  11.437
44610W        W 3871  31.949  16.607  10.086
44611W        W 3872  32.064  21.253   3.154
44612W        W 3873   0.781   4.842  11.902
44613W        W 3874  15.261  19.158   3.669
44614W        W 3875   9.857   3.258   4.720
44615W        W 3876  12.233  11.351  14.959
44616W        W 3877  21.110   1.749  11.105
44617W        W 3878   5.749  36.873  12.356
44618W        W 3879  42.460  17.213  12.898
44619W        W 3880  26.644   2.803   0.479
44620W        W 3881  12.625  26.992  11.060
44621W        W 3882   5.691  32.615  14.877
44622W        W 3883  31.514  32.081   1.746
44623W        W 3884  18.615   0.320  13.034
44624W        W 3885  34.902  43.774  10.501
44625W        W 3886  34.904  42.444   2.360
44626W        W 3887  11.194  34.081  11.487
44627W        W 3888   0.959   2.442  13.515
44628W        W 3889  41.353  37.020   5.713
44629W        W 3890  42.461  17.134   2.888
44630W        W 3891  33.922  39.331  10.574
44631W        W 3892  14.242  35.949   4.660
44632W        W 3893   6.238  33.548   2.266
44633W        W 3894  23.504   8.189   3.860
44634W        W 3895  40.932  39.498   9.651
44635W        W 3896  39.399  21.671   1.893
44636W        W 3897  18.165   8.775  14.839
44637W        W 3898   7.721  19.642   1.383
44638W        W 3899  17.188  43.357   4.206
44639W        W 3900  19.197  10.192  14.453
44640W        W 3901  30.968  24.628   2.719
44641W        W 3902   2.404   3.256  11.485
44642W        W 3903  41.353   5.236   1.853
44643W        W 3904  11.288  37.448   1.322
44644W        W 3905   9.392  41.834  12.939
44645W        W 3906  43.890  24.179   0.952
44646W        W 3907   9.280  12.757  12.400
44647W        W 3908  12.291   4.431   4.293
44648W        W 3909  10.278   6.390   0.435
44649W        W 3910  28.543  31.043   1.402
44650W        W 3911  40.031   2.308   1.443
44651W        W 3912  30.426  41.511  14.364
44652W        W 3913   5.338  14.190  13.316
44653W        W 3914  39.353  33.043  11.462
44654W        W 3915  36.953  37.364   4.772
44655W        W 3916  22.059  19.741  13.897
44656W        W 3917  19.534  30.026   3.215
44657W        W 3918  27.042  18.656   4.805
44658W        W 3919  40.447  23.668  14.788
44659W        W 3920  41.344  33.579   1.245
44660W        W 3921  43.402  43.311   0.280
44661W        W 3922   3.856  35.476  13.962
44662W        W 3923  20.719  34.079  12.836
44663W        W 3924  14.795  34.481   2.350
44664W        W 3925  15.586  15.793  10.927
44665W        W 3926   1.832  37.063  10.448
44666W        W 3927  44.432  41.847  13.370
44667W        W 3928  36.468  18.172   0.898
44668W        W 3929  10.860  33.010   2.381
44669W        W 3930  34.555  44.378  10.565
44670W        W 3931  11.665  27.612  13.450
44671W        W 3932  23.673  20.150  13.009
44672W        W 3933  16.209  11.767  10.429
44673W        W 3934  39.006  29.623   3.327
44674W        W 3935   0.402  28.452  10.455
44675W        W 3936  43.452  35.891   3.776
44676W        W 3937   4.941  36.389   4.829
44677W        W 3938  39.826   3.841   1.886
44678W        W 3939  44.828  25.592   2.387
44679W        W 3940   0.755  40.851  13.356
44680W        W 3941  34.110  44.972   0.435
44681W        W 3942  36.489  13.623   1.901
44682W        W 3943   4.944  26.038   2.356
44683W        W 3944  15.108  31.628   2.343
44684W        W 3945  27.530  22.664  13.941
44685W        W 3946  44.862  34.946   2.210
44686W        W 3947  33.076  44.486   0.420
44687W        W 3948   7.887  28.954   4.118
44688W        W 3949  25.658  12.286   2.180
44689W        W 3950  33.474  30.036  12.061
44690W        W 3951  22.624   7.225  12.932
44691W        W 3952  17.106  18.767   5.084
44692W        W 3953  39.976  13.782  12.088
44693W        W 3954  11.717   8.240  14.445
44694W        W 3955   2.340  40.523   1.248
44695W        W 3956  15.105  23.205   3.667
44696W        W 3957  36.930  41.391  14.445
44697W        W 3958  35.452  37.913  11.970
44698W        W 3959  34.888   5.388   0.396
44699W        W 3960   0.948   7.289   1.307
44700W        W 3961   0.376  33.482  14.428
44701W        W 3962  30.037  43.446  12.824
44702W        W 3963  25.596  29.937  13.900
44703W        W 3964  22.228  38.864  11.047
44704W        W 3965  41.024  10.160  12.894
44705W        W 3966  42.883  24.519   0.421
44706W        W 3967   5.234   3.311  14.293
44707W        W 3968  43.875  40.934  14.338
44708W        W 3969   4.817  10.316  10.497
44709W        W 3970  38.067  11.195   3.149
44710W        W 3971  35.068  35.892   2.295
44711W        W 3972  14.664  11.166   0.326
44712W        W 3973  11.313  29.094   0.941
44713W        W 3974  39.453  29.043  12.512
44714W        W 3975  30.458  19.080   4.622
44715W        W 3976  18.253  44.261   1.772
44716W        W 3977  13.668   9.869  10.502
44717W        W 3978  16.675  17.761   1.256
44718W        W 3979  36.093  12.705   4.631
44719W        W 3980  28.566   4.792   3.786
44720W        W 3981  42.874  15.822  14.838
44721W        W 3982  33.943  19.156   3.202
44722W        W 3983   1.291  41.815   3.267
44723W        W 3984  12.345  15.626  11.481
44724W        W 3985   1.363  44.990  13.486
44725W        W 3986  22.161  13.713  13.534
44726W        W 3987   4.739  28.653   4.661
44727W        W 3988  12.189  42.829  14.498
44728W        W 3989  15.806  41.908   4.342
44729W        W 3990  17.279  11.260   0.306
44730W        W 3991  12.121   3.894  14.301
44731W        W 3992  36.457  43.445  11.461
44732W        W 3993   5.408  19.110  12.846
44733W        W 3994   9.839   3.829  14.308
44734W        W 3995  33.013  19.104  13.404
44735W        W 3996  27.001  39.527   2.841
44736W        W 3997  23.661  29.458   0.965
44737W        W 3998   4.786  29.962   3.772
44738W        W 3999  40.537  11.299   4.243
44739W        W 4000  42.969  13.173   1.434
44740W        W 4001  28.992  31.102   3.320
44741W        W 4002  13.166  43.932   4.747
44742W        W 4003  22.209  43.854  14.835
44743W        W 4004  33.101   4.929  10.620
44744W        W 4005  38.465  11.239  11.117
44745W        W 4006  20.740  41.895  10.477
44746W        W 4007  25.549  33.424   3.189
44747W        W 4008  28.008   7.692   2.205
44748W        W 4009  23.122  12.258  12.837
44749W        W 4010  35.367  12.770   1.344
44750W        W 4011   6.416  44.889  13.794
44751W        W 4012  26.016  10.374   5.166
44752W        W 4013  34.597   4.340   1.749
44753W        W 4014  44.375  22.090   4.130
44754W        W 4015   4.871  31.957  12.350
44755W        W 4016  30.504  34.473  11.868
44756W        W 4017  41.015  12.759  13.844
44757W        W 4018  39.520   2.747   1.834
44758W        W 4019  41.844  36.882   3.736
44759W        W 4020  18.118   4.877   2.337
44760W        W 4021  43.007  21.164   9.990
44761W        W 4022  12.711  37.532   0.770
44762W        W 4023  28.492  25.171   1.753
44763W        W 4024  43.922   9.785   0.852
44764W        W 4025  26.518  17.191   1.909
44765W        W 4026  21.643  34.445   1.362
44766W        W 4027   0.801  42.320  13.499
44767W        W 4028   1.397  37.872   3.728
44768W        W 4029  12.786  14.757  14.847
44769W        W 4030   3.350  28.533   4.217
44770W        W 4031  43.890  17.792  11.472
44771W        W 4032   2.919  30.565  11.094
44772W        W 4033  35.475   8.254  13.015
44773W        W 4034  14.763  37.909  10.934
44774W        W 4035  31.113  29.515  10.515
44775W        W 4036  44.827  23.736   4.756
44776W        W 4037  17.609  41.899   3.290
44777W        W 4038  25.681  11.792  11.981
44778W        W 4039  38.046   3.948  14.948
44779W        W 4040   4.211  39.864   3.848
44780W        W 4041  30.459  10.719  13.349
44781W        W 4042  28.159   9.149  11.976
44782W        W 4043  39.419  38.865  11.397
44783W        W 4044  18.617  37.536  14.930
44784W        W 4045  16.646  31.124   3.719
44785W        W 4046  28.487   8.273  12.968
44786W        W 4047  10.829  12.311   3.184
44787W        W 4048  42.899  28.178  11.026
44788W        W 4049  23.200  43.382   3.720
44789W        W 4050  32.887  24.590   3.159
44790W        W 4051  25.066   9.847  10.506
44791W        W 4052  37.981   4.264  11.601
44792W        W 4053   2.815  36.473  10.561
44793W        W 4054  12.194   2.842  12.006
44794W        W 4055  29.610   9.822  14.371
44795W        W 4056  28.054  31.017  11.896
44796W        W 4057  13.157  30.599   1.318
44797W        W 4058  19.043  42.436   3.717
44798W        W 4059  24.678  16.695   1.238
44799W        W 4060  13.842  23.697  13.988
44800W        W 4061  12.329  14.138   4.168
44801W        W 4062  10.333  24.656  12.841
44802W        W 4063   9.217   8.267  12.422
44803W        W 4064  31.410  28.172   4.307
44804W        W 4065  31.562  18.132   1.827
44805W        W 4066  22.171   3.816   1.743
44806W        W 4067  12.312  17.715   1.802
44807W        W 4068  17.775   1.937   1.230
44808W        W 4069  18.611  20.752   1.433
44809W        W 4070  30.000  15.626   4.706
44810W        W 4071  36.924   7.292   3.160
44811W        W 4072   5.697  39.541   1.331
44812W        W 4073  15.086  12.360   1.931
44813W        W 4074  38.340   7.897  11.474
44814W        W 4075  30.475  20.216  12.919
44815W        W 4076  44.872   0.279   2.865
44816W        W 4077   1.824  28.070   3.732
44817W        W 4078  36.888  16.681  12.440
44818W        W 4079  28.595   7.731   3.725
44819W        W 4080  10.141  28.167  11.612
44820W        W 4081   4.708  39.051  10.976
44821W        W 4082  44.464   0.325  13.842
44822W        W 4083  11.806   4.900   2.194
44823W        W 4084  14.785   4.289   1.338
44824W        W 4085  10.322   2.313   5.172
44825W        W 4086  15.781  23.648  11.439
44826W        W 4087   4.440  34.393   3.726
44827W        W 4088  37.882   6.800   4.123
44828W        W 4089  29.924  24.694   0.947
44829W        W 4090   3.231  40.368  12.494
44830W        W 4091  33.970  16.179   4.779
44831W        W 4092  25.684   1.276   1.901
44832W        W 4093   8.343   3.775   3.706
44833W        W 4094  42.396  36.409  14.430
44834W        W 4095  38.488   5.350  13.916
44835W        W 4096   1.265   4.790  12.002
44836W        W 4097  25.579  25.025   5.312
44837W        W 4098  29.637  36.942   3.689
44838W        W 4099  25.043   5.894   4.725
44839W        W 4100  27.960  42.303   2.287
44840W        W 4101   8.398  28.995   3.155
44841W        W 4102  12.153   7.897  11.525
44842W        W 4103  41.310  18.596  11.074
44843W        W 4104  41.842  29.587   3.331
44844W        W 4105  32.071  24.526   1.745
44845W        W 4106  18.200   8.257   4.138
44846W        W 4107  25.586  17.578  11.913
44847W        W 4108  32.938   8.859  13.974
44848W        W 4109  40.028  29.108  11.917
44849W        W 4110  16.249  37.033   1.415
44850W        W 4111   0.823   2.740   4.601
44851W        W 4112  24.700   5.377   0.840
44852W        W 4113  34.935  31.512  14.419
44853W        W 4114  23.569  41.972  12.547
44854W        W 4115  42.376  41.454  12.884
44855W        W 4116   2.929  36.947   1.229
44856W        W 4117  33.406  10.248  11.401
44857W        W 4118  25.609  36.981  14.362
44858W        W 4119  27.062  30.449  14.019
44859W        W 4120   6.318  39.930  12.528
44860W        W 4121  39.360  32.917  12.856
44861W        W 4122  43.850  20.571  13.324
44862W        W 4123  25.992  35.874   1.905
44863W        W 4124  25.510  15.186  13.431
44864W        W 4125  33.568  33.058  13.020
44865W        W 4126  44.893  21.186  12.546
44866W        W 4127  10.653  25.581  14.425
44867W        W 4128  37.571  34.493  10.053
44868W        W 4129  32.435  19.686   1.864
44869W        W 4130   0.419  34.976  14.474
44870W        W 4131  15.147  14.826   0.373
44871W        W 4132  32.095  32.610  13.523
44872W        W 4133  33.011  21.591   1.221
44873W        W 4134  43.970  42.522   3.185
44874W        W 4135  42.980  37.849   3.242
44875W        W 4136  36.891  21.589  12.559
44876W        W 4137  10.878  43.424   3.355
44877W        W 4138  37.981  22.201   0.315
44878W        W 4139  15.115  27.011   3.337
44879W        W 4140  15.702  38.968   3.152
44880W        W 4141  22.087   1.974   2.232
44881W        W 4142  43.285  35.476   2.674
44882W        W 4143  34.489  20.588  13.881
44883W        W 4144  24.485  30.522   1.381
44884W        W 4145  42.807  14.827   2.847
44885W        W 4146   5.902   1.785   2.724
44886W        W 4147  36.505  14.823  10.425
44887W        W 4148  30.637   0.852   3.338
44888W        W 4149  24.676  36.422  10.995
44889W        W 4150   7.368  44.293  13.969
44890W        W 4151  27.611  44.322   3.364
44891W        W 4152  35.941  30.541  12.887
44892W        W 4153  29.066  13.227   0.432
44893W        W 4154  10.232   9.195  12.397
44894W        W 4155  28.437  15.198  12.513
44895W        W 4156  18.091   6.279   3.160
44896W        W 4157  40.349  38.427   2.750
44897W        W 4158  44.005  25.476  13.323
44898W        W 4159  43.773   2.957  13.924
44899W        W 4160  44.386  43.810   2.828
44900W        W 4161  31.111  10.216  14.937
44901W        W 4162   9.774  31.575  13.869
44902W        W 4163  32.607  12.138  12.434
44903W        W 4164  20.242  28.025  11.483
44904W        W 4165  13.659  17.797  11.049
44905W        W 4166  29.597  30.531  14.958
44906W        W 4167  43.792  38.053  14.477
44907W        W 4168   3.334  24.697  13.981
44908W        W 4169   3.869   8.358  12.011
44909W        W 4170  29.084  22.252   3.642
44910W        W 4171  31.410   1.901  10.892
44911W        W 4172  22.197  35.520  14.789
44912W        W 4173   5.812  43.911  10.954
44913W        W 4174  25.079   1.948   3.166
44914W        W 4175  32.507   6.321  13.508
44915W        W 4176  39.974  40.486  14.805
44916W        W 4177  34.992  14.658   1.785
44917W        W 4178  15.230  15.100   3.273
44918W        W 4179  16.269  41.393  12.020
44919W        W 4180  10.219  17.793  13.834
44920W        W 4181   7.348   6.333   0.777
44921W        W 4182  26.160  38.937  13.024
44922W        W 4183  34.593  40.468  11.554
44923W        W 4184  26.506  16.285  13.922
44924W        W 4185  21.623  10.795  11.079
44925W        W 4186  30.423  14.644  11.885
44926W        W 4187   2.430  24.711   3.353
44927W        W 4188   3.880  38.993   4.623
44928W        W 4189  44.505  11.634   3.694
44929W        W 4190  12.214   5.908   0.902
44930W        W 4191  11.284  25.539   2.833
44931W        W 4192  21.542   4.416   4.193
44932W        W 4193  23.542  18.252  10.968
44933W        W 4194  24.120  27.965   4.812
44934W        W 4195  16.793  35.992  12.889
44935W        W 4196  41.355  20.635  11.610
44936W        W 4197  28.478   0.813  14.781
44937W        W 4198  17.568   0.976   0.258
44938W        W 4199  21.041  12.731   2.702
44939W        W 4200  16.108   3.380   3.850
44940W        W 4201  24.517  33.898   2.360
44941W        W 4202   9.772  43.873   4.730
44942W        W 4203   4.925  16.266   3.855
44943W        W 4204  23.152  33.962   1.753
44944W        W 4205  28.135  36.067   4.747
44945W        W 4206   4.937  11.674   0.294
44946W        W 4207  11.158  35.388   3.817
44947W        W 4208  29.474  24.530   2.214
44948W        W 4209   5.709   7.247   2.394
44949W        W 4210  16.181  36.028   3.814
44950W        W 4211  27.681  15.766   3.314
44951W        W 4212   6.774   0.436  13.057
44952W        W 4213  38.940   8.745   3.218
44953W        W 4214  41.020   5.403   4.148
44954W        W 4215  14.312  21.553  11.115
44955W        W 4216  37.540  36.924   2.186
44956W        W 4217  15.594   0.328   2.416
44957W        W 4218  41.343  22.031   0.778
44958W        W 4219  14.686   8.241  10.905
44959W        W 4220   7.392  21.074  11.377
44960W        W 4221   2.386  22.653  10.992
44961W        W 4222  17.296  33.958  12.881
44962W        W 4223  33.941  36.521  14.937
44963W        W 4224   5.291   3.317   3.733
44964W        W 4225  13.311  28.636   2.185
44965W        W 4226  37.967  32.626   3.855
44966W        W 4227  44.278  23.194   2.853
44967W        W 4228   3.372  24.995   1.860
44968W        W 4229  25.685  30.498   2.663
44969W        W 4230  44.897  22.233  14.031
44970W        W 4231  36.923  24.130  12.386
44971W        W 4232  25.603   6.678  13.307
44972W        W 4233  10.210  43.362  13.866
44973W        W 4234  23.076  30.606   4.308
44974W        W 4235  13.187  25.119   0.945
44975W        W 4236  38.368   1.855   0.338
44976W        W 4237  40.523  32.519   4.612
44977W        W 4238   8.656   3.852  12.885
44978W        W 4239  17.066  37.832  14.785
44979W        W 4240  15.714   2.931  12.435
44980W        W 4241  40.487  42.468   2.342
44981W        W 4242  30.454  19.719   4.811
44982W        W 4243  39.469  40.406  14.834
44983W        W 4244  30.008  20.654  12.355
44984W        W 4245   7.322  12.257   0.411
44985W        W 4246  15.707  42.372   4.140
44986W        W 4247  21.195  22.119  11.426
44987W        W 4248   4.246  27.169  14.892
44988W        W 4249  33.524  11.255  12.357
44989W        W 4250   2.448  39.556  12.552
44990W        W 4251  39.515   7.700   1.230
44991W        W 4252  19.150  37.861  11.563
44992W        W 4253  29.000  22.641  12.466
44993W        W 4254  34.033   6.846   2.835
44994W        W 4255  19.245  34.003   4.182
44995W        W 4256  18.627  13.606  11.446
44996W        W 4257   1.431  15.219   3.206
44997W        W 4258  30.913  16.075  12.006
44998W        W 4259  17.796  22.091   3.864
44999W        W 4260  37.008  16.235  10.432
45000W        W 4261  41.952   8.212   1.906
45001W        W 4262   4.807  40.029  14.770
45002W        W 4263  17.166  27.014  11.960
45003W        W 4264   4.919  28.105  14.880
45004W        W 4265  40.847  26.486   0.794
45005W        W 4266  21.608  23.562  14.314
45006W        W 4267  20.577  20.634   0.431
45007W        W 4268  35.109  43.352  10.513
45008W        W 4269  28.089  18.106   0.940
45009W        W 4270  26.149  12.146   3.677
45010W        W 4271   0.371  11.164  13.425
45011W        W 4272  15.716  11.138  13.007
45012W        W 4273  42.415  12.788   3.682
45013W        W 4274  38.892  28.131   1.287
45014W        W 4275  13.176  16.220  13.511
45015W        W 4276   9.739  11.819   2.673
45016W        W 4277  12.246  18.704  10.484
45017W        W 4278  20.558  19.191   3.360
45018W        W 4279  33.888   9.362  14.935
45019W        W 4280  38.054  27.036   0.806
45020W        W 4281  21.177   8.397  14.435
45021W        W 4282  11.823  31.433   2.178
45022W        W 4283  27.184  10.844   0.812
45023W        W 4284  36.448  35.444  12.833
45024W        W 4285  28.555   3.740   3.675
45025W        W 4286  30.137   3.456  12.037
45026W        W 4287  16.216  42.995  13.793
45027W        W 4288   8.800  22.184   1.396
45028W        W 4289  23.575  31.078  10.921
45029W        W 4290  32.631  15.665  12.372
45030W        W 4291  17.218  13.778   0.449
45031W        W 4292  41.389   1.944  13.981
45032W        W 4293   0.343  24.685   0.763
45033W        W 4294   9.191  12.778  14.960
45034W        W 4295  15.580  12.633   4.274
45035W        W 4296  13.627  12.117  12.508
45036W        W 4297  21.212  16.087  13.333
45037W        W 4298  38.909  33.604  14.789
45038W        W 4299  32.928   7.189  14.811
45039W        W 4300   4.306   7.303   0.407
45040W        W 4301  28.992   8.725  13.398
45041W        W 4302  14.709  13.246  14.791
45042W        W 4303  21.088  44.806   0.772
45043W        W 4304  12.176  25.468  13.380
45044W        W 4305  22.676  39.428   1.435
45045W        W 4306  20.709  41.896  12.090
45046W        W 4307  34.975  43.927  13.320
45047W        W 4308   8.746  32.004   5.094
45048W        W 4309  10.193   5.234   3.232
45049W        W 4310   5.250  25.108  14.424
45050W        W 4311  11.859  20.611   3.315
45051W        W 4312  25.130  13.260   5.196
45052W        W 4313  42.896  11.709   4.204
45053W        W 4314  37.345   0.815  10.635
45054W        W 4315   2.782  31.605  11.856
45055W        W 4316   4.388  36.978  12.364
45056W        W 4317   7.841   5.255   0.409
45057W        W 4318  35.087  15.322   3.719
45058W        W 4319  30.427   5.326  14.010
45059W        W 4320  19.620   8.866  14.437
45060W        W 4321   2.234  31.503   3.307
45061W        W 4322  24.181  23.609   1.421
45062W        W 4323  22.556   0.957   1.736
45063W        W 4324   5.744  17.655  13.376
45064W        W 4325  11.866  24.157  14.954
45065W        W 4326  20.555  30.592  13.022
45066W        W 4327  36.441  11.750   3.181
45067W        W 4328  22.038  40.978  10.941
45068W        W 4329  15.793  44.335   5.140
45069W        W 4330  15.237  18.711   3.841
45070W        W 4331  26.681  16.743   4.305
45071W        W 4332   2.815  14.806  11.504
45072W        W 4333  38.824  18.171   2.373
45073W        W 4334  10.294  34.567  12.963
45074W        W 4335   2.753  40.491   1.224
45075W        W 4336  36.013   7.392   0.348
45076W        W 4337  27.545  30.001  12.870
45077W        W 4338   2.455   8.219  14.779
45078W        W 4339  25.212  22.048  13.045
45079W        W 4340   8.778  31.120   2.399
45080W        W 4341  16.088  21.067  13.345
45081W        W 4342  44.753   8.212  14.458
45082W        W 4343   8.879  13.318  13.866
45083W        W 4344  23.665   0.784  10.556
45084W        W 4345  39.533   9.332   0.480
45085W        W 4346  38.836  19.684  13.402
45086W        W 4347  22.652  38.850   4.259
45087W        W 4348  23.117   2.817   2.807
45088W        W 4349  20.173   5.331   0.398
45089W        W 4350   4.721  15.140   1.216
45090W        W 4351   4.716  14.674  11.879
45091W        W 4352  32.487  42.914  12.430
45092W        W 4353  14.273  22.668   1.290
45093W        W 4354  28.937  29.596  11.516
45094W        W 4355  21.059  21.664  10.920
45095W        W 4356  41.038  41.380  10.466
45096W        W 4357  27.637  32.579   2.830
45097W        W 4358  29.086   2.819  14.502
45098W        W 4359  14.239   7.799   1.785
45099W        W 4360   0.418   2.773   1.905
45100W        W 4361  14.686  40.356  11.920
45101W        W 4362  24.624  10.241   3.214
45102W        W 4363   5.743  24.211  12.413
45103W        W 4364   3.834  18.777  10.946
45104W        W 4365  32.978  35.443   3.328
45105W        W 4366  44.989  13.623  10.985
45106W        W 4367  44.344  29.937  13.472
45107W        W 4368   8.655   1.918  12.565
45108W        W 4369  14.258  29.086   2.706
45109W        W 4370  43.995  23.540  11.484
45110W        W 4371  13.605  41.401  12.346
45111W        W 4372  19.192  43.369   3.693
45112W        W 4373  18.266  19.579   3.351
45113W        W 4374  43.921  30.967  12.032
45114W        W 4375  24.116  13.248  11.066
45115W        W 4376  24.605  10.305  12.535
45116W        W 4377  20.750   3.227   3.688
45117W        W 4378   5.806  19.145   0.357
45118W        W 4379  40.503  18.639  12.057
45119W        W 4380  10.825  37.492   2.191
45120W        W 4381  39.401   1.782   0.407
45121W        W 4382  12.658  22.554  10.603
45122W        W 4383  28.521  33.899  11.477
45123W        W 4384  16.793  29.930  13.846
45124W        W 4385  42.284  17.690  10.523
45125W        W 4386  18.078  30.635  13.478
45126W        W 4387  32.406  44.903   1.789
45127W        W 4388  20.552  29.654  11.026
45128W        W 4389  44.278   7.742   3.829
45129W        W 4390   9.354  20.757  14.379
45130W        W 4391   4.412  19.192   1.383
45131W        W 4392  41.011  38.566   1.730
45132W        W 4393  21.125  22.239   3.347
45133W        W 4394  11.277   4.840  12.355
45134W        W 4395   5.770  25.117   2.191
45135W        W 4396  31.619  24.146   3.256
45136W        W 4397   3.419   3.766   2.800
45137W        W 4398   6.677   2.894   0.866
45138W        W 4399   1.237  44.471  10.933
45139W        W 4400  10.271  39.429  11.105
45140W        W 4401  39.920   9.330  12.849
45141W        W 4402  15.230  44.793   2.307
45142W        W 4403  15.609  41.459  14.500
45143W        W 4404   4.309  15.726  14.998
45144W        W 4405  38.931   2.357   3.817
45145W        W 4406  16.584  27.117  14.782
45146W        W 4407  18.217  14.209   3.704
45147W        W 4408  18.101  11.151   2.807
45148W        W 4409  14.274  12.184  11.954
45149W        W 4410  16.254  38.866   1.427
45150W        W 4411  20.097  21.065   5.646
45151W        W 4412  33.509   6.308  14.390
45152W        W 4413   0.309  17.691   2.759
45153W        W 4414  37.371   3.326  13.927
45154W        W 4415  42.016  17.768   1.348
45155W        W 4416   1.745  33.481   1.811
45156W        W 4417  44.854  35.002   5.287
45157W        W 4418   0.906  43.305   2.323
45158W        W 4419  41.971  16.567   1.360
45159W        W 4420  34.043  14.153  13.465
45160W        W 4421  11.284  15.722   1.716
45161W        W 4422  39.930  31.145   4.764
45162W        W 4423  37.976  30.925   4.264
45163W        W 4424  10.315  34.882   2.704
45164W        W 4425  36.024  30.092   2.321
45165W        W 4426  25.556  41.502   2.418
45166W        W 4427  40.998  10.253  11.570
45167W        W 4428   8.728  34.058  11.111
45168W        W 4429  44.896  26.694  12.831
45169W        W 4430  24.569  33.547   0.936
45170W        W 4431  12.744  43.296   3.727
45171W        W 4432  27.632  10.748   0.819
45172W        W 4433   8.374  20.114   4.222
45173W        W 4434   3.281  35.532  11.864
45174W        W 4435  33.390  24.196  11.962
45175W        W 4436  14.813   7.804  14.402
45176W        W 4437  11.807   8.214   2.308
45177W        W 4438  18.707  17.184  12.857
45178W        W 4439  16.122  25.210   5.310
45179W        W 4440  35.410  36.927   3.309
45180W        W 4441  42.969  37.342  13.802
45181W        W 4442  43.512  32.505  12.048
45182W        W 4443  28.493  22.126  10.490
45183W        W 4444  17.793  32.485   1.822
45184W        W 4445  33.460  42.942   4.714
45185W        W 4446  28.497  32.027  12.970
45186W        W 4447  38.552  32.438  10.491
45187W        W 4448   0.291  17.792   0.755
45188W        W 4449  25.552  40.011  13.342
45189W        W 4450  34.381  12.328  10.439
45190W        W 4451  29.475   5.437  13.016
45191W        W 4452  24.974  17.802   1.825
45192W        W 4453  24.171  27.076   3.678
45193W        W 4454  22.199   9.193   1.293
45194W        W 4455  16.139   8.740   0.245
45195W        W 4456  16.255  14.290   3.194
45196W        W 4457   0.407   5.238  14.775
45197W        W 4458  23.710  25.618   2.239
45198W        W 4459  32.053  33.462   0.403
45199W        W 4460  10.160  17.762  10.582
45200W        W 4461  19.645  29.446  14.418
45201W        W 4462  12.701  12.760   3.817
45202W        W 4463  39.860  38.507  13.022
45203W        W 4464   9.664  23.021   1.291
45204W        W 4465  21.549  42.030   4.756
45205W        W 4466   9.205  34.027  10.894
45206W        W 4467  27.126  42.974   2.747
45207W        W 4468  42.488  24.663  12.570
45208W        W 4469  20.690  44.849   3.750
45209W        W 4470  17.176  14.272  14.837
45210W        W 4471  35.585  43.995  10.593
45211W        W 4472  36.932  27.632  14.889
45212W        W 4473   3.395  25.070  14.315
45213W        W 4474  37.396   0.314  11.053
45214W        W 4475   6.755  27.086   4.204
45215W        W 4476  34.436  12.760   2.888
45216W        W 4477  30.638  35.009  11.940
45217W        W 4478  31.116  33.610   1.700
45218W        W 4479  29.002  36.419   1.416
45219W        W 4480  28.441  20.230   4.274
45220W        W 4481  42.855  20.554  14.348
45221W        W 4482  13.223   2.339  12.366
45222W        W 4483  13.819  13.741  10.552
45223W        W 4484  39.016  29.165  10.949
45224W        W 4485  26.960  20.259   0.826
45225W        W 4486   4.363  30.509   0.308
45226W        W 4487  34.016  21.045   3.630
45227W        W 4488  10.331  23.491  10.625
45228W        W 4489  41.447  34.105   2.688
45229W        W 4490   8.869  22.738  12.421
45230W        W 4491  41.326  27.591  13.848
45231W        W 4492  13.223  32.116   3.334
45232W        W 4493  44.791  20.196   1.334
45233W        W 4494  38.434  37.076  13.053
45234W        W 4495   4.746  33.023  10.895
45235W        W 4496  16.306   2.752  10.598
45236W        W 4497  14.740  23.045  11.460
45237W        W 4498  23.524   1.443   9.446
45238W        W 4499  21.226  39.499  13.410
45239W        W 4500   7.901  23.651   3.837
45240W        W 4501  31.984  27.612   1.219
45241W        W 4502  12.767   6.768   3.370
45242W        W 4503  32.513  12.614   2.745
45243W        W 4504   1.479  11.711  10.983
45244W        W 4505  39.999  35.960  12.439
45245W        W 4506  38.929  12.780   0.319
45246W        W 4507  30.012  11.637   0.416
45247W        W 4508  17.749  38.925   2.675
45248W        W 4509  15.225  39.411   4.639
45249W        W 4510  10.342  20.524   4.173
45250W        W 4511  44.431   6.350  11.417
45251W        W 4512  42.852  14.611   0.898
45252W        W 4513  23.229  37.967   4.150
45253W        W 4514   0.912   3.887   2.189
45254W        W 4515  42.025  38.409   3.155
45255W        W 4516  19.148  13.247   0.330
45256W        W 4517  43.319  38.351   2.722
45257W        W 4518  38.883  25.606  11.500
45258W        W 4519  27.647  11.792   0.410
45259W        W 4520  25.179  15.674   1.349
45260W        W 4521  21.105  15.083  14.914
45261W        W 4522  10.712  21.663   2.690
45262W        W 4523   4.831  24.116  11.970
45263W        W 4524  30.059  41.888  14.014
45264W        W 4525  39.028  29.037   1.808
45265W        W 4526  11.646  34.943   2.693
45266W        W 4527  19.677  13.747  12.934
45267W        W 4528  13.760  11.363   0.327
45268W        W 4529  31.022   5.201  10.571
45269W        W 4530   1.812   7.178   3.685
45270W        W 4531  10.768  43.010  11.933
45271W        W 4532  14.727  20.607   0.304
45272W        W 4533  16.788  40.469   2.225
45273W        W 4534  13.331  10.156   2.702
45274W        W 4535  11.732   7.730   0.845
45275W        W 4536  41.004  25.969  11.399
45276W        W 4537  10.171   9.315  14.899
45277W        W 4538  23.517  34.081  10.643
45278W        W 4539  27.958  20.699   2.892
45279W        W 4540   9.324   9.661  10.550
45280W        W 4541  12.717  41.510   3.789
45281W        W 4542  12.663  33.438   4.614
45282W        W 4543  42.512  19.284   1.261
45283W        W 4544  23.027   4.772   3.866
45284W        W 4545  32.632  28.179  12.067
45285W        W 4546  43.388  29.436  14.407
45286W        W 4547  21.609   5.749  13.966
45287W        W 4548  42.505  42.507  14.803
45288W        W 4549  41.012   5.412   0.910
45289W        W 4550  20.767  14.126   1.932
45290W        W 4551  10.639  36.485  10.472
45291W        W 4552   7.280  44.434   4.139
45292W        W 4553   8.220  42.811  12.060
45293W        W 4554  22.029   2.888   1.791
45294W        W 4555  20.038  24.173   3.321
45295W        W 4556  32.921   0.902  13.518
45296W        W 4557  44.982   3.271  14.867
45297W        W 4558  14.726  11.191  11.459
45298W        W 4559  37.997  29.157  14.301
45299W        W 4560  31.945  41.981  13.313
45300W        W 4561  14.738   7.810  10.927
45301W        W 4562  29.013  32.407   0.365
45302W        W 4563  15.272   5.809  13.447
45303W        W 4564  16.112  43.789   1.713
45304W        W 4565  39.490   9.279   1.794
45305W        W 4566  35.109  17.229  14.942
45306W        W 4567   5.214   6.906  14.357
45307W        W 4568  25.467  36.845   2.694
45308W        W 4569   1.978   8.866   1.328
45309W        W 4570  37.503  23.707  13.848
45310W        W 4571   3.710  13.174  11.532
45311W        W 4572  13.682  32.100   4.183
45312W        W 4573  18.659  30.440  12.095
45313W        W 4574  22.611   6.755   2.353
45314W        W 4575   6.765   1.923  13.509
45315W        W 4576  28.132  25.203  14.470
45316W        W 4577   0.930   3.287   0.952
45317W        W 4578  24.617  32.393   4.626
45318W        W 4579  11.194  23.064  13.910
45319W        W 4580  33.954  41.513  13.887
45320W        W 4581  21.665  30.495  11.598
45321W        W 4582  38.971  10.362  14.338
45322W        W 4583   6.356  15.604   0.887
45323W        W 4584  29.174  40.047  10.928
45324W        W 4585  32.080   5.350   0.917
45325W        W 4586   9.264  30.965   1.757
45326W        W 4587   3.270  40.393   3.719
45327W        W 4588   8.206  10.718   0.862
45328W        W 4589  13.263  42.306  10.988
45329W        W 4590  10.790  10.257  11.576
45330W        W 4591  28.596   3.318  12.442
45331W        W 4592   4.263  28.524   4.178
45332W        W 4593  28.508  25.115  13.806
45333W        W 4594  42.966   0.963  10.459
45334W        W 4595  15.734  27.470  11.409
45335W        W 4596  34.897   5.780   5.103
45336W        W 4597  27.968  20.116   0.817
45337W        W 4598  43.966  18.156   4.256
45338W        W 4599  22.639  35.015  10.493
45339W        W 4600   9.191  32.436   2.887
45340W        W 4601  26.512   3.891   0.835
45341W        W 4602   4.699  16.684  12.042
45342W        W 4603  33.472   0.352   3.684
45343W        W 4604  14.736   1.944  13.897
45344W        W 4605  30.009  33.402  14.831
45345W        W 4606  43.992  16.313   1.890
45346W        W 4607  41.834  32.594  10.015
45347W        W 4608   2.304  24.545  14.403
45348W        W 4609  38.941  43.003  13.340
45349W        W 4610  28.676  24.130   4.670
45350W        W 4611  40.964  11.301  13.832
45351W        W 4612  35.890  15.773   0.798
45352W        W 4613  25.562   2.331   1.363
45353W        W 4614  21.524  15.787   4.665
45354W        W 4615  42.879  37.405  11.384
45355W        W 4616  20.711  22.144   3.684
45356W        W 4617   0.950   0.371   2.717
45357W        W 4618  28.568  13.221  14.944
45358W        W 4619  33.524  34.901   5.099
45359W        W 4620  35.565  30.585   1.703
45360W        W 4621  14.185  39.555   4.204
45361W        W 4622  38.474   3.902   4.173
45362W        W 4623   9.857  19.200   0.956
45363W        W 4624   1.353  32.910   2.199
45364W        W 4625   0.837  29.928   2.321
45365W        W 4626  17.665  13.723  13.515
45366W        W 4627  21.099  40.524   4.751
45367W        W 4628  33.956  42.344  11.605
45368W        W 4629  43.948  20.727  10.440
45369W        W 4630  36.873   1.356  10.553
45370W        W 4631  33.070  15.664   3.729
45371W        W 4632  32.096   5.897   0.930
45372W        W 4633  19.285  22.508  14.909
45373W        W 4634  34.979  18.622  11.460
45374W        W 4635  29.124  13.187   2.722
45375W        W 4636  42.351  32.091   4.769
45376W        W 4637  16.232  32.972   2.335
45377W        W 4638   9.195   9.207   2.772
45378W        W 4639  31.140  28.097   2.857
45379W        W 4640  21.087  13.712   4.608
45380W        W 4641  33.565  18.705  12.345
45381W        W 4642   8.867   2.236  13.793
45382W        W 4643  44.838   8.751   4.351
45383W        W 4644   0.374  28.482   0.375
45384W        W 4645   5.796  32.135   2.248
45385W        W 4646  30.122  20.200   3.356
45386W        W 4647  23.673  37.569  11.963
45387W        W 4648   8.767  20.040  12.827
45388W        W 4649  17.566   5.716  12.930
45389W        W 4650   6.761  43.480   2.712
45390W        W 4651  24.179   8.660   1.243
45391W        W 4652  30.936  39.819   3.273
45392W        W 4653  19.171  26.107  13.511
45393W        W 4654  37.375  24.108   3.377
45394W        W 4655  14.249  32.136   1.320
45395W        W 4656   3.933  14.687  12.426
45396W        W 4657  28.488  43.921   1.349
45397W        W 4658   0.385  38.055  12.438
45398W        W 4659  27.994  13.640   2.715
45399W        W 4660  40.046  32.433  11.498
45400W        W 4661  21.196  32.141   2.323
45401W        W 4662  14.820  21.608  11.550
45402W        W 4663  16.282   0.839   2.683
45403W        W 4664   9.827  39.838  11.863
45404W        W 4665  30.074  27.104   3.695
45405W        W 4666  37.415  14.099   0.891
45406W        W 4667  43.795  16.090   2.783
45407W        W 4668  19.687  35.989  10.995
45408W        W 4669  43.450   9.803  10.633
45409W        W 4670  31.934  16.164   2.702
45410W        W 4671   0.477  38.417   3.206
45411W        W 4672  32.564  11.726   2.345
45412W        W 4673  42.355   1.240   0.334
45413W        W 4674  16.612  36.557  13.809
45414W        W 4675  42.294  38.563  14.450
45415W        W 4676  10.323  11.677  14.316
45416W        W 4677  27.689   9.250   1.749
45417W        W 4678  34.418   9.339   0.919
45418W        W 4679  44.421  12.270  11.559
45419W        W 4680  30.960   2.939   1.842
45420W        W 4681   5.392  22.080   0.352
45421W        W 4682  23.991  40.807  14.350
45422W        W 4683  18.560  19.150  11.973
45423W        W 4684   8.292  16.802   2.309
45424W        W 4685   5.702  19.262  10.590
45425W        W 4686  27.997  32.536   3.386
45426W        W 4687  38.940  34.014   1.448
45427W        W 4688  28.561   9.785   1.782
45428W        W 4689  19.164   6.278   1.699
45429W        W 4690  37.525  11.363   4.759
45430W        W 4691   3.820   4.217  14.442
45431W        W 4692   2.226  33.004   3.738
45432W        W 4693  40.055  35.974  10.119
45433W        W 4694  17.180   4.764   1.319
45434W        W 4695   4.944  41.941  13.353
45435W        W 4696  26.955  19.258   0.889
45436W        W 4697  38.864   8.384   3.735
45437W        W 4698   7.727  38.865  12.887
45438W        W 4699   9.336  23.160   3.223
45439W        W 4700  24.035  41.956  11.094
45440W        W 4701  15.584  29.452  10.454
45441W        W 4702  21.736   6.419  10.898
45442W        W 4703  27.534  11.183   0.396
45443W        W 4704  28.543   2.906  10.094
45444W        W 4705  28.152   6.878   2.779
45445W        W 4706  18.107  43.785  10.582
45446W        W 4707   7.814  34.392  11.476
45447W        W 4708  15.777  20.732  11.916
45448W        W 4709  30.056  40.881   0.308
45449W        W 4710  21.532  39.009   0.856
45450W        W 4711   2.286  17.739  12.900
45451W        W 4712   7.195  29.132  11.022
45452W        W 4713  16.788  28.114  13.806
45453W        W 4714  28.176  21.035  13.531
45454W        W 4715  35.406   2.226  11.050
45455W        W 4716  35.957  13.762  10.952
45456W        W 4717  26.565  22.172   9.954
45457W        W 4718  14.803   5.801   3.256
45458W        W 4719  32.559  36.033  14.833
45459W        W 4720  33.894  10.761   4.691
45460W        W 4721  35.961  13.187   0.820
45461W        W 4722  32.549  22.549   2.287
45462W        W 4723   8.183  28.557   3.733
45463W        W 4724   1.747  24.647   3.776
45464W        W 4725  39.529  41.974   3.339
45465W        W 4726  41.384  36.035  14.495
45466W        W 4727  36.445  40.427  12.391
45467W        W 4728  15.580  39.405  14.971
45468W        W 4729  24.627  14.258   3.846
45469W        W 4730  21.616  20.708   3.198
45470W        W 4731   3.254  31.945  13.875
45471W        W 4732  10.163  42.956  14.782
45472W        W 4733  27.665  20.166   4.186
45473W        W 4734  14.765   1.902   4.705
45474W        W 4735   6.268  10.726   3.870
45475W        W 4736  35.096  26.685   9.980
45476W        W 4737  41.341  14.145   3.738
45477W        W 4738  19.276  11.752  11.979
45478W        W 4739  43.406  32.511  14.408
45479W        W 4740  27.969   0.850  12.844
45480W        W 4741  44.839  27.124   5.760
45481W        W 4742  30.568   5.438  14.291
45482W        W 4743  27.550  27.018  13.939
45483W        W 4744  14.697  37.429   3.705
45484W        W 4745   1.949  39.313   3.761
45485W        W 4746  37.034  26.190  14.895
45486W        W 4747  29.482  15.592  12.054
45487W        W 4748   1.319  25.515  11.505
45488W        W 4749  17.244  10.778  13.465
45489W        W 4750  17.138  42.992  13.513
45490W        W 4751  33.118   6.723   4.129
45491W        W 4752  43.316   9.203  12.857
45492W        W 4753  17.618  34.024   0.305
45493W        W 4754  19.776   7.375  11.019
45494W        W 4755  25.639  31.529  14.920
45495W        W 4756  16.706  38.526  13.002
45496W        W 4757  21.248  14.143   5.233
45497W        W 4758  31.452   1.463   3.757
45498W        W 4759  42.025   5.392   3.815
45499W        W 4760  27.611  25.117   3.700
45500W        W 4761  20.639  20.234   1.345
45501W        W 4762   7.798  41.853   3.689
45502W        W 4763  10.147  35.993  14.391
45503W        W 4764  27.043  39.858   3.260
45504W        W 4765   1.305  18.070  14.809
45505W        W 4766  15.736  16.586  14.461
45506W        W 4767   8.878  34.571  10.156
45507W        W 4768  35.600  40.041   1.741
45508W        W 4769  44.003  30.032   1.280
45509W        W 4770  27.032  16.302   3.228
45510W        W 4771   1.949   2.776   2.713
45511W        W 4772  16.677  38.363   2.375
45512W        W 4773  41.345  30.981   3.701
45513W        W 4774  29.548  34.418   5.285
45514W        W 4775   0.247  33.966   4.742
45515W        W 4776  23.150  23.211  13.947
45516W        W 4777   5.294  42.913  11.889
45517W        W 4778  24.181  21.090   5.142
45518W        W 4779  18.078   0.298   1.740
45519W        W 4780  17.222  35.386  13.010
45520W        W 4781  12.221  39.863   3.330
45521W        W 4782  20.566  39.882  11.906
45522W        W 4783  42.845   6.348  13.996
45523W        W 4784  21.602  14.624  14.396
45524W        W 4785  41.856  35.577   3.216
45525W        W 4786  38.386  36.904  11.484
45526W        W 4787  23.571   6.206   3.291
45527W        W 4788  35.959  41.804   2.189
45528W        W 4789  14.223   9.305   1.253
45529W        W 4790  33.537  40.510   0.261
45530W        W 4791  35.560  16.141   0.904
45531W        W 4792  28.981   9.845  13.495
45532W        W 4793   7.297  30.417  14.416
45533W        W 4794  37.517  28.958   0.817
45534W        W 4795  38.018   4.931   4.343
45535W        W 4796  37.571  27.109  11.606
45536W        W 4797  23.170  38.925  13.396
45537W        W 4798  13.612  25.081   1.430
45538W        W 4799  36.080  42.438  10.551
45539W        W 4800  13.128  14.336  13.797
45540W        W 4801   3.918   2.395   4.661
45541W        W 4802  31.434  20.526   3.718
45542W        W 4803  36.466  37.536   0.416
45543W        W 4804  24.506  23.626   3.332
45544W        W 4805  10.280   3.401   2.673
45545W        W 4806   3.227  11.666  12.969
45546W        W 4807   7.869  23.552  13.837
45547W        W 4808  21.017  30.082  11.570
45548W        W 4809  19.189  35.039  10.902
45549W        W 4810  12.672  42.475  14.768
45550W        W 4811  31.132   0.378  11.972
45551W        W 4812  11.658  34.519   2.822
45552W        W 4813   7.393  36.366   2.322
45553W        W 4814  14.746   6.885   1.797
45554W        W 4815  25.591   7.811   4.690
45555W        W 4816  41.825  19.563  14.798
45556W        W 4817   4.941  13.269   2.691
45557W        W 4818  34.090   3.308   2.288
45558W        W 4819  35.412  20.156  13.537
45559W        W 4820   0.406  23.169   3.323
45560W        W 4821  41.439  22.651  14.510
45561W        W 4822  19.076  21.142   3.689
45562W        W 4823  27.674  18.081  14.962
45563W        W 4824  38.330  25.124  10.082
45564W        W 4825   3.444   6.362  11.380
45565W        W 4826  33.070  27.162   2.370
45566W        W 4827  22.174  15.148  13.456
45567W        W 4828  22.114  39.406  13.797
45568W        W 4829  13.637   2.395   0.466
45569W        W 4830  33.102  36.563   2.306
45570W        W 4831  11.829  43.998   3.362
45571W        W 4832   9.886  34.534  13.064
45572W        W 4833  34.542  29.055  13.368
45573W        W 4834  13.136   5.886   1.778
45574W        W 4835  38.873  40.380   5.215
45575W        W 4836  27.620  36.996   2.878
45576W        W 4837  31.072  39.516   2.876
45577W        W 4838  15.117  33.004   3.235
45578W        W 4839  39.368  39.456   3.243
45579W        W 4840   1.238  29.656   2.816
45580W        W 4841   2.399  37.520  11.414
45581W        W 4842   2.760  32.551   0.422
45582W        W 4843   9.692  14.128  12.890
45583W        W 4844  22.730   5.804   1.759
45584W        W 4845  24.977  21.699   4.205
45585W        W 4846  43.278  25.057  11.001
45586W        W 4847   5.896  28.945  13.991
45587W        W 4848  29.988  11.244   1.808
45588W        W 4849  17.160   0.859  10.949
45589W        W 4850  22.210  42.432  10.918
45590W        W 4851  26.658   2.407  13.914
45591W        W 4852  17.201  24.633  11.608
45592W        W 4853  10.638  24.659   4.165
45593W        W 4854  42.848   7.710  12.431
45594W        W 4855  16.791  26.661  10.080
45595W        W 4856  27.617  37.347  13.937
45596W        W 4857  17.722   7.217  12.364
45597W        W 4858  41.906  13.769  14.941
45598W        W 4859  36.910  36.957  14.393
45599W        W 4860  37.383  28.583   0.376
45600W        W 4861  24.666  11.236   1.378
45601W        W 4862  43.322  20.596   9.671
45602W        W 4863  20.600  28.602  12.578
45603W        W 4864  44.874  10.861  13.443
45604W        W 4865  20.164  29.475  13.481
45605W        W 4866  15.238  35.882   3.316
45606W        W 4867   3.418  41.963  13.385
45607W        W 4868   7.250  13.309   1.365
45608W        W 4869   4.350   6.858  11.043
45609W        W 4870  19.140  26.582  12.539
45610W        W 4871  23.071   9.691   3.844
45611W        W 4872   1.399  28.602   4.670
45612W        W 4873  10.802  39.483  10.911
45613W        W 4874  31.465  27.610  12.883
45614W        W 4875   1.902   3.245  10.623
45615W        W 4876   3.730  29.163   0.250
45616W        W 4877  33.967  27.471  12.056
45617W        W 4878  17.725  31.114  10.576
45618W        W 4879  17.231  43.497   1.765
45619W        W 4880  23.093   1.297   3.849
45620W        W 4881   8.258  18.637   0.333
45621W        W 4882  40.351  12.256  14.471
45622W        W 4883  31.978  39.977   0.375
45623W        W 4884  28.639  40.840   4.690
45624W        W 4885  23.033   3.790   4.814
45625W        W 4886  30.918  26.161  14.976
45626W        W 4887  30.654  15.747  14.310
45627W        W 4888  39.810  28.520  10.622
45628W        W 4889   3.921  39.520   1.243
45629W        W 4890  23.076  19.207  14.515
45630W        W 4891  37.420   1.940   2.280
45631W        W 4892  16.285   0.974   3.664
45632W        W 4893   8.828  24.594   3.790
45633W        W 4894  18.228   8.831  11.037
45634W        W 4895  10.143   7.862  14.877
45635W        W 4896   4.735  26.153   4.631
45636W        W 4897  42.022  32.575  13.956
45637W        W 4898  44.425   9.750   1.730
45638W        W 4899   5.243  28.552   0.379
45639W        W 4900  32.132  15.102   0.777
45640W        W 4901  36.476  22.720   4.788
45641W        W 4902  20.172  18.243   9.958
45642W        W 4903  21.675  31.547   0.356
45643W        W 4904   3.358  29.953   2.821
45644W        W 4905  40.427  10.173  11.513
45645W        W 4906  19.547  31.910  13.371
45646W        W 4907   7.355   4.366  14.409
45647W        W 4908   4.805  11.351  14.011
45648W        W 4909  41.017  28.634  14.319
45649W        W 4910   1.878  23.104  13.387
45650W        W 4911  38.455   6.211  11.070
45651W        W 4912  37.955  26.496  10.099
45652W        W 4913  34.899  19.207   1.934
45653W        W 4914  33.448   7.389   1.272
45654W        W 4915  10.785  12.854  11.559
45655W        W 4916  19.683  30.656  10.962
45656W        W 4917  10.803  21.048   2.265
45657W        W 4918  29.592  37.022  11.944
45658W        W 4919  34.927  37.434   0.431
45659W        W 4920  30.970  18.204   3.672
45660W        W 4921   3.460   4.243   1.327
45661W        W 4922   9.670   1.424   2.672
45662W        W 4923  38.045   2.258   1.810
45663W        W 4924   7.673  23.230   4.621
45664W        W 4925  24.562  37.402   3.677
45665W        W 4926  26.577  24.186   4.207
45666W        W 4927  44.297  36.030  11.070
45667W        W 4928  13.225   7.260   1.718
45668W        W 4929  35.919  23.628  14.423
45669W        W 4930  13.239  31.561  12.852
45670W        W 4931  39.927  30.634  13.911
45671W        W 4932   5.328  39.026   3.280
45672W        W 4933  17.588  40.490   2.273
45673W        W 4934  14.296  44.957  12.368
45674W        W 4935  30.566  10.722  11.371
45675W        W 4936   2.418  29.015  13.503
45676W        W 4937  12.742  23.048   1.889
45677W        W 4938  26.146  42.449   2.784
45678W        W 4939  14.198   1.313   1.809
45679W        W 4940  27.514  33.424  14.344
45680W        W 4941  12.355  21.677   1.748
45681W        W 4942  24.196  27.133   0.863
45682W        W 4943  20.699   4.384  11.379
45683W        W 4944  12.184  37.376   1.369
45684W        W 4945  14.829  39.419  11.047
45685W        W 4946  19.548  22.672   0.954
45686W        W 4947  40.499  13.676  14.911
45687W        W 4948  31.530  33.017   2.839
45688W        W 4949  20.701  44.878   4.222
45689W        W 4950  42.784  24.665   4.179
45690W        W 4951  12.613  30.027   1.770
45691W        W 4952  15.293   9.246  10.485
45692W        W 4953  23.010  41.436  11.407
45693W        W 4954  26.588   5.916   1.808
45694W        W 4955  44.397  12.126  14.278
45695W        W 4956  17.793  10.658   1.935
45696W        W 4957  17.605   9.884  10.114
45697W        W 4958  41.512  28.466  14.987
45698W        W 4959  27.455   2.420   9.654
45699W        W 4960  29.462  32.890  12.002
45700W        W 4961  21.525  11.695   3.696
45701W        W 4962  24.672  39.469  14.007
45702W        W 4963  23.988  17.564  14.867
45703W        W 4964  18.074  39.496  11.376
45704W        W 4965  17.763  17.701   3.805
45705W        W 4966   8.339  16.275  11.038
45706W        W 4967  25.983  11.168   4.257
45707W        W 4968  15.618  42.525  14.304
45708W        W 4969  41.942   6.901   1.790
45709W        W 4970  37.855  24.543  11.433
45710W        W 4971   2.722   6.680   3.661
45711W        W 4972   0.431   5.326   2.330
45712W        W 4973  24.693   4.285  14.025
45713W        W 4974  39.327  15.203   4.120
45714W        W 4975  20.156  17.183  10.442
45715W        W 4976  40.455  41.995   2.289
45716W        W 4977  44.348   5.293   0.727
45717W        W 4978  13.251  36.542   1.840
45718W        W 4979   7.177   6.774  14.772
45719W        W 4980  35.947  20.629   0.751
45720W        W 4981  21.695  24.659  13.049
45721W        W 4982  18.097   8.683  14.318
45722W        W 4983  26.492  26.191  14.954
45723W        W 4984  34.915  10.283  12.542
45724W        W 4985  15.589  15.241   0.294
45725W        W 4986  12.796  17.228   0.315
45726W        W 4987  28.020   4.740   3.720
45727W        W 4988  31.587  35.459   1.835
45728W        W 4989  38.470  30.605   3.250
45729W        W 4990  15.125  17.231  12.961
45730W        W 4991  35.869   2.256  10.614
45731W        W 4992  41.885  12.815  13.326
45732W        W 4993  38.458  31.984   3.317
45733W        W 4994   6.259  25.600  13.012
45734W        W 4995  19.677  41.514  10.579
45735W        W 4996  13.806  22.072  13.023
45736W        W 4997   3.933  11.867  14.901
45737W        W 4998   9.183  13.770  12.925
45738W        W 4999  16.625   6.906  11.001
45739W        W 5000  10.727  14.756  12.513
45740W        W 5001   0.381  29.428   1.849
45741W        W 5002  31.070  16.157   4.152
45742W        W 5003  23.090   3.754   5.250
45743W        W 5004   8.733  32.529   1.343
45744W        W 5005  30.524  43.500  10.897
45745W        W 5006  16.229  15.683  14.869
45746W        W 5007  17.651  12.139  12.928
45747W        W 5008  23.094  10.370  12.456
45748W        W 5009  27.042  37.976   1.852
45749W        W 5010  42.948  19.712   5.143
45750W        W 5011   8.246  12.289   1.747
45751W        W 5012   0.747  19.176  14.481
45752W        W 5013  17.234  19.118   1.775
45753W        W 5014  11.652  15.818  11.551
45754W        W 5015   8.882   2.720  12.401
45755W        W 5016  12.827  33.040   4.793
45756W        W 5017  32.100   8.686  14.786
45757W        W 5018  35.444  34.069   0.251
45758W        W 5019  37.028  28.106   0.478
45759W        W 5020  29.530   9.310   1.813
45760W        W 5021  19.664  17.615   0.330
45761W        W 5022  22.030  21.734   1.300
45762W        W 5023  40.889  20.049  14.400
45763W        W 5024  34.976  12.791  11.447
45764W        W 5025   9.265  18.730   1.425
45765W        W 5026  28.151  22.736   2.749
45766W        W 5027   0.371  15.719  14.793
45767W        W 5028  31.427  14.627  12.568
45768W        W 5029   7.723   6.336   3.758
45769W        W 5030   7.776  16.307  10.896
45770W        W 5031  11.302  29.955   4.183
45771W        W 5032  22.046  19.645   0.802
45772W        W 5033  25.675  28.603  10.619
45773W        W 5034  24.481  10.359  10.507
45774W        W 5035  10.862  25.011   1.252
45775W        W 5036  26.504  16.752   3.227
45776W        W 5037  16.243   3.371   1.846
45777W        W 5038  17.761  34.973   3.777
45778W        W 5039  13.796   2.334   1.325
45779W        W 5040   7.739  38.050  12.524
45780W        W 5041   0.804  11.828  11.457
45781W        W 5042  43.411  27.528  12.824
45782W        W 5043  33.575  33.582  11.917
45783W        W 5044  36.574  38.054   0.955
45784W        W 5045  37.836  24.708   4.627
45785W        W 5046  20.763  35.587  12.503
45786W        W 5047  26.686  31.048   3.782
45787W        W 5048  28.942  15.296   3.702
45788W        W 5049  22.093  43.499   2.274
45789W        W 5050   9.362  34.513  13.059
45790W        W 5051  40.364  42.945   0.286
45791W        W 5052   3.400  12.121  14.277
45792W        W 5053   4.812  35.574  12.848
45793W        W 5054  40.369  10.166   9.932
45794W        W 5055  20.614   9.353  11.933
45795W        W 5056  12.814  13.312   0.915
45796W        W 5057   5.763  21.550  13.793
45797W        W 5058  18.123  14.272   0.941
45798W        W 5059   3.267   5.729   4.726
45799W        W 5060   4.829  23.098   0.802
45800W        W 5061   6.341  11.851   2.179
45801W        W 5062  25.984  16.240   0.458
45802W        W 5063   2.939  35.918  14.786
45803W        W 5064  16.172   5.855  12.499
45804W        W 5065  27.562   1.243   3.312
45805W        W 5066  30.161  13.794   2.819
45806W        W 5067   9.358  21.548   3.797
45807W        W 5068   3.453  15.115   2.745
45808W        W 5069  11.208   8.250   0.880
45809W        W 5070   3.750  34.556  12.357
45810W        W 5071  22.026  21.715   4.779
45811W        W 5072  22.189  42.440  12.562
45812W        W 5073  36.093  21.186   0.354
45813W        W 5074  44.505  38.487   1.272
45814W        W 5075  42.029   0.291   0.844
45815W        W 5076   1.390  26.694  13.856
45816W        W 5077  41.427  16.091  12.008
45817W        W 5078  21.181  42.335   0.378
45818W        W 5079  41.360  29.029   1.696
45819W        W 5080  34.371  20.099   2.196
45820W        W 5081   1.756  19.104   0.388
45821W        W 5082  21.163  18.098  10.896
45822W        W 5083  23.105  40.933  13.817
45823W        W 5084  13.632  38.075   2.300
45824W        W 5085  18.618   9.263   0.429
45825W        W 5086   1.481   2.831  14.807
45826W        W 5087   8.199  16.115   4.232
45827W        W 5088  33.889  10.640   4.211
45828W        W 5089   6.835   5.901  13.049
45829W        W 5090  30.029  22.510   2.807
45830W        W 5091  23.242  31.930  12.519
45831W        W 5092  18.209  27.035   3.700
45832W        W 5093  26.152  35.938  10.593
45833W        W 5094   9.356  35.049   3.753
45834W        W 5095  19.048  37.969   4.315
45835W        W 5096  16.583  41.849   4.606
45836W        W 5097  41.979  44.407  11.533
45837W        W 5098  25.572  41.917  13.930
45838W        W 5099   6.824  14.110   1.334
45839W        W 5100  13.628  36.548   0.270
45840W        W 5101   4.730   1.293  13.022
45841W        W 5102  14.200   3.749   2.225
45842W        W 5103  35.524   3.434  14.859
45843W        W 5104   7.394   1.454   3.707
45844W        W 5105   6.368  15.137  13.884
45845W        W 5106  25.665   7.673  13.013
45846W        W 5107  11.702   0.809   4.766
45847W        W 5108   4.756  15.604   9.996
45848W        W 5109  10.705   9.780   1.850
45849W        W 5110  30.415  38.380  12.532
45850W        W 5111   0.282  35.521   0.871
45851W        W 5112  29.492  13.615   4.621
45852W        W 5113  38.402  20.167  13.918
45853W        W 5114  35.886  33.442   0.779
45854W        W 5115  16.619   1.954   0.966
45855W        W 5116  42.003  31.071   4.606
45856W        W 5117  13.108  16.279   2.853
45857W        W 5118  21.262  31.021  11.938
45858W        W 5119   6.235  38.979   4.687
45859W        W 5120  24.561  11.741   2.887
45860W        W 5121  38.896  13.329  11.536
45861W        W 5122  31.039  32.090   1.900
45862W        W 5123  38.451  30.619  13.974
45863W        W 5124  30.634   3.861   2.313
45864W        W 5125  16.147  38.448  14.297
45865W        W 5126  40.337  30.074   2.665
45866W        W 5127   9.794  27.060   4.311
45867W        W 5128  10.722  12.291  12.351
45868W        W 5129  20.597  18.158   2.801
45869W        W 5130  33.382  28.488   3.195
45870W        W 5131  19.155  29.945   3.665
45871W        W 5132  38.067  25.105   3.304
45872W        W 5133  13.667  41.897   0.267
45873W        W 5134  32.986  42.310   3.767
45874W        W 5135  10.153  36.874  12.082
45875W        W 5136  37.447  22.068   1.754
45876W        W 5137  25.612  27.020  13.507
45877W        W 5138   5.303  40.412  14.466
45878W        W 5139   0.473   6.906  11.113
45879W        W 5140  33.467  12.625  14.975
45880W        W 5141  39.511  17.273   0.880
45881W        W 5142   2.357  38.541   4.786
45882W        W 5143  43.838  24.588   0.359
45883W        W 5144   8.348   9.342  11.480
45884W        W 5145   0.310  30.588  13.418
45885W        W 5146   2.939  34.028   3.337
45886W        W 5147   2.409  10.660  12.823
45887W        W 5148  27.988   2.281   3.332
45888W        W 5149  20.549   1.483  13.312
45889W        W 5150   5.865  44.885  14.949
45890W        W 5151  18.113  33.514   0.464
45891W        W 5152   6.861  32.977  11.095
45892W        W 5153  34.539  17.217  13.334
45893W        W 5154  32.906  24.544  12.383
45894W        W 5155  31.963  40.921   4.280
45895W        W 5156  42.505  32.538   2.304
45896W        W 5157  30.601  16.603   0.914
45897W        W 5158  20.258   8.378  10.126
45898W        W 5159  28.931   6.745   0.371
45899W        W 5160  37.024  11.814   3.730
45900W        W 5161  16.159  22.541  13.063
45901W        W 5162  17.236  28.628   0.961
45902W        W 5163  28.630  21.153  13.395
45903W        W 5164  24.541   9.289  14.960
45904W        W 5165  30.432  23.569   0.484
45905W        W 5166  20.597   3.299   0.840
45906W        W 5167   9.740  19.536   2.369
45907W        W 5168   7.332  10.227   1.893
45908W        W 5169  42.509   4.804   2.896
45909W        W 5170  22.602  19.651  14.942
45910W        W 5171  32.449  38.978   1.707
45911W        W 5172  39.971  37.857  11.964
45912W        W 5173  26.119   2.853   1.861
45913W        W 5174  24.154  15.130   3.242
45914W        W 5175  41.493   9.677   4.167
45915W        W 5176  35.945  24.078   0.881
45916W        W 5177  17.591   8.717   2.811
45917W        W 5178  32.038  43.431  13.812
45918W        W 5179   2.839  19.566  14.309
45919W        W 5180  42.968  28.950  14.368
45920W        W 5181  10.775  11.314  14.950
45921W        W 5182  22.048  27.064  11.580
45922W        W 5183   8.879   9.301  12.556
45923W        W 5184  28.139  11.302   0.271
45924W        W 5185  37.057  13.758  14.988
45925W        W 5186  25.667  32.516   4.790
45926W        W 5187  32.981  16.286   0.864
45927W        W 5188  26.206  27.578   2.842
45928W        W 5189  12.339  44.913  14.959
45929W        W 5190  39.875  24.478  13.882
45930W        W 5191  11.188  11.251   0.248
45931W        W 5192  15.236  39.029  11.407
45932W        W 5193  13.232  23.667   1.715
45933W        W 5194  18.253  10.193   2.363
45934W        W 5195  33.909  32.093   5.088
45935W        W 5196   9.813  20.175  12.993
45936W        W 5197  12.656  31.096   4.742
45937W        W 5198  34.918  40.421  13.848
45938W        W 5199  44.786   9.649   0.465
45939W        W 5200  31.914  13.315   3.642
45940W        W 5201  24.166  36.863  12.910
45941W        W 5202  24.125  43.931   4.228
45942W        W 5203  38.567  30.138  10.556
45943W        W 5204   7.739  42.932   0.248
45944W        W 5205  40.451   2.401   4.628
45945W        W 5206   2.948  16.774  11.021
45946W        W 5207   5.435   4.826   3.654
45947W        W 5208  14.630  43.284   3.643
45948W        W 5209  24.570  11.331   1.724
45949W        W 5210  37.528   9.715   9.564
45950W        W 5211  33.907  27.995   0.835
45951W        W 5212  17.583  28.976   3.855
45952W        W 5213  35.415  40.006   2.229
45953W        W 5214  17.177   3.364   2.885
45954W        W 5215  27.539  39.407   0.845
45955W        W 5216  12.258  16.670   1.263
45956W        W 5217  40.001   3.442  13.025
45957W        W 5218  21.612  34.587  12.914
45958W        W 5219  18.791  25.659   5.091
45959W        W 5220  39.378  42.479  13.041
45960W        W 5221   4.448  43.982  10.448
45961W        W 5222  16.263  12.168  12.340
45962W        W 5223   5.724   3.878  13.405
45963W        W 5224   5.921  42.818  13.479
45964W        W 5225   9.303  14.690   3.634
45965W        W 5226  20.530  21.744   3.384
45966W        W 5227   7.901  23.024  11.869
45967W        W 5228  36.574  44.302  13.385
45968W        W 5229   6.874  20.090   0.333
45969W        W 5230  22.185  12.130   0.849
45970W        W 5231  18.177  27.448   3.675
45971W        W 5232  30.041   1.970  10.514
45972W        W 5233  27.005   4.927   1.387
45973W        W 5234  42.431  16.635  11.878
45974W        W 5235   3.224   7.197   5.246
45975W        W 5236   4.377  39.449   2.208
45976W        W 5237   5.418  38.928  13.412
45977W        W 5238  42.908  37.971   2.666
45978W        W 5239  37.049  25.076  11.498
45979W        W 5240   0.944  22.102   1.731
45980W        W 5241  18.707  42.471  11.020
45981W        W 5242  16.074  28.075  14.781
45982W        W 5243   5.737   4.786   5.609
45983W        W 5244  31.490  13.204  10.895
45984W        W 5245  36.561  21.197  12.932
45985W        W 5246  39.882  37.357   3.323
45986W        W 5247  15.716  20.634   0.948
45987W        W 5248  32.067  41.968  10.469
45988W        W 5249  26.535  31.057   4.321
45989W        W 5250  33.442  16.304  12.526
45990W        W 5251  11.360   0.823   4.747
45991W        W 5252   0.807  29.661   3.252
45992W        W 5253  29.544   8.843   3.180
45993W        W 5254  24.564  12.323   4.329
45994W        W 5255  27.169  35.898  13.884
45995W        W 5256  40.375  15.304  14.991
45996W        W 5257  32.572  36.877   4.339
45997W        W 5258  17.776  10.636   2.841
45998W        W 5259  21.598   0.432  10.517
45999W        W 5260  35.030  31.978   2.189
46000W        W 5261  31.639  41.386  10.528
46001W        W 5262  20.762  11.641  12.877
46002W        W 5263  41.404  33.617  10.449
46003W        W 5264   2.737  10.326   3.263
46004W        W 5265  40.829  19.053   1.335
46005W        W 5266  14.248   5.228  14.825
46006W        W 5267  15.820   1.455  12.422
46007W        W 5268   2.888  26.603   2.835
46008W        W 5269  27.614  22.634   0.465
46009W        W 5270  35.936   5.352   0.811
46010W        W 5271  10.849  32.961   3.703
46011W        W 5272  27.059  39.884   4.210
46012W        W 5273  10.344  15.763   3.200
46013W        W 5274   1.960  44.426   1.697
46014W        W 5275   8.250  11.156   4.626
46015W        W 5276   4.795  41.952  11.583
46016W        W 5277  34.871   6.319  14.968
46017W        W 5278   6.358  22.078   0.898
46018W        W 5279  27.563  38.423   4.279
46019W        W 5280   9.230  30.984  14.909
46020W        W 5281  13.252  35.869   0.756
46021W        W 5282  13.292  37.054  13.333
46022W        W 5283  43.978  16.287   4.796
46023W        W 5284  33.613  16.588   0.859
46024W        W 5285  33.433   6.716  12.372
46025W        W 5286  36.489  42.334   3.383
46026W        W 5287   9.821   0.414   1.902
46027W        W 5288   7.270  18.562  13.474
46028W        W 5289   2.403   1.298   0.284
46029W        W 5290  32.562  34.531   3.326
46030W        W 5291  30.460  24.663   1.223
46031W        W 5292   8.397  29.926   0.473
46032W        W 5293  10.222  15.253   1.770
46033W        W 5294   2.965  25.478   1.745
46034W        W 5295   0.480  13.813   1.828
46035W        W 5296  35.427  10.243   3.651
46036W        W 5297  23.240   5.421   0.871
46037W        W 5298   9.174  34.615  11.040
46038W        W 5299  18.698  22.705  12.543
46039W        W 5300  43.837  26.464  11.910
46040W        W 5301  33.549   0.773  13.811
46041W        W 5302   5.202  38.858   4.335
46042W        W 5303  21.082  16.091   3.727
46043W        W 5304  11.673  42.428  11.415
46044W        W 5305  37.058  26.644  13.986
46045W        W 5306   9.728  29.451   4.812
46046W        W 5307  14.595  29.124  12.358
46047W        W 5308  43.014  34.075   0.747
46048W        W 5309  22.056  36.018   2.778
46049W        W 5310   6.265  14.318  12.027
46050W        W 5311  41.854  42.466   3.851
46051W        W 5312  11.169  11.300   1.925
46052W        W 5313   1.382  21.017   4.780
46053W        W 5314  10.651   1.845  11.471
46054W        W 5315  30.499  35.945   3.763
46055W        W 5316  34.432  14.129   4.327
46056W        W 5317   4.392  23.078   4.278
46057W        W 5318  36.363   9.252  14.854
46058W        W 5319  32.009  33.507  10.585
46059W        W 5320   9.179  12.759   2.670
46060W        W 5321  44.433  16.786   3.644
46061W        W 5322  19.717  10.206   1.857
46062W        W 5323  36.035  25.656   3.309
46063W        W 5324  32.043  35.584  14.955
46064W        W 5325  34.456  43.401   4.190
46065W        W 5326   0.438  25.990  12.342
46066W        W 5327   6.786  32.030  13.985
46067W        W 5328  26.003   1.957  13.327
46068W        W 5329  35.993  27.575  14.456
46069W        W 5330  11.807  18.222   4.241
46070W        W 5331  15.196  26.033   3.845
46071W        W 5332   5.392  10.761   3.208
46072W        W 5333  23.207  11.246  13.830
46073W        W 5334  21.180  29.511   0.473
46074W        W 5335   2.367  30.009   1.736
46075W        W 5336  43.387  32.115   4.785
46076W        W 5337  36.555  42.021  14.944
46077W        W 5338   7.250  22.041  14.489
46078W        W 5339  15.325  16.300  13.875
46079W        W 5340  40.033  23.631  10.604
46080W        W 5341  10.228  20.523   1.341
46081W        W 5342  16.154  19.543  10.967
46082W        W 5343  31.583  34.100   2.855
46083W        W 5344  26.207  15.645  10.023
46084W        W 5345  29.610  38.561   3.232
46085W        W 5346  26.640  10.138  14.483
46086W        W 5347  26.161  29.951  14.868
46087W        W 5348  18.260   6.727   5.249
46088W        W 5349  21.668   0.973   2.876
46089W        W 5350   7.739  25.511   0.387
46090W        W 5351  31.122  14.339   3.359
46091W        W 5352  12.643  14.256   0.951
46092W        W 5353   1.964  11.222   2.847
46093W        W 5354  19.225  38.067  14.282
46094W        W 5355  10.664  28.633  11.015
46095W        W 5356  35.550  30.066  11.551
46096W        W 5357   6.680  32.471  12.550
46097W        W 5358  42.965   7.360   1.450
46098W        W 5359  36.962  18.687  14.493
46099W        W 5360  37.357  32.483  10.966
46100W        W 5361  36.459  29.062  10.556
46101W        W 5362  13.834  13.753   4.780
46102W        W 5363   1.897   5.833  13.895
46103W        W 5364   8.292  12.260   2.368
46104W        W 5365  32.037  42.369   2.308
46105W        W 5366  36.995  41.354  10.551
46106W        W 5367  43.994  30.070   0.807
46107W        W 5368  20.764   7.817   4.318
46108W        W 5369  11.279  33.588   2.848
46109W        W 5370  30.080   2.796  12.986
46110W        W 5371  25.529  27.525  11.576
46111W        W 5372  43.963  32.009   0.441
46112W        W 5373  42.447   3.320  10.991
46113W        W 5374  37.067  18.105   4.701
46114W        W 5375   3.720  12.138   3.167
46115W        W 5376  34.029  20.217   1.416
46116W        W 5377  21.127  40.470   1.854
46117W        W 5378   2.400  20.524  11.430
46118W        W 5379  27.116  14.158   3.672
46119W        W 5380  34.469  20.207   0.908
46120W        W 5381  18.065  37.074  10.910
46121W        W 5382  17.726  34.556  14.903
46122W        W 5383  24.719  28.460   2.184
46123W        W 5384  28.064   9.808  14.001
46124W        W 5385   6.777   4.416   2.690
46125W        W 5386   6.814  31.113   1.312
46126W        W 5387  42.384  30.086   0.357
46127W        W 5388  17.564   3.721   2.700
46128W        W 5389  42.436  44.006   1.921
46129W        W 5390  10.309   0.346  12.023
46130W        W 5391  42.294  14.176   4.619
46131W        W 5392   1.401  13.122   2.271
46132W        W 5393  27.168  10.755   4.701
46133W        W 5394  29.063  31.629  13.954
46134W        W 5395   9.246  33.874   3.759
46135W        W 5396  14.780  31.472   1.875
46136W        W 5397  20.225  41.920   0.458
46137W        W 5398  28.525  34.603   3.338
46138W        W 5399   2.939  28.052  11.457
46139W        W 5400  15.204  36.051  11.003
46140W        W 5401  39.839  18.246  13.795
46141W        W 5402  38.334  18.098  12.386
46142W        W 5403  37.501   0.813  12.974
46143W        W 5404  13.234  37.843   4.218
46144W        W 5405  19.088  13.295  11.030
46145W        W 5406   0.824  44.854   3.386
46146W        W 5407  18.102  29.128   1.710
46147W        W 5408  11.771  34.499  11.899
46148W        W 5409  21.689  33.902  10.473
46149W        W 5410  33.876   8.865   3.843
46150W        W 5411   3.290  28.072   4.691
46151W        W 5412  38.896  13.803   2.402
46152W        W 5413   1.374  38.339  14.873
46153W        W 5414  34.928  44.941   4.241
46154W        W 5415  10.786  17.750  11.982
46155W        W 5416  25.024  38.564  13.441
46156W        W 5417  30.537  42.899   0.942
46157W        W 5418   7.868   3.799   0.917
46158W        W 5419  11.189   4.228  13.383
46159W        W 5420  25.005  40.525   4.752
46160W        W 5421   2.272   5.864  11.030
46161W        W 5422  13.193  16.253   4.772
46162W        W 5423  19.554  25.644  14.378
46163W        W 5424   8.805  44.886  13.870
46164W        W 5425  25.983  31.516   2.816
46165W        W 5426  30.981  18.080  12.448
46166W        W 5427   7.366  37.023  10.404
46167W        W 5428  21.109   2.260   2.892
46168W        W 5429  32.400   5.237  13.989
46169W        W 5430  44.771   1.348  13.931
46170W        W 5431  16.222  12.682  13.970
46171W        W 5432  22.105  24.120   4.732
46172W        W 5433  39.315  38.477   2.817
46173W        W 5434  22.070  28.063   3.261
46174W        W 5435   9.819  39.929  11.094
46175W        W 5436  27.508   4.257  14.805
46176W        W 5437  44.941  25.007   4.199
46177W        W 5438  20.233  23.520   4.350
46178W        W 5439  13.734  44.827   1.280
46179W        W 5440   1.254  29.136   3.312
46180W        W 5441  14.206  35.093  13.974
46181W        W 5442  42.828  40.453  12.373
46182W        W 5443  20.122  28.678  13.489
46183W        W 5444  32.919  41.335   2.396
46184W        W 5445   8.674  42.401  14.326
46185W        W 5446  20.156  12.855   4.312
46186W        W 5447   7.408   6.193  12.036
46187W        W 5448  24.109   5.806  10.409
46188W        W 5449  19.112  22.146  12.423
46189W        W 5450   0.953  23.013   3.377
46190W        W 5451  32.019   7.307  10.450
46191W        W 5452  26.515   1.862   4.139
46192W        W 5453  15.725  33.427  13.011
46193W        W 5454  30.949   8.817  13.917
46194W        W 5455  41.976  24.534   3.828
46195W        W 5456  15.600  36.376  11.085
46196W        W 5457  37.893   4.807   3.385
46197W        W 5458   5.424   9.326  12.428
46198W        W 5459  13.627  37.378  11.109
46199W        W 5460  23.157   8.726  14.407
46200W        W 5461  24.549  36.514   3.855
46201W        W 5462  35.949   3.739  14.418
46202W        W 5463  32.040  18.777  11.902
46203W        W 5464   1.970  38.015  14.900
46204W        W 5465  34.577   7.876  12.045
46205W        W 5466  11.359   6.694   1.830
46206W        W 5467  30.527  38.535  14.877
46207W        W 5468  29.508   7.305  10.947
46208W        W 5469  18.118   9.230  12.476
46209W        W 5470  35.564  43.829  14.872
46210W        W 5471   0.750  13.730   3.684
46211W        W 5472  27.161   6.829   3.710
46212W        W 5473  24.202  41.470   0.312
46213W        W 5474  27.047  13.771   4.694
46214W        W 5475   9.870  15.091  14.505
46215W        W 5476  23.239  22.123   1.432
46216W        W 5477  37.466  10.733  13.948
46217W        W 5478  36.063   3.837  12.849
46218W        W 5479  32.636   6.741   0.390
46219W        W 5480   2.798  41.504   4.221
46220W        W 5481   3.416  33.076   2.662
46221W        W 5482  18.234   1.962   0.465
46222W        W 5483  36.462  15.628   0.475
46223W        W 5484  28.179  27.949  13.852
46224W        W 5485  40.430  25.685   3.173
46225W        W 5486  30.990  18.127   1.848
46226W        W 5487   5.255  12.276  12.006
46227W        W 5488  31.095  27.468   4.145
46228W        W 5489  25.158  15.645  12.511
46229W        W 5490  24.053  17.177  10.913
46230W        W 5491  42.946   7.396  11.447
46231W        W 5492  12.614   2.783   4.799
46232W        W 5493   1.831  12.197  13.063
46233W        W 5494   6.693   4.261  13.949
46234W        W 5495   4.725  24.129  13.931
46235W        W 5496  29.103  10.313  12.995
46236W        W 5497  18.068  22.600  12.848
46237W        W 5498   8.393  35.946  11.090
46238W        W 5499  23.170  21.540  10.956
46239W        W 5500   0.959  39.011   2.405
46240W        W 5501  36.581  33.433  13.031
46241W        W 5502  18.763  18.172   3.686
46242W        W 5503   6.420  40.029   1.443
46243W        W 5504  20.192  17.594  12.850
46244W        W 5505  16.200  27.084  12.508
46245W        W 5506   9.369  19.591   5.172
46246W        W 5507  36.483  25.674  14.824
46247W        W 5508  12.285  37.071   4.736
46248W        W 5509  26.650  18.640   1.742
46249W        W 5510  29.130  32.131   4.122
46250W        W 5511  17.683  33.541   1.235
46251W        W 5512   7.329  14.596  14.920
46252W        W 5513  30.594   4.783  14.373
46253W        W 5514  38.923  37.561   4.181
46254W        W 5515   9.348  21.207  10.927
46255W        W 5516   6.677  42.515  12.832
46256W        W 5517  44.260  17.298   2.411
46257W        W 5518   8.251  33.623  14.792
46258W        W 5519  42.351  39.008   9.493
46259W        W 5520  34.456  30.991  11.873
46260W        W 5521   1.741  43.475  14.335
46261W        W 5522  32.960  32.111   0.871
46262W        W 5523  19.557  40.023  13.867
46263W        W 5524   4.447  17.236  12.497
46264W        W 5525  42.984   1.258   0.845
46265W        W 5526   5.280  26.500  13.049
46266W        W 5527  33.067  41.331  14.468
46267W        W 5528  35.593  42.314   1.886
46268W        W 5529   5.908   4.833   4.785
46269W        W 5530  16.250  39.035  11.859
46270W        W 5531   5.895  16.221  14.774
46271W        W 5532  44.886  40.995   1.433
46272W        W 5533  42.001   7.368   2.356
46273W        W 5534   9.790  29.614   2.373
46274W        W 5535  28.679  11.318  11.598
46275W        W 5536   3.834  18.584   0.406
46276W        W 5537  17.756  18.562   4.811
46277W        W 5538  33.937  26.562   2.708
46278W        W 5539  24.590  37.934  13.908
46279W        W 5540  33.101  41.039  10.503
46280W        W 5541  23.638  23.495  14.922
46281W        W 5542  24.031  10.859  11.919
46282W        W 5543   4.312  44.979   1.712
46283W        W 5544  30.130  37.886  12.018
46284W        W 5545  23.639  30.083   3.343
46285W        W 5546  29.027  21.729  13.384
46286W        W 5547  44.457  38.350  12.072
46287W        W 5548  31.427  33.467   0.773
46288W        W 5549   0.280  13.161   2.714
46289W        W 5550  20.652  11.254  13.803
46290W        W 5551  38.406  27.661  10.898
46291W        W 5552  35.074  38.469  13.518
46292W        W 5553  13.816  32.627   3.361
46293W        W 5554  10.873  20.703  14.365
46294W        W 5555  44.335  32.961   1.905
46295W        W 5556  24.553  21.623   4.824
46296W        W 5557  18.734   7.717  14.897
46297W        W 5558  27.463  24.028  14.904
46298W        W 5559  34.999   9.681   1.262
46299W        W 5560   3.729  32.970   4.195
46300W        W 5561  39.025   6.224   1.421
46301W        W 5562  42.956  28.583  10.936
46302W        W 5563  11.180   5.196  14.450
46303W        W 5564  13.270   4.885   4.172
46304W        W 5565  24.059  29.135   3.852
46305W        W 5566   0.815   6.316   3.766
46306W        W 5567  23.678  22.094   1.333
46307W        W 5568  37.409  25.054   3.361
46308W        W 5569  12.325  39.407   2.222
46309W        W 5570  44.288  33.888   3.257
46310W        W 5571   3.824  18.672   1.214
46311W        W 5572   6.875  42.461  14.869
46312W        W 5573  35.909  23.181   1.241
46313W        W 5574  22.198  21.557  12.938
46314W        W 5575   5.411  35.906  14.318
46315W        W 5576  18.239  10.732  10.598
46316W        W 5577  39.450  24.538   2.849
46317W        W 5578  36.505  36.065  11.373
46318W        W 5579  30.438  16.754  12.451
46319W        W 5580   2.851  19.597   1.927
46320W        W 5581  44.454  21.243   3.652
46321W        W 5582  18.130   0.788   4.661
46322W        W 5583  12.801   3.426  14.499
46323W        W 5584  35.422  42.908   2.850
46324W        W 5585   0.486  26.121   2.810
46325W        W 5586  23.061  36.559  11.027
46326W        W 5587   3.824  32.110  13.036
46327W        W 5588  26.488  16.218  12.872
46328W        W 5589  28.043  25.152   5.185
46329W        W 5590  20.767  31.926   4.713
46330W        W 5591   1.820   7.185  13.341
46331W        W 5592  42.018  23.999  14.394
46332W        W 5593   7.297  33.495  13.507
46333W        W 5594   2.335  24.066   3.171
46334W        W 5595  30.939   3.297  10.414
46335W        W 5596  34.098   4.204  13.454
46336W        W 5597  16.593   0.418  13.902
46337W        W 5598  28.655   5.314   1.790
46338W        W 5599  42.802  31.029  12.057
46339W        W 5600  36.933  30.619  12.441
46340W        W 5601  20.236  23.717   1.852
46341W        W 5602  37.494   6.279   2.734
46342W        W 5603  23.735  28.166   0.363
46343W        W 5604   1.353   6.705   3.728
46344W        W 5605  26.158  38.498  12.434
46345W        W 5606  19.600   0.485  14.447
46346W        W 5607  43.014  43.454  13.006
46347W        W 5608   2.443   7.409  10.006
46348W        W 5609  12.838  39.934  12.075
46349W        W 5610   3.278  10.756  11.100
46350W        W 5611   3.449  19.233   0.391
46351W        W 5612  23.709  36.050  12.980
46352W        W 5613  42.868  29.126  12.437
46353W        W 5614  32.988  20.213  13.321
46354W        W 5615  22.091   1.266   0.787
46355W        W 5616  34.882  26.994   4.131
46356W        W 5617  44.921  34.495   3.653
46357W        W 5618  16.186  20.186   1.717
46358W        W 5619  33.027  11.624   1.294
46359W        W 5620  28.452  14.323  11.560
46360W        W 5621  24.049   5.819  14.292
46361W        W 5622  26.122  38.829   2.789
46362W        W 5623  23.646  38.504  11.068
46363W        W 5624   7.210  22.136   3.776
46364W        W 5625  21.116  33.885   3.851
46365W        W 5626  31.454  15.164  11.964
46366W        W 5627  16.287  34.082   1.801
46367W        W 5628  13.759  29.138   3.176
46368W        W 5629  22.513  40.977  10.036
46369W        W 5630  34.111  21.746   2.342
46370W        W 5631  26.600  36.949  13.924
46371W        W 5632   1.781  12.741   0.282
46372W        W 5633  39.941  14.139   0.960
46373W        W 5634  34.926  24.677   2.752
46374W        W 5635  19.251  27.072  10.638
46375W        W 5636  13.179   9.357  12.546
46376W        W 5637  29.017  39.545   0.452
46377W        W 5638  11.179  34.004   3.280
46378W        W 5639  37.918   1.742  12.890
46379W        W 5640  32.973  33.558   1.761
46380W        W 5641  26.682   8.757  10.114
46381W        W 5642  25.692   9.216  12.928
46382W        W 5643  36.394  19.047   2.398
46383W        W 5644  22.729  40.544   2.240
46384W        W 5645   6.914  27.998  10.994
46385W        W 5646  42.995  14.635  11.589
46386W        W 5647  21.615  16.152   4.203
46387W        W 5648  32.491  18.587  11.123
46388W        W 5649   2.288  36.388   3.670
46389W        W 5650  30.630   2.804   5.686
46390W        W 5651  11.669  11.363  13.537
46391W        W 5652  31.126  39.469   1.935
46392W        W 5653  21.169  42.792   2.328
46393W        W 5654  23.234  39.522  11.006
46394W        W 5655  16.673   1.271  12.868
46395W        W 5656  27.531  21.565  13.998
46396W        W 5657  15.311  15.280  13.859
46397W        W 5658  22.167   1.445  11.047
46398W        W 5659  36.429  29.669  13.453
46399W        W 5660  18.674  10.251  13.383
46400W        W 5661   0.921  19.624   5.185
46401W        W 5662  31.006  37.405   3.208
46402W        W 5663  18.791  11.276  13.322
46403W        W 5664  31.004  36.438   0.424
46404W        W 5665  29.627  28.107  12.459
46405W        W 5666  29.649  42.461   3.146
46406W        W 5667  25.102  25.136   3.304
46407W        W 5668  22.618  11.750  14.374
46408W        W 5669  29.111  42.897   0.344
46409W        W 5670  37.360  39.472  12.935
46410W        W 5671  16.306   0.755  14.343
46411W        W 5672   6.823   6.679  11.009
46412W        W 5673  19.142  19.129  11.904
46413W        W 5674  44.372   5.199  11.955
46414W        W 5675  22.625  28.076   2.871
46415W        W 5676  18.238  40.819   4.173
46416W        W 5677  30.953  44.808  13.913
46417W        W 5678  22.552  17.091   2.344
46418W        W 5679  10.688  25.033   2.704
46419W        W 5680  29.934  26.184   3.181
46420W        W 5681  19.082  42.821   1.930
46421W        W 5682   1.460  41.382  14.436
46422W        W 5683   4.907  19.185  10.615
46423W        W 5684  10.748  25.067  13.381
46424W        W 5685   6.748  26.633  10.571
46425W        W 5686  43.283   1.469  13.320
46426W        W 5687  31.903  36.502   2.740
46427W        W 5688  11.256   0.797   2.316
46428W        W 5689  38.566  29.668  11.068
46429W        W 5690  32.050   9.201   9.924
46430W        W 5691  31.586  16.306   2.381
46431W        W 5692  40.822  29.924  14.007
46432W        W 5693  43.344   7.188   2.319
46433W        W 5694  37.461  18.777   1.929
46434W        W 5695  30.020  37.933  12.397
46435W        W 5696  14.260  33.596   1.305
46436W        W 5697   8.165  29.165   1.747
46437W        W 5698   6.221  41.828   4.681
46438W        W 5699  16.145  11.654  11.053
46439W        W 5700   6.412  32.922   3.369
46440W        W 5701  36.895  35.442  12.387
46441W        W 5702  29.173  12.848   2.183
46442W        W 5703  30.100  26.540  12.560
46443W        W 5704  29.089  44.991   4.147
46444W        W 5705  42.395   7.341  14.857
46445W        W 5706   7.249  14.714  13.793
46446W        W 5707  22.688  10.289  13.959
46447W        W 5708   9.792  27.167  13.011
46448W        W 5709  39.457  21.745  11.493
46449W        W 5710   5.349  40.973   4.770
46450W        W 5711  21.525  33.059  12.382
46451W        W 5712  26.656  43.294  11.555
46452W        W 5713  36.478  10.648   3.296
46453W        W 5714  33.428  20.536   1.211
46454W        W 5715  43.855  19.182  11.560
46455W        W 5716  22.514  37.873   0.266
46456W        W 5717  15.210  31.939  14.815
46457W        W 5718  15.288  35.414   3.305
46458W        W 5719   2.945  42.354   2.698
46459W        W 5720  43.804  17.633   2.878
46460W        W 5721  27.068   7.779  14.507
46461W        W 5722  37.048  30.023  12.488
46462W        W 5723  40.478  42.841   1.287
46463W        W 5724  19.755   1.337   4.311
46464W        W 5725  36.429  36.857  14.021
46465W        W 5726  16.121   2.234  10.899
46466W        W 5727  39.484   4.831   0.922
46467W        W 5728  16.791   4.821   0.750
46468W        W 5729  15.764  44.894   1.442
46469W        W 5730  31.636  13.258   1.912
46470W        W 5731  35.456  22.621  14.377
46471W        W 5732  44.754  15.762   0.840
46472W        W 5733  27.089  11.293   2.305
46473W        W 5734  16.617  19.077   2.404
46474W        W 5735  15.792  26.540  12.028
46475W        W 5736   0.248  18.574  13.794
46476W        W 5737   2.956  37.933  10.419
46477W        W 5738  28.510  41.954  10.480
46478W        W 5739  39.824   1.853  14.852
46479W        W 5740  40.511  29.928   1.258
46480W        W 5741  31.621  35.949  10.528
46481W        W 5742  13.259  37.973  11.573
46482W        W 5743  29.136  41.025   0.367
46483W        W 5744  15.314  17.128  11.387
46484W        W 5745  13.251   1.313   4.670
46485W        W 5746   1.237  25.039  13.468
46486W        W 5747  12.800   3.744  11.473
46487W        W 5748  14.761  42.019  14.485
46488W        W 5749   2.405   6.245   3.199
46489W        W 5750  21.187  43.862  10.082
46490W        W 5751  40.028  33.482   3.301
46491W        W 5752  32.625   3.761  11.604
46492W        W 5753   1.458  43.855   0.408
46493W        W 5754  40.902  22.108   3.194
46494W        W 5755   6.912   5.272  13.857
46495W        W 5756  43.849   0.860   1.388
46496W        W 5757  35.057  14.150  13.838
46497W        W 5758  34.498  17.753  14.475
46498W        W 5759  14.809   3.340  14.961
46499W        W 5760   4.858  36.961  11.540
46500W        W 5761   3.385  44.812   2.887
46501W        W 5762  42.521  23.628   2.362
46502W        W 5763  23.066  33.028  12.009
46503W        W 5764  18.254  24.543  11.591
46504W        W 5765  39.867  35.976  14.952
46505W        W 5766  39.990  14.209  12.893
46506W        W 5767   9.339  16.083   4.825
46507W        W 5768  27.016  43.835  12.862
46508W        W 5769   3.339   8.784  12.878
46509W        W 5770  25.617  31.004   3.652
46510W        W 5771   8.794  39.933   0.246
46511W        W 5772  32.396  23.050   0.285
46512W        W 5773   5.755   4.320   4.342
46513W        W 5774   5.199  41.938  14.400
46514W        W 5775  23.239  28.125  10.964
46515W        W 5776  29.013   1.434   4.243
46516W        W 5777   2.436  18.244  10.595
46517W        W 5778  21.734  40.018  13.997
46518W        W 5779  34.868  23.546  13.897
46519W        W 5780   4.717  39.909   4.820
46520W        W 5781  42.352  41.826  13.992
46521W        W 5782   2.431   6.736   3.250
46522W        W 5783  43.866  21.591   3.634
46523W        W 5784  16.734  43.485  14.831
46524W        W 5785  38.867  13.689  11.422
46525W        W 5786  17.293  39.990  12.417
46526W        W 5787  15.177   2.315  14.908
46527W        W 5788   3.760  41.434  13.855
46528W        W 5789  43.785  30.003  14.884
46529W        W 5790  37.934  27.584   3.300
46530W        W 5791  35.989  20.634  13.052
46531W        W 5792  18.230  25.542   2.868
46532W        W 5793  17.300  15.156  11.541
46533W        W 5794  12.742  37.354  14.330
46534W        W 5795  31.624   7.873   2.358
46535W        W 5796  30.154  35.401   3.684
46536W        W 5797  29.588  22.073   1.814
46537W        W 5798  29.113  20.692   3.295
46538W        W 5799  40.034  31.921  12.089
46539W        W 5800  34.494  27.474   0.908
46540W        W 5801  10.295   4.315  11.415
46541W        W 5802  10.358  37.512   5.317
46542W        W 5803  42.409  40.351   2.881
46543W        W 5804  20.745  43.503   0.740
46544W        W 5805  29.114   3.773   3.663
46545W        W 5806  10.750  14.208  14.823
46546W        W 5807  11.132  43.432  10.618
46547W        W 5808  10.684  12.702   1.280
46548W        W 5809  42.842  10.734   2.187
46549W        W 5810  12.171  20.056   1.813
46550W        W 5811   2.410  18.191   1.755
46551W        W 5812  32.396  33.449   9.979
46552W        W 5813  41.838  20.717  14.938
46553W        W 5814  12.670  12.153  13.794
46554W        W 5815  29.433  21.692  10.454
46555W        W 5816  19.733  41.914   0.885
46556W        W 5817  26.556  13.709  12.483
46557W        W 5818   1.933  16.733  11.588
46558W        W 5819  31.044  36.405   4.755
46559W        W 5820   8.758  31.937  13.806
46560W        W 5821  36.560  26.640  11.952
46561W        W 5822  10.297  25.101  10.127
46562W        W 5823  15.734  29.958   2.792
46563W        W 5824  24.031  24.059  12.032
46564W        W 5825  26.140  23.563  13.001
46565W        W 5826  36.587   7.795   1.287
46566W        W 5827  30.458   2.241   1.776
46567W        W 5828  35.369  25.031   2.697
46568W        W 5829  11.817   6.726  14.455
46569W        W 5830  15.764  37.996   1.924
46570W        W 5831  39.029  34.523  13.526
46571W        W 5832   6.183  15.676   1.447
46572W        W 5833  43.443  23.138  13.338
46573W        W 5834   7.341  13.266   0.855
46574W        W 5835   8.260  28.601   2.222
46575W        W 5836  10.788  12.680   1.808
46576W        W 5837  36.891   7.788   0.782
46577W        W 5838  33.519  39.495   1.882
46578W        W 5839  26.957  33.907   4.230
46579W        W 5840  43.334  21.732  12.080
46580W        W 5841  31.645  33.417  12.986
46581W        W 5842   8.859  33.948  11.531
46582W        W 5843  37.886  28.935   4.635
46583W        W 5844  23.555  17.127   1.763
46584W        W 5845   9.178  16.637  14.992
46585W        W 5846   6.360  38.490   1.298
46586W        W 5847  40.374  31.587  10.500
46587W        W 5848   8.173  34.488   4.156
46588W        W 5849  13.141  28.013   2.411
46589W        W 5850   0.279  16.177   4.686
46590W        W 5851  17.271  20.671   2.810
46591W        W 5852  22.504   2.356  14.820
46592W        W 5853   4.270   1.931  12.477
46593W        W 5854  23.082   5.709   4.222
46594W        W 5855   2.458  44.449  10.516
46595W        W 5856  40.017   9.276  10.897
46596W        W 5857  20.104  15.794  11.407
46597W        W 5858   4.275  13.247   4.304
46598W        W 5859  34.040  19.774   1.823
46599W        W 5860  19.546   7.332  10.078
46600W        W 5861  31.459  29.040   1.414
46601W        W 5862  32.409  17.796  11.974
46602W        W 5863   5.721  34.004  13.526
46603W        W 5864  32.059  23.491  11.038
46604W        W 5865  38.352   0.448   4.715
46605W        W 5866  35.861  22.083  11.417
46606W        W 5867   8.278  12.807  12.032
46607W        W 5868  19.613  19.775   0.361
46608W        W 5869   2.304  28.606   1.861
46609W        W 5870   4.761  31.497   1.804
46610W        W 5871  17.708   5.764   3.264
46611W        W 5872  34.405  33.957  10.448
46612W        W 5873  43.872  37.875  12.987
46613W        W 5874  26.959  39.538   3.284
46614W        W 5875  16.689   8.723  14.459
46615W        W 5876  27.585   4.311  10.966
46616W        W 5877  36.463  21.238  13.356
46617W        W 5878   0.915  21.221   3.248
46618W        W 5879  21.648  26.495  14.764
46619W        W 5880  16.732  35.509   0.249
46620W        W 5881  29.568  17.683   2.881
46621W        W 5882  32.501  32.416  11.037
46622W        W 5883   1.757  38.874  11.568
46623W        W 5884  37.457  31.029   1.272
46624W        W 5885  28.632   0.344  14.891
46625W        W 5886   8.303  29.156  12.032
46626W        W 5887  44.420  21.694  11.409
46627W        W 5888  17.212   5.269  14.888
46628W        W 5889  22.708  22.699  11.404
46629W        W 5890  40.823  43.381   0.761
46630W        W 5891  30.508  20.119  14.506
46631W        W 5892  39.385  39.835   2.340
46632W        W 5893  24.121  22.567   2.761
46633W        W 5894  34.453  28.075   0.450
46634W        W 5895  11.708  42.518   4.641
46635W        W 5896  20.037  25.118   0.254
46636W        W 5897  17.566  42.453   2.892
46637W        W 5898   3.429  11.678  11.871
46638W        W 5899   7.897  44.325   4.754
46639W        W 5900  14.821  36.895  12.528
46640W        W 5901  18.781  41.480   0.398
46641W        W 5902  23.126   9.347  14.351
46642W        W 5903   2.822   9.682  11.050
46643W        W 5904   3.241  15.735  14.463
46644W        W 5905  20.570   4.715  12.901
46645W        W 5906  17.639  15.251   2.848
46646W        W 5907  38.045  44.288   0.454
46647W        W 5908  44.786   1.304   4.635
46648W        W 5909  27.947  18.599  13.817
46649W        W 5910  21.587  43.845  13.869
46650W        W 5911  26.531   3.343  14.464
46651W        W 5912   0.942   3.807   0.363
46652W        W 5913  10.149  16.122   0.729
46653W        W 5914  38.044  26.012   1.908
46654W        W 5915  27.081   4.859   4.330
46655W        W 5916   9.829  22.124   2.242
46656W        W 5917   4.896  43.499  13.511
46657W        W 5918  30.951   2.315   0.248
46658W        W 5919  18.112  44.929  11.566
46659W        W 5920   4.279  14.330   3.797
46660W        W 5921  13.609  12.141  14.854
46661W        W 5922  36.928  19.659  12.863
46662W        W 5923  14.770  34.938   3.658
46663W        W 5924   2.324  22.084   3.169
46664W        W 5925  33.462  41.043  12.513
46665W        W 5926   3.327  40.521   0.841
46666W        W 5927  36.451  12.253   0.259
46667W        W 5928  40.521  12.710   2.403
46668W        W 5929  27.575  17.242   1.365
46669W        W 5930  31.549  38.843  13.006
46670W        W 5931   6.901   9.823   0.931
46671W        W 5932  43.860  41.329   1.277
46672W        W 5933  10.735  34.052   0.388
46673W        W 5934  13.179  24.556  13.327
46674W        W 5935  39.488  32.988   5.621
46675W        W 5936   9.268   1.769   4.120
46676W        W 5937  28.548  28.563  13.336
46677W        W 5938  10.342  17.633   1.438
46678W        W 5939  19.206  16.591   1.814
46679W        W 5940  43.476  40.312   0.866
46680W        W 5941  27.986  25.643  13.310
46681W        W 5942   1.309   6.893   2.245
46682W        W 5943  14.315  12.306  12.512
46683W        W 5944  34.400   7.757  14.817
46684W        W 5945  22.213  21.639   0.850
46685W        W 5946  19.088  38.436   1.834
46686W        W 5947  20.605   9.280  12.522
46687W        W 5948   6.831  24.017  14.770
46688W        W 5949  31.104   2.792   5.310
46689W        W 5950  14.687  13.218  10.480
46690W        W 5951  26.158  40.310   2.839
46691W        W 5952  37.371  44.438   2.822
46692W        W 5953  20.252  29.587   0.743
46693W        W 5954  31.497  10.715   2.672
46694W        W 5955  28.595  14.716  14.975
46695W        W 5956  10.756   0.414   0.470
46696W        W 5957  37.034  34.565  12.502
46697W        W 5958  43.280  43.920   3.776
46698W        W 5959  35.565  21.055  13.872
46699W        W 5960  21.105   4.448   4.638
46700W        W 5961  29.599  26.542  12.375
46701W        W 5962  26.468   7.331   1.828
46702W        W 5963   9.854  17.726  11.387
46703W        W 5964  12.735   1.974   4.212
46704W        W 5965  25.580  29.019  11.538
46705W        W 5966   2.757  13.324  11.505
46706W        W 5967   3.338  30.624  14.380
46707W        W 5968  25.045  38.431   2.776
46708W        W 5969  32.628  20.174   1.328
46709W        W 5970  35.550  15.751   0.420
46710W        W 5971  33.600   8.748   1.399
46711W        W 5972  38.868  36.918   0.917
46712W        W 5973  37.926  26.031   2.189
46713W        W 5974  28.461  27.084   0.784
46714W        W 5975  10.324  24.056  12.952
46715W        W 5976  15.614  26.028  13.477
46716W        W 5977  26.166  13.243  13.339
46717W        W 5978  32.450  27.684  11.092
46718W        W 5979   4.335  42.348  11.585
46719W        W 5980   6.754  42.967   3.195
46720W        W 5981  23.707  44.798  12.833
46721W        W 5982   8.754  25.962  12.552
46722W        W 5983  19.087  31.024   1.290
46723W        W 5984  37.571  10.840  14.995
46724W        W 5985  44.413   5.291  14.030
46725W        W 5986  24.543   2.324   0.758
46726W        W 5987  37.565  34.094  14.460
46727W        W 5988  35.921  38.478  12.865
46728W        W 5989  38.901  11.127   2.795
46729W        W 5990  41.330  22.251   0.421
46730W        W 5991  21.197  38.007   1.359
46731W        W 5992  16.775  10.236   2.897
46732W        W 5993  35.418  44.776  10.637
46733W        W 5994  13.190  39.883  14.846
46734W        W 5995   6.860  21.558  13.050
46735W        W 5996  10.803  25.664   2.752
46736W        W 5997   1.298  24.112  14.337
46737W        W 5998  32.062   6.412  13.513
46738W        W 5999  31.546  22.658   0.941
46739W        W 6000  25.040  33.425   2.734
46740W        W 6001  15.213  28.117  14.027
46741W        W 6002  38.050  41.483   1.289
46742W        W 6003  33.499   6.208  11.910
46743W        W 6004  42.028   8.356  13.986
46744W        W 6005  31.963  14.650  14.310
46745W        W 6006   3.333   0.294   0.288
46746W        W 6007  19.285   4.225  10.585
46747W        W 6008   6.388  17.202   0.320
46748W        W 6009   1.739  25.538  13.429
46749W        W 6010  38.895  12.707   1.795
46750W        W 6011  19.250  18.205   5.177
46751W        W 6012   2.342  27.501   0.408
46752W        W 6013   2.790  15.661   1.217
46753W        W 6014  39.481  35.879   1.384
46754W        W 6015  40.007  20.107  10.964
46755W        W 6016  36.040   6.708   4.178
46756W        W 6017  22.187  29.924  14.310
46757W        W 6018  23.218  26.464  10.502
46758W        W 6019   3.735  24.534   4.284
46759W        W 6020  26.116  37.943  14.448
46760W        W 6021   0.363  17.180  11.571
46761W        W 6022   6.372  27.167   3.817
46762W        W 6023  25.138  20.716  12.419
46763W        W 6024  34.884  34.958  12.550
46764W        W 6025  21.666   1.974  14.950
46765W        W 6026  33.119  13.151   2.858
46766W        W 6027  10.781   5.917  12.847
46767W        W 6028   5.801  38.983   3.658
46768W        W 6029  19.726  44.756   0.404
46769W        W 6030  34.546   8.262   0.917
46770W        W 6031   9.202  44.331   2.742
46771W        W 6032  11.231  14.691   4.708
46772W        W 6033   3.740   2.452   2.404
46773W        W 6034  23.994  33.608  10.580
46774W        W 6035  11.691  44.307  14.972
46775W        W 6036  10.855   6.230   3.861
46776W        W 6037  33.530  13.134   2.215
46777W        W 6038   4.944  33.400  11.922
46778W        W 6039   0.910  20.621  11.916
46779W        W 6040  33.419  14.141   0.857
46780W        W 6041   7.668  10.352   9.925
46781W        W 6042  34.976  21.734   0.946
46782W        W 6043   3.394  10.376  12.899
46783W        W 6044  15.599  36.859  11.962
46784W        W 6045  27.007  14.747  12.382
46785W        W 6046   1.332  26.507   2.259
46786W        W 6047   8.401  23.655   1.852
46787W        W 6048  23.116   0.868  11.521
46788W        W 6049   9.694   2.799  14.374
46789W        W 6050  12.297  39.508  12.465
46790W        W 6051  18.694  44.478   1.249
46791W        W 6052  14.729  31.583  13.974
46792W        W 6053  35.572  33.889   1.400
46793W        W 6054   7.676  26.072   3.197
46794W        W 6055   6.219   5.886   0.424
46795W        W 6056   9.714   0.989   1.239
46796W        W 6057  44.886  23.235   1.414
46797W        W 6058  18.646  27.039   1.750
46798W        W 6059  15.173   5.794   3.298
46799W        W 6060  25.011   4.232  11.998
46800W        W 6061  29.136  37.984   4.324
46801W        W 6062  41.848  19.220  11.084
46802W        W 6063  10.295  26.497   1.379
46803W        W 6064  20.748  42.434   3.312
46804W        W 6065   0.941   5.721  11.541
46805W        W 6066  21.163  35.553  14.275
46806W        W 6067  37.898   6.799  14.323
46807W        W 6068  14.225   7.404   4.649
46808W        W 6069  42.946  35.436  13.321
46809W        W 6070  16.308  27.062   0.467
46810W        W 6071  38.028  22.181   3.239
46811W        W 6072  43.872   3.855  14.354
46812W        W 6073  34.556  24.601   4.757
46813W        W 6074  27.115  20.682  13.830
46814W        W 6075  29.513   6.677  13.502
46815W        W 6076  20.189  36.849   0.252
46816W        W 6077  21.191  27.114  12.081
46817W        W 6078   1.378   3.236   2.254
46818W        W 6079   2.252  35.541   3.789
46819W        W 6080  15.592  44.372   3.333
46820W        W 6081  39.866   6.795  14.888
46821W        W 6082  36.982   6.742   4.317
46822W        W 6083  37.500  35.886  13.531
46823W        W 6084  14.268   5.208  12.052
46824W        W 6085   9.380  16.693   2.892
46825W        W 6086  35.031  23.044  14.402
46826W        W 6087   0.310  21.089   4.326
46827W        W 6088  27.151  19.625  14.291
46828W        W 6089  17.205  20.576   1.914
46829W        W 6090  27.552  25.654   1.313
46830W        W 6091  29.459   0.371  12.385
46831W        W 6092  40.839  29.617  14.941
46832W        W 6093  29.120   3.769  14.762
46833W        W 6094  34.929  35.464  11.403
46834W        W 6095   4.762   2.434  10.508
46835W        W 6096  16.679  26.701   1.413
46836W        W 6097  26.032   2.865  12.560
46837W        W 6098   2.278  44.401   2.332
46838W        W 6099  33.599  39.839   0.813
46839W        W 6100   1.471  30.444   0.336
46840W        W 6101  29.123  44.268   2.762
46841W        W 6102  10.862  14.770  10.449
46842W        W 6103  41.443   4.757  11.127
46843W        W 6104   5.430  35.406   2.744
46844W        W 6105  43.020  26.476   4.792
46845W        W 6106  43.350  14.799   3.824
46846W        W 6107  19.165  42.785  12.055
46847W        W 6108  31.938  36.023  11.917
46848W        W 6109  34.093  33.520  10.624
46849W        W 6110  31.938  35.978  10.995
46850W        W 6111  29.541   7.753   4.228
46851W        W 6112  27.953  35.401  14.811
46852W        W 6113   6.722  37.919   2.392
46853W        W 6114   1.389  37.910   4.250
46854W        W 6115  31.498  11.354  13.865
46855W        W 6116  41.019  41.946  14.861
46856W        W 6117   7.222  33.516  14.970
46857W        W 6118  35.371  15.259   2.669
46858W        W 6119  15.264  34.090   0.799
46859W        W 6120  21.622  37.017   3.170
46860W        W 6121  20.142  14.651   0.768
46861W        W 6122  26.953   9.314  14.471
46862W        W 6123  41.423  12.655   4.631
46863W        W 6124  44.287  40.333  11.549
46864W        W 6125  31.048  29.017  14.328
46865W        W 6126  28.029   0.772   1.363
46866W        W 6127  15.127  30.650   2.713
46867W        W 6128  21.600  36.967   2.256
46868W        W 6129  20.536  40.925   3.656
46869W        W 6130  34.108  21.187  13.529
46870W        W 6131   9.175   2.910  10.409
46871W        W 6132  11.661  16.180  13.357
46872W        W 6133  23.084  30.499  11.570
46873W        W 6134  14.708  34.963  12.394
46874W        W 6135  25.107   3.811   2.254
46875W        W 6136  32.392  43.989  12.453
46876W        W 6137  14.229  42.995  11.016
46877W        W 6138   4.217  40.474  12.063
46878W        W 6139   7.877  16.298  12.477
46879W        W 6140   7.844  44.314   4.324
46880W        W 6141  15.252   1.397   3.867
46881W        W 6142   5.721  12.803  12.579
46882W        W 6143   8.767  21.237  11.529
46883W        W 6144   4.717  30.126  14.469
46884W        W 6145  37.489  44.978   1.748
46885W        W 6146  33.058  29.049  13.866
46886W        W 6147  24.084   8.696   4.645
46887W        W 6148  13.161   9.203   2.832
46888W        W 6149  22.656  34.879  13.864
46889W        W 6150  12.289  12.123  13.029
46890W        W 6151  18.787  39.374  10.904
46891W        W 6152  42.423  21.156  12.873
46892W        W 6153  23.056   4.846   2.211
46893W        W 6154   9.322  33.131  12.896
46894W        W 6155   0.894  36.394  12.479
46895W        W 6156  32.073  40.351   2.184
46896W        W 6157  15.792  34.044   2.808
46897W        W 6158  21.133  42.466  12.008
46898W        W 6159  18.718  14.227   5.215
46899W        W 6160  41.893  23.231  11.427
46900W        W 6161   5.429   7.859   4.296
46901W        W 6162  41.372  26.515   0.910
46902W        W 6163  31.904   9.226  13.493
46903W        W 6164  33.117  10.686  11.394
46904W        W 6165   3.324  30.978   3.697
46905W        W 6166  37.902   4.885   2.710
46906W        W 6167  20.630  15.795   1.928
46907W        W 6168   6.712  34.466  12.841
46908W        W 6169  15.665  26.688   4.638
46909W        W 6170   0.777  37.886   4.236
46910W        W 6171  21.021  20.706   0.253
46911W        W 6172   3.360  38.468  10.572
46912W        W 6173  32.914  14.184   4.647
46913W        W 6174   7.250   5.296  11.372
46914W        W 6175  44.422  10.352  12.088
46915W        W 6176  27.638  16.092  12.071
46916W        W 6177  38.398  42.973   0.907
46917W        W 6178   0.816   2.438  10.492
46918W        W 6179  23.571  20.640   2.374
46919W        W 6180   8.849  16.316  12.030
46920W        W 6181   3.938  15.609   0.746
46921W        W 6182  42.417  24.196  13.901
46922W        W 6183  24.981   9.214   3.724
46923W        W 6184  30.924  30.021  10.890
46924W        W 6185  29.538  31.003   1.334
46925W        W 6186  36.350  41.843  13.023
46926W        W 6187  18.651   7.301  14.889
46927W        W 6188   7.201  43.408  14.768
46928W        W 6189  15.210  36.950  10.896
46929W        W 6190  30.106  19.647   0.815
46930W        W 6191  10.248   8.340  14.906
46931W        W 6192   4.846  19.131   1.730
46932W        W 6193   0.816  17.288  11.536
46933W        W 6194  31.987   4.437  10.140
46934W        W 6195   5.933  43.435   0.862
46935W        W 6196  16.073   8.378   3.835
46936W        W 6197  27.996  43.460   4.233
46937W        W 6198  20.530  25.640  14.512
46938W        W 6199   9.851   8.377   1.347
46939W        W 6200  39.942  38.846   0.849
46940W        W 6201   0.342  22.594   0.739
46941W        W 6202  22.506  35.037   4.815
46942W        W 6203   8.831  29.069   0.810
46943W        W 6204  27.645  22.700  10.427
46944W        W 6205  11.818  22.123  14.829
46945W        W 6206  41.331  42.342   2.698
46946W        W 6207  16.208  26.188   5.604
46947W        W 6208  31.081   3.852  12.036
46948W        W 6209  15.175  26.597   1.231
46949W        W 6210  13.809  31.911   0.305
46950W        W 6211   3.338  40.436   4.122
46951W        W 6212   3.411  37.855  14.916
46952W        W 6213  13.156  44.830  12.853
46953W        W 6214  18.777  33.106  12.964
46954W        W 6215  15.171  27.558  13.837
46955W        W 6216  29.650  34.906  10.912
46956W        W 6217  34.415   7.831   1.882
46957W        W 6218  31.566  23.521  13.458
46958W        W 6219  30.101  35.494   2.299
46959W        W 6220  38.976   1.914   4.710
46960W        W 6221  11.158   1.876   1.312
46961W        W 6222  25.610  40.912   1.359
46962W        W 6223   1.381  20.195  12.466
46963W        W 6224  11.164  11.153  13.014
46964W        W 6225  28.550   5.366  11.410
46965W        W 6226   9.703  37.864   3.363
46966W        W 6227  15.615  40.000   3.295
46967W        W 6228  26.082  17.607   3.803
46968W        W 6229  43.852  28.634  14.851
46969W        W 6230   3.882   2.850   4.141
46970W        W 6231  13.725  43.834   0.445
46971W        W 6232  34.477   9.801   2.339
46972W        W 6233   8.742  16.122  13.951
46973W        W 6234  29.554  31.578   0.268
46974W        W 6235  33.426  20.686  10.620
46975W        W 6236  34.473   2.946  13.018
46976W        W 6237   8.734  38.903  11.439
46977W        W 6238  14.746  12.769   1.219
46978W        W 6239  42.527  20.164   0.319
46979W        W 6240   9.829  39.439   3.659
46980W        W 6241  12.856   4.444  11.068
46981W        W 6242   4.284   8.693   2.802
46982W        W 6243   1.272   4.783   0.831
46983W        W 6244  35.084  11.682  14.784
46984W        W 6245  44.891  20.716  12.913
46985W        W 6246  40.303  42.302  10.969
46986W        W 6247   9.189  38.438   4.237
46987W        W 6248  14.733  26.101  13.800
46988W        W 6249   7.726  28.051   4.751
46989W        W 6250   8.738  20.686  11.457
46990W        W 6251  43.397  23.695  12.041
46991W        W 6252  36.461   5.762   2.742
46992W        W 6253   2.866  22.561   3.692
46993W        W 6254  41.893  13.649  10.459
46994W        W 6255  22.129  24.026  11.025
46995W        W 6256   6.351   0.270  13.475
46996W        W 6257  27.492  29.508  10.471
46997W        W 6258  18.768  12.629   0.246
46998W        W 6259   7.264  30.604  11.918
46999W        W 6260  14.652   0.972   0.274
47000W        W 6261   5.920  40.426  12.362
47001W        W 6262  40.909  44.807   0.438
47002W        W 6263  21.211  29.552  11.388
47003W        W 6264  16.812  43.824   4.286
47004W        W 6265  27.134  40.354  13.808
47005W        W 6266  24.538  19.555   1.813
47006W        W 6267  44.935  32.485  13.792
47007W        W 6268  11.736  41.022   4.760
47008W        W 6269  17.798   7.174   1.277
47009W        W 6270  40.407  22.731   2.853
47010W        W 6271   7.680  39.921   1.328
47011W        W 6272  29.014  25.515   3.250
47012W        W 6273  16.660  30.439   3.386
47013W        W 6274  31.415   1.874   2.413
47014W        W 6275  40.884   0.308  12.543
47015W        W 6276  25.074   2.774  11.970
47016W        W 6277  34.012   2.768   0.903
47017W        W 6278   7.679  11.632  14.830
47018W        W 6279  16.717   6.751   4.122
47019W        W 6280   6.357  41.820  11.906
47020W        W 6281   1.866  16.706   1.790
47021W        W 6282  21.151  27.457  14.302
47022W        W 6283  30.007  27.574  14.810
47023W        W 6284  29.448  34.957  14.980
47024W        W 6285  30.104   1.302  12.038
47025W        W 6286   0.965  20.206  13.898
47026W        W 6287  32.443  29.140  14.496
47027W        W 6288  29.027  27.558   1.833
47028W        W 6289   3.361  18.689   1.746
47029W        W 6290   7.234  44.452  12.031
47030W        W 6291  34.534  20.546   4.614
47031W        W 6292  37.466  12.832   2.301
47032W        W 6293  32.472  14.191  13.390
47033W        W 6294  25.597  20.088   4.238
47034W        W 6295  28.991   2.811  12.931
47035W        W 6296  34.989  10.151   4.159
47036W        W 6297  27.500   7.243  10.894
47037W        W 6298  40.416  41.491  10.100
47038W        W 6299  37.992   9.763   0.356
47039W        W 6300  35.994  40.524  10.618
47040W        W 6301  40.035  12.738   4.711
47041W        W 6302   2.913  27.007   4.339
47042W        W 6303   4.351  40.539   3.148
47043W        W 6304   0.924  27.518   4.226
47044W        W 6305  42.894   0.979   3.304
47045W        W 6306  41.509  23.218   4.794
47046W        W 6307  16.232   5.267  14.983
47047W        W 6308  24.060  26.534   0.316
47048W        W 6309  31.013  26.479  12.526
47049W        W 6310   4.738   2.405   0.818
47050W        W 6311  12.129  10.278   3.238
47051W        W 6312  28.447  16.726  11.466
47052W        W 6313  32.097  23.186   3.157
47053W        W 6314   5.352   9.802  12.923
47054W        W 6315   8.758   4.781   2.820
47055W        W 6316  30.432  38.413  11.887
47056W        W 6317  44.337  35.447  10.004
47057W        W 6318  33.568  28.130  13.835
47058W        W 6319  18.703  24.006   2.667
47059W        W 6320  24.083  31.086   2.675
47060W        W 6321  22.028  44.829   2.822
47061W        W 6322  11.183  36.991   3.204
47062W        W 6323  42.853   2.264  10.444
47063W        W 6324  39.922  38.345  13.381
47064W        W 6325  18.546  31.136  11.450
47065W        W 6326  28.099   1.449   0.789
47066W        W 6327  14.124  15.595   1.247
47067W        W 6328  11.196  22.620  10.538
47068W        W 6329  17.064  40.005  13.441
47069W        W 6330  17.153   7.697   5.104
47070W        W 6331  27.458  25.555   2.355
47071W        W 6332  35.552  24.532  14.008
47072W        W 6333   3.329  19.779  11.930
47073W        W 6334  22.694  13.701   1.418
47074W        W 6335   7.375   1.803  14.834
47075W        W 6336   6.417  42.448  12.946
47076W        W 6337   9.889   9.355   2.882
47077W        W 6338  27.008  20.243  11.421
47078W        W 6339  20.532  24.111   1.286
47079W        W 6340   0.897  42.944   4.312
47080W        W 6341  25.541  26.962   4.301
47081W        W 6342   1.425  28.677  12.016
47082W        W 6343  24.122  16.574  13.035
47083W        W 6344  28.994  32.947  11.387
47084W        W 6345  17.685  29.576   4.305
47085W        W 6346  16.210   3.451  10.975
47086W        W 6347  23.574  38.854   3.246
47087W        W 6348  43.402  32.602   3.755
47088W        W 6349  11.267  21.613   0.929
47089W        W 6350  34.889  27.987   3.313
47090W        W 6351   8.733  20.225   4.611
47091W        W 6352  44.463  12.295   3.377
47092W        W 6353  16.764  25.081   4.262
47093W        W 6354  29.011  30.436   0.746
47094W        W 6355   2.791  10.233  11.482
47095W        W 6356  30.138  16.800  11.487
47096W        W 6357   8.265  11.768  12.433
47097W        W 6358  30.066   4.392   2.317
47098W        W 6359  43.304  24.017  11.108
47099W        W 6360  16.722   9.325   1.265
47100W        W 6361   5.429   2.912   1.867
47101W        W 6362  37.897  28.562   2.814
47102W        W 6363  36.585  14.199  10.077
47103W        W 6364  41.522  33.505   4.140
47104W        W 6365   2.891  29.128   1.448
47105W        W 6366  12.802   5.830   1.713
47106W        W 6367  38.932  26.562  12.364
47107W        W 6368  26.972  14.313   1.731
47108W        W 6369  28.978  10.834   3.664
47109W        W 6370  43.863  11.857  11.089
47110W        W 6371  20.691   3.435  11.102
47111W        W 6372  44.786  30.937   3.774
47112W        W 6373  18.547  35.922   2.343
47113W        W 6374  27.030  17.660   0.257
47114W        W 6375  26.153  36.588   3.664
47115W        W 6376   1.423  44.421  11.542
47116W        W 6377  23.662   2.447  10.102
47117W        W 6378   2.240   5.271  13.414
47118W        W 6379   2.347  17.061  13.379
47119W        W 6380  43.944   3.873   2.258
47120W        W 6381  31.512  24.020  10.975
47121W        W 6382  10.158   9.653   1.304
47122W        W 6383  25.669  24.019  14.387
47123W        W 6384  14.142  23.647  14.014
47124W        W 6385   1.316   2.858   2.393
47125W        W 6386  17.099  19.043  11.613
47126W        W 6387  13.727  37.459  12.932
47127W        W 6388   7.310  43.417  14.504
47128W        W 6389  41.949  23.648   4.223
47129W        W 6390   9.245   5.398   2.305
47130W        W 6391  18.658  26.987  13.390
47131W        W 6392  17.237  30.145   0.383
47132W        W 6393  30.921  13.750  10.941
47133W        W 6394   6.883  40.510   2.350
47134W        W 6395  30.613  10.240   3.764
47135W        W 6396  36.368  42.776  12.899
47136W        W 6397  36.514  34.523  13.447
47137W        W 6398  42.012  10.798  13.042
47138W        W 6399   9.858   0.829  13.824
47139W        W 6400  24.062  19.094  14.336
47140W        W 6401  34.450  27.956  12.498
47141W        W 6402   6.708   4.268   4.179
47142W        W 6403  40.507  42.786   2.285
47143W        W 6404  17.768   7.209   3.201
47144W        W 6405  35.043  17.653   3.188
47145W        W 6406   7.183   4.234   3.762
47146W        W 6407  31.913  12.180   0.838
47147W        W 6408   1.854   7.256  11.981
47148W        W 6409  41.877  19.182  14.767
47149W        W 6410  38.397  13.747   3.728
47150W        W 6411  19.569  43.825  14.836
47151W        W 6412  12.170   1.290   3.234
47152W        W 6413  30.076  31.605  10.530
47153W        W 6414  39.954  20.736  10.611
47154W        W 6415  24.515  40.542  13.929
47155W        W 6416  38.046  23.998  11.446
47156W        W 6417  28.081  34.040   1.332
47157W        W 6418  14.745   3.822  12.880
47158W        W 6419  16.284  17.578  14.450
47159W        W 6420  21.211   4.269  12.487
47160W        W 6421  26.009  35.916   4.184
47161W        W 6422  18.267  34.503   3.700
47162W        W 6423  44.922  25.103   4.747
47163W        W 6424  21.260  39.026   0.859
47164W        W 6425  28.004  34.596   4.129
47165W        W 6426  11.782   1.334   4.131
47166W        W 6427   9.804  39.929   3.165
47167W        W 6428   0.833  12.733  10.058
47168W        W 6429  35.427  33.432   0.324
47169W        W 6430  22.228   5.409  13.918
47170W        W 6431  25.599  21.174   1.700
47171W        W 6432   6.190  41.968   0.921
47172W        W 6433   7.341  37.880   2.344
47173W        W 6434  27.549  18.287  13.401
47174W        W 6435  14.664  17.620  11.052
47175W        W 6436  30.583  36.449  10.443
47176W        W 6437  25.189  10.235  14.819
47177W        W 6438  35.453  21.097  13.446
47178W        W 6439  16.673  25.187  13.862
47179W        W 6440  37.410  38.022  14.362
47180W        W 6441   9.210   2.868   1.760
47181W        W 6442  30.605  31.572   3.345
47182W        W 6443  28.560  23.123   0.828
47183W        W 6444  17.627  37.059  11.447
47184W        W 6445  39.996  37.856   0.903
47185W        W 6446  26.071   9.812  11.581
47186W        W 6447  23.098  28.181   0.878
47187W        W 6448  12.306  43.469  11.574
47188W        W 6449  34.975  21.162  10.099
47189W        W 6450  19.174  41.913  14.792
47190W        W 6451   0.844  34.401   2.670
47191W        W 6452  39.874  36.082   1.834
47192W        W 6453   6.208  21.151   0.853
47193W        W 6454  42.898  39.960   0.891
47194W        W 6455  17.132  11.195   1.846
47195W        W 6456  10.139  40.025  14.494
47196W        W 6457  13.740  20.172   2.224
47197W        W 6458  38.390  39.496   1.694
47198W        W 6459  27.000  24.095   0.774
47199W        W 6460  18.749  31.011   3.823
47200W        W 6461  41.990   0.432  10.152
47201W        W 6462   6.279  27.461  14.348
47202W        W 6463  21.639  25.593   0.927
47203W        W 6464   8.249  25.973  13.836
47204W        W 6465  28.018  39.940  14.280
47205W        W 6466  19.685  26.685   5.310
47206W        W 6467  18.150  18.624   3.676
47207W        W 6468   7.401  23.634   2.691
47208W        W 6469   5.200   6.732   4.348
47209W        W 6470  39.832   2.741   2.326
47210W        W 6471  19.119   6.862   3.187
47211W        W 6472  10.780  13.210  14.978
47212W        W 6473  23.518   2.439  12.951
47213W        W 6474  27.066  28.589   3.671
47214W        W 6475  37.924  34.534  11.554
47215W        W 6476  43.873   5.270   0.321
47216W        W 6477  35.410  27.606  13.899
47217W        W 6478   9.376  21.028   0.784
47218W        W 6479   0.773  37.441  11.104
47219W        W 6480  19.179  30.612  13.523
47220W        W 6481  23.229  40.375   0.967
47221W        W 6482  22.726  25.983  12.438
47222W        W 6483  24.063  38.535  11.532
47223W        W 6484  19.055   7.241  13.039
47224W        W 6485  26.464  31.004   1.284
47225W        W 6486  38.002   3.802   3.349
47226W        W 6487   8.161  13.265  12.022
47227W        W 6488  10.220  26.482  14.392
47228W        W 6489  44.447  30.452   1.276
47229W        W 6490  31.121   7.399  13.022
47230W        W 6491  31.927  28.597   3.774
47231W        W 6492  15.161  42.969   2.809
47232W        W 6493  25.527  24.064   0.444
47233W        W 6494   1.415  42.875  11.886
47234W        W 6495  14.145  29.546   0.833
47235W        W 6496  35.469   5.407   4.758
47236W        W 6497   3.777  35.105   4.126
47237W        W 6498  21.125  21.068   1.870
47238W        W 6499  42.430  26.064   0.837
47239W        W 6500   4.931  35.547  11.006
47240W        W 6501   3.340  22.648  10.911
47241W        W 6502  41.481   1.753  13.048
47242W        W 6503   7.731  23.570   3.215
47243W        W 6504   6.425  19.196  13.800
47244W        W 6505   6.372  42.368  12.350
47245W        W 6506  36.576  34.946  11.465
47246W        W 6507  26.160  24.705  11.395
47247W        W 6508  11.656   3.751  10.500
47248W        W 6509  26.118  26.482   4.778
47249W        W 6510  28.047  37.005   2.197
47250W        W 6511   0.897  16.250   1.908
47251W        W 6512   7.911  29.061   0.476
47252W        W 6513  28.639  29.008   0.959
47253W        W 6514  40.462  17.264  14.415
47254W        W 6515  20.649  22.622   5.230
47255W        W 6516  38.023  28.470   0.887
47256W        W 6517  31.439  27.483   3.285
47257W        W 6518  17.279   9.671  14.944
47258W        W 6519  34.099  20.728  13.791
47259W        W 6520  39.393   4.375  10.977
47260W        W 6521  39.391  20.074  11.573
47261W        W 6522  40.504   9.868   4.342
47262W        W 6523  24.618  16.236   1.215
47263W        W 6524  24.050  43.341  12.044
47264W        W 6525   3.947  18.228   2.355
47265W        W 6526  44.845  12.833  10.951
47266W        W 6527   9.257  15.129   2.665
47267W        W 6528   4.911  17.610  12.518
47268W        W 6529  29.935   7.249   2.859
47269W        W 6530  30.471  20.242   1.365
47270W        W 6531   6.183  21.189  10.972
47271W        W 6532  22.586   9.151   1.820
47272W        W 6533  25.209  37.553  12.019
47273W        W 6534  26.700  21.100   0.823
47274W        W 6535   2.874   2.762  13.436
47275W        W 6536  10.308  21.606   3.677
47276W        W 6537  12.228  39.398  14.910
47277W        W 6538  35.424  35.444  14.883
47278W        W 6539  11.218  15.646  14.370
47279W        W 6540  24.093  19.211   1.747
47280W        W 6541  43.974  33.599  10.554
47281W        W 6542  26.057  44.435   5.283
47282W        W 6543  25.986  31.449   1.699
47283W        W 6544  28.571   1.859   2.386
47284W        W 6545  41.880   5.370  11.948
47285W        W 6546  12.317  34.037  10.411
47286W        W 6547  29.541  17.198  12.529
47287W        W 6548  18.675   4.355  11.463
47288W        W 6549  28.659  42.488   4.152
47289W        W 6550  31.565  33.614   4.619
47290W        W 6551  17.734  10.258   0.824
47291W        W 6552  19.133  24.601  11.004
47292W        W 6553   4.808  35.054  12.370
47293W        W 6554  44.462   4.751   3.148
47294W        W 6555  43.402   0.311   0.446
47295W        W 6556  14.607  40.372   2.843
47296W        W 6557   1.381   5.830   1.767
47297W        W 6558  32.461  24.151  11.022
47298W        W 6559  15.668  36.473  10.524
47299W        W 6560   5.794  23.680   4.796
47300W        W 6561   1.799  27.500   2.254
47301W        W 6562  14.810   4.292  12.881
47302W        W 6563  11.251  44.999  12.034
47303W        W 6564  16.140   9.726   0.781
47304W        W 6565   0.918   7.818   5.295
47305W        W 6566  39.518  23.072  12.010
47306W        W 6567   4.768   4.906  12.061
47307W        W 6568  40.806   2.878  12.430
47308W        W 6569  18.562   5.292   0.457
47309W        W 6570  34.403  31.556   4.661
47310W        W 6571  41.796  39.023  12.973
47311W        W 6572  26.013  36.476   3.301
47312W        W 6573  29.952  28.446  11.600
47313W        W 6574  41.992  39.953   3.776
47314W        W 6575  12.613   9.362   0.296
47315W        W 6576  19.565   8.851  12.032
47316W        W 6577  21.657  34.603  12.386
47317W        W 6578   1.853  26.983   2.392
47318W        W 6579  44.344  37.885  14.011
47319W        W 6580  40.848   9.747  11.573
47320W        W 6581  33.093  20.635   2.411
47321W        W 6582  28.073  39.316   3.155
47322W        W 6583   7.829  34.979   4.742
47323W        W 6584  25.631  43.950  13.523
47324W        W 6585  23.033  13.208   2.732
47325W        W 6586   1.477  22.520   3.374
47326W        W 6587  19.601  22.635   0.400
47327W        W 6588  14.833  16.582  14.312
47328W        W 6589   9.336   3.369   0.257
47329W        W 6590  26.032  37.068  14.321
47330W        W 6591   3.762   8.770  12.016
47331W        W 6592  44.871  32.394  10.483
47332W        W 6593  14.746  35.060  14.968
47333W        W 6594   4.210   0.257   2.368
47334W        W 6595   9.355   0.854   1.740
47335W        W 6596  12.646  13.133  12.888
47336W        W 6597   7.281  17.283  14.824
47337W        W 6598  33.410  15.745   1.211
47338W        W 6599  11.367  25.177  12.002
47339W        W 6600  34.935   1.959  10.154
47340W        W 6601  44.820  37.526   4.189
47341W        W 6602  35.494   2.446   4.126
47342W        W 6603  34.069  14.176  13.863
47343W        W 6604  43.509  35.453   2.218
47344W        W 6605   4.255  42.961   0.727
47345W        W 6606  34.085   0.370  12.085
47346W        W 6607   2.446  23.514   3.178
47347W        W 6608   2.789  39.523  13.319
47348W        W 6609  14.338  15.308   0.412
47349W        W 6610   8.163  30.080  13.920
47350W        W 6611   1.771  32.935   2.182
47351W        W 6612   9.647  18.655  13.497
47352W        W 6613  24.178  24.709   4.210
47353W        W 6614  11.346  25.114   1.334
47354W        W 6615  24.016  37.523  13.973
47355W        W 6616  12.737   0.465   4.695
47356W        W 6617  20.529  44.953   3.326
47357W        W 6618  26.985  43.782  14.943
47358W        W 6619  21.625  10.267  10.610
47359W        W 6620   6.677  20.536  10.601
47360W        W 6621  13.288  16.111   1.411
47361W        W 6622  19.582  32.024  11.545
47362W        W 6623  37.472   7.848   5.242
47363W        W 6624  13.282   3.937   1.830
47364W        W 6625   8.861   9.882  11.547
47365W        W 6626  35.421  20.589  13.413
47366W        W 6627   5.276  21.557  14.421
47367W        W 6628  19.100  14.160  10.932
47368W        W 6629  21.612   8.303   3.747
47369W        W 6630  43.827  38.415   0.254
47370W        W 6631  20.585  10.840   3.833
47371W        W 6632  42.419   7.331  14.466
47372W        W 6633   1.734  33.555   0.958
47373W        W 6634  43.765   9.765  13.013
47374W        W 6635  14.247  34.546  11.404
47375W        W 6636  12.810  37.534  14.840
47376W        W 6637  13.251  28.961   2.863
47377W        W 6638  43.341  18.165   2.197
47378W        W 6639  35.374  27.594   2.181
47379W        W 6640  36.003  37.059   2.807
47380W        W 6641  24.562  28.434  14.352
47381W        W 6642   4.215  38.516  11.083
47382W        W 6643  15.109  23.600  11.901
47383W        W 6644   5.912  11.861   4.773
47384W        W 6645  18.167  17.798  13.435
47385W        W 6646  29.613  13.722  13.507
47386W        W 6647  39.363  19.186  14.508
47387W        W 6648  24.027  15.323  13.456
47388W        W 6649  26.184  37.524  10.487
47389W        W 6650  29.502  40.013   4.229
47390W        W 6651  21.558  41.884   0.463
47391W        W 6652   5.427   1.286   4.660
47392W        W 6653   9.215  43.421  11.570
47393W        W 6654   6.729  19.774   0.408
47394W        W 6655   7.769  26.632  10.625
47395W        W 6656  29.453  44.957   4.637
47396W        W 6657  17.264   3.339  13.359
47397W        W 6658  11.243  10.232   0.342
47398W        W 6659  40.961  38.846   0.757
47399W        W 6660  36.950  38.912   0.298
47400W        W 6661   2.247   0.806  13.319
47401W        W 6662  25.965  22.238   3.224
47402W        W 6663   7.824  35.393   0.325
47403W        W 6664  19.587   3.358   4.328
47404W        W 6665  40.816   7.337   0.935
47405W        W 6666  31.058  44.268  13.323
47406W        W 6667   8.814  36.458   3.753
47407W        W 6668   1.745  28.480  12.854
47408W        W 6669  24.151  40.339   2.322
47409W        W 6670  40.920  40.331  10.604
47410W        W 6671  13.233  36.428  14.006
47411W        W 6672   4.920   3.331   0.900
47412W        W 6673   7.249  40.454  10.542
47413W        W 6674  13.183  13.783  11.050
47414W        W 6675  30.043  22.166   4.251
47415W        W 6676   2.440  16.296  11.900
47416W        W 6677  36.538  28.467   0.821
47417W        W 6678  13.614  30.621   1.215
47418W        W 6679   9.248  26.113  12.942
47419W        W 6680  11.686  26.517   9.950
47420W        W 6681   2.251  12.822   0.965
47421W        W 6682  17.613  16.727  11.443
47422W        W 6683  16.661   6.312   1.732
47423W        W 6684  22.126  10.196  13.987
47424W        W 6685  38.418  43.409  10.597
47425W        W 6686  35.493  19.710  11.429
47426W        W 6687  31.031   0.920  10.159
47427W        W 6688  13.669  24.202  14.435
47428W        W 6689  10.264   5.325   1.725
47429W        W 6690   8.318   2.246   3.679
47430W        W 6691   0.452   5.356  13.484
47431W        W 6692  24.161  12.644  14.972
47432W        W 6693  10.237   5.299   0.360
47433W        W 6694  39.003  43.946   4.713
47434W        W 6695  29.981   3.711  13.863
47435W        W 6696   2.329  40.478   1.923
47436W        W 6697   7.235  37.898   4.767
47437W        W 6698  34.574  35.585  13.063
47438W        W 6699  16.575   3.383   1.343
47439W        W 6700  15.633  15.181  10.546
47440W        W 6701  34.992  40.348  13.532
47441W        W 6702   3.795  31.579   4.332
47442W        W 6703  15.808  26.126  11.100
47443W        W 6704  11.664  27.532   0.424
47444W        W 6705  42.916  34.571   2.366
47445W        W 6706   1.830  33.123   0.809
47446W        W 6707  16.166  41.489  14.418
47447W        W 6708   8.899  25.578   3.297
47448W        W 6709  21.174  26.962   1.444
47449W        W 6710  27.988  20.583  14.439
47450W        W 6711  27.061  26.630   4.800
47451W        W 6712  32.906  30.910   2.254
47452W        W 6713  10.751  23.717  11.995
47453W        W 6714  24.982  43.942  11.102
47454W        W 6715  10.315  17.589  11.579
47455W        W 6716  10.817  12.124  14.804
47456W        W 6717   8.317  19.590   2.227
47457W        W 6718  26.117  20.172   4.732
47458W        W 6719   0.259  12.688   2.250
47459W        W 6720   6.903  20.081  11.915
47460W        W 6721  36.858  36.516  11.431
47461W        W 6722  29.491  30.440  10.923
47462W        W 6723   1.960  17.694  10.621
47463W        W 6724  29.462  10.633   3.160
47464W        W 6725  30.916   0.835  12.917
47465W        W 6726  30.580   3.386  14.927
47466W        W 6727  10.155  11.228  12.564
47467W        W 6728  11.167   5.206  13.993
47468W        W 6729  16.692  28.991   2.759
47469W        W 6730  25.471  30.639   2.186
47470W        W 6731  26.661  43.930  12.909
47471W        W 6732   6.801  12.812  14.920
47472W        W 6733  18.289   8.404   0.331
47473W        W 6734  21.588  32.563   2.347
47474W        W 6735  24.628  30.655   1.931
47475W        W 6736  15.157  17.232   0.910
47476W        W 6737  24.581   0.321  13.344
47477W        W 6738  33.462  41.449   1.744
47478W        W 6739   1.967  42.441  12.516
47479W        W 6740  39.366   6.904   1.864
47480W        W 6741  33.939  44.761   4.702
47481W        W 6742  30.005  30.659   3.331
47482W        W 6743  15.690  24.140  10.510
47483W        W 6744  33.542  25.559   3.687
47484W        W 6745  36.370   2.276  14.920
47485W        W 6746  31.029  23.132  11.885
47486W        W 6747  23.076  37.488   0.830
47487W        W 6748  25.697  38.832   3.856
47488W        W 6749  42.435  10.719   1.802
47489W        W 6750  17.635   0.361  13.511
47490W        W 6751  22.145  41.437  13.840
47491W        W 6752  31.526  44.812   0.770
47492W        W 6753   9.672   1.284   3.327
47493W        W 6754  19.733  33.033   1.284
47494W        W 6755  38.946  37.921   2.758
47495W        W 6756   8.746  38.902   1.448
47496W        W 6757  18.162  36.994  10.431
47497W        W 6758  26.618  26.548  14.282
47498W        W 6759  18.765  14.096  10.098
47499W        W 6760  41.429  26.138   2.396
47500W        W 6761  34.052  35.421   4.754
47501W        W 6762   3.295  37.445  10.417
47502W        W 6763  25.468  15.800   2.753
47503W        W 6764  20.128  34.453  13.960
47504W        W 6765   7.706  39.940  14.496
47505W        W 6766  25.507  25.491   0.326
47506W        W 6767   5.700  26.079  11.040
47507W        W 6768  25.609  28.615  12.936
47508W        W 6769  36.477  24.485  10.570
47509W        W 6770  11.698  31.104  10.936
47510W        W 6771  35.855   6.298  11.407
47511W        W 6772  25.681  24.100  14.815
47512W        W 6773   2.860   4.422   4.229
47513W        W 6774   0.407   2.256  13.357
47514W        W 6775  22.024  13.765  13.808
47515W        W 6776   3.296  38.485  11.050
47516W        W 6777  32.503  11.336   2.388
47517W        W 6778  20.581  24.985   2.776
47518W        W 6779   2.832  28.968   3.191
47519W        W 6780  22.091   2.931  11.903
47520W        W 6781  40.457  16.622   3.207
47521W        W 6782  25.974  10.284   2.795
47522W        W 6783  15.692  34.566  13.807
47523W        W 6784  29.029  25.165  11.071
47524W        W 6785  26.550  29.624   3.347
47525W        W 6786   4.340  33.588   1.327
47526W        W 6787  31.599   7.236   1.911
47527W        W 6788  24.604  24.628  13.853
47528W        W 6789   3.832  17.109  11.060
47529W        W 6790   7.257   8.680  12.554
47530W        W 6791  27.041  25.099   3.284
47531W        W 6792  24.165   3.441   4.345
47532W        W 6793  33.959   7.684  13.060
47533W        W 6794  23.060  26.464   3.726
47534W        W 6795  40.968  27.073   3.860
47535W        W 6796   6.740  36.430   1.235
47536W        W 6797  17.234  34.972  11.529
47537W        W 6798  38.496  26.962  10.929
47538W        W 6799   3.371  12.270   3.773
47539W        W 6800   6.922  40.843  11.935
47540W        W 6801   8.219  42.958  12.503
47541W        W 6802  22.534  44.923  13.013
47542W        W 6803  16.273  11.649  10.083
47543W        W 6804  32.404  36.495  14.023
47544W        W 6805  12.722  41.392   0.804
47545W        W 6806  19.760   4.814   2.706
47546W        W 6807  33.537  36.499  11.031
47547W        W 6808  30.433  32.525  13.802
47548W        W 6809  16.728  42.481  12.407
47549W        W 6810  34.960  44.503   1.704
47550W        W 6811   8.247  39.935   4.307
47551W        W 6812  21.580  41.018  11.030
47552W        W 6813   1.933  31.048   1.856
47553W        W 6814  28.045  24.488  14.414
47554W        W 6815  30.474  31.519   3.799
47555W        W 6816  34.479  23.051   4.804
47556W        W 6817  26.474  37.521  12.494
47557W        W 6818   7.219  11.153   3.150
47558W        W 6819  22.569  43.335  10.967
47559W        W 6820  30.115  37.434  12.096
47560W        W 6821  13.695  13.826  12.049
47561W        W 6822  13.140  30.073  13.835
47562W        W 6823  16.579  30.090   2.783
47563W        W 6824  34.502  13.282  12.993
47564W        W 6825   2.375  32.071   2.394
47565W        W 6826  33.116   6.844  13.007
47566W        W 6827  23.704   8.823   0.799
47567W        W 6828  36.432  10.312  10.974
47568W        W 6829  42.922   4.834  11.517
47569W        W 6830  19.621  37.047   1.921
47570W        W 6831  24.095  35.488  13.433
47571W        W 6832  18.247  21.088  14.952
47572W        W 6833  36.064  34.469  14.957
47573W        W 6834  17.165  22.021  11.527
47574W        W 6835  21.026  43.929   3.664
47575W        W 6836  37.066  22.070   2.228
47576W        W 6837  29.967  16.208   1.916
47577W        W 6838  14.620  20.200  12.922
47578W        W 6839  36.019  15.724  14.779
47579W        W 6840  20.709   2.856  14.413
47580W        W 6841   0.338  23.593   3.287
47581W        W 6842  10.836  11.244   2.187
47582W        W 6843  34.565  21.554   2.804
47583W        W 6844   8.285  15.596   0.247
47584W        W 6845  13.279  16.680  14.997
47585W        W 6846  10.195  39.834   1.255
47586W        W 6847  24.650  35.465  11.077
47587W        W 6848  28.949  38.980  14.765
47588W        W 6849   9.743  37.056  10.963
47589W        W 6850   5.339  38.003   0.755
47590W        W 6851  33.036  43.895  12.857
47591W        W 6852  24.210  39.370  10.432
47592W        W 6853  36.994  17.624  13.837
47593W        W 6854  39.868   5.208  13.047
47594W        W 6855  43.438   6.420  14.844
47595W        W 6856  29.637   1.906   3.788
47596W        W 6857  17.709   8.356   2.337
47597W        W 6858  38.937  44.999   0.471
47598W        W 6859  10.221  42.862   4.267
47599W        W 6860  44.769  20.117  13.398
47600W        W 6861  18.270   1.411  14.854
47601W        W 6862  33.925   9.648  10.404
47602W        W 6863   1.899   6.366  13.313
47603W        W 6864  21.074  25.005   2.788
47604W        W 6865  41.348   1.432  11.393
47605W        W 6866  13.718  31.151   1.377
47606W        W 6867  13.317  20.076   2.719
47607W        W 6868  17.564  39.968  11.052
47608W        W 6869  18.227  25.624  10.140
47609W        W 6870  43.807  21.595   2.665
47610W        W 6871  19.549  41.292   2.280
47611W        W 6872   1.842  38.484  14.383
47612W        W 6873   9.203  29.927   0.422
47613W        W 6874  45.000   6.860  12.017
47614W        W 6875  37.556  15.725  14.414
47615W        W 6876  10.736  37.506  14.987
47616W        W 6877  14.182  10.145   3.386
47617W        W 6878  44.334  40.328  12.464
47618W        W 6879  11.722  28.573  12.830
47619W        W 6880  38.955  30.037  11.994
47620W        W 6881   5.256  37.454  11.950
47621W        W 6882  36.946  20.607  11.941
47622W        W 6883  27.633   6.893   1.328
47623W        W 6884  36.582  13.253  11.088
47624W        W 6885  23.181  13.174   1.934
47625W        W 6886  27.957  26.696   1.397
47626W        W 6887  20.194  22.131   1.737
47627W        W 6888  27.677  28.462  10.995
47628W        W 6889  35.589  25.712  12.888
47629W        W 6890  13.122  40.502  11.108
47630W        W 6891  40.950  24.089   5.243
47631W        W 6892  42.286  43.322   1.851
47632W        W 6893  31.117   0.248   2.822
47633W        W 6894  23.708  26.498  10.598
47634W        W 6895   1.421  21.108  14.412
47635W        W 6896  36.369  26.520   2.713
47636W        W 6897  43.439   2.456   4.305
47637W        W 6898  19.732  31.934  11.998
47638W        W 6899  34.054   8.291   2.301
47639W        W 6900  22.034  35.041  12.515
47640W        W 6901  42.973  39.417  11.037
47641W        W 6902  21.732  24.594   2.340
47642W        W 6903   7.799  31.151  13.517
47643W        W 6904  13.762   3.253  11.478
47644W        W 6905  25.689  13.128  10.481
47645W        W 6906  40.938  41.508  14.782
47646W        W 6907  23.092   9.180  11.995
47647W        W 6908   6.907  39.917  11.504
47648W        W 6909  37.072  42.819   2.243
47649W        W 6910  43.767  27.055  13.844
47650W        W 6911  20.679  13.106   1.822
47651W        W 6912  26.099  38.003   3.231
47652W        W 6913  34.028   1.918   1.856
47653W        W 6914  24.491  10.150  13.025
47654W        W 6915  16.123  20.225  13.023
47655W        W 6916  21.031  32.003   3.235
47656W        W 6917   9.650  43.408  13.885
47657W        W 6918  44.967   9.841  11.437
47658W        W 6919  38.854  32.002   2.763
47659W        W 6920  36.924  24.194   3.204
47660W        W 6921  32.004   1.898   1.869
47661W        W 6922  23.568   0.318  13.854
47662W        W 6923  26.478  22.115   4.328
47663W        W 6924  11.273  13.844   4.349
47664W        W 6925  19.075   3.225   1.303
47665W        W 6926   6.741  22.716   2.673
47666W        W 6927  36.996   5.710  12.505
47667W        W 6928  23.092  28.096   2.702
47668W        W 6929  21.171  42.372  13.858
47669W        W 6930  40.050  31.938  10.888
47670W        W 6931  41.947  13.293   2.704
47671W        W 6932   8.689  34.375   4.269
47672W        W 6933  10.780  42.366  11.127
47673W        W 6934  13.193   6.885   4.799
47674W        W 6935  11.655  12.842  10.161
47675W        W 6936  41.503  35.473  10.492
47676W        W 6937  41.392   9.177  12.487
47677W        W 6938  15.579  20.142  10.600
47678W        W 6939  43.423  37.515  10.975
47679W        W 6940  27.607  37.084   1.812
47680W        W 6941  30.937  17.086   0.450
47681W        W 6942  11.179  14.244   2.412
47682W        W 6943  28.657  18.258   1.908
47683W        W 6944  22.681  28.626   4.654
47684W        W 6945  41.970   3.761  14.303
47685W        W 6946  30.505  28.119  11.948
47686W        W 6947  22.681  33.420   5.258
47687W        W 6948  20.157  14.788  10.946
47688W        W 6949  21.542  13.246   1.759
47689W        W 6950  33.003   5.325  10.060
47690W        W 6951   0.837  15.325  13.383
47691W        W 6952  13.774  32.013  14.915
47692W        W 6953  21.054  18.659  13.548
47693W        W 6954  33.555  29.011   2.395
47694W        W 6955   5.925  40.803   3.164
47695W        W 6956  15.718  28.184   2.863
47696W        W 6957  44.499  18.174   1.322
47697W        W 6958   1.310  34.572   1.416
47698W        W 6959   8.308  21.227   3.741
47699W        W 6960  44.366  29.080  11.934
47700W        W 6961  28.655  41.439   2.743
47701W        W 6962  38.415   2.394  13.394
47702W        W 6963  41.433  34.020  12.880
47703W        W 6964  20.525   9.175   0.766
47704W        W 6965   7.884  24.698  11.461
47705W        W 6966  44.434  20.092   5.157
47706W        W 6967  29.990  16.205  14.430
47707W        W 6968   7.776  17.782  13.368
47708W        W 6969  42.021  25.541   3.155
47709W        W 6970  40.356  34.614  13.814
47710W        W 6971  20.249   5.320   4.661
47711W        W 6972  38.973  24.725   9.503
47712W        W 6973  23.109  24.051   3.630
47713W        W 6974  17.705  28.557   2.344
47714W        W 6975  31.972  10.283   2.276
47715W        W 6976   5.708  38.523  14.025
47716W        W 6977  18.096  40.309  14.498
47717W        W 6978  18.769   1.381   1.723
47718W        W 6979  30.524  23.511   4.140
47719W        W 6980  31.003  44.944   4.807
47720W        W 6981  19.769  35.478  12.415
47721W        W 6982  37.850  20.571  12.577
47722W        W 6983  23.527  15.787   4.724
47723W        W 6984  39.426  21.092  13.894
47724W        W 6985  17.230  25.013   1.903
47725W        W 6986  27.096  10.301   1.340
47726W        W 6987   0.743  22.520   3.218
47727W        W 6988  43.408  31.048   3.290
47728W        W 6989  20.229  36.384  10.598
47729W        W 6990   4.806  30.556   3.737
47730W        W 6991  26.633  18.081  10.915
47731W        W 6992  26.151  25.102  14.906
47732W        W 6993  39.832  35.508  14.360
47733W        W 6994  18.174  24.550   0.314
47734W        W 6995  37.836  33.448   4.339
47735W        W 6996  26.116  26.968   0.734
47736W        W 6997   4.409  33.961   1.878
47737W        W 6998  31.047   6.323  10.440
47738W        W 6999  38.985   0.927   1.696
47739W        W 7000  24.988  29.142  13.967
47740W        W 7001  11.353  40.861   4.798
47741W        W 7002  13.830   5.879  10.546
47742W        W 7003  27.058  23.158  13.870
47743W        W 7004   9.252  40.335  11.554
47744W        W 7005  16.125   8.786  13.396
47745W        W 7006  33.572  25.676   1.275
47746W        W 7007  15.816  39.342   0.426
47747W        W 7008  34.085  18.115  13.842
47748W        W 7009   4.747  16.733   4.746
47749W        W 7010   8.794   4.812   4.177
47750W        W 7011   8.852  28.083   4.677
47751W        W 7012  25.549  10.690   4.809
47752W        W 7013  32.073  18.741  10.485
47753W        W 7014   2.461  25.632   1.320
47754W        W 7015  29.562  19.054   3.354
47755W        W 7016  38.832  34.970   4.656
47756W        W 7017  34.048  28.066  13.427
47757W        W 7018  43.352  27.458  12.509
47758W        W 7019  10.328  25.681  14.276
47759W        W 7020  35.502  11.279  14.298
47760W        W 7021  19.222   9.704   0.444
47761W        W 7022  11.351  26.090  12.930
47762W        W 7023  26.081  14.138   0.802
47763W        W 7024  20.187  35.992  14.814
47764W        W 7025  27.103  42.899  12.875
47765W        W 7026   4.944   0.317   1.900
47766W        W 7027  26.610  16.138   0.736
47767W        W 7028  10.353   2.930  11.519
47768W        W 7029   0.965  30.042   3.722
47769W        W 7030   7.813  35.949  14.414
47770W        W 7031  12.333  28.061  13.344
47771W        W 7032   7.678  23.083   3.708
47772W        W 7033   1.832   4.354  11.111
47773W        W 7034  12.136   4.247  13.921
47774W        W 7035  37.530  20.598   0.902
47775W        W 7036  40.033  23.696  13.477
47776W        W 7037  29.519  10.732   4.242
47777W        W 7038   1.379  19.123   0.822
47778W        W 7039   0.903  44.827  10.455
47779W        W 7040  14.596  10.781  10.514
47780W        W 7041  40.496  31.503  12.039
47781W        W 7042  23.226  20.636  13.471
47782W        W 7043   0.458  38.911  12.450
47783W        W 7044  24.557  17.794  12.407
47784W        W 7045  27.687  44.361  13.484
47785W        W 7046  28.617  16.191   1.770
47786W        W 7047  29.119  18.600   4.118
47787W        W 7048  22.157   5.793  11.928
47788W        W 7049  19.658  30.976  13.311
47789W        W 7050  12.755  33.450   0.822
47790W        W 7051  40.392  20.185  14.761
47791W        W 7052  28.668  27.015   1.865
47792W        W 7053  32.075  25.112   0.760
47793W        W 7054  10.378  22.586  14.308
47794W        W 7055   2.359   1.736  13.868
47795W        W 7056  29.937  44.404  14.890
47796W        W 7057  21.261  41.997   2.387
47797W        W 7058  37.548  14.176   2.418
47798W        W 7059  41.812  24.174   4.600
47799W        W 7060  27.561  24.585  11.055
47800W        W 7061  24.604  42.335  13.029
47801W        W 7062  40.378  19.681   2.846
47802W        W 7063  43.855   6.248   2.417
47803W        W 7064  44.858  30.951   2.669
47804W        W 7065  20.072  11.698   4.764
47805W        W 7066  40.898  36.547  10.547
47806W        W 7067  25.684   5.859  14.345
47807W        W 7068  42.466  13.734   5.147
47808W        W 7069  28.442   2.956   1.344
47809W        W 7070   4.728   7.722   2.304
47810W        W 7071  31.544  17.069  13.347
47811W        W 7072  42.428  42.912  14.821
47812W        W 7073   6.799   7.712  13.052
47813W        W 7074  30.571  38.048  14.871
47814W        W 7075   7.325  16.651   3.860
47815W        W 7076  11.354  41.427   2.286
47816W        W 7077   0.837  21.171  10.550
47817W        W 7078  24.499   3.789  11.896
47818W        W 7079  10.754  32.055   2.689
47819W        W 7080   0.434  38.824   3.176
47820W        W 7081  12.131  11.216  14.472
47821W        W 7082   2.849  37.023   3.148
47822W        W 7083  23.552   3.324  13.866
47823W        W 7084   2.748  15.773   1.903
47824W        W 7085  33.508  17.629   0.379
47825W        W 7086  22.095   8.198  11.548
47826W        W 7087  22.074  21.108  11.585
47827W        W 7088   7.354  37.457  12.056
47828W        W 7089  18.099  31.412  10.909
47829W        W 7090  22.069  32.403  10.096
47830W        W 7091  14.785  31.061   0.939
47831W        W 7092  14.239   7.874   2.751
47832W        W 7093  11.223   4.765   3.855
47833W        W 7094  10.837   1.789   0.460
47834W        W 7095  44.441   6.213   3.179
47835W        W 7096   1.459  23.078  13.014
47836W        W 7097  17.767  44.824  10.982
47837W        W 7098  17.679  29.993  14.338
47838W        W 7099  22.631  39.480  12.094
47839W        W 7100  21.023  39.815   2.184
47840W        W 7101  39.848  17.649   2.669
47841W        W 7102  31.551  33.591   1.840
47842W        W 7103  41.494  20.096  14.357
47843W        W 7104  13.626  12.754   3.182
47844W        W 7105  41.387   5.394   0.343
47845W        W 7106   6.398   4.248  12.980
47846W        W 7107  27.127   3.763   1.434
47847W        W 7108  28.180   2.472  12.402
47848W        W 7109   7.397  31.953   1.702
47849W        W 7110  26.518  32.057   1.935
47850W        W 7111  42.887  39.864  14.808
47851W        W 7112  23.084  13.206  12.830
47852W        W 7113   1.337   3.932   4.740
47853W        W 7114   5.741  39.880  14.026
47854W        W 7115   0.800  12.278   0.274
47855W        W 7116   5.343  19.188   4.599
47856W        W 7117  12.117  19.618  11.377
47857W        W 7118  22.565  30.457  14.458
47858W        W 7119  44.340   2.286   0.738
47859W        W 7120  16.232  13.612  13.521
47860W        W 7121   4.320  44.941  13.850
47861W        W 7122   7.171  44.797  12.845
47862W        W 7123  29.630   8.808   0.387
47863W        W 7124  13.696  28.129  12.394
47864W        W 7125  15.802  20.118   3.327
47865W        W 7126  16.102  44.361   3.338
47866W        W 7127  32.450  27.605   3.228
47867W        W 7128  14.625  16.666   4.321
47868W        W 7129   9.275  25.987  14.834
47869W        W 7130   0.932  39.384  12.955
47870W        W 7131  31.914  26.533   4.690
47871W        W 7132  29.085  34.060  13.405
47872W        W 7133  42.329  40.951  14.313
47873W        W 7134  24.497  42.847  12.531
47874W        W 7135   5.881   9.247  11.507
47875W        W 7136  35.552  30.425   2.193
47876W        W 7137  44.942  26.129   4.285
47877W        W 7138  26.119  30.089   5.177
47878W        W 7139  11.789  17.135  12.904
47879W        W 7140   9.804  12.778  11.416
47880W        W 7141  29.028  32.515   4.133
47881W        W 7142   6.769  21.581  12.060
47882W        W 7143  34.574   3.402   0.267
47883W        W 7144  36.454  13.269  13.343
47884W        W 7145  14.696  29.608  14.950
47885W        W 7146  22.997  37.957  11.108
47886W        W 7147  35.906  43.012  13.836
47887W        W 7148  35.951  35.467  14.898
47888W        W 7149   0.985  16.586   3.723
47889W        W 7150  10.706   1.456   2.684
47890W        W 7151  39.517  38.553  13.413
47891W        W 7152  23.048  26.530  10.894
47892W        W 7153   8.225  44.804  13.932
47893W        W 7154  40.495   0.485   2.338
47894W        W 7155   4.762   0.803   2.361
47895W        W 7156  36.506  12.654   0.369
47896W        W 7157  11.158   8.782   0.371
47897W        W 7158  38.471  14.200  11.039
47898W        W 7159  13.821  20.031  11.043
47899W        W 7160  27.587   4.340   0.436
47900W        W 7161  39.955  39.823   1.893
47901W        W 7162  39.446  21.603  13.369
47902W        W 7163  36.530  38.068   0.262
47903W        W 7164  20.655   4.296  11.008
47904W        W 7165  10.652  18.636   4.836
47905W        W 7166  42.006  35.045  12.032
47906W        W 7167   6.833  24.211  11.610
47907W        W 7168  42.011   6.193  13.398
47908W        W 7169   1.365  20.095  10.558
47909W        W 7170  20.176  18.179   5.730
47910W        W 7171  18.741  24.519  14.473
47911W        W 7172  20.262  31.078   1.772
47912W        W 7173  36.512  27.545   2.203
47913W        W 7174  40.430  10.729  13.868
47914W        W 7175  22.637  31.032   0.761
47915W        W 7176  17.634  22.150  11.532
47916W        W 7177   1.881  30.958  10.992
47917W        W 7178  42.336  30.004   4.608
47918W        W 7179  23.493   7.887   0.336
47919W        W 7180   0.842  20.589  13.887
47920W        W 7181  30.470  37.896   0.286
47921W        W 7182  13.308  27.466   3.320
47922W        W 7183  33.485  37.862   3.210
47923W        W 7184  28.102   8.854  13.032
47924W        W 7185  18.594  34.003   2.820
47925W        W 7186  24.489  30.437  12.049
47926W        W 7187   0.274  40.509  10.618
47927W        W 7188  13.614   8.817   4.121
47928W        W 7189   3.845   5.713  14.998
47929W        W 7190   3.848   3.867   0.313
47930W        W 7191   6.923  31.472  13.468
47931W        W 7192   3.439   6.192  11.992
47932W        W 7193  14.108  27.059   3.245
47933W        W 7194  43.946  38.996   2.218
47934W        W 7195   4.700  43.335   1.926
47935W        W 7196  28.550   9.766  12.523
47936W        W 7197  35.028  20.169   1.932
47937W        W 7198   3.380  31.635   0.928
47938W        W 7199  14.094  33.957   4.245
47939W        W 7200  15.627  21.251   0.260
47940W        W 7201  10.830   6.328   0.469
47941W        W 7202  22.143  16.129   0.790
47942W        W 7203  13.700  31.636  10.945
47943W        W 7204   0.915   6.370   4.727
47944W        W 7205  15.236  11.237   3.319
47945W        W 7206  27.477  32.120  14.358
47946W        W 7207  27.583  38.998   4.174
47947W        W 7208  16.114  25.659  10.498
47948W        W 7209  39.425  18.680   4.808
47949W        W 7210  31.972   5.816  13.893
47950W        W 7211   4.287  34.080  14.955
47951W        W 7212  39.344   9.650   2.285
47952W        W 7213  20.142  43.491   2.699
47953W        W 7214  14.193   3.343  11.083
47954W        W 7215  13.315  18.232  12.570
47955W        W 7216  16.118  11.794   2.756
47956W        W 7217  19.219  23.701  12.522
47957W        W 7218  23.568   0.448  12.893
47958W        W 7219   4.880  30.005   3.297
47959W        W 7220  36.008   4.253  12.884
47960W        W 7221  39.438  20.728   3.853
47961W        W 7222  15.089  24.497  13.331
47962W        W 7223  35.514  13.753   0.862
47963W        W 7224  15.156  28.132  12.859
47964W        W 7225  18.106  44.412  12.571
47965W        W 7226  22.540  42.962  14.303
47966W        W 7227   0.873  26.047  14.890
47967W        W 7228  35.871  31.972   3.716
47968W        W 7229  42.026   0.786  12.490
47969W        W 7230  34.423  22.129   0.424
47970W        W 7231  40.943  31.576   0.837
47971W        W 7232  21.107  41.849  12.062
47972W        W 7233   0.758  39.370   3.372
47973W        W 7234  31.906  34.924  11.543
47974W        W 7235  35.409   5.896   3.820
47975W        W 7236  26.648  40.483   3.729
47976W        W 7237  12.342   5.320  10.601
47977W        W 7238  16.310  41.976  13.910
47978W        W 7239  25.085   0.980  13.362
47979W        W 7240  26.187  14.750  13.999
47980W        W 7241  15.259  20.094   3.846
47981W        W 7242  14.279  21.625   4.175
47982W        W 7243  24.182  31.540   2.672
47983W        W 7244  24.582  32.588  11.965
47984W        W 7245  10.370  25.998  14.013
47985W        W 7246  24.698  23.091   4.803
47986W        W 7247  25.629  34.934   4.610
47987W        W 7248  20.216   9.847  14.297
47988W        W 7249  44.473  42.294  12.942
47989W        W 7250  43.370  34.413  10.090
47990W        W 7251  33.887  35.035   1.831
47991W        W 7252  10.638  17.096  14.861
47992W        W 7253  37.929  15.207  14.868
47993W        W 7254  30.614  21.242  14.975
47994W        W 7255   3.308  13.635   3.293
47995W        W 7256  31.048  20.103  12.406
47996W        W 7257  34.977  14.753  14.830
47997W        W 7258  17.648  13.799   4.225
47998W        W 7259  34.887  14.709   3.244
47999W        W 7260  29.113  11.148   1.869
48000W        W 7261  15.322   4.747  12.378
48001W        W 7262   7.343   8.345  13.879
48002W        W 7263  10.264  35.937  14.921
48003W        W 7264  14.659   6.243   5.300
48004W        W 7265  17.168  12.803  14.448
48005W        W 7266  16.181   4.284  11.116
48006W        W 7267   3.739   7.264  14.362
48007W        W 7268  38.520   1.369  11.908
48008W        W 7269   0.858  10.271  12.407
48009W        W 7270  39.024  27.501   2.256
48010W        W 7271  12.670  18.245   2.252
48011W        W 7272  15.647  17.572   3.176
48012W        W 7273   9.744  20.641  14.986
48013W        W 7274  19.097  34.974  13.035
48014W        W 7275  35.885  35.453   2.323
48015W        W 7276  41.357  34.882  12.355
48016W        W 7277  40.814  17.694  13.498
48017W        W 7278  40.941   8.896   4.610
48018W        W 7279  41.331  21.572   3.781
48019W        W 7280  40.491  17.655   3.177
48020W        W 7281  27.547  17.689   0.419
48021W        W 7282   7.306   4.417  14.891
48022W        W 7283  33.505  12.714   2.893
48023W        W 7284  20.527  10.300   2.696
48024W        W 7285  33.626  21.556   2.396
48025W        W 7286  42.285  26.033   9.935
48026W        W 7287   4.326  36.522   0.395
48027W        W 7288   8.799  14.123  12.480
48028W        W 7289  42.904  44.423   2.840
48029W        W 7290  27.647  39.866   0.760
48030W        W 7291  18.058  17.114  13.841
48031W        W 7292  38.394  30.657   4.732
48032W        W 7293  36.408   7.349  12.068
48033W        W 7294  15.595  12.774   4.752
48034W        W 7295  21.238  20.075  11.919
48035W        W 7296  42.488  36.977  14.014
48036W        W 7297  15.683  30.017  14.348
48037W        W 7298   6.321   7.701   3.241
48038W        W 7299  17.180  14.817  14.389
48039W        W 7300  24.696  29.943  11.490
48040W        W 7301   1.930  41.033  12.883
48041W        W 7302  41.918  28.958   4.635
48042W        W 7303  32.022   7.735  10.434
48043W        W 7304  37.860  44.911   0.462
48044W        W 7305   9.721  20.700   3.282
48045W        W 7306   2.908   0.412  13.920
48046W        W 7307   5.426  38.445  11.021
48047W        W 7308  31.414  23.578  14.420
48048W        W 7309   7.710   3.434   9.959
48049W        W 7310  31.598  39.368  11.456
48050W        W 7311  32.608  33.079   2.734
48051W        W 7312  25.474  22.039   0.729
48052W        W 7313  35.908   8.861   1.709
48053W        W 7314  41.298  12.808   3.371
48054W        W 7315  43.985  17.304  12.869
48055W        W 7316  30.642  26.088  12.466
48056W        W 7317   9.284  41.332  14.933
48057W        W 7318   0.865  16.757  10.412
48058W        W 7319  43.990  26.187   4.174
48059W        W 7320   1.433  26.103   3.852
48060W        W 7321   6.336   9.674  11.960
48061W        W 7322  12.265  10.780  14.879
48062W        W 7323  37.853   5.839  11.533
48063W        W 7324  33.427  19.135  12.422
48064W        W 7325  13.718   5.873  13.010
48065W        W 7326  12.610  44.259   0.280
48066W        W 7327  26.637  27.100  12.011
48067W        W 7328  38.334  37.010   0.264
48068W        W 7329  44.884  24.159   1.873
48069W        W 7330   4.806  41.992  11.975
48070W        W 7331  23.229  39.832   1.419
48071W        W 7332   6.377   7.842  11.578
48072W        W 7333  44.855   7.726   1.921
48073W        W 7334  14.799  41.005   1.213
48074W        W 7335  12.219  41.900   1.381
48075W        W 7336   4.391   4.216   1.266
48076W        W 7337  29.662  35.092  13.904
48077W        W 7338   6.292   2.304   0.929
48078W        W 7339   7.848  41.331   1.328
48079W        W 7340  28.616   0.432   1.841
48080W        W 7341  28.456   5.423  13.331
48081W        W 7342  33.993  40.536   1.863
48082W        W 7343  34.464  25.500   0.431
48083W        W 7344  14.799  11.203   2.283
48084W        W 7345  16.075  37.085   0.934
48085W        W 7346   7.192  40.888   3.736
48086W        W 7347  18.136  39.866  12.031
48087W        W 7348  12.180  34.545   3.341
48088W        W 7349  25.153  14.334   3.864
48089W        W 7350  10.822  37.566  12.391
48090W        W 7351  18.253  35.080  12.044
48091W        W 7352  25.154  44.391  13.809
48092W        W 7353  36.580  40.477  13.515
48093W        W 7354   5.243  24.554   3.237
48094W        W 7355  28.067  21.584  10.564
48095W        W 7356   9.657  44.388   3.777
48096W        W 7357  40.835  38.437  11.893
48097W        W 7358  34.409  29.977  12.939
48098W        W 7359  19.621  21.589   1.281
48099W        W 7360  42.308   7.840   0.405
48100W        W 7361  17.165  18.662   4.648
48101W        W 7362  11.832  39.820   4.718
48102W        W 7363  18.782  37.907  12.427
48103W        W 7364  32.957  21.714  10.974
48104W        W 7365  19.573  13.621  11.547
48105W        W 7366  23.704  36.491  11.086
48106W        W 7367  42.007   2.900   1.774
48107W        W 7368  37.885  12.647   0.304
48108W        W 7369  41.388  27.117   0.814
48109W        W 7370  31.985  22.220   3.277
48110W        W 7371  44.308   9.776   2.398
48111W        W 7372  17.096  28.458  10.040
48112W        W 7373   9.191   4.221   2.313
48113W        W 7374  21.176  43.886  11.533
48114W        W 7375  15.796  38.046  14.890
48115W        W 7376   4.701  40.545  11.501
48116W        W 7377   8.675  18.716  12.085
48117W        W 7378  44.462  25.201   4.309
48118W        W 7379   9.756  30.077  14.926
48119W        W 7380   5.931  27.081  11.958
48120W        W 7381   9.280  13.625   0.295
48121W        W 7382   8.198   9.693   3.355
48122W        W 7383  31.136   7.364   4.332
48123W        W 7384  29.619  22.064  13.987
48124W        W 7385  22.026   7.742   2.332
48125W        W 7386  26.459  16.249   4.628
48126W        W 7387   1.860  13.341  12.423
48127W        W 7388   7.759   0.986  11.505
48128W        W 7389  31.621  41.361  14.926
48129W        W 7390  14.238  33.620  11.981
48130W        W 7391  34.460  14.249  12.386
48131W        W 7392  35.476  35.982  11.469
48132W        W 7393  37.888   6.357   1.887
48133W        W 7394  40.932   0.984  13.364
48134W        W 7395  15.245  24.488  11.865
48135W        W 7396   5.807   5.792  14.951
48136W        W 7397  39.486  25.208  13.931
48137W        W 7398   4.851  44.431   0.742
48138W        W 7399  38.969  44.897   1.817
48139W        W 7400   9.841  29.038   1.352
48140W        W 7401  41.345   9.352   3.279
48141W        W 7402  17.276  28.998   5.294
48142W        W 7403  18.088  17.208   3.198
48143W        W 7404   8.880  23.029   0.845
48144W        W 7405  18.749  18.667   1.735
48145W        W 7406  12.350  15.639   0.395
48146W        W 7407  29.167  15.580  12.935
48147W        W 7408  36.542   8.702   5.690
48148W        W 7409  21.603  29.449  11.023
48149W        W 7410  18.736   8.324  11.062
48150W        W 7411  13.323  31.109  13.963
48151W        W 7412  33.123   7.767  11.950
48152W        W 7413   9.175  38.909  13.309
48153W        W 7414  41.416  19.088   4.163
48154W        W 7415  17.592  31.591   1.839
48155W        W 7416  17.707  11.338   1.239
48156W        W 7417  38.005  11.736  12.881
48157W        W 7418  26.163  39.993   2.252
48158W        W 7419  39.481  30.966   0.743
48159W        W 7420  25.620  16.148  13.974
48160W        W 7421  21.681  14.268   1.910
48161W        W 7422  39.321  18.269   9.957
48162W        W 7423  27.453  26.667  12.424
48163W        W 7424  32.530  33.937  11.476
48164W        W 7425  36.439  22.080   0.852
48165W        W 7426  34.604   8.241  14.381
48166W        W 7427  37.044  35.022  11.493
48167W        W 7428  10.213  17.643   3.218
48168W        W 7429  24.184   7.349  10.938
48169W        W 7430  25.040  26.112   3.381
48170W        W 7431   9.648  39.989   2.832
48171W        W 7432  16.660   4.238   4.688
48172W        W 7433  40.400  34.960  12.060
48173W        W 7434  30.587  44.345   4.786
48174W        W 7435  29.531  21.193   3.190
48175W        W 7436   9.806  24.070  13.337
48176W        W 7437  24.672  32.024  13.840
48177W        W 7438  28.129  15.645   4.244
48178W        W 7439  23.009  37.363  10.979
48179W        W 7440  32.134  34.912   3.229
48180W        W 7441  40.935  39.824   4.193
48181W        W 7442  36.863  27.623   2.415
48182W        W 7443  14.601  30.509   3.730
48183W        W 7444   1.771  35.971  10.627
48184W        W 7445  15.677  22.710   4.623
48185W        W 7446  33.531   2.431  12.529
48186W        W 7447   0.468  13.760  12.491
48187W        W 7448  33.009  38.995  10.456
48188W        W 7449   0.983  32.543  11.543
48189W        W 7450  13.278   1.466  11.545
48190W        W 7451  24.666  21.097   2.189
48191W        W 7452  21.624  20.124   1.756
48192W        W 7453  31.554  13.240  10.486
48193W        W 7454   6.920  44.759   1.442
48194W        W 7455  38.424  20.692   3.748
48195W        W 7456  29.948  33.577  12.013
48196W        W 7457  39.323  11.727  12.528
48197W        W 7458   4.720  15.107   2.711
48198W        W 7459  16.747  12.713  13.463
48199W        W 7460  44.919  36.866  14.921
48200W        W 7461   0.284  10.664  11.987
48201W        W 7462  30.513  19.079  13.868
48202W        W 7463   0.344  18.284   3.309
48203W        W 7464   9.755  30.934  14.973
48204W        W 7465  16.217  29.502   5.279
48205W        W 7466  42.791  34.461   5.093
48206W        W 7467   8.663  26.167   4.693
48207W        W 7468  43.955   5.311  13.509
48208W        W 7469  35.076  23.061   2.394
48209W        W 7470  15.817  39.989  12.542
48210W        W 7471  27.567   5.871   4.781
48211W        W 7472   1.408  27.617  14.411
48212W        W 7473  42.835   2.855  12.090
48213W        W 7474  41.851   9.162   0.892
48214W        W 7475   9.357  38.064   3.245
48215W        W 7476  12.316  41.426  12.508
48216W        W 7477   8.243  34.911   1.232
48217W        W 7478  38.503   0.754   3.737
48218W        W 7479   5.301  16.188   2.676
48219W        W 7480  36.389   4.376   2.261
48220W        W 7481   2.745  44.889  10.452
48221W        W 7482   2.255  21.144  12.887
48222W        W 7483  28.618  32.956  11.078
48223W        W 7484  31.599  27.975  13.352
48224W        W 7485  12.841  18.059  12.536
48225W        W 7486   1.259   8.723   1.912
48226W        W 7487  36.351   1.429   1.446
48227W        W 7488   7.319  15.302   4.150
48228W        W 7489  13.141  42.932  11.071
48229W        W 7490   0.476   8.733  13.806
48230W        W 7491  36.584   7.850  10.534
48231W        W 7492  35.876  32.573  11.558
48232W        W 7493   3.801   5.270  13.865
48233W        W 7494  37.911   5.853  13.417
48234W        W 7495  31.064   3.244   3.837
48235W        W 7496   9.779  30.529  11.886
48236W        W 7497   7.845  29.452   5.098
48237W        W 7498  22.222  18.787   2.264
48238W        W 7499  42.937  22.171  13.343
48239W        W 7500   2.846  23.145  13.876
48240W        W 7501  35.007  10.811   3.803
48241W        W 7502  40.033  22.543   2.304
48242W        W 7503  21.589  38.456  13.050
48243W        W 7504  34.545   7.263  12.910
48244W        W 7505  38.845  13.686  10.461
48245W        W 7506  34.407  38.394   4.223
48246W        W 7507  42.361  25.970   1.785
48247W        W 7508  17.624  25.485   3.289
48248W        W 7509  40.970  13.626   1.301
48249W        W 7510   3.810  24.135   2.849
48250W        W 7511  41.997  25.627  12.014
48251W        W 7512   3.387  28.556  13.533
48252W        W 7513   1.332   0.939   4.707
48253W        W 7514   7.675   9.351  11.066
48254W        W 7515  17.618  18.177  14.420
48255W        W 7516  24.041  23.548   3.828
48256W        W 7517  11.708   7.219   1.900
48257W        W 7518  20.603  42.854   1.872
48258W        W 7519   7.397  26.057  11.451
48259W        W 7520  19.271  25.181  13.023
48260W        W 7521  21.706  14.209  12.985
48261W        W 7522   4.851  20.755   0.301
48262W        W 7523  24.177   7.831  12.446
48263W        W 7524  19.577  19.234   0.890
48264W        W 7525  14.258  30.968   2.771
48265W        W 7526  34.112   0.311  14.844
48266W        W 7527  30.514  25.145  12.084
48267W        W 7528  15.308   9.841   3.667
48268W        W 7529  33.608  27.471  11.899
48269W        W 7530  40.921  40.904   3.788
48270W        W 7531   1.473   0.833  13.017
48271W        W 7532  32.076  19.589  11.421
48272W        W 7533  29.563  43.325   3.718
48273W        W 7534  12.831  26.595  11.474
48274W        W 7535   9.230  21.731   1.413
48275W        W 7536  17.171   9.239  11.467
48276W        W 7537   0.401  18.750  12.493
48277W        W 7538  34.088  41.986   4.201
48278W        W 7539  22.219  10.709  13.968
48279W        W 7540   4.205  21.147   0.800
48280W        W 7541  26.008  18.735  12.388
48281W        W 7542  37.995  32.078   1.304
48282W        W 7543  12.709  13.269  12.413
48283W        W 7544  24.973  16.584  14.830
48284W        W 7545  20.722  31.595  11.868
48285W        W 7546  43.275   3.430   1.283
48286W        W 7547  35.998  10.699   0.902
48287W        W 7548  35.999   1.332   2.757
48288W        W 7549   7.280  13.200  12.826
48289W        W 7550  32.960  26.027   2.184
48290W        W 7551  42.847  30.994  14.003
48291W        W 7552  22.583  40.862   1.842
48292W        W 7553  31.099  25.709   0.420
48293W        W 7554   4.804   5.839   5.303
48294W        W 7555  29.570  30.995   2.785
48295W        W 7556  10.635  41.871   0.377
48296W        W 7557  44.411  23.605   4.334
48297W        W 7558  35.079   1.474   2.222
48298W        W 7559  13.202  29.621  12.458
48299W        W 7560  42.885   0.474   0.265
48300W        W 7561  28.119  28.082   2.751
48301W        W 7562  20.668  30.049   3.250
48302W        W 7563   9.156  18.275  13.882
48303W        W 7564  32.413  12.774  11.585
48304W        W 7565  27.993   2.960  14.451
48305W        W 7566  21.131   0.326  10.034
48306W        W 7567   2.730  39.461  14.435
48307W        W 7568  38.384  20.259   3.637
48308W        W 7569  14.151  33.531  13.529
48309W        W 7570  17.202   1.929   2.888
48310W        W 7571  37.942  36.088  10.917
48311W        W 7572  27.669   3.923  13.321
48312W        W 7573  17.617  28.455   2.892
48313W        W 7574  30.937  43.439  11.912
48314W        W 7575  10.837  19.235  11.462
48315W        W 7576  28.634  31.577  14.884
48316W        W 7577   0.452  21.075  10.933
48317W        W 7578  44.362  29.138  12.506
48318W        W 7579  25.973   7.395  14.417
48319W        W 7580  41.995  26.002  10.027
48320W        W 7581  41.970  10.878  14.772
48321W        W 7582   7.898   1.846  14.919
48322W        W 7583  29.489  42.319   3.696
48323W        W 7584  27.617  14.332   2.869
48324W        W 7585  43.913  18.170   4.610
48325W        W 7586  33.500  22.531   0.736
48326W        W 7587   4.773  37.444   2.671
48327W        W 7588  35.943   7.734  12.413
48328W        W 7589  38.336  31.090   1.215
48329W        W 7590  10.668  42.429  14.889
48330W        W 7591  24.122  44.504   3.267
48331W        W 7592  36.421  30.119  13.983
48332W        W 7593  21.541  19.590   3.804
48333W        W 7594  25.619   4.311   4.176
48334W        W 7595  20.547   9.716   4.765
48335W        W 7596  41.868  40.017  13.520
48336W        W 7597  40.841  31.504   2.754
48337W        W 7598   4.434  36.569   3.798
48338W        W 7599  17.219  40.899   4.186
48339W        W 7600  28.054  39.370   1.700
48340W        W 7601  23.012  15.619  13.803
48341W        W 7602  13.299  19.648  12.352
48342W        W 7603  10.229  22.999   1.319
48343W        W 7604  14.321   9.844  14.290
48344W        W 7605  12.338  15.749  12.977
48345W        W 7606  29.458  28.102  10.499
48346W        W 7607  37.024  12.800  14.785
48347W        W 7608  43.324   8.826   5.200
48348W        W 7609  33.512   3.417  10.007
48349W        W 7610   5.846  19.134  11.028
48350W        W 7611  39.895  14.113   1.747
48351W        W 7612  44.420  10.240  13.982
48352W        W 7613  17.261   9.286   4.738
48353W        W 7614  25.021   6.856  11.914
48354W        W 7615  35.489   3.376   4.258
48355W        W 7616  33.085  36.953  13.876
48356W        W 7617  16.693  39.432  14.486
48357W        W 7618  23.200  12.812   2.335
48358W        W 7619   6.888   8.777  12.867
48359W        W 7620  40.434  22.176  11.377
48360W        W 7621  16.686  22.999   2.803
48361W        W 7622  17.766  25.124   3.793
48362W        W 7623  18.629   2.904   2.247
48363W        W 7624  36.391  17.306   4.137
48364W        W 7625  18.617  36.346   4.288
48365W        W 7626  35.450  29.004  11.580
48366W        W 7627  27.171   1.248   1.392
48367W        W 7628  20.721   3.793  11.114
48368W        W 7629  28.175  13.624  11.048
48369W        W 7630  25.980  44.879   5.319
48370W        W 7631  34.414  28.957   3.718
48371W        W 7632  41.349  15.213   9.575
48372W        W 7633  28.005  28.933  14.934
48373W        W 7634  22.721  32.544  13.439
48374W        W 7635  15.200  33.097   2.783
48375W        W 7636  18.625  23.677   2.281
48376W        W 7637  14.827  37.015   1.236
48377W        W 7638   8.348  30.133   0.801
48378W        W 7639  14.108   5.256   0.878
48379W        W 7640  17.709   6.705   1.804
48380W        W 7641   0.488  43.915  12.921
48381W        W 7642  22.585  29.593   4.622
48382W        W 7643  27.487  33.423  10.928
48383W        W 7644  24.479   6.353  11.940
48384W        W 7645  28.536  11.314  11.003
48385W        W 7646  20.706  44.469   1.797
48386W        W 7647  30.117  28.507  14.352
48387W        W 7648   9.643   6.391  14.915
48388W        W 7649  29.480  43.974  12.976
48389W        W 7650  42.792   5.860   3.706
48390W        W 7651  16.081  21.644  10.480
48391W        W 7652  40.037   3.311  13.493
48392W        W 7653  21.727  13.183   3.234
48393W        W 7654  24.630  35.888   1.804
48394W        W 7655  12.245  38.558   0.475
48395W        W 7656   3.942  44.283   2.205
48396W        W 7657  29.581  16.592   2.881
48397W        W 7658   3.808  41.830  13.059
48398W        W 7659   8.867   7.697   1.851
48399W        W 7660   2.377  11.679   4.208
48400W        W 7661  43.872  12.751  14.997
48401W        W 7662  38.349   3.911  14.916
48402W        W 7663  23.627  29.490   2.265
48403W        W 7664   8.665  12.784  11.988
48404W        W 7665   3.927  16.799   3.840
48405W        W 7666  25.141  17.776  11.895
48406W        W 7667   2.362  12.750   2.811
48407W        W 7668  24.001   9.663   3.149
48408W        W 7669   1.275  37.564   1.788
48409W        W 7670  33.081   8.241   0.772
48410W        W 7671  27.169  42.283  11.485
48411W        W 7672   2.361  39.485  12.899
48412W        W 7673  10.303  16.593  10.428
48413W        W 7674  29.019  37.357  10.527
48414W        W 7675  32.111  13.752  12.465
48415W        W 7676  11.183  34.922  12.427
48416W        W 7677  20.766   1.833   2.263
48417W        W 7678  27.664  28.150   1.757
48418W        W 7679  44.387  43.299  14.945
48419W        W 7680   1.360  18.106  13.507
48420W        W 7681  15.091  14.701  13.855
48421W        W 7682   3.909   2.340  13.038
48422W        W 7683  20.759  36.485   2.825
48423W        W 7684  32.029  40.006   2.179
48424W        W 7685  27.539  15.691   1.212
48425W        W 7686  11.813  23.700   1.313
48426W        W 7687  27.594  17.292   2.751
48427W        W 7688  16.709  14.225   1.730
48428W        W 7689   0.979  16.791   0.304
48429W        W 7690  29.101  40.869  14.373
48430W        W 7691  35.565   1.322   0.862
48431W        W 7692   2.819  40.359  12.993
48432W        W 7693  25.199  37.395  10.997
48433W        W 7694  36.463   6.841   4.266
48434W        W 7695  33.560  20.202  12.843
48435W        W 7696   9.727  38.928   3.170
48436W        W 7697  43.475  12.253  13.537
48437W        W 7698  37.389  42.023  14.899
48438W        W 7699  26.476  26.490  12.459
48439W        W 7700   4.852  21.729   1.711
48440W        W 7701  26.590  44.776   0.875
48441W        W 7702  22.522  35.081   0.741
48442W        W 7703  43.771  20.668   0.468
48443W        W 7704  17.751   5.890  13.914
48444W        W 7705  18.233  25.977   3.206
48445W        W 7706  14.749  27.981   0.873
48446W        W 7707  34.007  33.412   0.424
48447W        W 7708  30.519  21.716   0.303
48448W        W 7709   9.342  43.325   2.261
48449W        W 7710  33.957   6.261  10.447
48450W        W 7711  18.744  38.496  12.494
48451W        W 7712  44.260  40.881  14.413
48452W        W 7713   5.855  19.097   0.746
48453W        W 7714   1.451  17.601  12.434
48454W        W 7715  21.612  24.504  11.497
48455W        W 7716  26.057   8.900  12.072
48456W        W 7717  37.410  32.473   3.268
48457W        W 7718  25.487   2.398  14.496
48458W        W 7719  36.887   1.425  14.990
48459W        W 7720   9.688   2.266  14.516
48460W        W 7721  41.837  18.669   2.305
48461W        W 7722  11.842  25.528   0.814
48462W        W 7723  13.161  37.028  13.020
48463W        W 7724   8.273  23.600  12.859
48464W        W 7725  32.517  27.578  11.942
48465W        W 7726  17.161  31.439   2.801
48466W        W 7727  37.972  21.514  13.334
48467W        W 7728  16.072   9.834   1.390
48468W        W 7729  12.249  37.903   3.253
48469W        W 7730  31.973  24.660   2.835
48470W        W 7731   1.272  16.802   1.406
48471W        W 7732  40.906   8.379   4.690
48472W        W 7733  22.022  24.030  12.894
48473W        W 7734  11.774   5.300  14.861
48474W        W 7735  43.815  32.503   3.366
48475W        W 7736  24.186  39.955   0.762
48476W        W 7737  23.136   7.300  13.356
48477W        W 7738  24.521  19.212   2.810
48478W        W 7739  44.900  35.097   2.728
48479W        W 7740  12.856  25.217  14.936
48480W        W 7741   2.357  18.741  10.990
48481W        W 7742  36.907  25.537   3.361
48482W        W 7743  20.265   9.692   1.365
48483W        W 7744  32.110  25.035   4.207
48484W        W 7745  42.792   2.403  14.455
48485W        W 7746  20.753   4.793  11.483
48486W        W 7747   4.434  36.038  14.460
48487W        W 7748  21.083  35.414  12.919
48488W        W 7749  24.099  29.163  11.607
48489W        W 7750  37.380  32.974  12.472
48490W        W 7751  19.757  21.111  13.407
48491W        W 7752  24.123  42.777  12.449
48492W        W 7753  22.504  16.171   3.288
48493W        W 7754  31.408  38.066   3.649
48494W        W 7755  31.543  18.100   0.785
48495W        W 7756  22.637  21.635   1.358
48496W        W 7757  20.240  20.161   0.891
48497W        W 7758  17.690   3.778   0.871
48498W        W 7759  25.514  17.773   1.329
48499W        W 7760   4.727  29.546  10.042
48500W        W 7761  42.504  20.164  11.053
48501W        W 7762  37.515   5.323   2.414
48502W        W 7763  37.402  12.247  11.374
48503W        W 7764  36.866  37.977  11.582
48504W        W 7765  21.585  39.427  10.591
48505W        W 7766  19.047  29.587  11.386
48506W        W 7767  15.650  36.541  14.981
48507W        W 7768   3.931  20.246  14.461
48508W        W 7769  10.783   0.776   3.324
48509W        W 7770   9.379  37.911   0.808
48510W        W 7771  24.710  26.475   1.360
48511W        W 7772  14.318  30.132   1.702
48512W        W 7773  15.619  12.613   3.806
48513W        W 7774  38.366  28.463  12.850
48514W        W 7775   6.726  19.698   2.856
48515W        W 7776  24.652  30.078   9.548
48516W        W 7777  32.140  39.940  14.879
48517W        W 7778  24.700  23.097  11.476
48518W        W 7779  36.851  30.123   0.887
48519W        W 7780  40.512   5.281   3.150
48520W        W 7781   7.828  21.755  11.054
48521W        W 7782   2.743  13.770  11.460
48522W        W 7783  33.446   5.290  14.932
48523W        W 7784  31.559  14.289  14.815
48524W        W 7785   0.399  26.498  13.542
48525W        W 7786  25.546   5.895   0.875
48526W        W 7787  44.852   4.211  11.529
48527W        W 7788  37.461  17.694   2.381
48528W        W 7789  32.467  21.137   4.737
48529W        W 7790  40.908  36.483   2.709
48530W        W 7791  42.423  42.962   5.132
48531W        W 7792   0.343   6.707   4.308
48532W        W 7793  37.484  31.011   2.314
48533W        W 7794  19.711  21.593   4.836
48534W        W 7795  37.411  44.812  11.492
48535W        W 7796  30.570  21.172   1.708
48536W        W 7797   1.306  27.516  11.044
48537W        W 7798   1.920  11.857   2.762
48538W        W 7799   5.429   5.845   2.278
48539W        W 7800  33.879  42.917  11.876
48540W        W 7801  27.957  17.749   2.284
48541W        W 7802  41.021  18.257   9.966
48542W        W 7803   5.351  40.845   4.210
48543W        W 7804  25.482  17.169  10.066
48544W        W 7805  11.164  40.504  12.556
48545W        W 7806  24.974   7.792  12.568
48546W        W 7807  43.489  42.419   3.308
48547W        W 7808  10.141  43.480   1.414
48548W        W 7809  37.474  17.724  13.432
48549W        W 7810  10.780  36.434  10.915
48550W        W 7811  20.649   4.840   2.392
48551W        W 7812   9.766  19.072  11.026
48552W        W 7813  28.526  14.310  12.527
48553W        W 7814  41.892  33.568  14.891
48554W        W 7815  35.959  10.664   3.297
48555W        W 7816   8.359  38.522   2.677
48556W        W 7817  28.124   8.165   4.778
48557W        W 7818  42.389  13.680   4.600
48558W        W 7819  10.235   0.784  11.430
48559W        W 7820   2.884  44.276  12.392
48560W        W 7821   7.347  39.488  14.293
48561W        W 7822   4.726  17.785  13.861
48562W        W 7823  18.636  20.691   2.263
48563W        W 7824   9.707  36.935   3.309
48564W        W 7825  20.071  42.930   2.296
48565W        W 7826  11.289  17.704   2.323
48566W        W 7827  29.969  26.093   0.901
48567W        W 7828  12.652  32.084  14.363
48568W        W 7829  10.738  33.978  13.957
48569W        W 7830   3.349  42.506  13.891
48570W        W 7831  14.276   1.946  10.630
48571W        W 7832  35.382  35.971  14.471
48572W        W 7833  35.064   0.336   3.356
48573W        W 7834  40.950  16.692   0.475
48574W        W 7835  23.989  39.365  12.466
48575W        W 7836  35.981  35.895  14.390
48576W        W 7837  24.620   8.745   0.371
48577W        W 7838  25.043  35.487  14.898
48578W        W 7839  23.230  18.156   2.728
48579W        W 7840  24.989  22.193  12.053
48580W        W 7841  27.683  34.383  11.077
48581W        W 7842   4.791  20.611   2.331
48582W        W 7843   3.320  33.969   2.785
48583W        W 7844   3.412  17.160  10.916
48584W        W 7845  22.147  30.123   2.286
48585W        W 7846  38.016  40.475  11.411
48586W        W 7847  17.220   4.367  13.012
48587W        W 7848  35.964  30.054  14.408
48588W        W 7849  35.959  14.769   2.666
48589W        W 7850   0.985  36.365   0.814
48590W        W 7851   9.726  38.862  11.444
48591W        W 7852  29.592  36.845   2.792
48592W        W 7853  30.027  42.319   4.720
48593W        W 7854  14.237   6.919  12.488
48594W        W 7855  16.807  20.692  14.769
48595W        W 7856  29.997  23.604   3.307
48596W        W 7857  26.013  34.527  14.883
48597W        W 7858  20.151   2.393   5.088
48598W        W 7859  10.649  11.698   1.695
48599W        W 7860  38.453  19.564   3.738
48600W        W 7861  23.990  18.578  12.014
48601W        W 7862   3.252  25.151  11.967
48602W        W 7863   5.709  15.090  13.943
48603W        W 7864  18.242  20.120   4.783
48604W        W 7865  32.000   9.223   5.134
48605W        W 7866  41.991  32.887   3.769
48606W        W 7867   5.218  29.120  13.907
48607W        W 7868  33.592  35.419  14.432
48608W        W 7869  30.600  20.611  11.857
48609W        W 7870  40.380  18.687  13.843
48610W        W 7871   8.270  29.585  14.393
48611W        W 7872  17.579  24.016  13.528
48612W        W 7873  34.082  12.120  12.479
48613W        W 7874  25.495  10.346  12.424
48614W        W 7875  41.339   5.883  12.503
48615W        W 7876  40.964  14.102   0.372
48616W        W 7877  10.242  26.661  13.509
48617W        W 7878  26.515  38.544   4.156
48618W        W 7879  30.138  17.770   4.729
48619W        W 7880  32.126  21.671   0.964
48620W        W 7881   3.287   2.352   0.311
48621W        W 7882   9.833  38.346   1.795
48622W        W 7883  12.152  33.089   0.941
48623W        W 7884  41.960  18.757   4.794
48624W        W 7885  27.130  25.007  13.061
48625W        W 7886  18.131  41.326   0.824
48626W        W 7887  30.954   6.244  12.406
48627W        W 7888  17.714  15.669   2.412
48628W        W 7889   5.437   8.173  13.482
48629W        W 7890  32.964  19.176  10.591
48630W        W 7891  31.477  35.867  13.020
48631W        W 7892  43.851   2.934   3.184
48632W        W 7893  36.891  43.807   1.798
48633W        W 7894  24.219  29.964  10.518
48634W        W 7895   1.299   8.727  12.823
48635W        W 7896  31.028  28.496  12.373
48636W        W 7897  42.926  19.578  12.015
48637W        W 7898  39.870  36.027   9.672
48638W        W 7899  14.718  34.082  12.479
48639W        W 7900  25.082   1.925   0.390
48640W        W 7901  34.548   8.801  13.863
48641W        W 7902   8.350  10.168  14.457
48642W        W 7903   1.897   1.827   2.689
48643W        W 7904  44.469  24.625  12.355
48644W        W 7905  11.352  16.170  14.425
48645W        W 7906  12.619  29.645   2.857
48646W        W 7907  30.004  42.506   1.697
48647W        W 7908  41.335  22.177   3.354
48648W        W 7909  33.429  27.102   1.781
48649W        W 7910  32.097  24.208   4.772
48650W        W 7911   5.933  44.951   3.867
48651W        W 7912  21.684  12.748  13.047
48652W        W 7913  37.952  17.560   4.689
48653W        W 7914  12.669  40.459  12.949
48654W        W 7915  18.250  44.831   3.169
48655W        W 7916   7.389  29.061   3.383
48656W        W 7917   0.857  29.157  12.840
48657W        W 7918   2.817  29.650  12.490
48658W        W 7919  28.959   9.683   0.337
48659W        W 7920  17.145   7.714   0.276
48660W        W 7921  40.547  25.060   2.411
48661W        W 7922  27.114   0.330  12.450
48662W        W 7923  35.441   9.268   5.259
48663W        W 7924  16.251  42.492  14.919
48664W        W 7925   8.308   0.890  11.386
48665W        W 7926  37.908   1.878   2.675
48666W        W 7927  31.901  21.596  11.080
48667W        W 7928  10.726  20.156  11.588
48668W        W 7929  38.945   2.404   2.327
48669W        W 7930   4.333  10.786   2.881
48670W        W 7931  36.429   0.832   3.654
48671W        W 7932  40.839  38.348   0.286
48672W        W 7933  17.252  27.649   3.222
48673W        W 7934  32.068  12.172   3.386
48674W        W 7935   6.747  39.398   3.172
48675W        W 7936  22.604  28.558   1.742
48676W        W 7937  10.746   9.645  14.457
48677W        W 7938  38.513  18.276   2.390
48678W        W 7939  10.837  18.264  10.514
48679W        W 7940  18.546   4.447  10.479
48680W        W 7941   0.919   1.815   0.329
48681W        W 7942  14.602  38.352   2.732
48682W        W 7943  41.970  34.499   1.443
48683W        W 7944  13.345  40.933   1.825
48684W        W 7945  19.643  42.914   1.848
48685W        W 7946  19.664  39.539  13.948
48686W        W 7947  13.179  17.695   3.814
48687W        W 7948   2.931  14.656   2.323
48688W        W 7949   0.451  44.377  14.774
48689W        W 7950   4.890  43.007   2.369
48690W        W 7951   6.285  32.924  11.012
48691W        W 7952  10.384  19.218  14.970
48692W        W 7953  15.154   3.909   1.695
48693W        W 7954  20.096   4.866   4.739
48694W        W 7955   6.264  35.992   1.215
48695W        W 7956  29.646  24.044  13.487
48696W        W 7957  37.472   2.334   2.229
48697W        W 7958  39.842  31.642  11.605
48698W        W 7959  14.707  20.707  10.554
48699W        W 7960  43.385  16.100  12.449
48700W        W 7961  30.518  36.383  11.973
48701W        W 7962   4.321  29.508   3.167
48702W        W 7963  20.625  11.303   1.791
48703W        W 7964  23.213   2.853  12.867
48704W        W 7965  20.727   6.851   4.793
48705W        W 7966  15.708  29.429  13.308
48706W        W 7967  29.992  11.826  12.940
48707W        W 7968  42.856  17.660  13.024
48708W        W 7969  31.092  40.500   3.695
48709W        W 7970  36.884  20.224   4.334
48710W        W 7971  20.153   6.313   2.282
48711W        W 7972   8.392  26.599  11.398
48712W        W 7973  37.936  28.046  10.441
48713W        W 7974  12.810  18.756   3.639
48714W        W 7975  10.233  18.236   0.255
48715W        W 7976  34.866  38.889  14.300
48716W        W 7977  14.642  32.598   3.813
48717W        W 7978   7.839  28.049   2.298
48718W        W 7979  37.531  37.390   1.222
48719W        W 7980  26.499  28.513   4.630
48720W        W 7981  26.470  19.634   3.303
48721W        W 7982  21.211   4.416  10.464
48722W        W 7983  43.395  20.761  13.977
48723W        W 7984   3.412  31.532   3.279
48724W        W 7985  36.495  38.980  13.857
48725W        W 7986  34.499  12.332   2.241
48726W        W 7987  32.069  16.251   2.416
48727W        W 7988  25.032   1.272  13.841
48728W        W 7989   4.371  31.556   4.795
48729W        W 7990  43.783  40.313   4.733
48730W        W 7991  30.510  26.520   1.717
48731W        W 7992   2.287   5.726   0.737
48732W        W 7993  27.528   2.413  14.978
48733W        W 7994  20.714  44.399  12.842
48734W        W 7995  28.593   0.745   5.128
48735W        W 7996  19.225   1.313   4.674
48736W        W 7997  14.224   0.937   2.695
48737W        W 7998   0.259  29.535  11.026
48738W        W 7999  34.419  12.118  13.983
48739W        W 8000  17.646  23.087  11.892
48740W        W 8001  17.802  11.847  13.889
48741W        W 8002  24.218   2.399  13.443
48742W        W 8003  21.657   6.279  12.005
48743W        W 8004  25.702  20.114  12.825
48744W        W 8005  27.646  15.284   4.272
48745W        W 8006  25.015  28.981   1.872
48746W        W 8007  43.347   9.879   1.392
48747W        W 8008  34.382  34.072   0.764
48748W        W 8009   0.748  17.297   3.260
48749W        W 8010   9.807  33.450   3.758
48750W        W 8011   9.306  24.097   0.731
48751W        W 8012  16.259   6.901  10.514
48752W        W 8013   6.387  11.655   3.287
48753W        W 8014   7.744  27.992   3.855
48754W        W 8015  22.521  29.528  11.385
48755W        W 8016  28.174  22.053  11.022
48756W        W 8017  40.523  18.599  14.284
48757W        W 8018   3.383   4.906  14.361
48758W        W 8019  10.173  42.493  10.964
48759W        W 8020   0.345   0.402  10.956
48760W        W 8021  31.898  25.172   3.359
48761W        W 8022   1.383  16.679   2.819
48762W        W 8023   3.265  42.905   1.917
48763W        W 8024  13.327  30.150  12.059
48764W        W 8025  36.395   8.369  12.940
48765W        W 8026  11.676  14.683   3.328
48766W        W 8027   6.363   6.841   0.253
48767W        W 8028  20.049  18.251  14.790
48768W        W 8029  22.173  10.183   3.379
48769W        W 8030  43.484  17.249   1.402
48770W        W 8031  18.573   7.258  11.059
48771W        W 8032   2.749  31.918  14.976
48772W        W 8033  21.672  38.019   2.349
48773W        W 8034  30.020  28.570  11.896
48774W        W 8035  23.122   9.290  13.007
48775W        W 8036   6.213  40.341   5.291
48776W        W 8037  16.803   3.927   5.565
48777W        W 8038  36.087  44.436   2.784
48778W        W 8039  19.168  15.663  14.469
48779W        W 8040  30.606  28.632  14.469
48780W        W 8041  43.401  19.741  13.336
48781W        W 8042   6.894  17.210   4.695
48782W        W 8043  21.542  36.435   4.335
48783W        W 8044   4.425  24.215   4.252
48784W        W 8045  23.074  41.964   0.930
48785W        W 8046  22.118  15.622   3.722
48786W        W 8047  21.107  18.710   9.929
48787W        W 8048  43.765   3.272   0.957
48788W        W 8049  24.979  16.193  11.451
48789W        W 8050  19.059  42.299   3.384
48790W        W 8051  28.176   8.238   2.197
48791W        W 8052  19.240  27.453  10.418
48792W        W 8053  41.403  13.153   5.136
48793W        W 8054  11.793   9.821  12.952
48794W        W 8055  36.976   2.295  12.394
48795W        W 8056  27.979  24.681   0.932
48796W        W 8057  43.450  18.064   5.311
48797W        W 8058  27.684   7.198  14.343
48798W        W 8059  39.526  10.200  10.135
48799W        W 8060  29.589  31.087  14.463
48800W        W 8061   3.290  18.627  12.045
48801W        W 8062  13.633  29.558   1.270
48802W        W 8063  17.668  22.518   0.295
48803W        W 8064  30.113  20.579  10.558
48804W        W 8065  44.409  28.559  13.800
48805W        W 8066   0.410  20.182  10.893
48806W        W 8067  35.390  38.925  12.390
48807W        W 8068   2.382  11.320   4.180
48808W        W 8069  11.263  12.205   0.309
48809W        W 8070  36.401  33.582   2.323
48810W        W 8071  15.289  25.972   1.268
48811W        W 8072  14.681   9.155  11.103
48812W        W 8073  15.584  36.425   3.322
48813W        W 8074  24.635   0.809   2.220
48814W        W 8075  11.804  28.529   0.355
48815W        W 8076   9.169  35.995   4.651
48816W        W 8077  14.114   6.760  10.031
48817W        W 8078  41.872  25.057   0.864
48818W        W 8079  30.970   8.184   3.359
48819W        W 8080   6.815   6.205   0.874
48820W        W 8081  14.250  43.018  14.804
48821W        W 8082  44.952   9.301   0.441
48822W        W 8083   2.449  32.414  14.399
48823W        W 8084  27.133  25.704  13.901
48824W        W 8085  26.998  39.833   1.418
48825W        W 8086  21.039  32.065  12.554
48826W        W 8087  13.677  24.717  14.359
48827W        W 8088  23.514  10.332   0.469
48828W        W 8089  12.737  32.634  14.303
48829W        W 8090  18.182  28.098   1.779
48830W        W 8091  24.224  12.763  14.419
48831W        W 8092  32.005  31.924   2.330
48832W        W 8093  44.985   4.414  12.984
48833W        W 8094   9.239  10.866   0.316
48834W        W 8095  38.395  17.235   4.170
48835W        W 8096  18.278   5.877   3.223
48836W        W 8097   8.325  36.075  10.421
48837W        W 8098  43.933   9.644   4.822
48838W        W 8099  29.926  21.513  14.463
48839W        W 8100   8.273   6.829  13.460
48840W        W 8101  30.025   4.843  14.304
48841W        W 8102  28.629  28.535   0.751
48842W        W 8103   9.770   9.307   2.208
48843W        W 8104  38.845  37.878   4.281
48844W        W 8105  28.551  30.974  13.968
48845W        W 8106  39.511   9.756  12.071
48846W        W 8107  42.353  26.630  12.025
48847W        W 8108  26.494  32.499  13.044
48848W        W 8109   7.675  13.750   0.326
48849W        W 8110  27.109  15.212  14.972
48850W        W 8111  41.945   7.783   3.640
48851W        W 8112  22.505  42.903   3.709
48852W        W 8113  17.606  33.983   3.739
48853W        W 8114  37.503  12.165   3.798
48854W        W 8115  41.905  32.064   3.223
48855W        W 8116  38.428  20.680   3.258
48856W        W 8117  18.253  25.160   0.253
48857W        W 8118  26.622  14.769   2.348
48858W        W 8119  14.110  20.740  14.499
48859W        W 8120  23.236  21.614  14.843
48860W        W 8121   9.304   6.308   5.230
48861W        W 8122  36.376   7.876   0.258
48862W        W 8123  21.144  33.987  13.835
48863W        W 8124  37.865   4.892  11.965
48864W        W 8125  15.581   9.759   0.271
48865W        W 8126  24.139  25.501   1.339
48866W        W 8127  19.675  40.819  11.472
48867W        W 8128  12.325  14.795   2.399
48868W        W 8129  35.538  32.952   4.673
48869W        W 8130  20.571  32.069   3.372
48870W        W 8131  37.867  26.093   4.773
48871W        W 8132   2.816   9.200   1.269
48872W        W 8133  32.913  30.043   4.130
48873W        W 8134   3.888   4.205  12.078
48874W        W 8135   0.415  12.298  14.277
48875W        W 8136  33.969  38.427  11.090
48876W        W 8137  40.810  32.965  14.379
48877W        W 8138  29.651  26.556   0.477
48878W        W 8139  26.481   0.889   2.302
48879W        W 8140  20.664  19.226   0.419
48880W        W 8141  22.595   4.910  13.806
48881W        W 8142  42.017  21.136   3.386
48882W        W 8143  19.547  34.404   0.445
48883W        W 8144  17.123  21.046  14.490
48884W        W 8145  38.543  30.605  14.830
48885W        W 8146  13.244  37.854   2.220
48886W        W 8147  38.043  13.341   0.816
48887W        W 8148  28.626  33.479  14.408
48888W        W 8149  38.447  35.081   1.442
48889W        W 8150  15.289   1.762   1.418
48890W        W 8151   5.922  19.067   1.715
48891W        W 8152   5.721   7.716  11.024
48892W        W 8153   9.791  23.213   3.179
48893W        W 8154  22.234   2.740  14.976
48894W        W 8155   1.909  28.986  14.806
48895W        W 8156  23.153  40.027  11.450
48896W        W 8157  22.570  42.350   3.173
48897W        W 8158  20.682  14.774  12.855
48898W        W 8159   7.767  19.068   2.354
48899W        W 8160  38.571  37.546  12.081
48900W        W 8161  19.771  15.276   3.696
48901W        W 8162   2.330  42.955   4.205
48902W        W 8163  20.216  27.174   3.674
48903W        W 8164  13.351  34.573  13.306
48904W        W 8165  41.491   9.686  11.496
48905W        W 8166  17.645  40.973  14.445
48906W        W 8167  39.466  15.745  12.370
48907W        W 8168  44.372  16.073  14.498
48908W        W 8169   1.316  15.599  14.463
48909W        W 8170  31.474   0.264   0.833
48910W        W 8171  37.001  17.752   3.183
48911W        W 8172  37.076  15.182   1.445
48912W        W 8173  17.163   6.279  12.041
48913W        W 8174  15.586  44.432  14.948
48914W        W 8175  27.995   7.907   2.693
48915W        W 8176  10.828  12.211  12.851
48916W        W 8177   0.280  24.111  12.022
48917W        W 8178   1.809  22.172   2.364
48918W        W 8179  37.911  23.131   1.267
48919W        W 8180  20.172  35.969   1.762
48920W        W 8181   5.793   9.808  10.501
48921W        W 8182  18.151  21.596   2.292
48922W        W 8183  12.751   7.686  10.094
48923W        W 8184  12.814  26.189  14.822
48924W        W 8185  32.885  12.763  12.461
48925W        W 8186  11.335  42.018   4.207
48926W        W 8187  34.414  11.700   2.830
48927W        W 8188  27.127  33.884   2.250
48928W        W 8189  40.021  22.596  12.361
48929W        W 8190   2.815  28.561  11.428
48930W        W 8191  42.896  31.587   2.777
48931W        W 8192  39.904   1.861  14.016
48932W        W 8193   0.318  25.102   3.232
48933W        W 8194   2.379  10.793   4.751
48934W        W 8195  17.197   3.346  11.384
48935W        W 8196  35.455  12.163  14.012
48936W        W 8197   9.681  30.098   0.785
48937W        W 8198  35.866  21.585  10.423
48938W        W 8199  16.184   3.807   0.299
48939W        W 8200  24.721  25.560   0.299
48940W        W 8201  25.667  12.307  14.308
48941W        W 8202  21.210  38.942   2.872
48942W        W 8203  30.994  41.845  11.010
48943W        W 8204  25.658  35.014   3.693
48944W        W 8205  15.219  11.211  13.861
48945W        W 8206  12.765   4.398   2.340
48946W        W 8207   6.216  31.049  14.763
48947W        W 8208  21.115   3.320  14.015
48948W        W 8209  44.412  33.899  14.005
48949W        W 8210  30.608   1.379   0.874
48950W        W 8211  26.148  14.647   0.310
48951W        W 8212  17.296   6.891   2.326
48952W        W 8213  32.542   4.865   3.772
48953W        W 8214  13.630  29.128  12.853
48954W        W 8215   5.906   8.349  11.914
48955W        W 8216  28.549  32.500  14.933
48956W        W 8217  21.176  30.161   3.658
48957W        W 8218  32.003  15.274   1.341
48958W        W 8219  43.839   9.159   0.468
48959W        W 8220  32.563  35.441  11.457
48960W        W 8221  18.637   9.860  10.887
48961W        W 8222   7.305  40.006   2.863
48962W        W 8223  32.460  44.367   2.244
48963W        W 8224  19.727  41.017   1.805
48964W        W 8225  42.344  30.509   0.877
48965W        W 8226   6.892   7.266   3.712
48966W        W 8227  39.007  34.102  12.964
48967W        W 8228   6.395  19.088   4.704
48968W        W 8229  34.569   5.692   2.681
48969W        W 8230  41.039  32.544   3.378
48970W        W 8231  37.888  36.444  13.026
48971W        W 8232  30.613   1.804   1.873
48972W        W 8233  33.961  35.375  10.471
48973W        W 8234   1.858  23.145   3.858
48974W        W 8235  42.000   5.849   2.828
48975W        W 8236  21.261   3.230  13.504
48976W        W 8237  11.192  21.173  11.914
48977W        W 8238  34.549  32.046   0.327
48978W        W 8239   5.317   1.380  12.483
48979W        W 8240   0.330  15.647  13.446
48980W        W 8241  22.167  33.925  14.990
48981W        W 8242  15.675   0.253  12.053
48982W        W 8243  42.384  42.821   0.940
48983W        W 8244  32.555  15.785   3.269
48984W        W 8245  44.944  35.503  13.383
48985W        W 8246  44.770   9.235  12.371
48986W        W 8247  29.433   0.357   1.930
48987W        W 8248   4.336  21.158  13.824
48988W        W 8249  34.903   0.270   4.626
48989W        W 8250  24.558   8.181  12.561
48990W        W 8251   4.395  10.323  11.017
48991W        W 8252  40.005  42.337  11.481
48992W        W 8253  41.947  40.006  11.954
48993W        W 8254  29.004   7.297   0.377
48994W        W 8255  15.716  40.435  13.031
48995W        W 8256   2.893   4.331   2.246
48996W        W 8257  18.065  20.599  11.521
48997W        W 8258  22.087  17.638  11.591
48998W        W 8259  24.000  13.844  11.966
48999W        W 8260  15.797   4.776   2.672
49000W        W 8261  42.357  36.867   3.195
49001W        W 8262   3.740  44.888  11.506
49002W        W 8263  10.317  26.520  11.424
49003W        W 8264  17.669  33.498  13.933
49004W        W 8265  28.111   6.831  12.460
49005W        W 8266  29.146  42.520  14.453
49006W        W 8267  35.875  41.368   4.249
49007W        W 8268  30.120  40.452  10.911
49008W        W 8269  42.282  29.172   1.769
49009W        W 8270  13.214   5.698   0.908
49010W        W 8271  22.503  44.381  14.813
49011W        W 8272  10.666  21.521  14.414
49012W        W 8273  37.515  23.987  11.568
49013W        W 8274  39.436  15.597   2.229
49014W        W 8275  31.051  24.675  14.494
49015W        W 8276  27.592  42.453  10.958
49016W        W 8277  16.258  12.632  13.454
49017W        W 8278  20.637  20.106  10.510
49018W        W 8279   8.365  35.387  11.441
49019W        W 8280  33.008  25.553   3.808
49020W        W 8281  41.341  31.020   1.390
49021W        W 8282  22.115   8.184  12.574
49022W        W 8283   8.862  41.863   4.349
49023W        W 8284  35.575  44.829   0.816
49024W        W 8285  33.537  13.167  14.762
49025W        W 8286  28.593  37.924  10.988
49026W        W 8287  43.484  29.119   5.301
49027W        W 8288  21.531  21.738  11.910
49028W        W 8289  27.531   6.386   2.340
49029W        W 8290  28.983  17.192  14.880
49030W        W 8291  43.818  16.260  11.912
49031W        W 8292  32.413  44.276   0.915
49032W        W 8293   4.853  44.436   4.283
49033W        W 8294  22.169  38.409   0.933
49034W        W 8295  21.722   2.466  13.476
49035W        W 8296  34.033  41.517   3.835
49036W        W 8297  15.769   2.798   2.244
49037W        W 8298  14.278  43.502   3.288
49038W        W 8299  10.363   9.773   3.335
49039W        W 8300   1.269  19.119   0.382
49040W        W 8301  16.689  10.667  11.084
49041W        W 8302   2.935   3.390   0.745
49042W        W 8303  30.974  14.321   4.282
49043W        W 8304  23.233  29.557  10.943
49044W        W 8305  35.990   5.355  11.903
49045W        W 8306  43.277  35.984  12.413
49046W        W 8307   0.904  28.026   5.219
49047W        W 8308  39.471  31.628   1.918
49048W        W 8309  14.180  38.556   1.850
49049W        W 8310  26.163  18.679   1.904
49050W        W 8311  33.581  38.562   0.809
49051W        W 8312   0.759  10.873  10.521
49052W        W 8313  11.327  31.412   1.783
49053W        W 8314   2.798   5.885   4.618
49054W        W 8315  26.684  39.063  12.921
49055W        W 8316  44.945   4.757   0.735
49056W        W 8317  29.460  38.894  12.080
49057W        W 8318  23.091   1.778  12.044
49058W        W 8319  32.545  19.099   2.213
49059W        W 8320  27.024   0.430  13.936
49060W        W 8321   6.845   8.368   1.301
49061W        W 8322  29.531  25.006  11.870
49062W        W 8323  16.588  29.010  14.425
49063W        W 8324   6.343  13.739   0.757
49064W        W 8325   7.803  27.981   2.816
49065W        W 8326   7.714  44.823  12.018
49066W        W 8327  35.367   8.879  11.126
49067W        W 8328   9.827  37.500   4.167
49068W        W 8329  16.247  31.048  10.586
49069W        W 8330  29.933   4.730   0.373
49070W        W 8331  34.981  41.446  10.607
49071W        W 8332   3.270  34.009   2.384
49072W        W 8333   9.741  14.267  13.946
49073W        W 8334  15.586  15.124  13.534
49074W        W 8335  24.211  37.983  13.839
49075W        W 8336   4.771  22.038  10.552
49076W        W 8337  37.856  19.190  10.906
49077W        W 8338  13.162  33.552  10.026
49078W        W 8339   1.247  41.307   0.263
49079W        W 8340   5.324  20.614   4.196
49080W        W 8341  15.798   7.714   3.323
49081W        W 8342  39.397  39.053  13.523
49082W        W 8343  40.390   6.863  13.845
49083W        W 8344  27.106  29.941  14.362
49084W        W 8345  19.133  10.175   1.222
49085W        W 8346   3.846  24.228   3.797
49086W        W 8347   8.860  20.673   2.780
49087W        W 8348  33.531  35.500   5.168
49088W        W 8349  29.519   1.840  14.507
49089W        W 8350  44.450  43.427   0.433
49090W        W 8351  25.569  22.611  10.429
49091W        W 8352   1.467  35.985   1.732
49092W        W 8353  37.579   2.756  14.445
49093W        W 8354  21.087  34.531   1.451
49094W        W 8355  17.115  25.215   4.677
49095W        W 8356  14.601  36.017   1.353
49096W        W 8357   7.276  32.940   4.194
49097W        W 8358  29.547  39.822   3.374
49098W        W 8359   8.403  14.171  12.905
49099W        W 8360  10.252  31.018  13.912
49100W        W 8361  14.160  42.301   0.877
49101W        W 8362   1.367  11.184  12.060
49102W        W 8363  38.875   9.322  10.533
49103W        W 8364  30.523  40.501   1.911
49104W        W 8365  20.582  27.585   4.246
49105W        W 8366   6.345  19.208   4.274
49106W        W 8367   7.827  40.956   2.216
49107W        W 8368  29.517  32.624   4.141
49108W        W 8369  40.806  25.154   2.265
49109W        W 8370  13.754  15.113  13.442
49110W        W 8371  41.002   7.772  10.892
49111W        W 8372  10.143  44.790  13.328
49112W        W 8373  15.660  13.254   2.722
49113W        W 8374  18.789   9.823  12.994
49114W        W 8375  22.715  43.365  12.396
49115W        W 8376  14.649  27.046   3.246
49116W        W 8377  31.965   6.241  14.407
49117W        W 8378  26.141  25.643   0.247
49118W        W 8379  39.818   7.213  14.966
49119W        W 8380  20.192   2.353  14.032
49120W        W 8381  14.704  24.575   2.678
49121W        W 8382  40.475  41.907   0.252
49122W        W 8383   5.278  24.107  13.480
49123W        W 8384  34.865  36.976   3.156
49124W        W 8385  22.582  25.581  12.945
49125W        W 8386  37.368   9.206   3.164
49126W        W 8387  15.605  26.665  10.119
49127W        W 8388   9.271  10.374  14.765
49128W        W 8389  10.189   8.757  14.889
49129W        W 8390  10.164  37.438  14.878
49130W        W 8391  32.012  14.718  11.493
49131W        W 8392  36.565   2.863  12.365
49132W        W 8393  18.263   1.409  13.022
49133W        W 8394  34.937   3.837   2.403
49134W        W 8395   9.259  31.032  12.077
49135W        W 8396  42.798  14.679   3.745
49136W        W 8397   5.198  13.302  11.478
49137W        W 8398  33.941  35.509   4.200
49138W        W 8399  11.145  11.265  12.580
49139W        W 8400  41.996  36.579   1.322
49140W        W 8401  30.164  20.161  12.576
49141W        W 8402  33.428  12.746  11.982
49142W        W 8403   3.748   0.947   0.369
49143W        W 8404  22.711  39.421  12.903
49144W        W 8405  20.716  16.646  13.804
49145W        W 8406  37.877  17.680   2.868
49146W        W 8407  14.713  12.290  10.893
49147W        W 8408  29.637   3.415   1.410
49148W        W 8409   5.330  38.431   4.727
49149W        W 8410  18.274  21.635   3.730
49150W        W 8411  17.181  26.134  14.515
49151W        W 8412  10.290  24.051  13.960
49152W        W 8413  18.682   0.480  10.459
49153W        W 8414  16.795  33.933  13.516
49154W        W 8415  10.267  44.963   4.717
49155W        W 8416  27.468   6.292   2.851
49156W        W 8417  42.370  25.027  13.831
49157W        W 8418  21.253  18.172   2.829
49158W        W 8419  42.322  29.654  11.019
49159W        W 8420  31.122  12.758   1.894
49160W        W 8421   4.352  43.010  14.866
49161W        W 8422   8.286  32.526  14.004
49162W        W 8423  29.549  36.401   2.364
49163W        W 8424  42.436   6.776   0.805
49164W        W 8425  10.326  17.579  14.795
49165W        W 8426  32.996  12.683  12.054
49166W        W 8427  27.143  36.072   1.263
49167W        W 8428  22.736  30.106  12.506
49168W        W 8429  24.019  18.662   5.215
49169W        W 8430   9.752   4.362  12.854
49170W        W 8431  25.582  25.083  12.912
49171W        W 8432  26.027  33.505   9.671
49172W        W 8433   4.807  22.156   0.831
49173W        W 8434  22.655   5.323  11.510
49174W        W 8435  26.026  37.570   1.244
49175W        W 8436  38.939   5.850  12.364
49176W        W 8437  33.916  13.156  14.944
49177W        W 8438   4.267  18.208   4.763
49178W        W 8439  18.171  36.927  14.497
49179W        W 8440  37.528  20.199   0.891
49180W        W 8441  43.448   9.225  14.789
49181W        W 8442  39.044   8.750  11.090
49182W        W 8443  26.093  29.510  14.287
49183W        W 8444  29.089  31.004  12.016
49184W        W 8445  32.564  26.529   2.762
49185W        W 8446   5.213  18.252   5.166
49186W        W 8447  19.582  36.882   4.632
49187W        W 8448   3.862  25.495   2.839
49188W        W 8449  43.944  14.726  14.455
49189W        W 8450   8.185   1.768   0.767
49190W        W 8451  26.620  11.797  14.482
49191W        W 8452  22.571  15.234   1.717
49192W        W 8453  41.880  13.653  10.898
49193W        W 8454  18.076  15.236   1.269
49194W        W 8455  21.222  16.768  14.771
49195W        W 8456   3.288  29.436   2.282
49196W        W 8457   8.873   5.288   1.288
49197W        W 8458  38.027  35.517  10.476
49198W        W 8459  16.197  23.670  13.512
49199W        W 8460  38.904  33.520   0.328
49200W        W 8461   7.822  14.779   2.662
49201W        W 8462  25.134  12.690  10.971
49202W        W 8463  32.036  32.933  12.526
49203W        W 8464  15.104  24.715  14.004
49204W        W 8465  20.193  36.935   0.774
49205W        W 8466  23.597  39.478  11.948
49206W        W 8467  36.572   5.842  10.423
49207W        W 8468  23.600  31.598   2.184
49208W        W 8469  44.992  34.049  14.882
49209W        W 8470  39.526  38.494  14.316
49210W        W 8471   3.947  24.721   0.940
49211W        W 8472  30.042  24.106  10.950
49212W        W 8473  21.087  11.857   4.139
49213W        W 8474  41.988  16.680  13.903
49214W        W 8475  37.479  12.676   4.321
49215W        W 8476  37.088  30.513  14.499
49216W        W 8477   7.313  22.140  13.983
49217W        W 8478   9.685  25.505   3.754
49218W        W 8479  36.368  24.173   3.175
49219W        W 8480  37.949  23.215   4.768
49220W        W 8481   3.750  20.640  11.902
49221W        W 8482   1.868  44.349   2.309
49222W        W 8483  14.154   7.716  13.950
49223W        W 8484  14.148  27.035  12.569
49224W        W 8485  44.263  33.980  10.511
49225W        W 8486   5.700  23.090   2.785
49226W        W 8487  42.777  10.334   1.362
49227W        W 8488  32.584  16.783   1.900
49228W        W 8489  33.600  21.640  11.113
49229W        W 8490  20.673  36.517   0.950
49230W        W 8491  43.860  21.154  11.490
49231W        W 8492  14.105   9.645  14.839
49232W        W 8493  20.034   8.246  14.959
49233W        W 8494  17.158  35.993  11.010
49234W        W 8495  43.769  36.376   0.966
49235W        W 8496  18.061  14.783  14.460
49236W        W 8497  12.691   8.795  13.900
49237W        W 8498  10.357   6.295   3.634
49238W        W 8499  12.187   3.878  14.853
49239W        W 8500  32.609  12.312  11.922
49240W        W 8501  34.498  21.638  14.400
49241W        W 8502  22.011   9.288   2.190
49242W        W 8503  40.940  32.118  13.964
49243W        W 8504   2.332  34.071   1.882
49244W        W 8505  30.030   9.316   2.270
49245W        W 8506  33.015   5.827  14.437
49246W        W 8507  44.893  40.459   3.351
49247W        W 8508  24.197  17.598  13.793
49248W        W 8509  32.626  19.067   3.768
49249W        W 8510  22.035  20.651  10.595
49250W        W 8511  36.560  37.901   4.198
49251W        W 8512  24.485   9.711   0.310
49252W        W 8513  39.425  13.136  11.071
49253W        W 8514  21.019  35.957  13.391
49254W        W 8515  34.518  32.029   3.635
49255W        W 8516  23.236   1.240   2.210
49256W        W 8517  23.172  34.595   2.762
49257W        W 8518  14.749  31.071   4.644
49258W        W 8519  23.171   6.762   0.434
49259W        W 8520  25.502  17.751   2.196
49260W        W 8521   9.798  44.430  14.009
49261W        W 8522  15.696  19.234  12.388
49262W        W 8523  32.424  23.049  12.463
49263W        W 8524   7.183  37.949  13.865
49264W        W 8525   7.348  25.002  11.579
49265W        W 8526  21.255  10.244   4.678
49266W        W 8527  30.924  40.905   0.852
49267W        W 8528  42.282  21.082  13.468
49268W        W 8529   0.382  24.512   3.829
49269W        W 8530  11.660  39.852  10.916
49270W        W 8531  40.984  43.773  10.484
49271W        W 8532  32.013   2.939   3.647
49272W        W 8533   7.894  19.725   2.299
49273W        W 8534   5.316  17.239   2.311
49274W        W 8535  38.028  44.350  10.059
49275W        W 8536   8.318   3.864   2.896
49276W        W 8537  13.337  27.055  11.911
49277W        W 8538  33.401  28.091  11.903
49278W        W 8539   0.801  44.359   0.470
49279W        W 8540  36.092  40.924   3.378
49280W        W 8541  31.982  18.205  12.537
49281W        W 8542  22.647   8.700   0.832
49282W        W 8543  32.081  29.113  12.074
49283W        W 8544  15.274  14.659   4.741
49284W        W 8545  23.048  40.909   4.293
49285W        W 8546  11.259  37.423   4.234
49286W        W 8547  25.517  35.075  11.611
49287W        W 8548  10.218   6.265   3.345
49288W        W 8549   1.300  21.621   0.459
49289W        W 8550  38.425   9.303  12.029
49290W        W 8551  35.410  31.464   3.241
49291W        W 8552  37.068   4.351   1.824
49292W        W 8553  40.518  27.979  14.998
49293W        W 8554  37.878   2.724  12.077
49294W        W 8555  39.436  37.371   1.746
49295W        W 8556   8.695  44.275   4.745
49296W        W 8557   9.163   4.790  10.620
49297W        W 8558  20.704  15.712   4.135
49298W        W 8559  39.407  20.742  14.325
49299W        W 8560   5.764  32.397  13.943
49300W        W 8561  19.616  35.905  13.368
49301W        W 8562  14.743  29.996   0.339
49302W        W 8563  20.140  38.967  12.482
49303W        W 8564  34.017  34.088  12.881
49304W        W 8565   3.799  26.663  11.394
49305W        W 8566  13.609  25.194  10.098
49306W        W 8567  19.247  35.964  13.484
49307W        W 8568   5.814  25.623   2.825
49308W        W 8569  23.565  36.036   2.282
49309W        W 8570   2.242  11.211  13.891
49310W        W 8571  16.578  41.483   2.344
49311W        W 8572  10.272  33.557  14.514
49312W        W 8573  21.692   9.762  11.927
49313W        W 8574   5.384  39.034   4.774
49314W        W 8575   7.810   9.733   2.766
49315W        W 8576   3.288  15.299  14.852
49316W        W 8577  27.542  26.687  14.465
49317W        W 8578   0.780  23.149  14.349
49318W        W 8579  17.164  42.888   5.171
49319W        W 8580  26.516  40.945   2.854
49320W        W 8581  16.798  28.582   3.211
49321W        W 8582  29.992  38.857   0.840
49322W        W 8583  41.526  35.911  11.939
49323W        W 8584   9.707   5.364  12.554
49324W        W 8585  15.670  30.072   4.791
49325W        W 8586  40.025  42.330   1.288
49326W        W 8587  18.637   4.920  13.367
49327W        W 8588   3.894  22.655  12.426
49328W        W 8589  16.207  31.027  14.764
49329W        W 8590   4.699  23.630   5.164
49330W        W 8591  43.470   1.931   0.387
49331W        W 8592   3.253  18.676   3.337
49332W        W 8593  10.198  28.528  11.400
49333W        W 8594  30.486  35.395   4.173
49334W        W 8595  10.172  20.618  13.518
49335W        W 8596   0.944  24.013   3.339
49336W        W 8597  24.582   4.840  14.442
49337W        W 8598  40.351  11.652   3.806
49338W        W 8599   4.891   9.819   0.327
49339W        W 8600  16.796   1.756   3.849
49340W        W 8601  15.104  40.328  14.299
49341W        W 8602  30.120  33.942  12.341
49342W        W 8603  38.471  33.069   0.735
49343W        W 8604  26.604  13.728  10.531
49344W        W 8605   6.773  26.461  11.474
49345W        W 8606  25.089   4.338  13.822
49346W        W 8607  12.215  28.981  12.069
49347W        W 8608   9.779   8.776   3.644
49348W        W 8609   3.830  32.541   1.706
49349W        W 8610  13.135  25.487   1.294
49350W        W 8611   7.301   5.744   0.768
49351W        W 8612  34.430  18.619  14.302
49352W        W 8613  36.011  24.527  13.405
49353W        W 8614  18.184  28.039  12.425
49354W        W 8615   8.232  38.384  11.559
49355W        W 8616  12.704   7.383  12.429
49356W        W 8617  27.612  14.225   3.163
49357W        W 8618  22.152  12.735  12.566
49358W        W 8619  34.384   8.689  12.983
49359W        W 8620  37.364  36.984  14.492
49360W        W 8621  28.621  16.175  11.008
49361W        W 8622  42.431   0.950  10.995
49362W        W 8623   9.793  25.042  11.993
49363W        W 8624  32.020  23.693  11.883
49364W        W 8625   5.827  21.105   2.237
49365W        W 8626   0.947  39.422  12.382
49366W        W 8627  40.021  34.506   4.804
49367W        W 8628  35.534  22.617   4.151
49368W        W 8629   2.243  36.548  11.405
49369W        W 8630  10.852  10.697  12.070
49370W        W 8631  25.969   5.859  10.035
49371W        W 8632  14.605  33.445   2.704
49372W        W 8633   9.152   6.250   0.838
49373W        W 8634  14.698  43.405   4.806
49374W        W 8635  39.928  11.255   3.249
49375W        W 8636  34.968  18.105   0.960
49376W        W 8637  44.326  26.027   4.726
49377W        W 8638  28.967  28.084   4.201
49378W        W 8639  22.209  35.952   4.758
49379W        W 8640  32.123  33.978   3.731
49380W        W 8641  29.646   0.841  11.126
49381W        W 8642  30.103  25.678  11.883
49382W        W 8643  36.391  22.041   1.853
49383W        W 8644   1.785  11.249  14.285
49384W        W 8645   2.727  36.949  10.414
49385W        W 8646  12.831  44.964  11.585
49386W        W 8647  42.495   0.872   1.421
49387W        W 8648   4.709  32.617  14.428
49388W        W 8649  38.549  23.634   0.410
49389W        W 8650  33.978  36.050   1.889
49390W        W 8651  20.160  41.373  10.032
49391W        W 8652  26.045   3.330  13.395
49392W        W 8653   5.305  17.778   2.797
49393W        W 8654  44.000  16.724  14.326
49394W        W 8655  14.776  14.787  10.992
49395W        W 8656  16.783  22.613  11.900
49396W        W 8657  25.964  30.004  13.976
49397W        W 8658   5.380   6.200  14.323
49398W        W 8659  41.007  34.466  12.497
49399W        W 8660  22.658  36.473   0.421
49400W        W 8661  27.147  33.520  10.052
49401W        W 8662  17.615  26.485  10.978
49402W        W 8663  32.930  33.056  14.023
49403W        W 8664   1.429   4.366   3.209
49404W        W 8665  44.787  20.573  11.532
49405W        W 8666   5.745  37.059   1.301
49406W        W 8667  40.009  33.408   0.824
49407W        W 8668  43.841  40.912   0.785
49408W        W 8669  42.298   0.845  14.021
49409W        W 8670  41.410  40.446  13.444
49410W        W 8671  16.722  32.466   4.753
49411W        W 8672  33.059  32.429  11.968
49412W        W 8673  33.978  25.149   1.809
49413W        W 8674   4.312  42.329   2.247
49414W        W 8675  17.792  21.724   9.444
49415W        W 8676   9.734  19.129  13.008
49416W        W 8677  37.441   4.867   4.219
49417W        W 8678  14.307  18.163   4.766
49418W        W 8679  34.578   4.346   3.728
49419W        W 8680  19.206  17.699  14.012
49420W        W 8681  31.565  29.072  12.979
49421W        W 8682   6.332   4.273  14.471
49422W        W 8683  44.947  13.270  12.878
49423W        W 8684   2.844   0.855   0.330
49424W        W 8685   2.258  36.564  14.943
49425W        W 8686  24.083  44.295  14.433
49426W        W 8687  36.073  37.341  12.989
49427W        W 8688  36.360  19.267   0.897
49428W        W 8689   6.880  17.299  13.865
49429W        W 8690  44.857  40.821   3.694
49430W        W 8691  30.540  20.756   0.738
49431W        W 8692   8.893  44.919  14.981
49432W        W 8693   9.748  18.150  10.549
49433W        W 8694  29.001  25.106   0.332
49434W        W 8695   3.953   1.931   1.695
49435W        W 8696  34.484  39.912  13.922
49436W        W 8697  22.144  42.335   0.344
49437W        W 8698  16.603  31.498  13.998
49438W        W 8699  18.762   3.724  14.438
49439W        W 8700  30.990  27.138  10.504
49440W        W 8701   4.788  42.371  12.341
49441W        W 8702  10.208   3.436   0.267
49442W        W 8703  28.014   9.181   0.818
49443W        W 8704  16.616   0.422   2.807
49444W        W 8705  15.741   9.157   3.149
49445W        W 8706  34.576  17.287   4.290
49446W        W 8707  21.075  26.954   0.415
49447W        W 8708   4.880  26.115  13.919
49448W        W 8709  11.819  11.277   0.469
49449W        W 8710  32.921  36.995  11.550
49450W        W 8711   8.716   1.931   2.820
49451W        W 8712  29.452   0.922  12.448
49452W        W 8713  26.134  27.533  13.811
49453W        W 8714  15.137  18.224   2.417
49454W        W 8715   8.666  15.758  12.877
49455W        W 8716  16.707   2.722   2.302
49456W        W 8717  36.544  39.010  11.023
49457W        W 8718   9.252  30.061   0.809
49458W        W 8719   6.754  18.078  11.903
49459W        W 8720  36.392  43.011  12.525
49460W        W 8721   7.690  31.047  14.835
49461W        W 8722  27.537  12.166  14.782
49462W        W 8723  38.056  10.291  10.488
49463W        W 8724  21.689  22.557   3.788
49464W        W 8725  41.015   0.436  14.770
49465W        W 8726  36.532  23.583  11.903
49466W        W 8727  26.653  23.633   0.248
49467W        W 8728  27.594  31.093   2.777
49468W        W 8729  41.856  14.270   3.301
49469W        W 8730  38.900  19.779   2.374
49470W        W 8731  44.347  37.541   2.888
49471W        W 8732  28.453  10.771   4.746
49472W        W 8733  44.992  37.488   0.377
49473W        W 8734  38.066   4.806  14.321
49474W        W 8735   2.355  32.905  14.883
49475W        W 8736  25.017  13.773  13.326
49476W        W 8737  12.282  31.973   3.330
49477W        W 8738  44.479  31.579  12.412
49478W        W 8739  43.290  14.158  11.998
49479W        W 8740  40.043  23.036  10.486
49480W        W 8741  14.691  14.325  10.918
49481W        W 8742  19.756  27.675  11.496
49482W        W 8743  37.873  22.112  12.417
49483W        W 8744   9.680  32.098  11.917
49484W        W 8745  39.004  26.620   4.147
49485W        W 8746  20.232   2.470   2.264
49486W        W 8747  42.929  42.935  13.804
49487W        W 8748  20.199   4.814   4.160
49488W        W 8749   7.864   9.818  11.924
49489W        W 8750  33.931  10.185   1.368
49490W        W 8751  39.465  43.987  13.453
49491W        W 8752   3.945   3.764  14.877
49492W        W 8753  34.065  43.814   3.654
49493W        W 8754  34.589   1.353   1.312
49494W        W 8755  17.730  28.508  11.968
49495W        W 8756  42.446  13.311   2.722
49496W        W 8757  39.837   4.909  10.966
49497W        W 8758   8.839  40.335  14.880
49498W        W 8759   8.325  30.953  13.049
49499W        W 8760  28.079  37.483  13.902
49500W        W 8761  24.079   1.257   2.881
49501W        W 8762  42.443  26.586  10.012
49502W        W 8763  13.643  42.790   3.250
49503W        W 8764  25.136  35.027   5.144
49504W        W 8765   7.201   8.307  11.036
49505W        W 8766  43.488  13.318  13.002
49506W        W 8767  41.458  22.660  14.802
49507W        W 8768  44.488  35.416   3.325
49508W        W 8769  41.371  29.928   4.251
49509W        W 8770  36.377  12.299  10.490
49510W        W 8771  15.593  31.403  12.044
49511W        W 8772  22.220  20.732  13.981
49512W        W 8773   5.785  14.142   4.250
49513W        W 8774  12.304   2.420  14.291
49514W        W 8775   3.227  11.228   0.894
49515W        W 8776  23.544  34.115  13.489
49516W        W 8777   8.354  11.312  14.482
49517W        W 8778   4.732   9.249   0.289
49518W        W 8779  39.947   4.273   4.693
49519W        W 8780  11.164  13.299   4.179
49520W        W 8781  24.205   9.701  11.874
49521W        W 8782   2.764  25.478   3.678
49522W        W 8783  43.313   7.666  13.899
49523W        W 8784  31.049  25.163   3.349
49524W        W 8785  13.757  17.704   4.763
49525W        W 8786   4.742  32.597   0.902
49526W        W 8787   1.791  43.995  14.301
49527W        W 8788   6.412  36.087   5.171
49528W        W 8789   9.665  32.090  13.890
49529W        W 8790  26.494  31.425   3.644
49530W        W 8791  33.398  14.733  13.314
49531W        W 8792  14.639   8.299  12.489
49532W        W 8793   1.311   7.176   2.276
49533W        W 8794  38.895  40.830  11.600
49534W        W 8795  13.630   0.278   0.835
49535W        W 8796  13.739  33.624   1.373
49536W        W 8797  18.143  24.062   1.355
49537W        W 8798  28.940  43.955  10.464
49538W        W 8799  18.625  39.412   1.845
49539W        W 8800   4.909  14.094   2.334
49540W        W 8801  23.207  24.190   2.345
49541W        W 8802  14.257  12.243   0.254
49542W        W 8803  11.216  12.851  14.956
49543W        W 8804   8.166  10.253  13.878
49544W        W 8805  38.363  37.938   4.342
49545W        W 8806   1.307  32.411   4.168
49546W        W 8807  32.094  12.169  11.386
49547W        W 8808  28.938  14.201  14.843
49548W        W 8809  42.861  43.476  14.439
49549W        W 8810  18.615  24.105  13.539
49550W        W 8811  30.628  23.014  13.479
49551W        W 8812  42.808  22.654   4.745
49552W        W 8813   8.764  40.344   2.384
49553W        W 8814   5.915  38.822  13.933
49554W        W 8815  22.233  31.597  13.963
49555W        W 8816   1.963  30.414   2.246
49556W        W 8817  37.555  20.111  11.057
49557W        W 8818   6.378  13.801   3.816
49558W        W 8819  27.550  36.481   4.738
49559W        W 8820   0.303  10.639  13.467
49560W        W 8821   3.867   9.352   1.756
49561W        W 8822  39.370  11.627  11.379
49562W        W 8823   3.915  18.590  11.863
49563W        W 8824  36.354  41.943   3.261
49564W        W 8825  15.215   6.680   2.193
49565W        W 8826   6.316  14.622  13.033
49566W        W 8827  24.579  34.483  12.898
49567W        W 8828  41.381  40.935  14.426
49568W        W 8829  13.175  35.094   1.355
49569W        W 8830  26.465  28.547  11.861
49570W        W 8831  19.248  31.424  14.871
49571W        W 8832  14.277  35.998   0.889
49572W        W 8833  26.962  29.970  14.911
49573W        W 8834   2.349  36.887  14.854
49574W        W 8835   7.788   1.933   5.177
49575W        W 8836  10.380  11.808  10.622
49576W        W 8837   2.951  36.057  11.416
49577W        W 8838  23.655  38.457   1.332
49578W        W 8839   9.855  34.050  14.864
49579W        W 8840  35.871   4.303  13.481
49580W        W 8841  41.798   3.891   1.245
49581W        W 8842  35.447  12.842  13.435
49582W        W 8843  31.573   4.761  13.509
49583W        W 8844  19.533  20.727   0.475
49584W        W 8845  31.118  14.122  14.326
49585W        W 8846  44.452  31.001   3.684
49586W        W 8847   9.719  29.945  10.468
49587W        W 8848  16.301  40.532   2.223
49588W        W 8849  21.090   0.354   0.907
49589W        W 8850  38.954  30.512  14.001
49590W        W 8851   4.436  29.954  14.818
49591W        W 8852   5.206   4.839  10.974
49592W        W 8853  33.455  30.149  14.828
49593W        W 8854  38.036   5.343   3.699
49594W        W 8855  30.921   5.429   0.359
49595W        W 8856  44.864  21.711   4.162
49596W        W 8857  11.249  26.473   2.800
49597W        W 8858  31.945  34.080   4.282
49598W        W 8859   9.753  22.707   1.294
49599W        W 8860  39.442  30.514   0.325
49600W        W 8861  35.533  18.646  12.949
49601W        W 8862  35.500  27.547  13.401
49602W        W 8863   8.271  12.739  14.970
49603W        W 8864  35.552   1.293  11.928
49604W        W 8865  33.115  19.672   3.334
49605W        W 8866  31.541  42.308  10.888
49606W        W 8867  44.459  13.209  11.450
49607W        W 8868  13.198  25.015  11.598
49608W        W 8869  30.593  36.382   4.331
49609W        W 8870  31.941  35.077   5.126
49610W        W 8871  14.231  44.921   1.380
49611W        W 8872  18.092  20.076   3.863
49612W        W 8873   5.867  21.720   4.240
49613W        W 8874  23.622  40.933   4.135
49614W        W 8875  44.779  22.095  11.989
49615W        W 8876  31.526   6.321   3.255
49616W        W 8877  20.216   6.338  11.993
49617W        W 8878  11.147  14.760  10.995
49618W        W 8879  41.508   6.694  10.954
49619W        W 8880  33.922  38.408   1.213
49620W        W 8881  20.128  39.318  12.999
49621W        W 8882  26.605  27.532   1.753
49622W        W 8883  10.245  35.088  12.929
49623W        W 8884   8.671   6.280   4.778
49624W        W 8885  42.790   5.856  12.575
49625W        W 8886   9.878  17.669   3.168
49626W        W 8887  16.276  13.334   4.227
49627W        W 8888  22.174  20.058  12.055
49628W        W 8889   2.419  19.710  11.991
49629W        W 8890   3.246   5.330   3.637
49630W        W 8891  33.612  24.073   0.309
49631W        W 8892  37.377  10.150   2.317
49632W        W 8893  15.753  17.592  14.324
49633W        W 8894  28.567  21.757  11.034
49634W        W 8895  42.503  33.928   0.755
49635W        W 8896   2.967  18.068   0.912
49636W        W 8897  35.463  27.635   4.237
49637W        W 8898   0.444   3.372  14.477
49638W        W 8899  23.147  34.595   3.772
49639W        W 8900  43.772  22.552   4.119
49640W        W 8901  21.652  38.346   2.663
49641W        W 8902   1.311  18.677  10.506
49642W        W 8903  37.363  29.492  14.417
49643W        W 8904  15.655  24.004   0.251
49644W        W 8905   8.161  19.761   0.475
49645W        W 8906  29.542  17.618  10.542
49646W        W 8907   2.773   8.160   0.452
49647W        W 8908  23.731  36.870   3.226
49648W        W 8909  31.050  24.687  13.533
49649W        W 8910  38.420  21.688   1.717
49650W        W 8911  41.869  27.576   4.816
49651W        W 8912   5.275   9.653   1.300
49652W        W 8913  20.230  13.278  11.482
49653W        W 8914  10.257  22.619   2.294
49654W        W 8915  26.671  20.057  14.803
49655W        W 8916   2.800  10.827  14.850
49656W        W 8917  39.408  20.108  13.325
49657W        W 8918  25.639   0.910   0.931
49658W        W 8919   4.392   5.745  14.998
49659W        W 8920  24.153   7.265   1.735
49660W        W 8921  26.662  14.126  14.296
49661W        W 8922   6.252  10.214  10.976
49662W        W 8923  35.490  13.752   0.447
49663W        W 8924  39.009  39.054  11.384
49664W        W 8925   6.917   6.251   3.329
49665W        W 8926  22.096   1.331  13.860
49666W        W 8927   6.830  27.123  11.077
49667W        W 8928  43.411  29.176  14.296
49668W        W 8929  14.238  40.845  10.568
49669W        W 8930   4.836  14.666  14.316
49670W        W 8931  18.141   1.338   2.839
49671W        W 8932   5.323  31.925  10.944
49672W        W 8933  26.173   6.258  12.936
49673W        W 8934   3.242  11.734  12.498
49674W        W 8935  43.347  39.943   4.282
49675W        W 8936  33.462  14.141   2.242
49676W        W 8937  31.582   5.410  13.916
49677W        W 8938  37.535   1.355  12.407
49678W        W 8939   2.366  34.405   4.329
49679W        W 8940  23.071   5.194  11.996
49680W        W 8941  29.920  11.781  10.965
49681W        W 8942   1.912  41.942  11.488
49682W        W 8943  20.641   9.733  13.980
49683W        W 8944  31.618  10.774   1.777
49684W        W 8945  14.235  25.682   3.722
49685W        W 8946  28.656   4.778  11.083
49686W        W 8947   6.845  27.191  10.436
49687W        W 8948  22.165  17.704  12.832
49688W        W 8949  22.729  44.874  14.343
49689W        W 8950   0.429  40.527   3.377
49690W        W 8951   2.966  34.108   4.777
49691W        W 8952  14.615  31.529  14.515
49692W        W 8953   1.416  23.040   0.415
49693W        W 8954  35.575   7.752   2.685
49694W        W 8955  25.563  11.676   5.086
49695W        W 8956  25.525  26.644  10.496
49696W        W 8957   2.743  44.319   4.339
49697W        W 8958   3.461  16.252  11.507
49698W        W 8959  16.726  36.073   3.866
49699W        W 8960  23.098  42.877  12.053
49700W        W 8961  36.846  29.158   4.717
49701W        W 8962   7.778  16.778   2.416
49702W        W 8963  15.239  18.096   1.748
49703W        W 8964  14.690  20.719   1.848
49704W        W 8965  12.234  30.958   2.195
49705W        W 8966  39.902   8.720  12.860
49706W        W 8967   9.827  24.583  14.951
49707W        W 8968  35.559  27.632  10.994
49708W        W 8969  23.594   3.327  13.342
49709W        W 8970  36.359  27.093   2.248
49710W        W 8971  22.518  43.869   3.373
49711W        W 8972  42.481  24.715   0.327
49712W        W 8973  32.940  28.075   3.651
49713W        W 8974   7.854  13.321   0.389
49714W        W 8975  14.185   9.726   0.277
49715W        W 8976  12.728  28.595  12.355
49716W        W 8977  18.777  22.669   1.241
49717W        W 8978   8.794  36.962  11.412
49718W        W 8979   0.847   3.789  13.969
49719W        W 8980  38.332  41.963  14.833
49720W        W 8981  35.038  37.495   3.247
49721W        W 8982  30.584  24.707   1.755
49722W        W 8983   0.393  17.769  12.425
49723W        W 8984  36.943  22.729   2.899
49724W        W 8985  27.989  23.695   5.187
49725W        W 8986  26.674   9.878  11.510
49726W        W 8987  36.370  43.341   3.323
49727W        W 8988  42.929  17.627   0.367
49728W        W 8989  26.665   4.939   3.335
49729W        W 8990  44.950  44.965  11.420
49730W        W 8991   0.355  12.703   4.627
49731W        W 8992  19.199  13.140  13.428
49732W        W 8993  15.683  44.823   4.622
49733W        W 8994  31.547  13.247  11.573
49734W        W 8995  28.147  19.132  10.948
49735W        W 8996  18.118  18.671   0.277
49736W        W 8997  35.514  42.456   1.349
49737W        W 8998  15.720   6.284   2.902
49738W        W 8999  42.023   7.837  14.020
49739W        W 9000  15.723   1.848   3.277
49740W        W 9001   6.816   4.327   4.747
49741W        W 9002  19.624  43.346  12.055
49742W        W 9003  24.524  31.986   3.257
49743W        W 9004  16.635  39.559   3.278
49744W        W 9005  39.015  14.130  12.941
49745W        W 9006   8.279  22.128  10.414
49746W        W 9007  16.197   2.287   3.862
49747W        W 9008  28.600   2.892  11.555
49748W        W 9009  11.830   2.846   4.197
49749W        W 9010  18.206   5.352  14.399
49750W        W 9011  14.819  38.349   4.237
49751W        W 9012  31.439  33.039   3.705
49752W        W 9013  15.164   8.850   0.413
49753W        W 9014  32.127  10.322  14.774
49754W        W 9015  27.453   4.801  14.979
49755W        W 9016   8.804  13.675   3.857
49756W        W 9017  14.682  32.578  14.825
49757W        W 9018  28.979  29.928  14.834
49758W        W 9019  37.497   9.326   4.242
49759W        W 9020  13.643   5.290  11.476
49760W        W 9021  41.483  15.259   5.788
49761W        W 9022  10.668  17.157   4.149
49762W        W 9023  34.476  35.438  12.433
49763W        W 9024  28.029  23.023  12.076
49764W        W 9025   3.366   6.726  13.797
49765W        W 9026  32.944  12.846  13.928
49766W        W 9027   1.778  28.549   1.761
49767W        W 9028  34.025  43.975  10.578
49768W        W 9029  26.635  23.683   0.748
49769W        W 9030  34.043   7.394  11.551
49770W        W 9031  35.890  20.568   3.304
49771W        W 9032  28.103  14.246   9.956
49772W        W 9033  34.489  28.523   1.268
49773W        W 9034  44.988  26.511   2.329
49774W        W 9035   2.306   5.858   3.831
49775W        W 9036  44.808   8.206  12.475
49776W        W 9037  41.444  13.186   0.849
49777W        W 9038   2.385  30.072  10.604
49778W        W 9039  23.179  15.130   0.751
49779W        W 9040   5.744   6.893   1.742
49780W        W 9041   2.373  32.397   1.412
49781W        W 9042   5.382  32.400   2.317
49782W        W 9043  29.152  29.930  13.351
49783W        W 9044  37.358   7.778   2.387
49784W        W 9045  43.840  29.656  12.545
49785W        W 9046  40.476  11.353   1.763
49786W        W 9047  10.817  24.680  14.445
49787W        W 9048  44.353  32.930  10.502
49788W        W 9049   7.849   9.248   4.115
49789W        W 9050  22.730  18.268   0.377
49790W        W 9051  14.668  11.719   4.126
49791W        W 9052  21.182   9.380   2.698
49792W        W 9053  18.230  26.675   0.892
49793W        W 9054  16.605   0.338   3.690
49794W        W 9055  44.780  17.138   1.924
49795W        W 9056  43.467   2.918  13.969
49796W        W 9057  31.455  34.882  12.423
49797W        W 9058  25.519  26.963   2.765
49798W        W 9059   2.952  31.898   2.184
49799W        W 9060  32.600  24.122  14.278
49800W        W 9061  29.057  15.103  13.013
49801W        W 9062  36.881  11.846  11.006
49802W        W 9063   6.277  22.038  14.459
49803W        W 9064  27.967  35.061  12.573
49804W        W 9065   6.734  37.567  12.357
49805W        W 9066   0.948  38.340  12.500
49806W        W 9067  34.874   1.458   4.806
49807W        W 9068  26.475   3.259   5.176
49808W        W 9069  39.009  41.327   5.123
49809W        W 9070  25.600   9.280  10.528
49810W        W 9071   6.763  41.944   1.717
49811W        W 9072  25.482  14.335   9.929
49812W        W 9073  20.587  10.872   0.480
49813W        W 9074  30.914  25.015  13.824
49814W        W 9075  37.065   5.421  13.477
49815W        W 9076  38.434  25.080  14.490
49816W        W 9077  44.866  43.787   0.784
49817W        W 9078  12.720  16.104  11.531
49818W        W 9079  31.939  31.406  13.928
49819W        W 9080  44.409  33.395   4.282
49820W        W 9081  24.713  15.704   3.784
49821W        W 9082  13.299  42.450  12.486
49822W        W 9083  14.708   3.315  10.144
49823W        W 9084  30.933  39.064  11.465
49824W        W 9085  36.942  22.543   2.336
49825W        W 9086  22.506  11.177   0.932
49826W        W 9087  38.997  23.042   2.684
49827W        W 9088   4.857  40.886   2.695
49828W        W 9089   5.919  23.705  14.385
49829W        W 9090  20.101  34.993   3.229
49830W        W 9091  31.072  36.558   2.836
49831W        W 9092  35.072  16.686  13.885
49832W        W 9093  10.160   7.902   2.374
49833W        W 9094  38.962   9.360  14.817
49834W        W 9095  33.891  25.197  14.290
49835W        W 9096   4.316  23.052  14.477
49836W        W 9097   0.886  35.579   1.365
49837W        W 9098  24.074   0.329  13.315
49838W        W 9099  28.461  26.561   0.937
49839W        W 9100  34.925  43.359   0.384
49840W        W 9101  14.751  16.662   4.655
49841W        W 9102  34.486   0.362  14.348
49842W        W 9103  30.060   5.689  13.055
49843W        W 9104  28.444   6.415  12.466
49844W        W 9105  41.303  27.576   4.274
49845W        W 9106  28.487  38.421   0.837
49846W        W 9107  24.722  29.515  11.919
49847W        W 9108  31.941  30.938  12.016
49848W        W 9109  20.046  39.368  14.943
49849W        W 9110  19.612  18.274   2.325
49850W        W 9111  30.944  26.562  10.491
49851W        W 9112  41.043  10.303  14.926
49852W        W 9113  34.088  12.138   0.954
49853W        W 9114  13.277  41.036   4.635
49854W        W 9115  15.098  41.480   3.174
49855W        W 9116  33.493  41.028   2.765
49856W        W 9117  20.764  32.051   5.174
49857W        W 9118  43.507  28.135   3.188
49858W        W 9119   9.681   2.424   4.177
49859W        W 9120  11.299  15.702   0.288
49860W        W 9121  29.523  41.498  13.527
49861W        W 9122  23.692  14.202  11.536
49862W        W 9123  27.941  25.551   2.206
49863W        W 9124   4.715  16.189  11.415
49864W        W 9125   7.236   6.756   0.321
49865W        W 9126   0.877  37.556   1.793
49866W        W 9127  11.230  25.030   3.202
49867W        W 9128  16.798  16.153   1.752
49868W        W 9129  15.304  10.342   0.772
49869W        W 9130  29.634   1.402  10.625
49870W        W 9131  16.738  36.396   4.180
49871W        W 9132  26.604   3.830  10.003
49872W        W 9133  28.186  40.457  14.917
49873W        W 9134  18.276  19.754   1.812
49874W        W 9135  14.814  25.105  10.116
49875W        W 9136   2.284   6.201   1.746
49876W        W 9137   1.924  23.113   4.273
49877W        W 9138  30.459  13.112   2.366
49878W        W 9139   0.977   7.767  12.921
49879W        W 9140  24.981   1.781   0.727
49880W        W 9141  35.043  38.530   1.451
49881W        W 9142  21.639  20.251   2.304
49882W        W 9143  32.410  27.991   4.832
49883W        W 9144  23.025  33.102   3.335
49884W        W 9145  13.282  42.872   3.335
49885W        W 9146  40.310  30.481   3.271
49886W        W 9147   5.307  16.265  11.025
49887W        W 9148  20.208   1.904  13.425
49888W        W 9149  36.984  34.039   3.154
49889W        W 9150  13.302   0.944   0.806
49890W        W 9151  13.280   1.414  14.780
49891W        W 9152   9.231  26.136  10.540
49892W        W 9153  41.533  11.820   2.794
49893W        W 9154  25.675  20.718  13.892
49894W        W 9155  13.254   6.352   1.702
49895W        W 9156  26.665  34.887   2.696
49896W        W 9157  29.472  11.318  12.017
49897W        W 9158  44.352  12.234  12.541
49898W        W 9159  20.234  21.074   9.620
49899W        W 9160  22.542  38.562  11.027
49900W        W 9161  12.825  38.547  13.810
49901W        W 9162  36.034  39.389  14.949
49902W        W 9163   8.384  11.737  11.947
49903W        W 9164  43.394  20.606   5.140
49904W        W 9165  32.485  39.410  11.003
49905W        W 9166   1.839   9.336  12.550
49906W        W 9167  18.194   4.713  14.884
49907W        W 9168  25.699  24.003  10.494
49908W        W 9169  40.466  18.605  13.492
49909W        W 9170  33.414  37.864   0.267
49910W        W 9171  15.616   2.818  13.930
49911W        W 9172   5.706  26.175  12.365
49912W        W 9173  12.671  19.564  13.024
49913W        W 9174  13.751   9.362   2.264
49914W        W 9175   1.768  41.309   4.123
49915W        W 9176  44.776   6.220  14.021
49916W        W 9177  14.227   3.747   0.766
49917W        W 9178  40.026   9.754  10.517
49918W        W 9179  38.020  17.767   0.879
49919W        W 9180  21.154  38.513   0.322
49920W        W 9181  30.432  30.979  14.322
49921W        W 9182  18.289   9.349  11.562
49922W        W 9183  43.904  31.637   4.729
49923W        W 9184  22.080   6.238   2.359
49924W        W 9185  28.966  38.896  14.318
49925W        W 9186  41.359  21.698   0.951
49926W        W 9187  19.692   4.351   4.834
49927W        W 9188  27.657   9.192   4.779
49928W        W 9189   0.915  24.623   4.693
49929W        W 9190   2.276  19.642  12.484
49930W        W 9191  42.405  23.992   0.473
49931W        W 9192  19.691   6.832  14.314
49932W        W 9193  10.783  41.865   2.733
49933W        W 9194  42.023  43.889   0.921
49934W        W 9195   6.794  29.451   0.459
49935W        W 9196  30.022  25.585   0.891
49936W        W 9197  24.111  25.209   1.913
49937W        W 9198   5.339  13.623   3.646
49938W        W 9199   1.356  28.022   1.733
49939W        W 9200  43.915   0.345   4.697
49940W        W 9201  36.493  41.863   4.313
49941W        W 9202   4.817  17.299   5.117
49942W        W 9203  14.745  43.394  13.523
49943W        W 9204  23.098  27.090   4.637
49944W        W 9205  10.264  43.992  11.004
49945W        W 9206  14.781  24.993  13.526
49946W        W 9207  25.199  23.070   3.256
49947W        W 9208  40.951   5.362  12.939
49948W        W 9209  12.636  18.678  12.856
49949W        W 9210  25.581  36.954  13.989
49950W        W 9211  25.490  37.359   2.845
49951W        W 9212  27.156  43.975   2.707
49952W        W 9213  23.585  39.062  12.026
49953W        W 9214  27.088  41.003  13.924
49954W        W 9215  40.026  12.611   4.307
49955W        W 9216  14.336   6.831  13.963
49956W        W 9217   4.846  15.605  12.846
49957W        W 9218  32.896   4.917   3.699
49958W        W 9219  26.539  33.892  12.902
49959W        W 9220  31.412   3.318  11.882
49960W        W 9221   5.389   9.797  14.442
49961W        W 9222   7.864  26.631   1.701
49962W        W 9223  12.150   9.702  10.418
49963W        W 9224  22.573  44.793  14.876
49964W        W 9225  27.098  42.850   2.180
49965W        W 9226  31.139   2.943  12.487
49966W        W 9227  40.338  17.785  14.397
49967W        W 9228   2.775  29.656  13.029
49968W        W 9229  12.247  23.677   3.218
49969W        W 9230  24.136  25.476  11.419
49970W        W 9231  35.885  16.691  11.069
49971W        W 9232  28.133  32.484  13.414
49972W        W 9233  27.089   9.829   4.319
49973W        W 9234   4.308   4.307   4.184
49974W        W 9235  25.605  11.836  11.058
49975W        W 9236  33.431  17.618  10.503
49976W        W 9237  18.573  40.467   4.341
49977W        W 9238  26.554   5.759  14.405
49978W        W 9239   5.386   8.850  11.499
49979W        W 9240  22.006   8.796   1.712
49980W        W 9241  41.977  12.150  12.580
49981W        W 9242  38.537   0.814   2.316
49982W        W 9243  30.648  37.947  12.860
49983W        W 9244  20.626  41.422   1.706
49984W        W 9245  44.782  34.428   2.815
49985W        W 9246  16.151  43.884  11.565
49986W        W 9247  11.361   9.170  11.021
49987W        W 9248  19.270  23.984   5.296
49988W        W 9249  27.530  25.154  12.348
49989W        W 9250  41.865   0.842   3.342
49990W        W 9251  41.361  19.652   3.192
49991W        W 9252  22.506  20.170  13.476
49992W        W 9253   2.370  36.501  12.395
49993W        W 9254  15.311  40.547   3.644
49994W        W 9255  25.128  14.625   4.259
49995W        W 9256  28.058  39.372  10.445
49996W        W 9257  30.651  32.596  14.779
49997W        W 9258  37.450  14.828   0.845
49998W        W 9259  27.110  16.800   0.305
49999W        W 9260   0.908   4.229  12.846
50000W        W 9261  29.105  35.998   2.870
50001W        W 9262  22.591  37.343   5.213
50002W        W 9263  35.538  16.762   4.180
50003W        W 9264  25.484   2.381  11.940
50004W        W 9265   0.874  33.041   1.768
50005W        W 9266  26.016  15.803   1.265
50006W        W 9267   4.903  36.015   4.190
50007W        W 9268   9.866  44.846   3.380
50008W        W 9269  41.812  35.409  14.963
50009W        W 9270  33.070  35.015  13.436
50010W        W 9271   1.265  23.050   4.670
50011W        W 9272   9.839  19.091   4.334
50012W        W 9273  26.134   3.844   0.935
50013W        W 9274  33.450  31.974   2.662
50014W        W 9275  38.867  41.375   3.675
50015W        W 9276   7.814  33.979   0.869
50016W        W 9277  19.709  31.902   2.759
50017W        W 9278  36.358  14.138   4.147
50018W        W 9279  22.633  18.195  11.121
50019W        W 9280  14.666  42.341   2.777
50020W        W 9281  25.705  21.592   1.379
50021W        W 9282   4.409  41.007   3.834
50022W        W 9283  16.237  36.473  13.049
50023W        W 9284   3.893   3.364   3.244
50024W        W 9285   6.684   3.287   4.813
50025W        W 9286  14.793  22.508  11.521
50026W        W 9287  23.500  32.919   1.248
50027W        W 9288   2.459  19.182  14.936
50028W        W 9289  28.113  36.509  11.115
50029W        W 9290  27.560  39.498  14.946
50030W        W 9291  19.252  15.774  11.994
50031W        W 9292  35.574  28.096   1.766
50032W        W 9293   3.806   0.959   2.751
50033W        W 9294  17.789  24.229   1.736
50034W        W 9295   6.881  13.603   4.719
50035W        W 9296   3.371   7.699  13.360
50036W        W 9297   4.764  17.633  14.903
50037W        W 9298  41.999  40.532   3.204
50038W        W 9299  32.985  21.559   3.373
50039W        W 9300   2.812  32.433   0.869
50040W        W 9301   7.698  18.710  14.769
50041W        W 9302  44.334  43.332  11.871
50042W        W 9303   0.453  32.134  12.924
50043W        W 9304  22.112  28.566   2.292
50044W        W 9305  27.455   5.408  10.923
50045W        W 9306  22.025  40.831  11.989
50046W        W 9307  41.788  39.990  12.894
50047W        W 9308  21.034   2.449   3.205
50048W        W 9309  31.995  21.167   1.382
50049W        W 9310   8.668  26.010   0.823
50050W        W 9311  11.316   1.285   0.838
50051W        W 9312  29.461  32.555  14.274
50052W        W 9313  40.853  14.729   0.893
50053W        W 9314  36.414   4.311  12.916
50054W        W 9315  26.574  42.448   3.225
50055W        W 9316  37.979   1.386  12.486
50056W        W 9317  10.177  17.682  12.041
50057W        W 9318  19.158  12.636  12.427
50058W        W 9319  42.466   3.905  13.951
50059W        W 9320   7.762  29.171   0.945
50060W        W 9321  32.113  20.702   4.631
50061W        W 9322  21.260  21.537   0.864
50062W        W 9323  22.072   7.733   4.253
50063W        W 9324   4.765   1.862   0.847
50064W        W 9325  21.664  23.537   1.227
50065W        W 9326  28.139  23.552   1.701
50066W        W 9327  26.692  28.669   1.421
50067W        W 9328  21.681   5.734   1.231
50068W        W 9329  11.260   2.961  11.060
50069W        W 9330  29.494  39.332  14.469
50070W        W 9331  40.308  36.585  13.949
50071W        W 9332  41.009  13.265  14.759
50072W        W 9333  11.210  40.318   0.437
50073W        W 9334   4.242   7.397  12.883
50074W        W 9335  43.434   0.390   1.358
50075W        W 9336  39.966  43.321  12.915
50076W        W 9337  37.344   8.709  11.062
50077W        W 9338  12.210  35.061  13.000
50078W        W 9339  11.233  23.173   3.171
50079W        W 9340  13.679  19.549  10.429
50080W        W 9341   3.948  36.880   0.394
50081W        W 9342  37.899  26.160   4.174
50082W        W 9343   8.163   1.362  12.390
50083W        W 9344   1.802  37.377   3.695
50084W        W 9345  38.461  34.435  14.410
50085W        W 9346  12.139  10.223  11.422
50086W        W 9347  31.543   8.191  13.887
50087W        W 9348  35.009  33.037   4.213
50088W        W 9349  37.079   1.340   3.221
50089W        W 9350  23.004  42.443  11.100
50090W        W 9351  38.436  15.790   0.265
50091W        W 9352  21.258  35.010   4.740
50092W        W 9353  26.493   0.284   2.796
50093W        W 9354   2.423  42.834   5.148
50094W        W 9355  36.536  14.723  14.339
50095W        W 9356   9.783  12.188  13.947
50096W        W 9357  39.342  12.661   5.265
50097W        W 9358   8.239  30.576  11.420
50098W        W 9359  13.280  36.050  12.440
50099W        W 9360   2.737  18.596  12.047
50100W        W 9361  40.340   1.406  10.597
50101W        W 9362  44.345  30.432  14.793
50102W        W 9363  28.180  38.901   0.900
50103W        W 9364  15.717  41.813  11.054
50104W        W 9365   5.844  13.147   1.405
50105W        W 9366  10.725  34.503  14.808
50106W        W 9367  12.350   2.766  13.881
50107W        W 9368  30.429  20.550   1.747
50108W        W 9369  17.759  30.434   0.322
50109W        W 9370  10.278  31.440  13.942
50110W        W 9371   3.276  26.121   1.243
50111W        W 9372  18.637  14.178   2.336
50112W        W 9373  20.574   4.869  12.397
50113W        W 9374  15.184  26.486   1.843
50114W        W 9375  25.540  13.169  14.912
50115W        W 9376  42.981  18.287   1.829
50116W        W 9377   7.361  33.079   4.606
50117W        W 9378  22.657  34.963  11.453
50118W        W 9379  11.373  30.069   0.765
50119W        W 9380  27.659   9.309   4.126
50120W        W 9381  24.174  10.191   2.848
50121W        W 9382  43.776  13.671   0.930
50122W        W 9383  39.495   3.887  13.507
50123W        W 9384   4.323   6.915   5.743
50124W        W 9385  25.173  16.770   2.309
50125W        W 9386  31.935  33.006   0.317
50126W        W 9387  22.022  40.822  10.501
50127W        W 9388   6.892  19.567  12.538
50128W        W 9389   8.856   7.833  12.915
50129W        W 9390  11.811   5.810  14.920
50130W        W 9391  24.183   2.413  13.859
50131W        W 9392  13.146  31.933  12.037
50132W        W 9393  12.625  38.018  13.328
50133W        W 9394  27.146  44.280   1.848
50134W        W 9395   7.380  20.639  10.420
50135W        W 9396   0.812  31.610   0.813
50136W        W 9397  36.979   5.771  14.820
50137W        W 9398   5.291  27.668  13.792
50138W        W 9399  40.971  25.200   4.685
50139W        W 9400  22.202  44.758  11.999
50140W        W 9401   2.796  22.158  13.453
50141W        W 9402  33.914  14.672  14.837
50142W        W 9403  16.808   6.786   2.359
50143W        W 9404   4.293  37.421   1.741
50144W        W 9405  27.022   6.314   3.828
50145W        W 9406   8.313   8.670  11.609
50146W        W 9407   9.664  23.131   2.723
50147W        W 9408  40.330  11.365  11.567
50148W        W 9409  32.971  41.919   4.216
50149W        W 9410   7.306  33.934   0.780
50150W        W 9411   8.352  12.179  12.565
50151W        W 9412  19.253  35.077   2.327
50152W        W 9413  16.314  19.132  14.859
50153W        W 9414  40.925  39.001  10.909
50154W        W 9415   7.713   3.773   4.705
50155W        W 9416   3.793  35.012  13.887
50156W        W 9417  43.369  21.246  10.599
50157W        W 9418  14.194  10.810  10.577
50158W        W 9419   4.764   8.240   1.302
50159W        W 9420  29.998  42.969  13.910
50160W        W 9421   7.895  41.943   1.711
50161W        W 9422   8.813  44.857  11.423
50162W        W 9423  26.147  15.750   1.698
50163W        W 9424  18.762   6.766  13.816
50164W        W 9425  17.668  26.671   3.866
50165W        W 9426  39.038  16.170  11.567
50166W        W 9427  33.087  31.147  11.118
50167W        W 9428  33.589  21.083  13.460
50168W        W 9429  30.950  41.452  10.426
50169W        W 9430  28.141  17.271   4.711
50170W        W 9431  38.404  41.369  13.369
50171W        W 9432   2.441  19.053   1.900
50172W        W 9433   5.427  36.077  13.947
50173W        W 9434  32.618  29.955   0.807
50174W        W 9435   8.874  42.895   2.335
50175W        W 9436  16.740  10.306  13.935
50176W        W 9437  36.025   4.907  12.968
50177W        W 9438   3.250  20.170  11.071
50178W        W 9439  19.220  17.066  13.873
50179W        W 9440   9.858  44.987  10.592
50180W        W 9441  24.144  29.992  13.846
50181W        W 9442  11.865  26.646   2.756
50182W        W 9443  40.980  38.532  10.938
50183W        W 9444  28.982  20.132   4.677
50184W        W 9445  29.140  30.577  12.579
50185W        W 9446  18.158  35.494   3.678
50186W        W 9447  28.451  44.391   2.821
50187W        W 9448  17.639  26.684  11.949
50188W        W 9449  10.335  20.248   1.781
50189W        W 9450  32.002  15.611  14.765
50190W        W 9451  26.992   8.166  10.942
50191W        W 9452  39.831  34.514  14.958
50192W        W 9453  33.044  15.124  14.353
50193W        W 9454  34.459  22.030   3.791
50194W        W 9455  40.894  36.447  13.323
50195W        W 9456  31.056  28.015  10.933
50196W        W 9457   3.321   7.876  14.291
50197W        W 9458   2.319  14.762   4.761
50198W        W 9459   9.887  20.139   4.198
50199W        W 9460  42.008  27.071   3.788
50200W        W 9461  35.028  12.693  10.486
50201W        W 9462  15.217  24.517  11.373
50202W        W 9463  25.612  31.961   1.766
50203W        W 9464   5.730  31.617  13.004
50204W        W 9465   6.712  40.860  14.889
50205W        W 9466  18.105  27.059   2.733
50206W        W 9467   1.406  13.119   4.314
50207W        W 9468  31.939  22.629   3.164
50208W        W 9469  36.452  17.115  11.928
50209W        W 9470  12.660  21.632   3.383
50210W        W 9471  18.740  14.143   3.781
50211W        W 9472  31.918  10.676   3.792
50212W        W 9473  12.246   3.949  13.536
50213W        W 9474  36.455  29.517  10.498
50214W        W 9475  34.473  41.015   1.374
50215W        W 9476  17.268  36.897  12.937
50216W        W 9477  35.029  32.124  10.919
50217W        W 9478   3.715  37.988   1.715
50218W        W 9479   3.262  28.550   3.270
50219W        W 9480  10.730   3.410   0.438
50220W        W 9481  33.893   1.873  13.830
50221W        W 9482   2.892  37.942   3.686
50222W        W 9483  35.574   2.783   4.290
50223W        W 9484   9.724   7.329   2.178
50224W        W 9485  15.300  38.019  10.527
50225W        W 9486  38.345   1.439   0.938
50226W        W 9487  30.601  19.152  14.459
50227W        W 9488  10.310  13.335  14.016
50228W        W 9489   0.328  22.559   4.147
50229W        W 9490  17.775  21.720   1.387
50230W        W 9491  42.484  23.628   0.726
50231W        W 9492   4.911   6.223   3.180
50232W        W 9493   1.372   1.858  10.573
50233W        W 9494  35.402  10.268   2.809
50234W        W 9495  40.956  33.886   5.161
50235W        W 9496  43.940  32.930   2.261
50236W        W 9497  24.075  11.222  11.915
50237W        W 9498  42.415   1.382   3.739
50238W        W 9499  37.559  20.613   3.703
50239W        W 9500  43.885  26.100  13.969
50240W        W 9501  36.558  41.443   1.714
50241W        W 9502  35.063   2.754   0.831
50242W        W 9503   3.844  13.242  14.443
50243W        W 9504  24.138  40.517   3.663
50244W        W 9505   2.799  26.634   5.184
50245W        W 9506  20.629  26.684   2.803
50246W        W 9507   1.354  14.196   4.835
50247W        W 9508  27.677   6.886   2.744
50248W        W 9509  36.478   0.491   2.855
50249W        W 9510   6.686  28.638  12.373
50250W        W 9511  42.388  15.255   4.679
50251W        W 9512  37.373   6.765  14.837
50252W        W 9513  42.426  21.655   3.198
50253W        W 9514  32.016   0.285   4.304
50254W        W 9515  42.837  40.909   2.300
50255W        W 9516  15.777  19.757  14.912
50256W        W 9517  15.628  34.044  12.958
50257W        W 9518  13.744  39.438  13.512
50258W        W 9519  18.288  16.161   2.831
50259W        W 9520  26.089  18.181  10.994
50260W        W 9521   4.708  29.166   1.866
50261W        W 9522   7.769  38.972   2.208
50262W        W 9523   2.275   3.801  10.592
50263W        W 9524  22.594  21.090   4.117
50264W        W 9525   8.884  11.773   0.961
50265W        W 9526  29.526  38.489   2.359
50266W        W 9527  27.132  41.991  11.945
50267W        W 9528  20.552  12.814  13.875
50268W        W 9529  30.129  24.014   2.677
50269W        W 9530  10.809  34.065   1.742
50270W        W 9531  14.204  33.473  10.967
50271W        W 9532   9.210  27.029  10.494
50272W        W 9533  20.546  23.134  14.901
50273W        W 9534  16.800  10.662   0.283
50274W        W 9535   4.765  16.211   4.241
50275W        W 9536  27.048   5.220   3.300
50276W        W 9537  32.562   4.225   4.718
50277W        W 9538   8.205  43.361   0.906
50278W        W 9539  41.492  36.044   4.218
50279W        W 9540  40.847  24.676   3.848
50280W        W 9541   7.239  22.556  10.983
50281W        W 9542   7.366  32.041  10.155
50282W        W 9543  18.183  25.120   0.942
50283W        W 9544  39.064  27.160   1.750
50284W        W 9545  33.570  38.499   2.194
50285W        W 9546  22.709   3.262  14.329
50286W        W 9547  39.966  12.767   0.897
50287W        W 9548  14.156  32.607  14.778
50288W        W 9549  14.190  15.210  14.795
50289W        W 9550  10.707  31.425   0.886
50290W        W 9551  32.448  11.707   1.911
50291W        W 9552  33.008  27.109  13.802
50292W        W 9553  10.362  20.255   0.257
50293W        W 9554  29.645  28.627  12.999
50294W        W 9555  37.442  36.994  12.863
50295W        W 9556  28.954  36.035  13.509
50296W        W 9557  30.136  21.630  11.073
50297W        W 9558  20.559  19.671   0.483
50298W        W 9559  17.768   2.437   4.249
50299W        W 9560  28.537   4.415   3.807
50300W        W 9561  41.010   7.782  14.905
50301W        W 9562  23.109   4.749   0.401
50302W        W 9563  38.026  16.681   4.657
50303W        W 9564   2.743  38.074   2.687
50304W        W 9565   9.298  15.262   4.790
50305W        W 9566  36.918   0.766   2.241
50306W        W 9567  11.674   0.468   1.266
50307W        W 9568  13.140  35.061   1.786
50308W        W 9569  20.211  22.013   4.269
50309W        W 9570   0.312  10.214  12.481
50310W        W 9571   1.303  13.134   3.769
50311W        W 9572   6.708  12.362   4.304
50312W        W 9573  16.658  12.314   0.756
50313W        W 9574  22.252  20.596   1.301
50314W        W 9575   4.943   3.720  14.797
50315W        W 9576  43.955  23.679   0.245
50316W        W 9577  21.182  43.491   4.168
50317W        W 9578  29.536  27.185   3.350
50318W        W 9579   3.315  24.482  14.464
50319W        W 9580  31.966   0.861  10.415
50320W        W 9581  29.518   6.921  12.952
50321W        W 9582  20.067   9.885   4.614
50322W        W 9583  28.633  36.993   3.284
50323W        W 9584  12.122   2.941   1.806
50324W        W 9585  11.293   6.748   2.672
50325W        W 9586  44.944  44.280  12.377
50326W        W 9587  23.576  15.286  13.419
50327W        W 9588   3.434  34.118  11.052
50328W        W 9589  13.153   8.821   4.818
50329W        W 9590  33.917  36.040   0.795
50330W        W 9591  37.074  37.081   1.434
50331W        W 9592  24.624   7.784   1.739
50332W        W 9593   9.674  25.084   1.260
50333W        W 9594  34.878  29.562  10.409
50334W        W 9595  37.862  36.490   2.696
50335W        W 9596   5.314  29.623  12.383
50336W        W 9597  25.648  21.141   3.867
50337W        W 9598  33.980  40.958   0.298
50338W        W 9599   1.261   4.819   1.313
50339W        W 9600  23.141  13.317   1.291
50340W        W 9601   6.767  23.001   1.410
50341W        W 9602  26.192  37.342  12.919
50342W        W 9603  24.704  26.576  10.473
50343W        W 9604  41.364   1.903   3.301
50344W        W 9605  42.908  37.900   1.878
50345W        W 9606  17.307  14.302  14.338
50346W        W 9607   9.371  18.228   3.867
50347W        W 9608  38.448  42.835  13.955
50348W        W 9609   0.842  44.334  10.008
50349W        W 9610   2.736   4.745   1.294
50350W        W 9611  36.064  38.338  13.483
50351W        W 9612  40.920  18.575  13.890
50352W        W 9613  18.220  13.304   0.947
50353W        W 9614   4.335   2.870  12.084
50354W        W 9615  10.849  33.592   4.812
50355W        W 9616  38.945  39.889  14.883
50356W        W 9617  27.142  24.579  12.485
50357W        W 9618  20.249  43.814   4.705
50358W        W 9619   9.830  42.388  11.065
50359W        W 9620  27.033  27.104  11.990
50360W        W 9621  44.898  18.137   9.926
50361W        W 9622  20.080  40.995   4.315
50362W        W 9623  43.363  13.158   1.288
50363W        W 9624   9.789  30.048  12.574
50364W        W 9625  21.126  38.498   3.660
50365W        W 9626  28.951  18.138   3.736
50366W        W 9627  40.851  21.018   9.961
50367W        W 9628  24.544  33.044   3.790
50368W        W 9629  35.083  40.461   0.864
50369W        W 9630  26.571  33.882   0.918
50370W        W 9631  40.308  10.756   0.456
50371W        W 9632  17.150   5.706  12.444
50372W        W 9633  16.224  44.879   0.327
50373W        W 9634  14.825  30.109  13.976
50374W        W 9635  38.561  11.745  12.002
50375W        W 9636  25.119   2.329  12.344
50376W        W 9637   3.264  30.515  12.388
50377W        W 9638  15.143  19.110  11.512
50378W        W 9639  41.002  20.141  13.979
50379W        W 9640  15.249  35.073   3.863
50380W        W 9641  38.470  44.357   2.721
50381W        W 9642  11.320  31.008   3.748
50382W        W 9643  23.606  34.903   0.864
50383W        W 9644  41.331  20.114   4.705
50384W        W 9645  31.506  43.897  13.318
50385W        W 9646  18.645  15.241  13.904
50386W        W 9647  28.454   5.909  10.603
50387W        W 9648   3.828  41.325   3.206
50388W        W 9649  20.058  18.738   1.213
50389W        W 9650  25.473  26.152  11.916
50390W        W 9651  13.128  32.613   0.388
50391W        W 9652   1.284  40.323  11.383
50392W        W 9653  25.977  27.069   1.230
50393W        W 9654  30.953  39.540   1.393
50394W        W 9655  22.051  13.712   1.357
50395W        W 9656  22.234  33.057  11.937
50396W        W 9657  30.648  27.618   4.306
50397W        W 9658  20.589   3.845   2.839
50398W        W 9659  17.219  34.953   3.747
50399W        W 9660  31.535   3.895   1.409
50400W        W 9661  24.672  10.280   4.348
50401W        W 9662   3.459  18.184   2.228
50402W        W 9663  44.787   7.202   1.354
50403W        W 9664  25.997  17.602   0.791
50404W        W 9665   3.249  33.973   4.835
50405W        W 9666  28.487  41.025  10.894
50406W        W 9667  36.538  31.950   2.867
50407W        W 9668  17.193  23.131  14.831
50408W        W 9669   6.788  13.149  13.963
50409W        W 9670  40.801  39.826   0.389
50410W        W 9671  23.573   4.701   4.638
50411W        W 9672  11.162  22.567   2.877
50412W        W 9673  24.537  29.987  10.151
50413W        W 9674  31.623   8.679   0.324
50414W        W 9675  44.963  32.903  10.458
50415W        W 9676  42.433  15.646  11.484
50416W        W 9677  23.515  29.614  13.514
50417W        W 9678  25.657  38.363   0.749
50418W        W 9679  25.007   7.209  11.012
50419W        W 9680  37.076  10.381   0.777
50420W        W 9681  15.696  37.437   3.650
50421W        W 9682  23.994  26.613   2.866
50422W        W 9683  17.714  36.569  11.612
50423W        W 9684  14.140  37.480  13.959
50424W        W 9685  14.717   0.262   4.269
50425W        W 9686   6.385  30.977  10.476
50426W        W 9687  28.033  26.059  14.365
50427W        W 9688  36.550  36.355  10.490
50428W        W 9689  14.155  37.916  10.454
50429W        W 9690  17.689  12.308  11.459
50430W        W 9691  38.369   3.751   4.815
50431W        W 9692  35.382  35.060  13.357
50432W        W 9693  36.860  16.142  12.936
50433W        W 9694  29.652  15.789  10.574
50434W        W 9695  38.904  11.704   5.150
50435W        W 9696   0.460  22.249  12.503
50436W        W 9697  31.611  17.084  14.025
50437W        W 9698  20.137   7.850   1.760
50438W        W 9699  25.474   4.810   2.288
50439W        W 9700   9.214  42.810  12.923
50440W        W 9701  20.750  27.531   2.855
50441W        W 9702  14.667  36.036  12.005
50442W        W 9703  17.692  14.174  11.391
50443W        W 9704  31.545  15.267  14.941
50444W        W 9705  36.465  27.988  13.387
50445W        W 9706   5.266  17.653  10.514
50446W        W 9707  34.505  16.203  12.036
50447W        W 9708   4.780  43.418  12.929
50448W        W 9709  38.489  15.613   4.673
50449W        W 9710   9.870   3.796  10.488
50450W        W 9711  21.071  41.423  14.381
50451W        W 9712  39.429   3.228  11.887
50452W        W 9713  29.013   3.369   4.297
50453W        W 9714   7.254  30.499   1.814
50454W        W 9715  11.149   6.872   1.288
50455W        W 9716  24.681   7.688  10.621
50456W        W 9717   3.862  23.060   3.656
50457W        W 9718  18.611  33.456  12.094
50458W        W 9719  10.295  21.646  10.025
50459W        W 9720  18.761  31.959   3.166
50460W        W 9721  20.690  12.146  10.989
50461W        W 9722  36.518  10.676   4.773
50462W        W 9723   6.414   0.305  12.909
50463W        W 9724  19.718  42.898   0.329
50464W        W 9725  25.075  14.111   0.807
50465W        W 9726  38.345  42.827   4.652
50466W        W 9727  28.546  36.926   1.312
50467W        W 9728  17.296   1.963  12.882
50468W        W 9729  38.542   2.815   2.340
50469W        W 9730  32.402  35.529   1.847
50470W        W 9731  15.790  10.291   2.894
50471W        W 9732   9.768   7.812   1.904
50472W        W 9733  24.151  13.757  10.638
50473W        W 9734  14.246  18.672   3.735
50474W        W 9735  25.082  24.157  10.519
50475W        W 9736  23.137  38.514  12.008
50476W        W 9737  30.524  19.200  11.488
50477W        W 9738  13.214  23.548  14.927
50478W        W 9739  26.976  16.724  12.556
50479W        W 9740  32.516  21.597  11.095
50480W        W 9741  19.642  29.138   4.602
50481W        W 9742  13.845  18.236  12.968
50482W        W 9743  19.117  26.542   3.776
50483W        W 9744  32.625  16.812  13.000
50484W        W 9745   3.770  14.703   1.781
50485W        W 9746   4.892   9.381   4.772
50486W        W 9747  36.083   7.772  11.393
50487W        W 9748  33.617  19.275   0.756
50488W        W 9749   6.879   7.175  14.988
50489W        W 9750  44.283  24.041   1.855
50490W        W 9751   9.223  16.139   1.780
50491W        W 9752  37.478  31.421  13.984
50492W        W 9753   9.759  13.109  11.116
50493W        W 9754  16.709   2.846  12.070
50494W        W 9755  10.701  22.676   1.712
50495W        W 9756   5.371   0.335  10.928
50496W        W 9757  25.977   0.450   9.526
50497W        W 9758   9.174  16.726  12.561
50498W        W 9759   2.374  21.551  12.965
50499W        W 9760  16.760   8.214   0.746
50500W        W 9761  39.553  42.317  13.427
50501W        W 9762  23.523  37.858  12.017
50502W        W 9763  32.637  35.410  10.465
50503W        W 9764  41.426  17.125  12.828
50504W        W 9765  25.564  23.706  13.909
50505W        W 9766  16.590  42.295  12.876
50506W        W 9767  44.413  31.471  14.376
50507W        W 9768  11.677   2.311   1.392
50508W        W 9769   1.482  10.356  14.295
50509W        W 9770  29.120  41.881   3.870
50510W        W 9771   0.753  19.660   4.765
50511W        W 9772  34.068   3.438   2.832
50512W        W 9773  10.313  28.939   4.627
50513W        W 9774  14.218  34.021  13.452
50514W        W 9775   5.272  30.013   3.306
50515W        W 9776  22.046  42.363   2.868
50516W        W 9777  25.026  33.576   0.361
50517W        W 9778  22.105  44.447  10.608
50518W        W 9779   8.255  30.614  12.065
50519W        W 9780  28.031  35.447   2.802
50520W        W 9781  40.994  31.639  12.416
50521W        W 9782   5.914  35.046   4.192
50522W        W 9783  13.139  16.211   0.899
50523W        W 9784  43.966  43.410  13.948
50524W        W 9785  27.674  36.352   2.364
50525W        W 9786   5.902  17.657  11.929
50526W        W 9787  34.521  28.645   4.804
50527W        W 9788   8.776   0.414   2.806
50528W        W 9789   7.236  28.474  12.868
50529W        W 9790  37.436  31.899   4.734
50530W        W 9791  31.412  11.632   0.844
50531W        W 9792  17.556  14.136  14.764
50532W        W 9793   3.364   2.889   1.271
50533W        W 9794   3.448   6.334   0.876
50534W        W 9795  14.646  13.177   0.913
50535W        W 9796  11.193  30.512  14.910
50536W        W 9797   6.886   2.459   0.474
50537W        W 9798   6.407   9.257   1.220
50538W        W 9799  34.401  39.027   3.690
50539W        W 9800  21.231   4.310   0.457
50540W        W 9801  21.522  16.291  13.984
50541W        W 9802  24.576  30.118  12.904
50542W        W 9803  24.010  24.026  12.862
50543W        W 9804  21.243  15.156   1.451
50544W        W 9805   7.803  41.844   0.406
50545W        W 9806  31.944  26.041  13.453
50546W        W 9807  24.048  39.481   1.737
50547W        W 9808  16.739  10.210  13.043
50548W        W 9809  33.900  25.174  10.468
50549W        W 9810  43.851  23.519  14.482
50550W        W 9811  36.447  17.573   3.750
50551W        W 9812  29.977  31.920  14.408
50552W        W 9813  42.517  37.922  10.096
50553W        W 9814  26.692  21.158  12.070
50554W        W 9815  28.531  16.664   0.298
50555W        W 9816  23.492  37.964  13.417
50556W        W 9817  30.591  18.590   3.353
50557W        W 9818  20.648  25.211   1.724
50558W        W 9819  15.321  18.139  11.487
50559W        W 9820  43.488  13.134   4.672
50560W        W 9821  40.851  28.639  10.531
50561W        W 9822   5.753  14.697  12.368
50562W        W 9823  16.722  29.038   2.343
50563W        W 9824  38.492  37.528   1.772
50564W        W 9825   4.330  11.226   4.608
50565W        W 9826   1.470  14.155   1.925
50566W        W 9827   6.734   4.251  12.994
50567W        W 9828  24.131  19.253   3.735
50568W        W 9829   4.278  14.685  13.479
50569W        W 9830  43.943  41.923  14.800
50570W        W 9831  39.064  44.853   4.783
50571W        W 9832  32.921  44.757   4.748
50572W        W 9833  30.078   6.244  12.985
50573W        W 9834  22.505  28.933   1.404
50574W        W 9835  26.650  37.065   0.424
50575W        W 9836  18.685  31.408   4.184
50576W        W 9837  20.240  35.052   2.783
50577W        W 9838   4.432  30.050  10.986
50578W        W 9839  13.711  27.135  13.489
50579W        W 9840  34.013  38.885  12.521
50580W        W 9841  16.156  42.996   1.248
50581W        W 9842  22.592  26.469   0.392
50582W        W 9843  27.038   0.936   3.679
50583W        W 9844  29.022  36.037  10.925
50584W        W 9845  19.629  26.000  14.941
50585W        W 9846   9.724  26.475   2.401
50586W        W 9847   5.384   6.297   2.354
50587W        W 9848  20.745  43.288   0.408
50588W        W 9849  37.375  12.821  10.610
50589W        W 9850  30.639  19.760  11.399
50590W        W 9851  37.928   8.830   5.175
50591W        W 9852  30.025  41.404  10.916
50592W        W 9853  37.416  27.186   4.828
50593W        W 9854  37.407  42.449   4.683
50594W        W 9855  16.083  33.450   9.974
50595W        W 9856  28.946  13.247   2.239
50596W        W 9857   5.878  44.881   3.333
50597W        W 9858   1.871  27.083   3.709
50598W        W 9859  37.933   9.348   3.647
50599W        W 9860  23.519   7.688  12.993
50600W        W 9861   8.679  28.551  11.916
50601W        W 9862  13.316  31.570   3.227
50602W        W 9863  28.056  29.500  12.984
50603W        W 9864  33.470  21.575   1.833
50604W        W 9865   4.897  10.876   0.949
50605W        W 9866  27.641  10.226   0.307
50606W        W 9867   2.260  33.107   0.729
50607W        W 9868  38.376   8.293  12.832
50608W        W 9869  38.865   7.331  13.432
50609W        W 9870   6.375  35.102  13.485
50610W        W 9871  24.998  39.337   1.437
50611W        W 9872  25.518  31.985  14.458
50612W        W 9873  14.830   4.776   2.743
50613W        W 9874  25.713  33.021   4.264
50614W        W 9875  16.084  41.021  14.357
50615W        W 9876   9.356  23.549  13.012
50616W        W 9877  37.462  12.845  12.957
50617W        W 9878  30.544  32.601  11.903
50618W        W 9879  19.205  34.099   4.619
50619W        W 9880   6.767  14.291   4.278
50620W        W 9881   3.815  29.664   0.279
50621W        W 9882  14.670  14.106  11.604
50622W        W 9883   9.310   5.704   0.953
50623W        W 9884  41.927   3.924  13.491
50624W        W 9885  24.184  19.761   1.225
50625W        W 9886  32.938   9.330   5.185
50626W        W 9887   8.308   4.828   3.152
50627W        W 9888  29.620  22.052  12.866
50628W        W 9889   5.419  42.023   4.606
50629W        W 9890  10.189  17.654   4.309
50630W        W 9891  38.000   4.905   1.427
50631W        W 9892  29.610   2.891  11.524
50632W        W 9893  14.133  14.628   2.687
50633W        W 9894  30.557  35.903   1.429
50634W        W 9895  42.332  24.165   3.843
50635W        W 9896  19.051  31.086   4.605
50636W        W 9897   1.779  33.562  11.957
50637W        W 9898  28.639  24.673   4.710
50638W        W 9899  13.213  31.528   3.812
50639W        W 9900  23.492   3.948   5.116
50640W        W 9901  16.243  14.231   2.801
50641W        W 9902  38.449   0.447  11.591
50642W        W 9903  14.619  23.048  12.018
50643W        W 9904   9.717  30.478   4.731
50644W        W 9905  35.054  32.030  12.565
50645W        W 9906  41.363  35.478  13.431
50646W        W 9907  21.162  36.906  14.008
50647W        W 9908  31.512  12.337   1.377
50648W        W 9909  12.183  11.347   4.206
50649W        W 9910  37.069   3.460  11.877
50650W        W 9911   6.281  33.043  10.488
50651W        W 9912  16.588  22.162  14.375
50652W        W 9913  31.001  26.145   3.292
50653W        W 9914  21.244  44.278   0.799
50654W        W 9915  23.676   9.243  14.007
50655W        W 9916  32.523  15.742   1.379
50656W        W 9917  11.829  26.551  12.978
50657W        W 9918  20.079  19.201  14.951
50658W        W 9919  39.033  13.797  14.280
50659W        W 9920  18.598  24.511  12.497
50660W        W 9921   4.887  17.089  14.931
50661W        W 9922   1.751  31.450   0.960
50662W        W 9923  21.635  33.554  10.598
50663W        W 9924  19.187  24.510  13.371
50664W        W 9925  41.438   4.389  12.495
50665W        W 9926   9.305  16.295   4.342
50666W        W 9927  43.470   9.155  14.456
50667W        W 9928   7.412  38.493  10.551
50668W        W 9929  29.115  17.124  12.406
50669W        W 9930   3.762   9.732  10.898
50670W        W 9931  38.491   9.713  13.481
50671W        W 9932   2.445  29.930  11.376
50672W        W 9933  16.083  11.225  10.589
50673W        W 9934  37.996  19.233   2.212
50674W        W 9935   0.923  26.985   2.231
50675W        W 9936  23.175  14.318   4.620
50676W        W 9937   8.196  30.920  10.929
50677W        W 9938  25.640  21.712  11.407
50678W        W 9939  42.487  11.751   3.311
50679W        W 9940  41.797  15.176  13.372
50680W        W 9941  16.774  14.246   3.159
50681W        W 9942  37.964  27.093   5.575
50682W        W 9943   5.813  20.119   1.919
50683W        W 9944  32.934  13.167   3.683
50684W        W 9945  26.056   7.403  11.497
50685W        W 9946  42.520   2.252   2.812
50686W        W 9947  12.632  28.589  12.996
50687W        W 9948  39.007  30.017  14.838
50688W        W 9949  34.394  32.442  14.329
50689W        W 9950  18.605   8.250  12.344
50690W        W 9951  13.258  38.947   1.696
50691W        W 9952  25.566   6.864  11.997
50692W        W 9953  21.058   2.794  14.772
50693W        W 9954  11.848   3.239   3.307
50694W        W 9955   9.240  31.627   0.792
50695W        W 9956  37.499  40.353  12.039
50696W        W 9957   8.242  10.774  12.924
50697W        W 9958  19.209  13.808  14.832
50698W        W 9959  36.928  32.899  12.576
50699W        W 9960  34.523  43.950  11.927
50700W        W 9961  12.213  25.964   1.259
50701W        W 9962  19.224   7.822   0.295
50702W        W 9963  20.202  11.233  13.345
50703W        W 9964  22.610   0.271   3.864
50704W        W 9965   8.242  18.208  13.825
50705W        W 9966  30.425  22.192   2.759
50706W        W 9967  38.984  16.103  13.016
50707W        W 9968  26.077  12.293  12.916
50708W        W 9969  22.036  32.938   1.896
50709W        W 9970   9.819   0.910  10.895
50710W        W 9971   3.822  21.036  14.847
50711W        W 9972  43.921   7.832   0.298
50712W        W 9973  17.714  11.719  10.971
50713W        W 9974  13.639   2.896   1.358
50714W        W 9975  15.212  33.018   1.934
50715W        W 9976  12.241  14.801   4.317
50716W        W 9977   8.349   5.883   1.696
50717W        W 9978  27.057   3.289   3.632
50718W        W 9979  14.155  27.153   0.772
50719W        W 9980  30.576   8.659   4.743
50720W        W 9981  24.022  27.519   3.698
50721W        W 9982  22.522  39.827  13.968
50722W        W 9983  19.638  39.869  12.361
50723W        W 9984  34.972  10.841  14.908
50724W        W 9985  26.626  25.530  12.836
50725W        W 9986  40.312  28.471   3.147
50726W        W 9987  26.502  16.085   4.246
50727W        W 9988  38.023   6.304  12.574
50728W        W 9989   1.828  22.252  11.383
50729W        W 9990  10.690  35.587   0.940
50730W        W 9991  32.084  33.596  12.027
50731W        W 9992  33.555   5.753   1.401
50732W        W 9993  37.870   7.378   5.252
50733W        W 9994  26.567  21.586  14.318
50734W        W 9995  34.536  23.026   3.712
50735W        W 9996  12.719   7.902   9.467
50736W        W 9997  34.929  18.567  13.925
50737W        W 9998  43.484  12.145   0.767
50738W        W 9999   6.233  37.416  14.456
50739W        W10000   0.898  17.306  12.030
50740W        W10001  27.996   9.165  13.894
50741W        W10002   2.469  44.490  14.298
50742W        W10003  32.008  30.650  11.507
50743W        W10004   3.377  41.920  12.000
50744W        W10005  29.049  36.586   4.819
50745W        W10006  41.990  25.540   2.224
50746W        W10007  24.096   2.811   2.689
50747W        W10008  34.960  10.184  12.023
50748W        W10009  24.501  21.616   3.858
50749W        W10010  12.723  21.191  13.942
50750W        W10011  44.272   9.199  11.521
50751W        W10012  28.956  38.509  10.977
50752W        W10013  21.580  30.156  12.062
50753W        W10014  10.182  27.178   5.223
50754W        W10015  29.667   1.823  13.060
50755W        W10016  37.573  37.416  13.889
50756W        W10017  43.427  37.367  11.588
50757W        W10018   5.330  14.597  13.931
50758W        W10019  22.643  18.247  12.527
50759W        W10020  18.215  44.436   3.773
50760W        W10021   0.902  35.384   0.446
50761W        W10022  16.194  40.308  13.368
50762W        W10023  29.965  38.536   1.824
50763W        W10024  17.741  18.157   4.811
50764W        W10025  24.032  23.140   4.784
50765W        W10026  14.756  11.681   0.748
50766W        W10027   3.768  23.194   3.149
50767W        W10028   0.823  19.751   0.340
50768W        W10029  21.634  41.847  13.544
50769W        W10030  38.508   0.427   1.797
50770W        W10031  26.694  14.820   1.284
50771W        W10032  34.054  31.608   1.407
50772W        W10033   1.396  26.699  12.076
50773W        W10034  42.813  44.496   3.649
50774W        W10035  43.492  34.572   3.818
50775W        W10036  27.107  42.408  12.089
50776W        W10037  40.959  29.448  11.911
50777W        W10038  41.982  27.602  11.462
50778W        W10039  29.558  33.545  14.942
50779W        W10040  24.029  16.092  10.471
50780W        W10041  18.052  24.682  12.527
50781W        W10042  28.534   9.744   2.367
50782W        W10043  26.176  29.134   1.834
50783W        W10044  16.294   4.707   3.700
50784W        W10045  38.890  44.276   1.340
50785W        W10046  35.981   3.788  13.956
50786W        W10047  11.217  43.493   2.773
50787W        W10048  13.322  42.335   1.810
50788W        W10049  28.516  30.103  10.077
50789W        W10050  31.607  33.092  12.484
50790W        W10051  10.704  38.513   3.170
50791W        W10052   3.899  18.229  14.948
50792W        W10053  27.608  19.714   3.320
50793W        W10054  10.249  16.171  12.940
50794W        W10055  12.146  23.993   1.385
50795W        W10056   0.906   0.975  13.452
50796W        W10057  28.009  22.729  10.628
50797W        W10058  41.822   0.822   0.906
50798W        W10059  18.645  27.011  12.403
50799W        W10060  39.383  10.780   1.294
50800W        W10061  30.646  16.234   3.802
50801W        W10062  32.021  16.645  13.439
50802W        W10063   8.874   4.229  12.474
50803W        W10064  13.702  14.735  14.984
50804W        W10065  26.601  12.341   4.173
50805W        W10066  36.501  34.555   0.390
50806W        W10067  14.285  43.404   0.912
50807W        W10068  42.373  13.148  13.993
50808W        W10069   1.973  14.667  14.948
50809W        W10070  14.203   9.235  11.916
50810W        W10071  18.141  23.009  12.544
50811W        W10072  24.676  30.095   4.661
50812W        W10073  44.382  28.002   0.347
50813W        W10074  42.328  26.565   2.784
50814W        W10075  30.039  37.354   1.706
50815W        W10076  21.557  37.566  13.056
50816W        W10077  29.468  34.542   4.675
50817W        W10078  43.859  27.067   2.690
50818W        W10079  28.457  16.085   2.794
50819W        W10080  39.814  42.892  13.389
50820W        W10081  22.548  24.570  13.036
50821W        W10082  12.647  15.253   4.298
50822W        W10083  36.480  30.953  13.541
50823W        W10084  27.940  35.035  13.423
50824W        W10085  21.619  39.981  13.513
50825W        W10086  23.658  10.331  10.413
50826W        W10087  25.698   6.775   3.307
50827W        W10088  29.079  22.730  11.898
50828W        W10089  18.135  38.494  13.859
50829W        W10090   2.813  41.439   4.792
50830W        W10091  39.473  23.705   0.881
50831W        W10092   0.809   9.653  11.889
50832W        W10093  33.054  19.118  11.491
50833W        W10094  44.925  10.378   3.776
50834W        W10095  17.063  26.698  11.387
50835W        W10096  24.033  25.167  14.371
50836W        W10097   8.279   3.336  11.915
50837W        W10098  15.751   4.349  12.833
50838W        W10099   4.711  10.710   1.212
50839W        W10100  27.974   7.808  12.961
50840W        W10101  44.327  34.893  11.514
50841W        W10102  37.499  34.419  13.407
50842W        W10103  18.621  22.097   2.194
50843W        W10104  31.017  25.531   1.850
50844W        W10105  25.649   7.899   2.705
50845W        W10106   4.854   7.830  13.921
50846W        W10107  23.624  43.304  10.536
50847W        W10108  17.183  21.710  14.372
50848W        W10109  44.310  19.743  13.536
50849W        W10110   3.929  35.032  12.884
50850W        W10111  28.104  44.377  14.771
50851W        W10112  41.295  10.749   1.251
50852W        W10113  10.374   5.739   3.822
50853W        W10114   7.267  28.500   3.725
50854W        W10115  30.915  12.615   4.704
50855W        W10116  28.176  23.699  13.470
50856W        W10117  31.953  12.179  12.546
50857W        W10118  24.194  28.576   1.731
50858W        W10119  30.478   1.879  11.119
50859W        W10120  43.299  35.885   1.293
50860W        W10121  31.938  11.167   5.225
50861W        W10122   7.803  16.601  11.449
50862W        W10123   0.934  28.011  12.885
50863W        W10124  22.111  18.224   0.448
50864W        W10125  21.572  15.233  14.400
50865W        W10126  36.071  42.811  11.570
50866W        W10127  43.418  19.256   4.154
50867W        W10128  38.351  20.578  12.356
50868W        W10129  32.004  37.873  14.820
50869W        W10130  11.731  34.475   3.279
50870W        W10131  26.499  15.286  10.472
50871W        W10132  36.905  26.116   2.334
50872W        W10133   7.322  15.802  11.410
50873W        W10134  25.498   1.425   0.894
50874W        W10135  40.042  26.177  13.893
50875W        W10136  26.567  21.540  11.400
50876W        W10137  12.716  43.848   2.785
50877W        W10138   8.729  33.970  10.507
50878W        W10139  34.425  21.144   3.751
50879W        W10140  10.657  23.594   0.917
50880W        W10141  40.969   6.401   2.198
50881W        W10142  26.191  28.629   0.758
50882W        W10143  31.449  29.473   3.156
50883W        W10144  16.203  13.320   0.815
50884W        W10145  11.846  10.265   2.840
50885W        W10146  25.212  44.847   2.771
50886W        W10147   9.788  20.062   1.828
50887W        W10148   8.768  19.123  11.435
50888W        W10149  21.091  34.578  14.287
50889W        W10150  11.745  36.523   3.793
50890W        W10151  44.781  28.109  10.922
50891W        W10152  22.099  37.064  13.002
50892W        W10153  15.585  21.191   1.427
50893W        W10154  17.285  23.199   1.712
50894W        W10155  19.258  26.530  12.072
50895W        W10156  19.772  30.426  10.027
50896W        W10157  10.157  37.898  11.091
50897W        W10158   9.838  32.998  11.409
50898W        W10159  17.721   9.350   1.335
50899W        W10160  26.995  37.002  14.420
50900W        W10161  38.443  41.922   4.702
50901W        W10162  32.969  21.651   4.244
50902W        W10163  13.607  23.725  13.051
50903W        W10164  27.536   4.802  10.913
50904W        W10165  40.528   9.786   1.334
50905W        W10166  11.279   8.393  11.914
50906W        W10167   7.907   4.704  12.015
50907W        W10168  40.357  10.868  13.532
50908W        W10169  10.220  16.130   1.735
50909W        W10170   4.805  21.057   3.661
50910W        W10171   1.916  30.102  14.366
50911W        W10172  10.724  36.096   1.882
50912W        W10173  22.201  36.921   4.209
50913W        W10174   2.376  23.696  12.010
50914W        W10175  36.042  12.328   1.872
50915W        W10176  30.064  32.035  11.121
50916W        W10177   4.236  32.897   4.698
50917W        W10178  22.061   2.390   3.829
50918W        W10179  18.596  43.361   4.205
50919W        W10180  43.365  35.004   3.317
50920W        W10181  43.399   8.211  14.350
50921W        W10182   7.846  30.016   2.782
50922W        W10183  21.239  32.471  11.461
50923W        W10184  33.626  39.498   0.883
50924W        W10185  33.896   1.833   2.253
50925W        W10186  39.998  27.465   2.307
50926W        W10187  26.171  34.002   3.632
50927W        W10188   7.191  29.569   0.464
50928W        W10189  19.242  36.080   3.717
50929W        W10190   1.303  16.631  12.496
50930W        W10191  41.858  31.489  13.330
50931W        W10192  23.988  43.773   0.966
50932W        W10193  35.866  13.279   4.680
50933W        W10194  33.052  35.408  11.009
50934W        W10195  37.884  13.695  13.878
50935W        W10196  16.645  19.594   3.713
50936W        W10197  25.991  23.115  12.527
50937W        W10198  28.932  28.671   0.355
50938W        W10199  14.104  31.453  13.994
50939W        W10200  37.863  11.177   2.277
50940W        W10201  26.457   3.380   3.806
50941W        W10202   8.220  34.388  14.437
50942W        W10203  11.662  22.514  11.932
50943W        W10204  17.236  41.998  11.912
50944W        W10205  28.970   2.721   1.753
50945W        W10206   4.350   3.346   1.711
50946W        W10207  44.782   9.381   3.750
50947W        W10208  14.718  30.418   2.782
50948W        W10209  42.812  30.573   1.738
50949W        W10210   4.278  13.845   4.692
50950W        W10211  15.633  24.598   2.270
50951W        W10212   7.197  35.985   1.418
50952W        W10213  27.453  39.533  10.485
50953W        W10214   1.416  25.090   3.371
50954W        W10215  13.317  17.556  13.899
50955W        W10216  19.762   2.368   1.371
50956W        W10217   3.785   2.390   1.919
50957W        W10218  28.932  19.153  14.896
50958W        W10219  26.190   7.312  11.983
50959W        W10220  22.634  26.093  13.032
50960W        W10221  43.958  20.714  14.804
50961W        W10222  30.153   8.319   4.261
50962W        W10223  31.468  40.937   1.265
50963W        W10224   8.868   0.934   1.755
50964W        W10225  14.823  11.818   4.747
50965W        W10226  10.316  37.995   2.240
50966W        W10227  36.484  36.542  12.085
50967W        W10228  32.963  13.141   1.213
50968W        W10229  13.685  15.626   0.873
50969W        W10230  25.018   5.701  10.904
50970W        W10231  22.227   0.825  11.066
50971W        W10232  12.300  27.040   0.384
50972W        W10233  39.455  44.902  13.444
50973W        W10234   6.281   3.710   0.296
50974W        W10235  28.946  23.586  13.848
50975W        W10236  13.148  20.129   3.808
50976W        W10237   7.741  37.360  12.844
50977W        W10238   2.860  40.012   0.856
50978W        W10239  24.530   1.348   9.491
50979W        W10240  39.997  32.028  13.817
50980W        W10241  24.669   1.764   3.678
50981W        W10242  42.524  36.422  12.024
50982W        W10243  39.325  31.105  12.053
50983W        W10244  20.150   3.898  12.571
50984W        W10245  18.071  31.579  12.898
50985W        W10246  36.081  25.579  10.573
50986W        W10247  17.755   8.275  14.917
50987W        W10248  24.067   4.853  10.575
50988W        W10249  14.741  27.969  13.376
50989W        W10250   0.941  19.166   3.164
50990W        W10251  14.747  20.529  13.448
50991W        W10252  26.084  20.183  11.581
50992W        W10253  14.192  14.096   4.827
50993W        W10254  38.476   6.258  13.534
50994W        W10255  12.199  19.077  11.446
50995W        W10256  38.527  43.314  11.599
50996W        W10257   4.937  15.613   1.396
50997W        W10258   1.877  44.960   4.251
50998W        W10259  28.105   3.247  12.532
50999W        W10260   6.184  43.987   3.355
51000W        W10261  41.482  28.168  11.002
51001W        W10262   2.430  34.408   2.415
51002W        W10263  32.906  44.412   2.829
51003W        W10264  10.145  13.145   3.722
51004W        W10265  19.684  44.957  13.828
51005W        W10266  19.145   2.266   4.709
51006W        W10267  10.696  31.583   4.721
51007W        W10268   8.166  12.842  13.436
51008W        W10269   5.217  23.227   0.780
51009W        W10270   0.308   8.717  13.322
51010W        W10271  19.715  21.128  10.987
51011W        W10272  37.548  33.900   3.644
51012W        W10273   0.373  37.440   3.793
51013W        W10274  18.115   2.264  13.976
51014W        W10275  43.295   2.916   3.666
51015W        W10276  28.160  26.062  13.950
51016W        W10277   4.764  29.450   0.348
51017W        W10278  11.352  44.965   1.715
51018W        W10279  25.163   2.408   2.416
51019W        W10280  10.273  41.490   1.389
51020W        W10281  42.819  31.131   3.819
51021W        W10282  34.371  31.095   3.807
51022W        W10283  21.138   1.460   3.167
51023W        W10284  15.109  30.134  14.311
51024W        W10285   2.226  28.529  11.089
51025W        W10286  35.061  14.759  13.857
51026W        W10287  23.180  41.874   3.671
51027W        W10288  26.190  17.684  12.952
51028W        W10289  28.622   2.960  12.084
51029W        W10290   3.859  31.923   4.646
51030W        W10291   1.912  15.650   3.259
51031W        W10292  11.824  20.118  10.443
51032W        W10293  37.995  40.385   4.675
51033W        W10294  17.079   4.775   3.243
51034W        W10295  37.031  37.571  11.107
51035W        W10296  44.453  27.982  10.149
51036W        W10297  18.712  28.175   1.845
51037W        W10298  22.023  36.093  11.919
51038W        W10299   7.186  11.214  10.920
51039W        W10300  44.447  19.107   3.865
51040W        W10301  41.893  30.479   4.139
51041W        W10302  44.314  29.134   2.320
51042W        W10303  12.810   3.272   2.199
51043W        W10304  39.416  42.819   1.908
51044W        W10305  38.057  24.042   0.967
51045W        W10306  34.964  22.142   4.279
51046W        W10307  19.164  14.615  10.452
51047W        W10308   3.439   9.165  10.464
51048W        W10309  21.658  19.209   1.429
51049W        W10310  22.025   0.769  14.857
51050W        W10311  44.261  27.562  12.076
51051W        W10312  27.098  12.262   1.753
51052W        W10313  33.884  27.169   3.146
51053W        W10314  34.468   8.274  12.881
51054W        W10315  14.818   5.795   1.210
51055W        W10316   7.688  15.706   4.266
51056W        W10317  32.974  17.288  12.345
51057W        W10318  35.464   1.406  13.004
51058W        W10319  31.453  37.986  13.861
51059W        W10320  24.097  13.263   3.287
51060W        W10321  25.975  17.574  12.428
51061W        W10322  42.868  19.544   2.806
51062W        W10323  11.241   4.435   4.288
51063W        W10324  13.225   2.317  11.406
51064W        W10325  13.628  40.970   4.617
51065W        W10326  28.074  20.072  14.431
51066W        W10327   4.916  31.904  12.940
51067W        W10328  20.766  27.162  14.484
51068W        W10329  42.470   5.408  12.389
51069W        W10330   7.702  24.997  11.490
51070W        W10331  39.948  17.268   0.875
51071W        W10332   4.852  37.063   3.770
51072W        W10333  16.094  14.722  14.876
51073W        W10334  39.551  18.050  11.074
51074W        W10335  25.983  36.975  13.366
51075W        W10336   0.479  15.619  11.402
51076W        W10337   7.398  30.915  13.009
51077W        W10338  16.772  43.009   2.789
51078W        W10339  20.131  43.321   4.187
51079W        W10340   0.443  10.308  14.876
51080W        W10341   5.706  44.398  12.913
51081W        W10342  10.226   3.433   3.837
51082W        W10343   4.311   0.380   0.367
51083W        W10344  41.961   8.404  12.492
51084W        W10345  11.825  17.642  10.547
51085W        W10346  24.062  11.771   3.385
51086W        W10347  24.689  33.490  11.596
51087W        W10348  27.964  42.451   0.941
51088W        W10349  28.070  28.484   1.389
51089W        W10350   4.339  36.412  11.556
51090W        W10351  16.724  15.148  14.275
51091W        W10352  34.074  21.534  12.578
51092W        W10353  38.329  22.161  14.786
51093W        W10354   3.852  44.942  10.918
51094W        W10355  10.374  35.452  14.803
51095W        W10356  11.737  35.960  13.998
51096W        W10357   6.397  40.892   4.229
51097W        W10358  32.976  14.813  10.945
51098W        W10359  28.479  24.502  14.349
51099W        W10360  41.342  12.303   0.967
51100W        W10361  14.699  15.212  13.058
51101W        W10362  15.601  15.731  10.578
51102W        W10363   4.717  34.574  14.863
51103W        W10364   4.844  28.500  12.389
51104W        W10365  14.207  17.739   2.235
51105W        W10366  21.593   3.888  14.366
51106W        W10367  39.480  12.182   3.311
51107W        W10368   5.342  26.040  14.330
51108W        W10369  36.029   6.794   1.759
51109W        W10370  44.497  18.166   3.298
51110W        W10371  12.141   6.734  13.930
51111W        W10372  17.228   7.260   2.796
51112W        W10373  43.403  22.722  10.450
51113W        W10374  18.548  41.894  12.976
51114W        W10375  13.714  22.239   4.237
51115W        W10376  17.644   2.866   0.772
51116W        W10377  29.001  14.765  14.761
51117W        W10378  39.980  33.405  12.945
51118W        W10379  25.063  36.915   2.260
51119W        W10380  33.431   6.807  13.047
51120W        W10381  19.654   5.828  10.531
51121W        W10382  11.691  26.177  10.939
51122W        W10383  30.069  16.634  14.788
51123W        W10384   9.725  35.495  12.446
51124W        W10385  43.848   5.342  14.855
51125W        W10386  25.129   4.249   1.298
51126W        W10387  19.767  29.136  13.432
51127W        W10388  37.464  24.045   2.226
51128W        W10389   4.324  30.646   4.681
51129W        W10390  27.138   2.961  12.079
51130W        W10391  25.007  36.856   4.828
51131W        W10392  43.973   0.929  13.952
51132W        W10393  21.143  27.082   3.229
51133W        W10394  33.082  27.647   1.721
51134W        W10395  33.055  31.146   3.278
51135W        W10396   1.333  25.685   2.843
51136W        W10397   1.466   6.315   1.838
51137W        W10398  25.025  40.897  14.494
51138W        W10399  17.636  35.480   1.340
51139W        W10400   7.370  31.604   0.907
51140W        W10401   1.767  21.086  13.548
51141W        W10402  27.062   0.799  10.583
51142W        W10403  44.391   8.777  14.793
51143W        W10404  31.963   5.786  10.614
51144W        W10405  22.097   3.256   3.218
51145W        W10406  18.109  17.799   2.828
51146W        W10407  24.121  27.450   2.817
51147W        W10408  16.590   0.425  14.838
51148W        W10409  14.713   6.781  12.999
51149W        W10410  17.775   3.448  11.563
51150W        W10411  23.697  12.198   1.215
51151W        W10412  35.465  30.103  12.008
51152W        W10413  39.016  27.504   2.666
51153W        W10414  38.889  30.470  12.884
51154W        W10415  15.320  22.223  12.017
51155W        W10416  18.050  33.123   4.636
51156W        W10417  42.910  19.535  14.976
51157W        W10418   6.301  11.169   0.376
51158W        W10419  19.241  15.737   4.823
51159W        W10420  16.762  31.116  12.985
51160W        W10421  42.493  40.424   1.290
51161W        W10422  22.504  41.457  10.102
51162W        W10423  22.057  38.427   0.331
51163W        W10424  21.262  11.155  11.461
51164W        W10425  43.785  40.360  12.421
51165W        W10426  32.633  18.154  11.505
51166W        W10427   0.932  29.638   2.350
51167W        W10428   6.404   9.368   2.315
51168W        W10429  27.536  15.615   4.310
51169W        W10430  29.493   7.172  10.408
51170W        W10431  25.208  24.074   2.324
51171W        W10432  16.792  30.002  11.386
51172W        W10433   8.822  13.293  10.971
51173W        W10434  18.136   3.735  11.078
51174W        W10435  11.720   9.832  13.821
51175W        W10436  15.118  25.140  11.031
51176W        W10437  33.902  30.503   1.916
51177W        W10438  10.833   3.725   3.854
51178W        W10439   2.872  38.365  13.540
51179W        W10440  19.273  35.409  10.586
51180W        W10441  33.398  10.667  10.950
51181W        W10442  30.641   9.847   2.864
51182W        W10443   4.842  14.228   3.201
51183W        W10444  43.420  14.261  10.987
51184W        W10445  34.055  33.618  12.967
51185W        W10446  33.900  30.163  10.592
51186W        W10447   1.847  10.232  13.427
51187W        W10448  42.863  34.891  11.104
51188W        W10449   6.261  20.554   1.280
51189W        W10450  14.165  24.067   4.741
51190W        W10451  10.319  21.620   2.814
51191W        W10452  13.342   5.755  13.970
51192W        W10453  13.123  27.496  10.513
51193W        W10454  17.289  15.291  13.791
51194W        W10455  38.997  19.245   4.117
51195W        W10456  40.962  10.291  10.585
51196W        W10457  27.034   9.383  13.815
51197W        W10458  12.279  11.814   3.213
51198W        W10459  41.875  30.128   4.618
51199W        W10460  43.487  24.083   4.828
51200W        W10461  15.281  22.675  12.416
51201W        W10462   5.778  16.678   2.286
51202W        W10463  10.753  12.268  11.907
51203W        W10464  22.669  11.671  12.572
51204W        W10465  41.884   8.262   2.410
51205W        W10466  16.594  39.493  14.900
51206W        W10467  28.065  38.932   2.230
51207W        W10468  40.942  32.508   1.419
51208W        W10469   7.222  41.010  11.955
51209W        W10470   1.770   9.214   4.653
51210W        W10471  10.863  17.560   4.710
51211W        W10472  38.847   4.241  14.759
51212W        W10473  37.960  44.439   0.919
51213W        W10474  34.904   8.678  12.851
51214W        W10475  41.440  32.599   1.358
51215W        W10476  39.317  39.981  14.773
51216W        W10477  21.068   9.668   3.722
51217W        W10478   2.893   0.468   2.259
51218W        W10479  33.937   2.844   4.220
51219W        W10480  11.674  16.207   3.769
51220W        W10481  27.584   9.808  12.502
51221W        W10482  37.554  21.160  14.953
51222W        W10483  28.487  12.230   1.378
51223W        W10484  30.950  12.666  13.530
51224W        W10485  22.559  15.290   1.419
51225W        W10486  12.197  22.582   2.749
51226W        W10487  42.337  20.175  14.513
51227W        W10488   4.247   8.380  13.459
51228W        W10489  27.591   3.864  13.916
51229W        W10490  27.120  44.315  10.143
51230W        W10491  15.823   4.917   4.625
51231W        W10492   7.210  19.650  14.845
51232W        W10493   9.303  20.173   3.335
51233W        W10494  36.022  43.465   3.759
51234W        W10495  39.513  16.292   2.325
51235W        W10496   4.340  33.504   3.196
51236W        W10497  20.172  27.000  10.157
51237W        W10498  21.704   8.827  13.328
51238W        W10499  29.117  12.119   3.205
51239W        W10500  10.141  23.228   2.278
51240W        W10501  36.035  34.374   3.783
51241W        W10502   7.689  24.128  14.849
51242W        W10503  44.455  18.080  13.803
51243W        W10504  38.443  41.344  12.893
51244W        W10505  29.595  21.103   3.763
51245W        W10506  25.575  29.118  14.384
51246W        W10507  38.470  35.514  13.357
51247W        W10508  16.620  33.115  14.288
51248W        W10509  40.820  18.214   1.375
51249W        W10510  43.779  38.889  10.908
51250W        W10511  16.222  39.381  10.566
51251W        W10512  42.032  19.596   4.262
51252W        W10513  16.696   2.730  11.010
51253W        W10514  12.308  43.820   1.743
51254W        W10515  35.528   1.833  10.964
51255W        W10516  37.547  30.478   1.924
51256W        W10517  44.339  16.147   0.326
51257W        W10518  38.867  35.100  11.932
51258W        W10519  38.921  28.160   4.178
51259W        W10520  15.690  31.536  10.557
51260W        W10521  41.797  17.563  14.294
51261W        W10522  30.494  22.729  12.483
51262W        W10523   3.409  36.534  10.438
51263W        W10524  14.665  40.372   4.138
51264W        W10525  42.945  39.417  10.613
51265W        W10526  43.985   6.794   2.785
51266W        W10527  22.617  19.604  14.376
51267W        W10528  34.416  31.932  11.107
51268W        W10529  27.526  21.706   1.751
51269W        W10530  24.527   4.328  11.391
51270W        W10531   2.834   7.848  13.954
51271W        W10532  24.610   7.706  12.031
51272W        W10533  12.259  20.112   3.171
51273W        W10534  39.917  16.117  10.508
51274W        W10535   5.716  24.596   0.464
51275W        W10536  15.628  30.468   2.202
51276W        W10537  42.002  28.114   1.869
51277W        W10538   8.337  14.264   2.358
51278W        W10539  20.272  11.348   1.345
51279W        W10540  12.231  24.120  12.894
51280W        W10541  19.161  38.884  11.556
51281W        W10542  26.512  25.545  11.873
51282W        W10543  27.512   7.866   0.340
51283W        W10544  12.775  37.356  12.489
51284W        W10545  14.794   4.798  12.431
51285W        W10546  40.379  15.583   2.269
51286W        W10547  16.706  39.831   1.305
51287W        W10548  16.786  14.747  12.962
51288W        W10549  28.561  32.969  11.566
51289W        W10550  42.987   7.909  11.397
51290W        W10551  10.271  16.769  10.993
51291W        W10552  38.555  41.337   0.953
51292W        W10553  25.480  11.277   1.777
51293W        W10554  31.998  21.558   2.285
51294W        W10555  14.719  30.980  10.469
51295W        W10556   8.264  12.684   0.799
51296W        W10557  39.009  22.556   4.701
51297W        W10558  14.176  17.184   4.195
51298W        W10559  18.659  37.453  12.913
51299W        W10560  13.209  24.993   5.313
51300W        W10561  20.030  26.073  12.991
51301W        W10562  16.801   8.867  11.071
51302W        W10563   9.331  40.829   3.682
51303W        W10564  20.273  32.563  11.592
51304W        W10565  27.516  44.980   3.701
51305W        W10566  43.948  28.554  11.117
51306W        W10567  15.766  43.834   4.699
51307W        W10568  20.604  44.759   4.648
51308W        W10569  14.769  37.521  10.902
51309W        W10570  43.449   1.322  12.537
51310W        W10571  28.614  19.280  11.026
51311W        W10572   2.795  37.572  13.450
51312W        W10573  13.840   1.480  14.469
51313W        W10574  23.175  30.003   4.659
51314W        W10575  37.445  33.533  11.077
51315W        W10576   1.440  14.638   2.200
51316W        W10577   5.202  23.993   1.923
51317W        W10578  11.735  14.812   0.909
51318W        W10579  14.303  30.094  14.279
51319W        W10580   2.448   4.213  14.317
51320W        W10581  38.889  22.650   4.118
51321W        W10582  24.214   1.772   2.802
51322W        W10583  16.188  16.243   3.177
51323W        W10584  36.522   5.783  11.080
51324W        W10585   6.230  41.994  14.794
51325W        W10586  12.613  20.576   2.204
51326W        W10587   6.345  21.145   4.689
51327W        W10588  43.513  35.898  11.503
51328W        W10589   3.902  15.611  13.840
51329W        W10590   1.326  22.067  14.423
51330W        W10591  41.358  12.630   2.374
51331W        W10592  43.482  17.752  11.584
51332W        W10593  36.017  39.885  14.895
51333W        W10594  44.934  22.033   1.931
51334W        W10595  13.229  30.912   0.291
51335W        W10596   7.850  41.420   3.648
51336W        W10597  30.559  21.137  10.926
51337W        W10598  35.108  36.541   0.299
51338W        W10599  22.722  27.115  13.497
51339W        W10600  10.773  28.470  11.599
51340W        W10601  23.998   4.763   1.853
51341W        W10602  25.112  44.796   0.478
51342W        W10603  27.578   2.247   2.732
51343W        W10604  38.914  13.239  13.310
51344W        W10605   5.747  37.468   5.280
51345W        W10606  36.008  26.577   5.174
51346W        W10607   9.279   4.900   2.406
51347W        W10608  19.157  17.252  11.892
51348W        W10609  17.195  35.886   5.186
51349W        W10610   0.929  35.863  12.061
51350W        W10611  41.522  10.345   0.455
51351W        W10612   9.706  22.512  13.313
51352W        W10613  17.700  23.562  10.477
51353W        W10614  39.998   4.828   1.281
51354W        W10615  22.606   7.883  14.307
51355W        W10616  28.945  25.692   2.668
51356W        W10617   2.252   9.297  12.042
51357W        W10618  17.182   0.795  13.812
51358W        W10619  15.711  42.933  10.112
51359W        W10620   8.225  27.560  13.941
51360W        W10621  33.107  25.118   2.358
51361W        W10622  37.020  15.308   0.282
51362W        W10623  17.204  42.827   4.693
51363W        W10624  43.326   5.303  14.823
51364W        W10625  11.717  41.511  13.416
51365W        W10626  30.536   5.309   0.796
51366W        W10627   5.310   8.373  14.989
51367W        W10628  19.717  18.609   2.861
51368W        W10629  22.034  34.535   4.283
51369W        W10630  42.810   8.759   3.185
51370W        W10631  21.687  30.572  14.005
51371W        W10632  42.398   9.162   0.875
51372W        W10633   7.234  26.589   2.856
51373W        W10634  15.782  38.009   4.667
51374W        W10635   8.697  43.815   0.251
51375W        W10636  26.066  36.467  13.537
51376W        W10637   0.883   2.724  12.843
51377W        W10638  10.868  10.376  14.762
51378W        W10639  38.875  34.029   1.770
51379W        W10640  12.753   9.819  14.395
51380W        W10641  11.215   5.917   2.886
51381W        W10642   4.916  18.713   2.373
51382W        W10643   9.674   7.762   3.384
51383W        W10644  22.721  13.714  14.908
51384W        W10645  38.515  11.373  13.319
51385W        W10646   8.748  18.170  11.508
51386W        W10647  35.530  17.143  13.463
51387W        W10648  34.024  21.594   1.291
51388W        W10649  38.514  43.827  14.910
51389W        W10650  10.817  34.446   0.270
51390W        W10651  28.057  30.988   2.822
51391W        W10652  44.969  16.716   4.171
51392W        W10653  21.755  28.024   4.180
51393W        W10654  19.550   4.884   9.451
51394W        W10655  41.419  36.386   5.130
51395W        W10656  31.567  19.658  14.284
51396W        W10657  36.453  42.904  13.386
51397W        W10658  36.939  22.163   3.669
51398W        W10659  25.201  41.907   2.710
51399W        W10660  27.564  32.422   2.182
51400W        W10661   0.901  15.610   0.332
51401W        W10662  39.817  19.552  14.380
51402W        W10663  19.249  31.607   0.838
51403W        W10664  41.834  34.440   1.764
51404W        W10665  21.758  38.866   1.826
51405W        W10666  22.681  11.699   5.263
51406W        W10667   5.424  13.613   0.910
51407W        W10668  18.231   1.474   0.967
51408W        W10669  18.181  44.918   2.809
51409W        W10670  13.299  36.068   2.349
51410W        W10671  11.262   5.707  11.939
51411W        W10672  30.597  27.006  13.909
51412W        W10673  17.112  19.732   3.210
51413W        W10674   3.411   7.796  10.030
51414W        W10675   5.782  31.431   2.845
51415W        W10676   2.740  37.904   1.906
51416W        W10677   4.359  23.187  13.455
51417W        W10678  36.864   7.263  12.976
51418W        W10679   6.376   2.728  14.415
51419W        W10680  36.954  40.958  14.786
51420W        W10681  20.145   3.299   4.813
51421W        W10682  32.121   1.782  13.827
51422W        W10683   4.926  18.129  11.377
51423W        W10684  22.632   6.212   0.744
51424W        W10685  41.827  21.690   3.377
51425W        W10686  24.003  13.242  14.822
51426W        W10687  26.501  44.809   3.354
51427W        W10688   4.321  16.691   3.723
51428W        W10689  33.929  12.169   0.457
51429W        W10690  33.460   5.874   2.302
51430W        W10691  24.567  40.399   4.764
51431W        W10692  24.997  35.371   4.226
51432W        W10693  32.050   9.849   5.237
51433W        W10694  16.316  21.739   1.392
51434W        W10695  16.811  21.101   2.287
51435W        W10696  37.511  30.115   1.769
51436W        W10697  16.733   3.451  10.590
51437W        W10698  10.303  39.824   4.758
51438W        W10699  14.109  13.842  12.899
51439W        W10700   5.412  36.952  10.641
51440W        W10701  32.972  17.790   4.215
51441W        W10702  13.139   9.231  12.028
51442W        W10703  21.526  44.873   2.181
51443W        W10704  33.449  42.422   4.335
51444W        W10705  27.974  10.273   3.210
51445W        W10706   9.804  25.615  14.466
51446W        W10707   8.171  39.015   0.480
51447W        W10708  41.434  34.086   4.615
51448W        W10709  35.538  16.664   1.694
51449W        W10710  28.654  13.152  11.883
51450W        W10711  23.536   3.908  14.441
51451W        W10712  33.470  26.197   1.286
51452W        W10713  39.050  42.286  11.547
51453W        W10714   3.931  18.266   0.918
51454W        W10715  40.858  36.075   1.350
51455W        W10716  32.487  14.761  10.983
51456W        W10717  44.823  19.157  12.514
51457W        W10718   9.659  33.933  12.383
51458W        W10719  21.093  35.853   1.912
51459W        W10720  28.968   7.893  14.854
51460W        W10721  33.123  24.515  13.919
51461W        W10722  14.751  23.659   3.300
51462W        W10723   9.209  16.769   0.781
51463W        W10724  41.363  31.566   0.774
51464W        W10725  17.775  30.132   4.285
51465W        W10726   8.695  37.945  12.889
51466W        W10727  10.804  43.879  10.512
51467W        W10728  20.724  38.976   4.309
51468W        W10729  40.041   8.688   2.795
51469W        W10730  40.485  37.378  11.437
51470W        W10731  10.648  15.784   3.243
51471W        W10732  16.170  11.856   4.778
51472W        W10733  43.896  23.523  12.935
51473W        W10734   7.266  11.795   2.326
51474W        W10735  26.655  29.102   3.832
51475W        W10736   4.372  27.187   1.250
51476W        W10737   9.356  16.642  12.029
51477W        W10738  11.815   4.348  11.916
51478W        W10739  34.987  35.359  14.009
51479W        W10740  25.704  21.024  12.400
51480W        W10741   9.728  35.863  10.552
51481W        W10742   3.842  36.007   1.319
51482W        W10743  33.991  44.344  11.573
51483W        W10744  22.188   4.774   0.960
51484W        W10745   1.790  11.131   1.776
51485W        W10746  38.349  20.183   2.819
51486W        W10747  22.095  18.677  10.141
51487W        W10748  22.201  43.894  12.914
51488W        W10749   1.800  43.778   1.255
51489W        W10750  38.878  19.169  10.926
51490W        W10751  44.490   4.388   0.423
51491W        W10752   6.303  26.587  10.969
51492W        W10753   4.351   7.247  10.452
51493W        W10754  44.338  23.584  10.625
51494W        W10755  17.192  25.168  12.943
51495W        W10756  41.889  12.151  13.940
51496W        W10757   3.877  24.672  11.551
51497W        W10758  23.100   5.243   3.243
51498W        W10759  34.968  12.689   1.797
51499W        W10760   8.862  22.598   2.665
51500W        W10761  32.580   7.754  12.004
51501W        W10762  15.592  18.135  13.369
51502W        W10763  19.556  24.183   4.706
51503W        W10764   9.693   2.955  10.614
51504W        W10765  39.382  36.849  12.827
51505W        W10766   2.445  16.237  11.097
51506W        W10767  16.754   3.927  10.112
51507W        W10768  44.448  37.928  10.110
51508W        W10769  40.845  18.771  10.935
51509W        W10770  27.152   8.819   4.171
51510W        W10771   4.781  25.185   0.339
51511W        W10772  15.105  36.919   1.915
51512W        W10773  24.570  37.419  14.995
51513W        W10774  38.542  44.761   3.762
51514W        W10775  31.904  35.861   0.427
51515W        W10776  39.452  37.350   9.555
51516W        W10777  32.051   6.711  12.826
51517W        W10778  42.968  26.639  11.965
51518W        W10779  38.487  38.561   1.724
51519W        W10780   4.882   5.395  14.831
51520W        W10781  28.643  37.498   4.282
51521W        W10782  39.505  13.267  14.439
51522W        W10783  23.008  20.249  10.139
51523W        W10784  25.490   9.184   1.320
51524W        W10785  42.485  33.527   3.219
51525W        W10786  36.522  26.535  12.942
51526W        W10787   0.945  10.336   0.754
51527W        W10788  13.702   8.729   4.834
51528W        W10789  27.615   2.736  14.874
51529W        W10790  34.488   1.784  11.013
51530W        W10791  11.333  14.690  12.007
51531W        W10792  34.990   7.172  10.016
51532W        W10793  19.079  41.400  10.527
51533W        W10794   1.263  12.247  11.025
51534W        W10795  13.744  31.632  12.999
51535W        W10796  26.093   2.365   2.280
51536W        W10797  20.533  18.202  10.944
51537W        W10798  41.981   7.329  14.444
51538W        W10799  38.859  40.972   1.710
51539W        W10800  18.212  14.793   2.325
51540W        W10801  37.004   4.288  10.912
51541W        W10802  20.671  32.450  11.959
51542W        W10803  41.438   6.785  13.840
51543W        W10804  33.497  41.960  12.943
51544W        W10805  37.900  40.313   0.288
51545W        W10806  35.916  33.938   1.246
51546W        W10807   2.371  11.161   3.325
51547W        W10808   6.805  26.694   2.235
51548W        W10809  41.377  19.759   2.413
51549W        W10810  12.206  13.701   4.751
51550W        W10811  36.885  35.899   0.432
51551W        W10812  21.086  31.593  13.337
51552W        W10813  37.924  18.218  13.332
51553W        W10814  14.247  39.030  13.900
51554W        W10815   6.204  10.655  10.589
51555W        W10816  11.316  43.284   2.196
51556W        W10817  33.072  20.613   2.707
51557W        W10818  13.681  18.080  12.562
51558W        W10819  41.821  14.207  12.075
51559W        W10820  10.226  41.449  12.024
51560W        W10821  44.362  16.695   4.769
51561W        W10822  17.175  30.974   3.267
51562W        W10823  27.522  20.730   4.174
51563W        W10824  30.612   9.158  12.920
51564W        W10825  36.979  42.886   0.773
51565W        W10826  35.497   6.687  11.090
51566W        W10827  14.229  43.400   5.180
51567W        W10828  36.066  31.047   0.424
51568W        W10829   9.694  36.399  12.434
51569W        W10830  11.339  22.048  14.855
51570W        W10831  34.078   5.231   3.809
51571W        W10832   0.897   9.352  13.435
51572W        W10833  31.040   6.883   0.923
51573W        W10834  16.597  13.686  11.501
51574W        W10835  38.036   7.389  11.904
51575W        W10836  39.948  14.676  14.386
51576W        W10837  32.537  12.167  10.931
51577W        W10838  28.627  10.311  11.968
51578W        W10839   9.370  30.937   2.697
51579W        W10840  27.569   9.807   4.772
51580W        W10841  19.112  26.165   3.812
51581W        W10842  36.862  26.136  13.859
51582W        W10843  11.789  24.658  13.058
51583W        W10844   2.874   1.739  11.080
51584W        W10845  17.247  44.292   5.106
51585W        W10846  25.484  37.908   2.267
51586W        W10847  15.763  22.736   2.798
51587W        W10848   3.293  29.492   4.804
51588W        W10849  18.091  18.119  12.568
51589W        W10850  39.903  12.248   0.389
51590W        W10851  11.327   7.394  13.007
51591W        W10852  39.861  13.729   4.193
51592W        W10853  24.039  42.387  10.404
51593W        W10854  33.948  24.500  12.435
51594W        W10855  18.726   2.276  12.466
51595W        W10856  25.600  12.729  11.087
51596W        W10857  31.488  42.508   2.841
51597W        W10858  13.215   0.451   3.820
51598W        W10859   7.782   6.726   2.902
51599W        W10860  32.032   4.759   3.325
51600W        W10861   7.826  10.793  13.981
51601W        W10862  37.431  12.193   3.378
51602W        W10863  15.644  10.352   0.824
51603W        W10864   2.880  35.042   1.908
51604W        W10865  40.833  42.499  11.024
51605W        W10866  37.380  18.610   4.285
51606W        W10867   1.900  33.910  13.867
51607W        W10868  14.815  31.020   1.886
51608W        W10869  34.500  12.836   2.296
51609W        W10870  38.066  28.935   3.696
51610W        W10871   9.300  18.087   1.871
51611W        W10872  12.197  16.198   3.635
51612W        W10873  41.889  33.916  12.361
51613W        W10874  22.520  16.131  13.462
51614W        W10875   0.802  36.914  10.491
51615W        W10876   5.297  27.955  10.478
51616W        W10877  41.344  33.066   4.666
51617W        W10878   9.163  43.496   2.674
51618W        W10879  17.704   1.280   1.270
51619W        W10880  19.041  40.053  12.412
51620W        W10881  33.918  41.912  11.450
51621W        W10882  30.159  23.558   2.341
51622W        W10883  30.115  17.602   0.328
51623W        W10884  10.161  40.320  14.515
51624W        W10885  21.635   7.344   1.751
51625W        W10886  42.395   5.315  13.311
51626W        W10887  32.992  22.055   1.872
51627W        W10888  14.222  41.357   0.426
51628W        W10889  12.292  26.197   1.698
51629W        W10890  28.026  43.906   3.823
51630W        W10891  32.978  25.985   0.323
51631W        W10892  34.444  22.702  12.053
51632W        W10893  31.628  20.105  11.981
51633W        W10894  34.905   5.851   0.330
51634W        W10895  28.572   5.280   2.329
51635W        W10896  15.174  11.242   0.932
51636W        W10897   6.275  42.830   9.928
51637W        W10898  28.675  44.786   1.711
51638W        W10899  10.782   0.397  11.007
51639W        W10900  31.088  20.751   2.200
51640W        W10901  28.112   8.767   3.199
51641W        W10902  36.384  34.445   0.829
51642W        W10903  14.332   5.282   3.698
51643W        W10904   5.403  18.699  10.895
51644W        W10905  14.726   2.308   3.247
51645W        W10906  21.107  33.001  11.555
51646W        W10907   4.917  42.467   4.829
51647W        W10908  12.790  32.077   4.157
51648W        W10909   8.336  32.897  13.505
51649W        W10910   9.814  28.507  12.993
51650W        W10911  12.331   8.725   3.216
51651W        W10912   4.236  21.601  12.408
51652W        W10913   3.407  28.187   4.348
51653W        W10914  36.976  29.612   4.700
51654W        W10915  19.078  39.392   2.712
51655W        W10916   6.841  14.310  10.457
51656W        W10917  42.293  19.660  14.844
51657W        W10918  31.423  33.911   2.191
51658W        W10919  37.400  12.711   1.331
51659W        W10920   9.288   6.314  12.011
51660W        W10921  19.130  38.841   1.741
51661W        W10922  31.140  24.132  13.452
51662W        W10923  34.011  22.223  14.482
51663W        W10924  11.347  23.092  12.019
51664W        W10925  33.550  37.021   2.294
51665W        W10926  14.147  23.218  13.508
51666W        W10927  35.507  39.507   3.823
51667W        W10928   3.834  22.172  13.462
51668W        W10929   5.305  41.506   2.408
51669W        W10930  24.648  15.182  14.010
51670W        W10931   9.778  28.559   1.722
51671W        W10932  14.113   3.392   0.455
51672W        W10933  36.560   2.807  13.049
51673W        W10934  36.891  38.834  11.430
51674W        W10935  17.703  34.520  11.540
51675W        W10936   2.837   2.775   0.414
51676W        W10937  40.855  33.053   3.715
51677W        W10938  19.629   1.279  13.952
51678W        W10939  11.792  35.388   3.692
51679W        W10940  30.000   3.774   2.885
51680W        W10941  33.012  13.746   2.693
51681W        W10942   7.412  15.221  13.044
51682W        W10943  17.130  20.653   2.279
51683W        W10944   5.360  38.956  13.924
51684W        W10945  12.702  21.600   4.668
51685W        W10946  30.516  31.475  10.964
51686W        W10947   9.167   2.300  10.604
51687W        W10948  39.823  37.013  12.011
51688W        W10949  28.453   4.855   3.232
51689W        W10950  27.139   8.703   0.886
51690W        W10951  34.449  27.572  14.439
51691W        W10952  22.139  23.505   0.429
51692W        W10953   6.680  26.078   3.182
51693W        W10954  14.644  43.472   0.768
51694W        W10955  36.081  25.691  12.341
51695W        W10956  15.179  21.195  12.837
51696W        W10957  42.790  26.056   2.886
51697W        W10958   4.338  41.799   1.847
51698W        W10959  12.663  31.642  13.019
51699W        W10960  23.182  15.269   2.310
51700W        W10961   9.839   8.828  13.041
51701W        W10962  21.561  15.788  12.045
51702W        W10963   2.910   3.281   4.601
51703W        W10964  41.412   1.395  13.005
51704W        W10965  33.528   7.831   2.794
51705W        W10966  27.628  32.400  12.459
51706W        W10967  33.602  43.880   1.292
51707W        W10968  31.058  10.172  10.029
51708W        W10969  24.999  42.348  12.519
51709W        W10970  39.371  24.009  13.000
51710W        W10971  21.702  24.225   2.731
51711W        W10972   8.360  18.753   2.307
51712W        W10973  19.772   5.703   0.926
51713W        W10974  31.131  41.835   0.726
51714W        W10975  43.980  39.454   1.900
51715W        W10976  35.009  37.851   4.308
51716W        W10977  32.921  40.513  13.832
51717W        W10978  31.052  34.031   2.732
51718W        W10979   2.255  32.023   1.335
51719W        W10980   7.849  15.145  14.812
51720W        W10981  21.080   2.286   3.674
51721W        W10982  42.789  23.091   3.867
51722W        W10983  34.936  15.695   5.118
51723W        W10984  38.434  11.651   2.373
51724W        W10985   1.429  40.324   1.218
51725W        W10986  38.849   0.967   9.949
51726W        W10987   4.916   8.239  10.438
51727W        W10988  22.584  32.924  11.486
51728W        W10989  35.002  10.853  14.398
51729W        W10990  12.247  28.045  12.547
51730W        W10991  38.447  13.661  12.092
51731W        W10992  35.526  41.353   3.635
51732W        W10993  31.938  24.546   3.231
51733W        W10994  13.311   0.327   0.456
51734W        W10995   7.745  25.062   4.125
51735W        W10996  27.152   2.438  12.988
51736W        W10997  35.394  29.130   2.376
51737W        W10998   0.926  37.882  14.401
51738W        W10999  17.595  32.541   4.624
51739W        W11000  33.962  26.105   1.761
51740W        W11001  42.984  37.084  12.401
51741W        W11002  37.576  43.472   0.790
51742W        W11003  18.760  42.892  14.503
51743W        W11004  13.299  28.958   4.348
51744W        W11005   9.667  41.856   0.730
51745W        W11006  43.912   7.331   0.945
51746W        W11007   5.764  29.581  10.996
51747W        W11008  20.268  36.485   3.722
51748W        W11009  19.748   8.403  10.445
51749W        W11010  42.827  39.022  12.975
51750W        W11011  10.365   6.863  12.505
51751W        W11012  42.810  34.376  12.019
51752W        W11013  17.211  23.733  12.927
51753W        W11014  35.954  11.251  14.768
51754W        W11015  30.574  21.523   2.291
51755W        W11016  16.277  28.129   2.398
51756W        W11017  17.285  18.582  10.408
51757W        W11018   4.284  19.638  13.402
51758W        W11019  24.141  10.849  11.591
51759W        W11020  32.054  18.713  12.452
51760W        W11021  30.615   5.731  12.931
51761W        W11022  31.042  43.814   0.907
51762W        W11023  22.071  14.238   4.196
51763W        W11024  34.496  18.119  14.484
51764W        W11025  27.146  38.553   2.217
51765W        W11026  31.914   9.670  14.389
51766W        W11027  28.091  39.494  13.494
51767W        W11028  20.242   2.771   1.832
51768W        W11029   6.781  20.058   1.277
51769W        W11030  26.567   9.333  12.972
51770W        W11031  40.018   9.339  10.632
51771W        W11032  13.227   4.266  13.464
51772W        W11033  43.369  23.127   0.933
51773W        W11034   6.333   5.693  14.479
51774W        W11035  18.723  29.480  11.008
51775W        W11036  27.599  23.113  12.916
51776W        W11037  23.105   5.907  12.576
51777W        W11038  33.593  16.092  12.988
51778W        W11039   6.329  16.241   1.863
51779W        W11040  39.894   1.751   0.386
51780W        W11041  15.795  24.598   0.727
51781W        W11042  27.583  30.451   0.249
51782W        W11043  21.598  41.326   3.353
51783W        W11044  22.156  29.121  14.973
51784W        W11045  28.527  12.329  12.890
51785W        W11046  44.938  39.407  10.582
51786W        W11047  11.238   8.264  13.450
51787W        W11048  41.325  36.915   1.276
51788W        W11049  24.622   9.700   2.247
51789W        W11050  19.667  20.569   5.320
51790W        W11051  14.267  29.605  13.011
51791W        W11052  39.861   5.427   2.822
51792W        W11053  23.034  16.148   4.126
51793W        W11054  42.507  22.236   3.301
51794W        W11055  41.353  35.936  11.382
51795W        W11056  27.688   1.970   1.246
51796W        W11057  12.301   7.860  13.381
51797W        W11058   1.341  12.334  14.887
51798W        W11059  36.094  34.029  14.485
51799W        W11060  28.158  11.141   0.842
51800W        W11061  12.849  30.076   0.956
51801W        W11062   8.315  26.554   2.383
51802W        W11063  25.991  35.051  11.075
51803W        W11064  21.208  16.169  11.962
51804W        W11065   6.389  35.039   3.292
51805W        W11066  40.828  16.647   2.759
51806W        W11067   6.692  44.840   3.810
51807W        W11068   6.836  39.417  12.419
51808W        W11069   4.909  14.256   1.355
51809W        W11070  11.277  18.253   1.869
51810W        W11071  14.130   1.916  12.842
51811W        W11072  28.169  28.006  11.894
51812W        W11073   6.403   2.961  11.440
51813W        W11074  42.014   6.320  12.085
51814W        W11075   7.686  30.564   0.400
51815W        W11076   9.208  20.549   2.356
51816W        W11077  44.396  41.327   1.378
51817W        W11078  23.704  40.318  11.047
51818W        W11079  14.307  44.310  14.913
51819W        W11080  42.853  40.380   4.137
51820W        W11081   8.785  39.508  13.804
51821W        W11082  41.027  25.700   3.307
51822W        W11083   4.870  17.241   4.767
51823W        W11084   9.220  43.376  14.297
51824W        W11085  42.352  15.130  10.480
51825W        W11086  16.086  34.463  11.420
51826W        W11087  32.559  42.810   4.332
51827W        W11088  11.264  30.055  10.895
51828W        W11089  26.093  22.141   1.889
51829W        W11090  20.669   3.318   1.315
51830W        W11091  34.931  19.273  13.909
51831W        W11092  27.624  29.073   1.785
51832W        W11093  28.965   8.854   3.170
51833W        W11094  32.992  39.421   4.182
51834W        W11095  19.727  20.243  11.541
51835W        W11096  22.029  42.944   1.893
51836W        W11097  38.019  17.266   4.785
51837W        W11098  33.579  38.412  12.416
51838W        W11099  39.432  39.337  10.974
51839W        W11100  20.552  32.590  13.389
51840W        W11101   7.365  29.432  14.371
51841W        W11102  20.169  14.106   4.237
51842W        W11103  15.174  43.318  13.848
51843W        W11104  17.746   7.223   4.212
51844W        W11105  18.592  34.907  13.495
51845W        W11106  40.055  10.198   2.194
51846W        W11107  43.918   8.663  13.961
51847W        W11108  34.455   5.933   0.771
51848W        W11109  10.717  19.239   2.827
51849W        W11110  41.928  16.585   4.134
51850W        W11111  23.091   4.414  12.915
51851W        W11112   9.715  24.029  11.378
51852W        W11113  13.247   0.376  10.117
51853W        W11114  16.086   1.821   3.370
51854W        W11115  34.009   6.784   0.302
51855W        W11116   2.852  38.910  11.880
51856W        W11117  43.365   8.180  11.979
51857W        W11118  41.901  39.436   2.214
51858W        W11119  30.519  22.023  11.595
51859W        W11120  25.600  14.235  12.826
51860W        W11121  44.468  38.828   5.155
51861W        W11122  24.152  11.742  14.371
51862W        W11123   8.390  43.315  10.979
51863W        W11124  25.117  10.685   0.337
51864W        W11125  26.597   2.414  13.342
51865W        W11126  27.560   6.900   2.248
51866W        W11127   0.919  22.706  12.990
51867W        W11128  30.991  10.374   0.726
51868W        W11129  33.982  35.441   0.862
51869W        W11130   5.855   9.654  13.841
51870W        W11131  12.351  19.176  10.932
51871W        W11132  21.118   3.280  13.005
51872W        W11133  26.600   9.796  14.967
51873W        W11134  25.211   6.890  11.528
51874W        W11135   2.365  26.093   3.737
51875W        W11136  29.432  16.777   4.726
51876W        W11137  36.986  14.732   3.189
51877W        W11138  41.907  41.008   3.387
51878W        W11139   8.803  35.035   0.742
51879W        W11140  11.829  19.589  12.947
51880W        W11141   2.739  24.496  14.815
51881W        W11142   0.431  43.784  14.828
51882W        W11143  19.079   2.747   2.743
51883W        W11144  44.953  39.864   2.681
51884W        W11145   9.765   5.829  11.884
51885W        W11146  42.299  22.716   9.943
51886W        W11147  24.109  36.430   1.709
51887W        W11148  11.829  23.073  13.985
51888W        W11149   9.755  12.327   0.422
51889W        W11150   1.405   8.310  14.912
51890W        W11151  19.221  22.725  11.535
51891W        W11152  43.967   1.798   0.771
51892W        W11153  14.328  34.530  11.125
51893W        W11154  34.521  33.496   3.244
51894W        W11155  11.166  31.572  11.956
51895W        W11156  15.235  36.904  13.409
51896W        W11157  27.192  43.965  14.456
51897W        W11158  10.786  27.062   0.906
51898W        W11159  18.183  33.496  10.515
51899W        W11160  17.174  19.675  14.459
51900W        W11161  16.784  42.375   0.862
51901W        W11162  31.975  22.224  11.915
51902W        W11163  10.826  13.823   0.301
51903W        W11164  18.211  24.630   1.361
51904W        W11165   8.241  14.599   2.247
51905W        W11166  34.000  34.085   1.902
51906W        W11167  13.344  35.479   2.313
51907W        W11168  16.713  29.525   3.770
51908W        W11169  40.808  25.533   4.228
51909W        W11170  21.237   0.846   1.828
51910W        W11171  17.655  36.438  14.798
51911W        W11172  22.658   3.321  14.870
51912W        W11173  21.567  15.264   0.425
51913W        W11174   3.741  11.135  13.867
51914W        W11175   8.304  15.760   4.264
51915W        W11176  11.176   0.892   3.249
51916W        W11177  34.999   4.431  14.289
51917W        W11178  26.581  32.910   3.755
51918W        W11179  27.512  22.169  11.517
51919W        W11180  20.190  27.526   3.825
51920W        W11181   1.449  41.042   0.313
51921W        W11182  39.863  16.570  14.346
51922W        W11183   5.276   3.393   1.698
51923W        W11184  26.564  34.072   1.445
51924W        W11185  27.483  22.150   1.700
51925W        W11186  13.842   8.233  10.519
51926W        W11187  12.796  13.232   3.823
51927W        W11188  44.477  10.146  11.026
51928W        W11189  17.732   4.373   1.311
51929W        W11190  29.075  15.136  12.492
51930W        W11191   7.210  10.174   2.806
51931W        W11192   1.441  28.441  13.826
51932W        W11193  10.352  29.159  11.526
51933W        W11194  12.131  42.454  12.051
51934W        W11195  30.908  18.733   2.377
51935W        W11196  15.665  15.240   0.760
51936W        W11197  20.062  23.066  10.562
51937W        W11198   0.823   6.289   0.431
51938W        W11199  24.507  16.574   0.959
51939W        W11200   7.406  26.487  12.984
51940W        W11201  31.965  24.085   2.848
51941W        W11202  40.510   7.345   2.671
51942W        W11203  27.082  44.978   1.856
51943W        W11204  31.505  12.643   2.337
51944W        W11205   8.349  11.747   1.852
51945W        W11206  15.242  41.997   2.871
51946W        W11207  29.579   2.252  10.417
51947W        W11208   3.902  28.655  11.005
51948W        W11209  10.304  15.228   3.346
51949W        W11210  30.578  18.236   1.427
51950W        W11211   3.442   0.754   3.163
51951W        W11212  12.117  30.964  14.469
51952W        W11213   4.216  44.987   2.282
51953W        W11214  13.743  20.737   0.431
51954W        W11215  11.149  33.987  10.610
51955W        W11216  10.194  19.621   3.340
51956W        W11217  38.055  29.567  11.522
51957W        W11218  32.574   7.717  14.005
51958W        W11219  29.519  43.466  10.490
51959W        W11220  13.720  25.656   2.867
51960W        W11221  14.667  23.636  12.030
51961W        W11222  30.493  23.490   0.920
51962W        W11223  34.031  28.060   2.675
51963W        W11224  39.445  15.730   0.909
51964W        W11225  42.401  19.705   0.394
51965W        W11226   9.233  18.581   4.602
51966W        W11227  32.496  24.544   4.195
51967W        W11228  13.794   7.702   2.772
51968W        W11229  29.517  20.125  14.484
51969W        W11230  14.782  17.078  11.870
51970W        W11231  34.002   6.230   4.181
51971W        W11232  42.369  11.219  13.398
51972W        W11233  38.029  18.150  13.813
51973W        W11234  12.171  17.158  14.369
51974W        W11235  31.063  18.060  10.105
51975W        W11236  34.977  37.560   5.192
51976W        W11237  25.585  12.320  12.970
51977W        W11238  15.579  18.222   2.869
51978W        W11239  14.767  25.194   4.176
51979W        W11240  24.556  11.236   2.328
51980W        W11241  21.179   1.833  13.481
51981W        W11242  12.732  23.641  10.973
51982W        W11243  33.479  42.344   0.814
51983W        W11244  18.098  29.167   3.250
51984W        W11245   3.789  17.767  10.453
51985W        W11246  23.064  32.029  13.883
51986W        W11247  29.614  20.169   4.610
51987W        W11248  41.835   9.659  13.054
51988W        W11249  33.577  15.281   2.306
51989W        W11250  16.590  32.125   5.206
51990W        W11251  44.424  24.211   5.310
51991W        W11252   7.740  21.159   1.742
51992W        W11253  43.924  31.529  13.530
51993W        W11254   4.890   6.395  12.518
51994W        W11255   1.954  20.626   1.848
51995W        W11256  23.567  27.080  11.111
51996W        W11257  19.607  19.266  13.981
51997W        W11258   0.782  39.385   4.810
51998W        W11259  34.590   3.373  12.541
51999W        W11260  33.597  26.997   4.232
52000W        W11261   3.857  41.311   4.200
52001W        W11262  38.538  13.274  11.557
52002W        W11263  27.460  28.468   2.860
52003W        W11264   0.312  10.295   3.676
52004W        W11265  35.438   2.251  12.548
52005W        W11266  15.605  39.919  13.009
52006W        W11267  35.941  41.917  14.455
52007W        W11268  31.010  11.349   0.312
52008W        W11269  24.563  20.699   4.711
52009W        W11270  25.689  42.320   1.409
52010W        W11271  27.622  43.283  13.936
52011W        W11272  34.999  29.056   4.219
52012W        W11273   3.833  19.764   4.756
52013W        W11274   7.732  25.104   2.214
52014W        W11275   7.675  14.140   0.911
52015W        W11276   7.779  42.830   1.855
52016W        W11277  15.186  14.767   4.113
52017W        W11278  33.619  30.551  13.036
52018W        W11279  22.189   6.869  13.362
52019W        W11280  16.103   6.809   1.283
52020W        W11281  26.593  42.826  14.449
52021W        W11282   7.723   0.482  10.564
52022W        W11283   8.709   0.775   5.250
52023W        W11284  27.993   4.249  10.621
52024W        W11285   5.416  21.545  14.028
52025W        W11286   1.838  25.579   0.797
52026W        W11287  32.007  25.987  12.361
52027W        W11288  31.553  34.946  11.120
52028W        W11289  34.909  20.545   0.867
52029W        W11290  15.255  30.608  13.012
52030W        W11291  41.826  35.517  14.394
52031W        W11292  19.251   8.659  12.088
52032W        W11293  40.482  23.193   4.342
52033W        W11294  26.661   0.804  12.031
52034W        W11295  16.258  16.723   4.827
52035W        W11296   5.432  25.010  11.966
52036W        W11297  23.556  11.331   0.876
52037W        W11298  23.629  43.984   0.472
52038W        W11299  17.710  27.116   2.889
52039W        W11300  41.421  22.176   3.842
52040W        W11301   0.484   3.790   4.119
52041W        W11302  30.530   8.704   5.115
52042W        W11303  27.158  11.645   2.783
52043W        W11304  35.099  29.623   5.208
52044W        W11305  16.303   7.740   0.769
52045W        W11306  38.895   1.786  11.058
52046W        W11307   2.282  12.223  12.404
52047W        W11308  42.934  15.720   3.686
52048W        W11309  32.579  43.407   4.827
52049W        W11310  21.028  29.170   2.224
52050W        W11311  42.907  43.297   2.230
52051W        W11312  37.967  26.501   3.717
52052W        W11313  42.839  28.159   1.767
52053W        W11314  26.665  19.113   0.279
52054W        W11315  25.688  28.542  14.516
52055W        W11316  26.507   1.329   2.862
52056W        W11317  18.616  17.597   1.913
52057W        W11318   5.897  13.171   3.306
52058W        W11319  14.325  36.071  11.007
52059W        W11320  38.425  44.490  10.955
52060W        W11321  37.970  40.389  13.845
52061W        W11322  21.642   5.703  13.487
52062W        W11323  14.593  12.760   5.195
52063W        W11324  22.710  42.842   2.888
52064W        W11325  15.637   2.785  14.868
52065W        W11326  27.071  26.108  13.051
52066W        W11327  27.556  39.881  10.641
52067W        W11328   4.288  32.029   4.761
52068W        W11329   6.333  21.525  12.835
52069W        W11330  35.102  17.189   3.183
52070W        W11331   8.183  41.332   3.725
52071W        W11332  36.069  29.606   4.752
52072W        W11333   2.238  44.981  11.929
52073W        W11334  32.542   5.929   0.944
52074W        W11335  21.193  39.874  14.392
52075W        W11336  31.425   1.338  11.409
52076W        W11337  44.973  34.959  14.932
52077W        W11338  32.393  25.058  14.365
52078W        W11339  40.036  21.623  13.800
52079W        W11340  36.077  34.946   4.127
52080W        W11341  19.566  28.056  14.411
52081W        W11342  16.605  22.670   0.308
52082W        W11343  16.743  43.328  13.328
52083W        W11344  35.939  36.968  11.562
52084W        W11345  24.105  18.076   2.291
52085W        W11346  40.367  33.592   2.865
52086W        W11347   6.699  22.242  14.497
52087W        W11348  15.237  21.608  12.939
52088W        W11349  34.022  15.734  13.335
52089W        W11350  26.643   7.849   5.098
52090W        W11351   6.862   3.770  10.406
52091W        W11352  42.342   5.929   2.291
52092W        W11353  26.504  41.321  14.473
52093W        W11354  13.203  17.572  11.920
52094W        W11355  33.990  39.335  12.837
52095W        W11356  20.050  37.887  11.062
52096W        W11357  44.433  22.074  13.821
52097W        W11358  24.551  34.408   4.669
52098W        W11359   2.465  17.128   1.386
52099W        W11360  12.627  11.331  11.917
52100W        W11361  42.868  22.232  12.054
52101W        W11362  14.652  19.647   2.850
52102W        W11363   1.838  44.316   1.227
52103W        W11364  43.824   2.904   3.670
52104W        W11365  17.092  32.953   0.253
52105W        W11366   7.397  33.995   1.210
52106W        W11367  30.127   0.430   1.256
52107W        W11368   0.820   5.702  10.122
52108W        W11369  14.822  36.848   4.241
52109W        W11370  24.166  19.132  11.573
52110W        W11371   4.264  11.634   3.692
52111W        W11372   2.372  33.397   4.687
52112W        W11373  19.535  35.075   1.237
52113W        W11374  41.844  27.958  12.075
52114W        W11375  16.232  44.771  11.380
52115W        W11376  23.669   9.677   1.229
52116W        W11377  17.588  21.227   1.213
52117W        W11378  39.482  44.271   3.251
52118W        W11379  27.691  31.424   1.247
52119W        W11380  11.211  41.385   1.713
52120W        W11381  16.075  33.621   4.302
52121W        W11382  17.785  36.451   2.762
52122W        W11383  19.223   9.384  12.028
52123W        W11384  33.970  21.751   4.297
52124W        W11385  42.367   3.413   0.795
52125W        W11386  31.403  34.009  12.878
52126W        W11387  35.872  16.205  13.350
52127W        W11388  27.643  35.958   1.340
52128W        W11389  16.155  24.151  10.922
52129W        W11390  29.646  38.886  14.512
52130W        W11391  36.968  18.138   1.726
52131W        W11392   8.304   7.382   4.680
52132W        W11393  35.537  42.519  12.896
52133W        W11394   5.295  32.593   0.887
52134W        W11395  34.934  23.548  14.357
52135W        W11396  15.697  16.584   0.810
52136W        W11397  25.120  23.642  11.015
52137W        W11398  42.368  29.469  10.493
52138W        W11399   1.330  11.370  13.879
52139W        W11400  30.037  32.007   1.359
52140W        W11401  18.199  28.148  14.325
52141W        W11402  11.147   5.744   4.610
52142W        W11403  11.189  28.666   0.966
52143W        W11404   6.204  31.409  13.820
52144W        W11405   6.797   6.383  12.870
52145W        W11406  44.323   1.765  11.420
52146W        W11407  10.835  25.177   1.810
52147W        W11408  11.727  33.998  13.515
52148W        W11409   6.698  37.428  10.512
52149W        W11410   2.727  28.462   3.276
52150W        W11411  19.672   4.940   1.786
52151W        W11412  17.690  12.192  13.919
52152W        W11413  33.541  26.581   3.851
52153W        W11414   6.732   1.897   3.344
52154W        W11415  32.437  28.560   0.275
52155W        W11416  42.426  15.806  13.342
52156W        W11417  27.005   0.435   5.593
52157W        W11418  36.862  33.965   0.869
52158W        W11419  40.473   2.883   0.901
52159W        W11420  11.289  16.595   2.887
52160W        W11421  35.965  43.006   1.443
52161W        W11422   1.732  21.236  12.343
52162W        W11423  37.830  41.340  11.498
52163W        W11424   9.267  33.405   3.742
52164W        W11425   1.348  10.371  14.887
52165W        W11426  36.365  20.655  12.095
52166W        W11427   5.301  25.083  12.945
52167W        W11428  18.772  34.583  10.633
52168W        W11429   5.221  21.733  11.426
52169W        W11430   2.433  37.832   4.316
52170W        W11431  38.826  20.690  12.463
52171W        W11432  14.665  11.696   3.341
52172W        W11433  30.115   4.396   1.384
52173W        W11434  19.170  21.740  11.415
52174W        W11435  33.025  17.763  12.949
52175W        W11436  32.577  35.488   0.304
52176W        W11437  11.144   5.254  12.908
52177W        W11438   7.864   3.450  14.405
52178W        W11439  21.676  37.479  14.822
52179W        W11440  17.667  35.551  11.037
52180W        W11441   5.305   3.344   3.199
52181W        W11442  38.018  26.041  12.554
52182W        W11443  42.864  12.814  10.461
52183W        W11444  40.902  27.634   0.436
52184W        W11445  41.810   0.303   2.894
52185W        W11446  40.514  31.006  13.953
52186W        W11447  15.086  39.981   4.326
52187W        W11448  21.719  24.480   1.907
52188W        W11449   2.868   1.880  13.040
52189W        W11450  34.585  42.408   4.681
52190W        W11451  37.473  23.089  14.923
52191W        W11452  15.301  24.086   3.310
52192W        W11453  11.790  38.951   0.322
52193W        W11454  38.059   7.762   0.925
52194W        W11455  38.830  39.988   2.255
52195W        W11456  40.022   3.305   1.722
52196W        W11457  24.159  44.258  13.350
52197W        W11458  20.070   9.249  14.919
52198W        W11459  21.236   0.250  13.445
52199W        W11460  41.379  43.875   0.952
52200W        W11461  40.468  26.594   2.816
52201W        W11462   7.878  18.719   3.704
52202W        W11463  29.577  32.616  11.936
52203W        W11464   7.893   5.786   1.212
52204W        W11465  42.511  29.014   2.402
52205W        W11466  33.617  29.157  13.801
52206W        W11467  12.634  25.651   0.764
52207W        W11468  26.601  24.979   4.601
52208W        W11469  14.171  20.219   0.305
52209W        W11470   3.419  23.511  10.079
52210W        W11471  33.415  29.959   4.752
52211W        W11472   7.201  24.024  12.012
52212W        W11473  18.295  41.988   4.838
52213W        W11474  32.914  15.775   0.752
52214W        W11475  25.619  41.795  13.328
52215W        W11476   3.246  26.965  13.545
52216W        W11477  36.966  39.417  11.936
52217W        W11478  28.085  23.565  12.403
52218W        W11479  25.139  37.926  12.524
52219W        W11480  15.626  11.720  10.482
52220W        W11481  21.628  25.012   0.376
52221W        W11482  17.630  43.803  12.433
52222W        W11483   9.254  23.613  13.448
52223W        W11484  36.905   8.862   2.267
52224W        W11485   2.772  35.537   3.187
52225W        W11486  26.182  17.165  10.578
52226W        W11487  40.533  37.384   1.742
52227W        W11488  14.198   7.378   1.779
52228W        W11489   2.444  31.587  10.466
52229W        W11490  18.604   5.260  14.802
52230W        W11491  17.111  36.879  14.339
52231W        W11492   9.237   7.890   3.672
52232W        W11493  30.507  32.480  13.332
52233W        W11494   7.342  23.669  13.530
52234W        W11495  28.075  12.824   1.376
52235W        W11496  44.758  14.117  12.502
52236W        W11497  39.985  38.823  14.419
52237W        W11498  27.979  19.714  14.464
52238W        W11499  13.704  10.682   0.338
52239W        W11500  10.182   9.242   2.884
52240W        W11501   0.443   6.327  14.441
52241W        W11502  29.002  43.492  11.469
52242W        W11503  18.787  27.645  14.856
52243W        W11504  25.572   8.312  13.858
52244W        W11505  10.285  20.652  12.442
52245W        W11506  36.909  31.518   2.844
52246W        W11507   8.662  24.178  14.007
52247W        W11508  16.691  32.109   2.343
52248W        W11509  11.141  21.626   0.307
52249W        W11510   9.167  22.221   0.360
52250W        W11511  44.981  31.046  12.427
52251W        W11512   4.269  39.960   1.931
52252W        W11513  23.028   0.845   2.193
52253W        W11514  41.934  15.628  14.029
52254W        W11515  31.057  22.106   0.282
52255W        W11516  11.834  21.239  13.814
52256W        W11517  37.416  14.604  11.545
52257W        W11518  32.542  18.599  13.496
52258W        W11519  27.975   6.756  13.401
52259W        W11520  13.185  28.469   4.325
52260W        W11521   2.756  17.690  11.891
52261W        W11522  14.315  31.112  11.899
52262W        W11523   9.168  28.677   3.191
52263W        W11524  16.265  13.613   2.244
52264W        W11525  18.790  14.724  11.061
52265W        W11526  40.342  44.342   3.384
52266W        W11527  14.698   1.276  11.472
52267W        W11528   0.353  36.955  10.897
52268W        W11529  40.393   5.723  14.422
52269W        W11530   9.654  14.145  12.576
52270W        W11531  12.685  26.513   4.230
52271W        W11532  19.227  33.570  11.523
52272W        W11533   5.797  14.336   3.641
52273W        W11534   4.749  27.668  10.090
52274W        W11535  41.029  22.017   3.685
52275W        W11536  15.817  15.192   2.712
52276W        W11537  24.584   0.796   0.366
52277W        W11538  37.348  41.901  11.495
52278W        W11539  20.758  40.888  10.582
52279W        W11540  32.577  30.427  11.550
52280W        W11541   2.893   3.291   0.368
52281W        W11542  26.123  38.987   0.943
52282W        W11543  17.177   4.882  13.969
52283W        W11544  13.829  19.077   1.813
52284W        W11545   5.350  32.142  11.964
52285W        W11546  41.850  37.410  11.418
52286W        W11547  37.346  35.064  12.958
52287W        W11548  11.782  44.332  12.562
52288W        W11549  12.806  19.240   0.967
52289W        W11550   7.352  16.656   2.217
52290W        W11551  29.474   3.901   2.787
52291W        W11552  38.872   0.938   1.375
52292W        W11553   0.299   5.886   3.734
52293W        W11554  25.512  21.633   3.747
52294W        W11555   7.186  37.457   4.200
52295W        W11556  27.190  16.737   3.722
52296W        W11557  11.272  11.249   3.255
52297W        W11558  34.032  10.821  14.888
52298W        W11559  19.561  17.755   4.771
52299W        W11560  31.485  34.566   1.225
52300W        W11561  20.097   0.258   1.352
52301W        W11562   8.399  41.428   4.692
52302W        W11563  22.247   0.421   3.788
52303W        W11564   1.971  23.171  13.831
52304W        W11565  37.362  16.568   1.338
52305W        W11566  35.555  37.921   3.352
52306W        W11567  43.429  40.474  14.808
52307W        W11568  12.665  21.561   0.249
52308W        W11569  17.690  43.811   2.401
52309W        W11570  42.955  39.382   4.305
52310W        W11571  18.176  43.992  14.429
52311W        W11572   8.876  40.841  11.080
52312W        W11573  36.887  44.978  13.821
52313W        W11574  24.651  13.675   0.446
52314W        W11575   4.861   0.462   4.803
52315W        W11576  21.070  39.924   0.806
52316W        W11577  33.888  12.824  13.842
52317W        W11578  13.625  44.914  11.898
52318W        W11579   1.406  18.628  12.052
52319W        W11580  12.163  24.129   3.846
52320W        W11581  37.994  14.299   5.173
52321W        W11582  31.543  16.617   3.276
52322W        W11583  18.592   9.825   2.261
52323W        W11584   6.753  14.251  13.882
52324W        W11585  33.979  35.968  10.474
52325W        W11586   6.380  14.183  14.305
52326W        W11587  13.816  30.440   1.741
52327W        W11588  41.999  31.079  13.499
52328W        W11589  13.146   2.303   2.851
52329W        W11590  20.266  23.621  14.361
52330W        W11591   1.914  44.461  11.552
52331W        W11592  41.946  18.693  12.856
52332W        W11593  13.773   8.362   9.614
52333W        W11594  37.380   9.297   5.281
52334W        W11595  30.520  33.062   0.370
52335W        W11596   6.380   7.338  13.836
52336W        W11597  29.031  27.676  14.874
52337W        W11598  37.945   6.790  13.933
52338W        W11599  17.246  31.517  13.904
52339W        W11600  42.472  42.306   1.353
52340W        W11601   2.946   8.852  10.988
52341W        W11602  37.028  25.479  10.593
52342W        W11603  36.399   5.194  10.405
52343W        W11604  41.359  43.468  14.006
52344W        W11605  37.424  37.465  12.557
52345W        W11606  42.929  33.481  14.775
52346W        W11607  34.117  18.208  12.471
52347W        W11608   6.224  37.937  10.608
52348W        W11609   0.754   9.386   0.293
52349W        W11610  29.961  27.018  11.875
52350W        W11611  22.020  20.621  10.925
52351W        W11612   9.756  35.550  14.360
52352W        W11613  44.491  37.529   2.337
52353W        W11614  17.226  40.500  12.439
52354W        W11615  13.339  31.918   9.982
52355W        W11616  39.894  14.199  14.848
52356W        W11617  42.857  34.055  11.104
52357W        W11618  30.419   0.446  14.430
52358W        W11619  24.221  13.633  11.490
52359W        W11620  18.760  37.485   0.248
52360W        W11621   9.357  25.476   2.353
52361W        W11622  33.580  17.767   2.790
52362W        W11623  39.489  39.928   0.450
52363W        W11624   3.353  25.171   2.319
52364W        W11625  34.055  38.509   0.836
52365W        W11626   9.829  39.457   0.281
52366W        W11627  13.142  41.328  10.064
52367W        W11628  21.022  43.808  10.936
52368W        W11629  21.601   9.806  13.309
52369W        W11630  35.531  42.472  11.456
52370W        W11631  22.559  23.193   3.314
52371W        W11632  24.174   2.281   3.296
52372W        W11633  22.651   1.331  13.351
52373W        W11634  40.032   5.786   3.726
52374W        W11635  19.536  25.662   3.768
52375W        W11636  19.098  24.166   9.940
52376W        W11637   1.856   1.834   0.354
52377W        W11638  17.273  11.771  13.414
52378W        W11639  36.417  34.992   3.297
52379W        W11640  10.175  35.593   1.410
52380W        W11641  41.004  10.660   2.251
52381W        W11642  23.603  24.008   0.955
52382W        W11643  22.042  23.578   2.291
52383W        W11644  37.483  37.910  12.939
52384W        W11645  19.664  33.620   4.811
52385W        W11646  10.837   1.240  15.000
52386W        W11647  35.968  30.022   1.309
52387W        W11648  27.537  43.388  12.495
52388W        W11649  16.166  27.161  12.033
52389W        W11650   5.782  14.226   1.822
52390W        W11651  14.150  42.818  14.003
52391W        W11652  38.558   9.372  13.406
52392W        W11653  39.542   8.790  11.874
52393W        W11654   3.786  31.084   1.790
52394W        W11655   3.381  31.040  14.783
52395W        W11656  18.254   3.251   2.281
52396W        W11657  30.107  42.494  11.600
52397W        W11658  26.013  39.518   0.766
52398W        W11659   2.372  16.150   3.254
52399W        W11660  11.329   4.270  10.615
52400W        W11661  34.086  30.988  11.026
52401W        W11662   3.812  42.962  14.791
52402W        W11663  23.693   4.444   3.816
52403W        W11664  29.646  16.304  11.372
52404W        W11665  36.398   3.815  14.802
52405W        W11666   4.784  19.126  14.492
52406W        W11667  18.107   8.341  12.090
52407W        W11668  29.617  25.512   3.328
52408W        W11669  38.026   9.708   0.955
52409W        W11670  19.247   7.386   3.735
52410W        W11671  44.866  23.003   0.761
52411W        W11672  14.682  24.720  11.508
52412W        W11673   6.383  43.906   4.655
52413W        W11674  10.184   5.198  14.863
52414W        W11675  16.769  26.655  10.478
52415W        W11676   1.878  36.412  12.093
52416W        W11677  23.638  39.041  11.467
52417W        W11678   4.937  22.692   2.711
52418W        W11679  21.116  29.955   4.735
52419W        W11680  43.771  22.558  12.509
52420W        W11681   1.379   3.448  12.875
52421W        W11682  40.408  40.308   2.845
52422W        W11683  27.984  31.484  11.427
52423W        W11684  28.457  12.318   3.771
52424W        W11685   0.932  39.483   0.836
52425W        W11686  30.517  37.391  14.016
52426W        W11687  36.397  10.266   3.696
52427W        W11688   0.765  31.004  10.589
52428W        W11689  16.799  30.042   4.786
52429W        W11690  41.828  40.985   3.747
52430W        W11691   0.986  44.009   0.319
52431W        W11692  11.867   6.362  12.542
52432W        W11693  25.215   1.416   1.721
52433W        W11694   8.826  34.420  12.440
52434W        W11695  27.608  30.001  10.952
52435W        W11696  27.978  20.660   1.700
52436W        W11697  15.119  16.635   4.616
52437W        W11698  21.602  14.289   2.789
52438W        W11699  23.025  15.089   3.159
52439W        W11700  44.433   0.818   0.397
52440W        W11701   8.187  36.954   1.782
52441W        W11702  18.770  15.304   3.811
52442W        W11703  30.140  30.143   5.792
52443W        W11704  34.995   2.430   3.202
52444W        W11705  33.981  27.068  14.007
52445W        W11706  19.184  40.485   2.334
52446W        W11707  40.336   1.940   1.288
52447W        W11708  29.620  11.282  14.304
52448W        W11709  28.652  39.967   2.862
52449W        W11710  34.426  36.422  14.937
52450W        W11711  16.600   0.765   4.351
52451W        W11712  37.527  37.537   3.806
52452W        W11713  27.154  12.669  12.492
52453W        W11714  27.110   5.284   1.812
52454W        W11715  42.932   6.813   2.785
52455W        W11716  29.652  31.958   1.427
52456W        W11717   3.762   1.806   3.753
52457W        W11718  38.862  42.398   3.816
52458W        W11719  11.310  31.008   4.173
52459W        W11720  17.118  28.961  12.873
52460W        W11721   7.880  26.966  11.605
52461W        W11722  15.598  36.501   4.238
52462W        W11723  11.729   0.964  14.775
52463W        W11724  35.550  12.189  13.011
52464W        W11725  28.081  25.115   4.790
52465W        W11726  20.718  32.051   2.899
52466W        W11727   8.844  44.376   0.421
52467W        W11728  40.954  37.444   3.152
52468W        W11729   9.841   5.346   3.188
52469W        W11730  44.392  16.621   4.273
52470W        W11731  12.693  35.501  10.570
52471W        W11732  18.635  12.673   1.406
52472W        W11733  34.397  37.058  13.489
52473W        W11734  34.513   0.928  12.384
52474W        W11735   0.395  14.150  10.502
52475W        W11736  17.591  22.648   3.710
52476W        W11737  27.003  40.040   3.764
52477W        W11738  22.209  23.117   0.327
52478W        W11739   8.307  21.721   3.196
52479W        W11740   4.863   1.292   2.773
52480W        W11741  23.500  32.088  10.939
52481W        W11742  39.436  36.467   4.742
52482W        W11743   1.745  11.691  11.036
52483W        W11744  33.095   6.883   4.640
52484W        W11745  44.343  22.232   9.924
52485W        W11746  19.258  11.224   4.159
52486W        W11747   5.240  15.789   0.824
52487W        W11748  42.017   0.804  14.280
52488W        W11749   4.350  44.880  14.386
52489W        W11750   9.678   3.879   2.291
52490W        W11751   2.752  26.062  13.027
52491W        W11752  16.317  27.167   3.319
52492W        W11753  19.717  15.821   0.779
52493W        W11754  13.112  17.229   4.334
52494W        W11755  31.976  34.497   4.171
52495W        W11756   6.762  36.552   4.645
52496W        W11757  14.249  44.862   2.725
52497W        W11758  40.315  23.499   4.636
52498W        W11759  38.996  11.252   1.862
52499W        W11760   2.960   9.695  13.453
52500W        W11761   7.371   5.220   4.351
52501W        W11762  32.576  34.515  12.086
52502W        W11763  28.057  24.704   4.293
52503W        W11764   7.201  44.884   2.201
52504W        W11765   3.344  11.334   4.136
52505W        W11766  11.185  11.312  11.911
52506W        W11767  34.969  29.496   0.814
52507W        W11768  15.724  43.308   1.328
52508W        W11769  33.454  13.601   3.225
52509W        W11770  10.682  11.347  11.050
52510W        W11771   3.320  15.144  11.372
52511W        W11772  39.908  15.306  14.787
52512W        W11773  41.805   6.261   3.794
52513W        W11774  40.377  21.515   4.797
52514W        W11775  36.470  33.468   0.961
52515W        W11776  43.282  16.679  12.573
52516W        W11777  40.973  30.452  10.548
52517W        W11778   9.176   1.977  11.583
52518W        W11779  24.502  44.455  14.375
52519W        W11780  29.647  14.203   4.751
52520W        W11781  34.974   2.348   4.837
52521W        W11782  43.888  20.557  12.926
52522W        W11783   4.830   8.300   2.346
52523W        W11784   4.785  19.192  11.044
52524W        W11785  10.315   2.343   4.704
52525W        W11786  19.190  26.496   9.664
52526W        W11787  29.041   8.327   0.439
52527W        W11788  10.642  30.568   1.390
52528W        W11789  15.307  15.606   4.301
52529W        W11790  44.458  39.046  10.119
52530W        W11791   6.709  15.633  12.509
52531W        W11792   5.876  16.726   1.363
52532W        W11793  33.602   7.171   0.267
52533W        W11794   7.908  33.889  14.996
52534W        W11795  38.902  18.586  13.443
52535W        W11796  37.460  36.938  10.480
52536W        W11797  14.097   1.804  14.347
52537W        W11798  35.417  18.268   1.766
52538W        W11799  17.092  42.921  12.896
52539W        W11800   1.908   3.838   4.302
52540W        W11801  37.874  41.407   0.411
52541W        W11802  21.577  37.958   1.270
52542W        W11803   6.822  25.564  10.602
52543W        W11804  29.009  39.923  10.582
52544W        W11805   5.400  15.649   2.347
52545W        W11806  40.441  32.560   3.671
52546W        W11807  35.431  11.174   2.371
52547W        W11808  22.160  24.508  14.384
52548W        W11809  35.441  14.135  12.958
52549W        W11810   2.252  34.937   5.253
52550W        W11811  13.250  13.742  11.441
52551W        W11812  35.392   8.332   0.372
52552W        W11813  28.957  15.148   4.762
52553W        W11814  12.671  32.541  10.444
52554W        W11815  27.493   8.699  14.786
52555W        W11816  15.795  32.036   2.864
52556W        W11817  32.560   8.240  11.425
52557W        W11818  24.141  10.635   2.785
52558W        W11819   6.269  33.479  14.817
52559W        W11820  10.862  40.936   1.302
52560W        W11821  35.055  42.472   0.910
52561W        W11822  23.232  35.443  12.417
52562W        W11823  24.655  42.282  14.880
52563W        W11824  30.941   2.853   2.293
52564W        W11825  25.536  27.451   0.446
52565W        W11826  15.271  35.067   4.801
52566W        W11827  28.111   1.822  12.510
52567W        W11828  18.223  16.126  14.762
52568W        W11829  37.363  38.360  12.880
52569W        W11830  32.481  26.067   0.317
52570W        W11831  16.128  17.664  13.958
52571W        W11832  28.571   4.832  11.383
52572W        W11833   8.866  41.887   1.797
52573W        W11834  40.875  12.775   2.678
52574W        W11835  37.853   4.410  12.452
52575W        W11836  26.006  43.800   2.360
52576W        W11837  20.567   6.830  12.874
52577W        W11838  21.040   6.913   2.240
52578W        W11839  20.109  29.079  14.840
52579W        W11840  36.421  13.333  14.492
52580W        W11841   2.874  33.912  10.490
52581W        W11842  36.593   4.702  11.592
52582W        W11843  32.049  38.820  11.534
52583W        W11844  17.772  16.291  14.902
52584W        W11845  20.196  13.173  11.089
52585W        W11846  27.591  37.417   4.765
52586W        W11847  43.768  37.036   2.303
52587W        W11848  13.318   4.223   0.362
52588W        W11849  28.102  40.937  10.414
52589W        W11850  16.620   6.916   3.764
52590W        W11851   7.346  16.720  11.921
52591W        W11852  43.503  43.984   2.234
52592W        W11853   7.269  16.101   3.759
52593W        W11854  34.515   7.873  13.952
52594W        W11855   0.960  10.851  10.948
52595W        W11856  23.640   9.158  12.513
52596W        W11857  34.016  17.772   4.223
52597W        W11858  23.120  23.674   3.290
52598W        W11859  11.849  33.390  14.926
52599W        W11860   5.756  30.099   3.231
52600W        W11861   1.306   8.245   3.299
52601W        W11862  43.402  29.500   3.260
52602W        W11863  32.013   6.738   0.839
52603W        W11864  41.861  13.204  11.120
52604W        W11865  28.678  19.570  13.405
52605W        W11866  30.123  38.471  12.882
52606W        W11867  40.402  37.435  11.036
52607W        W11868  26.527  19.099   3.781
52608W        W11869  41.351  24.610  13.919
52609W        W11870  36.060  25.020   4.663
52610W        W11871  10.198  22.532  11.593
52611W        W11872   8.850  42.442   1.330
52612W        W11873  41.821   6.907  14.786
52613W        W11874  38.036  36.934  13.038
52614W        W11875  42.292  35.920  10.029
52615W        W11876  39.041   6.725  12.443
52616W        W11877  41.481   7.286   1.727
52617W        W11878  13.146  19.279   3.870
52618W        W11879   2.325  18.730   4.204
52619W        W11880  26.606  43.904  11.048
52620W        W11881  39.933  13.197   2.727
52621W        W11882  32.119  26.600   5.246
52622W        W11883  40.042  27.492   4.134
52623W        W11884  38.402  35.058  12.043
52624W        W11885  17.742  35.021   0.409
52625W        W11886  41.807   4.805  13.971
52626W        W11887  24.044  12.132   4.728
52627W        W11888  22.738   1.347  13.794
52628W        W11889  22.650  28.449  13.020
52629W        W11890  21.700  11.226   2.372
52630W        W11891  38.415  37.441  14.326
52631W        W11892  39.935  32.983  13.910
52632W        W11893  32.624  28.931   0.414
52633W        W11894  21.536  22.188   3.635
52634W        W11895  39.931   6.810  14.481
52635W        W11896  22.573  12.699   3.738
52636W        W11897  19.173  12.815   3.708
52637W        W11898  34.574  34.397  10.413
52638W        W11899  40.363  19.667   2.194
52639W        W11900  40.368   8.244  10.636
52640W        W11901   1.805  33.967   1.431
52641W        W11902  18.096  44.424  11.572
52642W        W11903  32.400  10.718   5.765
52643W        W11904   3.319  16.639  11.045
52644W        W11905  38.041  34.960   5.178
52645W        W11906  40.906  21.625  13.977
52646W        W11907  39.420  10.681  13.018
52647W        W11908  35.390  33.503  11.597
52648W        W11909  15.216   3.265  12.941
52649W        W11910  20.553   9.312   2.900
52650W        W11911  39.903  43.866   4.723
52651W        W11912   0.946   7.359   0.264
52652W        W11913  23.087  24.540  11.377
52653W        W11914  35.468   5.261   0.805
52654W        W11915  42.317  36.945  14.361
52655W        W11916  31.470  21.100  13.797
52656W        W11917  15.115  10.333   2.734
52657W        W11918  19.745  27.181  13.061
52658W        W11919  20.243  10.326  10.974
52659W        W11920  16.142  19.150   0.888
52660W        W11921  32.074   6.870   1.812
52661W        W11922  31.558  13.624  13.319
52662W        W11923  20.134  42.449  12.989
52663W        W11924   4.835  38.883  12.949
52664W        W11925   5.261  14.678  14.390
52665W        W11926  10.271  12.647  12.866
52666W        W11927   7.403  14.776  12.032
52667W        W11928  24.106   4.833   2.757
52668W        W11929  43.363   5.869   3.279
52669W        W11930   2.290  23.490  12.389
52670W        W11931  30.944  43.444  14.500
52671W        W11932  29.940   9.745   3.300
52672W        W11933   4.380  27.493  11.573
52673W        W11934   7.283  26.458  10.066
52674W        W11935  27.096  42.351  12.964
52675W        W11936   5.432  30.994  12.043
52676W        W11937  37.502  13.776  14.784
52677W        W11938  23.008  10.783   1.846
52678W        W11939  43.961  33.007  12.403
52679W        W11940  10.795  29.947  11.861
52680W        W11941   0.800  28.497  13.903
52681W        W11942  44.490  23.672  11.884
52682W        W11943   7.307   1.858  11.989
52683W        W11944  24.115   4.769   4.274
52684W        W11945   0.951  11.235  14.024
52685W        W11946  29.604   0.948   4.168
52686W        W11947  17.665   2.842   4.115
52687W        W11948  15.730  34.608  13.494
52688W        W11949  14.169  14.702   4.206
52689W        W11950  12.721  36.426   3.738
52690W        W11951  27.015  36.841   4.651
52691W        W11952  25.030  21.567   3.759
52692W        W11953  10.749  21.062  13.465
52693W        W11954  33.548  38.073  11.001
52694W        W11955   8.339   3.888   2.331
52695W        W11956  23.229  12.170  14.864
52696W        W11957   8.327   0.414  14.980
52697W        W11958  43.396  25.670  14.359
52698W        W11959  33.403  20.747   0.948
52699W        W11960  21.263  39.475   0.780
52700W        W11961  27.021  28.088   3.816
52701W        W11962  35.910  13.705  13.871
52702W        W11963  25.646   2.285  12.428
52703W        W11964  42.981  12.803   2.327
52704W        W11965  16.688   1.238   2.402
52705W        W11966  15.823  25.701   4.250
52706W        W11967  29.921  34.053   4.209
52707W        W11968  12.792  25.569   4.312
52708W        W11969  44.986  44.899   2.345
52709W        W11970   4.382  25.648   1.716
52710W        W11971  44.753  28.501  11.582
52711W        W11972   3.234  38.411  13.905
52712W        W11973  29.574  20.564   2.239
52713W        W11974  10.328  30.913  11.564
52714W        W11975  26.531  25.677  13.880
52715W        W11976  42.378  30.143  14.920
52716W        W11977  41.857  23.605  11.465
52717W        W11978  20.541  28.121   1.733
52718W        W11979  39.421   6.316  14.797
52719W        W11980  25.469  22.693   4.196
52720W        W11981  35.972  19.126   3.276
52721W        W11982  20.755  37.973  10.558
52722W        W11983  27.547  17.788  11.376
52723W        W11984  11.149  14.699   2.292
52724W        W11985  31.108  22.014   3.251
52725W        W11986   2.376  28.568  13.410
52726W        W11987  42.325  38.345   3.826
52727W        W11988  21.561   1.380   3.824
52728W        W11989  26.483   2.329  13.000
52729W        W11990  18.553   0.963  11.538
52730W        W11991  28.583  38.899   2.179
52731W        W11992  27.948  42.305   4.240
52732W        W11993  37.355  21.143   2.319
52733W        W11994  15.279   0.844   1.779
52734W        W11995  23.607  14.288  14.284
52735W        W11996  33.924   2.407   3.746
52736W        W11997  13.843   8.242  12.943
52737W        W11998  22.610   1.962  10.598
52738W        W11999  11.210   8.352  14.488
52739W        W12000  24.065  10.157   2.213
52740W        W12001  15.603  17.273  11.595
52741W        W12002  26.001  34.401  12.900
52742W        W12003  43.444  37.367   4.241
52743W        W12004  23.990  16.249   1.287
52744W        W12005  15.321  17.752   3.700
52745W        W12006  32.096  19.543   1.785
52746W        W12007   0.780  36.953   2.717
52747W        W12008   3.858  41.924   0.812
52748W        W12009  27.113  21.080   3.185
52749W        W12010  28.177  25.004   2.365
52750W        W12011  33.494  25.067   1.832
52751W        W12012   1.296  31.022  13.046
52752W        W12013   2.825  13.226  10.994
52753W        W12014  40.939   5.825  13.961
52754W        W12015  22.702  42.883  12.458
52755W        W12016   5.325  37.343   2.285
52756W        W12017  28.001  10.659   4.205
52757W        W12018  32.946  16.137   2.304
52758W        W12019  18.755  31.407  12.835
52759W        W12020  32.521   9.211  12.574
52760W        W12021  12.168  17.147   0.853
52761W        W12022  26.494  26.510  13.490
52762W        W12023   9.202  13.688   4.279
52763W        W12024  35.097   3.272  11.514
52764W        W12025   6.282   3.879  12.453
52765W        W12026  31.994  44.476  11.998
52766W        W12027   0.974   4.705  10.582
52767W        W12028  27.590  24.021   2.771
52768W        W12029   6.216  41.043  14.465
52769W        W12030  33.003  14.660   3.352
52770W        W12031  44.912  11.197   3.219
52771W        W12032  13.277  36.922  14.842
52772W        W12033  28.597  43.796   2.816
52773W        W12034  30.596  33.398   4.678
52774W        W12035  17.130  35.598   2.309
52775W        W12036  39.987   1.436  13.994
52776W        W12037  12.853   8.227   1.259
52777W        W12038  21.594  36.490   3.205
52778W        W12039   6.852  27.691  13.867
52779W        W12040  43.492  32.141  13.879
52780W        W12041  41.013  20.692  11.127
52781W        W12042  10.791   9.675   4.177
52782W        W12043  31.137  16.295   1.291
52783W        W12044  43.999  10.837  12.950
52784W        W12045  39.930  14.706   1.259
52785W        W12046   9.854  12.760   2.390
52786W        W12047   7.264   2.278   4.255
52787W        W12048  13.323  27.977  12.981
52788W        W12049  29.490  36.050   1.233
52789W        W12050   3.829  26.019   2.182
52790W        W12051  40.321   6.708  13.014
52791W        W12052  13.732   0.897  10.413
52792W        W12053  26.144  21.239  10.500
52793W        W12054   1.883   1.424   2.665
52794W        W12055  14.120  12.832  12.944
52795W        W12056  17.288  28.551  13.898
52796W        W12057  37.833   7.302  14.795
52797W        W12058  39.388  22.180   4.605
52798W        W12059  30.614  36.434   1.929
52799W        W12060   4.400   0.386  12.969
52800W        W12061  43.898  41.378  11.879
52801W        W12062  34.083  12.278   2.377
52802W        W12063   6.905   1.825   0.903
52803W        W12064  34.471  25.994  14.849
52804W        W12065   8.873  32.581  14.337
52805W        W12066   9.331  33.011  14.434
52806W        W12067  42.905  29.933   3.240
52807W        W12068  23.545   0.913   3.643
52808W        W12069   8.276  25.192   3.256
52809W        W12070  27.974  44.352   4.121
52810W        W12071  43.934  13.605  14.320
52811W        W12072  27.458   7.747  14.919
52812W        W12073  23.720  38.348   2.779
52813W        W12074  10.751  18.134   1.253
52814W        W12075  44.871   6.254   3.838
52815W        W12076  22.091  29.579   2.252
52816W        W12077  38.332  44.913  12.552
52817W        W12078  30.128   7.879   2.679
52818W        W12079  27.965   3.894  12.072
52819W        W12080  33.551  22.675   3.148
52820W        W12081  23.988  18.575   0.281
52821W        W12082   8.362  40.920   0.899
52822W        W12083  40.454  31.151   4.333
52823W        W12084  41.007   3.241   2.727
52824W        W12085  10.755  16.076   2.358
52825W        W12086  31.531  24.215  12.393
52826W        W12087   0.760   4.343   3.346
52827W        W12088  28.645  29.542   0.918
52828W        W12089  18.614  27.075   3.375
52829W        W12090  40.020  37.340   0.844
52830W        W12091  43.824   9.361   4.740
52831W        W12092  43.765  13.663  12.404
52832W        W12093   4.388  24.186  13.493
52833W        W12094  18.627  34.485  13.890
52834W        W12095  30.162   8.237   4.805
52835W        W12096   8.670  17.128  12.936
52836W        W12097   8.808  26.485   2.840
52837W        W12098  11.297   0.956  10.586
52838W        W12099  13.351  29.128   0.861
52839W        W12100  22.999   9.272  13.849
52840W        W12101  38.903  31.585   1.744
52841W        W12102   0.308  16.146  10.075
52842W        W12103  38.447  12.286  12.946
52843W        W12104   6.226  44.840   0.803
52844W        W12105  18.257  35.890  11.975
52845W        W12106  34.987  37.023  11.529
52846W        W12107  35.006  32.046   1.715
52847W        W12108  44.874  35.574  12.898
52848W        W12109  10.228  30.594   2.835
52849W        W12110  18.195  35.588  12.342
52850W        W12111  16.086   4.941   1.364
52851W        W12112  29.527   5.313  10.131
52852W        W12113  12.679  26.513  10.019
52853W        W12114  37.493  22.137  11.387
52854W        W12115  30.102  28.496   4.629
52855W        W12116  20.554  37.508  11.595
52856W        W12117  22.666   5.421  14.299
52857W        W12118  26.680  10.796   3.224
52858W        W12119  24.160  31.934  13.891
52859W        W12120  12.642  35.598  10.892
52860W        W12121  39.372  20.186   3.291
52861W        W12122  37.968  35.911  12.569
52862W        W12123  28.669  33.995   1.289
52863W        W12124  42.316  38.950   5.256
52864W        W12125   5.704  21.567   1.332
52865W        W12126  15.801  43.290  13.996
52866W        W12127   7.756  44.360   2.748
52867W        W12128  17.231  29.994  10.553
52868W        W12129  13.156  42.814  12.568
52869W        W12130  17.275  19.570   5.123
52870W        W12131  33.962  27.508   4.738
52871W        W12132  40.806   8.686   0.276
52872W        W12133  12.819  40.336   3.195
52873W        W12134  44.355  13.238   4.241
52874W        W12135   7.274   0.265   3.667
52875W        W12136  37.878   4.811   1.917
52876W        W12137  11.715  41.964  10.977
52877W        W12138  43.000  12.170  10.890
52878W        W12139  35.055   2.391  11.866
52879W        W12140   1.913  41.022   2.401
52880W        W12141   2.960  40.939  12.344
52881W        W12142  44.836  37.942  14.940
52882W        W12143   4.935  28.467   0.353
52883W        W12144  40.491  19.727   1.897
52884W        W12145  20.136  35.508   0.382
52885W        W12146  35.373  29.581   0.784
52886W        W12147  15.583  20.124  10.939
52887W        W12148  28.578  32.904   4.253
52888W        W12149  10.773  34.383   1.300
52889W        W12150  23.110  38.489   2.677
52890W        W12151  12.681  31.588  14.930
52891W        W12152  33.483  30.999   1.424
52892W        W12153  30.658  36.406  12.906
52893W        W12154  32.440  14.827   3.235
52894W        W12155  19.607  11.810   1.437
52895W        W12156  33.438   7.374   2.860
52896W        W12157   8.194  25.552   2.869
52897W        W12158  15.661  37.999  13.532
52898W        W12159   4.922   9.210   2.711
52899W        W12160  16.075   3.834  12.060
52900W        W12161  40.960   7.223  14.889
52901W        W12162  33.479  29.628  14.318
52902W        W12163  38.346  23.990   2.358
52903W        W12164  19.716  37.493  11.569
52904W        W12165  27.548  16.752  14.369
52905W        W12166  18.758  12.761  12.048
52906W        W12167  11.222  13.795  14.870
52907W        W12168   1.284  13.841  10.544
52908W        W12169  26.045  42.949  12.450
52909W        W12170   5.895  28.535  14.962
52910W        W12171  33.409  25.607  13.892
52911W        W12172  19.612  22.158   2.228
52912W        W12173  34.072  29.658  11.573
52913W        W12174  10.281  37.018  13.858
52914W        W12175  26.515  42.352   4.130
52915W        W12176  26.127  28.525  10.609
52916W        W12177   9.675  31.520  11.863
52917W        W12178  43.374  21.588  11.540
52918W        W12179  20.573  24.531  10.580
52919W        W12180   3.230  42.949  12.420
52920W        W12181  43.429  40.861   1.415
52921W        W12182   1.400  17.645  11.936
52922W        W12183  19.246  30.120  13.440
52923W        W12184  23.116  26.156  11.982
52924W        W12185  19.066  18.125  11.557
52925W        W12186  21.159   0.271  14.403
52926W        W12187   8.858  39.978   2.819
52927W        W12188  29.458  27.619  10.538
52928W        W12189  36.531  18.622   3.715
52929W        W12190  20.042   9.194  11.996
52930W        W12191  14.802   9.882  12.448
52931W        W12192  42.338  15.135  12.887
52932W        W12193  37.049  18.151   3.756
52933W        W12194  28.152  43.878  12.032
52934W        W12195  18.648  30.962  14.331
52935W        W12196  15.771  19.147  11.566
52936W        W12197  13.295  23.565  12.488
52937W        W12198  14.129  32.940   1.875
52938W        W12199  39.948  24.051   2.739
52939W        W12200  26.678  10.165  11.108
52940W        W12201  21.060  34.448  11.967
52941W        W12202  12.783  28.486  11.452
52942W        W12203  37.564   8.194   0.386
52943W        W12204  44.812  12.641   3.218
52944W        W12205   1.419  12.841   2.760
52945W        W12206   8.892  34.559   2.306
52946W        W12207  18.544  27.994   0.411
52947W        W12208   8.684  38.010   3.181
52948W        W12209  27.036   8.691   1.710
52949W        W12210  30.091   6.254  10.499
52950W        W12211  12.228  21.656  11.534
52951W        W12212   1.774  16.187  14.892
52952W        W12213  27.088  35.588  11.996
52953W        W12214  41.531  29.062  10.516
52954W        W12215  29.606  29.567   0.824
52955W        W12216  42.408  23.612  12.839
52956W        W12217  44.469  38.837  13.984
52957W        W12218  31.537   0.425   4.354
52958W        W12219   4.721  17.307   2.673
52959W        W12220  24.714  40.020   0.474
52960W        W12221   5.208  30.589   0.823
52961W        W12222  14.618  43.397   3.275
52962W        W12223  28.502   2.937   4.201
52963W        W12224  22.250  29.641  12.413
52964W        W12225  36.051  44.403   1.705
52965W        W12226  40.336  15.629   2.824
52966W        W12227  27.574  19.756  13.392
52967W        W12228  14.594  28.952   4.288
52968W        W12229  29.162   1.786   5.230
52969W        W12230  29.982  26.475   3.290
52970W        W12231  17.135  12.195   2.399
52971W        W12232  28.934   5.871   1.732
52972W        W12233   9.329  38.939  12.870
52973W        W12234  39.930  18.176   4.339
52974W        W12235  28.181   7.761  14.988
52975W        W12236  35.505   2.389  13.899
52976W        W12237  15.096  33.897  11.893
52977W        W12238  25.683   9.380   3.164
52978W        W12239  30.467  27.972  13.393
52979W        W12240   8.805  18.259   3.203
52980W        W12241   7.692  40.877  13.832
52981W        W12242  43.392  29.968   0.256
52982W        W12243  11.749  37.864   3.709
52983W        W12244  36.906  32.103   3.281
52984W        W12245  17.768  31.411  12.551
52985W        W12246  26.489  17.558   1.884
52986W        W12247   4.248  29.504  14.375
52987W        W12248  23.220   0.263   3.821
52988W        W12249  20.207   6.344   1.382
52989W        W12250  35.418  34.981  11.012
52990W        W12251  10.254  24.229   0.293
52991W        W12252   1.292  31.113  11.017
52992W        W12253  26.204  39.825  13.951
52993W        W12254  26.986  20.175  12.852
52994W        W12255  15.164  23.676   2.830
52995W        W12256  10.281  29.922  11.908
52996W        W12257  43.482  18.745  10.609
52997W        W12258  22.649   2.365   4.808
52998W        W12259  27.061  42.436  10.467
52999W        W12260  35.515   3.853   0.327
53000W        W12261   1.953  12.660   3.697
53001W        W12262  10.225  40.483  12.972
53002W        W12263   4.930   7.307  14.479
53003W        W12264   2.368  19.224  12.375
53004W        W12265  38.067   2.943  13.916
53005W        W12266   9.309  36.503  11.450
53006W        W12267  35.062  18.197   3.269
53007W        W12268  23.144  15.816   2.804
53008W        W12269   4.917  26.098  11.984
53009W        W12270   1.932   2.782  14.965
53010W        W12271  14.669  23.081  13.959
53011W        W12272  42.472  35.008  12.529
53012W        W12273  44.504  39.894   3.224
53013W        W12274  32.939   7.276  12.956
53014W        W12275  39.829  37.426  14.314
53015W        W12276  39.939  25.097   2.703
53016W        W12277   3.309   1.882   2.880
53017W        W12278  44.787  19.550  12.984
53018W        W12279  25.043  16.766  13.015
53019W        W12280   6.343  23.536  14.920
53020W        W12281   2.874   1.946  12.527
53021W        W12282  27.583  19.670  10.970
53022W        W12283  23.646  22.518   0.308
53023W        W12284   1.735  31.921  12.553
53024W        W12285  23.103   6.261   3.728
53025W        W12286   8.865  36.386  14.859
53026W        W12287   8.241  26.562  13.484
53027W        W12288  34.895  35.052  13.332
53028W        W12289  40.512   8.820  14.979
53029W        W12290  32.498  15.808  13.383
53030W        W12291   4.785  23.629   0.945
53031W        W12292   5.361  33.017  14.431
53032W        W12293  38.932  29.029   2.283
53033W        W12294   4.796  32.436  12.994
53034W        W12295  14.668  12.742  14.441
53035W        W12296   0.893  25.173  11.375
53036W        W12297   5.916  29.944   0.315
53037W        W12298  44.272  42.803   2.833
53038W        W12299  25.652  16.771  14.356
53039W        W12300  36.462  27.058  13.465
53040W        W12301  14.634  24.154   2.227
53041W        W12302  22.216  13.155   2.774
53042W        W12303  16.751  19.602  12.398
53043W        W12304   4.267   5.747   0.863
53044W        W12305  39.478  37.514   2.750
53045W        W12306   8.888  19.635   0.372
53046W        W12307   8.780  41.883  12.557
53047W        W12308  43.504  19.612   2.278
53048W        W12309  26.479  33.074   5.110
53049W        W12310  42.454  26.197  13.340
53050W        W12311   6.196  24.198   3.159
53051W        W12312  18.182  34.581   0.466
53052W        W12313  20.663  24.715   1.787
53053W        W12314  12.655  21.022  10.938
53054W        W12315  15.661  11.646  12.563
53055W        W12316  43.285  27.662   0.360
53056W        W12317  12.704  29.497  13.464
53057W        W12318  44.369  14.130  12.981
53058W        W12319  29.105  12.681  14.939
53059W        W12320  22.999  41.464   4.646
53060W        W12321  15.692  14.785   2.417
53061W        W12322  18.700  27.632   0.260
53062W        W12323  24.500   6.330   2.805
53063W        W12324  44.977  34.496  12.875
53064W        W12325   4.255  23.610  10.585
53065W        W12326  29.579   3.233   2.744
53066W        W12327  16.281  21.707  13.962
53067W        W12328  21.550   0.916   1.783
53068W        W12329   3.712   2.857  13.966
53069W        W12330  44.394  28.092  14.358
53070W        W12331  28.174   6.840   4.151
53071W        W12332  15.127   1.949  14.302
53072W        W12333   4.941  32.628  13.808
53073W        W12334  15.700  13.233   5.175
53074W        W12335  43.913  15.736   2.708
53075W        W12336  34.469  29.587   0.836
53076W        W12337   7.393  20.732  14.452
53077W        W12338  32.506  41.038  11.083
53078W        W12339  44.853  43.373  13.379
53079W        W12340  19.570  17.795   2.388
53080W        W12341  20.263   3.428  13.428
53081W        W12342  26.491  28.574   2.675
53082W        W12343  10.847  42.935  14.412
53083W        W12344  19.554  13.738   0.871
53084W        W12345  44.006  37.009  13.793
53085W        W12346  39.500  38.512  14.828
53086W        W12347  28.084   9.369   1.425
53087W        W12348  31.110  17.798  11.480
53088W        W12349  13.806   1.772   0.813
53089W        W12350  44.419  39.548   4.818
53090W        W12351   8.836  21.260   0.849
53091W        W12352  11.363   6.774  11.032
53092W        W12353  31.101  40.919   0.288
53093W        W12354  29.163  39.547  10.477
53094W        W12355  14.192  16.803   4.127
53095W        W12356  28.947  26.049   3.866
53096W        W12357   4.395  23.099   3.799
53097W        W12358   8.758  12.323   3.715
53098W        W12359   7.303  30.045  13.976
53099W        W12360  39.844  42.957  10.460
53100W        W12361  26.983  36.079   5.108
53101W        W12362  40.982  11.818   3.780
53102W        W12363   9.808  33.472  13.470
53103W        W12364   5.390  14.821   3.821
53104W        W12365   5.763  33.103   4.266
53105W        W12366  38.447  39.362   3.165
53106W        W12367  23.549  20.550   4.210
53107W        W12368  36.585  39.897  14.897
53108W        W12369   6.271  43.379  12.028
53109W        W12370  42.322  21.168  11.425
53110W        W12371  15.623  31.149   5.144
53111W        W12372  19.750   6.695   5.236
53112W        W12373  44.844  24.061  10.137
53113W        W12374   7.271  14.135  14.012
53114W        W12375  30.005   6.251   1.841
53115W        W12376   6.863  36.538   0.799
53116W        W12377   7.398  35.407  12.561
53117W        W12378  36.072  40.307  13.914
53118W        W12379  43.950  14.732   4.701
53119W        W12380  26.116  40.953   0.846
53120W        W12381   7.758   6.321   1.789
53121W        W12382  38.029  37.514   3.289
53122W        W12383  37.057  17.215   4.689
53123W        W12384  39.830  16.214  12.013
53124W        W12385  19.235  11.697  13.909
53125W        W12386  43.423  35.939   1.796
53126W        W12387  19.233  37.465   4.291
53127W        W12388  20.149  31.978   2.810
53128W        W12389  38.819   8.791  11.580
53129W        W12390  39.962  12.716  13.328
53130W        W12391  39.050   7.831   0.850
53131W        W12392  16.779  30.625   0.902
53132W        W12393  29.125  15.701   2.725
53133W        W12394  43.361  30.421  13.440
53134W        W12395  19.542  44.319   4.828
53135W        W12396  36.077   8.733  12.355
53136W        W12397  44.459   2.232   3.386
53137W        W12398  12.218  15.091   2.193
53138W        W12399  13.171   8.770   4.210
53139W        W12400   1.452  25.989  11.934
53140W        W12401   0.855   7.739  12.514
53141W        W12402   7.193  20.196   0.753
53142W        W12403  17.782  22.023   3.209
53143W        W12404  20.265  34.990  13.821
53144W        W12405  24.085  40.926   4.614
53145W        W12406   6.215   4.864  14.475
53146W        W12407  23.646   9.847  10.535
53147W        W12408  33.893  26.490  13.807
53148W        W12409  18.053  29.496   4.699
53149W        W12410   0.859  25.633  14.031
53150W        W12411   3.386  21.157  14.019
53151W        W12412   3.248  28.991   0.919
53152W        W12413  43.772  14.153   1.364
53153W        W12414  30.543   1.888   2.206
53154W        W12415   5.391  16.264   4.601
53155W        W12416  27.016  13.291  11.458
53156W        W12417  42.376  44.456   0.272
53157W        W12418   0.794  14.600  11.490
53158W        W12419  42.931   8.766  13.803
53159W        W12420  42.309   1.976  12.078
53160W        W12421  40.459   0.871   3.192
53161W        W12422  24.139  36.422   0.956
53162W        W12423  38.348  37.918   1.275
53163W        W12424  40.820  17.228   2.195
53164W        W12425  27.484  27.006  10.941
53165W        W12426  40.392  42.994  14.990
53166W        W12427  41.308  15.648   0.917
53167W        W12428  13.814   6.875  12.369
53168W        W12429  17.788  26.510  11.435
53169W        W12430  17.064  21.575  12.489
53170W        W12431  39.963  10.872  14.924
53171W        W12432  37.953   9.208  10.525
53172W        W12433  22.166   9.817   2.351
53173W        W12434   1.455   8.863  11.109
53174W        W12435  43.361  12.806   0.373
53175W        W12436  40.493  24.506   2.820
53176W        W12437  13.725   6.227   9.950
53177W        W12438  17.107   9.285  10.896
53178W        W12439  26.188  30.939  14.953
53179W        W12440  20.568  32.450   0.246
53180W        W12441  40.308  20.626   0.324
53181W        W12442  38.416   9.198  12.472
53182W        W12443  16.631   0.326  11.088
53183W        W12444  40.519  27.999  10.946
53184W        W12445   2.239  20.565  12.008
53185W        W12446  44.490  19.071   1.904
53186W        W12447  35.539  12.251   9.968
53187W        W12448  38.373  35.103   4.817
53188W        W12449  24.213  18.587   4.659
53189W        W12450  11.314   1.935   1.729
53190W        W12451  23.140  30.999   4.784
53191W        W12452  37.023  44.433   1.909
53192W        W12453  15.731  15.191  14.336
53193W        W12454  38.987   5.269   4.152
53194W        W12455   2.461  30.465  13.059
53195W        W12456  24.552  30.927   1.297
53196W        W12457  10.281  11.182   0.809
53197W        W12458   2.396  24.172   0.741
53198W        W12459   5.378  33.434   4.163
53199W        W12460  17.685  21.230   3.267
53200W        W12461  26.974  34.528   4.732
53201W        W12462  18.285  15.161   4.835
53202W        W12463  31.520   4.434   4.317
53203W        W12464  13.194  44.367   3.212
53204W        W12465  34.372  33.393  10.438
53205W        W12466  39.363  28.530   3.184
53206W        W12467  23.602  14.751   4.723
53207W        W12468  14.296  32.411   2.694
53208W        W12469  29.036  11.868  11.564
53209W        W12470  28.528  28.532   4.670
53210W        W12471  35.869  43.985   3.198
53211W        W12472  31.630   7.391   0.341
53212W        W12473  26.665   1.459   2.348
53213W        W12474  35.513  41.467  10.891
53214W        W12475  36.528  27.958   4.214
53215W        W12476   5.393  18.074   3.781
53216W        W12477  37.059  22.606   3.700
53217W        W12478  34.084  30.145   1.309
53218W        W12479   4.919   1.804  12.535
53219W        W12480  39.443   6.858   3.655
53220W        W12481   9.319  44.873  13.320
53221W        W12482   5.431   8.728   4.183
53222W        W12483  37.888  20.112   3.695
53223W        W12484  17.576   2.443  12.573
53224W        W12485  26.634   7.769  14.881
53225W        W12486  17.295  35.909   4.778
53226W        W12487  22.624   7.905  11.529
53227W        W12488   6.741  36.579  12.573
53228W        W12489  12.257  22.050   1.741
53229W        W12490   6.210  19.089  11.001
53230W        W12491  42.846   3.349   3.641
53231W        W12492  40.028   7.817   2.379
53232W        W12493  41.462  35.941  13.543
53233W        W12494  14.097  31.577  11.989
53234W        W12495  11.773  27.545   1.912
53235W        W12496   9.235   2.926   3.832
53236W        W12497   7.312  15.319  11.895
53237W        W12498  16.747  32.488  11.949
53238W        W12499  21.562   6.186   1.360
53239W        W12500  28.439  40.859  14.367
53240W        W12501  40.893  30.130  12.064
53241W        W12502  44.403  35.995   4.329
53242W        W12503  12.855  14.596   3.674
53243W        W12504  32.142  19.113  12.850
53244W        W12505  36.559  43.514  13.907
53245W        W12506  23.645   4.746  12.527
53246W        W12507  44.821   6.862  11.605
53247W        W12508  38.829   2.860  14.416
53248W        W12509  13.231   1.289   0.304
53249W        W12510  14.188  20.572   4.239
53250W        W12511  19.702  25.166   1.781
53251W        W12512  15.102   6.242   3.304
53252W        W12513  13.305  18.059   0.872
53253W        W12514  44.430  31.118  13.486
53254W        W12515  12.293   8.667   0.940
53255W        W12516   9.697   5.372  13.923
53256W        W12517  37.938   5.931  10.983
53257W        W12518  44.910  16.094  11.488
53258W        W12519  24.632  30.014   4.304
53259W        W12520  20.690  37.853   4.835
53260W        W12521  25.594  22.660   1.780
53261W        W12522  19.743  11.650  13.912
53262W        W12523  40.378  36.394   1.730
53263W        W12524   6.709  18.551   4.651
53264W        W12525  30.934  40.952   2.881
53265W        W12526  30.036  27.461   3.739
53266W        W12527  24.201  37.511   3.815
53267W        W12528  32.483  31.612   3.678
53268W        W12529  43.922  10.639   4.353
53269W        W12530  10.799   6.752   3.258
53270W        W12531   5.400  11.694  11.492
53271W        W12532  29.168   1.379  11.525
53272W        W12533   9.868  23.541   0.878
53273W        W12534  44.861  25.969   3.254
53274W        W12535   7.833  24.718  12.090
53275W        W12536  13.664  40.961  13.034
53276W        W12537  31.031  43.963   4.764
53277W        W12538  22.243  22.081  13.511
53278W        W12539  13.113  29.018   3.347
53279W        W12540  39.497  42.026  14.846
53280W        W12541  40.864  10.358   0.849
53281W        W12542  20.658  27.655   1.782
53282W        W12543   9.734  17.211   0.332
53283W        W12544  29.520  16.078   1.905
53284W        W12545  37.005   6.681   2.301
53285W        W12546  26.635  34.587   1.349
53286W        W12547  28.938  28.665  14.478
53287W        W12548  14.675  18.674   4.307
53288W        W12549  38.359  22.082   4.770
53289W        W12550   6.193   3.939   1.261
53290W        W12551  42.301   4.883   1.878
53291W        W12552   3.814   1.736  14.370
53292W        W12553   0.407   7.198   0.879
53293W        W12554  29.135  39.376  12.564
53294W        W12555  22.532   0.417  11.513
53295W        W12556  22.118  21.577   2.817
53296W        W12557  25.020  23.627  11.937
53297W        W12558   6.345  39.811  13.359
53298W        W12559  27.507  12.162   3.797
53299W        W12560  13.651  25.107  11.053
53300W        W12561   2.911  43.274  11.547
53301W        W12562   4.863  11.321  14.923
53302W        W12563  32.573  22.565  11.872
53303W        W12564  24.160   7.229  13.446
53304W        W12565  21.712   9.295   0.379
53305W        W12566  43.922  26.638   0.818
53306W        W12567  34.382  12.829   0.307
53307W        W12568  15.701  17.702  12.545
53308W        W12569   4.378  32.624   3.376
53309W        W12570  41.967  40.979   1.404
53310W        W12571  21.542  33.112   3.158
53311W        W12572  33.461  12.138   5.157
53312W        W12573  17.095  37.541  12.489
53313W        W12574  37.922  21.018  13.511
53314W        W12575  12.838  37.925   0.843
53315W        W12576  33.602  15.642   3.745
53316W        W12577  24.995   7.790   1.419
53317W        W12578  41.437  34.467  13.533
53318W        W12579  33.882  30.633   0.789
53319W        W12580   2.919  32.973   1.362
53320W        W12581  32.981   5.408  11.558
53321W        W12582  41.812  39.983   4.780
53322W        W12583  36.053   6.846  13.891
53323W        W12584   6.374  12.663  12.995
53324W        W12585  43.354   8.763   1.917
53325W        W12586  16.630  24.685   5.249
53326W        W12587   3.343  43.493   1.383
53327W        W12588  22.025  25.533  10.461
53328W        W12589  18.174  37.033  13.996
53329W        W12590  37.364  27.028   2.792
53330W        W12591   3.230  32.427   0.740
53331W        W12592  33.568  23.679   4.718
53332W        W12593  39.861  28.598  14.954
53333W        W12594  28.451  15.248  11.093
53334W        W12595  15.262  26.497  12.858
53335W        W12596  31.084  33.032   0.373
53336W        W12597  26.620  17.065   4.313
53337W        W12598  29.027  35.038   1.253
53338W        W12599   4.784   4.764  11.554
53339W        W12600  34.515  36.098  14.967
53340W        W12601  19.170  17.257  13.459
53341W        W12602  21.615  28.635  11.429
53342W        W12603  16.152  11.162   2.401
53343W        W12604  14.830  23.096  11.044
53344W        W12605  22.642  37.012  12.403
53345W        W12606  29.641  41.440   0.483
53346W        W12607   4.446   4.282  13.373
53347W        W12608  30.088  33.119  13.358
53348W        W12609  35.934  40.002   0.463
53349W        W12610  15.787  20.085  14.515
53350W        W12611  17.108  15.819  14.495
53351W        W12612  12.277  23.181   3.730
53352W        W12613  42.479   0.891  11.476
53353W        W12614  12.780  35.361   1.267
53354W        W12615   3.274  31.503   4.799
53355W        W12616  30.959  39.434   4.193
53356W        W12617  10.698  39.430  11.474
53357W        W12618   8.207   6.300   0.858
53358W        W12619  30.989  11.225  10.033
53359W        W12620   4.316  43.344   0.824
53360W        W12621  43.882  25.005  14.339
53361W        W12622  38.025  17.128  14.372
53362W        W12623  17.172   8.323  13.882
53363W        W12624  15.127  31.079  12.479
53364W        W12625  41.471  43.326   3.797
53365W        W12626  38.995  16.240  10.569
53366W        W12627  10.237   8.821  12.086
53367W        W12628  31.592  41.356   0.399
53368W        W12629  22.698  32.902  12.429
53369W        W12630  21.018  12.657  14.320
53370W        W12631  43.463  21.137  11.388
53371W        W12632  21.712  30.111   3.857
53372W        W12633  24.550  15.113   0.451
53373W        W12634  37.380  15.688   3.696
53374W        W12635  35.994  27.001   4.313
53375W        W12636  39.918  40.331  14.315
53376W        W12637  13.219  15.195  11.530
53377W        W12638  26.078  44.813   2.207
53378W        W12639  23.530  11.358   3.264
53379W        W12640   3.296   7.737  11.452
53380W        W12641  43.879  32.931   4.237
53381W        W12642  25.220  29.095   4.736
53382W        W12643  17.627   0.869   1.792
53383W        W12644  35.963  17.143  10.974
53384W        W12645  34.887  16.587  11.903
53385W        W12646   1.322  29.531  11.939
53386W        W12647   4.280  29.022   0.823
53387W        W12648  39.315  10.700  11.595
53388W        W12649  29.609  28.555   3.263
53389W        W12650  43.355  39.973  13.025
53390W        W12651  37.085   5.810   2.305
53391W        W12652  10.767   6.363   1.317
53392W        W12653  27.138  39.968   2.741
53393W        W12654   7.893  15.199  12.085
53394W        W12655  13.351  20.062   0.436
53395W        W12656  38.519  26.497   2.352
53396W        W12657  25.191  15.260   2.221
53397W        W12658  18.638   6.380  13.388
53398W        W12659  34.977  11.832   4.293
53399W        W12660  41.994  43.914   3.810
53400W        W12661   7.895  26.085   3.671
53401W        W12662  32.445   9.697   2.324
53402W        W12663  23.081  18.617  12.527
53403W        W12664   9.862  14.308   2.791
53404W        W12665   5.690  15.265  14.448
53405W        W12666   2.337  32.515  12.937
53406W        W12667  31.105   1.974   5.207
53407W        W12668  10.655  41.396   3.159
53408W        W12669  30.596   8.244  11.966
53409W        W12670  14.785   0.343  14.346
53410W        W12671  38.328  25.020   0.791
53411W        W12672  26.168  39.930  10.623
53412W        W12673   5.317   7.404   3.359
53413W        W12674  41.848  21.085  14.511
53414W        W12675  15.263   2.320  13.382
53415W        W12676  11.858  13.670   1.841
53416W        W12677  26.572  44.890   9.554
53417W        W12678  32.918  25.688   0.812
53418W        W12679  12.680  32.582   4.198
53419W        W12680  20.241  10.715  10.592
53420W        W12681  28.111   5.261  10.606
53421W        W12682   9.793   0.316   1.223
53422W        W12683  22.030  30.451   4.320
53423W        W12684  39.863   0.915  13.877
53424W        W12685  23.576  12.634  13.828
53425W        W12686  41.843  10.790  14.028
53426W        W12687  41.528  31.591  11.515
53427W        W12688   7.826   4.858  12.972
53428W        W12689  42.393  36.066   9.671
53429W        W12690  35.987  38.990   3.796
53430W        W12691  30.032   1.300  14.401
53431W        W12692  10.852  22.252   1.380
53432W        W12693  36.847  40.893  10.466
53433W        W12694  26.582   4.887  13.342
53434W        W12695  28.053  10.820  14.808
53435W        W12696  22.682   0.468  10.106
53436W        W12697   3.948  43.827  12.512
53437W        W12698  25.615  36.953  13.510
53438W        W12699  28.456   7.325   0.854
53439W        W12700   7.317  27.958  12.092
53440W        W12701  35.944  23.213  14.970
53441W        W12702  14.797  44.349   1.297
53442W        W12703  44.338  38.884  12.083
53443W        W12704  17.572  27.031   4.717
53444W        W12705  31.486   8.280  12.578
53445W        W12706   9.296  40.312   3.285
53446W        W12707  40.896  38.373  13.897
53447W        W12708  37.546   5.229   1.314
53448W        W12709  18.754  14.308   3.311
53449W        W12710  38.462  35.415   1.275
53450W        W12711  21.571  39.543  12.546
53451W        W12712  18.716  17.283  14.509
53452W        W12713   5.808  31.068  11.946
53453W        W12714  26.121  44.436   3.372
53454W        W12715   7.343   8.664   2.380
53455W        W12716   8.195  10.316   5.268
53456W        W12717   5.286  10.838   0.963
53457W        W12718  26.965  28.032   0.843
53458W        W12719  19.261   7.292  14.512
53459W        W12720  28.054   0.465   1.398
53460W        W12721  11.167  35.387   1.923
53461W        W12722  43.406  13.618   4.608
53462W        W12723   3.352  25.020   9.933
53463W        W12724  36.882  19.186  13.446
53464W        W12725  21.081  14.290  12.440
53465W        W12726  22.117  20.117  10.450
53466W        W12727  13.750   1.958   1.920
53467W        W12728  15.185  11.851   4.732
53468W        W12729  16.075  35.464   1.350
53469W        W12730   1.334  44.363   0.806
53470W        W12731   0.956  31.066   3.290
53471W        W12732  18.132  18.636   4.352
53472W        W12733  38.521  24.570   4.619
53473W        W12734   5.252  30.133  13.013
53474W        W12735  31.450  30.094   1.320
53475W        W12736  16.575  12.747  10.975
53476W        W12737  28.175   6.377   0.400
53477W        W12738  25.595  22.243   0.409
53478W        W12739   1.870   8.836  14.379
53479W        W12740  30.608   4.274  14.305
53480W        W12741  33.122   0.978   0.744
53481W        W12742  12.804  33.099   4.348
53482W        W12743  11.657  37.971   4.715
53483W        W12744  13.641  24.020   3.850
53484W        W12745  30.612  32.611  12.955
53485W        W12746  33.606   7.199  14.888
53486W        W12747  31.528   3.955  14.851
53487W        W12748  22.118  41.788  11.859
53488W        W12749  17.782   1.358   4.339
53489W        W12750  18.652   7.858   0.388
53490W        W12751   8.280   7.860  10.127
53491W        W12752  35.003  34.610  14.867
53492W        W12753  44.329  10.173   0.335
53493W        W12754  34.989  36.996  14.399
53494W        W12755  31.127  28.561  10.891
53495W        W12756  18.082   0.973   1.778
53496W        W12757  26.621  32.611   2.882
53497W        W12758  30.649  36.569   0.946
53498W        W12759   8.874  42.481  12.423
53499W        W12760  21.238   5.747   0.884
53500W        W12761  44.307  17.694  10.127
53501W        W12762   3.909   6.703   3.800
53502W        W12763  35.549  41.351   1.814
53503W        W12764   7.326  35.474  12.012
53504W        W12765   8.812  21.755  10.927
53505W        W12766  29.065   9.211   2.215
53506W        W12767  35.492  24.135  12.382
53507W        W12768  37.960  37.012   1.720
53508W        W12769  26.123   0.390  10.130
53509W        W12770  27.136  42.980  12.561
53510W        W12771  44.283  14.740  13.877
53511W        W12772  38.535   3.850   0.271
53512W        W12773  35.979  23.030   0.415
53513W        W12774  35.908   8.250   1.867
53514W        W12775   9.285   6.346   2.706
53515W        W12776  44.965  31.121   4.301
53516W        W12777  18.089   2.752   3.232
53517W        W12778  30.414   1.946  11.488
53518W        W12779  13.655  41.019  14.930
53519W        W12780  11.779  41.313   0.257
53520W        W12781  38.059  12.699   4.149
53521W        W12782   2.242  29.007   4.183
53522W        W12783  22.094  41.467   1.852
53523W        W12784   2.961  27.479   4.199
53524W        W12785  22.530  35.047   3.348
53525W        W12786  22.693  42.437  13.368
53526W        W12787   8.182   1.265  10.635
53527W        W12788  26.474  43.793   3.245
53528W        W12789  36.925  24.576   3.649
53529W        W12790  36.358  41.406   3.183
53530W        W12791  37.002  43.463   4.269
53531W        W12792  10.286  19.087  11.529
53532W        W12793  15.664  10.308   5.193
53533W        W12794  11.174   1.879   3.168
53534W        W12795  40.839  28.639  12.079
53535W        W12796  30.080  21.261   3.851
53536W        W12797   8.792  27.472  10.890
53537W        W12798  28.061   7.211   5.246
53538W        W12799  18.257  40.540  11.086
53539W        W12800  25.007  33.970   2.322
53540W        W12801  14.112  29.603   4.284
53541W        W12802  31.943  39.513  12.000
53542W        W12803  27.019  16.168   1.393
53543W        W12804  43.499  39.320  13.434
53544W        W12805  35.031  18.065  10.952
53545W        W12806  27.004   1.929   0.456
53546W        W12807   9.248  20.241   4.121
53547W        W12808  20.647   0.822  14.782
53548W        W12809  40.428  38.994   5.302
53549W        W12810  27.992   3.798   2.756
53550W        W12811  43.443  24.998  13.047
53551W        W12812   4.932  20.188   3.292
53552W        W12813  13.168   6.387   4.784
53553W        W12814  23.643   7.839   2.310
53554W        W12815  12.761  29.586  14.030
53555W        W12816   4.387  11.645  13.824
53556W        W12817  19.233  34.406   3.175
53557W        W12818  17.584  31.083  11.585
53558W        W12819  33.551  44.955  14.431
53559W        W12820  19.592  37.928  12.994
53560W        W12821  12.223  16.142   0.390
53561W        W12822  29.951  25.969  11.514
53562W        W12823   9.722  12.740  10.503
53563W        W12824  33.510   6.384  10.131
53564W        W12825  28.678  18.282   4.769
53565W        W12826  44.851  29.964   0.407
53566W        W12827  37.553   9.177   2.893
53567W        W12828  44.756  32.540   0.849
53568W        W12829  40.360  34.582   1.448
53569W        W12830  30.107  11.126   3.827
53570W        W12831  26.001  15.090   3.281
53571W        W12832  41.992  15.763   4.229
53572W        W12833  36.412  23.098   2.845
53573W        W12834  19.591  10.850   4.224
53574W        W12835  13.235   9.382   1.886
53575W        W12836  29.943   5.358  10.547
53576W        W12837  30.992  37.505   4.241
53577W        W12838   8.721  35.919  10.444
53578W        W12839  43.325  38.018  14.516
53579W        W12840  19.745   7.784  13.853
53580W        W12841  25.025  37.536  14.835
53581W        W12842  28.534  29.170  11.035
53582W        W12843   7.384  18.088   2.244
53583W        W12844   0.488  24.203  10.913
53584W        W12845  16.624  10.349  11.867
53585W        W12846  34.465   6.738  11.061
53586W        W12847  32.929   0.360  12.856
53587W        W12848  43.343  41.361  13.814
53588W        W12849  33.396  14.123  10.533
53589W        W12850  19.715  11.334  13.963
53590W        W12851   0.960  15.312  10.959
53591W        W12852  11.174  26.016   1.881
53592W        W12853  29.554  24.564  12.439
53593W        W12854  18.561  30.978   3.254
53594W        W12855   4.943  40.832  12.502
53595W        W12856  39.060  33.489  10.069
53596W        W12857   6.427  13.846   2.886
53597W        W12858  27.624  10.758   1.371
53598W        W12859  19.134  25.485   2.191
53599W        W12860  23.114   4.345   2.216
53600W        W12861  10.847  17.670   3.638
53601W        W12862  43.984  10.315   4.812
53602W        W12863  18.736  20.136  13.910
53603W        W12864   1.388  20.194   3.259
53604W        W12865  19.120  38.372   4.776
53605W        W12866  37.913  23.650   0.296
53606W        W12867  34.900  39.513   4.779
53607W        W12868  41.425   4.281   3.756
53608W        W12869  15.778  34.456   4.164
53609W        W12870  19.075  28.460  10.450
53610W        W12871  16.229  15.715   1.792
53611W        W12872   1.766  29.465  14.324
53612W        W12873  25.057  41.945   1.869
53613W        W12874  28.023  44.455   1.875
53614W        W12875  15.235  32.446   2.199
53615W        W12876  35.931  14.227   2.295
53616W        W12877  31.510  43.462  14.902
53617W        W12878  30.569   4.403  10.992
53618W        W12879  36.899  30.975   0.263
53619W        W12880   8.237  26.495   4.193
53620W        W12881  16.190  12.701  12.076
53621W        W12882  44.325  23.107  12.896
53622W        W12883  14.642  29.093   2.804
53623W        W12884  14.165  27.511   2.301
53624W        W12885  11.318  22.576  12.963
53625W        W12886  31.114  26.696  11.547
53626W        W12887  23.696  15.159  13.853
53627W        W12888   4.431  25.542  10.484
53628W        W12889  44.862   6.716   1.885
53629W        W12890  17.289  41.017  14.510
53630W        W12891  20.120  29.104   0.937
53631W        W12892  27.106  19.625   3.635
53632W        W12893  17.651  17.694  13.394
53633W        W12894   9.750  26.497  13.963
53634W        W12895   3.899  27.667  11.904
53635W        W12896  25.208  10.641  10.916
53636W        W12897  44.494  31.079   0.876
53637W        W12898  43.421  12.280  11.011
53638W        W12899  29.001  36.991  13.512
53639W        W12900  22.722  12.162   2.357
53640W        W12901   6.362   8.298  13.871
53641W        W12902   4.244   1.862   4.288
53642W        W12903  20.149  22.026  13.012
53643W        W12904  27.129  35.584   0.841
53644W        W12905  22.619   8.759  13.893
53645W        W12906   7.284  20.144   3.675
53646W        W12907  27.042  42.438   2.396
53647W        W12908  23.004  25.025  11.551
53648W        W12909   1.257  10.378   1.277
53649W        W12910   2.758  23.130   1.334
53650W        W12911   0.361  27.500   0.949
53651W        W12912   9.323  16.730   4.274
53652W        W12913   8.161  29.045  14.794
53653W        W12914  32.577  12.341   1.825
53654W        W12915   9.784  37.363  11.034
53655W        W12916  29.926   8.309  14.947
53656W        W12917  41.451  26.153   1.860
53657W        W12918   8.254  17.092  14.511
53658W        W12919  36.374   9.857   5.262
53659W        W12920  40.330  21.605   1.882
53660W        W12921   1.961  38.351   3.347
53661W        W12922  18.780  24.563   1.901
53662W        W12923  21.536   3.823  14.804
53663W        W12924  24.219   2.376  14.349
53664W        W12925  13.306  21.207  13.417
53665W        W12926  32.102  43.352  14.927
53666W        W12927  25.091  16.808   2.891
53667W        W12928  17.577  39.507  10.469
53668W        W12929   7.781   6.370   1.298
53669W        W12930   8.199  21.644   2.798
53670W        W12931  35.103  40.359  11.905
53671W        W12932   7.761   1.740   4.327
53672W        W12933  33.076  32.002   1.218
53673W        W12934  30.121  30.444  11.472
53674W        W12935  28.480   0.343  12.912
53675W        W12936   7.716  24.027  11.430
53676W        W12937  17.582   9.744  12.076
53677W        W12938  35.556  25.659   4.116
53678W        W12939   6.912  20.733   4.143
53679W        W12940  12.201  27.651  14.485
53680W        W12941  29.924  10.267   4.147
53681W        W12942   5.756  11.174   4.670
53682W        W12943  25.965  34.967  11.981
53683W        W12944  19.737  21.723   0.345
53684W        W12945  44.001  12.787   2.218
53685W        W12946  17.725  24.066  11.931
53686W        W12947   2.942  21.723   4.731
53687W        W12948  40.429  10.273   0.922
53688W        W12949  28.019  38.947  11.917
53689W        W12950   3.822  39.469  14.896
53690W        W12951  22.637  22.530  14.987
53691W        W12952  17.166  41.297  13.943
53692W        W12953  39.946  44.267  10.644
53693W        W12954  43.920  38.401  13.820
53694W        W12955  40.535  11.158  14.283
53695W        W12956  27.604   2.958  12.093
53696W        W12957  22.250  41.791   0.865
53697W        W12958   8.714  18.256   1.440
53698W        W12959   4.898   5.393  11.938
53699W        W12960  41.978  30.088   3.816
53700W        W12961  27.178   4.770  14.319
53701W        W12962   2.917  34.400  12.529
53702W        W12963  33.557  16.133  11.954
53703W        W12964  12.329   1.291   0.830
53704W        W12965  36.950  19.185   1.831
53705W        W12966  15.688  42.455   0.809
53706W        W12967  19.599  31.566   4.653
53707W        W12968   4.235  43.953  11.085
53708W        W12969   7.816   1.367   3.232
53709W        W12970  39.870  38.544  13.905
53710W        W12971  20.710  42.441   4.756
53711W        W12972  19.250  15.793  13.376
53712W        W12973  42.518   2.908  13.363
53713W        W12974   8.272  42.319  12.914
53714W        W12975  20.581   4.346   3.384
53715W        W12976  32.047  16.192   3.644
53716W        W12977  13.349  12.686  13.843
53717W        W12978  17.267   0.257  11.984
53718W        W12979  39.403  19.142   1.929
53719W        W12980   1.800   0.416  14.847
53720W        W12981  42.913  35.568   3.696
53721W        W12982  36.036  41.411  12.034
53722W        W12983  34.468  40.529   4.779
53723W        W12984  36.488  32.001  10.406
53724W        W12985  32.535  13.145  13.964
53725W        W12986  13.707  18.275  13.319
53726W        W12987  40.855  39.429  13.460
53727W        W12988  26.570  29.161   0.281
53728W        W12989  13.698   6.237  12.889
53729W        W12990   4.425  34.457   2.178
53730W        W12991  35.450  39.833   3.732
53731W        W12992   6.912  12.177  12.949
53732W        W12993  22.149  26.645  11.037
53733W        W12994  30.951  16.713   1.797
53734W        W12995  36.029   7.892   2.735
53735W        W12996  33.062   1.746  13.927
53736W        W12997  27.973  22.233  12.365
53737W        W12998  23.561  36.844   1.330
53738W        W12999   4.936  26.092  14.340
53739W        W13000  32.908  29.427  13.932
53740W        W13001  10.331  31.502   0.786
53741W        W13002  36.545  38.406  13.403
53742W        W13003  23.124   0.871   1.247
53743W        W13004   9.321  15.613   3.643
53744W        W13005  20.708  12.319   2.762
53745W        W13006  29.998  15.676  14.389
53746W        W13007  14.736   0.942  10.110
53747W        W13008  19.701   7.860   4.185
53748W        W13009  11.769  27.579   0.862
53749W        W13010   7.367  31.109  12.441
53750W        W13011  35.010  17.263  13.954
53751W        W13012  33.085   4.358   3.364
53752W        W13013  32.438  32.567  10.440
53753W        W13014  41.359   2.318  13.532
53754W        W13015  35.498  12.852  12.067
53755W        W13016  27.171  11.180   1.246
53756W        W13017   6.809  35.460   4.241
53757W        W13018  18.662  30.022   2.862
53758W        W13019  20.067  23.524   3.868
53759W        W13020  39.920  17.275   0.407
53760W        W13021  10.738  14.242  13.913
53761W        W13022  32.480  27.666   1.928
53762W        W13023  40.404  39.405  14.813
53763W        W13024  12.632  26.956  10.058
53764W        W13025  31.603   7.383  10.411
53765W        W13026  27.045  27.943  10.949
53766W        W13027  17.150   1.820  10.456
53767W        W13028   9.317  26.550   4.758
53768W        W13029  39.839  43.434  14.854
53769W        W13030  41.044  14.656   5.313
53770W        W13031   6.425  11.714   1.919
53771W        W13032  24.159  35.497   0.243
53772W        W13033   5.893  20.604   0.417
53773W        W13034   9.742  30.601  14.390
53774W        W13035  12.136  13.608   1.342
53775W        W13036  23.138  39.541   4.790
53776W        W13037  21.133  23.556   2.372
53777W        W13038   2.941   3.830   3.174
53778W        W13039  26.701   0.893  11.589
53779W        W13040  38.947  17.769   0.255
53780W        W13041  35.922  41.009  10.443
53781W        W13042  29.445  30.513   2.221
53782W        W13043  43.885  40.446   3.829
53783W        W13044  22.630   5.859  10.510
53784W        W13045   1.408  31.442  12.512
53785W        W13046  41.364  15.264   5.150
53786W        W13047  28.667  39.972   3.818
53787W        W13048  27.085  27.181  10.963
53788W        W13049   1.394   8.265  13.808
53789W        W13050  11.300  29.590  14.946
53790W        W13051  35.912   9.854   1.778
53791W        W13052  17.103  28.151  14.333
53792W        W13053  18.559  27.454  13.936
53793W        W13054  21.711  38.533   1.397
53794W        W13055  32.904   7.801   1.341
53795W        W13056  44.975  34.985  11.056
53796W        W13057   7.858  40.310  13.546
53797W        W13058  23.500  18.593   1.349
53798W        W13059  14.776   4.417   3.225
53799W        W13060   7.398  32.941  10.971
53800W        W13061  28.552  29.432  11.001
53801W        W13062  29.939  30.123   2.891
53802W        W13063   5.754  21.042  11.546
53803W        W13064  43.014  42.510   3.150
53804W        W13065  19.589  20.269   4.256
53805W        W13066   7.794   5.824  11.958
53806W        W13067  32.106  39.816   1.291
53807W        W13068  33.010   3.792  10.640
53808W        W13069  43.889  30.515  14.363
53809W        W13070   3.273  24.079   4.597
53810W        W13071  19.237  23.706   5.108
53811W        W13072  32.918  37.473  10.927
53812W        W13073  43.502  35.053   2.794
53813W        W13074   9.323  25.991  12.392
53814W        W13075  43.332  41.922   1.794
53815W        W13076  32.959  27.577   4.753
53816W        W13077  27.622  33.027   4.276
53817W        W13078  13.254   8.697  12.352
53818W        W13079  11.646   0.384   2.786
53819W        W13080  12.185  21.230  13.343
53820W        W13081  40.858  39.454  14.280
53821W        W13082   0.894   2.782  13.444
53822W        W13083  41.475  30.091  14.328
53823W        W13084  15.314   5.397  11.906
53824W        W13085  43.309   7.687  12.363
53825W        W13086  20.245  14.283   2.668
53826W        W13087  39.544  29.619   3.863
53827W        W13088  34.885  14.624   1.303
53828W        W13089   8.180   0.916  14.323
53829W        W13090  14.206  32.528  12.404
53830W        W13091  26.648  39.396   4.229
53831W        W13092  29.542  10.844   3.786
53832W        W13093   5.722   1.279   1.735
53833W        W13094  34.913  33.907  11.013
53834W        W13095  25.022  27.539   0.270
53835W        W13096  24.652  21.109   3.373
53836W        W13097  34.388  33.541   2.703
53837W        W13098  25.654  44.915  14.463
53838W        W13099  42.026   9.264   1.269
53839W        W13100  38.926  15.625   1.918
53840W        W13101   7.716  11.777   2.190
53841W        W13102   6.890  23.505   3.868
53842W        W13103  40.538  41.357  13.399
53843W        W13104  39.019  22.600  10.414
53844W        W13105   4.935  43.881   4.149
53845W        W13106  34.117  37.393   0.937
53846W        W13107  35.604  25.099   2.305
53847W        W13108   5.874  32.505  10.549
53848W        W13109  10.673  35.017  12.062
53849W        W13110  28.610  39.550  13.339
53850W        W13111  17.669   6.406   3.213
53851W        W13112  28.439  10.168   2.722
53852W        W13113   5.749  13.277  13.353
53853W        W13114  34.451  18.703   3.681
53854W        W13115  24.004  40.015   5.081
53855W        W13116  18.154  17.159   4.311
53856W        W13117  39.505  29.146   2.407
53857W        W13118  44.418   5.887   3.210
53858W        W13119  13.329  24.176  13.471
53859W        W13120  35.865  12.189  10.618
53860W        W13121  32.525  25.683   0.750
53861W        W13122   2.906  34.579  11.856
53862W        W13123   1.840  18.170  12.442
53863W        W13124  23.074  25.678  13.840
53864W        W13125  17.791  15.581   0.472
53865W        W13126  25.088  18.595   4.142
53866W        W13127   2.726  24.163  14.010
53867W        W13128   2.365  40.802  13.493
53868W        W13129   5.240   0.976  14.395
53869W        W13130  21.106  29.069  12.833
53870W        W13131  10.681   6.290   5.322
53871W        W13132  23.590  43.293   0.787
53872W        W13133  33.089  11.773   4.210
53873W        W13134  33.495   4.342  11.531
53874W        W13135   3.420  42.844   0.812
53875W        W13136  26.025   8.389   2.340
53876W        W13137  25.119  10.711   3.756
53877W        W13138  39.489   0.770   4.780
53878W        W13139  19.128  25.064   1.401
53879W        W13140  29.937   5.260  14.942
53880W        W13141  36.506  44.302  12.046
53881W        W13142  23.615  20.680   5.244
53882W        W13143  32.583  30.972   3.868
53883W        W13144  34.053  44.264  11.048
53884W        W13145  27.549  18.094  13.913
53885W        W13146   0.941  36.029  14.315
53886W        W13147  40.042  44.423   2.259
53887W        W13148   3.854  18.221   2.886
53888W        W13149  30.648  26.585  12.026
53889W        W13150  23.056  33.056  12.425
53890W        W13151  17.762   0.410   3.813
53891W        W13152  26.585  11.236   3.754
53892W        W13153   6.327  26.970  11.101
53893W        W13154  43.826  14.737  12.864
53894W        W13155   5.693   0.254   3.186
53895W        W13156   0.846  25.090   4.293
53896W        W13157  32.128  38.500  10.102
53897W        W13158  19.582  43.769   1.362
53898W        W13159  18.090  36.578  13.922
53899W        W13160  36.046  42.329   2.362
53900W        W13161   2.879  21.208  12.440
53901W        W13162  18.051  39.985  11.604
53902W        W13163  28.034  35.363  11.125
53903W        W13164  18.267  39.334   0.738
53904W        W13165   5.741  18.078  12.534
53905W        W13166  27.484  37.397   0.397
53906W        W13167  23.690  38.374   4.649
53907W        W13168  26.674  11.858   4.286
53908W        W13169  42.958  36.534   4.116
53909W        W13170  27.535  37.943  10.569
53910W        W13171  22.599   0.254   1.756
53911W        W13172  37.031  17.259   1.311
53912W        W13173  17.662  25.534   3.664
53913W        W13174  38.992  43.418   2.240
53914W        W13175   6.922  35.044   2.707
53915W        W13176  29.524  30.522   1.791
53916W        W13177  23.604  12.348   3.806
53917W        W13178  39.463   0.927   4.205
53918W        W13179   2.268  21.044   9.985
53919W        W13180  38.552  44.763   4.704
53920W        W13181  37.376   0.837   0.826
53921W        W13182  28.544  16.199  10.558
53922W        W13183  41.003  42.502   4.701
53923W        W13184  28.070   4.802   3.155
53924W        W13185  32.418  11.654   3.730
53925W        W13186  12.673  44.307   1.745
53926W        W13187   5.387  15.726  13.932
53927W        W13188  16.304  20.672  12.920
53928W        W13189   4.364  38.333  11.522
53929W        W13190  25.657   8.887  10.616
53930W        W13191  20.656  27.503  11.482
53931W        W13192  27.983  10.192  12.549
53932W        W13193   1.819  32.477  11.391
53933W        W13194  10.830  39.991  11.386
53934W        W13195  28.011  29.104  11.074
53935W        W13196  12.170   1.906   0.814
53936W        W13197  31.591  32.487   4.191
53937W        W13198  38.871  29.576  12.007
53938W        W13199   4.308  26.179   0.769
53939W        W13200   1.842  25.663   3.258
53940W        W13201  34.073   6.335   1.927
53941W        W13202  38.549  29.665  12.865
53942W        W13203  37.482  26.535  14.833
53943W        W13204  28.443  42.481  12.951
53944W        W13205   4.315  17.599  14.512
53945W        W13206   4.435  31.546   1.775
53946W        W13207  31.089  41.794  13.502
53947W        W13208  24.673  32.046   2.233
53948W        W13209  41.803  36.845  14.409
53949W        W13210  36.989   3.722   4.660
53950W        W13211  26.505  11.770   2.384
53951W        W13212   9.309  31.146  12.511
53952W        W13213  19.040  29.931   1.730
53953W        W13214  16.143  29.961   2.356
53954W        W13215   7.353  13.170   2.247
53955W        W13216  19.256  16.583   5.251
53956W        W13217  10.240  41.531   3.197
53957W        W13218  22.662  35.552   2.393
53958W        W13219  19.270  18.116   2.887
53959W        W13220  17.561  31.942  10.908
53960W        W13221  35.924  16.299  13.822
53961W        W13222   0.881  28.542   1.909
53962W        W13223  33.497   0.942   5.166
53963W        W13224  23.554  24.568   4.182
53964W        W13225  16.576  17.725   3.264
53965W        W13226  44.425  27.159  14.851
53966W        W13227  17.617  11.636   4.130
53967W        W13228  19.050   2.312   2.307
53968W        W13229  30.971  20.058  14.931
53969W        W13230  31.447  12.204  10.433
53970W        W13231  43.441  23.503   3.839
53971W        W13232  33.408  28.575   4.339
53972W        W13233  40.843  33.497  13.358
53973W        W13234  18.174  18.051  12.016
53974W        W13235  12.837  27.005  14.288
53975W        W13236   1.924  43.787   0.901
53976W        W13237   1.319  37.082   3.777
53977W        W13238  19.045  18.632  12.055
53978W        W13239  33.390  38.873   2.782
53979W        W13240  22.042  11.177   0.810
53980W        W13241  29.077  28.658  12.553
53981W        W13242  14.270  42.387   2.220
53982W        W13243  36.547  38.442   4.737
53983W        W13244  24.716   6.718  14.929
53984W        W13245   2.376  15.170   0.455
53985W        W13246  18.172  11.706   1.864
53986W        W13247  27.985   6.816  14.336
53987W        W13248  27.575  19.116  11.118
53988W        W13249   2.279   2.783   2.374
53989W        W13250   9.158  12.655   4.833
53990W        W13251  28.035  32.551   1.824
53991W        W13252  28.174   7.385  13.818
53992W        W13253   8.841  29.516   1.400
53993W        W13254  27.097   3.735  14.826
53994W        W13255   9.747  12.313   1.219
53995W        W13256  12.625  10.701  12.093
53996W        W13257  29.108  18.699  14.454
53997W        W13258  28.097  28.607  14.997
53998W        W13259  20.141  34.442   2.414
53999W        W13260  35.061  37.496  11.864
54000W        W13261  32.598  43.814  12.950
54001W        W13262  35.366  10.182   1.304
54002W        W13263  11.792  34.000  13.934
54003W        W13264  32.588  37.034  11.965
54004W        W13265  35.013  40.391  14.323
54005W        W13266   9.806   6.403  10.458
54006W        W13267  40.427  36.537  12.863
54007W        W13268  25.978   4.450  11.070
54008W        W13269  17.771  25.962  13.338
54009W        W13270   4.734  42.510   2.849
54010W        W13271  31.060  30.616   1.744
54011W        W13272  10.376  18.651   0.788
54012W        W13273   3.327  16.117   4.697
54013W        W13274   2.829  22.554  10.919
54014W        W13275  31.522   9.706   0.283
54015W        W13276  15.283  32.524   1.859
54016W        W13277  20.655   8.870   3.757
54017W        W13278  37.012  41.813  10.592
54018W        W13279  30.048  36.079  10.889
54019W        W13280  42.888  43.963  13.414
54020W        W13281  15.763  29.992   0.395
54021W        W13282  44.352  19.076  14.793
54022W        W13283  34.964  12.361   2.794
54023W        W13284  16.668   2.429   2.756
54024W        W13285  39.839  42.292   4.659
54025W        W13286  34.081  18.556   3.862
54026W        W13287  42.396  32.400   4.754
54027W        W13288  43.505   8.832   2.891
54028W        W13289  29.432  10.359  14.804
54029W        W13290  10.148  12.786   1.452
54030W        W13291  22.627  15.688   4.827
54031W        W13292  22.183  19.237   3.850
54032W        W13293   2.854  39.491   0.330
54033W        W13294  11.689   9.874  12.543
54034W        W13295  24.009  32.018   4.661
54035W        W13296  17.795  36.018  13.518
54036W        W13297  19.662  26.077  10.985
54037W        W13298  16.594  26.577  11.531
54038W        W13299  10.784   0.790   4.689
54039W        W13300  31.043   2.869   2.817
54040W        W13301  22.584  24.572   4.122
54041W        W13302  40.311  43.895   0.280
54042W        W13303  36.465  28.567   2.275
54043W        W13304   2.937  44.820   1.358
54044W        W13305  31.480  26.676  11.489
54045W        W13306  21.577  25.609  12.484
54046W        W13307  15.614  10.380  13.976
54047W        W13308  11.210  12.138  14.340
54048W        W13309   2.963  26.658  10.623
54049W        W13310  29.626  13.174  10.450
54050W        W13311  35.584  17.634  14.841
54051W        W13312  16.694  13.623  12.473
54052W        W13313  36.051   6.843  11.471
54053W        W13314  25.678  13.194   4.650
54054W        W13315  15.606  20.179  13.348
54055W        W13316  12.711  42.366  14.010
54056W        W13317  40.506  33.574   4.798
54057W        W13318   7.271  24.173   4.211
54058W        W13319   5.214  21.657   2.816
54059W        W13320  41.496  14.600  14.863
54060W        W13321  29.029  16.088  12.005
54061W        W13322  23.219  24.227   1.445
54062W        W13323  44.491   4.722   2.332
54063W        W13324   8.775  22.509   3.797
54064W        W13325  27.949  32.558   2.679
54065W        W13326   7.315   1.356  10.986
54066W        W13327  40.032  28.049  12.027
54067W        W13328   9.321  12.804  13.490
54068W        W13329  16.774   5.279  12.961
54069W        W13330  39.919  26.973   4.697
54070W        W13331  15.738   1.809   2.766
54071W        W13332   3.222   6.213   0.278
54072W        W13333  12.167  19.238   1.233
54073W        W13334  12.659  33.394  10.507
54074W        W13335  22.595  14.783  14.006
54075W        W13336  11.647  23.148   4.729
54076W        W13337  32.953  26.065  12.928
54077W        W13338  11.706  28.437   0.780
54078W        W13339  43.291  16.588  14.308
54079W        W13340  38.897  38.870   0.848
54080W        W13341  20.690  39.476   0.254
54081W        W13342  37.031  20.607   0.815
54082W        W13343  34.571   6.355  13.341
54083W        W13344  19.249  39.022  12.465
54084W        W13345  20.068  44.773   2.255
54085W        W13346  17.079  10.224  13.924
54086W        W13347   6.746  28.037   2.820
54087W        W13348  27.186  20.739   4.647
54088W        W13349   8.710  44.868   1.394
54089W        W13350  24.603   8.319   0.729
54090W        W13351  16.145  16.726  14.943
54091W        W13352   2.874  24.718   0.733
54092W        W13353  40.998   2.919   0.351
54093W        W13354  44.868  41.930  11.464
54094W        W13355   7.234  33.525  11.433
54095W        W13356   3.769   1.457   1.735
54096W        W13357   8.690  14.669  12.518
54097W        W13358  44.358  20.676   1.356
54098W        W13359  40.968  39.424  12.371
54099W        W13360  20.242   8.856   4.652
54100W        W13361  30.589  11.252  14.391
54101W        W13362  24.222  10.333  11.436
54102W        W13363  31.943  15.176  14.890
54103W        W13364  12.674  32.435   0.759
54104W        W13365   3.752  43.812   3.849
54105W        W13366  44.355  34.451  12.363
54106W        W13367  38.486  25.584  10.112
54107W        W13368   5.313  26.518  10.440
54108W        W13369  19.591  27.978  11.574
54109W        W13370   2.903   1.374   2.842
54110W        W13371  19.041  41.345   3.229
54111W        W13372  29.952   4.311  14.493
54112W        W13373  16.709  41.529   4.737
54113W        W13374  26.995  31.958  14.359
54114W        W13375  39.820  27.075  13.014
54115W        W13376   4.328  39.879  11.878
54116W        W13377  16.638  33.907   1.791
54117W        W13378  16.276   3.393   5.092
54118W        W13379  43.920   9.356   1.931
54119W        W13380   5.201  10.247   4.648
54120W        W13381   7.249  22.542  14.909
54121W        W13382   4.220  25.496   1.379
54122W        W13383  38.014   6.267  10.527
54123W        W13384  10.162  43.338   2.276
54124W        W13385  40.881  18.183   2.694
54125W        W13386  28.097  26.980  12.465
54126W        W13387  16.751  13.326  14.330
54127W        W13388  44.883  24.504  11.046
54128W        W13389  30.569  19.733   0.839
54129W        W13390  39.843   2.269  13.959
54130W        W13391  17.275  14.198   2.876
54131W        W13392  32.125  16.606  12.922
54132W        W13393  20.216   7.367  13.518
54133W        W13394  23.498  13.602  10.615
54134W        W13395   4.365  25.159   3.365
54135W        W13396  42.386  27.041   2.263
54136W        W13397  24.178   6.866  13.474
54137W        W13398   5.902  34.565   3.167
54138W        W13399   2.764   9.300   4.234
54139W        W13400  19.134   7.690  12.934
54140W        W13401  18.190  15.298  10.407
54141W        W13402  43.503  17.603  10.044
54142W        W13403   3.453   8.178   0.466
54143W        W13404  40.547   3.737   2.816
54144W        W13405   3.906  25.522  10.568
54145W        W13406  17.220  26.093  14.836
54146W        W13407  35.518  31.027  12.493
54147W        W13408   1.783   3.872   2.688
54148W        W13409  12.164   7.833   3.357
54149W        W13410   6.298  18.546   3.714
54150W        W13411  33.575  15.765  11.012
54151W        W13412  32.139  18.108  13.014
54152W        W13413  19.580   1.862  12.036
54153W        W13414   5.301  23.211  12.461
54154W        W13415  29.576  41.382  13.933
54155W        W13416  15.744  26.668   3.731
54156W        W13417   2.877  41.984   0.847
54157W        W13418   3.303   0.892  10.996
54158W        W13419  42.295  38.949   4.838
54159W        W13420   6.825   3.764   0.777
54160W        W13421  10.202  39.475  14.906
54161W        W13422  34.560  32.106  13.993
54162W        W13423  38.987  19.258   0.891
54163W        W13424  14.149  44.473   4.297
54164W        W13425  25.078  42.780  14.331
54165W        W13426  21.168  31.010  14.871
54166W        W13427   2.912   1.928   0.873
54167W        W13428  40.900   5.839  12.570
54168W        W13429  10.854  42.020  14.489
54169W        W13430  36.962  35.088   2.668
54170W        W13431   6.866  33.621   4.163
54171W        W13432  15.198   9.278   2.215
54172W        W13433  35.049   9.728   4.617
54173W        W13434  26.018  14.266   2.213
54174W        W13435  40.962  14.590  11.557
54175W        W13436  27.651  42.509   2.348
54176W        W13437  34.099  16.092   4.198
54177W        W13438   1.743  11.145   0.399
54178W        W13439  13.279   2.759   2.250
54179W        W13440  43.477  16.704   2.190
54180W        W13441  29.577  39.421  13.311
54181W        W13442  38.494  39.025  10.577
54182W        W13443  42.872  40.469  14.917
54183W        W13444  15.323   1.456   4.815
54184W        W13445  21.575  43.384  12.913
54185W        W13446  11.329   9.190   3.337
54186W        W13447   7.762  11.271   2.183
54187W        W13448  21.585   3.882   3.824
54188W        W13449  28.982   2.908  11.970
54189W        W13450  18.772  37.982  13.887
54190W        W13451  36.849  25.510  13.427
54191W        W13452   8.857  18.177   0.885
54192W        W13453  22.241  24.596   0.939
54193W        W13454  13.214  37.478  13.854
54194W        W13455   4.250  23.678  12.916
54195W        W13456  19.763  44.901   4.661
54196W        W13457  30.602  12.682   0.937
54197W        W13458  23.604   0.434  10.503
54198W        W13459  34.042  43.363   3.795
54199W        W13460  26.163  29.645  13.836
54200W        W13461   7.891  11.253  12.860
54201W        W13462   1.924  16.711   2.338
54202W        W13463   8.678  42.869   1.925
54203W        W13464  22.065  39.031  13.799
54204W        W13465  38.515   1.750  13.928
54205W        W13466   8.178  17.678  13.040
54206W        W13467   5.824  22.531  13.324
54207W        W13468  40.960  44.372   3.363
54208W        W13469  25.545   4.709  12.084
54209W        W13470  34.995  32.065   3.860
54210W        W13471  44.339  28.045   3.228
54211W        W13472   8.402  29.147   3.738
54212W        W13473  37.420   4.426  11.391
54213W        W13474  15.238  42.932  13.796
54214W        W13475   6.397  27.670   0.960
54215W        W13476  41.859  31.491  14.448
54216W        W13477   3.283   7.832   3.846
54217W        W13478  17.726  38.516  10.425
54218W        W13479   0.957   3.878   3.664
54219W        W13480  21.036  21.581  12.447
54220W        W13481  12.800   4.881   0.932
54221W        W13482  16.252   8.804   5.310
54222W        W13483  37.412  44.757   1.276
54223W        W13484  34.551  40.881   1.696
54224W        W13485  24.129  24.619   2.335
54225W        W13486  37.508  11.704  12.494
54226W        W13487   0.977  16.607  13.444
54227W        W13488  23.719  26.201  12.383
54228W        W13489  43.889  26.196   2.315
54229W        W13490  31.096  38.855   5.288
54230W        W13491  44.815  19.632   2.191
54231W        W13492   1.290  40.375   0.453
54232W        W13493  31.405  33.126   3.386
54233W        W13494  12.803  35.878   3.355
54234W        W13495  26.580   1.869   0.783
54235W        W13496  24.196   1.787   1.253
54236W        W13497  27.521  34.469   1.357
54237W        W13498   1.767  22.714   4.641
54238W        W13499   7.412  22.595   2.198
54239W        W13500  23.674  42.997  12.007
54240W        W13501  29.122   9.232  11.387
54241W        W13502  40.864  25.489  14.920
54242W        W13503  20.757  24.199   4.173
54243W        W13504  33.966  33.075  12.077
54244W        W13505  11.343  32.094   1.830
54245W        W13506  44.387  12.760   3.771
54246W        W13507  44.342  23.194  11.887
54247W        W13508  20.752   2.897  14.931
54248W        W13509  43.974   3.747   3.651
54249W        W13510  26.511  13.789   4.644
54250W        W13511   2.299   7.266  11.999
54251W        W13512   1.853  22.083   3.152
54252W        W13513  37.517  10.148   2.713
54253W        W13514  35.061  20.731   3.670
54254W        W13515  35.868  28.479  10.591
54255W        W13516  40.993  32.069   0.768
54256W        W13517  33.118   3.443   2.405
54257W        W13518  43.409  34.060  14.498
54258W        W13519  21.616  24.159   0.243
54259W        W13520   6.720   3.748  12.460
54260W        W13521   7.313  18.682  14.950
54261W        W13522   8.263   4.267  11.496
54262W        W13523   8.822  42.790   0.442
54263W        W13524   0.953   0.302   4.736
54264W        W13525  34.037  27.061   1.307
54265W        W13526   3.272  25.698  14.974
54266W        W13527  35.087  12.356   9.987
54267W        W13528  25.566   6.745   3.717
54268W        W13529  32.431  30.514   4.793
54269W        W13530   8.346  28.455  14.023
54270W        W13531  29.663  16.674   2.281
54271W        W13532  10.730   6.330  10.895
54272W        W13533   9.673  12.244  10.569
54273W        W13534  26.643  25.110   2.806
54274W        W13535  10.829   7.319   1.895
54275W        W13536  35.892   6.359   0.373
54276W        W13537  42.404  13.274   4.127
54277W        W13538  14.770  19.121  10.460
54278W        W13539  42.474  19.702   4.233
54279W        W13540  23.698  13.820  12.535
54280W        W13541  16.253  17.692   1.340
54281W        W13542  39.837  14.180   3.357
54282W        W13543  27.982  26.663   0.764
54283W        W13544  43.865  38.049  10.523
54284W        W13545  37.452  40.891  10.408
54285W        W13546   6.288  31.134   0.823
54286W        W13547  34.401  39.968  13.486
54287W        W13548  40.034  29.444  12.092
54288W        W13549  39.485  37.998   1.281
54289W        W13550  34.478  33.613  12.825
54290W        W13551  40.868   7.811   2.312
54291W        W13552  10.860  30.532  14.465
54292W        W13553  31.590  10.257   2.194
54293W        W13554   2.433  26.968   1.218
54294W        W13555  10.819  14.334   4.623
54295W        W13556  40.416  20.619  11.422
54296W        W13557  14.148  23.639   1.394
54297W        W13558  22.126  17.129   3.337
54298W        W13559  18.575   6.691   4.733
54299W        W13560   0.881  23.684  12.897
54300W        W13561  11.761  12.129   0.809
54301W        W13562   9.267   9.267   1.885
54302W        W13563   6.868  19.261  14.958
54303W        W13564  13.749  34.442   4.268
54304W        W13565  20.088   4.887   3.722
54305W        W13566  35.495  23.513   1.406
54306W        W13567  26.698  17.191   3.789
54307W        W13568  35.977   3.843   3.321
54308W        W13569  25.550  25.145   0.473
54309W        W13570   7.820  18.137   3.178
54310W        W13571  37.344  22.629   3.655
54311W        W13572  17.578  25.163   4.333
54312W        W13573  15.681  28.461   3.645
54313W        W13574  29.480  29.658  10.108
54314W        W13575  34.556  19.596  13.388
54315W        W13576  40.517   4.723   4.295
54316W        W13577   7.670  25.973   1.261
54317W        W13578  25.470  31.994  14.895
54318W        W13579  38.373  40.476  13.050
54319W        W13580  25.141   7.276  10.468
54320W        W13581  25.597  20.067   3.776
54321W        W13582  27.592  35.582  10.929
54322W        W13583  21.615   3.738   3.192
54323W        W13584  32.066  35.550  11.397
54324W        W13585  21.037  21.186   2.368
54325W        W13586  18.584  27.980  12.043
54326W        W13587  23.717  42.905  13.973
54327W        W13588  10.677  22.701  12.998
54328W        W13589   2.928   3.426   2.390
54329W        W13590   0.287  41.480   1.894
54330W        W13591  31.613  10.768  14.386
54331W        W13592   6.853  18.067  14.443
54332W        W13593  34.547  32.624   1.730
54333W        W13594  37.488   0.392   3.223
54334W        W13595  41.853  38.361  10.627
54335W        W13596   1.888  23.219  11.484
54336W        W13597  41.457  33.044  13.497
54337W        W13598  31.520  14.240  10.976
54338W        W13599   3.778  37.057   1.781
54339W        W13600   5.232  25.483   1.305
54340W        W13601  25.121  10.654  10.478
54341W        W13602  25.708  19.187  14.384
54342W        W13603  20.094  33.396  10.532
54343W        W13604  41.009  11.796  14.841
54344W        W13605  31.970  32.584   2.197
54345W        W13606  17.789  38.456   1.211
54346W        W13607   8.893  29.065  12.491
54347W        W13608  44.954  22.679   1.432
54348W        W13609   5.765   2.341  11.893
54349W        W13610   4.781   1.742   3.385
54350W        W13611   0.455  41.024  11.042
54351W        W13612  12.768  35.856   4.194
54352W        W13613  25.557  14.655   1.874
54353W        W13614  42.880  16.272  13.814
54354W        W13615   1.276  37.831  13.500
54355W        W13616  25.481  26.585  10.966
54356W        W13617  38.541   7.247   3.181
54357W        W13618   6.726  27.072  13.848
54358W        W13619   9.278  24.637   1.229
54359W        W13620  16.262  15.741   4.272
54360W        W13621  23.185  13.331   0.926
54361W        W13622  35.092  33.518   1.766
54362W        W13623   4.835  28.954   2.360
54363W        W13624   0.887  29.669  11.004
54364W        W13625  19.056  15.206   0.373
54365W        W13626  40.953   8.748  12.451
54366W        W13627   6.907   6.358  14.956
54367W        W13628  21.623  19.276   0.478
54368W        W13629  35.853   4.211  11.897
54369W        W13630  35.429  38.364  12.943
54370W        W13631  12.666  30.963   4.302
54371W        W13632   9.284   9.259   4.610
54372W        W13633   9.290  23.070  12.080
54373W        W13634  34.946  26.076  10.494
54374W        W13635  30.018  32.620   5.743
54375W        W13636  26.124  26.034  11.433
54376W        W13637  30.996  12.339  13.020
54377W        W13638  38.433  20.767  10.540
54378W        W13639  44.369  34.025   2.298
54379W        W13640  33.885  10.206   3.664
54380W        W13641  40.521   4.867   4.815
54381W        W13642  33.875   8.810  12.939
54382W        W13643  26.524  38.462   2.837
54383W        W13644  31.440   3.259  14.396
54384W        W13645   1.754  31.510   1.729
54385W        W13646  17.239  43.908  11.863
54386W        W13647  15.241  38.511   1.840
54387W        W13648  34.992  37.892  11.101
54388W        W13649  16.573   3.294   2.693
54389W        W13650   1.389  44.311  14.925
54390W        W13651  15.621  27.071   2.769
54391W        W13652  43.820   2.738  14.896
54392W        W13653  42.973   1.340  14.334
54393W        W13654  34.866  24.008  13.924
54394W        W13655  28.995  23.681   4.658
54395W        W13656  19.558  24.157   0.388
54396W        W13657  34.515  35.445  13.794
54397W        W13658  34.509   1.847   2.726
54398W        W13659  12.785  26.143   2.712
54399W        W13660  27.571  19.716  12.964
54400W        W13661   5.265  32.076  11.565
54401W        W13662  28.536  35.500   2.872
54402W        W13663  38.507  31.910  10.628
54403W        W13664  23.599  22.158  14.419
54404W        W13665  34.399   3.908   1.764
54405W        W13666  19.126  32.573  11.081
54406W        W13667  12.803   9.660  10.579
54407W        W13668  32.010  25.525  13.947
54408W        W13669  32.925  44.858  13.510
54409W        W13670  43.767  43.470   1.360
54410W        W13671  32.907   4.310  14.308
54411W        W13672  43.512  11.264   1.783
54412W        W13673  43.963  32.466   1.712
54413W        W13674  29.562  26.598  10.591
54414W        W13675  26.074   3.377   0.438
54415W        W13676   5.889  35.978   4.327
54416W        W13677  25.692  17.684   0.752
54417W        W13678  15.147  34.570   3.700
54418W        W13679   9.276  42.965   1.400
54419W        W13680   9.804  19.710   1.917
54420W        W13681   1.783  37.541  12.007
54421W        W13682  19.553   4.707   1.289
54422W        W13683  38.066  13.316   2.759
54423W        W13684  33.029  29.008   3.676
54424W        W13685  27.603  38.906  13.828
54425W        W13686  15.769   4.365   5.732
54426W        W13687  37.875  20.601   3.163
54427W        W13688  27.991  36.858   3.833
54428W        W13689   2.938  26.608   1.402
54429W        W13690  23.990  15.231   4.182
54430W        W13691   4.244  41.846  12.553
54431W        W13692  39.558  44.967  11.590
54432W        W13693  17.301  30.590  11.990
54433W        W13694  25.534  42.302  12.824
54434W        W13695  20.190  39.885   0.737
54435W        W13696  17.103  39.355   3.763
54436W        W13697  41.892   9.747   1.793
54437W        W13698  13.166  37.527   2.253
54438W        W13699   3.343   5.850   0.922
54439W        W13700  13.790  29.539  12.838
54440W        W13701  18.150   1.339   3.753
54441W        W13702   6.387  22.608  12.518
54442W        W13703   1.482   8.377   2.774
54443W        W13704  33.582  19.612  13.817
54444W        W13705  25.618  37.946   1.701
54445W        W13706  42.816  29.490   2.384
54446W        W13707  31.618   1.787  12.417
54447W        W13708  41.031  12.279   4.246
54448W        W13709  26.015  28.654   5.286
54449W        W13710  16.781  18.184  14.777
54450W        W13711  41.367  38.448   3.678
54451W        W13712  23.632  26.607  13.409
54452W        W13713  40.534  31.511  14.796
54453W        W13714   5.359  24.044  11.059
54454W        W13715   7.761  40.454  11.053
54455W        W13716  10.240  44.925   0.482
54456W        W13717  29.132   8.364   4.348
54457W        W13718  27.677   0.338  11.481
54458W        W13719  12.328   2.322   4.278
54459W        W13720  35.019  15.587  10.025
54460W        W13721  10.238   7.827  12.372
54461W        W13722  26.462  24.118   2.772
54462W        W13723   6.366   9.235   1.923
54463W        W13724  12.637  16.802   1.406
54464W        W13725  42.387   6.836  10.910
54465W        W13726  19.161  16.241  10.589
54466W        W13727  38.989  36.562  13.465
54467W        W13728  38.366  36.040   4.819
54468W        W13729  38.325   9.833  10.935
54469W        W13730  36.908   8.861  11.951
54470W        W13731  12.783  30.082  11.943
54471W        W13732  27.684  26.509   1.779
54472W        W13733   3.726   1.769  10.584
54473W        W13734  29.075   5.911  14.939
54474W        W13735   3.830  13.190  12.541
54475W        W13736  22.244   9.196  11.059
54476W        W13737  32.625  12.316  14.870
54477W        W13738  12.229  22.063   3.222
54478W        W13739  12.294  44.342   0.319
54479W        W13740  33.387  17.708  14.800
54480W        W13741  35.584  15.765   1.865
54481W        W13742  28.477  10.363   4.698
54482W        W13743   5.333  27.172   2.405
54483W        W13744  19.226   6.697  12.097
54484W        W13745  38.043  31.081  11.431
54485W        W13746  37.007  21.629  11.490
54486W        W13747  19.688  16.742  11.904
54487W        W13748  37.082  17.624   0.304
54488W        W13749  36.014   3.215   1.806
54489W        W13750  22.248  42.286  14.989
54490W        W13751  34.902  34.401  11.454
54491W        W13752  21.093  43.827   1.228
54492W        W13753  26.558  23.184  13.540
54493W        W13754  17.760  24.049  14.829
54494W        W13755  32.946  24.577  13.000
54495W        W13756  26.585  33.552   3.850
54496W        W13757  34.912  42.950   1.705
54497W        W13758   3.809  11.221   2.269
54498W        W13759  25.631  10.699  14.912
54499W        W13760   1.319  12.318  11.515
54500W        W13761  14.735  36.466  12.372
54501W        W13762  14.738  22.717   4.296
54502W        W13763   7.359   7.891   2.326
54503W        W13764  11.133  28.627   1.912
54504W        W13765  37.415  26.086  11.389
54505W        W13766  42.394  23.028  11.612
54506W        W13767  29.556  25.498   3.750
54507W        W13768  19.599  13.204   2.722
54508W        W13769   8.245  20.147  10.548
54509W        W13770  32.940  14.806   4.348
54510W        W13771  39.038   6.353   4.300
54511W        W13772   1.409  29.474   4.662
54512W        W13773  37.913  25.965  13.043
54513W        W13774  13.833   8.808   3.662
54514W        W13775  14.795   0.810  11.880
54515W        W13776  20.711   7.412   1.450
54516W        W13777  18.632  38.984  10.106
54517W        W13778  27.569  42.951  13.916
54518W        W13779   9.360  30.592   3.705
54519W        W13780   1.237  14.827   3.746
54520W        W13781   6.844  44.490   0.466
54521W        W13782  38.932  10.270   4.777
54522W        W13783  40.811  10.225   2.186
54523W        W13784  16.813  37.075  14.883
54524W        W13785  44.954   3.918  14.944
54525W        W13786   7.723  38.992   1.746
54526W        W13787  24.198  42.872  10.431
54527W        W13788   1.301   5.731   4.747
54528W        W13789  10.333  28.529  12.487
54529W        W13790  35.950  26.189  13.434
54530W        W13791  42.017  40.314  13.866
54531W        W13792  18.247  21.257  11.958
54532W        W13793  35.010   7.356   3.345
54533W        W13794  35.898  12.742  12.367
54534W        W13795   1.923  20.593  14.514
54535W        W13796  39.525  39.386   0.965
54536W        W13797  18.648   6.872   3.790
54537W        W13798  13.141  18.658   2.896
54538W        W13799   8.308  20.619   0.942
54539W        W13800  19.189   9.326  14.888
54540W        W13801   4.378  39.482  14.425
54541W        W13802  38.405  30.114  14.418
54542W        W13803  22.602  34.372   1.316
54543W        W13804   7.831  15.252  13.501
54544W        W13805  25.009  42.502  10.531
54545W        W13806   1.414   3.822  14.325
54546W        W13807  10.666  19.075  12.046
54547W        W13808  41.946  40.968  10.601
54548W        W13809  23.720  16.767   4.695
54549W        W13810  43.514  27.621   0.918
54550W        W13811  12.788  42.887   4.744
54551W        W13812  36.992  38.416   1.259
54552W        W13813  13.711  24.213   1.358
54553W        W13814  13.235  31.532  11.398
54554W        W13815  14.763  18.058  13.844
54555W        W13816  26.589  31.950   5.199
54556W        W13817  37.404  25.183   1.878
54557W        W13818  36.416  23.569  10.448
54558W        W13819   1.287  17.784   3.633
54559W        W13820  18.242  16.237  12.094
54560W        W13821  10.351  18.231  14.965
54561W        W13822  38.064  25.694   4.808
54562W        W13823  43.428   5.774  12.486
54563W        W13824  12.198  38.998   1.909
54564W        W13825  33.383  11.296  13.042
54565W        W13826  23.527   4.775  14.860
54566W        W13827  40.500   7.358   0.417
54567W        W13828  23.082  28.088   3.315
54568W        W13829  10.836  17.078  10.539
54569W        W13830  21.657  23.499  11.112
54570W        W13831  31.590   6.265   4.601
54571W        W13832   7.711  36.092   2.293
54572W        W13833  32.015   5.719   1.313
54573W        W13834   7.212   5.377  14.475
54574W        W13835  40.453  16.782  12.853
54575W        W13836  11.784   8.711  14.413
54576W        W13837  42.032  21.098   0.837
54577W        W13838  16.185   0.469  10.577
54578W        W13839  37.833  16.290   4.184
54579W        W13840   6.876  36.488  14.779
54580W        W13841  28.134   7.320  12.934
54581W        W13842   4.218  24.504  12.945
54582W        W13843   3.386  31.985  14.346
54583W        W13844  30.509  25.670   0.949
54584W        W13845  23.521  26.983   3.678
54585W        W13846  29.955  44.379   3.639
54586W        W13847  12.295  35.490   4.288
54587W        W13848  23.153  43.783   0.878
54588W        W13849   2.322  13.687   3.728
54589W        W13850  19.275  28.657   2.672
54590W        W13851  10.162  20.525   4.695
54591W        W13852   3.230  16.774   2.849
54592W        W13853   2.876  26.208  14.278
54593W        W13854  31.629   3.953  11.041
54594W        W13855   7.243  25.659  12.894
54595W        W13856  26.046  28.458   2.347
54596W        W13857  26.997   0.298  13.042
54597W        W13858   1.271  40.539  13.311
54598W        W13859   3.344  44.873   3.702
54599W        W13860  28.486  14.171  10.458
54600W        W13861   7.757  17.189  13.338
54601W        W13862  36.937  17.150  13.821
54602W        W13863  36.575  32.410  11.603
54603W        W13864  16.812  39.039   2.371
54604W        W13865  32.893  30.488   4.172
54605W        W13866   3.225  25.477   3.269
54606W        W13867  31.117  10.736   0.325
54607W        W13868  41.439  10.249   0.967
54608W        W13869  25.547  41.437   3.643
54609W        W13870  12.801  41.523   1.750
54610W        W13871  34.486  33.970  12.056
54611W        W13872  14.645  10.634   0.869
54612W        W13873  17.780  18.734  11.535
54613W        W13874  15.819  35.912   1.821
54614W        W13875  15.119  38.825  11.042
54615W        W13876   0.795  43.369   4.327
54616W        W13877   2.846  18.554  12.342
54617W        W13878  12.343  31.553  14.367
54618W        W13879  20.609  29.479   0.776
54619W        W13880  29.661  16.176   2.851
54620W        W13881  10.779  14.108  10.987
54621W        W13882  44.918   5.828  12.959
54622W        W13883  35.971  19.082  11.444
54623W        W13884  32.068  18.110  14.467
54624W        W13885   6.329  35.472   0.765
54625W        W13886  40.449   1.834   3.158
54626W        W13887  31.955   8.244  11.392
54627W        W13888  29.119  19.140   1.259
54628W        W13889   9.836  32.617   3.704
54629W        W13890  11.788  43.445  12.967
54630W        W13891  18.756   0.366   1.366
54631W        W13892  22.132  25.018   0.886
54632W        W13893  37.472  37.503  11.102
54633W        W13894   5.807   9.863  14.389
54634W        W13895  23.537   8.698  11.107
54635W        W13896  28.650  16.299   0.729
54636W        W13897  42.525  39.396   0.378
54637W        W13898  14.200  33.531  12.358
54638W        W13899   0.347  39.859   3.634
54639W        W13900  40.929  32.931  13.342
54640W        W13901  24.632  15.244  13.511
54641W        W13902   9.310  11.301   3.671
54642W        W13903  41.422  10.793   1.871
54643W        W13904   7.759  32.619  13.420
54644W        W13905  11.276  39.456  12.910
54645W        W13906  43.454  43.512  13.475
54646W        W13907  38.888   5.745   4.663
54647W        W13908   4.361  11.129  14.822
54648W        W13909  11.326  36.970   4.116
54649W        W13910  27.063   8.396   0.904
54650W        W13911  19.673  29.021  14.316
54651W        W13912  16.290   1.307  10.434
54652W        W13913  25.059  28.450   4.225
54653W        W13914  12.615  36.432   0.372
54654W        W13915  42.924   9.855   0.866
54655W        W13916  44.978  18.255   3.271
54656W        W13917   6.267  32.440  11.556
54657W        W13918   3.899  29.122  13.483
54658W        W13919  23.696  40.391  11.547
54659W        W13920  37.053  15.684  13.542
54660W        W13921  40.521   9.237   4.114
54661W        W13922  16.195  41.852  11.998
54662W        W13923  39.025  43.338  14.763
54663W        W13924  44.830  14.103   3.826
54664W        W13925  23.025  43.416   3.245
54665W        W13926  23.037  36.923   3.323
54666W        W13927  27.624  26.162   1.791
54667W        W13928  33.112  19.746  12.423
54668W        W13929  21.638  39.387   2.823
54669W        W13930   8.719  16.235  11.128
54670W        W13931  13.817  18.631   2.410
54671W        W13932   1.477  44.461   3.245
54672W        W13933   3.723   7.233   1.214
54673W        W13934  43.957   4.760   0.963
54674W        W13935  16.299  20.534   4.724
54675W        W13936  11.756  43.332   0.896
54676W        W13937  15.781  19.248   0.822
54677W        W13938  29.167   9.859  14.487
54678W        W13939   1.393  43.503   1.812
54679W        W13940  20.050  26.195   2.244
54680W        W13941  34.507   0.360   3.361
54681W        W13942   0.828  16.227   3.364
54682W        W13943   7.246  20.046   4.165
54683W        W13944  32.524  32.468   3.293
54684W        W13945  21.137  30.091  11.856
54685W        W13946  14.302  21.164  14.018
54686W        W13947  11.246  31.569  10.891
54687W        W13948  18.648  24.703  12.019
54688W        W13949  35.988  39.494   0.890
54689W        W13950  17.702  40.041   4.134
54690W        W13951  29.001  26.573   2.665
54691W        W13952  30.622   4.796   2.186
54692W        W13953  19.170  37.536  11.504
54693W        W13954  35.930  14.132   3.750
54694W        W13955  21.689  12.827   1.760
54695W        W13956  11.732  39.924   2.211
54696W        W13957  21.039   6.331  14.002
54697W        W13958  40.308  19.279  12.503
54698W        W13959   0.896  25.202   3.801
54699W        W13960  30.642  43.910  13.381
54700W        W13961  34.551  30.908  14.922
54701W        W13962  32.003  13.844  13.805
54702W        W13963  10.698  29.066   1.752
54703W        W13964   8.192  36.900  11.917
54704W        W13965  22.628   7.851  11.069
54705W        W13966  44.474  30.098   3.678
54706W        W13967  10.227   3.408  10.480
54707W        W13968  11.822  44.271  10.972
54708W        W13969  28.933  35.416  10.550
54709W        W13970  33.117  35.379   4.317
54710W        W13971   8.352   8.837  14.399
54711W        W13972  26.604   9.664   9.940
54712W        W13973  18.211  14.161   0.421
54713W        W13974  19.201  14.710  14.320
54714W        W13975   1.305   1.410   2.735
54715W        W13976  13.179   1.834   1.338
54716W        W13977  12.146  38.466  14.845
54717W        W13978  33.073   1.347  14.828
54718W        W13979  29.937  22.184   0.944
54719W        W13980   5.386  43.829  10.946
54720W        W13981  20.194  11.267   0.473
54721W        W13982  43.803  43.423  11.495
54722W        W13983  13.697  33.996  12.016
54723W        W13984  21.157  28.127  12.475
54724W        W13985  23.616  41.993   1.380
54725W        W13986  35.016  32.947   4.726
54726W        W13987  39.912  14.651   0.820
54727W        W13988  41.817  29.468  13.058
54728W        W13989  25.052  11.127   2.677
54729W        W13990  19.623   9.873  11.091
54730W        W13991  37.384  23.561   1.403
54731W        W13992  27.025  32.901   9.921
54732W        W13993   9.850   2.922  10.915
54733W        W13994  13.315  44.904  13.311
54734W        W13995  36.878   9.668   2.385
54735W        W13996  15.109  29.484   0.736
54736W        W13997  13.110  26.520  13.478
54737W        W13998  10.356  36.403  11.078
54738W        W13999  40.335  44.886   1.696
54739W        W14000  35.012  44.787   1.888
54740W        W14001  15.745  23.683  14.922
54741W        W14002  42.499  39.905   3.691
54742W        W14003   8.389  41.793   0.246
54743W        W14004  11.840  24.990   1.752
54744W        W14005  32.893  43.767  10.982
54745W        W14006  21.240  24.124   3.295
54746W        W14007  10.272  32.016   0.888
54747W        W14008  38.336  35.494   5.319
54748W        W14009  20.072  24.141   4.681
54749W        W14010   7.901   5.842  10.405
54750W        W14011  13.650  36.942   3.380
54751W        W14012  40.914  30.036   3.241
54752W        W14013   9.305  22.183   2.900
54753W        W14014  10.772  15.242  11.499
54754W        W14015  44.402  16.129   2.883
54755W        W14016  37.058  15.751  12.051
54756W        W14017  43.917  41.487   2.826
54757W        W14018  41.967  34.104  12.935
54758W        W14019   6.256  39.891   1.780
54759W        W14020  41.787  15.310   9.568
54760W        W14021  18.689  38.894  11.006
54761W        W14022  16.580  22.745   9.920
54762W        W14023  42.830  14.675  12.365
54763W        W14024   2.451  41.505  12.042
54764W        W14025  31.548   4.780   2.777
54765W        W14026  39.058  19.064  14.839
54766W        W14027   7.190   6.761   1.769
54767W        W14028  39.994  21.153  13.816
54768W        W14029  19.261  14.620  13.962
54769W        W14030  37.348  27.030  14.886
54770W        W14031   5.930   4.320   3.635
54771W        W14032  15.607  18.272   4.343
54772W        W14033  24.113  43.984  13.522
54773W        W14034  24.547  21.746  13.427
54774W        W14035  21.197  27.489   3.681
54775W        W14036   3.921  34.381   4.224
54776W        W14037  37.363  38.414  13.904
54777W        W14038  24.516  39.944   2.264
54778W        W14039   2.373   1.948  13.307
54779W        W14040   5.217  10.711  11.062
54780W        W14041  18.599  18.690   0.359
54781W        W14042  31.607  34.516  14.015
54782W        W14043  20.642  16.575   3.258
54783W        W14044  40.329  13.845  10.436
54784W        W14045  19.062  33.024   3.290
54785W        W14046   6.739  23.576   1.348
54786W        W14047  22.076   2.374   2.882
54787W        W14048   1.297  37.398  13.440
54788W        W14049  32.564  19.632   0.273
54789W        W14050  36.028  16.734   1.814
54790W        W14051   6.853  12.801   0.470
54791W        W14052   8.215  44.831   2.878
54792W        W14053   2.809  37.429   0.254
54793W        W14054  42.806   1.765  12.533
54794W        W14055  12.299  38.376   1.237
54795W        W14056  44.342  26.513  13.351
54796W        W14057  30.589  27.689  11.612
54797W        W14058   0.941  19.211   0.321
54798W        W14059  42.446  11.185  10.622
54799W        W14060  19.156  22.247   0.839
54800W        W14061  40.044  20.577  12.528
54801W        W14062  20.033  13.706  11.428
54802W        W14063  36.033  22.549   0.274
54803W        W14064  25.659  43.960   0.932
54804W        W14065  24.612  15.275  10.900
54805W        W14066  33.042   9.296  13.015
54806W        W14067  27.053  24.621   0.837
54807W        W14068  27.517   5.401   5.235
54808W        W14069  41.802   9.877   3.352
54809W        W14070  21.226   8.343   0.359
54810W        W14071  22.744  21.725  10.474
54811W        W14072  43.497   1.775  14.762
54812W        W14073  23.710  13.701   1.842
54813W        W14074  12.181  23.553   1.247
54814W        W14075  23.198  44.854   0.829
54815W        W14076  18.272  11.776   2.769
54816W        W14077  11.336  16.670  14.280
54817W        W14078  25.664  21.239   4.774
54818W        W14079  12.268  41.317   4.674
54819W        W14080  15.291  34.064   1.747
54820W        W14081  17.642   0.295   0.473
54821W        W14082  40.805  24.692  11.000
54822W        W14083  18.271   1.862  10.434
54823W        W14084   7.688  25.160  14.908
54824W        W14085   5.866  24.548   1.319
54825W        W14086  11.343   4.807   4.701
54826W        W14087  22.011   9.338   0.279
54827W        W14088   7.801  16.596   4.326
54828W        W14089  22.673   8.794   0.446
54829W        W14090  12.320  20.563  14.366
54830W        W14091  30.089  40.833  11.397
54831W        W14092  26.184   2.762  14.478
54832W        W14093  14.705  31.623  11.532
54833W        W14094   2.287   9.267   4.653
54834W        W14095  27.474   0.918   2.402
54835W        W14096  17.581  23.589   0.885
54836W        W14097   2.390  42.300  10.478
54837W        W14098  28.463  39.010   0.423
54838W        W14099  14.194   6.314   2.786
54839W        W14100  23.531  43.301  11.583
54840W        W14101  40.878  18.777   2.714
54841W        W14102  33.584   0.744  14.969
54842W        W14103  12.125  16.236   2.748
54843W        W14104  36.447  30.533  11.490
54844W        W14105  22.109  16.198   3.276
54845W        W14106  14.302   0.924  14.911
54846W        W14107  38.339  37.921  12.477
54847W        W14108  21.083  29.144  14.888
54848W        W14109  35.080  26.980  13.398
54849W        W14110  19.743   7.238   9.604
54850W        W14111  28.124  35.466   0.881
54851W        W14112  20.634  39.469  13.039
54852W        W14113  21.194  27.120   4.695
54853W        W14114   3.723  43.936  11.886
54854W        W14115  42.889  40.850  11.020
54855W        W14116  24.644  10.864  10.459
54856W        W14117   1.434  41.354  11.920
54857W        W14118  16.751   2.743   1.729
54858W        W14119  19.186   5.270  12.990
54859W        W14120  14.753   9.704  12.999
54860W        W14121  15.698  25.108   1.717
54861W        W14122  38.964   3.444   3.727
54862W        W14123  33.390  29.139   1.404
54863W        W14124  19.614  28.151  10.965
54864W        W14125  11.764  25.188  11.120
54865W        W14126  13.671  10.270  13.822
54866W        W14127   1.741   5.741  10.460
54867W        W14128   1.844  34.940   4.113
54868W        W14129  28.636  26.122  12.343
54869W        W14130  26.532   6.850  11.530
54870W        W14131  33.089  34.576  12.412
54871W        W14132   1.788   5.258   0.736
54872W        W14133  37.561   0.859   4.129
54873W        W14134   3.764  22.642  11.531
54874W        W14135  28.638  17.290   2.886
54875W        W14136  14.163  34.424  14.938
54876W        W14137   2.878  19.723   1.340
54877W        W14138  28.565  19.777  14.773
54878W        W14139   0.961  28.064   0.756
54879W        W14140  20.252  41.486  10.573
54880W        W14141  28.556  13.164   0.923
54881W        W14142  12.813  22.704  12.426
54882W        W14143  24.064  34.601   2.705
54883W        W14144   6.290  37.528   1.241
54884W        W14145  41.838   6.820   2.779
54885W        W14146  20.215  19.694  10.406
54886W        W14147  19.206  22.077  11.422
54887W        W14148  43.291  29.647   0.879
54888W        W14149  22.130  34.561   2.875
54889W        W14150  10.168  21.132   0.900
54890W        W14151  18.671  37.359   5.113
54891W        W14152  35.415   6.736  13.912
54892W        W14153  19.666   3.387  12.912
54893W        W14154  36.360  27.582  10.943
54894W        W14155   4.315   8.780  10.455
54895W        W14156   0.336  18.261  11.003
54896W        W14157   9.857  33.075   4.758
54897W        W14158   6.272  21.517   3.844
54898W        W14159  29.620  44.957  13.028
54899W        W14160  15.724  33.936  14.871
54900W        W14161  12.346  14.153  11.608
54901W        W14162   2.320   0.830   3.867
54902W        W14163  28.940  24.122  13.850
54903W        W14164   7.843  24.103   4.282
54904W        W14165  33.913  32.435   1.881
54905W        W14166  27.622  13.192   1.214
54906W        W14167  24.222  41.446  14.812
54907W        W14168   3.723   9.206  10.927
54908W        W14169   3.374  37.874  12.020
54909W        W14170  35.918  44.425   3.320
54910W        W14171  24.617  15.253  14.819
54911W        W14172  23.086  39.535  12.914
54912W        W14173  19.075   8.304  13.494
54913W        W14174  12.632  41.519  11.588
54914W        W14175   8.777  43.396  14.353
54915W        W14176  17.098   1.334   0.774
54916W        W14177  40.304  21.236  11.500
54917W        W14178  39.892   2.920   2.825
54918W        W14179  16.216  35.430   4.737
54919W        W14180   4.730  34.916   3.205
54920W        W14181   3.341   2.327  14.010
54921W        W14182  30.479  26.069   4.245
54922W        W14183  29.573   6.388  10.161
54923W        W14184  37.884  10.876  12.931
54924W        W14185  20.098  38.864  11.493
54925W        W14186  38.521  21.699   0.920
54926W        W14187  43.456  23.103  13.040
54927W        W14188  26.461  14.269  10.600
54928W        W14189  22.102  42.800   4.229
54929W        W14190  25.605  22.688  10.930
54930W        W14191  39.950  12.659  11.099
54931W        W14192  39.986  32.072  13.330
54932W        W14193  28.996  12.832  12.528
54933W        W14194   6.330  30.912  13.037
54934W        W14195   5.340  18.685  12.497
54935W        W14196  16.215  31.967  12.442
54936W        W14197  28.033  32.015  11.518
54937W        W14198  42.401  26.504  11.456
54938W        W14199  38.986  10.657  12.521
54939W        W14200   0.471  18.116   0.800
54940W        W14201  32.407  41.039  12.973
54941W        W14202  31.977  40.952   4.817
54942W        W14203  12.786   0.322   2.865
54943W        W14204  38.330  12.761  10.589
54944W        W14205  16.701   2.434  12.385
54945W        W14206   4.732  28.483   3.231
54946W        W14207  14.823  41.526   4.778
54947W        W14208  19.597  25.078   3.701
54948W        W14209  15.299  19.216   0.338
54949W        W14210  25.477   9.819  13.052
54950W        W14211  29.096  33.928   0.414
54951W        W14212   1.391  12.776   2.301
54952W        W14213  43.415  39.494  13.873
54953W        W14214  43.367   2.962   4.598
54954W        W14215   6.295  36.441  11.605
54955W        W14216  14.637  29.937  12.093
54956W        W14217  36.567  31.963  12.910
54957W        W14218  26.618  33.082   4.755
54958W        W14219  40.363  22.735   3.228
54959W        W14220  25.648  40.973  14.900
54960W        W14221  18.688  23.506   3.175
54961W        W14222  35.448   0.862   4.327
54962W        W14223   0.331  26.133  14.379
54963W        W14224   3.725  37.418   3.309
54964W        W14225  29.112  44.379   4.734
54965W        W14226  11.681   6.347  12.084
54966W        W14227  38.011  28.115   2.702
54967W        W14228  10.384  43.779   4.254
54968W        W14229  12.618  29.444   3.776
54969W        W14230  28.579  21.142  11.100
54970W        W14231  29.045  39.875  14.031
54971W        W14232   1.820  28.460   0.784
54972W        W14233  19.584  26.163   4.816
54973W        W14234  32.028  17.768  10.585
54974W        W14235  24.067  24.184   4.282
54975W        W14236  37.878  37.534   2.702
54976W        W14237  11.661   6.224   1.727
54977W        W14238  43.937  27.551   0.736
54978W        W14239   6.262   4.735  13.948
54979W        W14240   8.831  37.357  11.530
54980W        W14241  16.124  14.231  14.793
54981W        W14242   0.971  15.651   4.599
54982W        W14243  37.920  11.719  14.489
54983W        W14244  44.338  37.373  12.952
54984W        W14245  35.876  38.394  14.477
54985W        W14246  11.256  27.603   4.225
54986W        W14247  42.937  27.517  14.459
54987W        W14248  11.343   8.694   2.323
54988W        W14249   4.285  25.093   4.209
54989W        W14250  14.334  39.336   3.640
54990W        W14251  36.365  39.560   0.448
54991W        W14252  31.619   1.836   0.898
54992W        W14253  41.794  21.149  12.579
54993W        W14254  44.939   6.234  10.978
54994W        W14255   3.390   4.405  13.346
54995W        W14256   3.376  23.714  12.852
54996W        W14257  21.716  37.487  11.559
54997W        W14258  26.096  11.761   3.178
54998W        W14259  28.001   9.885   4.622
54999W        W14260  19.231  32.627   2.829
55000W        W14261  38.926  38.017  11.909
55001W        W14262   8.856  33.420  13.951
55002W        W14263  23.565   3.372   4.113
55003W        W14264  10.804  19.575  14.877
55004W        W14265   3.954  27.500   1.743
55005W        W14266  27.137  18.237   2.761
55006W        W14267   8.223  16.712  14.339
55007W        W14268  19.232  41.976   3.189
55008W        W14269  10.344  36.357   5.225
55009W        W14270  29.491  43.845   3.300
55010W        W14271   1.977  41.951   1.273
55011W        W14272  12.124  23.721  10.587
55012W        W14273   3.781  19.681   1.905
55013W        W14274  23.109   2.300   1.442
55014W        W14275  32.916  37.870   0.886
55015W        W14276  29.993  30.090  12.545
55016W        W14277  24.657  23.524   4.676
55017W        W14278  28.030  15.721  13.814
55018W        W14279  29.994  16.190  14.942
55019W        W14280  31.123  40.015  13.441
55020W        W14281  16.756  35.486   1.717
55021W        W14282  11.171  14.810   0.896
55022W        W14283   7.205  26.140   3.174
55023W        W14284   7.680  32.955   0.389
55024W        W14285  17.255   9.793  12.373
55025W        W14286  30.998  19.589  12.826
55026W        W14287  23.728  37.560  10.645
55027W        W14288  39.885  17.234  14.486
55028W        W14289  35.479  14.766  13.901
55029W        W14290   3.825  27.579  12.485
55030W        W14291  13.210   7.793   0.405
55031W        W14292  31.003  15.114   2.314
55032W        W14293   3.283   7.215   3.321
55033W        W14294  17.156  35.473   0.935
55034W        W14295  14.163  14.801  14.892
55035W        W14296   3.247   7.906   2.817
55036W        W14297  21.750  40.530  10.558
55037W        W14298  27.484  44.477  11.027
55038W        W14299  21.609  31.982  14.031
55039W        W14300  40.879   9.765   0.340
55040W        W14301  14.709  30.515   1.708
55041W        W14302   7.406  44.466   2.691
55042W        W14303   2.441  33.108  12.865
55043W        W14304  30.974  15.746  14.401
55044W        W14305  30.098  43.896   4.343
55045W        W14306   5.402  41.844   1.910
55046W        W14307  22.191  12.814   1.841
55047W        W14308   4.791  30.927  14.875
55048W        W14309  12.192  22.627  14.870
55049W        W14310  37.059  27.579   4.133
55050W        W14311   5.753  30.124   3.736
55051W        W14312  18.286  18.239   3.667
55052W        W14313   3.310   5.398   3.353
55053W        W14314  20.202  25.546  12.571
55054W        W14315  44.414  30.622  10.139
55055W        W14316  12.247   5.920   3.193
55056W        W14317  25.472  41.989  10.563
55057W        W14318  35.940  18.149   1.432
55058W        W14319  36.097   9.780   4.161
55059W        W14320   4.761  15.254   4.626
55060W        W14321   4.308  41.514  13.535
55061W        W14322  12.675   0.876   0.384
55062W        W14323   6.917  21.178  13.805
55063W        W14324  27.548   1.392   2.824
55064W        W14325  10.710  12.243   2.735
55065W        W14326  26.170  15.797   4.782
55066W        W14327   4.245  38.558  10.422
55067W        W14328   4.338  33.610  14.024
55068W        W14329  15.114  37.907   2.378
55069W        W14330  36.917  19.765  14.953
55070W        W14331   2.361   1.870  12.395
55071W        W14332   7.253  36.005   4.248
55072W        W14333  36.552  40.389   2.282
55073W        W14334  29.930   8.738  11.542
55074W        W14335  14.300   5.309  12.878
55075W        W14336  34.894  23.503   1.729
55076W        W14337  30.950  15.650   0.865
55077W        W14338  41.481  39.328  13.526
55078W        W14339  37.402  30.928  14.858
55079W        W14340  15.210  13.302  13.040
55080W        W14341  14.112  10.840   1.319
55081W        W14342   4.884  26.983   1.809
55082W        W14343  24.210  41.454  11.863
55083W        W14344  19.537   2.841   3.789
55084W        W14345  28.536  40.504  11.557
55085W        W14346  36.593   8.820  12.836
55086W        W14347  18.697  40.346   1.846
55087W        W14348  19.183  38.376  12.426
55088W        W14349  44.273  36.512  10.591
55089W        W14350  18.589   8.877   4.274
55090W        W14351  23.655   1.907  12.981
55091W        W14352   1.868  17.116   3.348
55092W        W14353  22.562  40.397  10.635
55093W        W14354  35.078  11.712  12.394
55094W        W14355   2.462   7.776   3.693
55095W        W14356  15.818  40.019  10.440
55096W        W14357  17.256  36.441   2.865
55097W        W14358  12.142   9.813   3.643
55098W        W14359  38.488  40.041   1.345
55099W        W14360  43.390   9.383   0.776
55100W        W14361   4.272   6.191   3.870
55101W        W14362  37.485  42.956   2.267
55102W        W14363  31.981  21.561  13.057
55103W        W14364  30.911   0.441   1.406
55104W        W14365  44.340  18.675   3.207
55105W        W14366  17.233  37.397  10.107
55106W        W14367  22.066  17.714   0.750
55107W        W14368  20.073   8.710  12.077
55108W        W14369  34.552   6.330  10.958
55109W        W14370  31.947  26.026  11.420
55110W        W14371   0.393   1.738  11.551
55111W        W14372   0.963  26.183   2.786
55112W        W14373  18.698   4.795  13.801
55113W        W14374  12.240  40.327  13.478
55114W        W14375   6.714  30.486   2.784
55115W        W14376   9.341   8.806   4.649
55116W        W14377  18.226   7.358   1.750
55117W        W14378  15.630   5.275   1.242
55118W        W14379  40.545   8.703   2.848
55119W        W14380  21.645   8.389   2.837
55120W        W14381  44.391   8.829   1.781
55121W        W14382   4.376  34.030  12.921
55122W        W14383  38.062  25.468   3.672
55123W        W14384  18.709  18.696   2.854
55124W        W14385   1.878   5.348  11.530
55125W        W14386   3.228  10.362  11.396
55126W        W14387  43.889  35.486  14.336
55127W        W14388  39.448  35.433   2.738
55128W        W14389  15.604  33.414  11.926
55129W        W14390  13.273  37.019   4.622
55130W        W14391  39.560  30.032   4.263
55131W        W14392  13.335   8.163   0.750
55132W        W14393  43.935   3.795   2.834
55133W        W14394  33.581   4.934   2.733
55134W        W14395  23.003  31.150   3.775
55135W        W14396   4.800   5.389   4.116
55136W        W14397   7.821   5.761  10.930
55137W        W14398  31.007  16.666  14.794
55138W        W14399  25.550  13.238  10.906
55139W        W14400  36.875  20.529   4.616
55140W        W14401   1.308  24.070   1.346
55141W        W14402   2.249  17.143   5.221
55142W        W14403   7.273  11.704   4.746
55143W        W14404  42.967  15.772  11.885
55144W        W14405  34.520   2.757   2.787
55145W        W14406  16.583  32.105  13.489
55146W        W14407   2.353  37.999   1.731
55147W        W14408  40.007  11.249   2.805
55148W        W14409  35.424   9.696  14.465
55149W        W14410  17.794   9.337   0.732
55150W        W14411  41.878   2.287   5.243
55151W        W14412  26.669   6.287   2.843
55152W        W14413  44.861  26.477  13.948
55153W        W14414  18.754  34.924   1.356
55154W        W14415  24.189  40.463   9.994
55155W        W14416   2.395  40.526  11.561
55156W        W14417  42.003   4.304   3.280
55157W        W14418  29.571  14.611  11.010
55158W        W14419  32.134  34.998  10.611
55159W        W14420  35.015  19.221  10.423
55160W        W14421  24.034   1.760   5.577
55161W        W14422  44.347  41.447   2.412
55162W        W14423  30.959  35.090   0.838
55163W        W14424  26.478  33.896   2.357
55164W        W14425   7.190  43.780   3.797
55165W        W14426  44.467  26.108   3.809
55166W        W14427  15.730  42.849  12.574
55167W        W14428  24.637  24.706   2.791
55168W        W14429  12.168  34.523   3.823
55169W        W14430  12.787  42.527  12.835
55170W        W14431  39.054  11.163   0.336
55171W        W14432  27.094   6.186   4.812
55172W        W14433  18.685  41.016   3.193
55173W        W14434   0.350  32.533  11.563
55174W        W14435  34.436  23.690  10.418
55175W        W14436  39.064  28.577  12.068
55176W        W14437   7.304  12.654  10.950
55177W        W14438   1.433  33.455   2.301
55178W        W14439  14.824  33.075  10.561
55179W        W14440  44.376   9.325   1.306
55180W        W14441  16.782   7.344   0.895
55181W        W14442  32.053  16.105   1.303
55182W        W14443   5.716  34.573   0.855
55183W        W14444  33.475   9.666  13.441
55184W        W14445  12.704   9.733   0.961
55185W        W14446   4.762  37.562   5.166
55186W        W14447  42.286   3.928   0.341
55187W        W14448   0.824  40.514   3.733
55188W        W14449  16.102  18.658  12.845
55189W        W14450  34.092   6.733  11.920
55190W        W14451  12.350  43.280  13.501
55191W        W14452  31.133  12.223   1.351
55192W        W14453  22.692   0.873  10.994
55193W        W14454  42.803  11.817  13.908
55194W        W14455  35.064  21.552  13.534
55195W        W14456  12.645  11.743   5.215
55196W        W14457   2.880   6.241   4.236
55197W        W14458   2.930  35.872  13.870
55198W        W14459  44.274  28.445  14.414
55199W        W14460  17.159   2.949   3.236
55200W        W14461  37.499  27.590   3.323
55201W        W14462  26.463   8.759   1.772
55202W        W14463  15.158  31.441  11.463
55203W        W14464  17.748  40.963   4.180
55204W        W14465  43.913  23.081   2.690
55205W        W14466   5.383  42.474  13.903
55206W        W14467   3.921   1.821   2.410
55207W        W14468  32.512  22.996  12.836
55208W        W14469  19.708   1.432   2.876
55209W        W14470  11.817  18.761  12.895
55210W        W14471  39.822  15.227  11.940
55211W        W14472  36.585   2.924   4.823
55212W        W14473  29.058  23.533   0.342
55213W        W14474  40.378  44.324   2.735
55214W        W14475  32.445  38.377   0.421
55215W        W14476   9.334  43.494  13.376
55216W        W14477  11.824  10.310  12.567
55217W        W14478  39.368  25.114   0.818
55218W        W14479  29.139  40.365   0.778
55219W        W14480   2.736   7.771   0.324
55220W        W14481  39.359  30.923   1.704
55221W        W14482  11.215  23.229   0.846
55222W        W14483   4.278  39.996  14.825
55223W        W14484  16.248  36.444  10.528
55224W        W14485  31.898  42.797   3.361
55225W        W14486  35.407  15.168   1.698
55226W        W14487   7.842  31.406   3.221
55227W        W14488  24.985   9.665   4.621
55228W        W14489   2.900  21.665   3.864
55229W        W14490   1.381  16.784  11.942
55230W        W14491  33.551  40.816   3.316
55231W        W14492  35.475  15.629  10.908
55232W        W14493   3.855  43.283  11.018
55233W        W14494  35.373   2.844  14.990
55234W        W14495  14.817  20.529   2.779
55235W        W14496  22.105  10.870   3.227
55236W        W14497  31.132  25.525  11.454
55237W        W14498  35.514  14.750  10.414
55238W        W14499  21.248  37.427   1.857
55239W        W14500  15.705   1.467   1.791
55240W        W14501  43.273  28.165   1.826
55241W        W14502  24.690  40.502  13.017
55242W        W14503   8.738  40.867   3.684
55243W        W14504  40.960  29.463   4.162
55244W        W14505  13.189  36.098  12.073
55245W        W14506  37.943  22.072  11.983
55246W        W14507  34.111   6.391  10.960
55247W        W14508  42.003  43.301  11.887
55248W        W14509   1.275  39.982  11.507
55249W        W14510  15.643  42.336  10.548
55250W        W14511  11.675  40.982  13.520
55251W        W14512  36.412  41.891   1.934
55252W        W14513  19.207  17.135  12.376
55253W        W14514  34.449  21.698  12.472
55254W        W14515  17.615  23.536  13.517
55255W        W14516  32.141  12.761   1.249
55256W        W14517  19.150  42.370   1.255
55257W        W14518  36.985  33.950   4.293
55258W        W14519  11.745   6.718  13.511
55259W        W14520   4.732  17.144  12.578
55260W        W14521  43.806  30.471   3.801
55261W        W14522  16.676  11.649  14.363
55262W        W14523  38.850   1.862   3.196
55263W        W14524  26.039  10.330  13.909
55264W        W14525  19.225  25.078  13.997
55265W        W14526  35.015  14.138  11.402
55266W        W14527  31.484  23.620  12.451
55267W        W14528  21.515  28.463   1.882
55268W        W14529  24.144  42.455  11.584
55269W        W14530  38.027  11.865  13.957
55270W        W14531  33.947  26.683  14.804
55271W        W14532   6.375  33.469   0.298
55272W        W14533   8.274   0.933   1.841
55273W        W14534  22.194   6.827  14.994
55274W        W14535   2.914   9.670   3.663
55275W        W14536  27.670  24.975  11.916
55276W        W14537  43.981  44.846  12.096
55277W        W14538  12.786  28.021  10.077
55278W        W14539  33.885  41.423  12.488
55279W        W14540  24.199  36.545  12.514
55280W        W14541  26.083  21.634   2.739
55281W        W14542  22.233  12.756  11.916
55282W        W14543  16.139  23.995   3.775
55283W        W14544  24.182  10.228  13.474
55284W        W14545   4.765   0.947   5.179
55285W        W14546  38.396  27.970   0.332
55286W        W14547  15.321  42.342  14.508
55287W        W14548  20.103  16.256   0.729
55288W        W14549  27.479  30.121   3.259
55289W        W14550  28.531  44.912   0.728
55290W        W14551  27.090  42.359   3.753
55291W        W14552  12.679  30.619  13.832
55292W        W14553  11.164  27.085  14.943
55293W        W14554  29.105  33.478  12.478
55294W        W14555  20.147  12.336  11.934
55295W        W14556   9.183  23.003  13.865
55296W        W14557   3.378  35.419   3.722
55297W        W14558  18.264  28.975   0.475
55298W        W14559  13.668  25.982  12.899
55299W        W14560  32.944  14.787  14.503
55300W        W14561  29.002  12.341  11.049
55301W        W14562  38.477  12.850  11.466
55302W        W14563  41.473  29.508   4.279
55303W        W14564  31.125  22.660   0.410
55304W        W14565   6.424  41.938   2.830
55305W        W14566  27.458   0.317   4.800
55306W        W14567  20.169  41.339   2.857
55307W        W14568  44.428  36.067   4.692
55308W        W14569  36.905  34.026   2.178
55309W        W14570  35.897  17.170  14.971
55310W        W14571  44.277  26.200   5.696
55311W        W14572  14.781  11.194   2.834
55312W        W14573   4.728  15.721   0.765
55313W        W14574  18.686  32.967   2.781
55314W        W14575  23.074  21.659  12.400
55315W        W14576  17.578  12.361  11.897
55316W        W14577  38.903   1.959   1.353
55317W        W14578  25.522   0.906   4.250
55318W        W14579  20.529  43.940   1.832
55319W        W14580  31.982   1.325  11.544
55320W        W14581   1.377  38.525   3.830
55321W        W14582  42.883  31.597   4.662
55322W        W14583  43.998  11.664   1.915
55323W        W14584   6.782  36.912   1.447
55324W        W14585  23.130   2.346   4.686
55325W        W14586  13.644  11.233   3.246
55326W        W14587  39.010  31.007  10.424
55327W        W14588  26.047  26.679  10.542
55328W        W14589  20.589   8.248   0.469
55329W        W14590  13.277  22.180  14.375
55330W        W14591  42.775  33.092  13.487
55331W        W14592   3.849  42.019  13.395
55332W        W14593  23.143  29.027  14.466
55333W        W14594  20.238  38.536   2.755
55334W        W14595  21.677  23.088   0.253
55335W        W14596  42.336  44.359  13.894
55336W        W14597  42.823  10.170  14.937
55337W        W14598   4.246   6.244  13.886
55338W        W14599   3.437  20.271   3.769
55339W        W14600   1.973   9.847  13.514
55340W        W14601  32.398  41.465   1.350
55341W        W14602  14.739   1.387  13.850
55342W        W14603   2.738  24.668  11.007
55343W        W14604   6.899  25.596  12.403
55344W        W14605  30.999   2.873   3.766
55345W        W14606  41.811   2.261  14.949
55346W        W14607   8.684  38.922   3.303
55347W        W14608  32.056  12.180  13.324
55348W        W14609  31.001  41.787   1.913
55349W        W14610  34.905  34.079  12.051
55350W        W14611  21.158  37.491   3.170
55351W        W14612  19.705  13.798  13.407
55352W        W14613  22.080  31.947   0.745
55353W        W14614  41.454  30.558   1.409
55354W        W14615  24.075  36.892   0.298
55355W        W14616   0.967  18.179   0.286
55356W        W14617  16.608  39.317  12.353
55357W        W14618  19.174  39.889   3.755
55358W        W14619   9.155  28.613   4.663
55359W        W14620  14.219  38.510   3.338
55360W        W14621  23.628  19.223  10.892
55361W        W14622  14.775   6.309   3.375
55362W        W14623  13.206  23.170  10.887
55363W        W14624  42.388  42.393  14.347
55364W        W14625  14.177  11.624   5.315
55365W        W14626  35.512  37.027   3.780
55366W        W14627  35.990   1.854  10.945
55367W        W14628  32.394  29.116   2.301
55368W        W14629   9.818  31.028   2.753
55369W        W14630  41.450  33.381   0.417
55370W        W14631  35.539  20.574  13.892
55371W        W14632  42.916  38.930   4.129
55372W        W14633   8.894  36.529  14.376
55373W        W14634  19.569  36.014   3.680
55374W        W14635  26.480   5.752   4.794
55375W        W14636  38.988  26.563   2.801
55376W        W14637  31.487  11.261  10.158
55377W        W14638  26.065  41.958  12.478
55378W        W14639  19.541  42.817  10.958
55379W        W14640  24.546  24.215  10.477
55380W        W14641  25.043  42.368  13.335
55381W        W14642  24.711  16.134   3.671
55382W        W14643  26.101   3.440  13.913
55383W        W14644  15.783   6.908  14.453
55384W        W14645   7.385  24.586   0.801
55385W        W14646  44.784  39.934   0.823
55386W        W14647   0.822  40.011   2.361
55387W        W14648  40.382  39.476   1.414
55388W        W14649  44.327  14.247   0.769
55389W        W14650  36.410   1.242  10.584
55390W        W14651  24.171  32.949   3.332
55391W        W14652   0.800  42.303   0.820
55392W        W14653  31.031   3.416   0.762
55393W        W14654  16.128  23.542  13.042
55394W        W14655  12.334   7.223   2.300
55395W        W14656   8.695  34.572   3.167
55396W        W14657   4.340  37.072  13.999
55397W        W14658   6.387  42.435   3.148
55398W        W14659  43.940  39.007   4.341
55399W        W14660  29.036   3.819   2.409
55400W        W14661  14.814  15.628   1.773
55401W        W14662  41.871  27.643  11.968
55402W        W14663   1.279  13.149  12.388
55403W        W14664   2.325   0.977   0.261
55404W        W14665  39.007   3.804   3.282
55405W        W14666  31.467  36.558  10.427
55406W        W14667  10.808   3.913  10.504
55407W        W14668  17.163  31.007   3.670
55408W        W14669  31.549  13.760  13.859
55409W        W14670   0.974  31.012   0.355
55410W        W14671  34.959  33.909   1.232
55411W        W14672  14.824  12.648   2.796
55412W        W14673   5.371  44.415   4.735
55413W        W14674   1.820  18.267  11.974
55414W        W14675   9.176  11.316  13.876
55415W        W14676  23.136  35.534   1.249
55416W        W14677   4.841  26.538   0.747
55417W        W14678  20.524  32.454  13.960
55418W        W14679  40.879   0.469   0.908
55419W        W14680  33.572  17.295   1.236
55420W        W14681   4.921  12.708  14.416
55421W        W14682  36.012   8.256  12.358
55422W        W14683  42.385  26.614  12.902
55423W        W14684  34.408  24.220   1.231
55424W        W14685  32.126  27.186  12.343
55425W        W14686   8.842  32.898  14.305
55426W        W14687   1.350  18.658  14.280
55427W        W14688  33.883   3.714   0.867
55428W        W14689   7.258  12.758   3.755
55429W        W14690  34.564  23.628   2.784
55430W        W14691   8.342  35.055  11.016
55431W        W14692  42.315   4.851   4.282
55432W        W14693   9.336  36.587  11.043
55433W        W14694  15.210  11.675   3.780
55434W        W14695  14.225  34.886   3.849
55435W        W14696  26.686  32.989   2.732
55436W        W14697  12.279  40.468  11.446
55437W        W14698   5.828   6.747   2.731
55438W        W14699  12.619  29.090   0.450
55439W        W14700  13.803  34.530   2.662
55440W        W14701  36.053  38.948  14.485
55441W        W14702   3.731  30.927   3.773
55442W        W14703   9.342  15.156  11.920
55443W        W14704  11.745  17.563  13.527
55444W        W14705  16.154  22.660   9.973
55445W        W14706  13.303  19.570   3.325
55446W        W14707  21.258  41.473  13.511
55447W        W14708  30.098  43.981   1.899
55448W        W14709  28.645  10.182  14.022
55449W        W14710  13.612  12.830  11.442
55450W        W14711  28.599   9.759  13.848
55451W        W14712   9.383  14.593  14.461
55452W        W14713  40.494   6.897  14.862
55453W        W14714  31.530   8.173   4.352
55454W        W14715  24.709  43.877  14.971
55455W        W14716  11.274   4.941  12.056
55456W        W14717  35.923  29.931  11.099
55457W        W14718   8.883  34.066   3.720
55458W        W14719  21.544  22.251  11.599
55459W        W14720  31.098   6.389  10.929
55460W        W14721  38.840  30.020  11.518
55461W        W14722   4.936  36.067   2.889
55462W        W14723   8.732  31.109   0.467
55463W        W14724   1.317  10.805  11.491
55464W        W14725   9.835  39.942   2.392
55465W        W14726  36.541  10.653  12.351
55466W        W14727   1.969  18.730   2.713
55467W        W14728  24.167  19.570  12.386
55468W        W14729  22.729  17.252  11.126
55469W        W14730  18.620  30.910   0.959
55470W        W14731  42.933  20.186   2.765
55471W        W14732   6.688  37.985  14.913
55472W        W14733  21.534  28.656  14.960
55473W        W14734   9.177  28.996   2.267
55474W        W14735  37.539   7.250  10.558
55475W        W14736  13.327  34.054  13.846
55476W        W14737  14.109  23.585   4.329
55477W        W14738  23.136  31.491  11.117
55478W        W14739  30.991  31.607   2.799
55479W        W14740  28.542  41.923   1.862
55480W        W14741  20.039  22.011   1.329
55481W        W14742  27.020  36.558  12.834
55482W        W14743  29.439  38.387   2.840
55483W        W14744   6.796  22.550   1.380
55484W        W14745  15.708  28.963  11.903
55485W        W14746  11.282  29.623   4.161
55486W        W14747  29.057  27.009   4.211
55487W        W14748  18.638   1.760   2.822
55488W        W14749  26.467  26.988   3.150
55489W        W14750   3.220  44.959  11.967
55490W        W14751   4.397  30.431  12.576
55491W        W14752  37.469  40.003   0.820
55492W        W14753   4.933  27.177  10.118
55493W        W14754  23.517   8.678  14.003
55494W        W14755   7.734  39.545  12.530
55495W        W14756  16.797  19.761  14.948
55496W        W14757  24.091  26.583  11.924
55497W        W14758  40.965   1.802   2.293
55498W        W14759  27.538  35.956  14.799
55499W        W14760   9.744  10.803  11.564
55500W        W14761  27.191  14.812   2.207
55501W        W14762   4.264  10.304  13.853
55502W        W14763  25.046  28.579   4.639
55503W        W14764   6.205  40.831  11.108
55504W        W14765  27.493  38.333  10.634
55505W        W14766  14.596  21.218   1.908
55506W        W14767   9.190   6.854  14.400
55507W        W14768  43.992  17.657   5.319
55508W        W14769   9.357   1.809  12.954
55509W        W14770   8.390  20.154  14.936
55510W        W14771  44.816  35.441   3.246
55511W        W14772  12.170  12.152   2.793
55512W        W14773   9.877  13.716   1.406
55513W        W14774  33.423  13.765   2.729
55514W        W14775  29.084  11.157  11.383
55515W        W14776  11.222  35.089  10.468
55516W        W14777  12.194  10.320  12.471
55517W        W14778  31.420  32.965  14.894
55518W        W14779  37.969  23.695  14.300
55519W        W14780  39.447  22.105  12.828
55520W        W14781  12.324  32.941  10.635
55521W        W14782  41.854  33.055   5.181
55522W        W14783  27.501  22.016   3.206
55523W        W14784  41.343  29.105   4.141
55524W        W14785  38.529  12.189   2.337
55525W        W14786  20.762  35.974   4.309
55526W        W14787  23.134  18.560  14.826
55527W        W14788  32.607  28.056  10.453
55528W        W14789   5.864  26.572  14.453
55529W        W14790   5.694  23.613   4.240
55530W        W14791  24.002  40.434   1.369
55531W        W14792  36.361  31.042  12.081
55532W        W14793  14.729  36.433  13.995
55533W        W14794  39.377   4.879  12.953
55534W        W14795  40.800  22.232   1.214
55535W        W14796  20.257  16.159   1.431
55536W        W14797  42.504   9.735  11.126
55537W        W14798  32.027  43.985  12.400
55538W        W14799  16.100   2.237  11.579
55539W        W14800  40.426  27.464   3.851
55540W        W14801  43.477   5.785   1.694
55541W        W14802   0.251   7.676  13.908
55542W        W14803  24.535  32.960  13.323
55543W        W14804  23.075  15.660   9.982
55544W        W14805  35.444  44.486  13.056
55545W        W14806  22.745  35.371  10.160
55546W        W14807  21.644   9.341   1.250
55547W        W14808  42.286  20.767   4.229
55548W        W14809  31.546   6.768   0.421
55549W        W14810  25.027  19.575  11.020
55550W        W14811   6.268   2.943  13.510
55551W        W14812  38.456  41.001   2.851
55552W        W14813   7.732   1.334  14.953
55553W        W14814  13.730   2.804  13.029
55554W        W14815  37.898  30.591  14.892
55555W        W14816  42.975  26.078   5.723
55556W        W14817  20.645  43.820  12.064
55557W        W14818  19.134  28.978   2.773
55558W        W14819  33.406  28.931  10.579
55559W        W14820  20.757  22.518  13.854
55560W        W14821  18.701  20.195   9.945
55561W        W14822  25.542  26.161   3.211
55562W        W14823  14.599   1.383  10.956
55563W        W14824   9.827  40.548  12.563
55564W        W14825   8.754  10.684   3.751
55565W        W14826   0.886   2.755   2.741
55566W        W14827  20.129  41.378   2.373
55567W        W14828   1.370  19.082  12.512
55568W        W14829  42.879  31.509  13.450
55569W        W14830  26.664  42.776   5.272
55570W        W14831  37.358  13.668   1.725
55571W        W14832  15.217  16.098  11.967
55572W        W14833  29.509  24.504   0.474
55573W        W14834  18.149  43.273   0.347
55574W        W14835   3.945  23.519   1.772
55575W        W14836  44.957  20.042  12.040
55576W        W14837  31.911  14.289  14.922
55577W        W14838   1.273   1.908   1.713
55578W        W14839  23.570  41.967  12.898
55579W        W14840   5.346  29.033  11.997
55580W        W14841  34.019  15.110  14.469
55581W        W14842  29.485   3.247   3.330
55582W        W14843   9.698  20.569  10.616
55583W        W14844  20.674  16.806  10.907
55584W        W14845  30.495   5.905  13.835
55585W        W14846   2.797  16.118  14.424
55586W        W14847  35.954  39.500  10.428
55587W        W14848  43.496   2.469   0.884
55588W        W14849   0.432  40.968   3.734
55589W        W14850  23.727  38.337   0.958
55590W        W14851  22.087   7.771   1.295
55591W        W14852  43.794   9.761   3.672
55592W        W14853  10.679  12.721   3.653
55593W        W14854  39.433  22.151  11.430
55594W        W14855  26.671  32.107   2.868
55595W        W14856  36.035  14.793   3.653
55596W        W14857   1.306  25.622   1.220
55597W        W14858  32.558  39.044   1.391
55598W        W14859  42.371  34.420   0.767
55599W        W14860  37.077   1.808  12.035
55600W        W14861   2.371  18.117  12.999
55601W        W14862  17.680  25.526   0.366
55602W        W14863  11.665   1.367  10.909
55603W        W14864  31.017  27.502  12.343
55604W        W14865   1.395   6.906  14.779
55605W        W14866   3.919  31.627   2.264
55606W        W14867  35.550  34.944   3.323
55607W        W14868  43.304  13.698  14.358
55608W        W14869  16.096  34.902  10.467
55609W        W14870  36.351  12.304   2.821
55610W        W14871   2.412  41.501  13.996
55611W        W14872  25.068  36.935   1.420
55612W        W14873  43.854  35.446  14.022
55613W        W14874  18.702  37.017  13.370
55614W        W14875   6.713   9.191  10.440
55615W        W14876  33.457  39.345  13.064
55616W        W14877  26.070  38.340   3.284
55617W        W14878  40.306  20.717  11.069
55618W        W14879   6.766  17.793   3.250
55619W        W14880  32.005  42.435   3.822
55620W        W14881  31.919  21.708   3.862
55621W        W14882   9.200  30.468   4.203
55622W        W14883  33.557  35.535   1.237
55623W        W14884  21.182  28.644   3.332
55624W        W14885   9.344  32.437   0.347
55625W        W14886  34.411  39.503   2.182
55626W        W14887  23.014  34.984   3.844
55627W        W14888  20.030  21.720  13.411
55628W        W14889  30.633  26.976   3.341
55629W        W14890   0.772  25.524  12.340
55630W        W14891  17.797  37.416  13.464
55631W        W14892  15.777  19.613   1.727
55632W        W14893   7.912  19.582   4.151
55633W        W14894  20.159  44.494   4.124
55634W        W14895  25.129  27.537  12.868
55635W        W14896  31.908  14.213  13.547
55636W        W14897  16.181  14.622   4.122
55637W        W14898  14.255  37.469  10.987
55638W        W14899  32.997  42.415  14.343
55639W        W14900  14.734  42.923  11.898
55640W        W14901  36.037   6.820   3.689
55641W        W14902   8.224  43.001  14.869
55642W        W14903  20.187   1.935  11.115
55643W        W14904  12.826  29.645   3.275
55644W        W14905  32.012  25.131  11.069
55645W        W14906  13.623  33.037  13.852
55646W        W14907  18.227  28.120  14.898
55647W        W14908  26.962  31.501  14.765
55648W        W14909   7.372   3.781   0.278
55649W        W14910  23.063   2.435  13.795
55650W        W14911  33.010   4.816   9.948
55651W        W14912  25.534  36.864  11.374
55652W        W14913   2.368  15.191   0.781
55653W        W14914  26.646  11.149   1.746
55654W        W14915   7.415  38.913  13.890
55655W        W14916  25.491  27.022  11.122
55656W        W14917  16.691  19.547  14.314
55657W        W14918  37.937  36.411   1.698
55658W        W14919  13.676  37.463  10.521
55659W        W14920  38.039   3.319  11.377
55660W        W14921   1.392  42.502  11.944
55661W        W14922  18.136  29.477   0.448
55662W        W14923  40.371   6.241  14.488
55663W        W14924   3.453   5.712  12.457
55664W        W14925  35.477  42.431  11.058
55665W        W14926  11.320  17.597  11.103
55666W        W14927  37.080   5.291   3.358
55667W        W14928  15.328  34.449   4.257
55668W        W14929   5.856  21.580   0.815
55669W        W14930   6.233  27.634   3.387
55670W        W14931  15.709  37.023   0.274
55671W        W14932  31.575  12.290  12.002
55672W        W14933  31.626  34.120   1.702
55673W        W14934  17.219  21.173  13.542
55674W        W14935  22.182  16.625   1.430
55675W        W14936   5.277  16.195  14.878
55676W        W14937  27.184  23.630  10.091
55677W        W14938  43.775  17.557  14.439
55678W        W14939  24.211  36.448   3.189
55679W        W14940  43.300  23.125   4.303
55680W        W14941   1.307  38.022   1.333
55681W        W14942  24.488  43.296  13.857
55682W        W14943   1.372  30.414   2.819
55683W        W14944  13.145  14.129   3.316
55684W        W14945  40.357  20.663   0.904
55685W        W14946   3.720   3.458   1.306
55686W        W14947   1.269   0.360   0.834
55687W        W14948  15.122  33.066  12.090
55688W        W14949  11.187   2.272  12.520
55689W        W14950  19.106  13.272   2.703
55690W        W14951   5.910  38.048   1.797
55691W        W14952  28.495  14.688  12.823
55692W        W14953  26.571  11.840  10.462
55693W        W14954  27.625  11.625   2.204
55694W        W14955  28.441   0.273  12.381
55695W        W14956  28.496  31.049   2.716
55696W        W14957  14.120  33.070  11.958
55697W        W14958  16.592   7.840   3.753
55698W        W14959  19.734   5.811  12.496
55699W        W14960  18.595   3.352  10.450
55700W        W14961   6.239   8.215  14.919
55701W        W14962  20.185   7.838   4.749
55702W        W14963   8.801   0.770  10.905
55703W        W14964  21.210   2.920  11.114
55704W        W14965  12.774   7.224  13.448
55705W        W14966  12.854   5.842  14.848
55706W        W14967   4.300  27.642   4.222
55707W        W14968  20.558   7.191   0.442
55708W        W14969  44.945  12.652   5.216
55709W        W14970  21.614  38.350   1.908
55710W        W14971  29.043  18.688  13.367
55711W        W14972  17.577  39.405   1.302
55712W        W14973  35.086  30.101  11.500
55713W        W14974  11.750   6.915   4.250
55714W        W14975  11.705  28.174   1.419
55715W        W14976  41.875  44.920   1.799
55716W        W14977  35.593  12.686  11.561
55717W        W14978  10.724   4.254   2.368
55718W        W14979  30.047  16.756  12.354
55719W        W14980  23.027  44.322   2.339
55720W        W14981  12.351   4.920  14.940
55721W        W14982  29.070  44.782  10.978
55722W        W14983  19.208   0.971   4.314
55723W        W14984  10.819   5.899  14.375
55724W        W14985  31.094  20.722  11.986
55725W        W14986  22.130  19.056   2.256
55726W        W14987  28.492  39.014  11.491
55727W        W14988   0.767  28.454  12.940
55728W        W14989  13.641  26.988   4.756
55729W        W14990   3.896  44.433   1.813
55730W        W14991  44.493  37.363   3.781
55731W        W14992  23.089  17.664   1.893
55732W        W14993  10.633  10.819  13.041
55733W        W14994  26.616  38.504   1.830
55734W        W14995  44.435  18.204  10.497
55735W        W14996  19.208  14.594  14.925
55736W        W14997   5.897  25.219  12.889
55737W        W14998  37.854   8.263  12.096
55738W        W14999  15.601  40.849  13.404
55739W        W15000  26.069   5.318   4.151
55740W        W15001  31.928  37.419  12.945
55741W        W15002  40.931  22.677   0.290
55742W        W15003  12.136   9.701   4.816
55743W        W15004  26.561  41.473   4.146
55744W        W15005  32.951  44.505   0.903
55745W        W15006  40.340  36.364   0.263
55746W        W15007  44.329  13.710  11.872
55747W        W15008  10.639  29.497  11.002
55748W        W15009  27.542   5.857   1.253
55749W        W15010  36.997  42.879  14.465
55750W        W15011  14.746  38.835   1.835
55751W        W15012  15.289   6.839  10.533
55752W        W15013  21.697  25.179  10.570
55753W        W15014  42.426  28.607  14.898
55754W        W15015   9.184  19.165  12.878
55755W        W15016  15.317  19.207  10.966
55756W        W15017  38.953  18.238  12.535
55757W        W15018   0.746  11.811   0.953
55758W        W15019  12.716  30.445   3.823
55759W        W15020  26.690  37.355  12.920
55760W        W15021  34.030  36.474  13.538
55761W        W15022  21.601   6.361   4.264
55762W        W15023  25.983  19.180   3.357
55763W        W15024  16.760   5.379  12.361
55764W        W15025   9.858  21.080   3.672
55765W        W15026  33.485   7.904   0.963
55766W        W15027  24.556  12.324   0.268
55767W        W15028  10.674  11.309   0.456
55768W        W15029  40.921   5.430   1.334
55769W        W15030  19.754  17.125  12.011
55770W        W15031  23.989  26.602   0.834
55771W        W15032   7.411  34.937  11.904
55772W        W15033  18.163  26.063  10.461
55773W        W15034  21.223  21.671   0.315
55774W        W15035  30.069  14.608  11.119
55775W        W15036  21.020  19.040  12.476
55776W        W15037  34.595  41.921  11.428
55777W        W15038   9.764  43.337  11.415
55778W        W15039   0.744  30.641  11.561
55779W        W15040   6.728  42.939  14.870
55780W        W15041  38.031   5.336  11.033
55781W        W15042   4.814  36.412  13.470
55782W        W15043  43.970  32.002   2.209
55783W        W15044  24.013   1.265  11.448
55784W        W15045   6.408  28.036  10.982
55785W        W15046  27.034  14.659  14.403
55786W        W15047  14.275   0.912  11.444
55787W        W15048   1.801  15.818   3.865
55788W        W15049  12.855  14.311   0.400
55789W        W15050  13.233  40.931  13.934
55790W        W15051  42.293   4.245  10.484
55791W        W15052   2.745  10.155   2.790
55792W        W15053  21.104  10.818   0.764
55793W        W15054   5.704  10.374  12.347
55794W        W15055  41.305  34.029   2.244
55795W        W15056  33.460   3.732   2.272
55796W        W15057   2.247  43.391   2.220
55797W        W15058  25.010  19.263   1.798
55798W        W15059  38.826  34.571  14.964
55799W        W15060  41.800   9.393   2.332
55800W        W15061  35.560  39.971  10.630
55801W        W15062  10.214  31.990   4.597
55802W        W15063  24.621  14.826   0.762
55803W        W15064  25.594  31.646   0.854
55804W        W15065  15.170  42.513   3.742
55805W        W15066   1.747  15.143  14.481
55806W        W15067  23.147  40.898   1.278
55807W        W15068  34.533  11.186  10.432
55808W        W15069  15.615  23.133  12.905
55809W        W15070  44.307  38.911   1.736
55810W        W15071   1.388   1.780   4.676
55811W        W15072  34.500   5.711   5.322
55812W        W15073  31.075   6.845  14.883
55813W        W15074  11.200   4.938  14.332
55814W        W15075  41.967  36.062  14.904
55815W        W15076   8.802  28.681   1.355
55816W        W15077  38.824  37.442   1.932
55817W        W15078   9.874   8.795   3.313
55818W        W15079  29.121  36.397   3.177
55819W        W15080   6.399  22.541   2.268
55820W        W15081  37.988  39.885  13.951
55821W        W15082   8.708  16.227  12.560
55822W        W15083  10.744   3.953   0.834
55823W        W15084  22.710  25.491   2.844
55824W        W15085   9.665  20.661  13.012
55825W        W15086  27.972  38.521   2.377
55826W        W15087  17.659   6.183   2.770
55827W        W15088  41.444   7.370  13.791
55828W        W15089  28.487  22.009   3.674
55829W        W15090  31.427   2.451   2.721
55830W        W15091  33.554  17.279   1.781
55831W        W15092  25.513   9.850   3.708
55832W        W15093  41.403  30.544   4.824
55833W        W15094  21.156  26.701  10.134
55834W        W15095  28.471  42.897  10.508
55835W        W15096  43.406  22.656   0.317
55836W        W15097  30.547   5.245   1.721
55837W        W15098  37.578  23.582  11.129
55838W        W15099   0.764  36.426  14.766
55839W        W15100   5.824   9.391  12.392
55840W        W15101  19.539  21.152   2.833
55841W        W15102   2.871  36.383   1.809
55842W        W15103  31.445  11.326  10.463
55843W        W15104  44.837  41.002   1.747
55844W        W15105  15.266  39.549   1.254
55845W        W15106   8.713  33.592   1.439
55846W        W15107  22.094   5.813   0.414
55847W        W15108  26.620  40.864  13.879
55848W        W15109  22.196  11.168  10.581
55849W        W15110  32.028  34.048  10.537
55850W        W15111   8.278  38.988   2.264
55851W        W15112  18.281  26.034   1.293
55852W        W15113   3.327   0.287   2.867
55853W        W15114  16.609   4.841  14.908
55854W        W15115  22.585  20.527   0.774
55855W        W15116  21.112   7.331  14.004
55856W        W15117  15.787  14.700   4.253
55857W        W15118  23.098  15.593   3.724
55858W        W15119   7.724   5.344   1.406
55859W        W15120  10.743  14.820   4.260
55860W        W15121  39.427  38.361   3.197
55861W        W15122  10.370  37.962   0.319
55862W        W15123  20.105  29.589  12.897
55863W        W15124   9.327  38.485  13.018
55864W        W15125  43.841  38.877  12.358
55865W        W15126   5.729   1.288  14.397
55866W        W15127  22.726   8.273  12.877
55867W        W15128  40.817  17.069   1.225
55868W        W15129   4.701   6.744  13.382
55869W        W15130  22.657  37.370   2.854
55870W        W15131  21.695  38.530   3.260
55871W        W15132   1.417  11.736   3.145
55872W        W15133  18.202   3.273  14.857
55873W        W15134  34.455  35.917  11.991
55874W        W15135  43.784   8.755  12.019
55875W        W15136   8.376  32.897   1.294
55876W        W15137  26.155  30.013   5.601
55877W        W15138  35.004  26.562   2.232
55878W        W15139  22.078  36.473   4.346
55879W        W15140  12.730  41.331  10.589
55880W        W15141  32.439  18.762   0.880
55881W        W15142  29.497  16.132  14.994
55882W        W15143  40.967  21.202  11.504
55883W        W15144  18.617  31.050   2.849
55884W        W15145  23.631  21.036   2.685
55885W        W15146  37.556  10.149   4.285
55886W        W15147  30.553  36.448  11.479
55887W        W15148  24.043  21.643  14.451
55888W        W15149  19.248  41.377   1.792
55889W        W15150  28.950  29.923   1.395
55890W        W15151  27.988  31.128   0.950
55891W        W15152  40.528  28.043   9.990
55892W        W15153  32.554   9.780  11.064
55893W        W15154  41.438  23.549   2.390
55894W        W15155  31.914   7.300  11.497
55895W        W15156  17.231   1.401   2.367
55896W        W15157  11.636  22.696  10.528
55897W        W15158  10.186   0.309   0.894
55898W        W15159  24.539  39.334  14.860
55899W        W15160  31.588  36.961   0.436
55900W        W15161  34.926   4.403   4.805
55901W        W15162  35.493  29.616   0.345
55902W        W15163  32.118  35.604  14.280
55903W        W15164  18.652  20.760   3.209
55904W        W15165  11.664   6.830   5.108
55905W        W15166   2.390  33.906  12.017
55906W        W15167   1.295   0.794   0.868
55907W        W15168  29.174   5.856   3.195
55908W        W15169  22.686  33.523  12.066
55909W        W15170  22.176   2.449   0.447
55910W        W15171  28.950  28.521   1.915
55911W        W15172  40.892   6.843   4.625
55912W        W15173  34.546   8.359  13.913
55913W        W15174  31.954  34.493  12.489
55914W        W15175   3.820  14.832  12.826
55915W        W15176  12.682  10.837  10.600
55916W        W15177   5.336  26.674  11.440
55917W        W15178  34.004  33.030  11.005
55918W        W15179   9.828  20.647   0.879
55919W        W15180  14.245  25.637   1.777
55920W        W15181   3.240  25.125   1.243
55921W        W15182   7.313  35.416   3.864
55922W        W15183  35.511  33.066  14.313
55923W        W15184  19.258  34.444  10.970
55924W        W15185  15.122  40.893  11.894
55925W        W15186  41.372  34.016   1.917
55926W        W15187  36.966   8.884  14.383
55927W        W15188  41.024   8.184  14.862
55928W        W15189  16.768  42.322   4.290
55929W        W15190  21.720   8.170   4.625
55930W        W15191  44.324  38.881   4.690
55931W        W15192  30.938  30.935   0.438
55932W        W15193  29.563   3.720  11.900
55933W        W15194  16.186  44.936  12.871
55934W        W15195  28.533  10.715   0.247
55935W        W15196  43.958  13.695   4.229
55936W        W15197  34.982  17.762   2.339
55937W        W15198  12.820  28.522   2.797
55938W        W15199  29.431  13.187   1.844
55939W        W15200  11.334   5.300   9.926
55940W        W15201  38.823  17.215  11.412
55941W        W15202  17.173  26.077  12.526
55942W        W15203  30.984   6.800   2.262
55943W        W15204  35.431  32.924  13.798
55944W        W15205  43.873  26.105  14.872
55945W        W15206  42.977  41.304  13.376
55946W        W15207  19.701  42.487  13.820
55947W        W15208  19.246  24.506  10.600
55948W        W15209  38.547  29.562   0.731
55949W        W15210  42.380  41.414  11.073
55950W        W15211  39.412   3.889   1.237
55951W        W15212   4.812  21.633  11.531
55952W        W15213  22.059  28.989   3.799
55953W        W15214   3.396   1.755  10.080
55954W        W15215   9.794  35.893   4.599
55955W        W15216  38.402   1.880   3.218
55956W        W15217  35.460  29.532   2.690
55957W        W15218  15.110  44.286  12.386
55958W        W15219  28.079  30.148   5.198
55959W        W15220  28.069  21.618   2.760
55960W        W15221  43.917   5.895   0.759
55961W        W15222   8.382  13.664  12.480
55962W        W15223   0.446  32.410   4.325
55963W        W15224  23.022  26.087  10.891
55964W        W15225  37.076   2.432   1.755
55965W        W15226   3.402  28.090  11.976
55966W        W15227  21.080  31.635   2.846
55967W        W15228  36.510  35.971  13.412
55968W        W15229  11.841  33.444  14.313
55969W        W15230  14.212  39.359   2.851
55970W        W15231  10.223  42.029   1.707
55971W        W15232   4.255  41.900  11.870
55972W        W15233   5.885  44.419   4.324
55973W        W15234   6.791  16.730  12.033
55974W        W15235  17.559  31.468   4.674
55975W        W15236  21.114  35.035  14.028
55976W        W15237  28.095  25.165  10.412
55977W        W15238   6.872   9.199   0.361
55978W        W15239  31.433  34.120  14.898
55979W        W15240  37.073   6.387  14.292
55980W        W15241  23.133  42.336  14.830
55981W        W15242  42.319  11.222  11.905
55982W        W15243   1.849  40.969   1.924
55983W        W15244  40.540   6.874   4.172
55984W        W15245  22.666   8.668  10.459
55985W        W15246   7.338  35.062  13.830
55986W        W15247   7.401  22.646  13.413
55987W        W15248  12.817  20.735   4.749
55988W        W15249  39.457  19.717  11.498
55989W        W15250  17.108  10.369  10.094
55990W        W15251   3.750  30.496   1.239
55991W        W15252   9.854  19.144  14.902
55992W        W15253  34.459  31.931  14.863
55993W        W15254  36.494  36.853  12.003
55994W        W15255  13.347  18.171   0.442
55995W        W15256   0.348   5.688   1.794
55996W        W15257  27.690   5.826   3.858
55997W        W15258  25.611   4.803   1.787
55998W        W15259  36.875  33.463  14.374
55999W        W15260  19.152  37.381   3.235
56000W        W15261  35.524  18.129  13.408
56001W        W15262   3.255   8.359  10.524
56002W        W15263  20.031  40.045   9.951
56003W        W15264  10.357  36.487   1.744
56004W        W15265   2.886   3.711  13.054
56005W        W15266   9.338  17.300  11.521
56006W        W15267  11.732  31.410   2.831
56007W        W15268  35.367  24.976  11.086
56008W        W15269  36.910  20.612  11.594
56009W        W15270  41.350  41.895   0.482
56010W        W15271  28.109  22.512  14.760
56011W        W15272  11.324  23.723   2.222
56012W        W15273  11.690  23.505   2.739
56013W        W15274  21.059  20.157  14.446
56014W        W15275  41.434  26.961   2.263
56015W        W15276  11.844  37.010   2.673
56016W        W15277  40.442  10.162  13.851
56017W        W15278  15.687  26.172  10.470
56018W        W15279  18.733  43.410  14.461
56019W        W15280  27.615  14.739   1.930
56020W        W15281  32.965  24.589   0.911
56021W        W15282  42.336  11.337   4.326
56022W        W15283  38.069  14.186   2.294
56023W        W15284  42.500  21.157  10.507
56024W        W15285  14.591  28.983   0.843
56025W        W15286  41.885  23.148   1.345
56026W        W15287  19.064  16.779  12.355
56027W        W15288  17.688  19.193   5.293
56028W        W15289  36.049  39.831  11.056
56029W        W15290   6.752  24.130  11.944
56030W        W15291  29.503  44.495  12.471
56031W        W15292   7.877   5.703  11.534
56032W        W15293  16.291  17.061   3.645
56033W        W15294  40.405   6.373  10.441
56034W        W15295  23.076  13.328  13.403
56035W        W15296  35.358  44.954  13.038
56036W        W15297  37.490  30.116  10.617
56037W        W15298  26.589   9.740   1.426
56038W        W15299   5.829   5.915   3.706
56039W        W15300  33.062  38.539   0.903
56040W        W15301  36.962  21.753  10.467
56041W        W15302  16.286   3.230   3.177
56042W        W15303  22.245  43.859   4.199
56043W        W15304  15.817  35.031  13.986
56044W        W15305   4.709   8.747   3.304
56045W        W15306   2.838  11.737   3.868
56046W        W15307   3.901  44.950   4.816
56047W        W15308  23.623   2.451   5.236
56048W        W15309  27.176   3.398   0.775
56049W        W15310  13.310  19.275   2.809
56050W        W15311  44.376  24.627  14.877
56051W        W15312  44.259  44.470  13.045
56052W        W15313  30.499  18.116   4.611
56053W        W15314  33.968   3.866  12.964
56054W        W15315  42.353  32.554  11.048
56055W        W15316  22.731  23.078  12.570
56056W        W15317  44.492  26.574  11.523
56057W        W15318  40.474  39.921  11.892
56058W        W15319   4.777  38.831  12.469
56059W        W15320   5.768   6.813   3.659
56060W        W15321   3.800  29.478   1.817
56061W        W15322  44.351  21.524   2.413
56062W        W15323  30.601  26.141  14.319
56063W        W15324  44.337  20.745  13.051
56064W        W15325  29.516  44.920  14.426
56065W        W15326   3.411  22.110   0.918
56066W        W15327  31.914  23.576  14.841
56067W        W15328   5.784  21.743   3.154
56068W        W15329   3.377  29.108   2.222
56069W        W15330  32.028  37.349   4.795
56070W        W15331  18.165  35.588  14.910
56071W        W15332  11.198   3.922  10.475
56072W        W15333  22.519  20.096   9.959
56073W        W15334  13.608  26.092   1.332
56074W        W15335  37.452   7.392   1.742
56075W        W15336   6.791  10.140   9.949
56076W        W15337   3.290  21.048   2.225
56077W        W15338  12.295  41.935  13.815
56078W        W15339  33.449  33.411  12.432
56079W        W15340  16.668  34.927  10.558
56080W        W15341  32.987  12.332  11.504
56081W        W15342  19.213   2.755  10.590
56082W        W15343   0.940  32.589   3.258
56083W        W15344  27.961  43.417  13.869
56084W        W15345  41.459  14.332   4.277
56085W        W15346  36.062  10.370  12.429
56086W        W15347   0.365  15.763  13.927
56087W        W15348  22.512  16.710  11.096
56088W        W15349  10.704   8.186  11.498
56089W        W15350  24.196  27.015  12.369
56090W        W15351  31.428  44.445  12.478
56091W        W15352  35.544   1.756   4.777
56092W        W15353   0.851  17.790   2.278
56093W        W15354  20.085  32.448  11.961
56094W        W15355  30.098  36.846  14.355
56095W        W15356  14.640  13.789   1.727
56096W        W15357  42.993  17.749  11.124
56097W        W15358  27.557   3.764  12.078
56098W        W15359  41.795  16.150   2.198
56099W        W15360   6.732  23.689   4.829
56100W        W15361  35.365  24.046   4.692
56101W        W15362  44.457  15.145  13.877
56102W        W15363  31.902  20.058  14.377
56103W        W15364  34.113   2.330   1.783
56104W        W15365   0.955  10.372   2.370
56105W        W15366  38.885  25.023  14.802
56106W        W15367   5.407  20.117  12.835
56107W        W15368  14.796  25.672   2.357
56108W        W15369   5.329  17.239   1.248
56109W        W15370  35.076  39.946   0.389
56110W        W15371  40.369  13.145  12.960
56111W        W15372  18.705   1.325   4.348
56112W        W15373   9.868  31.938   4.131
56113W        W15374  26.535  39.825   4.291
56114W        W15375  12.796  15.621   3.273
56115W        W15376  34.585  40.025   1.333
56116W        W15377  41.905  11.323  10.980
56117W        W15378  16.210  25.181   1.885
56118W        W15379  29.655  21.232   9.951
56119W        W15380  39.040  37.056   2.745
56120W        W15381   6.854  22.150  13.331
56121W        W15382  29.647   1.446   0.285
56122W        W15383   4.711   8.302   3.816
56123W        W15384  36.452   5.201  14.002
56124W        W15385  34.412   2.250   0.297
56125W        W15386  10.660  14.771   1.874
56126W        W15387  44.427  10.695   2.787
56127W        W15388  18.262   0.838   3.162
56128W        W15389  18.674  16.660   4.133
56129W        W15390  39.333  15.776   0.358
56130W        W15391  24.097  36.070  10.079
56131W        W15392  37.354   2.943  10.591
56132W        W15393  33.923  15.220   4.263
56133W        W15394  35.888  16.072  11.603
56134W        W15395  31.923   3.903   5.254
56135W        W15396  13.808  29.472  12.383
56136W        W15397  17.147  15.716  14.918
56137W        W15398  31.637  24.200  13.019
56138W        W15399  33.017  20.542   0.255
56139W        W15400   2.430  16.596  13.795
56140W        W15401   2.235  11.793   4.711
56141W        W15402   9.333  37.535   1.233
56142W        W15403   3.416   9.704   1.705
56143W        W15404   0.419  29.471   0.800
56144W        W15405  32.502  23.555  14.933
56145W        W15406  44.831  26.031   5.705
56146W        W15407   9.255   2.406   4.169
56147W        W15408  12.645  44.984   1.792
56148W        W15409   4.896  30.532  10.012
56149W        W15410  38.947  13.785   0.327
56150W        W15411  33.396  38.827  11.437
56151W        W15412  40.542  44.924   4.239
56152W        W15413   0.911  11.215   1.826
56153W        W15414   2.336  13.223  12.056
56154W        W15415  19.593   3.222   0.951
56155W        W15416  18.151  18.218  13.492
56156W        W15417  12.736  10.658  13.985
56157W        W15418  24.099  39.867  13.880
56158W        W15419  39.928  22.671  13.842
56159W        W15420   0.336   3.854  14.883
56160W        W15421  27.571  30.146   1.721
56161W        W15422  33.942   4.801  13.401
56162W        W15423  21.091  26.586   2.887
56163W        W15424  42.362  35.082  12.833
56164W        W15425  22.083  16.291  14.486
56165W        W15426  13.199  30.535   4.278
56166W        W15427  37.532  11.695  10.564
56167W        W15428  36.039  35.587   0.730
56168W        W15429  37.065  10.795  11.417
56169W        W15430  39.516  12.829   2.386
56170W        W15431  44.949   5.730  12.556
56171W        W15432  25.157  13.760  14.332
56172W        W15433  27.457   7.374   0.901
56173W        W15434  24.013  19.118   1.230
56174W        W15435  17.229  13.825   1.831
56175W        W15436   0.845  18.141  14.395
56176W        W15437  38.050   0.376   2.901
56177W        W15438  15.238  16.295  12.865
56178W        W15439  37.478  13.840   2.373
56179W        W15440  22.631  13.661  12.472
56180W        W15441  25.175  28.994   0.893
56181W        W15442  43.395  40.835  11.123
56182W        W15443  11.701  26.546  12.366
56183W        W15444   7.179   6.745   4.142
56184W        W15445  16.714  42.456   0.243
56185W        W15446   7.875   6.702   1.229
56186W        W15447   0.810  28.096  14.459
56187W        W15448  36.396   2.759   3.336
56188W        W15449  23.628  19.613   4.154
56189W        W15450  16.306   4.280   9.456
56190W        W15451   3.457  12.187  14.938
56191W        W15452  18.660   3.853  10.554
56192W        W15453  43.975  28.044   9.649
56193W        W15454  31.999  32.986  10.152
56194W        W15455  14.213  21.751  13.482
56195W        W15456  37.040   8.314   1.722
56196W        W15457  22.043  39.050  14.877
56197W        W15458  22.060  26.674  11.557
56198W        W15459  23.019  20.526  11.931
56199W        W15460  18.197  18.746  12.457
56200W        W15461  32.128  28.650  11.449
56201W        W15462  10.725  23.214   2.831
56202W        W15463  36.458  18.079  13.315
56203W        W15464  44.399  41.488   4.814
56204W        W15465  15.162  42.026  13.357
56205W        W15466   9.290  31.591  11.083
56206W        W15467  20.081  38.403  14.479
56207W        W15468  20.225  17.237  11.860
56208W        W15469  40.402  34.429   3.165
56209W        W15470  41.385   1.920  12.561
56210W        W15471  12.830  19.053  12.974
56211W        W15472   7.332  28.039   1.779
56212W        W15473  27.092  12.805   0.403
56213W        W15474  20.200   2.452   0.739
56214W        W15475   4.355  28.929   4.631
56215W        W15476   8.307  31.000   2.402
56216W        W15477  12.308  31.425  12.347
56217W        W15478   9.190  36.413  13.972
56218W        W15479  30.654  41.523   0.475
56219W        W15480  13.149  44.982   2.804
56220W        W15481  18.560  39.516   3.322
56221W        W15482  34.071  42.864   0.392
56222W        W15483  44.378  43.815  13.932
56223W        W15484  18.058  28.453   0.738
56224W        W15485  43.289  23.511  11.484
56225W        W15486  29.001  34.508  14.935
56226W        W15487  40.473  31.949   3.226
56227W        W15488  41.971  43.455  10.409
56228W        W15489  30.019  24.027  13.354
56229W        W15490  33.430   6.807   9.987
56230W        W15491  12.283  26.653  11.091
56231W        W15492  39.476  43.973   2.340
56232W        W15493  21.713  20.220  12.418
56233W        W15494   7.879  40.865  13.379
56234W        W15495  33.569  32.582   0.383
56235W        W15496   5.262  12.787   0.408
56236W        W15497  36.018  10.142   0.953
56237W        W15498  17.666  35.465  10.596
56238W        W15499   6.246   9.796  14.873
56239W        W15500  35.548  26.624   3.321
56240W        W15501  26.089   8.731  10.445
56241W        W15502  41.535  29.079   1.295
56242W        W15503  11.784  13.711   4.172
56243W        W15504  33.390  25.517  10.596
56244W        W15505  31.546  35.933  14.868
56245W        W15506  17.162  40.395  10.424
56246W        W15507  21.614  25.545   1.807
56247W        W15508   6.877  25.592   4.294
56248W        W15509  31.494  27.568   2.808
56249W        W15510  13.233  11.242   1.349
56250W        W15511  28.186   9.227  11.060
56251W        W15512  18.710  42.823   5.155
56252W        W15513  39.061  31.122  14.841
56253W        W15514  15.699  41.359   0.907
56254W        W15515  16.591  24.562  12.931
56255W        W15516  16.794  29.471   0.901
56256W        W15517  26.618   8.258   3.311
56257W        W15518   8.678  22.076   2.319
56258W        W15519   3.392  33.960  14.772
56259W        W15520  15.266  39.489   3.237
56260W        W15521  15.633  31.441   0.961
56261W        W15522  19.066  14.808  12.456
56262W        W15523  26.523  15.107  13.965
56263W        W15524   6.840  36.031  11.413
56264W        W15525   4.445  42.418   3.373
56265W        W15526   8.161  18.100  14.993
56266W        W15527  14.758  23.607  10.040
56267W        W15528  14.721  21.099   0.901
56268W        W15529  12.667  33.127  11.026
56269W        W15530  18.790  23.135  13.796
56270W        W15531  42.413   4.251   4.153
56271W        W15532   6.883  37.972  14.289
56272W        W15533  32.941  35.061   1.724
56273W        W15534  31.441  16.297  14.796
56274W        W15535  33.383  30.914  11.443
56275W        W15536  12.324   4.865  11.924
56276W        W15537  33.510  35.971   3.273
56277W        W15538  31.503  37.920   4.698
56278W        W15539  12.802  43.346  12.404
56279W        W15540   5.220  41.017   0.766
56280W        W15541  41.954  17.709  10.578
56281W        W15542   3.259  33.960  11.372
56282W        W15543  21.066  28.632   0.761
56283W        W15544   8.173   1.304   4.331
56284W        W15545  22.507  31.943   2.900
56285W        W15546   5.705   9.868  12.969
56286W        W15547   6.326  26.570   1.345
56287W        W15548  24.171   4.373  10.639
56288W        W15549  10.697  28.105  12.904
56289W        W15550   7.305  27.168   4.130
56290W        W15551   5.694  11.791   3.727
56291W        W15552   2.263  44.780   1.739
56292W        W15553  32.557  43.484  10.470
56293W        W15554   5.344   2.851   0.357
56294W        W15555  17.587  37.521  13.892
56295W        W15556  25.645  42.856   4.701
56296W        W15557  41.870   1.355   0.414
56297W        W15558  36.556   9.713  13.367
56298W        W15559  31.553  15.254  14.298
56299W        W15560  34.088  31.508   2.880
56300W        W15561   6.891  11.211  12.393
56301W        W15562  12.190  12.623  14.814
56302W        W15563  28.100   8.686  14.466
56303W        W15564  24.717   2.897   2.183
56304W        W15565  17.080  16.078  13.811
56305W        W15566  15.732  26.543   2.317
56306W        W15567  29.441  44.461  14.775
56307W        W15568  13.189  37.994  11.939
56308W        W15569  17.624  24.207  11.458
56309W        W15570  12.681  25.172  10.608
56310W        W15571  30.468  32.141   1.293
56311W        W15572  31.645  39.343   3.650
56312W        W15573  31.429  12.210  13.873
56313W        W15574  27.466  10.756  14.433
56314W        W15575  33.957  26.680  14.322
56315W        W15576  35.507   0.300  13.827
56316W        W15577   8.243  14.724   0.368
56317W        W15578  13.785   1.440   4.691
56318W        W15579  13.334  43.967  12.399
56319W        W15580  25.195  44.420  12.066
56320W        W15581  10.295  19.193   3.790
56321W        W15582  39.462   3.894   3.784
56322W        W15583  22.660  35.550  14.385
56323W        W15584  38.954   4.839  12.043
56324W        W15585  37.451  23.067   2.767
56325W        W15586  29.018  12.648  10.935
56326W        W15587  29.451  27.041  11.379
56327W        W15588  31.445  15.679  10.490
56328W        W15589  37.354  25.544   1.373
56329W        W15590  16.720  31.463   4.324
56330W        W15591  22.997  24.042   4.605
56331W        W15592  37.559  26.606  10.042
56332W        W15593  20.700  43.363   4.184
56333W        W15594  29.053   5.359  12.489
56334W        W15595  14.290  44.401  10.455
56335W        W15596  20.624  10.148   1.379
56336W        W15597  42.345   7.288  11.065
56337W        W15598   1.909   0.747   4.323
56338W        W15599  38.959   7.727  10.412
56339W        W15600   8.180   9.197   5.265
56340W        W15601  14.689  12.332   0.741
56341W        W15602  35.030  44.799   1.437
56342W        W15603  19.715  32.467   1.816
56343W        W15604  18.258  29.079   2.234
56344W        W15605  16.161  34.031   2.673
56345W        W15606   7.307  22.643  14.024
56346W        W15607  19.659  30.074   0.329
56347W        W15608   7.339  17.777   0.257
56348W        W15609  12.241  35.049   0.322
56349W        W15610  39.500  42.290  12.551
56350W        W15611   2.781  23.528   0.404
56351W        W15612  32.514  39.843  12.835
56352W        W15613   1.468  14.265   0.367
56353W        W15614   3.868  37.947  12.860
56354W        W15615  41.861  40.823  14.991
56355W        W15616   3.715  17.563   4.276
56356W        W15617  12.752  17.578   1.766
56357W        W15618   7.383  40.322   2.869
56358W        W15619  12.839   2.295  14.924
56359W        W15620  24.151  20.125   2.297
56360W        W15621  10.193  36.536  14.789
56361W        W15622  38.829  34.470   1.386
56362W        W15623   2.939  17.104  14.480
56363W        W15624  10.168  22.699  13.927
56364W        W15625  32.943  43.880  14.925
56365W        W15626   4.273  41.799   3.299
56366W        W15627   3.237  37.030  13.338
56367W        W15628  31.587  26.099   2.706
56368W        W15629   7.771  15.284   0.748
56369W        W15630  33.420  20.756  13.459
56370W        W15631  16.699   6.678  13.901
56371W        W15632  16.592  17.265  14.849
56372W        W15633   5.702  18.761   3.656
56373W        W15634  35.987  15.181   3.664
56374W        W15635   8.801  41.512   3.185
56375W        W15636  13.691  25.674   0.348
56376W        W15637  11.670  17.720   3.191
56377W        W15638  21.556  30.606  12.369
56378W        W15639  19.767  16.302   1.863
56379W        W15640  20.541  42.442   1.734
56380W        W15641  29.118   9.213   0.861
56381W        W15642  25.531  35.540   3.251
56382W        W15643  32.586   1.760   1.309
56383W        W15644   6.894  23.082   4.210
56384W        W15645   7.379   3.830   5.728
56385W        W15646  35.107  35.050   0.455
56386W        W15647   5.201   1.967   5.193
56387W        W15648  29.993  41.919   4.743
56388W        W15649   3.769  26.682   2.384
56389W        W15650  27.460   1.815  12.034
56390W        W15651   4.244  23.120   3.378
56391W        W15652   1.761  13.723   2.242
56392W        W15653   0.256   2.802   2.772
56393W        W15654  26.992   4.304  13.460
56394W        W15655  23.701   8.672   4.646
56395W        W15656  34.460  14.711   4.263
56396W        W15657  17.622  27.126  10.137
56397W        W15658  29.545  27.020  14.798
56398W        W15659  25.653  39.328  12.468
56399W        W15660  16.645  21.185  14.436
56400W        W15661  41.854  43.805  11.056
56401W        W15662  22.566  32.424  13.857
56402W        W15663  32.078   2.341   0.407
56403W        W15664   2.236  19.770   0.948
56404W        W15665  19.601  21.579   0.812
56405W        W15666  17.793  39.356   4.815
56406W        W15667  27.186  27.465   4.670
56407W        W15668  19.558  14.274  11.557
56408W        W15669  12.653  34.374   1.425
56409W        W15670  26.162   8.351  10.584
56410W        W15671   9.199  33.534   1.294
56411W        W15672  41.843   4.891  11.920
56412W        W15673  13.225  31.429  13.948
56413W        W15674  32.567  43.973   1.715
56414W        W15675  39.442   1.317  12.577
56415W        W15676  14.751  30.601   4.350
56416W        W15677  42.030  15.103   4.690
56417W        W15678  34.086   8.240   0.408
56418W        W15679  27.469   8.217   3.699
56419W        W15680   6.367   3.444  12.466
56420W        W15681  44.440  10.709  14.873
56421W        W15682   8.167  28.948   4.133
56422W        W15683  26.660  21.586   0.845
56423W        W15684  14.324  26.115  12.460
56424W        W15685  12.704  31.980  14.884
56425W        W15686  36.979  32.080  12.432
56426W        W15687   9.756   8.329   9.951
56427W        W15688  38.488  38.946  11.605
56428W        W15689   3.819  30.068   4.674
56429W        W15690  43.851  12.669   4.723
56430W        W15691  27.060  16.269   2.869
56431W        W15692  29.660  14.337  14.824
56432W        W15693  43.889  26.670  11.044
56433W        W15694   0.864   1.860   0.746
56434W        W15695  20.172   8.238   3.832
56435W        W15696   8.700  39.964  11.928
56436W        W15697  24.614  36.061   4.601
56437W        W15698  31.093   4.206  13.872
56438W        W15699  13.699  35.020   2.312
56439W        W15700  26.639  37.342   4.348
56440W        W15701  17.617   5.428   2.204
56441W        W15702  27.596  43.871  13.414
56442W        W15703  16.241  27.148  14.834
56443W        W15704  23.623  23.512   2.344
56444W        W15705  22.097  16.682   2.199
56445W        W15706  39.820  42.786   0.315
56446W        W15707   0.321  31.970   2.663
56447W        W15708  18.545   3.837  11.092
56448W        W15709  35.531   3.911  13.473
56449W        W15710  36.081   7.363   2.314
56450W        W15711   2.359   4.735  10.452
56451W        W15712   4.219  14.165  12.975
56452W        W15713  36.969  12.211   3.700
56453W        W15714   5.934  24.007   2.786
56454W        W15715  31.629  26.628  14.309
56455W        W15716  34.060  13.349   4.312
56456W        W15717  24.188  29.565  12.908
56457W        W15718  12.806  25.963   3.196
56458W        W15719  20.069  30.980  13.020
56459W        W15720  26.956  14.828   4.674
56460W        W15721  28.592  30.587   4.349
56461W        W15722  41.968  15.578  14.401
56462W        W15723  10.364  15.625   4.253
56463W        W15724  24.991  26.702  12.341
56464W        W15725  41.305  38.567  14.439
56465W        W15726   9.344  33.040   2.869
56466W        W15727  10.688  32.546  13.334
56467W        W15728  11.305  24.076  12.956
56468W        W15729   9.219  20.153   1.348
56469W        W15730  42.459  16.206   2.762
56470W        W15731  29.169   2.368  13.910
56471W        W15732  33.582  31.119   3.365
56472W        W15733   8.859  31.021  14.288
56473W        W15734  40.879   9.803   4.839
56474W        W15735  11.801  19.760   0.917
56475W        W15736  13.820  14.733  10.465
56476W        W15737  20.596   1.411   2.882
56477W        W15738  12.720  34.014  14.990
56478W        W15739   9.825  39.471  11.526
56479W        W15740  27.016   3.947   2.770
56480W        W15741   2.730  42.973   5.104
56481W        W15742  25.193  38.397   3.255
56482W        W15743  37.434  42.419   3.252
56483W        W15744   6.793   4.900   1.252
56484W        W15745  44.491  10.226  13.487
56485W        W15746  35.913  13.703   0.298
56486W        W15747  15.144  24.089  14.489
56487W        W15748  32.441   7.768   0.331
56488W        W15749  40.846  15.261  13.969
56489W        W15750  13.185  31.118  13.029
56490W        W15751  41.916   8.846   1.789
56491W        W15752   2.764  11.753   4.253
56492W        W15753  39.054  40.883  14.853
56493W        W15754  29.000  44.413   2.387
56494W        W15755  41.426  25.496  14.994
56495W        W15756   0.947  20.566   3.325
56496W        W15757  19.098  36.875  12.549
56497W        W15758  44.771  36.981  13.891
56498W        W15759  34.409  44.867   1.275
56499W        W15760   0.315  27.031  11.041
56500W        W15761  34.502  39.865  12.349
56501W        W15762  31.448  31.116  11.607
56502W        W15763  15.587  15.792   4.296
56503W        W15764  21.234  44.380  14.979
56504W        W15765  16.716  25.565  11.416
56505W        W15766  10.687  19.780   4.695
56506W        W15767  31.992  17.260  13.386
56507W        W15768  43.877   3.906  11.404
56508W        W15769  28.989  17.304   1.229
56509W        W15770  28.974   7.266   1.695
56510W        W15771  20.731  18.180  11.490
56511W        W15772  18.192  19.178  14.310
56512W        W15773  18.571  27.532   2.225
56513W        W15774  19.201   5.315   1.349
56514W        W15775   0.980  16.280   3.722
56515W        W15776  36.998  15.774  10.945
56516W        W15777  40.374   6.693   1.327
56517W        W15778  39.963  17.133   1.789
56518W        W15779  27.481  38.030   0.246
56519W        W15780  28.044   1.438  12.841
56520W        W15781  36.367  18.559  11.982
56521W        W15782   3.290  10.182  13.474
56522W        W15783  13.645  12.186   1.361
56523W        W15784  24.194  43.288  10.988
56524W        W15785  34.463   1.743   1.826
56525W        W15786  28.053  13.784   3.170
56526W        W15787   0.864  39.940  13.957
56527W        W15788  33.462  26.546   3.326
56528W        W15789   2.727  22.508   0.381
56529W        W15790  36.586  16.227   0.864
56530W        W15791   2.407  35.080  11.938
56531W        W15792  35.455   8.253   1.857
56532W        W15793   8.181  10.361   4.270
56533W        W15794  13.280   8.780  10.907
56534W        W15795  24.649  37.399  12.383
56535W        W15796  43.345   3.911   0.477
56536W        W15797  12.313  12.349  14.790
56537W        W15798   9.647  15.611  14.915
56538W        W15799   6.337  32.634   3.318
56539W        W15800  16.105  31.032   4.261
56540W        W15801  12.848   0.416  11.888
56541W        W15802  31.133   6.860  11.957
56542W        W15803   5.233  28.054  11.540
56543W        W15804   0.792  10.863   1.239
56544W        W15805  15.740  29.068   3.267
56545W        W15806  27.536  11.677   3.234
56546W        W15807   0.394  40.862  13.905
56547W        W15808  29.652  35.380   1.858
56548W        W15809  25.605  43.290   1.217
56549W        W15810  16.586   7.700  12.567
56550W        W15811  27.991  42.486  11.966
56551W        W15812  44.800   3.892   2.284
56552W        W15813  42.812  23.689  13.864
56553W        W15814  12.177  15.145  13.961
56554W        W15815  17.302  25.612   3.308
56555W        W15816  40.307  31.039   3.847
56556W        W15817   1.762  38.016  12.061
56557W        W15818   7.866  27.598  14.913
56558W        W15819  34.590  39.471   3.705
56559W        W15820  37.919  11.852  13.307
56560W        W15821  28.077  22.017   3.846
56561W        W15822  19.648   2.734   1.303
56562W        W15823  12.141  33.550  11.042
56563W        W15824  41.401  27.484   5.149
56564W        W15825  34.460  42.437  14.352
56565W        W15826  16.723  25.964   4.656
56566W        W15827  39.322   9.739  12.897
56567W        W15828   3.233  14.695  12.992
56568W        W15829  10.843  43.399  11.980
56569W        W15830  32.132   4.745  10.507
56570W        W15831   5.920  33.063   1.286
56571W        W15832  26.119  11.269   0.273
56572W        W15833  19.681  19.752   1.821
56573W        W15834  30.645   9.703   2.341
56574W        W15835  11.368  44.503   2.358
56575W        W15836  44.400  18.132  12.355
56576W        W15837  38.515  10.364  13.012
56577W        W15838   4.222  19.241   0.306
56578W        W15839  27.161  22.652   2.712
56579W        W15840   4.825   5.340   0.410
56580W        W15841  25.984  37.436  14.865
56581W        W15842   9.311  37.537  11.977
56582W        W15843  26.103  24.097   4.707
56583W        W15844  13.167  21.162   3.211
56584W        W15845  11.170  24.549   3.704
56585W        W15846  20.061  27.597   4.265
56586W        W15847  37.984  43.290   4.264
56587W        W15848   2.441  40.894   0.927
56588W        W15849  11.795  30.538   4.617
56589W        W15850  18.761  34.907  10.497
56590W        W15851  21.226  22.138   2.797
56591W        W15852   5.820  23.121  12.041
56592W        W15853  28.547  19.149  11.383
56593W        W15854  24.106  13.714   4.189
56594W        W15855  43.287  24.589   4.176
56595W        W15856  43.320  33.025  10.077
56596W        W15857  33.424  41.933   3.802
56597W        W15858  23.989  34.878  14.900
56598W        W15859  36.059  25.097  12.039
56599W        W15860   7.269  14.310   0.898
56600W        W15861  36.544  22.729   2.874
56601W        W15862  13.346  10.229   4.330
56602W        W15863  21.147  21.058  10.574
56603W        W15864  17.692  16.585  13.003
56604W        W15865  24.185  28.639  14.975
56605W        W15866  30.589  32.988  11.096
56606W        W15867   9.251   1.453   3.859
56607W        W15868  17.647  43.879  10.564
56608W        W15869  25.671   3.456   3.332
56609W        W15870  31.004   7.272   2.720
56610W        W15871   9.328  41.981  13.400
56611W        W15872   9.724   0.484   2.800
56612W        W15873  14.824  25.147   2.382
56613W        W15874  15.148  26.587  14.876
56614W        W15875  27.988  20.548  13.808
56615W        W15876  28.654  35.000   2.355
56616W        W15877  27.604  30.417   1.304
56617W        W15878   9.646  14.806  14.355
56618W        W15879  37.014   8.744   3.154
56619W        W15880  25.985  15.134  12.830
56620W        W15881   0.894  14.307   4.245
56621W        W15882  44.798  33.922  11.411
56622W        W15883  41.947  24.535   5.261
56623W        W15884   0.974  24.520   0.953
56624W        W15885  43.911   0.408   3.290
56625W        W15886  19.146   6.336   1.213
56626W        W15887  19.243  38.515   0.406
56627W        W15888  37.446  28.552   4.777
56628W        W15889  20.201   8.372   1.751
56629W        W15890   7.353  41.805  12.418
56630W        W15891  29.572  33.477  12.530
56631W        W15892  25.966  23.040   3.812
56632W        W15893  26.096  23.725  14.891
56633W        W15894  41.437   8.348   2.389
56634W        W15895  37.386   6.351   1.817
56635W        W15896  10.312  14.331   3.718
56636W        W15897  28.066  18.654   3.252
56637W        W15898   5.723  32.616   2.321
56638W        W15899  15.274  26.162   1.700
56639W        W15900   3.416   4.249   3.704
56640W        W15901  41.928  18.558  10.973
56641W        W15902   1.332  26.543  10.460
56642W        W15903  31.516  14.106   4.755
56643W        W15904  21.611   6.208  14.293
56644W        W15905  41.999  22.183  11.940
56645W        W15906  25.616  19.592  14.834
56646W        W15907  10.804  13.317  11.433
56647W        W15908  11.867  36.975  10.409
56648W        W15909  18.107   8.373  13.808
56649W        W15910  33.048  20.527  11.511
56650W        W15911  16.247  32.043   2.209
56651W        W15912  16.623   0.439   0.335
56652W        W15913  23.669  12.661  10.624
56653W        W15914   2.939   5.204   4.207
56654W        W15915  27.462  12.133   0.838
56655W        W15916  34.572  24.171   4.325
56656W        W15917  24.985  35.020   2.367
56657W        W15918  43.387  30.059   1.297
56658W        W15919  12.279  34.974  11.085
56659W        W15920  28.037  42.508   2.773
56660W        W15921  43.428  29.174  13.881
56661W        W15922  29.581  34.517  11.476
56662W        W15923  10.852   1.816   3.370
56663W        W15924  14.694   6.908  12.521
56664W        W15925   0.366  43.513  12.828
56665W        W15926  42.380  11.863   3.830
56666W        W15927  26.131   4.814  12.093
56667W        W15928  23.522   9.676   3.858
56668W        W15929  11.672   3.900  11.119
56669W        W15930  25.001  39.352  13.341
56670W        W15931  43.335   2.932  12.545
56671W        W15932  25.523  30.657  12.560
56672W        W15933  39.518  35.946  13.893
56673W        W15934  38.357  33.948   1.843
56674W        W15935   5.209  14.168  13.007
56675W        W15936  42.005  30.983  12.377
56676W        W15937  43.453  31.064   0.769
56677W        W15938  35.914  38.868   4.274
56678W        W15939  16.596  20.755   1.276
56679W        W15940  41.398  19.655  12.503
56680W        W15941  20.085  17.119   3.331
56681W        W15942  19.091  23.996   4.294
56682W        W15943  30.106   3.730  11.451
56683W        W15944  13.211   9.728  14.780
56684W        W15945  34.551  18.151   4.739
56685W        W15946   6.384  34.429  11.586
56686W        W15947  40.434  39.016   2.339
56687W        W15948  30.110   2.359  14.321
56688W        W15949   1.285   4.435  11.860
56689W        W15950  24.129  33.939  14.469
56690W        W15951   2.372   8.726   0.851
56691W        W15952   3.880  40.854   2.796
56692W        W15953  26.659  38.953  11.977
56693W        W15954   7.891  23.159  14.495
56694W        W15955   8.345  38.383  12.006
56695W        W15956  21.256  24.098   0.761
56696W        W15957  29.491  29.095  13.456
56697W        W15958  25.176   6.247   4.126
56698W        W15959  36.415  42.949  10.956
56699W        W15960   7.686   6.356  13.961
56700W        W15961   4.226  41.789  13.471
56701W        W15962  33.489   3.340  12.395
56702W        W15963  19.214   7.244   1.425
56703W        W15964   3.792  20.551   1.724
56704W        W15965  44.268  30.164  12.436
56705W        W15966   2.833  39.813  12.989
56706W        W15967  44.935   3.878   0.962
56707W        W15968  24.658  18.184  13.054
56708W        W15969  10.850  10.191  12.085
56709W        W15970  38.919   2.765   3.322
56710W        W15971  19.700  12.149  13.056
56711W        W15972  34.087  29.622   9.970
56712W        W15973  14.132  39.859   4.192
56713W        W15974  12.268  10.290   0.274
56714W        W15975  11.284  32.443   1.874
56715W        W15976   6.751  27.043   1.860
56716W        W15977   6.200  13.211  10.978
56717W        W15978  23.097  40.430  14.981
56718W        W15979  16.649  11.825   1.227
56719W        W15980   3.420   8.817   0.344
56720W        W15981  32.888  23.189   2.694
56721W        W15982  14.318  16.593   2.880
56722W        W15983  24.151  31.125   5.225
56723W        W15984   0.843   6.257  14.370
56724W        W15985  19.105   4.748  12.074
56725W        W15986   9.293   2.756  10.930
56726W        W15987   5.243  27.642  12.551
56727W        W15988  13.707   6.869  10.954
56728W        W15989  11.674   3.260   5.138
56729W        W15990  35.955  31.135  12.418
56730W        W15991  14.598  28.973   4.645
56731W        W15992  19.243   0.852   1.749
56732W        W15993  32.937  26.194   3.284
56733W        W15994  17.283  18.669  12.081
56734W        W15995   6.274  12.250  14.383
56735W        W15996   7.269  29.111   3.827
56736W        W15997  39.825  44.907   4.671
56737W        W15998   1.393   0.367  12.932
56738W        W15999  40.480  41.935  10.624
56739W        W16000   0.804  42.407  14.315
56740W        W16001  33.504   3.335  11.924
56741W        W16002  30.536  41.394   1.928
56742W        W16003  11.732  28.045   4.234
56743W        W16004  42.358  41.315  14.955
56744W        W16005  17.165   2.796  14.398
56745W        W16006  20.553  12.116   2.191
56746W        W16007  27.506   1.268   1.244
56747W        W16008  40.880  20.692   2.301
56748W        W16009  22.515  42.794   4.712
56749W        W16010  11.777   6.700   4.650
56750W        W16011  19.063  27.675   1.392
56751W        W16012  34.389  19.587  14.781
56752W        W16013   1.474  10.380   4.828
56753W        W16014  22.609   1.772  14.355
56754W        W16015  42.286  18.187   4.329
56755W        W16016  38.466  26.641  10.092
56756W        W16017   4.393  36.515  13.901
56757W        W16018  37.422  43.512   3.362
56758W        W16019  33.071  38.552   1.907
56759W        W16020  12.126  14.142   2.203
56760W        W16021  29.549   3.349   2.313
56761W        W16022  40.412   1.972  10.995
56762W        W16023  30.483   6.923   4.689
56763W        W16024  33.625  32.886   0.949
56764W        W16025  21.018  43.796  12.513
56765W        W16026  16.789   2.449   4.721
56766W        W16027  19.751  34.593  10.437
56767W        W16028  41.028  23.558  13.945
56768W        W16029  13.611  41.524  11.394
56769W        W16030  32.902  20.592   1.325
56770W        W16031  40.363  38.482   1.849
56771W        W16032  29.034  30.612  13.839
56772W        W16033  40.815  21.525  13.445
56773W        W16034  20.589  44.776   2.801
56774W        W16035  16.274  43.828  14.901
56775W        W16036  19.113  26.500   2.281
56776W        W16037  29.108   2.966  10.563
56777W        W16038  25.577  12.297   0.288
56778W        W16039  31.535  22.565  12.881
56779W        W16040  23.029  39.545  13.366
56780W        W16041  38.565   9.259   4.761
56781W        W16042  28.107  22.221   1.713
56782W        W16043  12.274  38.538   2.857
56783W        W16044  40.469  33.093   5.090
56784W        W16045   9.383  37.399  12.458
56785W        W16046  28.104  28.991  12.913
56786W        W16047  24.659   4.329   1.884
56787W        W16048   2.921  26.960  14.294
56788W        W16049   3.422  42.973  14.412
56789W        W16050  10.150  37.884   2.886
56790W        W16051   1.284  20.261   2.322
56791W        W16052  33.075  10.860  14.455
56792W        W16053   8.297  43.296  12.868
56793W        W16054  22.179  27.183   2.397
56794W        W16055   2.248  13.836   4.321
56795W        W16056  21.069  39.945   4.241
56796W        W16057  15.759   2.965   3.156
56797W        W16058  26.190  38.347   2.382
56798W        W16059   7.285  30.082  12.071
56799W        W16060   7.840   7.255   3.791
56800W        W16061  29.531  22.553  12.828
56801W        W16062   8.258  17.189   3.807
56802W        W16063  12.660  43.414   2.759
56803W        W16064  16.249  37.897   2.307
56804W        W16065  36.991  10.270  14.479
56805W        W16066  13.335   7.180   3.334
56806W        W16067  11.229  32.419  11.426
56807W        W16068  31.627  12.710  11.388
56808W        W16069  29.526  35.402   0.303
56809W        W16070   3.234  23.019  12.072
56810W        W16071  30.020  35.521   1.286
56811W        W16072  18.552  22.083   2.798
56812W        W16073  21.158   4.767  11.465
56813W        W16074  43.301   2.282  14.003
56814W        W16075  34.555  21.085   3.348
56815W        W16076  17.614  28.507  13.941
56816W        W16077  14.112  18.117   2.367
56817W        W16078  11.188  43.307  10.996
56818W        W16079  19.178  32.565   0.374
56819W        W16080  34.529  10.861  10.435
56820W        W16081   3.799  42.492   2.875
56821W        W16082  14.713  38.502   4.803
56822W        W16083   2.423  35.562  14.791
56823W        W16084   2.947   1.323   1.756
56824W        W16085  34.391  42.506  12.350
56825W        W16086  44.479   2.258   3.743
56826W        W16087  18.282  22.621  14.763
56827W        W16088  36.445   1.936  13.391
56828W        W16089  35.033  43.899  12.566
56829W        W16090  12.749  12.695   3.295
56830W        W16091  37.469  30.080   2.835
56831W        W16092   9.274  32.091  11.555
56832W        W16093  11.625  30.096  14.933
56833W        W16094  32.961  35.927  13.818
56834W        W16095   0.282  11.366   4.834
56835W        W16096  27.483  42.430   1.876
56836W        W16097  16.124  21.539  14.342
56837W        W16098  43.940  29.505  13.491
56838W        W16099   8.666   7.712  13.334
56839W        W16100  23.190  43.313   2.667
56840W        W16101  44.923  18.776   2.404
56841W        W16102  29.567   7.288  12.521
56842W        W16103  17.180  24.983  11.965
56843W        W16104   5.725  12.295   0.325
56844W        W16105  33.010  10.297  12.880
56845W        W16106  22.182  23.079   4.130
56846W        W16107  24.637  26.014   1.779
56847W        W16108  21.621   8.745  12.860
56848W        W16109  19.268  39.054  14.022
56849W        W16110  23.013  21.589   0.311
56850W        W16111  16.292   8.710  14.325
56851W        W16112  16.794  22.134  13.354
56852W        W16113  19.773  18.688  11.972
56853W        W16114  15.816  12.158  12.561
56854W        W16115  16.637  13.321  11.429
56855W        W16116  28.634  13.661  14.463
56856W        W16117   4.443   8.697  12.926
56857W        W16118   8.384  29.948  13.367
56858W        W16119  17.087  28.575   9.467
56859W        W16120  38.833  32.454  12.855
56860W        W16121  41.537  40.466  11.865
56861W        W16122   2.951   5.341   0.292
56862W        W16123  35.444  11.789   4.735
56863W        W16124  24.493  35.394   0.405
56864W        W16125  12.786  24.627  13.987
56865W        W16126  44.938  17.142   4.744
56866W        W16127  24.617  20.040   3.728
56867W        W16128  20.092   0.986  14.448
56868W        W16129  14.638  30.032   2.760
56869W        W16130  37.557   6.379  12.506
56870W        W16131  29.576  42.421  13.901
56871W        W16132  12.685  19.735   0.324
56872W        W16133  28.528  11.621  14.785
56873W        W16134  37.975  12.680  13.917
56874W        W16135   5.207  33.558   3.803
56875W        W16136  17.787   0.773  11.091
56876W        W16137  44.764  28.590   2.214
56877W        W16138  10.190  41.507  11.422
56878W        W16139  17.557   2.893  11.083
56879W        W16140  35.024  10.818   2.824
56880W        W16141  30.056   0.251  14.986
56881W        W16142  41.899   9.261   3.264
56882W        W16143  39.328  18.061   5.721
56883W        W16144  10.317  20.165  12.555
56884W        W16145  14.289  38.876   0.742
56885W        W16146  28.165  35.875   2.317
56886W        W16147  37.495   5.781  14.286
56887W        W16148  24.088  17.302   0.442
56888W        W16149  25.530  40.431  10.581
56889W        W16150  33.534  11.690  13.053
56890W        W16151  31.630  44.930  14.015
56891W        W16152  32.093  28.644   4.227
56892W        W16153   1.976  33.419   1.408
56893W        W16154   0.914  41.002   0.315
56894W        W16155  15.274  29.142  12.048
56895W        W16156  31.991  42.987   2.767
56896W        W16157  23.588  16.270   1.420
56897W        W16158  20.245   9.249   3.732
56898W        W16159  28.493  21.680   0.764
56899W        W16160  13.107  16.735   2.328
56900W        W16161   9.824   3.739  14.795
56901W        W16162  24.988  28.529  12.938
56902W        W16163  29.513  39.059  12.410
56903W        W16164   0.349  36.986   0.910
56904W        W16165  17.188  20.549   0.300
56905W        W16166  38.979  35.419   5.612
56906W        W16167   1.953  28.612  12.087
56907W        W16168   6.695  18.274  14.825
56908W        W16169  10.748  18.697   0.251
56909W        W16170  44.010  30.058  11.078
56910W        W16171   4.795   0.426  11.403
56911W        W16172  38.512  23.228   0.858
56912W        W16173  33.540  31.950  10.017
56913W        W16174  43.922  44.264   4.278
56914W        W16175   0.446   9.383  14.327
56915W        W16176   8.176  25.587   1.394
56916W        W16177   6.676   5.381   1.256
56917W        W16178  40.045  15.664  14.348
56918W        W16179  25.210  39.810  13.814
56919W        W16180   8.780  35.893   0.393
56920W        W16181  13.190  26.021   3.779
56921W        W16182  23.131   0.439  14.494
56922W        W16183  10.699  37.578  11.377
56923W        W16184  42.021   1.396   3.229
56924W        W16185  26.990   9.805   2.756
56925W        W16186   0.248  32.031   3.382
56926W        W16187  35.373  16.280   1.749
56927W        W16188  30.642  20.274   3.300
56928W        W16189  12.848   9.250  14.336
56929W        W16190   0.924   5.886  11.965
56930W        W16191   9.263  14.732   3.315
56931W        W16192  24.694  16.276  11.555
56932W        W16193  43.826  16.610   2.274
56933W        W16194  38.565   8.319  10.551
56934W        W16195  19.285   4.229   2.373
56935W        W16196  41.962   4.210   2.778
56936W        W16197  26.494  34.561  13.388
56937W        W16198  36.449   4.765  12.832
56938W        W16199  22.682  17.176   0.250
56939W        W16200  29.429  38.539   0.778
56940W        W16201  27.121   5.698  13.013
56941W        W16202  10.776   3.310   2.256
56942W        W16203  26.484  38.462   3.703
56943W        W16204  33.585   1.791   0.879
56944W        W16205  29.002  16.582  13.395
56945W        W16206  18.233   6.257  13.993
56946W        W16207  34.589  43.963  12.396
56947W        W16208  43.782   8.188  10.424
56948W        W16209  29.492  20.142  14.913
56949W        W16210  24.662  32.079   0.763
56950W        W16211   9.819  34.603  12.384
56951W        W16212  16.597  38.939   2.762
56952W        W16213  44.811  30.466  10.474
56953W        W16214  17.687  14.331   1.756
56954W        W16215  14.758   3.446  13.364
56955W        W16216  14.119   7.228   1.339
56956W        W16217  19.765  29.471   5.166
56957W        W16218  18.134  34.583  13.344
56958W        W16219  44.902  18.107   0.413
56959W        W16220  37.078  15.301   0.825
56960W        W16221   1.942  43.978  11.514
56961W        W16222  39.336  15.604  12.898
56962W        W16223  40.543  37.453   2.698
56963W        W16224  42.341  25.594  13.061
56964W        W16225   4.812  14.774   1.281
56965W        W16226  14.788   8.329  13.923
56966W        W16227  29.992  14.757  13.797
56967W        W16228  12.160  15.195  10.975
56968W        W16229   6.922   3.856   3.294
56969W        W16230   2.372  12.737   0.357
56970W        W16231   8.243  12.726   2.251
56971W        W16232  25.478  27.126  10.562
56972W        W16233  29.133  27.963   0.286
56973W        W16234  37.378  29.559   3.643
56974W        W16235  35.011  17.245  10.144
56975W        W16236  20.266   9.741   3.870
56976W        W16237  13.331  16.161  11.959
56977W        W16238  37.354   1.961  13.892
56978W        W16239  26.206   1.977  14.026
56979W        W16240  21.074   1.351  11.967
56980W        W16241  34.477   0.465   4.295
56981W        W16242  43.887  23.204  11.892
56982W        W16243  34.082   2.732  14.326
56983W        W16244  39.327  24.055   3.308
56984W        W16245   2.322  38.431   2.714
56985W        W16246   0.422   3.935  12.032
56986W        W16247  25.108  23.682   2.193
56987W        W16248  34.577  21.054   1.864
56988W        W16249  20.524  31.562  13.454
56989W        W16250  17.068  33.429  13.829
56990W        W16251   7.176  22.018   4.612
56991W        W16252  30.912   1.791   0.749
56992W        W16253  26.967   6.264   1.225
56993W        W16254  10.665  16.073   0.802
56994W        W16255  39.889   3.374  12.379
56995W        W16256  26.628  25.982   3.241
56996W        W16257  34.874  43.437  13.362
56997W        W16258   5.299  38.499   4.166
56998W        W16259  20.693  35.912   0.884
56999W        W16260  31.471  34.103  11.575
57000W        W16261  11.701   8.777  13.499
57001W        W16262  29.977   9.374  13.544
57002W        W16263  20.143  32.441   2.396
57003W        W16264  25.671  20.031   3.377
57004W        W16265  17.752  21.521  13.342
57005W        W16266  34.919  13.614   3.756
57006W        W16267  39.815   4.206   3.692
57007W        W16268  14.639   1.909   1.834
57008W        W16269  13.814  25.073  14.886
57009W        W16270  36.527  13.671   4.300
57010W        W16271   6.320  15.686  12.824
57011W        W16272  42.972  22.646  10.447
57012W        W16273  20.105  19.091   1.442
57013W        W16274  29.146  17.699   1.703
57014W        W16275  25.485   0.328  11.413
57015W        W16276   3.886   3.455  13.396
57016W        W16277  22.611  23.522  11.091
57017W        W16278  43.017  23.168   0.947
57018W        W16279   2.726  26.055  10.489
57019W        W16280  39.492  36.579  11.568
57020W        W16281  28.548  26.977  12.874
57021W        W16282  23.535  18.760   1.785
57022W        W16283  17.571   9.825  10.989
57023W        W16284  38.045   8.400  12.974
57024W        W16285  31.469  40.398   2.835
57025W        W16286  33.908  16.593  13.506
57026W        W16287  22.674  29.985  11.086
57027W        W16288  17.122  18.197   1.286
57028W        W16289   8.656  21.717  12.087
57029W        W16290  40.988  13.220  11.935
57030W        W16291  41.786  20.124   0.437
57031W        W16292  37.920  40.392  12.040
57032W        W16293  44.834  15.215  11.442
57033W        W16294  12.186  29.582   4.272
57034W        W16295  42.319  43.317   0.332
57035W        W16296   1.406  12.157   0.318
57036W        W16297  35.939  24.001  13.312
57037W        W16298  19.706  39.503  14.851
57038W        W16299  21.731  27.003  11.471
57039W        W16300  44.501  25.698   3.871
57040W        W16301  21.043  31.999  14.023
57041W        W16302  22.997   3.899   3.671
57042W        W16303  39.413  10.306  10.892
57043W        W16304  31.604   0.484   4.837
57044W        W16305  31.617  42.327  14.797
57045W        W16306  39.383  40.832   1.741
57046W        W16307  15.815  38.478   2.401
57047W        W16308  16.580  37.965   0.313
57048W        W16309  26.958  41.490   0.482
57049W        W16310  11.295  39.850   1.832
57050W        W16311  14.242  18.727   2.406
57051W        W16312  19.075  26.591   3.254
57052W        W16313  22.212  16.236   2.838
57053W        W16314   0.370  12.165   2.737
57054W        W16315  33.979  28.642   4.340
57055W        W16316  28.981   0.457   0.854
57056W        W16317   7.301  35.357   2.826
57057W        W16318  15.614  44.378   0.857
57058W        W16319  19.605  11.371  12.403
57059W        W16320  12.303  35.005   4.650
57060W        W16321  24.004  29.630  12.356
57061W        W16322  43.977   6.739  10.911
57062W        W16323  43.471  37.537  13.010
57063W        W16324  39.341  44.782   3.838
57064W        W16325  38.955  10.326  14.827
57065W        W16326  41.925  24.003  14.762
57066W        W16327   9.311  18.574  13.323
57067W        W16328  38.943  16.772   1.718
57068W        W16329  12.806   9.726   3.724
57069W        W16330  43.468  28.479   4.726
57070W        W16331  41.414  22.614  10.977
57071W        W16332  26.053  22.068   0.741
57072W        W16333  24.161  17.723  10.613
57073W        W16334  14.114  23.728   0.302
57074W        W16335  31.900  21.257  13.894
57075W        W16336   5.401   0.264   3.218
57076W        W16337  37.896  41.789   1.250
57077W        W16338  37.341   6.719  12.520
57078W        W16339  19.738  41.483  12.063
57079W        W16340  31.906   5.885   3.759
57080W        W16341  19.591  12.650   4.609
57081W        W16342  16.236  21.636  13.489
57082W        W16343  36.861   3.292   3.329
57083W        W16344  10.158  17.800  14.487
57084W        W16345  44.910  34.058  14.488
57085W        W16346   7.839   5.817   1.933
57086W        W16347  16.072  20.239   4.123
57087W        W16348   2.324   9.703   1.339
57088W        W16349  23.639  37.571   4.682
57089W        W16350  31.415   3.867   2.782
57090W        W16351  27.000   0.251   5.105
57091W        W16352  18.675  10.734   1.825
57092W        W16353   7.272  27.959   2.686
57093W        W16354  23.208  25.177  14.893
57094W        W16355  32.027   8.665  13.918
57095W        W16356  42.820  36.530   3.243
57096W        W16357  35.999   9.882   2.682
57097W        W16358   5.318  24.125  14.893
57098W        W16359   1.732  25.095   2.896
57099W        W16360   3.849  24.545  12.477
57100W        W16361  18.198  23.232  13.996
57101W        W16362   2.242  30.039   4.239
57102W        W16363  22.607  33.511  12.443
57103W        W16364  11.820  17.139  10.054
57104W        W16365  19.575  36.492   1.775
57105W        W16366  38.383  43.424   0.316
57106W        W16367   8.374   4.785   2.391
57107W        W16368  28.047   7.356  10.085
57108W        W16369  25.553  26.150  13.890
57109W        W16370  30.647  16.709   3.240
57110W        W16371  32.453   1.314   4.683
57111W        W16372  38.934  21.735   0.354
57112W        W16373  26.533  12.345   4.654
57113W        W16374  29.987  17.698  13.308
57114W        W16375  36.415   6.922  12.479
57115W        W16376   0.894   8.674   3.828
57116W        W16377  22.160   8.342   2.389
57117W        W16378  24.554   4.888  14.883
57118W        W16379  10.341  25.512   4.698
57119W        W16380  23.654  35.095   4.837
57120W        W16381  28.672  38.075  10.442
57121W        W16382  11.290   4.267  10.938
57122W        W16383  19.768  33.957  13.873
57123W        W16384  17.745   8.803  12.346
57124W        W16385   3.761   8.349  13.393
57125W        W16386  19.736  17.237   1.344
57126W        W16387  44.802  40.370  10.511
57127W        W16388  15.249  34.047   2.408
57128W        W16389  16.214  10.275  12.017
57129W        W16390   6.676  23.674   2.284
57130W        W16391   4.823   9.228  11.102
57131W        W16392   6.348   7.731   0.269
57132W        W16393  40.836  10.685   4.601
57133W        W16394  44.364  14.160  11.024
57134W        W16395  12.170   4.762  13.500
57135W        W16396   5.413  22.661  10.453
57136W        W16397  11.755  39.862  13.862
57137W        W16398  18.613  42.343  12.885
57138W        W16399   1.295  30.130   2.237
57139W        W16400  35.543  23.234  12.422
57140W        W16401  26.133  26.056   1.278
57141W        W16402  39.392  34.430  10.451
57142W        W16403  39.860  14.788   4.250
57143W        W16404  37.072   4.705   1.397
57144W        W16405  19.149  27.104  13.318
57145W        W16406  32.953  28.574  13.013
57146W        W16407  42.900  10.296  13.061
57147W        W16408  11.730  21.181  10.936
57148W        W16409  19.580   6.919   3.759
57149W        W16410  24.595  41.411   2.716
57150W        W16411  29.461  36.396  11.532
57151W        W16412  38.551  20.160  11.384
57152W        W16413  25.517  10.257   3.353
57153W        W16414   4.222  15.092  11.490
57154W        W16415  14.301   2.303   4.643
57155W        W16416   3.366  22.591  14.021
57156W        W16417  24.493  16.794   4.694
57157W        W16418  43.289   5.272  13.327
57158W        W16419  35.377  29.927  12.555
57159W        W16420  34.100  29.549   0.297
57160W        W16421  15.735  15.278   3.265
57161W        W16422  13.791  16.259   4.668
57162W        W16423  22.234  16.283   3.753
57163W        W16424  20.671   8.761  13.477
57164W        W16425  27.155  30.141  11.992
57165W        W16426  37.426  10.216   4.690
57166W        W16427  42.407  13.629   2.414
57167W        W16428  40.805  32.128  10.922
57168W        W16429  22.615  16.164  14.983
57169W        W16430   9.275  21.089   3.148
57170W        W16431  30.020  28.179   2.322
57171W        W16432  37.572  17.184  12.481
57172W        W16433  31.122  26.178  13.873
57173W        W16434  14.790  11.155  13.480
57174W        W16435   2.229  18.098   0.394
57175W        W16436  28.144   2.398   5.620
57176W        W16437  14.742   1.273  12.423
57177W        W16438  29.627  14.151   2.408
57178W        W16439  13.623  16.270   4.298
57179W        W16440  14.602  37.475   3.281
57180W        W16441  38.057  16.187   2.806
57181W        W16442  20.540  21.576   1.217
57182W        W16443  12.125  27.020  14.292
57183W        W16444   1.297   1.317   3.279
57184W        W16445   8.318  43.390  11.885
57185W        W16446  42.020  12.287   0.327
57186W        W16447  19.181   6.901   2.231
57187W        W16448   4.289  28.106  12.347
57188W        W16449  25.080   7.687   4.729
57189W        W16450  44.877  30.019  14.976
57190W        W16451  35.490  43.382  10.505
57191W        W16452  12.193  13.131   3.260
57192W        W16453  42.414  31.423   3.800
57193W        W16454  18.595  43.974  13.907
57194W        W16455   3.927  10.856   4.725
57195W        W16456  44.905  11.316  11.576
57196W        W16457  25.538   1.358  13.337
57197W        W16458   7.175  12.631  10.608
57198W        W16459   8.404   4.279  13.955
57199W        W16460  13.296   1.940   4.137
57200W        W16461   0.904   8.253  14.962
57201W        W16462  33.588  32.076  10.925
57202W        W16463  38.997  10.268   1.853
57203W        W16464  18.154   2.911   4.271
57204W        W16465  42.993  22.636   3.252
57205W        W16466   3.871  13.627  12.523
57206W        W16467  35.558   9.807   0.258
57207W        W16468  25.134  22.610  12.962
57208W        W16469  40.304  32.125   2.845
57209W        W16470  35.942  29.498   0.950
57210W        W16471  23.069  14.700   3.700
57211W        W16472   4.366  35.457   2.722
57212W        W16473   3.254   9.666  14.761
57213W        W16474   9.862  43.362   3.740
57214W        W16475  37.960  36.962   3.860
57215W        W16476   6.342  38.056  11.899
57216W        W16477  29.497  14.226  11.084
57217W        W16478  14.715  44.794  12.860
57218W        W16479   7.192  37.973  13.533
57219W        W16480   5.330  13.149  13.328
57220W        W16481  11.712  31.928  12.957
57221W        W16482   8.864  15.601   5.275
57222W        W16483  26.182  34.877  11.541
57223W        W16484  21.061  13.192  14.360
57224W        W16485  38.402  44.893   4.146
57225W        W16486  23.545  20.744  10.432
57226W        W16487  36.558  37.439   5.091
57227W        W16488  40.411   9.341   1.369
57228W        W16489  14.594  43.386  12.497
57229W        W16490  40.486  40.044   1.219
57230W        W16491  40.033  34.958   1.746
57231W        W16492  42.834  38.841   2.388
57232W        W16493  21.224  17.775   3.245
57233W        W16494  23.713   4.375   2.310
57234W        W16495  19.252  30.546   2.298
57235W        W16496  38.520  15.096  11.122
57236W        W16497  27.991  18.135   4.292
57237W        W16498  23.084  25.010   3.320
57238W        W16499  43.858  10.825  13.853
57239W        W16500  29.977   9.808   1.334
57240W        W16501  14.631   2.426   1.792
57241W        W16502   1.859  14.161  12.401
57242W        W16503   4.905  34.553  12.899
57243W        W16504   5.207  21.665  11.030
57244W        W16505  30.098  23.995  14.373
57245W        W16506   6.796  10.370  11.877
57246W        W16507  23.568  13.185  12.085
57247W        W16508  42.412   3.774  11.477
57248W        W16509  25.690  30.477  12.896
57249W        W16510  27.969  17.715  14.470
57250W        W16511  18.721  35.075   4.272
57251W        W16512  39.962  20.252  13.328
57252W        W16513  22.245   0.418   0.457
57253W        W16514  36.077  19.199   2.408
57254W        W16515  26.556  18.081  13.911
57255W        W16516  27.990  29.507   4.712
57256W        W16517   5.219  26.599  10.942
57257W        W16518  34.370   4.234  11.065
57258W        W16519  15.281  29.646  12.832
57259W        W16520  34.011  44.479   1.725
57260W        W16521  18.631  44.840  10.979
57261W        W16522  15.127   9.337   1.450
57262W        W16523  14.612  33.903  11.977
57263W        W16524   9.223  19.674   1.343
57264W        W16525  37.419  23.494  14.906
57265W        W16526  32.929  30.963  12.896
57266W        W16527   0.284  11.803  11.930
57267W        W16528  35.887  32.585  12.951
57268W        W16529  31.089  44.968  12.858
57269W        W16530  20.215  43.843   2.327
57270W        W16531  27.564  23.680  10.590
57271W        W16532  29.607  29.093   5.101
57272W        W16533  40.321   3.309   4.180
57273W        W16534  35.454  25.045  11.472
57274W        W16535   3.304  37.917  11.443
57275W        W16536  38.825  20.736   2.807
57276W        W16537  19.100   3.714  11.570
57277W        W16538  40.882  18.692   1.447
57278W        W16539   9.760  19.095  11.514
57279W        W16540  27.488  22.032  10.486
57280W        W16541  14.228  33.052  14.989
57281W        W16542  18.128  14.710   4.323
57282W        W16543  15.149  20.567  12.545
57283W        W16544  37.009  40.303   2.691
57284W        W16545  10.234  42.522  14.359
57285W        W16546   0.403   3.754  13.333
57286W        W16547  35.990  32.443   2.189
57287W        W16548   1.936   2.412   2.203
57288W        W16549  12.204   4.701   3.315
57289W        W16550  36.363  34.114   3.157
57290W        W16551  16.583  32.132  13.921
57291W        W16552   2.271  10.167   3.741
57292W        W16553  33.002  35.581   0.380
57293W        W16554  32.471  44.308  10.120
57294W        W16555   4.805  16.176  14.346
57295W        W16556   3.331  31.012   1.898
57296W        W16557  44.287   9.776   1.366
57297W        W16558  24.647  41.936  14.910
57298W        W16559   9.385  17.730   0.799
57299W        W16560   4.405  24.650   2.332
57300W        W16561   9.876  17.065   1.733
57301W        W16562  12.842  29.634  14.309
57302W        W16563  12.648  37.895  11.486
57303W        W16564  15.221   3.415   4.826
57304W        W16565  22.137  36.945   1.307
57305W        W16566   7.894   3.790  12.967
57306W        W16567  29.651  30.575   2.805
57307W        W16568  29.929  17.664   2.349
57308W        W16569   3.399  35.943  12.390
57309W        W16570  42.779  36.435   4.793
57310W        W16571  23.143  25.583   2.884
57311W        W16572  38.526  37.552   2.229
57312W        W16573  26.548   6.244   4.780
57313W        W16574  19.615  10.352   4.754
57314W        W16575   8.375   9.322   3.377
57315W        W16576  16.125  22.626  11.393
57316W        W16577  27.658  16.777   2.738
57317W        W16578   7.217  38.349  14.459
57318W        W16579  36.934  40.865  12.993
57319W        W16580  18.077  20.096  13.812
57320W        W16581  15.818  37.348  11.074
57321W        W16582  25.687  42.289  13.448
57322W        W16583  11.289   2.871   1.694
57323W        W16584  30.585  37.445   0.945
57324W        W16585   9.686  37.506   2.345
57325W        W16586   9.354  11.150   4.301
57326W        W16587   2.906  23.733  10.457
57327W        W16588  19.232  11.858   2.787
57328W        W16589   9.773  39.350  12.966
57329W        W16590   7.414  27.104   2.189
57330W        W16591  40.348  11.775  14.828
57331W        W16592  32.405  41.401  13.810
57332W        W16593  24.016  39.337  14.853
57333W        W16594  13.172  26.186  14.352
57334W        W16595  27.046   0.358  11.419
57335W        W16596  15.673   3.764  14.018
57336W        W16597  35.602  30.091  13.513
57337W        W16598  37.476  15.590  12.074
57338W        W16599   1.865  11.284  14.861
57339W        W16600  32.483   3.905  14.415
57340W        W16601   1.901  35.550  10.933
57341W        W16602  20.105   7.291   4.292
57342W        W16603  11.707  31.947  10.644
57343W        W16604  22.539  37.512   1.432
57344W        W16605   4.718  42.469  10.053
57345W        W16606  32.413  16.076   4.302
57346W        W16607  12.746  16.610  14.331
57347W        W16608   5.241  21.532  12.922
57348W        W16609   6.860   8.751   2.795
57349W        W16610  15.705   5.912  13.375
57350W        W16611  18.102  34.905  13.808
57351W        W16612   1.800  40.026  12.056
57352W        W16613   1.335  23.497  13.464
57353W        W16614  21.757   1.859   3.364
57354W        W16615  37.903   2.846   0.764
57355W        W16616  16.742  23.597   0.763
57356W        W16617  19.127   3.328  13.417
57357W        W16618  41.400  23.144  11.548
57358W        W16619  29.079  22.553   1.303
57359W        W16620  32.051  33.911  11.979
57360W        W16621  28.023  19.709   4.814
57361W        W16622  35.522  39.410  13.865
57362W        W16623  29.485  22.631   3.193
57363W        W16624  43.445  29.475  13.433
57364W        W16625  11.214  31.447  13.905
57365W        W16626   0.427  12.148   0.885
57366W        W16627  37.917  22.581  12.026
57367W        W16628  35.381  36.033   3.256
57368W        W16629  34.555  28.107   2.207
57369W        W16630  37.905  28.984  11.556
57370W        W16631   7.811  29.031   2.184
57371W        W16632   0.314  33.595   1.380
57372W        W16633  44.823  38.407  14.977
57373W        W16634   3.722  26.020   0.900
57374W        W16635  30.147   7.678  14.344
57375W        W16636   2.259  30.016  11.013
57376W        W16637   1.812  44.351  11.017
57377W        W16638  34.913  19.609   4.704
57378W        W16639  15.707  26.661  11.069
57379W        W16640  13.176  38.407  13.358
57380W        W16641  38.880  24.563   9.977
57381W        W16642  28.048  31.608   2.865
57382W        W16643  31.581  21.175   1.283
57383W        W16644  10.713  10.325   1.375
57384W        W16645  23.156  21.589  13.391
57385W        W16646  21.048  21.174   2.704
57386W        W16647  34.941  11.830  13.546
57387W        W16648  42.849  23.209   0.474
57388W        W16649   3.939   1.469  13.064
57389W        W16650  32.537   2.794  13.826
57390W        W16651  38.342  41.291   1.774
57391W        W16652  38.049  12.635   3.148
57392W        W16653   7.187  20.220  11.119
57393W        W16654  18.136  17.092   1.721
57394W        W16655  38.957  19.223   4.729
57395W        W16656  10.157  30.500  14.391
57396W        W16657  11.679  11.630  14.382
57397W        W16658   4.450  19.596  10.430
57398W        W16659   0.348  27.599  14.949
57399W        W16660  16.782  44.479   1.393
57400W        W16661   9.195  16.135  14.438
57401W        W16662  14.267  37.526   1.326
57402W        W16663  20.140   7.225  10.477
57403W        W16664  26.568  37.986  14.859
57404W        W16665  41.474   3.397   0.729
57405W        W16666  23.652  42.433  12.532
57406W        W16667   1.772  27.042  12.489
57407W        W16668  43.965  42.366   1.235
57408W        W16669  37.893  25.699  14.817
57409W        W16670  21.143  11.209   0.282
57410W        W16671  28.076   4.259  11.118
57411W        W16672  34.076   1.367  11.923
57412W        W16673  11.815  26.955  11.001
57413W        W16674  14.268  43.508   4.236
57414W        W16675   6.809  23.610  14.831
57415W        W16676  38.931  18.716   4.748
57416W        W16677   1.463  40.901  14.828
57417W        W16678  41.318  17.752   2.862
57418W        W16679  15.131  43.878  14.451
57419W        W16680  29.653  34.096  11.464
57420W        W16681  15.149  22.095  14.930
57421W        W16682   3.737  32.495  11.059
57422W        W16683  39.513  41.442   4.766
57423W        W16684  44.488  35.360  11.871
57424W        W16685   8.335   7.794  12.487
57425W        W16686   5.251  23.724  11.102
57426W        W16687  19.741  30.523  13.489
57427W        W16688  40.827  40.425  12.994
57428W        W16689   9.248  37.528   3.702
57429W        W16690  19.572   2.344   2.328
57430W        W16691  30.138   4.430  11.451
57431W        W16692  25.697  31.932  13.488
57432W        W16693   8.796   4.758   2.291
57433W        W16694  12.270  11.193   2.350
57434W        W16695  42.393  44.821  11.452
57435W        W16696  19.200  29.087   3.848
57436W        W16697  13.820   9.779   4.796
57437W        W16698  20.216   8.275  11.905
57438W        W16699  20.633  30.586   2.390
57439W        W16700  16.597  27.178  14.363
57440W        W16701  24.192  40.374  11.980
57441W        W16702  13.264  25.583   4.142
57442W        W16703  41.891  26.136  13.470
57443W        W16704  37.433  42.330  10.505
57444W        W16705  43.960  16.731   0.945
57445W        W16706   0.808  10.665   1.850
57446W        W16707   5.208   0.795   1.234
57447W        W16708  41.948  35.025  13.016
57448W        W16709  19.169  19.260  14.964
57449W        W16710   1.308   1.471  14.918
57450W        W16711  42.866  41.334   4.636
57451W        W16712  36.890  33.460  11.869
57452W        W16713  30.497  23.547   2.898
57453W        W16714   4.803  28.088   1.737
57454W        W16715   1.773  41.337  14.436
57455W        W16716   9.327  13.306   4.695
57456W        W16717  39.856  11.258   0.735
57457W        W16718  39.886  13.649  10.423
57458W        W16719  40.029  36.475   4.790
57459W        W16720   3.814  40.545  11.984
57460W        W16721  15.649  15.309  11.393
57461W        W16722   6.211  16.766   3.630
57462W        W16723   0.836  10.765   4.829
57463W        W16724  37.961  33.422  10.576
57464W        W16725  31.641   9.835   0.793
57465W        W16726  24.521  44.439   2.367
57466W        W16727   8.739  12.738  13.511
57467W        W16728  10.335  27.046  13.046
57468W        W16729   0.429  17.169  14.957
57469W        W16730  28.111  28.097  10.968
57470W        W16731  29.591  13.640  12.360
57471W        W16732  43.328   8.886  13.400
57472W        W16733  44.968  21.018   4.236
57473W        W16734  11.305  36.479  14.512
57474W        W16735   5.214   5.335  14.786
57475W        W16736   4.807  13.694  12.058
57476W        W16737  26.498   5.394  12.006
57477W        W16738   7.202  37.537  14.902
57478W        W16739  40.432  19.100   3.787
57479W        W16740  42.920   3.431  11.095
57480W        W16741  41.961  13.174  14.957
57481W        W16742  40.535  16.198   0.817
57482W        W16743  12.244  40.052   3.838
57483W        W16744  33.098  20.542  12.955
57484W        W16745  26.114  11.774  12.381
57485W        W16746  21.041  12.268  10.969
57486W        W16747  27.969  28.021   4.661
57487W        W16748  41.015  44.471  12.998
57488W        W16749   0.934  18.246  10.543
57489W        W16750  26.460  11.623  13.470
57490W        W16751  14.110  13.600  11.438
57491W        W16752  13.340  11.720  10.479
57492W        W16753  21.542  22.544  13.506
57493W        W16754  27.095   2.318   0.779
57494W        W16755   6.849   4.368   2.196
57495W        W16756   5.830  10.255   1.263
57496W        W16757   2.362  12.654  10.903
57497W        W16758  10.713   5.906  14.887
57498W        W16759  43.922  29.073   1.442
57499W        W16760  42.396   5.790   0.756
57500W        W16761  40.409  44.908  13.887
57501W        W16762  14.250  32.001  14.891
57502W        W16763  39.324  12.210   0.769
57503W        W16764  19.149  20.612  12.353
57504W        W16765   6.874  41.884  14.016
57505W        W16766  33.533  33.579   2.325
57506W        W16767  17.701  27.077   1.875
57507W        W16768  41.880  17.654  13.913
57508W        W16769   7.408   3.842  12.006
57509W        W16770  41.904   1.453  12.962
57510W        W16771   7.346  14.777   0.799
57511W        W16772  42.473  12.647   0.277
57512W        W16773  28.605  39.893  11.606
57513W        W16774   7.857  25.128  14.370
57514W        W16775  10.367   6.257  11.606
57515W        W16776   4.805  27.502   4.273
57516W        W16777  12.644  17.096   3.281
57517W        W16778  39.364  35.533  12.909
57518W        W16779   0.944  12.835  11.573
57519W        W16780  31.930  41.351   1.238
57520W        W16781  42.517  15.672   0.803
57521W        W16782  23.215  37.033  11.924
57522W        W16783   8.799   6.252   2.859
57523W        W16784  29.539  22.514  11.521
57524W        W16785  12.835  44.421  11.978
57525W        W16786  31.000  17.242  14.898
57526W        W16787  17.772  44.839   0.445
57527W        W16788  24.210  26.512   4.710
57528W        W16789  24.517  29.617   4.643
57529W        W16790   7.687  26.701  10.021
57530W        W16791  18.277  28.506  11.484
57531W        W16792  41.431  20.103  10.407
57532W        W16793  11.628  40.465   1.352
57533W        W16794  39.481  22.057  11.098
57534W        W16795  32.994  26.637  14.338
57535W        W16796  20.764  16.611   1.900
57536W        W16797  24.046  31.980  12.579
57537W        W16798  40.028  28.589   1.260
57538W        W16799   3.723  34.943   1.449
57539W        W16800   0.978  27.090  12.392
57540W        W16801  16.669  14.804  14.793
57541W        W16802  36.985  19.097  11.015
57542W        W16803   0.469  13.187   4.271
57543W        W16804   4.699  24.491  10.498
57544W        W16805  11.176   1.396   1.765
57545W        W16806  22.096  24.092  13.352
57546W        W16807   5.735  33.564   4.223
57547W        W16808  22.061  43.367  12.053
57548W        W16809  15.706   0.915   2.278
57549W        W16810   8.850   8.392  14.852
57550W        W16811  13.668  12.174   3.236
57551W        W16812  39.814  18.734  14.506
57552W        W16813   6.182  27.691   4.171
57553W        W16814  40.012  20.052   3.798
57554W        W16815  20.127  31.440   3.696
57555W        W16816  21.197  37.947  12.914
57556W        W16817  12.137  23.609   1.730
57557W        W16818  30.036  24.170   3.378
57558W        W16819  38.920   4.834  10.959
57559W        W16820  29.048  43.841   3.272
57560W        W16821  16.315  40.948  12.405
57561W        W16822   4.277  38.375  13.502
57562W        W16823  35.099  32.540  11.600
57563W        W16824  12.646  42.352   2.182
57564W        W16825  28.456  17.178   3.803
57565W        W16826  12.356  16.227  14.325
57566W        W16827  19.667  15.691  14.489
57567W        W16828  38.070  38.989  12.874
57568W        W16829  13.267   2.722  14.807
57569W        W16830  38.550  40.535  13.542
57570W        W16831  38.920  13.128   3.290
57571W        W16832  23.104   9.824  13.854
57572W        W16833  33.972  29.526   1.851
57573W        W16834   6.916   0.447  13.380
57574W        W16835  18.690  18.124  11.930
57575W        W16836  43.447  23.059  12.487
57576W        W16837  18.561   3.269   3.808
57577W        W16838  16.738   4.716   4.296
57578W        W16839  13.332  20.048   0.808
57579W        W16840  33.465  30.980   3.720
57580W        W16841  17.632  32.628   3.640
57581W        W16842  39.345  12.849  11.546
57582W        W16843  19.589   9.391  13.000
57583W        W16844  44.375  17.730  11.978
57584W        W16845  19.096   4.792  13.931
57585W        W16846  15.637  30.655  13.039
57586W        W16847  15.811   9.745  10.444
57587W        W16848  19.682  29.088   4.181
57588W        W16849  40.814  33.381   0.783
57589W        W16850  30.942  19.727  10.498
57590W        W16851  31.437  44.466   1.796
57591W        W16852  12.714  11.806  11.063
57592W        W16853   7.890  11.299  13.822
57593W        W16854   6.904  18.063  13.317
57594W        W16855  26.533   9.319   4.746
57595W        W16856  16.134   1.764  11.457
57596W        W16857   2.922  34.864   1.374
57597W        W16858   6.193  20.623  14.326
57598W        W16859   5.744  23.186  13.818
57599W        W16860   4.911  14.324  10.550
57600W        W16861  15.659   8.248   2.683
57601W        W16862  31.132   6.310   2.709
57602W        W16863  25.163  16.580   0.278
57603W        W16864  43.832   5.325  14.006
57604W        W16865  31.587   4.240  10.429
57605W        W16866  30.562  11.301  10.607
57606W        W16867  19.599   8.241   3.709
57607W        W16868  22.545  44.813   0.469
57608W        W16869   6.309   8.308   1.438
57609W        W16870  41.401  22.049  13.946
57610W        W16871  39.060   6.384  13.331
57611W        W16872   7.341  17.241  11.548
57612W        W16873  34.905  17.201   0.849
57613W        W16874  16.595  17.137  12.954
57614W        W16875  36.430   6.705  13.521
57615W        W16876  14.132  15.212  13.948
57616W        W16877  36.907  44.457   9.993
57617W        W16878  40.877  24.996  14.818
57618W        W16879  16.748   1.953  13.917
57619W        W16880   3.750  38.004   3.319
57620W        W16881  11.214  13.730   3.635
57621W        W16882  16.236  15.602  11.027
57622W        W16883   0.403  39.060  13.502
57623W        W16884  36.410  13.732  10.426
57624W        W16885  37.955  15.680  11.059
57625W        W16886   9.280  18.687  14.484
57626W        W16887  24.668  25.077  14.390
57627W        W16888  36.869  42.466   2.754
57628W        W16889  27.529  16.111   4.333
57629W        W16890   1.331  15.623  10.407
57630W        W16891  42.455  17.581   0.737
57631W        W16892  17.563  32.583  14.008
57632W        W16893   8.187  25.472   0.410
57633W        W16894  13.192  30.919   2.835
57634W        W16895  25.141  30.590  14.321
57635W        W16896   6.219   8.818  12.886
57636W        W16897  23.234  19.538   5.314
57637W        W16898  44.972  30.122  10.525
57638W        W16899  21.189  23.634   4.640
57639W        W16900  16.102  24.116  11.400
57640W        W16901  10.205  11.688  11.406
57641W        W16902  41.416  43.477  12.544
57642W        W16903  38.880  13.143  11.980
57643W        W16904  32.398  34.036  12.367
57644W        W16905  14.620  14.281  11.926
57645W        W16906  40.547  15.162  13.523
57646W        W16907  34.903  21.536   0.282
57647W        W16908  22.049  20.631   3.639
57648W        W16909  33.042   5.367   3.310
57649W        W16910  23.620  15.241   0.790
57650W        W16911  27.650  22.584  12.047
57651W        W16912   0.475  44.389  13.882
57652W        W16913  32.080  32.059  11.458
57653W        W16914  40.484  23.067  10.411
57654W        W16915  30.093  37.459  12.377
57655W        W16916  35.535  28.462   2.361
57656W        W16917   6.691  33.605  13.997
57657W        W16918   2.957   0.746   1.878
57658W        W16919  17.115  36.461   0.401
57659W        W16920   9.238   9.257  10.583
57660W        W16921   2.383  13.740  12.485
57661W        W16922  13.757  14.097   0.748
57662W        W16923   2.815  34.949   3.766
57663W        W16924  35.951   9.314  13.908
57664W        W16925  38.459   0.876  12.062
57665W        W16926  13.205   9.250  13.334
57666W        W16927  44.931  40.886  14.359
57667W        W16928  13.770  24.221   4.789
57668W        W16929  37.974  26.061   3.804
57669W        W16930  11.817  33.059   1.386
57670W        W16931  41.903  19.179   2.321
57671W        W16932   4.257  40.373  14.513
57672W        W16933  15.325  35.562   0.960
57673W        W16934  44.778  38.335   4.344
57674W        W16935  42.319   5.412  10.492
57675W        W16936  38.355  16.266  11.506
57676W        W16937  41.868  12.738  10.027
57677W        W16938  43.291  26.562  12.015
57678W        W16939  38.345   2.946   1.783
57679W        W16940   2.410  39.869  14.309
57680W        W16941  16.618  13.717   2.244
57681W        W16942  41.952  33.570  11.470
57682W        W16943  12.676  42.913  10.982
57683W        W16944   7.391   7.846   3.641
57684W        W16945   8.747  33.925   1.298
57685W        W16946  41.877  35.978   2.213
57686W        W16947  38.536   2.372   3.361
57687W        W16948  23.720   5.384   0.755
57688W        W16949  16.667  39.442   2.198
57689W        W16950  21.223  22.712  10.590
57690W        W16951  29.533   1.323   4.269
57691W        W16952  17.266  40.982  11.913
57692W        W16953  21.206   4.767   3.250
57693W        W16954  11.245  41.847  12.864
57694W        W16955  40.376  15.673   3.709
57695W        W16956   5.302  27.157  12.441
57696W        W16957  41.507   4.926   3.185
57697W        W16958  24.979  23.009  12.568
57698W        W16959  14.805  36.519  10.631
57699W        W16960  39.315  28.669   2.362
57700W        W16961  36.067  17.092  10.518
57701W        W16962  37.074  38.999  14.865
57702W        W16963  16.230  23.008  13.403
57703W        W16964  32.533   6.187   0.923
57704W        W16965  36.912  34.986   4.756
57705W        W16966  21.702  33.483   3.856
57706W        W16967   6.226  28.160  13.344
57707W        W16968   1.289  19.682  11.020
57708W        W16969  27.025  42.930  13.921
57709W        W16970   7.355  14.803   0.425
57710W        W16971  43.991  13.844   2.386
57711W        W16972  12.701  40.904  11.444
57712W        W16973   0.434  13.621  11.404
57713W        W16974  43.015  24.042   4.302
57714W        W16975  22.609   4.235   4.704
57715W        W16976  39.404  44.374  14.511
57716W        W16977  11.208  36.520   4.636
57717W        W16978  11.264  18.752   2.810
57718W        W16979  12.237  15.090   2.733
57719W        W16980  34.429  12.745   1.744
57720W        W16981   7.792  27.989  10.954
57721W        W16982  25.467  19.592   2.800
57722W        W16983   8.246  41.310  13.796
57723W        W16984  21.683  27.169   0.343
57724W        W16985  25.653  38.061  12.909
57725W        W16986  13.259  33.990   0.805
57726W        W16987  33.600  42.355  13.445
57727W        W16988  15.798  35.919   4.674
57728W        W16989   0.305  24.504   2.757
57729W        W16990  43.841   4.716   3.313
57730W        W16991   7.186  42.863   3.675
57731W        W16992  35.865  27.156  14.002
57732W        W16993  13.275   8.382  14.467
57733W        W16994  18.687  12.240  12.913
57734W        W16995  27.067  10.254   2.309
57735W        W16996  20.524  44.453   0.344
57736W        W16997  16.707  42.874   3.776
57737W        W16998  37.864  21.149   4.809
57738W        W16999  36.381   4.744   1.253
57739W        W17000  31.525  29.108   0.281
57740W        W17001  36.447  15.270  12.984
57741W        W17002   0.942  15.110   9.980
57742W        W17003  23.160   2.767   4.294
57743W        W17004  40.527  33.910  13.919
57744W        W17005  12.613  21.757  14.930
57745W        W17006  23.611   0.370  14.911
57746W        W17007  34.871   2.733  14.864
57747W        W17008  11.823  36.426   3.182
57748W        W17009  14.289  30.135   9.991
57749W        W17010   0.785  36.868   4.235
57750W        W17011  35.957  12.254   1.386
57751W        W17012  23.530  33.465   1.872
57752W        W17013  31.523   6.864  11.550
57753W        W17014  37.527   2.467   5.226
57754W        W17015  18.293  16.107   0.419
57755W        W17016  39.543  38.528  12.024
57756W        W17017  28.580  19.100   2.263
57757W        W17018  20.169  19.648  13.388
57758W        W17019  40.407  14.674   4.645
57759W        W17020   6.312  41.850   0.450
57760W        W17021  20.265   2.743   3.328
57761W        W17022  18.754   8.901  14.016
57762W        W17023  34.462   3.386  10.928
57763W        W17024   5.778  38.964   0.393
57764W        W17025  26.123  44.911  13.327
57765W        W17026  31.441  28.536  13.341
57766W        W17027  33.565  38.896   4.214
57767W        W17028  12.149  43.454  11.999
57768W        W17029  35.548   1.855   3.779
57769W        W17030  40.323  23.686   9.941
57770W        W17031  29.619   4.385  14.294
57771W        W17032  25.116  28.101   3.194
57772W        W17033   2.795  22.594   4.650
57773W        W17034  38.827  40.930   4.335
57774W        W17035  44.328  44.429   3.862
57775W        W17036  24.588  27.068  10.468
57776W        W17037  27.094  11.178  13.367
57777W        W17038  14.184   0.971  12.577
57778W        W17039  38.525  25.137   3.237
57779W        W17040   7.284  27.991  14.399
57780W        W17041   6.684  33.611  13.027
57781W        W17042  20.766  23.081   0.776
57782W        W17043  20.733  39.353  12.015
57783W        W17044   9.221  35.076  13.352
57784W        W17045  35.525  34.608  13.968
57785W        W17046  44.857   8.404  11.007
57786W        W17047  11.674   8.340   0.766
57787W        W17048  32.496  13.336  12.868
57788W        W17049  41.873  31.945   4.812
57789W        W17050  42.027  22.157   3.258
57790W        W17051  36.522  38.502  12.516
57791W        W17052  39.386  44.891   1.394
57792W        W17053  41.971  26.006  14.892
57793W        W17054  40.890  24.679   3.303
57794W        W17055  31.014  13.837  11.499
57795W        W17056  16.788  14.326  12.432
57796W        W17057   6.809  13.618   0.962
57797W        W17058  12.287  19.078  12.058
57798W        W17059  35.383  33.912   3.170
57799W        W17060  11.762  40.312  13.810
57800W        W17061  34.512  41.330   0.278
57801W        W17062  28.026   5.310  13.885
57802W        W17063  37.050  14.250  10.606
57803W        W17064  19.238  43.272  13.793
57804W        W17065  13.657  26.691  11.600
57805W        W17066  43.426  23.130  11.966
57806W        W17067  22.518  11.650   2.255
57807W        W17068  19.666   6.732  13.032
57808W        W17069  35.389  36.521  12.430
57809W        W17070  27.949  20.608  14.870
57810W        W17071  23.732  24.549   0.845
57811W        W17072  24.130  12.842  13.945
57812W        W17073  35.055   4.329  10.486
57813W        W17074  11.166  11.733   0.367
57814W        W17075  25.676  22.541  11.567
57815W        W17076  38.516  38.897  12.352
57816W        W17077  39.491  18.074  13.018
57817W        W17078  41.317   2.916  11.011
57818W        W17079  11.807  13.306   2.865
57819W        W17080  38.342  30.559  10.921
57820W        W17081   8.322   6.772   2.323
57821W        W17082  32.919  20.181  12.962
57822W        W17083  34.004  15.190  11.980
57823W        W17084  14.789  19.542  10.065
57824W        W17085  15.712  18.597   2.281
57825W        W17086  19.639  27.648  14.333
57826W        W17087  26.172  41.803   0.303
57827W        W17088  29.919  37.506   3.165
57828W        W17089  10.823   5.734  10.996
57829W        W17090  32.415  31.111   3.318
57830W        W17091  19.064   0.456  14.341
57831W        W17092  26.013  10.368   1.244
57832W        W17093  32.910  13.211  11.959
57833W        W17094  31.639   6.740  14.288
57834W        W17095  42.294  41.524   4.244
57835W        W17096  29.527  37.535   3.748
57836W        W17097  12.360  20.080   0.388
57837W        W17098  44.342   9.188  10.919
57838W        W17099  40.319  23.736   1.247
57839W        W17100  41.400   2.395  11.494
57840W        W17101  14.752   0.951   4.272
57841W        W17102  18.625  10.860   3.185
57842W        W17103  15.138   0.929  11.065
57843W        W17104  27.022  44.930  12.463
57844W        W17105  27.613  23.186  14.800
57845W        W17106  34.005  43.855  14.897
57846W        W17107  23.088  37.461  13.793
57847W        W17108  25.537  28.471  10.934
57848W        W17109  16.307  13.246   4.629
57849W        W17110  40.962  41.879   2.388
57850W        W17111  24.053  23.703  14.012
57851W        W17112   1.300  21.100   2.746
57852W        W17113  43.344  31.134   0.321
57853W        W17114  31.467   7.736   4.129
57854W        W17115  32.555  15.183  14.513
57855W        W17116  32.912  22.628   1.726
57856W        W17117   4.905  41.986   5.228
57857W        W17118  33.110   8.663  12.351
57858W        W17119   4.908  17.692   0.363
57859W        W17120  36.489  35.088  14.479
57860W        W17121  15.100  39.025  13.989
57861W        W17122  15.238  39.005   4.826
57862W        W17123   9.649   1.940  14.941
57863W        W17124  34.543  42.468  12.977
57864W        W17125   4.818  21.118   5.126
57865W        W17126  13.113  39.522   0.889
57866W        W17127  30.610   9.280   4.813
57867W        W17128  14.645  23.685  13.917
57868W        W17129  23.162  23.187  11.021
57869W        W17130  35.371  38.404  11.509
57870W        W17131  38.548  24.153  10.622
57871W        W17132   9.264   6.241  12.379
57872W        W17133  34.879  35.578   3.286
57873W        W17134  15.758  17.108   3.839
57874W        W17135  28.018  22.011   4.215
57875W        W17136  18.277  35.370   4.648
57876W        W17137  29.493   1.327  13.864
57877W        W17138   1.329  25.614   0.270
57878W        W17139   3.873  37.551  13.002
57879W        W17140  16.128  25.091  14.972
57880W        W17141  37.080  19.570   0.965
57881W        W17142  33.625   4.252   1.813
57882W        W17143  25.485  18.218  14.781
57883W        W17144   7.843  41.478   2.310
57884W        W17145  29.452  17.780   4.635
57885W        W17146  43.934  22.661   3.748
57886W        W17147  42.294  32.499  13.981
57887W        W17148  41.461   6.414   1.408
57888W        W17149  25.119  36.000   0.326
57889W        W17150   8.846  43.325  11.949
57890W        W17151  23.235  35.491  14.893
57891W        W17152  15.657  27.027  13.452
57892W        W17153  14.657  44.331   0.846
57893W        W17154   2.939  19.661  12.525
57894W        W17155  35.465  21.109   5.295
57895W        W17156  35.447  38.029   4.709
57896W        W17157  36.030   3.898   0.826
57897W        W17158   7.899  24.561  13.481
57898W        W17159  11.165  19.755  14.815
57899W        W17160  20.238  12.337  10.994
57900W        W17161   2.948  35.384  13.941
57901W        W17162  44.378  32.028  11.128
57902W        W17163  25.964  13.192   4.717
57903W        W17164  33.058   3.254   9.930
57904W        W17165  13.247  22.528  11.559
57905W        W17166  37.485   4.214   2.788
57906W        W17167   2.784   9.800  11.535
57907W        W17168  36.048  33.406  14.438
57908W        W17169  18.751  23.724  11.420
57909W        W17170  30.571  22.727  12.002
57910W        W17171   5.357   0.422   1.291
57911W        W17172   5.732  28.446  10.518
57912W        W17173  17.737   7.415  14.773
57913W        W17174  23.111  29.545  14.363
57914W        W17175  22.109   8.396   0.273
57915W        W17176  33.616  31.456   0.863
57916W        W17177   4.760  38.555   0.350
57917W        W17178  42.018  32.596  11.394
57918W        W17179  17.616  29.168   0.942
57919W        W17180  27.146   8.258  12.919
57920W        W17181  38.412   7.272   1.317
57921W        W17182  17.290  18.249  11.567
57922W        W17183  10.664  38.031   0.941
57923W        W17184  42.815   7.192   3.245
57924W        W17185  11.678   4.790  10.476
57925W        W17186   3.317  16.598   0.345
57926W        W17187  21.043  44.810   2.311
57927W        W17188  17.585  43.801  13.058
57928W        W17189  19.208   1.801   2.352
57929W        W17190  29.988   3.403   5.141
57930W        W17191  23.145  33.884   9.983
57931W        W17192  44.475  10.731  13.872
57932W        W17193  38.539  33.936  14.303
57933W        W17194  12.679  32.119  13.310
57934W        W17195  13.659  44.988   3.650
57935W        W17196  36.002  33.485   1.423
57936W        W17197  37.961  38.365  12.536
57937W        W17198  40.902   7.397   2.334
57938W        W17199  13.109  11.651   0.336
57939W        W17200  16.315  41.880  14.463
57940W        W17201  35.552  40.968   4.653
57941W        W17202  36.049  21.128   4.650
57942W        W17203  20.168  22.738  11.609
57943W        W17204  37.015   7.674  12.096
57944W        W17205  36.942  21.192  12.033
57945W        W17206  32.966  36.856   4.352
57946W        W17207  19.581  26.956   5.198
57947W        W17208   9.726   1.265   2.346
57948W        W17209  28.651  11.856  13.063
57949W        W17210  40.902  24.704   1.879
57950W        W17211  15.314  26.693  14.283
57951W        W17212   0.856  25.134  14.474
57952W        W17213  37.574  24.699  13.525
57953W        W17214  15.768  16.754  12.406
57954W        W17215  16.726  13.121  14.941
57955W        W17216  15.766   8.335  13.465
57956W        W17217   0.373  18.214  10.114
57957W        W17218  34.097  24.539   3.775
57958W        W17219  37.889  29.576   2.672
57959W        W17220  41.323  40.963  14.790
57960W        W17221   1.282  27.641  12.872
57961W        W17222  40.854   9.164  14.389
57962W        W17223  10.151  35.872  12.510
57963W        W17224  18.058  18.063   2.740
57964W        W17225  36.391  41.936  11.452
57965W        W17226  23.056  30.998   0.247
57966W        W17227  31.444   6.344  14.965
57967W        W17228   4.815  33.000   5.117
57968W        W17229  35.436  29.970   0.297
57969W        W17230  12.338  13.129   1.815
57970W        W17231  29.137  18.687  13.037
57971W        W17232  28.990   9.186  12.975
57972W        W17233  28.933   7.211  10.520
57973W        W17234  26.682  13.170  11.605
57974W        W17235  34.404  38.366   0.267
57975W        W17236   3.896  34.017   0.296
57976W        W17237  15.619  21.150   5.141
57977W        W17238  22.621  39.450  13.810
57978W        W17239  30.029  20.157  11.448
57979W        W17240  33.023  30.940   1.264
57980W        W17241  13.183  19.775   4.822
57981W        W17242  39.024  41.429  14.839
57982W        W17243  23.076  29.434  13.352
57983W        W17244  18.608  26.015  14.819
57984W        W17245   9.320  20.187  14.779
57985W        W17246   8.755  26.115   0.368
57986W        W17247  25.087  35.970   1.443
57987W        W17248   6.844  13.651  14.029
57988W        W17249  39.362  17.771   2.357
57989W        W17250  33.932  11.190  12.006
57990W        W17251   4.884   2.228   5.129
57991W        W17252   2.409  29.521  10.952
57992W        W17253   1.959  26.494   3.652
57993W        W17254  26.661  32.433  14.867
57994W        W17255  34.924  24.527   0.755
57995W        W17256   6.234  20.184  10.639
57996W        W17257  23.183  44.904   3.747
57997W        W17258  34.983   4.851  13.537
57998W        W17259  22.199   9.160  11.427
57999W        W17260  41.358  11.349   1.884
58000W        W17261  19.704  12.719  14.841
58001W        W17262  12.773  31.065   0.422
58002W        W17263  23.504  26.664   3.870
58003W        W17264   7.210  15.093   4.603
58004W        W17265  21.205   7.866  11.946
58005W        W17266  24.615   3.723   2.349
58006W        W17267  18.099   4.849  11.051
58007W        W17268  21.537  23.540   3.852
58008W        W17269  35.407   0.962  10.638
58009W        W17270  44.962  22.083  11.607
58010W        W17271  44.417  18.653   0.958
58011W        W17272   2.432  40.938   0.260
58012W        W17273  19.645  23.681  14.323
58013W        W17274   5.725  44.477  11.873
58014W        W17275  26.611  13.665  14.368
58015W        W17276  15.250  37.014   3.230
58016W        W17277  41.397  11.759  14.849
58017W        W17278  23.997  33.118  13.831
58018W        W17279  42.358  12.751  10.631
58019W        W17280   1.832  13.767   2.900
58020W        W17281  15.755  12.135   3.332
58021W        W17282  44.895  17.709   2.335
58022W        W17283  27.598  33.414   2.275
58023W        W17284   1.924  27.125  14.491
58024W        W17285  31.480  11.147  13.033
58025W        W17286  30.035  30.556  11.082
58026W        W17287  16.579  39.812  13.951
58027W        W17288  11.140  35.985  14.924
58028W        W17289   4.868   4.893   1.800
58029W        W17290  22.680  14.686  13.538
58030W        W17291  30.415  38.982   0.875
58031W        W17292  37.856  40.955  14.767
58032W        W17293  12.202   2.814  14.888
58033W        W17294  11.234  36.036   4.141
58034W        W17295   9.740   5.795   9.624
58035W        W17296  37.351  36.406   1.904
58036W        W17297   0.395   8.846   1.357
58037W        W17298  13.243  44.929  10.478
58038W        W17299  32.912  30.599  12.952
58039W        W17300  14.827  33.033  13.902
58040W        W17301   2.363  17.076   2.815
58041W        W17302  42.510  39.998  14.348
58042W        W17303  17.189  34.010  14.472
58043W        W17304  40.824  26.630  12.909
58044W        W17305  20.163   2.792  11.922
58045W        W17306   1.309   8.770   3.168
58046W        W17307  11.627  14.730  14.884
58047W        W17308   6.799  32.580   0.918
58048W        W17309  13.121   3.297  11.072
58049W        W17310  34.460  37.985  14.482
58050W        W17311   8.198  12.611  14.339
58051W        W17312   5.925  12.191   2.897
58052W        W17313  32.599  14.662  10.595
58053W        W17314  26.666  12.292  12.475
58054W        W17315   1.255  12.184   1.285
58055W        W17316  14.648   6.398   2.410
58056W        W17317  15.098   8.717   3.740
58057W        W17318  11.296  22.726   4.272
58058W        W17319  21.077  11.851   2.894
58059W        W17320  41.408   6.865  13.004
58060W        W17321  13.345  41.509   2.372
58061W        W17322  41.006  34.019  10.508
58062W        W17323  25.598   2.391   1.703
58063W        W17324  10.835  25.643   1.695
58064W        W17325   0.313  17.279  14.500
58065W        W17326  21.238  32.105  13.314
58066W        W17327  25.468   9.736  14.386
58067W        W17328  34.071  24.479  10.557
58068W        W17329  29.059  33.016   2.303
58069W        W17330   3.828  10.732  13.951
58070W        W17331  12.734   9.645  11.951
58071W        W17332  43.282   6.323   2.734
58072W        W17333   8.829  19.745  10.958
58073W        W17334  24.595  28.930  12.563
58074W        W17335  31.913  39.415   3.165
58075W        W17336  21.069  23.552   3.353
58076W        W17337  15.217  14.127  14.867
58077W        W17338  10.270  17.201  10.124
58078W        W17339  21.156  33.392  12.344
58079W        W17340  24.663  30.657   2.349
58080W        W17341  43.934  26.197   5.093
58081W        W17342  33.125  32.117  12.557
58082W        W17343  30.993  16.288  13.057
58083W        W17344   5.268  37.872  13.986
58084W        W17345   5.220   7.762   3.816
58085W        W17346  19.640  27.604   4.261
58086W        W17347  12.351  21.021   2.325
58087W        W17348  10.330   1.380  13.864
58088W        W17349  17.099  44.784   3.789
58089W        W17350  18.724  18.154  11.394
58090W        W17351  17.169   0.754  13.330
58091W        W17352  34.002  44.412   0.284
58092W        W17353  41.513  22.676  11.869
58093W        W17354   4.848  10.775   2.250
58094W        W17355   0.392  12.302   4.772
58095W        W17356  38.329  24.523   0.328
58096W        W17357  36.009   5.346   0.334
58097W        W17358  39.992  39.328   4.733
58098W        W17359   8.762  36.558   1.723
58099W        W17360  39.882   4.790   3.729
58100W        W17361  42.995  26.495   5.253
58101W        W17362  30.915  39.962   3.838
58102W        W17363  23.039  33.441   2.228
58103W        W17364  25.149  38.062  14.781
58104W        W17365  43.946   2.441  14.296
58105W        W17366  39.377  17.100   0.324
58106W        W17367  20.076  42.385  11.520
58107W        W17368   2.849   5.335  14.769
58108W        W17369  40.408  20.630   1.857
58109W        W17370  21.621  23.571  13.956
58110W        W17371   9.355   8.699   3.855
58111W        W17372  25.152  19.081   0.903
58112W        W17373  19.636  25.514   0.866
58113W        W17374  37.508  44.363   3.360
58114W        W17375  11.259   6.425  11.489
58115W        W17376   3.913   8.348  11.426
58116W        W17377  22.703  31.501   1.698
58117W        W17378  25.645  31.645  12.483
58118W        W17379  26.571   9.240   2.323
58119W        W17380  34.530  29.164  14.515
58120W        W17381  26.517  22.136   0.755
58121W        W17382  14.793  42.800   3.724
58122W        W17383  27.664   1.364  13.334
58123W        W17384  40.951  36.354   9.994
58124W        W17385   8.711  13.330   0.962
58125W        W17386  28.663  30.512  12.993
58126W        W17387  21.230  30.149   5.321
58127W        W17388   4.360  38.033   3.224
58128W        W17389  23.215  17.726   0.842
58129W        W17390  19.081  22.567  13.919
58130W        W17391   3.385  22.729  10.431
58131W        W17392   5.734  26.533  12.929
58132W        W17393  26.982   3.284   2.774
58133W        W17394  10.235   6.704  13.830
58134W        W17395  31.552  41.336  12.034
58135W        W17396  29.138  22.079  14.779
58136W        W17397  43.965   9.755   2.311
58137W        W17398   9.216  25.143   2.280
58138W        W17399   4.725  15.149  14.782
58139W        W17400  33.414   6.258   1.274
58140W        W17401  17.570  18.619   2.253
58141W        W17402  10.842  17.119  11.408
58142W        W17403  43.419  39.004  10.038
58143W        W17404  22.058  35.371  14.423
58144W        W17405  43.315  21.539   9.657
58145W        W17406  42.003  39.890  14.833
58146W        W17407  28.548  16.214  11.926
58147W        W17408  11.850  13.655   0.479
58148W        W17409   9.181  14.237   2.785
58149W        W17410  41.405  16.129  11.411
58150W        W17411  30.010   7.780  12.949
58151W        W17412  40.818  19.258   4.191
58152W        W17413  25.631  41.819  12.067
58153W        W17414   6.895   1.784  10.154
58154W        W17415  19.046   5.390   0.891
58155W        W17416  32.027  38.550   2.758
58156W        W17417  33.046  29.988   2.843
58157W        W17418   1.772  37.969   3.870
58158W        W17419   6.220  40.451   3.653
58159W        W17420  14.749  33.071   3.148
58160W        W17421  14.803  23.997  14.929
58161W        W17422  36.415  42.455  10.469
58162W        W17423  14.787  23.216   3.835
58163W        W17424   9.655  42.398  11.461
58164W        W17425  10.168  20.083   2.386
58165W        W17426  22.018  26.044  14.313
58166W        W17427  20.693  11.273   4.352
58167W        W17428  16.226  14.737  10.417
58168W        W17429  42.413   7.175   0.303
58169W        W17430   2.364  24.586   1.220
58170W        W17431  36.507   7.679   0.769
58171W        W17432  13.711   7.387  14.942
58172W        W17433   6.777  15.215  14.368
58173W        W17434  22.577  12.785   0.727
58174W        W17435  41.345   2.743   1.795
58175W        W17436  34.025  41.312  11.472
58176W        W17437  41.504  23.996  11.011
58177W        W17438  21.054   6.843  14.960
58178W        W17439  19.164  16.701   4.762
58179W        W17440   4.244  24.174   3.303
58180W        W17441   0.973  11.840   5.122
58181W        W17442  36.564  41.015  11.089
58182W        W17443  33.082  36.439   0.737
58183W        W17444  27.979  11.235  11.050
58184W        W17445   9.285  30.003  11.416
58185W        W17446  28.116  29.167  13.398
58186W        W17447  42.979   8.833   4.688
58187W        W17448   5.700  18.706   2.396
58188W        W17449  25.200  21.036  11.469
58189W        W17450  12.846  25.711   2.377
58190W        W17451  34.971  32.472   3.250
58191W        W17452  34.891  37.443   2.738
58192W        W17453  34.896  19.678  10.553
58193W        W17454   9.308  27.973  12.573
58194W        W17455  17.207  35.915  14.776
58195W        W17456   4.425   8.359   4.241
58196W        W17457  34.074  32.410   2.854
58197W        W17458   8.849   8.815  10.055
58198W        W17459  19.049   3.709  12.061
58199W        W17460  37.509  30.590   4.701
58200W        W17461  15.316   0.783   3.171
58201W        W17462  23.182   8.406   3.264
58202W        W17463   4.378   1.830   2.364
58203W        W17464  19.572  40.891  10.992
58204W        W17465  44.930  17.617   5.198
58205W        W17466  12.781  22.179  10.556
58206W        W17467   0.972  26.208  13.449
58207W        W17468  38.947  13.611   1.891
58208W        W17469  20.747   5.806  10.500
58209W        W17470  32.111   5.399   3.383
58210W        W17471   8.297  22.708   1.895
58211W        W17472  43.947  11.670   1.301
58212W        W17473  10.307  38.437  12.579
58213W        W17474  31.138  17.610   2.308
58214W        W17475  40.435   7.417   1.808
58215W        W17476   5.235   8.388   2.213
58216W        W17477  28.569   8.729  12.938
58217W        W17478  39.343  34.018  13.354
58218W        W17479   9.869   7.296  13.372
58219W        W17480  43.466  29.658   2.804
58220W        W17481  19.095  11.769   3.752
58221W        W17482  19.188  42.358   0.335
58222W        W17483   8.738   0.374   4.197
58223W        W17484  29.086  30.450   1.443
58224W        W17485  16.677  18.771   0.870
58225W        W17486  14.294  15.685   3.802
58226W        W17487  31.515  24.061   1.893
58227W        W17488  23.044  26.495   2.194
58228W        W17489  19.039  10.166   0.748
58229W        W17490   5.774   7.295  12.962
58230W        W17491  34.437  36.415  11.878
58231W        W17492  43.786  32.510   0.875
58232W        W17493  35.537  18.295   2.356
58233W        W17494   6.367   8.319   3.238
58234W        W17495  36.474  28.184   3.801
58235W        W17496  20.226   9.703   0.817
58236W        W17497  31.134   5.250   3.283
58237W        W17498   6.730  30.963   4.628
58238W        W17499  14.226  39.861  14.841
58239W        W17500  15.183  29.619  12.391
58240W        W17501  32.117  30.417  13.505
58241W        W17502  28.951   3.716   2.775
58242W        W17503  17.260  41.444  10.108
58243W        W17504  30.022  21.093  10.463
58244W        W17505  12.687   0.461   0.394
58245W        W17506  31.089  15.273   1.425
58246W        W17507  10.692   7.351   4.750
58247W        W17508  44.336  40.831   4.605
58248W        W17509  25.138  10.726   1.746
58249W        W17510  32.432   5.420  11.017
58250W        W17511  28.651  40.007   4.303
58251W        W17512  11.839  20.588  10.441
58252W        W17513   6.286  24.591  13.907
58253W        W17514  33.556  38.363   1.815
58254W        W17515  28.144  20.232   3.154
58255W        W17516  40.941  44.884   4.607
58256W        W17517  26.551  40.346  14.819
58257W        W17518  21.237  12.130  12.543
58258W        W17519  20.218  28.975   4.624
58259W        W17520   6.428   2.851  12.491
58260W        W17521  14.136  23.128   2.778
58261W        W17522  33.973  42.828   1.294
58262W        W17523  41.956  11.719   1.274
58263W        W17524  11.738  10.329  11.087
58264W        W17525  33.381  40.450   3.640
58265W        W17526  32.029  33.971  13.506
58266W        W17527  32.590  33.943  12.080
58267W        W17528   2.919  14.625   3.159
58268W        W17529  29.449  36.071  11.578
58269W        W17530  40.021  28.994  14.992
58270W        W17531  37.410   0.405  10.056
58271W        W17532  39.493  22.612  11.458
58272W        W17533  29.063  28.657   1.377
58273W        W17534  19.092  25.216   4.331
58274W        W17535  41.910  10.751  12.035
58275W        W17536  39.829  39.961  12.087
58276W        W17537  17.639   4.412  12.526
58277W        W17538  43.851  42.970   4.295
58278W        W17539  41.533  36.095   1.743
58279W        W17540  12.132   9.736   0.450
58280W        W17541  20.264  38.935  10.022
58281W        W17542  41.408  13.350   1.259
58282W        W17543  28.622  13.113   4.633
58283W        W17544  39.001   2.348   5.087
58284W        W17545  24.134  21.203   1.243
58285W        W17546  25.174   8.872   2.386
58286W        W17547  38.061  17.794   0.252
58287W        W17548  43.845  29.042   3.218
58288W        W17549   2.272  20.274   4.207
58289W        W17550   9.307  22.742  12.347
58290W        W17551  16.568  24.032  10.909
58291W        W17552  19.611  20.739  13.471
58292W        W17553   3.793  21.726   0.913
58293W        W17554  23.054  15.229  11.018
58294W        W17555  39.929  32.597   5.107
58295W        W17556  12.824  33.460   4.234
58296W        W17557  37.426  18.216  12.978
58297W        W17558  26.132   5.895   4.153
58298W        W17559  38.462  12.208  13.469
58299W        W17560   3.228  18.632  14.495
58300W        W17561  31.991  39.936   3.738
58301W        W17562  39.868   3.839   3.805
58302W        W17563  20.705  14.242  14.781
58303W        W17564  23.151  16.661  13.989
58304W        W17565  38.009  15.798   2.787
58305W        W17566  33.964  10.671   5.576
58306W        W17567  38.485  37.050  14.475
58307W        W17568  19.212  41.868  14.399
58308W        W17569  17.231  29.994  12.919
58309W        W17570  28.658   8.855  12.576
58310W        W17571  36.977   1.856   2.694
58311W        W17572  44.985  36.421   2.687
58312W        W17573  31.061  27.595   1.241
58313W        W17574  38.822   2.245  11.978
58314W        W17575   8.200  36.084   0.841
58315W        W17576   3.873  17.234  13.448
58316W        W17577   2.248  19.227   0.441
58317W        W17578  13.224  17.749  13.483
58318W        W17579   8.228  43.397  14.343
58319W        W17580  11.709   6.252   0.413
58320W        W17581   1.863  16.118   1.863
58321W        W17582  18.776  32.987   3.812
58322W        W17583   1.251  21.077  10.638
58323W        W17584   3.776  14.182  10.422
58324W        W17585  38.043  31.548   0.961
58325W        W17586  37.890   0.911  14.019
58326W        W17587  37.511  24.544  12.439
58327W        W17588  33.972   0.313   2.700
58328W        W17589  41.826   9.705  11.408
58329W        W17590  30.923  32.407   3.674
58330W        W17591  10.743  18.094   2.224
58331W        W17592   1.831  10.373   3.224
58332W        W17593  18.292  24.006   2.753
58333W        W17594   4.848  25.010  10.155
58334W        W17595  43.359  27.056  12.889
58335W        W17596  15.278  36.051   1.852
58336W        W17597  16.589  27.630  12.071
58337W        W17598  42.005   4.278   4.758
58338W        W17599  32.947  16.745  12.918
58339W        W17600  38.464  22.158   0.477
58340W        W17601  40.837  31.466   1.413
58341W        W17602   7.681   6.411  10.134
58342W        W17603  29.505  12.127  14.995
58343W        W17604  28.938  28.605   0.759
58344W        W17605  19.760  29.046  10.455
58345W        W17606  13.351   2.763  13.389
58346W        W17607  42.293   2.418  11.419
58347W        W17608  34.500  13.625  11.108
58348W        W17609  32.132  16.689   2.896
58349W        W17610  42.925  19.263  11.393
58350W        W17611  26.585  12.182   2.411
58351W        W17612  17.141   3.454  14.475
58352W        W17613  17.711   7.388   0.402
58353W        W17614  14.320  23.625  10.439
58354W        W17615  18.655   8.883  14.767
58355W        W17616   9.732   1.893  11.910
58356W        W17617   4.726   2.882   4.744
58357W        W17618  20.525  11.630   0.363
58358W        W17619  42.364   0.417   0.347
58359W        W17620  23.628  42.455  14.029
58360W        W17621  15.739  37.894   2.886
58361W        W17622  11.139  40.038   1.257
58362W        W17623  17.192  19.581   0.741
58363W        W17624  25.700  28.974   4.321
58364W        W17625  33.963  34.481   3.793
58365W        W17626  37.038   2.742   4.156
58366W        W17627   0.310   6.187   0.425
58367W        W17628  32.406  14.808   0.913
58368W        W17629  42.336  44.451  13.452
58369W        W17630   7.704  16.806  11.882
58370W        W17631  27.593  16.566  13.488
58371W        W17632  26.703  14.112   1.825
58372W        W17633  16.671  40.842   0.799
58373W        W17634  23.538  40.383   3.311
58374W        W17635  21.150  40.419   1.229
58375W        W17636  12.129   8.686  14.891
58376W        W17637  17.170  18.547   3.226
58377W        W17638  29.976  44.973   0.778
58378W        W17639   5.250  18.256   2.856
58379W        W17640  21.699  10.817  12.501
58380W        W17641   0.406  13.325   1.364
58381W        W17642  14.249  22.590   4.628
58382W        W17643   6.274  24.614  12.453
58383W        W17644  44.764   4.815  10.508
58384W        W17645  30.496  15.097  14.333
58385W        W17646   1.886  24.532   1.785
58386W        W17647  37.075  26.097  12.506
58387W        W17648  22.211  25.528  14.476
58388W        W17649  42.316   2.762   0.762
58389W        W17650  19.741  41.841  12.855
58390W        W17651   2.921  20.619  11.964
58391W        W17652   2.240  37.043   2.691
58392W        W17653  16.600  20.052   0.839
58393W        W17654  40.329   9.241   4.734
58394W        W17655  33.553  38.516  10.907
58395W        W17656  12.644  41.866   2.846
58396W        W17657   3.270  42.965  10.591
58397W        W17658  10.180  31.538  13.008
58398W        W17659  38.541  40.838   1.433
58399W        W17660  22.155   2.798  14.024
58400W        W17661   3.382  25.215   3.746
58401W        W17662  37.012  32.967  12.862
58402W        W17663  39.454  27.164  13.863
58403W        W17664  16.727   6.816   1.902
58404W        W17665  40.501  27.522   2.674
58405W        W17666  33.069  24.685   2.713
58406W        W17667   2.763   3.921  14.434
58407W        W17668   9.787  31.506  11.515
58408W        W17669  37.419   7.314  13.435
58409W        W17670   5.226  18.287  12.999
58410W        W17671  33.008  10.764   1.259
58411W        W17672  14.758  15.324   1.732
58412W        W17673   3.804  20.178  11.950
58413W        W17674   1.969  19.104  14.815
58414W        W17675  44.980   1.340  12.541
58415W        W17676  18.561  12.153   4.149
58416W        W17677   2.948  41.913  14.760
58417W        W17678  43.836  38.836  13.819
58418W        W17679  44.843  12.848  14.997
58419W        W17680   3.349  28.108   2.416
58420W        W17681  15.255   0.764   1.324
58421W        W17682  36.990  24.126   2.198
58422W        W17683  26.981  26.695   2.715
58423W        W17684  29.436  44.779  12.497
58424W        W17685   6.409  41.806   3.248
58425W        W17686  41.471  10.751  11.948
58426W        W17687   6.706  35.361   1.764
58427W        W17688   6.881  33.912   3.165
58428W        W17689  27.663  42.011   4.220
58429W        W17690  44.965  11.222  14.338
58430W        W17691   1.355  22.644  12.374
58431W        W17692  26.475   4.413   4.692
58432W        W17693   6.314  34.068  12.900
58433W        W17694  37.489   2.949  13.368
58434W        W17695  13.757   9.672   3.232
58435W        W17696  31.599  28.527  11.904
58436W        W17697  19.687  38.952   2.284
58437W        W17698  40.831   6.762   0.727
58438W        W17699  18.618  17.702  14.397
58439W        W17700   3.887   9.335  14.512
58440W        W17701  39.864  22.087  11.525
58441W        W17702   5.327  17.062   3.151
58442W        W17703  29.111  20.268  10.973
58443W        W17704  28.667  40.360   0.419
58444W        W17705  33.906  36.958  12.503
58445W        W17706  44.326   9.256  13.797
58446W        W17707  29.974  38.538  12.527
58447W        W17708  36.354  12.690  12.982
58448W        W17709  18.105  17.599   4.214
58449W        W17710   4.351   1.275  11.456
58450W        W17711  18.783  19.727   2.846
58451W        W17712  22.134  22.579   2.847
58452W        W17713  43.989  13.785   3.233
58453W        W17714  18.623  25.609  11.610
58454W        W17715  35.011   5.228   1.841
58455W        W17716  41.531   7.879   3.631
58456W        W17717  16.218   5.907   0.333
58457W        W17718   7.378  33.983  11.469
58458W        W17719  26.499  32.558   4.264
58459W        W17720  12.814  29.532   1.446
58460W        W17721  22.108   0.968   2.712
58461W        W17722  23.490  28.085  11.009
58462W        W17723  20.159  36.933   1.782
58463W        W17724  17.637  28.613  11.039
58464W        W17725   9.662  30.458  14.805
58465W        W17726  16.152  12.311  12.076
58466W        W17727  29.644  32.464   2.200
58467W        W17728  26.487  20.096   4.216
58468W        W17729  15.328  17.265   3.306
58469W        W17730  35.487  20.645   1.239
58470W        W17731  13.347  37.490  14.481
58471W        W17732  44.756   4.752  14.920
58472W        W17733  29.919  23.134  10.632
58473W        W17734  29.091  34.076  12.990
58474W        W17735  30.011  23.236  11.424
58475W        W17736   9.837   1.314  14.458
58476W        W17737  26.607   5.429   1.398
58477W        W17738   8.302  27.126   3.241
58478W        W17739  19.068  15.302   3.208
58479W        W17740  27.477  27.100   1.907
58480W        W17741  18.063  11.304  12.358
58481W        W17742  41.018   5.799  10.942
58482W        W17743  22.224  40.497  14.850
58483W        W17744  39.323  12.146   0.459
58484W        W17745   9.852  24.168   4.235
58485W        W17746  26.460  22.549   2.803
58486W        W17747   5.226  22.142   3.804
58487W        W17748  29.113  36.907  10.441
58488W        W17749  39.036   6.703  14.773
58489W        W17750  42.930  30.073  11.113
58490W        W17751  33.936  23.073  10.942
58491W        W17752  26.610  42.024   4.198
58492W        W17753  28.538   8.702  13.899
58493W        W17754  20.261  44.478  12.502
58494W        W17755  40.971   5.204   1.713
58495W        W17756  10.791  27.088  11.531
58496W        W17757  43.292  19.212   1.725
58497W        W17758  17.155  30.561   4.674
58498W        W17759  15.268   3.423   3.371
58499W        W17760   5.709  43.803   4.283
58500W        W17761  29.084  10.707   0.745
58501W        W17762   7.400  34.392   3.655
58502W        W17763  18.224  35.557   0.858
58503W        W17764  44.783  12.733   4.310
58504W        W17765  22.727  41.383   0.454
58505W        W17766  43.381  31.114   1.353
58506W        W17767  39.387  13.825  12.380
58507W        W17768  38.872   1.853  13.912
58508W        W17769  35.890  15.306  12.068
58509W        W17770  21.616  40.872   2.734
58510W        W17771  15.775  25.124   4.817
58511W        W17772  17.176   6.787   5.321
58512W        W17773  39.918  28.600   5.688
58513W        W17774  35.936  10.188  11.607
58514W        W17775  28.677  34.078  12.554
58515W        W17776  19.668  27.568  14.927
58516W        W17777   9.871   6.799   0.365
58517W        W17778  30.005  25.112  14.349
58518W        W17779  33.461   5.385   4.785
58519W        W17780  22.160   7.695   2.689
58520W        W17781  27.603   0.302  13.859
58521W        W17782  35.415  40.392  10.422
58522W        W17783   4.716  28.050  13.456
58523W        W17784  27.078  33.528   4.677
58524W        W17785   3.277  19.741  12.402
58525W        W17786  26.072  24.204  10.621
58526W        W17787  10.794  40.933  10.519
58527W        W17788   8.804   0.782   2.774
58528W        W17789  21.745  22.545  13.922
58529W        W17790  35.536   7.675   2.398
58530W        W17791  36.548  29.527  12.825
58531W        W17792  41.442  44.425   5.191
58532W        W17793  23.176  29.485  14.015
58533W        W17794  11.353   5.270  12.017
58534W        W17795  31.430  15.663  11.093
58535W        W17796  23.666  23.684  12.837
58536W        W17797   6.855  25.577  13.871
58537W        W17798  35.961  23.568   0.340
58538W        W17799   7.781  28.444  11.080
58539W        W17800  16.707   9.315  10.419
58540W        W17801  27.964  34.487   3.214
58541W        W17802  37.922  37.056   2.350
58542W        W17803   4.788  14.255   0.247
58543W        W17804  16.631  19.653  13.836
58544W        W17805  31.977  41.352  14.361
58545W        W17806   2.844  39.442   2.178
58546W        W17807  44.462  30.064   1.445
58547W        W17808   1.290  43.492   4.316
58548W        W17809   4.720  37.529  10.091
58549W        W17810  33.415  24.626  11.024
58550W        W17811  30.582  36.002  11.991
58551W        W17812   4.862  12.149  14.393
58552W        W17813   5.692   9.367  13.331
58553W        W17814   4.734  26.063   3.685
58554W        W17815  22.251  23.136  11.542
58555W        W17816  16.287  19.541   2.796
58556W        W17817  26.110   5.727   1.282
58557W        W17818  40.383  15.290  11.412
58558W        W17819  43.299  23.701  13.528
58559W        W17820  44.929  19.628  12.046
58560W        W17821  34.045  20.227   2.360
58561W        W17822  23.729  21.152  14.971
58562W        W17823  39.445   5.399   3.744
58563W        W17824  44.908  27.571   2.896
58564W        W17825  12.329  28.126   0.857
58565W        W17826  37.057   7.269   4.164
58566W        W17827  23.234  39.914  12.466
58567W        W17828   9.227  20.535   1.356
58568W        W17829  17.736   0.785   2.399
58569W        W17830  21.042  29.931   3.263
58570W        W17831   2.900   0.459  14.992
58571W        W17832  21.088   1.807  13.989
58572W        W17833  43.893   8.763  12.444
58573W        W17834  30.160  25.148   1.711
58574W        W17835  39.850  27.198  12.395
58575W        W17836   7.302  20.579  10.966
58576W        W17837  11.717   0.348  12.935
58577W        W17838  37.506  27.644   0.802
58578W        W17839   1.310  43.937  10.977
58579W        W17840  16.622  32.011  13.046
58580W        W17841  40.818  15.672  13.832
58581W        W17842   7.795   0.946  10.600
58582W        W17843   9.721   8.365   1.854
58583W        W17844  11.362  33.581  12.460
58584W        W17845  12.312  35.863   4.340
58585W        W17846  38.870  11.363  13.011
58586W        W17847  21.637  38.987  11.039
58587W        W17848  21.513  34.388   3.379
58588W        W17849  19.071  28.057  11.550
58589W        W17850  32.633   1.788   5.201
58590W        W17851  39.937   7.721   0.873
58591W        W17852  36.488  23.129  12.973
58592W        W17853  14.172  17.222  13.365
58593W        W17854  36.559  31.110   2.789
58594W        W17855  17.596  36.041   4.786
58595W        W17856  43.389  21.707   3.249
58596W        W17857   4.418   6.252  13.376
58597W        W17858  34.874  38.849   3.673
58598W        W17859   6.243  12.122  14.998
58599W        W17860  26.013  12.311  12.066
58600W        W17861   1.327  26.048   0.766
58601W        W17862  13.699  15.093   3.238
58602W        W17863  21.214   2.897  13.851
58603W        W17864  19.268   2.465  11.606
58604W        W17865  22.117  28.003  10.917
58605W        W17866  28.037  27.960  14.953
58606W        W17867  29.071  41.006  11.052
58607W        W17868  29.644  38.964   4.119
58608W        W17869  20.664  17.761  10.620
58609W        W17870  24.659  33.583   4.205
58610W        W17871  19.559  35.429  10.410
58611W        W17872  36.383  28.675  12.073
58612W        W17873  36.511  43.816   2.360
58613W        W17874  44.456  11.747   1.282
58614W        W17875  23.105  11.864  13.969
58615W        W17876  35.476   4.733   5.132
58616W        W17877   2.916  13.168   0.370
58617W        W17878  15.740  25.707   1.761
58618W        W17879  43.350  11.708   2.414
58619W        W17880   5.358  31.000  10.936
58620W        W17881  18.645  32.495  14.985
58621W        W17882   4.270   2.788  13.947
58622W        W17883  25.560  30.517   0.933
58623W        W17884  29.510  17.303   1.880
58624W        W17885  31.099   4.908   3.709
58625W        W17886  44.298  13.616   2.385
58626W        W17887  38.473   2.817  14.015
58627W        W17888  10.154   6.406  13.928
58628W        W17889  29.006   4.245  12.527
58629W        W17890  23.603  34.581   3.257
58630W        W17891  35.489  13.730  14.017
58631W        W17892   6.753  29.634   2.721
58632W        W17893  33.513   9.670  10.473
58633W        W17894  41.512  14.605  13.815
58634W        W17895  27.945   7.178   2.238
58635W        W17896  44.812   5.746   3.688
58636W        W17897  42.474  24.554   3.746
58637W        W17898  17.726  10.736   4.326
58638W        W17899  44.323  17.071   1.874
58639W        W17900  33.992   5.903   3.635
58640W        W17901  39.470  12.297   4.740
58641W        W17902  14.766  12.119  12.468
58642W        W17903  18.167  27.552   2.793
58643W        W17904   2.368  19.063  13.917
58644W        W17905  44.303   0.778  14.280
58645W        W17906  19.256  39.812  11.932
58646W        W17907  15.152  22.189   2.893
58647W        W17908  21.166  30.100  12.342
58648W        W17909   5.785  37.940  14.903
58649W        W17910  24.166  17.273   0.893
58650W        W17911  42.842  14.317  14.795
58651W        W17912  24.226  38.418   2.356
58652W        W17913   0.945  20.616   1.737
58653W        W17914  42.423  36.557  13.538
58654W        W17915  28.471  21.683   2.185
58655W        W17916   0.899  27.136  10.148
58656W        W17917  35.561  17.228  12.521
58657W        W17918  38.472  35.865   3.244
58658W        W17919  10.845  22.691  11.990
58659W        W17920  11.170  17.260  11.550
58660W        W17921  33.909  31.992  14.368
58661W        W17922  10.677  25.210   3.806
58662W        W17923  24.489  17.701  13.838
58663W        W17924   9.149  27.540   0.352
58664W        W17925  30.146  24.079   2.255
58665W        W17926  22.013  32.542   9.532
58666W        W17927  30.976  29.530   1.423
58667W        W17928  31.061   3.383  11.986
58668W        W17929  33.995   9.872   2.743
58669W        W17930  18.768   3.739  13.840
58670W        W17931  14.289  23.212  12.561
58671W        W17932  44.374  28.979   3.160
58672W        W17933  31.506  27.067  11.970
58673W        W17934  44.777  24.561   3.688
58674W        W17935   4.286   7.823   2.191
58675W        W17936   2.353  33.473  10.571
58676W        W17937   7.230  15.808  14.916
58677W        W17938  17.197  24.553   3.331
58678W        W17939   1.851  26.052  12.480
58679W        W17940  41.884   7.301  11.942
58680W        W17941  16.103  17.189  14.909
58681W        W17942  17.277  34.998   2.264
58682W        W17943  12.623   8.804  14.462
58683W        W17944  15.700   2.456   2.854
58684W        W17945  30.123   0.369  10.410
58685W        W17946  14.311  28.591  14.388
58686W        W17947   5.729  39.864   0.726
58687W        W17948  33.624  21.243   2.867
58688W        W17949  22.523  23.002  11.433
58689W        W17950  39.394  42.323  10.515
58690W        W17951  42.826   7.683   4.727
58691W        W17952  18.223  35.855  14.380
58692W        W17953  30.575  12.209   0.468
58693W        W17954  39.532  39.497  12.036
58694W        W17955  41.505  37.920  12.376
58695W        W17956  14.662  19.118   2.671
58696W        W17957  18.622  24.006  11.425
58697W        W17958   9.648  20.220   0.915
58698W        W17959  19.579  19.268  10.424
58699W        W17960  36.879  40.371   1.918
58700W        W17961  26.008  23.116  11.412
58701W        W17962  22.063   6.882   4.174
58702W        W17963   1.788   4.824  13.470
58703W        W17964   7.380  34.462  10.561
58704W        W17965   4.747   8.266  11.461
58705W        W17966   7.832  32.570  13.972
58706W        W17967   5.326  38.492  10.408
58707W        W17968  33.974   3.278  14.469
58708W        W17969   9.777  16.193   3.307
58709W        W17970  15.180  24.500   1.922
58710W        W17971  43.863  26.995  12.970
58711W        W17972  26.028  21.554   4.233
58712W        W17973   2.396  21.691  10.920
58713W        W17974  23.186   8.215  11.089
58714W        W17975  31.010  31.404   3.864
58715W        W17976  33.571  30.601   1.327
58716W        W17977  10.206  40.546   5.106
58717W        W17978  29.953  39.984   1.248
58718W        W17979  17.642   6.197  12.029
58719W        W17980   4.803  34.567  11.448
58720W        W17981  27.982  20.177   2.376
58721W        W17982  18.782  25.081  11.549
58722W        W17983  19.204  43.272  14.893
58723W        W17984  10.222  13.315  13.040
58724W        W17985  24.678  26.671   4.144
58725W        W17986  20.567  16.156  14.915
58726W        W17987  24.189  35.983  13.405
58727W        W17988   6.231   7.353   4.695
58728W        W17989   5.893  30.621   3.243
58729W        W17990  38.381  10.191  14.344
58730W        W17991   2.782  14.667  13.008
58731W        W17992  13.724   7.267   3.249
58732W        W17993  17.782  29.096  12.356
58733W        W17994   8.170   3.399   2.395
58734W        W17995   1.259   7.212   3.832
58735W        W17996  35.090  43.457  14.898
58736W        W17997   9.188  21.142  10.082
58737W        W17998  12.209  31.896  14.961
58738W        W17999   4.260  11.651  11.539
58739W        W18000  43.013  11.700   5.181
58740W        W18001  38.997  23.239   3.268
58741W        W18002  11.797  40.316   0.827
58742W        W18003  28.138  26.636   0.323
58743W        W18004  13.815  32.949   0.448
58744W        W18005  12.809  15.269   2.323
58745W        W18006  35.962  17.560   0.302
58746W        W18007  38.946  34.970  13.328
58747W        W18008  16.286  29.018   2.758
58748W        W18009  23.505  20.162   2.253
58749W        W18010   1.284  15.822  10.915
58750W        W18011   8.331   4.344   3.733
58751W        W18012   6.345   7.194  11.117
58752W        W18013  15.315  13.122   0.776
58753W        W18014  11.745  12.281  12.877
58754W        W18015  18.088   9.310   1.790
58755W        W18016  10.207  29.928  14.383
58756W        W18017   8.817  28.095  12.971
58757W        W18018  35.434   9.235   1.830
58758W        W18019  26.126  19.096   4.689
58759W        W18020   5.736   3.899   3.319
58760W        W18021  24.691  42.319   2.820
58761W        W18022   4.212   4.216   3.744
58762W        W18023  34.454  26.510  11.591
58763W        W18024  12.295  16.261   2.324
58764W        W18025  12.780  18.280  12.829
58765W        W18026  11.187  19.534  12.388
58766W        W18027  21.054  20.037  13.417
58767W        W18028  16.727   1.897   1.771
58768W        W18029   1.410  11.168  10.467
58769W        W18030  31.540  41.018  14.797
58770W        W18031   8.656  24.117  13.436
58771W        W18032  29.011  12.620   0.872
58772W        W18033   7.319  43.351  10.540
58773W        W18034  14.245  38.530  12.865
58774W        W18035  14.178  33.012  11.522
58775W        W18036  44.875   7.377  14.791
58776W        W18037   1.466  43.014   3.767
58777W        W18038  21.688  36.022   0.343
58778W        W18039   1.379   7.733  12.047
58779W        W18040  11.765  12.237  12.382
58780W        W18041  35.381  11.164  14.768
58781W        W18042  42.361  23.038   0.398
58782W        W18043   2.293  22.720  12.056
58783W        W18044  28.941  29.447   0.952
58784W        W18045   6.360  13.663   4.687
58785W        W18046  19.610   5.880  14.478
58786W        W18047  24.018   6.720   4.757
58787W        W18048  26.175   4.216   2.267
58788W        W18049  36.544  26.011  11.494
58789W        W18050   5.374  33.935   0.806
58790W        W18051  42.907  42.791   1.737
58791W        W18052   1.783   5.803  13.367
58792W        W18053  14.273   2.439  13.308
58793W        W18054  36.557   5.374   0.880
58794W        W18055  11.857  36.404  11.556
58795W        W18056   2.735  27.143  12.052
58796W        W18057   7.219  19.141  13.524
58797W        W18058   9.186  17.305  12.364
58798W        W18059  17.662  29.084  14.949
58799W        W18060  39.401  22.148   3.664
58800W        W18061  20.069   4.318  13.349
58801W        W18062  35.896  16.726  13.311
58802W        W18063  27.116   8.873   3.247
58803W        W18064  26.208  27.643  12.961
58804W        W18065  18.765   9.309  13.052
58805W        W18066   6.830  15.711  10.494
58806W        W18067  44.979  19.762   1.257
58807W        W18068  35.538  34.933  14.303
58808W        W18069   7.716  40.303   4.796
58809W        W18070  32.410  26.016  13.541
58810W        W18071  29.009  18.201   0.354
58811W        W18072  40.026   5.231  12.000
58812W        W18073  44.439  35.451   3.871
58813W        W18074  12.629  21.193  11.382
58814W        W18075  27.013  34.992  11.539
58815W        W18076   4.863  12.847  14.999
58816W        W18077  31.919  15.811   3.702
58817W        W18078  38.057  44.427  10.922
58818W        W18079  35.068  23.091  13.514
58819W        W18080  38.459  42.007   0.936
58820W        W18081  13.658  17.122   3.646
58821W        W18082  35.985  35.483  14.352
58822W        W18083  16.274   3.716   4.200
58823W        W18084   6.789   0.816  13.445
58824W        W18085  33.966   6.868  12.893
58825W        W18086  15.127  34.001  14.785
58826W        W18087  29.468  29.964   2.853
58827W        W18088   6.688   3.325  13.354
58828W        W18089  15.633  27.671   0.773
58829W        W18090  29.443  11.814  14.024
58830W        W18091  11.237  44.463  11.411
58831W        W18092   8.809  44.306   4.300
58832W        W18093  43.392  17.095  13.366
58833W        W18094  27.452  23.634   1.745
58834W        W18095  42.400  28.508   4.304
58835W        W18096  16.207  26.467  14.949
58836W        W18097  42.798  28.634  14.843
58837W        W18098  37.439  21.515   5.271
58838W        W18099   1.807  39.828  13.007
58839W        W18100  41.835   6.284  10.550
58840W        W18101  15.776  23.224   1.430
58841W        W18102  35.493   5.763   0.389
58842W        W18103  10.262  23.242  11.115
58843W        W18104  10.774  34.977  12.900
58844W        W18105  32.948  34.011   0.463
58845W        W18106  16.253  24.668  12.892
58846W        W18107  40.386  32.528  14.484
58847W        W18108   6.759  21.636   0.421
58848W        W18109  39.027  32.976  13.834
58849W        W18110  14.156  33.101   2.259
58850W        W18111  35.496  35.529   0.855
58851W        W18112   7.411   0.887  10.938
58852W        W18113  43.019  38.924  12.392
58853W        W18114   7.776  43.776   1.875
58854W        W18115  24.519  26.669   2.394
58855W        W18116  44.504  33.519  12.001
58856W        W18117  11.357  35.465   2.869
58857W        W18118  31.072  43.442   1.326
58858W        W18119  14.252  32.588  13.975
58859W        W18120  32.097  31.141  11.059
58860W        W18121  11.352   4.277   0.325
58861W        W18122  12.816  24.975  13.938
58862W        W18123  31.117  19.136   1.785
58863W        W18124  23.645  22.114  12.522
58864W        W18125  30.487  10.692   2.687
58865W        W18126  39.532  34.042   4.772
58866W        W18127  12.358   5.779  10.480
58867W        W18128  24.554   1.821   2.699
58868W        W18129  11.286  22.035   1.313
58869W        W18130  38.367   4.839  13.867
58870W        W18131  31.449  21.582   0.831
58871W        W18132   0.937   6.287  13.323
58872W        W18133  40.823  43.890   2.243
58873W        W18134  30.114  22.700  14.783
58874W        W18135  16.300  22.214  11.470
58875W        W18136  19.673   3.723   4.203
58876W        W18137  22.131   3.402  14.421
58877W        W18138  31.479  38.823  14.304
58878W        W18139  18.657  24.150   0.382
58879W        W18140   6.279   3.782  13.014
58880W        W18141  28.948  43.765  14.949
58881W        W18142  14.773  33.582   4.136
58882W        W18143  36.558  40.892   0.282
58883W        W18144  34.087  16.650  12.949
58884W        W18145   9.769   4.915   0.411
58885W        W18146   4.765  19.095   3.165
58886W        W18147  22.146  31.910  12.572
58887W        W18148  41.967  12.335  11.867
58888W        W18149  17.108  22.644  14.281
58889W        W18150  30.449  37.977   3.638
58890W        W18151  28.184  42.521  14.458
58891W        W18152  29.088  42.329  14.906
58892W        W18153  16.242  38.872   0.423
58893W        W18154  25.676  23.604   5.156
58894W        W18155   0.822  31.134  13.352
58895W        W18156  19.603  19.193   4.651
58896W        W18157  41.356   4.749   1.761
58897W        W18158  12.270  37.475   4.160
58898W        W18159  36.007  24.139   4.632
58899W        W18160  39.022  36.398  14.870
58900W        W18161  26.640  27.565   4.232
58901W        W18162   9.180  26.568  14.280
58902W        W18163  22.120   8.791  10.556
58903W        W18164  40.826  42.448  14.309
58904W        W18165  43.904  15.804  10.554
58905W        W18166   6.875  38.870   4.751
58906W        W18167  12.844  22.053   0.895
58907W        W18168   4.730  39.913  11.101
58908W        W18169   4.778  14.631  10.953
58909W        W18170  33.901  13.149  11.929
58910W        W18171  29.997  37.007   1.223
58911W        W18172  24.060   5.767  11.106
58912W        W18173  13.819  29.134  14.945
58913W        W18174   9.665   4.863   9.473
58914W        W18175   3.904  43.922  14.460
58915W        W18176  14.775  15.251   2.263
58916W        W18177  43.349  31.034  14.462
58917W        W18178   2.442  31.559  14.281
58918W        W18179  27.503  37.998   4.664
58919W        W18180   5.345   2.259  14.330
58920W        W18181  22.718  11.700   4.130
58921W        W18182  28.566  38.029  14.416
58922W        W18183   6.692  32.020   1.444
58923W        W18184   9.198  29.537  11.019
58924W        W18185  33.450  18.615   2.231
58925W        W18186  37.051  13.128   2.401
58926W        W18187  24.562  40.506   2.400
58927W        W18188  16.272  25.516   0.931
58928W        W18189  10.809  26.099   4.671
58929W        W18190  30.047  26.458  13.867
58930W        W18191  44.803  29.010   3.768
58931W        W18192  37.370  17.583   4.173
58932W        W18193  31.605  25.968  14.473
58933W        W18194   2.861   4.918  12.051
58934W        W18195  35.913  13.687  11.538
58935W        W18196  29.976  28.661   4.263
58936W        W18197  26.685   8.749  12.039
58937W        W18198  39.940  41.980  11.989
58938W        W18199  30.498  16.311  13.955
58939W        W18200  19.672   1.414   2.293
58940W        W18201  42.290  42.494   2.278
58941W        W18202  22.042  15.689   4.640
58942W        W18203  25.113  12.621  13.418
58943W        W18204  40.408  36.446  13.456
58944W        W18205  44.799  37.531   5.096
58945W        W18206  27.146  44.800   3.198
58946W        W18207  22.600  29.425  14.963
58947W        W18208  29.099   4.309   3.200
58948W        W18209  17.179   4.729   2.406
58949W        W18210  26.136   2.862   1.445
58950W        W18211   6.830  35.361   0.437
58951W        W18212   7.862   6.313  14.898
58952W        W18213  12.305  44.374  10.522
58953W        W18214   4.755  29.009  13.043
58954W        W18215  18.566  13.139  10.418
58955W        W18216  17.784   6.411   9.982
58956W        W18217  41.332  20.741  10.422
58957W        W18218  30.626  16.120   1.837
58958W        W18219  13.802   0.457  12.553
58959W        W18220   4.265  17.156   2.881
58960W        W18221  32.085  11.778  14.348
58961W        W18222  21.613  22.122  14.994
58962W        W18223  44.864  22.035  14.844
58963W        W18224  32.141  43.385   1.785
58964W        W18225  16.715  10.662   1.345
58965W        W18226  16.094  31.124  14.478
58966W        W18227  31.134  42.450  10.914
58967W        W18228  43.418  33.380  12.407
58968W        W18229  26.008  32.464  10.106
58969W        W18230  23.642  19.710  10.519
58970W        W18231  44.869   8.165   2.232
58971W        W18232  34.492  44.998  10.630
58972W        W18233  26.192  43.899   1.816
58973W        W18234  16.235  33.924  11.990
58974W        W18235  28.936  29.094  13.443
58975W        W18236   8.317   2.792   3.182
58976W        W18237  31.586  34.524  11.081
58977W        W18238  12.124  17.767  14.775
58978W        W18239  30.161  21.681   1.833
58979W        W18240  15.274  44.774  14.370
58980W        W18241  17.555  32.587   4.187
58981W        W18242  27.151  31.424   1.745
58982W        W18243  36.036   7.255   4.695
58983W        W18244  23.053  32.493  12.836
58984W        W18245  23.131  31.588  11.410
58985W        W18246   7.220  35.521  14.474
58986W        W18247  16.719  10.345   5.309
58987W        W18248  11.356  32.942  13.458
58988W        W18249   4.762  10.326  12.829
58989W        W18250  44.351  37.079   1.440
58990W        W18251   3.390  21.702   1.319
58991W        W18252   5.775   4.724   0.447
58992W        W18253  27.164  13.330  14.292
58993W        W18254  19.232  27.190   9.547
58994W        W18255   4.310  37.527   4.325
58995W        W18256  31.078  10.337   1.738
58996W        W18257  38.463  40.464   2.316
58997W        W18258  39.835  10.716  11.934
58998W        W18259  31.906  10.720  14.010
58999W        W18260   5.354  17.686  11.573
59000W        W18261  42.940   9.824  11.480
59001W        W18262  22.637   7.665   5.159
59002W        W18263  19.697   0.883  14.778
59003W        W18264  28.629  40.489  12.510
59004W        W18265  41.002  38.889  12.870
59005W        W18266  32.622  44.933   2.301
59006W        W18267  13.294  25.614  13.315
59007W        W18268   0.956   8.853  12.067
59008W        W18269   7.320  28.073  13.965
59009W        W18270   5.876   2.326  10.996
59010W        W18271  25.023  15.693  13.394
59011W        W18272  37.436  41.934  13.442
59012W        W18273   5.931  33.007  11.379
59013W        W18274  14.702  21.639   3.336
59014W        W18275  17.115  17.234  13.891
59015W        W18276   9.797  33.935   4.192
59016W        W18277   5.859  16.303   1.373
59017W        W18278  10.847  17.253   3.164
59018W        W18279   3.350   4.204   2.720
59019W        W18280  38.987   2.886   2.193
59020W        W18281   5.886   9.387  13.061
59021W        W18282   7.897   5.790   0.325
59022W        W18283  36.413  42.934   4.317
59023W        W18284  13.236  30.558   3.146
59024W        W18285  37.515  14.229  14.375
59025W        W18286  23.686  30.520  12.518
59026W        W18287   6.794  43.946   3.378
59027W        W18288  10.367   8.788   5.213
59028W        W18289   1.371  36.532   3.682
59029W        W18290   5.277  28.555  13.474
59030W        W18291  37.437   6.241  14.319
59031W        W18292  20.646  44.487  13.515
59032W        W18293  14.748  43.905   2.247
59033W        W18294  23.583  41.958   0.424
59034W        W18295   3.418  34.391   0.398
59035W        W18296  40.359  36.506  14.289
59036W        W18297  21.211  43.468  13.381
59037W        W18298  10.868  27.994   1.770
59038W        W18299   7.731   3.805  11.595
59039W        W18300  29.139  43.984  13.529
59040W        W18301  38.479   5.205  12.933
59041W        W18302  26.119  16.803  12.516
59042W        W18303   4.407  16.132   0.895
59043W        W18304  15.648  29.095   2.309
59044W        W18305  23.213  25.698   4.219
59045W        W18306  11.646  18.611   0.914
59046W        W18307  14.622   7.795  10.607
59047W        W18308  28.936  30.651   2.327
59048W        W18309  36.549  39.532   2.333
59049W        W18310  23.232  20.115   5.791
59050W        W18311  39.370  21.074   1.387
59051W        W18312  43.405  29.656   4.314
59052W        W18313  28.582   4.813  11.932
59053W        W18314  21.640  30.455  10.073
59054W        W18315   7.307  37.958   0.450
59055W        W18316  34.563  28.027   4.757
59056W        W18317  21.613  43.360  10.908
59057W        W18318  26.634  20.166   0.934
59058W        W18319  16.207   0.487  12.520
59059W        W18320  29.941   1.266   9.444
59060W        W18321  23.192   8.881  10.477
59061W        W18322  17.721  43.981  14.881
59062W        W18323  14.340  38.502  10.583
59063W        W18324  16.311  15.282  11.945
59064W        W18325  28.965  27.945  14.391
59065W        W18326  24.192  14.636   4.757
59066W        W18327  19.196  11.823   0.788
59067W        W18328  14.655  37.340  13.356
59068W        W18329  21.696  17.568  12.042
59069W        W18330   5.334  10.267   1.696
59070W        W18331  26.651  35.497  14.409
59071W        W18332  30.513   0.937   2.733
59072W        W18333  13.641  30.026   0.852
59073W        W18334  19.682  12.170  11.857
59074W        W18335  33.942  36.875  11.882
59075W        W18336   7.335  39.494   1.925
59076W        W18337   9.708  17.758  12.971
59077W        W18338  22.546  36.865  12.989
59078W        W18339   9.316   9.755   2.323
59079W        W18340  21.724  20.208  14.274
59080W        W18341   6.772  44.775  10.635
59081W        W18342  43.365  27.453   1.880
59082W        W18343  21.528  41.338  14.893
59083W        W18344  31.915   0.420  12.516
59084W        W18345   9.245   8.682  14.349
59085W        W18346   9.682  28.173   1.835
59086W        W18347  37.549  10.341  13.920
59087W        W18348  20.697  42.426  12.833
59088W        W18349  29.030  16.744   3.328
59089W        W18350  32.471   4.772   4.791
59090W        W18351  29.949   5.883  10.583
59091W        W18352   0.959   0.354   9.945
59092W        W18353  11.160  44.488  10.913
59093W        W18354  35.056  34.107   0.912
59094W        W18355  24.625  12.750   1.935
59095W        W18356  27.963   7.698  10.573
59096W        W18357  29.029  21.155  13.531
59097W        W18358  38.477  24.544   2.249
59098W        W18359  33.590   5.701   1.796
59099W        W18360  20.767  14.193   3.795
59100W        W18361  35.090  25.126  12.996
59101W        W18362  21.090  43.335  14.413
59102W        W18363   2.872  21.636   0.370
59103W        W18364  33.472   5.279  12.975
59104W        W18365  39.413  32.063   2.771
59105W        W18366  43.792  35.581  11.968
59106W        W18367  30.977  40.482   1.390
59107W        W18368  24.480  27.473  10.638
59108W        W18369  13.119  21.077   0.454
59109W        W18370   4.340  29.924  13.413
59110W        W18371  44.319  25.649  13.883
59111W        W18372  11.701  18.553  10.518
59112W        W18373   2.305  14.683   1.254
59113W        W18374  22.573  36.005   4.798
59114W        W18375  18.252   7.766   0.322
59115W        W18376   1.357  15.190  13.525
59116W        W18377   5.804  28.566   3.855
59117W        W18378  15.155  10.191   4.119
59118W        W18379  41.881  26.612  13.440
59119W        W18380  22.525  34.109  13.994
59120W        W18381  44.891  28.467   3.322
59121W        W18382  22.054  29.952  13.999
59122W        W18383  17.787  42.025  10.939
59123W        W18384  38.336  15.174  12.067
59124W        W18385  17.083  20.033  14.887
59125W        W18386  38.982  25.059   2.836
59126W        W18387  26.996  18.649   1.750
59127W        W18388  27.592  30.435  14.291
59128W        W18389   6.743  16.802  14.926
59129W        W18390   8.405  13.686  10.577
59130W        W18391  14.323  15.149  13.493
59131W        W18392   0.481  44.281  12.052
59132W        W18393  15.634  19.274  10.961
59133W        W18394  34.560  30.460  11.099
59134W        W18395  28.652  11.679   2.184
59135W        W18396  36.047  17.224   4.170
59136W        W18397  23.105  42.975   4.354
59137W        W18398  10.188  41.932  14.902
59138W        W18399   7.864  39.382  14.469
59139W        W18400  36.842  32.119   2.355
59140W        W18401  18.204   0.925  12.852
59141W        W18402   6.340   1.405  14.500
59142W        W18403  24.481   4.255   2.217
59143W        W18404   6.805  38.936   3.766
59144W        W18405  38.398   7.270  10.947
59145W        W18406  39.986   1.380  13.419
59146W        W18407  26.677   2.371   3.691
59147W        W18408  29.121  35.357  12.064
59148W        W18409  31.924   5.794   4.344
59149W        W18410  37.453  31.432   0.260
59150W        W18411   7.796  33.552   3.862
59151W        W18412   9.743  16.734   3.790
59152W        W18413  26.130  33.584   3.373
59153W        W18414  25.659  11.741  13.497
59154W        W18415  23.528   8.688   2.846
59155W        W18416  25.001  24.121  14.002
59156W        W18417  44.364   4.353  14.970
59157W        W18418   6.326  10.147   3.363
59158W        W18419  43.432   5.217  11.604
59159W        W18420  44.889   9.664   2.327
59160W        W18421   0.811  41.799   2.285
59161W        W18422   1.862  21.676  10.975
59162W        W18423   6.391   6.256  12.375
59163W        W18424  32.100  31.508   2.744
59164W        W18425  27.616  10.704   2.371
59165W        W18426   9.380  19.683   4.216
59166W        W18427   8.286  37.465  11.458
59167W        W18428  38.449  34.521   4.607
59168W        W18429  22.156  28.024   3.789
59169W        W18430  29.002  21.596   0.782
59170W        W18431   7.757  44.263  10.141
59171W        W18432  36.855  18.111   4.143
59172W        W18433  32.504  25.622  12.888
59173W        W18434  27.663  17.247  13.412
59174W        W18435  44.896  18.059   5.099
59175W        W18436  33.914  26.120  13.377
59176W        W18437  23.621  19.150   0.460
59177W        W18438   4.731  23.510  11.590
59178W        W18439  41.388  43.955   3.679
59179W        W18440  10.184  25.091   0.466
59180W        W18441  28.621  13.258   4.251
59181W        W18442  16.640  36.488   3.635
59182W        W18443  32.097  11.305   1.319
59183W        W18444  38.944  43.271   4.837
59184W        W18445  23.217   5.229   0.282
59185W        W18446  15.620  12.316  13.432
59186W        W18447  42.389  22.239  13.953
59187W        W18448  19.558  11.833  12.079
59188W        W18449  40.398  33.954   1.419
59189W        W18450  42.370  44.870   1.884
59190W        W18451  18.761   1.264  11.865
59191W        W18452  21.520   8.717  12.505
59192W        W18453  21.037  38.424  13.315
59193W        W18454  31.927  29.154   4.155
59194W        W18455  11.354  42.402  10.936
59195W        W18456  21.046  22.126   0.794
59196W        W18457   5.384  28.023   2.396
59197W        W18458   9.660  21.724  12.956
59198W        W18459  10.844  10.736  13.921
59199W        W18460  27.968  17.644   3.696
59200W        W18461  34.041  31.089  10.491
59201W        W18462  29.935  43.797   0.482
59202W        W18463  39.353  16.315   3.631
59203W        W18464  13.608  24.178   0.889
59204W        W18465   9.337  19.061  10.919
59205W        W18466  16.631   9.800   4.193
59206W        W18467  14.726  26.009  10.968
59207W        W18468  34.017  16.192  13.412
59208W        W18469  40.936  38.992  13.929
59209W        W18470   6.407  44.280  10.988
59210W        W18471  18.658   2.376  14.773
59211W        W18472  39.010  18.751   4.194
59212W        W18473  30.555  14.690   2.900
59213W        W18474  23.547  19.603   4.759
59214W        W18475   7.861  40.798   1.395
59215W        W18476  29.921  34.994   0.339
59216W        W18477  33.470  36.361   4.784
59217W        W18478  24.617   5.332   3.313
59218W        W18479  27.148  39.355   4.248
59219W        W18480  27.956  16.720   2.237
59220W        W18481  32.539   9.194   0.948
59221W        W18482  27.978  36.487   4.179
59222W        W18483   0.382  24.995   1.814
59223W        W18484  41.828  34.087  12.040
59224W        W18485   9.665  11.138   3.744
59225W        W18486  22.057  43.455   1.888
59226W        W18487   2.742  19.690  12.975
59227W        W18488  44.976   9.344   2.228
59228W        W18489  40.369  44.935   3.859
59229W        W18490   9.741   4.798  11.486
59230W        W18491  34.605  17.293  14.893
59231W        W18492  11.232  18.568  14.466
59232W        W18493  28.496  30.024   4.788
59233W        W18494  25.612   8.673   2.410
59234W        W18495  14.199  23.043  10.474
59235W        W18496  24.054  30.656  14.320
59236W        W18497  32.923  11.264  11.070
59237W        W18498  20.060  11.794   3.310
59238W        W18499  44.358  11.847   2.665
59239W        W18500   5.841  30.047  13.428
59240W        W18501   6.397  43.382   1.767
59241W        W18502  24.624  11.258  13.308
59242W        W18503  22.548  41.856   3.868
59243W        W18504  35.443  15.578  14.398
59244W        W18505  28.460  18.170  14.876
59245W        W18506  15.700   1.269   1.259
59246W        W18507  25.664   1.255  14.382
59247W        W18508   2.261   2.403  14.961
59248W        W18509  39.820   5.830  12.500
59249W        W18510  40.495  12.347   3.660
59250W        W18511  31.979   8.263  13.455
59251W        W18512  24.139  35.053   5.156
59252W        W18513  10.702  11.736   2.760
59253W        W18514  36.520  11.372  14.891
59254W        W18515  41.405  30.649  10.984
59255W        W18516  40.526  34.042   3.149
59256W        W18517  30.124  15.246   2.242
59257W        W18518  25.129  16.078  12.344
59258W        W18519   4.444   6.417  11.934
59259W        W18520  22.162  18.603   4.782
59260W        W18521   3.294  24.019  13.924
59261W        W18522  42.978   0.286   4.698
59262W        W18523   4.270  32.048   5.141
59263W        W18524  35.971  26.112   3.288
59264W        W18525  32.419  25.644   4.157
59265W        W18526  16.791  35.030   1.382
59266W        W18527  14.185  43.824  10.605
59267W        W18528   3.882  41.523   2.687
59268W        W18529  24.215  32.080   1.416
59269W        W18530  12.839  14.325   2.681
59270W        W18531  11.738  37.513   2.342
59271W        W18532   3.716  39.326   2.320
59272W        W18533  39.835   8.375   3.217
59273W        W18534  29.566  18.626   4.685
59274W        W18535  27.173  22.251  11.413
59275W        W18536   3.860  38.929  12.875
59276W        W18537  25.663   5.346  10.407
59277W        W18538  19.218  31.008  10.945
59278W        W18539  37.968  34.563   9.586
59279W        W18540  42.334  35.546   3.278
59280W        W18541  24.037  30.420   5.232
59281W        W18542   3.711  41.394   4.599
59282W        W18543  21.114  12.710   9.924
59283W        W18544   1.285   0.861  13.495
59284W        W18545   0.750  21.046  12.036
59285W        W18546  18.185  11.807  13.347
59286W        W18547  22.500   5.887  11.597
59287W        W18548  26.029  41.950   0.913
59288W        W18549  22.527  11.683  12.898
59289W        W18550  41.804  17.296  14.315
59290W        W18551   7.313  18.629  11.427
59291W        W18552  29.099  33.064  10.524
59292W        W18553  44.367   6.801  14.314
59293W        W18554  12.315  14.599   0.785
59294W        W18555  25.471  22.237  14.275
59295W        W18556  14.687  34.996  12.862
59296W        W18557   5.379  26.021  11.127
59297W        W18558   5.235  37.504   4.780
59298W        W18559  25.049   0.905   3.848
59299W        W18560   0.784   4.269   4.280
59300W        W18561   7.175  26.060  11.030
59301W        W18562  15.124   6.326   0.748
59302W        W18563  42.388  18.130  12.529
59303W        W18564  38.513  18.279  10.642
59304W        W18565  12.200  38.969   3.238
59305W        W18566   5.767   1.789   3.349
59306W        W18567  15.753  13.262  10.409
59307W        W18568  11.863  19.767  12.567
59308W        W18569  11.270  29.043   2.668
59309W        W18570  27.648   0.358   2.671
59310W        W18571  39.382  37.373  11.496
59311W        W18572  11.254  17.763   0.424
59312W        W18573   1.417  34.524  12.449
59313W        W18574  41.911  40.828  12.983
59314W        W18575  14.186  32.403  13.481
59315W        W18576  30.051  25.601   0.399
59316W        W18577   9.814   3.834   3.202
59317W        W18578  11.731   3.244  12.893
59318W        W18579  41.885  22.551   2.831
59319W        W18580  36.515  17.591  13.954
59320W        W18581   1.968  30.966  12.461
59321W        W18582  23.604   6.362  12.890
59322W        W18583   2.763  37.543   3.735
59323W        W18584  44.844  18.782   2.883
59324W        W18585  26.592  19.179  11.460
59325W        W18586  40.443  39.884   2.254
59326W        W18587  34.105   4.793  11.858
59327W        W18588  40.536  24.137   0.247
59328W        W18589  16.128  25.479  10.096
59329W        W18590  16.684  27.455   1.755
59330W        W18591  20.065  15.697   5.305
59331W        W18592  40.819   6.295   0.901
59332W        W18593  24.618   7.190   3.635
59333W        W18594  23.638  33.454  10.554
59334W        W18595  17.612  26.459  14.951
59335W        W18596  36.536  26.091  14.771
59336W        W18597  37.498   6.386   4.769
59337W        W18598  24.122   9.239   1.894
59338W        W18599  23.189  37.495   4.121
59339W        W18600  10.360  40.969   3.387
59340W        W18601  18.267  43.845   4.738
59341W        W18602  10.147   2.259   0.375
59342W        W18603  13.684   9.789  11.502
59343W        W18604  34.453  19.248  13.024
59344W        W18605  27.057  29.957   1.838
59345W        W18606  18.770   4.426  12.852
59346W        W18607  17.582  40.867   0.776
59347W        W18608   7.687  26.554   3.814
59348W        W18609  22.613  36.437  11.101
59349W        W18610   5.758  27.146  14.511
59350W        W18611  15.771   8.374  14.975
59351W        W18612  21.634  23.999   3.199
59352W        W18613  38.521  17.254   0.727
59353W        W18614  44.319  15.645  12.891
59354W        W18615  28.975  30.516   2.876
59355W        W18616  36.054  36.534  10.433
59356W        W18617   4.311  17.222  11.107
59357W        W18618   3.773   4.932   2.235
59358W        W18619  32.457  43.813   2.773
59359W        W18620  43.872  17.157  13.487
59360W        W18621  39.540  24.584  13.982
59361W        W18622  42.289  42.030   4.632
59362W        W18623   9.863  37.382  13.002
59363W        W18624  43.377  21.044  14.989
59364W        W18625  35.441  10.141   4.291
59365W        W18626  40.802  13.265  11.421
59366W        W18627  23.626  36.419  14.922
59367W        W18628  20.570  41.496   0.810
59368W        W18629   2.936  40.047   1.810
59369W        W18630  23.572  13.725   2.248
59370W        W18631  35.389  40.329  11.009
59371W        W18632   7.186   6.923  12.581
59372W        W18633  32.099   3.318  10.941
59373W        W18634  21.206  32.947   4.678
59374W        W18635  19.754  41.333  11.074
59375W        W18636  31.486  44.322   3.830
59376W        W18637  18.576  40.385  11.428
59377W        W18638  27.974  23.615   2.869
59378W        W18639  37.454  44.838  10.897
59379W        W18640  26.589  38.567   0.400
59380W        W18641  18.201  37.515  10.421
59381W        W18642  32.637  20.096  12.478
59382W        W18643  36.564  29.504  13.894
59383W        W18644  25.148  19.708  13.501
59384W        W18645  35.896  21.657   1.255
59385W        W18646  11.304   4.758   4.297
59386W        W18647   1.905  28.943  11.417
59387W        W18648  24.646  18.257  11.413
59388W        W18649  17.689  29.607  14.342
59389W        W18650  36.554  36.443   3.661
59390W        W18651  17.109  18.248   2.663
59391W        W18652  13.170  29.539  14.413
59392W        W18653  24.979  14.207   4.773
59393W        W18654  20.068  25.185   0.871
59394W        W18655  32.478   5.200  11.941
59395W        W18656   8.737   5.221  11.866
59396W        W18657   8.657  21.526   3.208
59397W        W18658  42.789  41.405  12.031
59398W        W18659  38.949   9.847   4.707
59399W        W18660   3.444  44.871  12.425
59400W        W18661   1.325  26.548  13.407
59401W        W18662  13.259  25.701  13.869
59402W        W18663   9.859  42.785  14.997
59403W        W18664  24.189  20.114   3.666
59404W        W18665  21.618   9.228   2.304
59405W        W18666  16.691   9.794   3.682
59406W        W18667   8.811   5.225   3.150
59407W        W18668  10.641  28.026   2.253
59408W        W18669   9.330  15.578   0.961
59409W        W18670  37.067  18.558  14.007
59410W        W18671  16.294  30.607  11.377
59411W        W18672  32.424  32.937   1.357
59412W        W18673  42.301  44.458   2.312
59413W        W18674  21.674  15.135  14.008
59414W        W18675   8.227   9.748  11.945
59415W        W18676  33.514   1.446   4.615
59416W        W18677   1.368  37.536   0.407
59417W        W18678  36.412  11.318  10.940
59418W        W18679   1.470  22.012   4.764
59419W        W18680  34.071   3.883   1.771
59420W        W18681  20.621  19.587   2.754
59421W        W18682   2.951  16.606   2.739
59422W        W18683   2.861   2.759  11.060
59423W        W18684  13.271  27.006   1.928
59424W        W18685  17.221  12.792   4.347
59425W        W18686  17.284   8.717   4.189
59426W        W18687  10.375  12.649  11.473
59427W        W18688  40.402  38.348  10.523
59428W        W18689   1.355  31.603  10.450
59429W        W18690  18.790  28.562   2.311
59430W        W18691  36.456   2.313   0.922
59431W        W18692   9.676  18.709  11.877
59432W        W18693  39.883  13.277  13.890
59433W        W18694  38.405  32.477  11.096
59434W        W18695  20.687  31.637  10.909
59435W        W18696  11.722  28.437  12.551
59436W        W18697  44.391   3.259   4.203
59437W        W18698  20.228   9.342  14.019
59438W        W18699  16.216  32.402  11.088
59439W        W18700  17.264   5.333  12.857
59440W        W18701   4.863  28.511   3.725
59441W        W18702   3.220  14.297   1.907
59442W        W18703  18.127  31.981  13.523
59443W        W18704   3.740   9.766   3.372
59444W        W18705   6.861   3.226   4.198
59445W        W18706  22.523   1.430   0.476
59446W        W18707  22.196  43.374   2.699
59447W        W18708  15.757  39.402  12.886
59448W        W18709  28.015  10.247   1.426
59449W        W18710   4.887   2.442  14.990
59450W        W18711  21.662  16.113  12.456
59451W        W18712   0.444  15.697  12.391
59452W        W18713  35.576  31.996   0.757
59453W        W18714  32.403  26.539   3.195
59454W        W18715   8.354  18.206   2.858
59455W        W18716  15.814  40.541   2.840
59456W        W18717  29.487  39.497   1.741
59457W        W18718  25.587  26.039  10.465
59458W        W18719  30.112  22.223   3.664
59459W        W18720  43.482  37.070   1.335
59460W        W18721  31.448   8.254  11.978
59461W        W18722  42.822  22.102   4.268
59462W        W18723   3.787   6.377  14.799
59463W        W18724  36.544  14.751   0.856
59464W        W18725  10.767  31.063   3.719
59465W        W18726   6.393  22.602   3.740
59466W        W18727  30.925   2.407  14.001
59467W        W18728  28.986  18.054  11.569
59468W        W18729  42.391   6.230   2.279
59469W        W18730  27.475  38.544   0.267
59470W        W18731   3.811  39.467   4.754
59471W        W18732   9.797  17.644  11.066
59472W        W18733  15.779  12.195  13.949
59473W        W18734  33.930  34.032  10.410
59474W        W18735  22.509  27.123   1.355
59475W        W18736   9.722  23.080   0.750
59476W        W18737  17.619  17.609  12.493
59477W        W18738   3.380   4.863  13.902
59478W        W18739   8.294   3.451  14.014
59479W        W18740  32.562  40.873  12.522
59480W        W18741  44.953  34.498  11.063
59481W        W18742   4.792  37.035   1.399
59482W        W18743  24.584   7.772  13.414
59483W        W18744  36.913   1.964  14.324
59484W        W18745  33.499   1.903   1.810
59485W        W18746   3.422  35.907  11.010
59486W        W18747   4.882   3.438   2.271
59487W        W18748  19.649  32.002   3.757
59488W        W18749  28.086   9.392  11.563
59489W        W18750  38.527  21.542  13.997
59490W        W18751  27.459  12.700   4.683
59491W        W18752  39.006  17.704  14.931
59492W        W18753  27.983  15.727  11.884
59493W        W18754   5.307   5.329   3.854
59494W        W18755   6.210  20.673   0.347
59495W        W18756  24.657  39.005   2.343
59496W        W18757  36.554  10.767  11.915
59497W        W18758  33.585  17.747   1.824
59498W        W18759   0.784  12.232   2.843
59499W        W18760  23.663   3.271   2.716
59500W        W18761  13.735  32.962  10.907
59501W        W18762   2.804  43.492   2.709
59502W        W18763  13.324  22.161  10.119
59503W        W18764  22.103  26.541  14.981
59504W        W18765  44.328  30.532   3.810
59505W        W18766  30.912   8.814   2.669
59506W        W18767  11.791  21.599  11.496
59507W        W18768  34.003   1.912   3.805
59508W        W18769  27.190  38.950  12.013
59509W        W18770  12.258   0.796   1.421
59510W        W18771  39.040   7.402  12.471
59511W        W18772  19.087  38.905   4.758
59512W        W18773  30.601  18.076  13.972
59513W        W18774  32.432  33.127   4.710
59514W        W18775  26.622  44.861  10.493
59515W        W18776  30.642  18.060  14.767
59516W        W18777  29.051  39.531   0.784
59517W        W18778  25.538  25.648  14.487
59518W        W18779  20.152  37.389   2.330
59519W        W18780  44.326  15.767  10.572
59520W        W18781   6.384  14.641   1.883
59521W        W18782  15.796  39.914   4.801
59522W        W18783  42.527   7.879   1.816
59523W        W18784   6.277  37.365   2.750
59524W        W18785  20.609  33.520  13.362
59525W        W18786  20.215  29.471  12.418
59526W        W18787   0.780  31.448   1.776
59527W        W18788   8.233  26.012  14.876
59528W        W18789   1.428   0.898   2.402
59529W        W18790  41.358  33.550   2.305
59530W        W18791  21.757  31.982   1.725
59531W        W18792  17.797  17.584  13.871
59532W        W18793  36.889  21.145  13.863
59533W        W18794  29.975   3.335  14.504
59534W        W18795  23.186  19.128   2.375
59535W        W18796   8.307  24.499  11.579
59536W        W18797  22.569  40.422  10.900
59537W        W18798  15.238   8.682   0.945
59538W        W18799  11.731   9.780  12.018
59539W        W18800  38.996  34.517   0.902
59540W        W18801  40.463  15.683  13.518
59541W        W18802  40.965  25.506   1.914
59542W        W18803  22.597  24.531  13.473
59543W        W18804   0.814   0.447  11.483
59544W        W18805  19.596  24.988   2.756
59545W        W18806  11.166  39.016  13.534
59546W        W18807  23.499  43.395   0.329
59547W        W18808   8.204  44.268  13.528
59548W        W18809  42.860  40.479   0.882
59549W        W18810  24.064   6.777  11.546
59550W        W18811  41.975  42.809  10.040
59551W        W18812  31.541  29.584   0.875
59552W        W18813  39.823   8.854  10.606
59553W        W18814  44.435  37.920   9.558
59554W        W18815   4.381  17.254   2.319
59555W        W18816   0.394  15.267   3.303
59556W        W18817   8.743   0.319   9.951
59557W        W18818   0.810  11.260   3.175
59558W        W18819  17.577  25.015   4.666
59559W        W18820   1.482  16.706  14.416
59560W        W18821  24.615  19.123  10.488
59561W        W18822  38.979  10.288   0.274
59562W        W18823  27.029  35.008   1.795
59563W        W18824  37.406  39.925  14.981
59564W        W18825  19.535  28.158   3.807
59565W        W18826  27.034  18.670  14.891
59566W        W18827  24.591  27.645   2.194
59567W        W18828  38.368  20.590  11.494
59568W        W18829  10.667  12.257   4.648
59569W        W18830  41.316   6.867   3.253
59570W        W18831   2.461   6.327   1.281
59571W        W18832  13.654  35.593   1.833
59572W        W18833  27.629  11.355   1.362
59573W        W18834  36.538  19.580  10.418
59574W        W18835  31.052  39.977   1.321
59575W        W18836  33.955  36.412   4.136
59576W        W18837  23.227  19.633   0.394
59577W        W18838  20.631   2.453   2.245
59578W        W18839  41.981  41.940   1.379
59579W        W18840  11.732  19.247   3.668
59580W        W18841   6.380   1.367   0.243
59581W        W18842  15.129  14.222  12.969
59582W        W18843   7.314  40.923  14.320
59583W        W18844  38.969  27.488   4.136
59584W        W18845   2.338  36.531  10.541
59585W        W18846  15.101  24.100  11.095
59586W        W18847  36.859  11.317   0.886
59587W        W18848  34.019   6.254  13.053
59588W        W18849  24.034   6.893   0.327
59589W        W18850  13.818   5.401   2.854
59590W        W18851  22.618  27.515  10.977
59591W        W18852   5.379  10.729  14.834
59592W        W18853   8.730  36.982  10.564
59593W        W18854  17.226  41.364   2.353
59594W        W18855   4.720  18.125  14.962
59595W        W18856  36.849  42.357   4.662
59596W        W18857  13.607   1.828   2.365
59597W        W18858  38.928   9.710   2.248
59598W        W18859  38.446  33.947   0.844
59599W        W18860  26.664  30.011   2.281
59600W        W18861  41.033  26.626  12.509
59601W        W18862  42.479  29.482   9.521
59602W        W18863  26.093  11.365   4.785
59603W        W18864  20.257  20.231   2.712
59604W        W18865  27.089  38.920   4.178
59605W        W18866  25.970  13.695  11.868
59606W        W18867  39.537  11.719   3.811
59607W        W18868   3.886  26.470  10.529
59608W        W18869   5.792  32.520  12.402
59609W        W18870  10.635  29.140   0.410
59610W        W18871   4.771  43.417   4.648
59611W        W18872  19.573  24.643   2.723
59612W        W18873   3.926  34.094  13.825
59613W        W18874   7.908  31.037   4.750
59614W        W18875  13.123  18.076   5.287
59615W        W18876  36.354  12.790   2.252
59616W        W18877  18.769  39.830  13.971
59617W        W18878  12.132  32.934   4.707
59618W        W18879  39.462  20.220  12.412
59619W        W18880  35.405  23.635   2.676
59620W        W18881   0.343  11.719   4.833
59621W        W18882  35.412  44.288   1.394
59622W        W18883   1.385  14.638  11.557
59623W        W18884  43.462  43.952   1.714
59624W        W18885  22.098  19.197  12.825
59625W        W18886  39.408  41.788   3.754
59626W        W18887   7.215  15.680  14.369
59627W        W18888   1.914   7.291  13.905
59628W        W18889   0.801  23.502   2.374
59629W        W18890  12.730  15.670  12.041
59630W        W18891   4.421  29.541   4.131
59631W        W18892  21.732   5.872  11.079
59632W        W18893  10.696  29.516  12.964
59633W        W18894  34.943  32.910  14.862
59634W        W18895  12.264  40.873  13.944
59635W        W18896  11.320  31.971   2.397
59636W        W18897   2.307  18.562  12.881
59637W        W18898   8.694  27.451   0.816
59638W        W18899  29.565  33.610   3.836
59639W        W18900  32.118  16.613  10.985
59640W        W18901  38.504  11.652   0.246
59641W        W18902  28.989   0.873  12.047
59642W        W18903  22.126  19.200   3.238
59643W        W18904  23.603  30.501   3.746
59644W        W18905  30.528  14.610  11.556
59645W        W18906  37.370  34.867   1.792
59646W        W18907  19.552  18.745  12.563
59647W        W18908  44.807  21.079   2.345
59648W        W18909  26.538  39.816   3.160
59649W        W18910   8.393  25.515  14.285
59650W        W18911  38.412  19.715  14.404
59651W        W18912  29.166  10.228   4.834
59652W        W18913  18.717   9.845  12.023
59653W        W18914  13.146   8.297   0.264
59654W        W18915   4.253  39.324   3.770
59655W        W18916  32.899  44.809   3.732
59656W        W18917  28.517  29.474  11.485
59657W        W18918  33.487  35.415   2.706
59658W        W18919  39.510  16.207  11.126
59659W        W18920  38.820  26.627  14.015
59660W        W18921   4.360  29.967  14.440
59661W        W18922  31.620  20.553  13.887
59662W        W18923  11.330  15.147  10.968
59663W        W18924  24.224  36.047  13.837
59664W        W18925  42.405   3.316   3.698
59665W        W18926  36.585  21.679   2.192
59666W        W18927  33.939   8.725  13.964
59667W        W18928  28.013  44.337   3.833
59668W        W18929  10.644  25.563  11.039
59669W        W18930  16.681  25.005  11.570
59670W        W18931   1.251  33.032   4.266
59671W        W18932  23.150  14.201  14.496
59672W        W18933  36.025   3.334  12.899
59673W        W18934  28.171  23.601   1.283
59674W        W18935  35.071  12.203  10.929
59675W        W18936  42.890   1.738  12.974
59676W        W18937   8.263   8.884   4.237
59677W        W18938  16.261   0.785   4.808
59678W        W18939  18.241   1.749   1.348
59679W        W18940  21.585  13.120  13.439
59680W        W18941  25.496  38.363  13.320
59681W        W18942  18.257  11.844  12.066
59682W        W18943  20.117  19.115   1.905
59683W        W18944  39.410  21.739  10.965
59684W        W18945  26.191  20.646  13.524
59685W        W18946   0.967  15.149   4.646
59686W        W18947  15.735  42.466   2.826
59687W        W18948  40.375   6.726  13.478
59688W        W18949  34.554   0.487   1.908
59689W        W18950  28.991  18.130  10.959
59690W        W18951   2.384   8.887   0.255
59691W        W18952  39.878  44.809   2.251
59692W        W18953  21.097  39.891   3.712
59693W        W18954  23.055  26.560   0.448
59694W        W18955  34.517  42.333   3.809
59695W        W18956  30.026  13.146   4.663
59696W        W18957   7.768   9.672  14.989
59697W        W18958   8.730  18.696   1.403
59698W        W18959  14.654   4.805   2.228
59699W        W18960  44.419  18.277  13.330
59700W        W18961  42.822   1.350   3.381
59701W        W18962  10.292   7.901  11.911
59702W        W18963  35.977  20.671  10.504
59703W        W18964  35.359   0.340   2.257
59704W        W18965  19.050  38.502  13.051
59705W        W18966  19.051  33.964   0.784
59706W        W18967   4.440   9.744  13.384
59707W        W18968   8.822  20.098   1.886
59708W        W18969  19.768  36.903   2.319
59709W        W18970  11.678  43.972  14.402
59710W        W18971  25.473  24.523   2.382
59711W        W18972  21.721  42.916   2.798
59712W        W18973  44.979  16.579   0.854
59713W        W18974  39.552  14.604  11.858
59714W        W18975  39.475  12.312   4.136
59715W        W18976  37.966   1.969  10.916
59716W        W18977  35.392  14.228  11.901
59717W        W18978  34.524  38.346   2.894
59718W        W18979  34.405  36.416  14.022
59719W        W18980   8.875  32.922   0.775
59720W        W18981  16.278  16.224   2.301
59721W        W18982   2.379  37.080   0.293
59722W        W18983  31.937   4.416  13.543
59723W        W18984  21.541   9.165  10.549
59724W        W18985  12.257  35.483  12.435
59725W        W18986  24.013  40.359  14.917
59726W        W18987  42.392  37.873  12.869
59727W        W18988   5.272  26.143  12.089
59728W        W18989   3.376  41.856  14.385
59729W        W18990  17.092  41.374   3.793
59730W        W18991  43.425   4.916  14.469
59731W        W18992  27.965   7.699   0.480
59732W        W18993  40.898   3.938   2.735
59733W        W18994   2.847   7.799   4.325
59734W        W18995  13.622  14.278  12.074
59735W        W18996  36.037  40.303  14.776
59736W        W18997  29.050  26.571  11.124
59737W        W18998   4.724  34.560   3.644
59738W        W18999  34.069   3.413  11.017
59739W        W19000   6.250   1.755  13.376
59740W        W19001   1.383  40.019   1.914
59741W        W19002  36.016  17.781   2.244
59742W        W19003  28.056  27.658   2.775
59743W        W19004  44.298   8.219   3.650
59744W        W19005   7.189  41.003   3.223
59745W        W19006   1.878  15.734  10.587
59746W        W19007  22.554  19.745   2.823
59747W        W19008   3.784   6.703   4.765
59748W        W19009  33.417  44.259  10.117
59749W        W19010  18.551   4.847  14.457
59750W        W19011  20.056  10.249   3.852
59751W        W19012  34.461   1.946  13.454
59752W        W19013  30.035  32.049   4.182
59753W        W19014  27.161  19.772   2.197
59754W        W19015   0.882  17.772   0.412
59755W        W19016  32.482  35.974   1.265
59756W        W19017   2.317   8.664  14.319
59757W        W19018   5.406  12.834   3.207
59758W        W19019  39.836  17.690  10.151
59759W        W19020  23.528  13.650  11.969
59760W        W19021  30.954  10.138   0.315
59761W        W19022  14.781  15.265  14.767
59762W        W19023   2.435   5.765   1.391
59763W        W19024  29.988  10.639   0.757
59764W        W19025  12.119  32.526   4.825
59765W        W19026   3.755  42.886   4.144
59766W        W19027   3.805   6.697   1.781
59767W        W19028  24.107  21.196   0.247
59768W        W19029   8.898  31.138  13.061
59769W        W19030   1.475  21.043   1.902
59770W        W19031  24.131  30.129  14.940
59771W        W19032  34.417   6.837   4.601
59772W        W19033  40.504  25.118  11.913
59773W        W19034  12.854  34.377  14.341
59774W        W19035   2.256   8.885   1.226
59775W        W19036  31.436  26.004   4.127
59776W        W19037  19.284  32.457   0.815
59777W        W19038  42.379  10.786   3.765
59778W        W19039  37.459  35.862  10.888
59779W        W19040  25.548   3.766  12.921
59780W        W19041   4.702   7.322   0.863
59781W        W19042  41.931  23.549   2.290
59782W        W19043  44.783  11.844   4.708
59783W        W19044  39.492   5.266  13.490
59784W        W19045  32.503   1.332  13.429
59785W        W19046   6.231  37.566   0.838
59786W        W19047  29.637  35.078   3.635
59787W        W19048  12.307  34.584   0.804
59788W        W19049  19.125  21.101  13.462
59789W        W19050  27.972  44.449  13.516
59790W        W19051  41.006  44.260   4.653
59791W        W19052  34.097  35.007  11.905
59792W        W19053  41.348   3.371  11.110
59793W        W19054  27.661  41.518  11.863
59794W        W19055  43.940  38.431   1.395
59795W        W19056  37.568  18.657  13.313
59796W        W19057  29.432  10.253  11.915
59797W        W19058  22.136   1.856   3.255
59798W        W19059   3.404  28.670   0.304
59799W        W19060  24.997  26.692  12.019
59800W        W19061  28.663  40.514   3.841
59801W        W19062  19.222  39.894   4.336
59802W        W19063  30.507  35.931   0.783
59803W        W19064  16.306  18.642   3.761
59804W        W19065  18.755  20.713  12.418
59805W        W19066  37.072  23.531   2.796
59806W        W19067   2.825  18.283   0.478
59807W        W19068  30.029   0.903   0.774
59808W        W19069  21.025  26.021   1.382
59809W        W19070  23.680  40.879  14.284
59810W        W19071  11.642  16.634   0.878
59811W        W19072  39.349  25.130  12.380
59812W        W19073  29.944  31.474   2.231
59813W        W19074  32.065  42.431  14.817
59814W        W19075   1.760  34.603  12.502
59815W        W19076  41.447  12.273  13.816
59816W        W19077  41.867   2.783   4.222
59817W        W19078   2.806  25.179  12.432
59818W        W19079   4.865   3.932  11.061
59819W        W19080  35.855  37.052   1.926
59820W        W19081  19.664  42.775   3.224
59821W        W19082  28.992  35.073  13.812
59822W        W19083  25.513  14.204  13.312
59823W        W19084  43.412  35.548   1.283
59824W        W19085  17.777  28.681  12.486
59825W        W19086  28.029  35.499  14.422
59826W        W19087   7.390  21.700  14.795
59827W        W19088   2.854  14.798   1.702
59828W        W19089  34.965  29.030   1.724
59829W        W19090  36.076  36.571  12.959
59830W        W19091   2.875   0.466   3.155
59831W        W19092  16.654  35.923  14.395
59832W        W19093   8.790  29.653   3.255
59833W        W19094  24.501   0.403  12.537
59834W        W19095  15.693   4.430   5.216
59835W        W19096  22.116  23.524  13.985
59836W        W19097  32.429  11.732  11.073
59837W        W19098  36.468  19.179  10.584
59838W        W19099  10.168  13.769   4.599
59839W        W19100  41.920  28.102  12.469
59840W        W19101  38.883  22.660   0.846
59841W        W19102  24.031  41.814  11.527
59842W        W19103  44.980  44.851  11.886
59843W        W19104   5.230  30.587   4.288
59844W        W19105  40.528  32.523  12.498
59845W        W19106  41.957  21.605   2.389
59846W        W19107  40.053   7.723   4.743
59847W        W19108  39.459  20.068   1.795
59848W        W19109   8.888  17.772  12.913
59849W        W19110  20.582  20.660  11.980
59850W        W19111  22.617  18.206  10.480
59851W        W19112  23.534  36.976   0.901
59852W        W19113  30.455   3.317   5.183
59853W        W19114  41.349  27.188   1.929
59854W        W19115  21.166  24.716   3.255
59855W        W19116  36.452  42.805  14.324
59856W        W19117  34.386  20.563   1.262
59857W        W19118  22.146  15.602  13.063
59858W        W19119  37.511  25.015   0.309
59859W        W19120   6.861  19.595   0.749
59860W        W19121  31.549  19.706   3.766
59861W        W19122  36.516  27.179   3.173
59862W        W19123   9.219  11.253  10.907
59863W        W19124   5.842  28.629  12.365
59864W        W19125  18.646  11.365   0.792
59865W        W19126  42.798   3.288  14.796
59866W        W19127   3.398  37.014   4.642
59867W        W19128  32.479  37.881   3.795
59868W        W19129   8.686  31.460   4.643
59869W        W19130  42.945  20.537   5.225
59870W        W19131  39.443   5.887   0.912
59871W        W19132  18.276   4.429   3.794
59872W        W19133  35.515  43.395  12.347
59873W        W19134  35.411  18.217   0.366
59874W        W19135  15.087   9.859  11.964
59875W        W19136  15.234  26.650   3.751
59876W        W19137  42.828  19.640   1.876
59877W        W19138  20.715  37.477   0.411
59878W        W19139   5.879  34.917  14.315
59879W        W19140  19.596  20.119  10.033
59880W        W19141  27.188  35.506   3.721
59881W        W19142   6.288  30.476   0.813
59882W        W19143  24.686  30.127   1.226
59883W        W19144  13.835  23.699   0.864
59884W        W19145  36.978  26.462   3.783
59885W        W19146  11.251  32.049  13.814
59886W        W19147  33.452  17.679   3.306
59887W        W19148  13.799  41.325   3.662
59888W        W19149   6.428  19.110   1.343
59889W        W19150  40.371   4.224  14.284
59890W        W19151   0.939  11.238  12.386
59891W        W19152  44.473  22.658   0.968
59892W        W19153   4.839   0.286   4.272
59893W        W19154  19.690   4.407   0.899
59894W        W19155  24.650  43.356   3.682
59895W        W19156  22.152  12.329   1.319
59896W        W19157  31.587  39.439  12.875
59897W        W19158  42.438  20.678   2.686
59898W        W19159  25.509   8.787  14.451
59899W        W19160  17.301  13.182   2.792
59900W        W19161  20.651  36.433  13.982
59901W        W19162   8.734  10.669  14.841
59902W        W19163  39.048  36.080   2.307
59903W        W19164  21.687  43.014  12.980
59904W        W19165  43.276   8.400   4.118
59905W        W19166  28.031  25.975   1.870
59906W        W19167  28.509  37.443   0.468
59907W        W19168  39.560  17.791   3.861
59908W        W19169   4.895  23.048   2.779
59909W        W19170  12.224  10.330   1.432
59910W        W19171  10.151   3.259   1.788
59911W        W19172   5.931  43.344  13.019
59912W        W19173  16.157   4.755  12.854
59913W        W19174  28.456  24.670  10.427
59914W        W19175  38.952  18.625   5.642
59915W        W19176   1.826  38.565  11.998
59916W        W19177  14.139   0.494   1.712
59917W        W19178  34.884   3.296   5.202
59918W        W19179   6.276  44.275  10.427
59919W        W19180  14.241   3.746   3.185
59920W        W19181  17.290  39.058   1.266
59921W        W19182  35.460  24.527  14.301
59922W        W19183  37.997   7.295   2.824
59923W        W19184   0.987   0.743   3.712
59924W        W19185  21.261   0.478   3.354
59925W        W19186  33.060  29.648  10.554
59926W        W19187  17.066  43.337  14.836
59927W        W19188  14.591  16.696  11.127
59928W        W19189   0.753  26.094   1.844
59929W        W19190   3.436  17.137   0.736
59930W        W19191  14.816   1.861  13.515
59931W        W19192  31.465   8.163  14.902
59932W        W19193  28.003  20.044   4.335
59933W        W19194   8.221   9.831  11.434
59934W        W19195  19.070   2.470  12.378
59935W        W19196   1.399  39.504  13.356
59936W        W19197  22.021  14.783   4.217
59937W        W19198  17.113   8.866   1.332
59938W        W19199   4.876  20.645  14.335
59939W        W19200  20.645  10.784   2.287
59940W        W19201   1.268  10.774  12.840
59941W        W19202   1.831  21.240  11.029
59942W        W19203  12.730  29.007   5.223
59943W        W19204  44.861   5.288   3.668
59944W        W19205  17.264  38.004  13.798
59945W        W19206  16.714   0.265  11.977
59946W        W19207  41.990   3.307  10.029
59947W        W19208   3.767  42.504  14.977
59948W        W19209  21.677  23.086  11.390
59949W        W19210  44.767  26.498   3.179
59950W        W19211  36.036  39.487  12.429
59951W        W19212   0.887  32.945   2.280
59952W        W19213  40.046  44.502   1.219
59953W        W19214  20.254  10.850   1.441
59954W        W19215  10.760  44.876   0.478
59955W        W19216  40.456  27.483  13.968
59956W        W19217   3.854  23.239  10.933
59957W        W19218  34.520   8.663   1.434
59958W        W19219  42.346  27.168   0.398
59959W        W19220  32.891  13.706  14.881
59960W        W19221  18.550  36.049   9.924
59961W        W19222  22.742  23.494  12.999
59962W        W19223  16.767  26.549  12.917
59963W        W19224  16.115  32.569   0.841
59964W        W19225  41.825  29.069  12.970
59965W        W19226  36.053  16.206   2.892
59966W        W19227  35.582   2.275   3.723
59967W        W19228  27.653  25.478  12.074
59968W        W19229  11.198  10.361   1.385
59969W        W19230  24.033  32.534  11.910
59970W        W19231  37.438  36.943  11.907
59971W        W19232  10.215  34.417  10.427
59972W        W19233  34.499  31.517  14.903
59973W        W19234  24.142  15.211  11.022
59974W        W19235  16.305  33.456   2.268
59975W        W19236  10.340  11.645  11.966
59976W        W19237  16.132  10.843  11.607
59977W        W19238  32.608  19.256   0.270
59978W        W19239  38.875   4.829   3.781
59979W        W19240  34.865  10.323   0.736
59980W        W19241  29.923  28.949   1.371
59981W        W19242  19.600  28.081  10.412
59982W        W19243  33.021  22.606  10.908
59983W        W19244  29.425   6.723  12.446
59984W        W19245  14.234  23.679  14.887
59985W        W19246  12.211   9.799  13.405
59986W        W19247  28.085  38.420  10.151
59987W        W19248  35.413  43.472   4.742
59988W        W19249  43.374   7.769   4.812
59989W        W19250   0.408   9.204  12.904
59990W        W19251  26.509  19.737  11.977
59991W        W19252  12.758  24.539  12.080
59992W        W19253  34.999   2.741   1.803
59993W        W19254  41.478  43.766  12.504
59994W        W19255  30.117   1.834  12.005
59995W        W19256   7.895  17.167   1.846
59996W        W19257  13.686   5.799   2.320
59997W        W19258  23.069   2.852   4.836
59998W        W19259   0.891   4.726   2.895
59999W        W19260  15.241  23.571  12.345
60000W        W19261  37.847  44.450   3.356
60001W        W19262  10.263  27.087  14.008
60002W        W19263  13.322   4.372   2.393
60003W        W19264  27.188   9.877  14.344
60004W        W19265  40.985  40.014  10.406
60005W        W19266  36.972  29.094   1.906
60006W        W19267  35.019  15.106  14.023
60007W        W19268   0.285   8.883   1.866
60008W        W19269  33.879  38.025  11.014
60009W        W19270  24.625  21.119   4.167
60010W        W19271   9.354  15.798   0.341
60011W        W19272  18.208  18.596  14.332
60012W        W19273  21.203  36.439  10.941
60013W        W19274  36.525  27.996   0.428
60014W        W19275  26.172   7.823   4.159
60015W        W19276  39.917   5.771  10.482
60016W        W19277   6.240  38.866  10.448
60017W        W19278  10.167  27.087  12.481
60018W        W19279  35.971  17.565   0.813
60019W        W19280  35.484  36.053  10.600
60020W        W19281  16.752  42.928   5.158
60021W        W19282  31.949  34.105   2.379
60022W        W19283  14.668  19.121  13.380
60023W        W19284  38.541  37.515   3.277
60024W        W19285  15.817   6.897  10.047
60025W        W19286   0.426  28.988  12.394
60026W        W19287  30.413   7.295   4.300
60027W        W19288  14.629   2.331  11.452
60028W        W19289  24.673   2.932  13.911
60029W        W19290  18.581  25.039   3.720
60030W        W19291   8.232  26.045   2.665
60031W        W19292   9.757  22.502  10.975
60032W        W19293  26.994  43.477  11.905
60033W        W19294   7.739  44.900   2.205
60034W        W19295   3.256  12.233   0.738
60035W        W19296  41.485  32.935  12.346
60036W        W19297  38.943  36.962  12.039
60037W        W19298   5.787  35.582   0.809
60038W        W19299   6.364  24.566   0.848
60039W        W19300   9.790   4.375   1.844
60040W        W19301   7.233  13.752  12.358
60041W        W19302  35.081  23.625   0.951
60042W        W19303   9.258  44.991   0.351
60043W        W19304  44.974   3.383   3.637
60044W        W19305  39.813  34.991  11.995
60045W        W19306  40.923  12.792  14.776
60046W        W19307  41.493  44.291   1.287
60047W        W19308   2.366  28.527   0.873
60048W        W19309  16.741  12.714  12.835
60049W        W19310  33.595  11.241  11.049
60050W        W19311  33.578  13.183   0.405
60051W        W19312  34.418  32.938  11.430
60052W        W19313  14.786  37.989  13.974
60053W        W19314  25.052  20.738  13.031
60054W        W19315   2.770  17.768   3.651
60055W        W19316  37.951  16.253  11.485
60056W        W19317  10.173  29.944  11.452
60057W        W19318  17.581  21.194  12.396
60058W        W19319   1.243  19.109  10.977
60059W        W19320  15.791  37.571   0.313
60060W        W19321  24.015  21.604   3.704
60061W        W19322   5.301   7.258  13.482
60062W        W19323  21.030  36.540  14.288
60063W        W19324  35.063  34.008  10.429
60064W        W19325   5.356  30.522  12.435
60065W        W19326  26.039  13.187  11.996
60066W        W19327  35.429   2.783  12.412
60067W        W19328  33.523   1.935   2.710
60068W        W19329  33.912  20.634   1.378
60069W        W19330  44.000   0.761  12.921
60070W        W19331   9.746  38.520  14.393
60071W        W19332  41.432  34.030  11.008
60072W        W19333  14.802   1.793  12.078
60073W        W19334  32.475  23.134   3.151
60074W        W19335  35.375  35.089   0.848
60075W        W19336  44.847   9.804   3.342
60076W        W19337  30.122  41.423  11.490
60077W        W19338  30.116  14.762  10.446
60078W        W19339  23.065  29.918  12.952
60079W        W19340  33.548  22.044  13.361
60080W        W19341  40.897  40.969  11.438
60081W        W19342  21.667  21.188  12.492
60082W        W19343  21.617  15.215   1.800
60083W        W19344  17.155  14.098   0.368
60084W        W19345   7.808   1.345  13.859
60085W        W19346  29.979  10.701   2.694
60086W        W19347  38.523  10.689  14.367
60087W        W19348  24.607  24.499   4.616
60088W        W19349  30.418  12.296  14.005
60089W        W19350  19.106  18.611  14.485
60090W        W19351  16.633  41.327  10.995
60091W        W19352  33.613  23.187  10.090
60092W        W19353   9.765   0.793  12.970
60093W        W19354  44.293  20.209  13.911
60094W        W19355  35.396  11.782  13.901
60095W        W19356   9.782   1.772   4.639
60096W        W19357  13.796  39.559   1.296
60097W        W19358  25.666   9.288   2.287
60098W        W19359  40.506  15.133  14.350
60099W        W19360  32.628  40.336   0.400
60100W        W19361  23.492  18.716   0.410
60101W        W19362  36.883  16.113   2.869
60102W        W19363  29.967  25.608   2.178
60103W        W19364  24.030   1.879   3.205
60104W        W19365  26.126  43.379   0.748
60105W        W19366   6.388   6.795  12.024
60106W        W19367  39.357  24.076  13.396
60107W        W19368  40.417  22.042  13.000
60108W        W19369  20.625  21.141   2.241
60109W        W19370  22.611  36.910  13.511
60110W        W19371  30.982  34.426  11.550
60111W        W19372  41.960   3.726  10.966
60112W        W19373  24.724  32.410  12.509
60113W        W19374  16.597  31.422  12.434
60114W        W19375  16.267  29.114  13.335
60115W        W19376  33.006  32.024   0.457
60116W        W19377  43.951   9.728   2.682
60117W        W19378  35.061  16.257  14.836
60118W        W19379  12.268  15.734  10.486
60119W        W19380  39.888  40.373  11.402
60120W        W19381   8.804   2.467   5.185
60121W        W19382  18.608  23.131   2.322
60122W        W19383  20.088  43.788   0.909
60123W        W19384   4.748  12.158   0.903
60124W        W19385  29.486  20.708  12.074
60125W        W19386  31.998  41.868   3.639
60126W        W19387  18.584  28.660  13.944
60127W        W19388   6.345   2.935   4.647
60128W        W19389  40.309  13.189   2.329
60129W        W19390   2.735   0.273   1.349
60130W        W19391  40.385  43.494  14.485
60131W        W19392  21.680  26.508  11.588
60132W        W19393  20.075  11.727  10.119
60133W        W19394  11.362  23.063  12.412
60134W        W19395  21.262  10.858  13.899
60135W        W19396  28.611  30.912  14.885
60136W        W19397   0.405   5.833   2.772
60137W        W19398  43.895  23.144   1.383
60138W        W19399  26.635  36.921  13.411
60139W        W19400  12.206   6.339   3.691
60140W        W19401  33.522  13.818  11.377
60141W        W19402  38.423  18.721   3.168
60142W        W19403  10.676   6.759   9.484
60143W        W19404  34.433   9.396  13.816
60144W        W19405  43.436  11.133   4.313
60145W        W19406  28.008  26.081  12.934
60146W        W19407  29.623  40.341   5.245
60147W        W19408  37.423   0.463   1.268
60148W        W19409  32.631   2.242   4.259
60149W        W19410  15.121  38.422  11.951
60150W        W19411  16.605  13.674  12.059
60151W        W19412   3.733   7.719   2.662
60152W        W19413  44.880  29.031  12.906
60153W        W19414   3.781  17.288  12.533
60154W        W19415  30.154  38.407  14.000
60155W        W19416   0.301  20.586   3.328
60156W        W19417  33.880   9.337  12.545
60157W        W19418   6.385   8.765   4.175
60158W        W19419  12.851  41.800  14.869
60159W        W19420  39.011  34.034   4.133
60160W        W19421  27.525   2.298  11.121
60161W        W19422  16.144  40.467   0.255
60162W        W19423   9.692  21.229  11.000
60163W        W19424   6.859  39.479  13.808
60164W        W19425   4.797  33.617  10.117
60165W        W19426  15.602   5.832   2.358
60166W        W19427  24.167  14.285  10.066
60167W        W19428  14.220   0.329   1.451
60168W        W19429  34.004  41.326   1.816
60169W        W19430  43.975  13.122  13.525
60170W        W19431  34.505  44.356   3.841
60171W        W19432  14.645  18.661   1.257
60172W        W19433   7.267  10.249  10.520
60173W        W19434  21.595  12.683  10.464
60174W        W19435  35.945   2.342   4.185
60175W        W19436   1.856  13.698   4.315
60176W        W19437  23.543   9.878  11.045
60177W        W19438  42.839  41.393  14.982
60178W        W19439  19.252  18.108  14.364
60179W        W19440  18.743  29.173   1.221
60180W        W19441  22.568  25.656   2.374
60181W        W19442  31.089  27.604   2.182
60182W        W19443   2.360  22.504   1.722
60183W        W19444   1.301  35.535  14.438
60184W        W19445  13.163   3.840  12.464
60185W        W19446  13.198  12.674   0.809
60186W        W19447  41.425   0.809   4.787
60187W        W19448  44.494   3.815  13.462
60188W        W19449  28.968  41.514  12.945
60189W        W19450   4.895  35.435  13.824
60190W        W19451   9.261   3.730   2.846
60191W        W19452  19.639  36.490  11.117
60192W        W19453  38.375  41.016  13.377
60193W        W19454  40.438  41.413  12.997
60194W        W19455  40.459  33.017  12.998
60195W        W19456  39.366   6.789  10.637
60196W        W19457  28.108  15.651  10.575
60197W        W19458  44.485   8.827  14.031
60198W        W19459  42.363  11.820  14.491
60199W        W19460   6.905  42.313   4.158
60200W        W19461  25.002  32.585   3.229
60201W        W19462  40.990  24.216  10.024
60202W        W19463  34.415  43.846   2.794
60203W        W19464   2.295  25.568   3.763
60204W        W19465  13.306  10.851  14.890
60205W        W19466  36.969  19.114  12.021
60206W        W19467  38.898  42.919  13.974
60207W        W19468  24.046   8.771   2.835
60208W        W19469   4.249  43.364   2.846
60209W        W19470  26.629  10.783  12.018
60210W        W19471  36.942  37.579  13.445
60211W        W19472  12.172  43.282   0.768
60212W        W19473  16.152  15.806   3.650
60213W        W19474  10.180  39.868   0.737
60214W        W19475  14.302   0.972  11.979
60215W        W19476  18.093   0.373  11.053
60216W        W19477  39.870  43.483   3.784
60217W        W19478   1.327  30.651   0.774
60218W        W19479  17.155  35.432   3.229
60219W        W19480  32.038  24.146   3.145
60220W        W19481  36.917  12.219  14.415
60221W        W19482  14.771  24.046  13.328
60222W        W19483  39.423  20.109  13.814
60223W        W19484  25.493  27.651   2.213
60224W        W19485   7.305  31.999  11.476
60225W        W19486  12.677  20.761  14.411
60226W        W19487  29.609   8.210   3.262
60227W        W19488  28.536  17.800   1.245
60228W        W19489   9.752  34.458  11.051
60229W        W19490  21.600  39.018   0.423
60230W        W19491  31.619  33.103  13.521
60231W        W19492  32.445  30.936  13.311
60232W        W19493  30.433  40.343  11.378
60233W        W19494  32.081  41.506   0.745
60234W        W19495  32.622   9.362  11.582
60235W        W19496  21.544  27.192  11.008
60236W        W19497  31.898  38.035  13.950
60237W        W19498  24.029  34.465   3.197
60238W        W19499  31.004  13.308   0.773
60239W        W19500  22.189  35.923  11.480
60240W        W19501  21.533  15.740   0.300
60241W        W19502   5.848  17.072   4.249
60242W        W19503   9.674  35.477   2.760
60243W        W19504  41.414   5.334   0.821
60244W        W19505  15.675  43.476   2.825
60245W        W19506   9.763  38.412  11.961
60246W        W19507  12.309  41.880   2.265
60247W        W19508  28.146  43.841   4.176
60248W        W19509  40.341  13.687   4.146
60249W        W19510  43.512  18.754  14.967
60250W        W19511  22.590  11.295  11.442
60251W        W19512  33.901  10.725  10.424
60252W        W19513   8.377   8.760   2.709
60253W        W19514  38.409  16.194   2.384
60254W        W19515  14.186   6.247  13.830
60255W        W19516  38.326   5.328   0.857
60256W        W19517  26.490  31.055  13.546
60257W        W19518  38.511  24.000   1.323
60258W        W19519  38.331  41.397   3.317
60259W        W19520  30.542   2.953   1.400
60260W        W19521  10.646  17.293   1.911
60261W        W19522  27.072  13.733   1.836
60262W        W19523  24.626  30.518  14.837
60263W        W19524  38.061  35.011  10.427
60264W        W19525  32.619   3.810  14.942
60265W        W19526   9.163   1.317  14.945
60266W        W19527  31.620   9.311   1.866
60267W        W19528  20.589   8.361   3.275
60268W        W19529   8.243  36.356  14.357
60269W        W19530  40.544  29.142  12.447
60270W        W19531  35.054  35.097  12.922
60271W        W19532   1.733  26.499  14.340
60272W        W19533  16.649  24.621  10.447
60273W        W19534  11.773  32.521  11.976
60274W        W19535   5.875  39.050  11.995
60275W        W19536  32.034  42.337  10.461
60276W        W19537  23.167   3.314  11.877
60277W        W19538  21.532  28.152   1.795
60278W        W19539  20.716  38.829  11.042
60279W        W19540  30.984  16.126  11.589
60280W        W19541   3.240  14.774  13.368
60281W        W19542  21.041  27.560   1.726
60282W        W19543   9.371  22.663   4.812
60283W        W19544  44.771   7.392   3.810
60284W        W19545  31.620  30.963  13.921
60285W        W19546   3.948  27.101   2.373
60286W        W19547  31.521  16.730  12.390
60287W        W19548  26.517   3.893  12.049
60288W        W19549  10.157  42.342   4.237
60289W        W19550  19.231  41.432   2.389
60290W        W19551  39.383  13.724   0.406
60291W        W19552   4.832  17.176   1.777
60292W        W19553  30.050  16.220   1.400
60293W        W19554  28.492   2.318  10.007
60294W        W19555  40.929  42.306   1.803
60295W        W19556  16.715  39.005   1.725
60296W        W19557  42.980  41.530   0.348
60297W        W19558  31.126  38.510  10.927
60298W        W19559  38.934  21.173   0.318
60299W        W19560   7.351   6.703  14.290
60300W        W19561   2.728  38.943   3.703
60301W        W19562  30.656  16.302  12.997
60302W        W19563  13.282   8.694   5.292
60303W        W19564  39.528  32.576  12.966
60304W        W19565  11.832  40.478  11.096
60305W        W19566  34.920   0.289  13.979
60306W        W19567  32.593   1.957  10.577
60307W        W19568  37.045  11.289   0.453
60308W        W19569  26.166  35.538  12.528
60309W        W19570   5.340  27.070   3.759
60310W        W19571   9.385  21.203  13.815
60311W        W19572  42.783  33.539  13.983
60312W        W19573  42.323  41.526   0.289
60313W        W19574  12.731  32.028  11.403
60314W        W19575  28.979  16.174   4.341
60315W        W19576  14.277   8.168   4.688
60316W        W19577  12.612  37.071   3.686
60317W        W19578   0.393   8.760  14.278
60318W        W19579  10.689  19.663  12.978
60319W        W19580   6.771  34.983  10.525
60320W        W19581  21.121  20.764   4.722
60321W        W19582  23.012  41.479  10.445
60322W        W19583  10.707  37.945   3.186
60323W        W19584  38.397  32.499  13.506
60324W        W19585  31.113   8.244   3.753
60325W        W19586  43.324  20.039   1.806
60326W        W19587  43.005  44.435   5.217
60327W        W19588  32.428   9.770   4.655
60328W        W19589  30.565  18.251  12.527
60329W        W19590  17.645  40.989  12.032
60330W        W19591  18.693  40.959   4.676
60331W        W19592  39.533  42.950  11.577
60332W        W19593  30.997  14.146   3.689
60333W        W19594  27.126  10.304   2.758
60334W        W19595   3.937   4.301   0.923
60335W        W19596  21.057  44.916   4.605
60336W        W19597  27.154  31.046  13.536
60337W        W19598   3.445  16.202  10.897
60338W        W19599  43.776  24.496  13.966
60339W        W19600  25.977  11.772  11.505
60340W        W19601   6.857  28.580   1.314
60341W        W19602  18.653  24.044  12.022
60342W        W19603  40.813  12.200  12.507
60343W        W19604  22.014  25.656  13.412
60344W        W19605   2.918  15.170  13.341
60345W        W19606  32.932  15.737   2.785
60346W        W19607  37.955  39.421   2.733
60347W        W19608  41.980  35.984  11.891
60348W        W19609   1.826  34.583  14.002
60349W        W19610  31.550  28.563  10.447
60350W        W19611  44.840  39.474  12.401
60351W        W19612  35.049   4.433  11.082
60352W        W19613   7.302  32.039  13.015
60353W        W19614  12.144  36.378  11.865
60354W        W19615   0.884  10.364   3.690
60355W        W19616   5.410  20.527  13.512
60356W        W19617  10.875  22.562   0.400
60357W        W19618  44.835   7.264  14.031
60358W        W19619   1.868   7.777   5.294
60359W        W19620  27.625  31.104   1.279
60360W        W19621  16.124  38.377   4.828
60361W        W19622   7.753  27.599   1.852
60362W        W19623  14.696  11.319  14.809
60363W        W19624  29.576  22.065   4.599
60364W        W19625  25.044  39.416   4.298
60365W        W19626  25.045  19.224  11.541
60366W        W19627  28.947  17.103   3.243
60367W        W19628  37.387  23.103  10.553
60368W        W19629  12.832  41.505  14.764
60369W        W19630  18.731   5.793   3.810
60370W        W19631  17.558  13.837  10.976
60371W        W19632   0.972   1.824   3.662
60372W        W19633   3.235   2.260   0.791
60373W        W19634  41.878  40.344  10.964
60374W        W19635  25.218   1.479  14.770
60375W        W19636  16.159   2.722  11.592
60376W        W19637  40.417   6.688   3.194
60377W        W19638   2.405   9.657   1.723
60378W        W19639   9.669  22.673  14.430
60379W        W19640  37.908   1.972  12.423
60380W        W19641  22.223  22.651   0.335
60381W        W19642   8.220   1.307   3.860
60382W        W19643  18.244  30.041   0.778
60383W        W19644  17.291  31.115   0.773
60384W        W19645  25.092  22.127  14.773
60385W        W19646  15.182  37.947   3.312
60386W        W19647   5.812  21.529   2.231
60387W        W19648   2.912  13.652   2.828
60388W        W19649  24.219  11.641   0.387
60389W        W19650  26.135   4.832   3.827
60390W        W19651  35.915  34.571  10.432
60391W        W19652  23.987  29.468  11.954
60392W        W19653  33.072  31.573   1.271
60393W        W19654  30.544  27.151   0.855
60394W        W19655  12.218  12.728  13.838
60395W        W19656   4.369  21.093   0.272
60396W        W19657  29.539   4.817   1.244
60397W        W19658  32.631  13.267  11.380
60398W        W19659   1.316  32.511   0.763
60399W        W19660  10.683  24.021   2.317
60400W        W19661   1.297   6.345   1.355
60401W        W19662  40.887  44.936  12.998
60402W        W19663  12.686   1.899  14.275
60403W        W19664  16.264  44.297  14.846
60404W        W19665  15.130   9.160   3.196
60405W        W19666   5.400  16.286   3.384
60406W        W19667   4.764  40.336  12.379
60407W        W19668  29.094   9.838  10.447
60408W        W19669  10.711  31.926   4.298
60409W        W19670  34.064  23.645   0.461
60410W        W19671  14.674  41.029   2.734
60411W        W19672  36.013  43.928   1.786
60412W        W19673  38.348  10.779  14.918
60413W        W19674   6.799  25.046   4.646
60414W        W19675  15.611  26.023  14.443
60415W        W19676   0.434  38.865  14.875
60416W        W19677  26.204  20.228  13.058
60417W        W19678  19.672  38.366  12.979
60418W        W19679  24.712  37.960   4.619
60419W        W19680  17.680  41.538   4.113
60420W        W19681   1.463  13.251  14.019
60421W        W19682   1.952  16.275  13.982
60422W        W19683   6.300  10.774   0.455
60423W        W19684   9.671  34.532   1.718
60424W        W19685   2.469  40.930   2.889
60425W        W19686  38.335  36.391  13.890
60426W        W19687  41.335   6.234  14.447
60427W        W19688   2.946  11.740  14.886
60428W        W19689  16.213  27.682   0.833
60429W        W19690   6.406  13.600   0.432
60430W        W19691  30.633  41.997   3.274
60431W        W19692   0.744  18.683  13.840
60432W        W19693  10.650  41.823  10.946
60433W        W19694  10.870   9.268   0.350
60434W        W19695   8.656  18.590  14.319
60435W        W19696  22.582  35.431  13.950
60436W        W19697  30.458  29.494  12.945
60437W        W19698   6.297  39.829   0.757
60438W        W19699  28.985  37.085   3.641
60439W        W19700   4.943  13.329   5.120
60440W        W19701   0.336  15.297   4.761
60441W        W19702  12.691   6.409   0.254
60442W        W19703  18.630   2.777  14.904
60443W        W19704  21.653  10.159  12.529
60444W        W19705  15.165  15.689   2.282
60445W        W19706   3.415  27.582   3.642
60446W        W19707   4.245  18.753  13.836
60447W        W19708   8.295  25.632   3.734
60448W        W19709  18.129  35.061   2.306
60449W        W19710  26.631  38.967  13.383
60450W        W19711  16.624   9.385  14.879
60451W        W19712   8.395  16.161  12.832
60452W        W19713  11.822  34.531   1.324
60453W        W19714  15.102   2.241  11.115
60454W        W19715  19.059  10.636   2.282
60455W        W19716  42.419  11.648   1.854
60456W        W19717  40.004  23.589   3.633
60457W        W19718   8.162  21.235   0.803
60458W        W19719  10.664  43.848  12.852
60459W        W19720  41.390  10.306  11.049
60460W        W19721  40.041  32.599   4.192
60461W        W19722  22.119  32.533   2.270
60462W        W19723  27.492  34.863  12.572
60463W        W19724  21.128  40.385   2.240
60464W        W19725   4.329  12.339   3.670
60465W        W19726  19.669  14.816  13.005
60466W        W19727  17.568  23.166  14.784
60467W        W19728  26.506  12.668   0.345
60468W        W19729  25.604  40.913   4.176
60469W        W19730  12.321  27.094  13.879
60470W        W19731  41.825  41.484  10.595
60471W        W19732   4.380  32.081  14.935
60472W        W19733  26.623   0.350   5.207
60473W        W19734  30.942  43.382   3.247
60474W        W19735  17.121   2.827  13.449
60475W        W19736   7.287  33.556   1.836
60476W        W19737   0.481  19.090  13.873
60477W        W19738   1.250  31.618   1.220
60478W        W19739   3.348  28.989   2.795
60479W        W19740  24.721  38.066  11.862
60480W        W19741  41.812   9.195   4.600
60481W        W19742  37.973   9.357  14.294
60482W        W19743  14.625  33.477   4.666
60483W        W19744  37.483  40.518   2.235
60484W        W19745   9.152  26.982   0.951
60485W        W19746  14.688  11.168  11.005
60486W        W19747   2.962  20.104   0.314
60487W        W19748  32.930  18.631   0.345
60488W        W19749   0.454  36.866  14.768
60489W        W19750   0.344  35.516  11.575
60490W        W19751  36.040  34.945   2.798
60491W        W19752   5.398   5.245  11.956
60492W        W19753  18.586   0.856   2.841
60493W        W19754   4.208  41.924   1.354
60494W        W19755  16.318   5.249   4.172
60495W        W19756  10.777  33.620   1.436
60496W        W19757  34.892  25.094  13.378
60497W        W19758  12.297  36.494   2.770
60498W        W19759  15.741   7.787   3.783
60499W        W19760   3.756  43.852   0.896
60500W        W19761  10.651  35.547  12.407
60501W        W19762   4.230  11.810   3.331
60502W        W19763  14.100   1.804   4.167
60503W        W19764  39.398   6.748   2.784
60504W        W19765   2.240  30.592  10.440
60505W        W19766  40.994  13.684  11.392
60506W        W19767  11.774  34.968  14.785
60507W        W19768  24.031  40.975   1.919
60508W        W19769  28.064  13.204   0.420
60509W        W19770  41.399  24.723  11.861
60510W        W19771  34.872  34.015   4.744
60511W        W19772   0.977  32.945  10.918
60512W        W19773  35.920  18.130  10.419
60513W        W19774   9.346  38.955  14.310
60514W        W19775  12.292   3.769   1.426
60515W        W19776  10.162  14.634   1.842
60516W        W19777  13.709  14.715   4.803
60517W        W19778   6.678  42.810   3.805
60518W        W19779   9.827   9.683   4.119
60519W        W19780  26.016  44.952   4.680
60520W        W19781  23.069  31.446   0.400
60521W        W19782   0.486   9.394   1.872
60522W        W19783  27.569  23.613   4.834
60523W        W19784   8.728  20.695  10.086
60524W        W19785   1.962  27.603  14.935
60525W        W19786   5.203   2.330   1.359
60526W        W19787   1.797  12.361   0.874
60527W        W19788   9.166  16.110  11.864
60528W        W19789  21.746  16.805  12.073
60529W        W19790  34.593   6.764  13.990
60530W        W19791  29.446  41.382  14.864
60531W        W19792   3.866   6.919  11.605
60532W        W19793  28.628  10.366   1.254
60533W        W19794  38.868   5.810  10.430
60534W        W19795  12.758   6.324   1.741
60535W        W19796  30.576  12.826   4.757
60536W        W19797  31.443  24.543   1.336
60537W        W19798   0.894   5.367   4.704
60538W        W19799  27.075   1.965  13.387
60539W        W19800  42.969  38.900  13.847
60540W        W19801  17.791   8.309   5.751
60541W        W19802  35.043  20.076   4.705
60542W        W19803  34.508  16.813   4.281
60543W        W19804  43.874  37.393  14.373
60544W        W19805  36.020  12.305   3.689
60545W        W19806  12.331  25.100  11.543
60546W        W19807  40.355  12.651  13.375
60547W        W19808  19.096   7.907   3.316
60548W        W19809  10.638  41.891   3.706
60549W        W19810  13.127  35.429  11.474
60550W        W19811   2.934  12.306  10.417
60551W        W19812  38.447  16.707   1.342
60552W        W19813  34.385  38.442  10.462
60553W        W19814  43.903  38.485  13.392
60554W        W19815  41.367  44.880  13.813
60555W        W19816  14.692  31.572   0.754
60556W        W19817  43.481  22.065  14.762
60557W        W19818  37.999  41.964   4.140
60558W        W19819  37.986  26.536   2.240
60559W        W19820  22.630   7.825   0.751
60560W        W19821  24.497  31.402  12.393
60561W        W19822   6.192  20.125   2.853
60562W        W19823  16.227  20.078   2.760
60563W        W19824  32.523   6.420  13.944
60564W        W19825   4.789   1.258  11.970
60565W        W19826  44.430  24.725  11.023
60566W        W19827   0.323  39.397   2.189
60567W        W19828   6.709  38.006  12.449
60568W        W19829  37.397  21.213   0.763
60569W        W19830  31.086  25.189   4.715
60570W        W19831  21.227  14.331  12.933
60571W        W19832  22.675   3.389   2.789
60572W        W19833  26.021  32.008  11.459
60573W        W19834  21.098  43.997  14.343
60574W        W19835  25.609  19.279  14.902
60575W        W19836  43.908  39.338   4.273
60576W        W19837  38.397  19.073   1.894
60577W        W19838  13.771  31.594  11.951
60578W        W19839   0.431  36.034   0.786
60579W        W19840   8.397  36.520   2.836
60580W        W19841  31.110  41.307  12.937
60581W        W19842  37.576  37.521   4.167
60582W        W19843  25.709  24.180   4.823
60583W        W19844  43.329   1.263   4.247
60584W        W19845   0.744   7.256  11.438
60585W        W19846  35.010  34.554   3.176
60586W        W19847   6.837   4.366   9.589
60587W        W19848   4.822  37.474   0.320
60588W        W19849  26.672  37.534   2.895
60589W        W19850  38.913   9.661   1.771
60590W        W19851  44.777  31.960   0.832
60591W        W19852  26.959   3.718  11.454
60592W        W19853  19.671  43.285   3.349
60593W        W19854   3.945  26.476   4.606
60594W        W19855  17.175  35.048  13.799
60595W        W19856  28.931  31.573   1.787
60596W        W19857  24.088  11.356  12.384
60597W        W19858  19.754  31.057   4.208
60598W        W19859  23.205  21.518   0.730
60599W        W19860   8.341  42.300  14.282
60600W        W19861   2.259   3.270  12.377
60601W        W19862  17.693   2.414  14.906
60602W        W19863  33.599   8.258  13.360
60603W        W19864   8.888  24.996   1.344
60604W        W19865   7.313  25.071  10.604
60605W        W19866  22.562  19.145  13.475
60606W        W19867  25.987  28.135  13.534
60607W        W19868   1.840  20.040  13.876
60608W        W19869  23.992  17.575   0.276
60609W        W19870  19.707  33.591   2.664
60610W        W19871  35.536  32.579   2.722
60611W        W19872  30.069  12.812   0.268
60612W        W19873  37.510  14.314   4.118
60613W        W19874  21.186   7.888  13.473
60614W        W19875  24.144   1.805  12.502
60615W        W19876   8.705   0.807   3.632
60616W        W19877   2.948  34.119  13.799
60617W        W19878   9.383   3.386  11.466
60618W        W19879  14.816  39.905  14.391
60619W        W19880  19.211  14.336   0.955
60620W        W19881  41.041   7.733   4.327
60621W        W19882  44.967  44.759  10.948
60622W        W19883  31.422  12.857   3.361
60623W        W19884  44.499  28.613  13.487
60624W        W19885  34.014  17.198   4.835
60625W        W19886  20.047  25.971   4.597
60626W        W19887  18.587   5.428   1.302
60627W        W19888  26.126   2.457  12.924
60628W        W19889  13.682   5.303  13.971
60629W        W19890  35.018  30.145  12.371
60630W        W19891  33.016  34.488  13.362
60631W        W19892   7.764  39.874   0.335
60632W        W19893  41.524  30.448  14.911
60633W        W19894   4.929  25.126  14.361
60634W        W19895  25.594  12.356   3.835
60635W        W19896  17.586  18.741   5.785
60636W        W19897   5.721  15.737  13.983
60637W        W19898  29.641  34.590   1.408
60638W        W19899   4.317  42.466  13.543
60639W        W19900  30.073  35.404   2.805
60640W        W19901  27.133  21.583   1.722
60641W        W19902  14.757  33.594  14.276
60642W        W19903  17.754  30.567   0.966
60643W        W19904  42.961  21.629   3.772
60644W        W19905  35.428   6.304   1.861
60645W        W19906  12.710   8.809  13.439
60646W        W19907   4.240  17.134   1.927
60647W        W19908   8.729  26.684   2.234
60648W        W19909  31.640  39.908  12.550
60649W        W19910   7.769  28.594  13.376
60650W        W19911  29.476  40.344   3.861
60651W        W19912  13.164  23.217   0.459
60652W        W19913  36.018  44.789  11.572
60653W        W19914   3.333   8.743   4.613
60654W        W19915  11.203  42.904  10.428
60655W        W19916  10.789  17.623  11.576
60656W        W19917  37.862  20.584   3.767
60657W        W19918  24.535   6.872   0.749
60658W        W19919  31.578  17.751  10.642
60659W        W19920   1.731  18.782  14.970
60660W        W19921   6.275  34.408  10.427
60661W        W19922  24.079   4.438  11.555
60662W        W19923  33.513  35.977  11.555
60663W        W19924  41.528  24.046   0.320
60664W        W19925  30.613   9.653  10.068
60665W        W19926  30.130  24.627  12.089
60666W        W19927  41.468   6.906   3.698
60667W        W19928   7.226   2.338   2.793
60668W        W19929  28.145   7.710   0.938
60669W        W19930  22.087  17.114   2.805
60670W        W19931  13.339  12.765  13.421
60671W        W19932  29.926  43.386  11.612
60672W        W19933  17.116  16.203  11.932
60673W        W19934   1.433   6.355  13.906
60674W        W19935  17.079  19.777  12.990
60675W        W19936  36.558  40.993   2.877
60676W        W19937  31.610  10.282   1.341
60677W        W19938   3.257  10.712   3.683
60678W        W19939  18.264  34.518  10.611
60679W        W19940   5.378   7.785   1.910
60680W        W19941   5.273   8.725  13.969
60681W        W19942  35.967  44.885  14.280
60682W        W19943   7.829  25.553   3.279
60683W        W19944   7.698  40.510   0.412
60684W        W19945  31.034  12.288  14.022
60685W        W19946  13.810   2.391   2.212
60686W        W19947  23.234   9.669  12.529
60687W        W19948  41.879  14.757  11.602
60688W        W19949   0.444   3.909   3.318
60689W        W19950   1.269   9.354  11.021
60690W        W19951  31.435  33.061  14.415
60691W        W19952  30.553  34.584   3.634
60692W        W19953  21.753   2.290  12.927
60693W        W19954  39.027  17.801  13.055
60694W        W19955  14.752  19.703   2.232
60695W        W19956   2.958  12.792   3.799
60696W        W19957   4.278  25.663   3.783
60697W        W19958   4.405  30.480   4.225
60698W        W19959  10.314  22.658   4.702
60699W        W19960  31.969  37.056  13.032
60700W        W19961  40.036  23.994  10.106
60701W        W19962  37.352  22.167   2.699
60702W        W19963  29.107  10.742   2.785
60703W        W19964  15.658  17.668  10.554
60704W        W19965  40.971  32.541  14.993
60705W        W19966  39.849  42.470  11.016
60706W        W19967  26.162  34.572  11.454
60707W        W19968  32.633  13.219   2.360
60708W        W19969  40.385  43.502   0.311
60709W        W19970  24.686  26.039   3.246
60710W        W19971  33.973  15.587  14.493
60711W        W19972   4.786  43.508  11.573
60712W        W19973   8.372  24.633  10.464
60713W        W19974   2.755  43.446  10.593
60714W        W19975  16.578  13.107  12.952
60715W        W19976  18.570   9.266  14.817
60716W        W19977   7.226  43.369  11.949
60717W        W19978   2.273  14.671   2.353
60718W        W19979  27.158  13.735   1.338
60719W        W19980  43.414  29.151  12.554
60720W        W19981  26.103  30.941   2.824
60721W        W19982  24.089   6.233   3.150
60722W        W19983  43.395   6.824   4.766
60723W        W19984  29.632  18.197   5.163
60724W        W19985  39.964  10.193  12.921
60725W        W19986  29.171  33.571  11.988
60726W        W19987  21.092  13.799   3.644
60727W        W19988   8.798  36.538   3.256
60728W        W19989  41.437  32.917  10.060
60729W        W19990  40.832  42.990   1.820
60730W        W19991  41.537  29.044  14.020
60731W        W19992  26.152  14.708  13.542
60732W        W19993  17.170  35.578  11.963
60733W        W19994   8.170  35.445   3.331
60734W        W19995  33.913  29.084  14.514
60735W        W19996  36.516  19.734   3.845
60736W        W19997  42.920   3.389  11.412
60737W        W19998  17.683  19.194   1.322
60738W        W19999   9.665  24.997   3.324
60739W        W20000  20.070   2.226  14.427
60740W        W20001  14.166   7.273  13.327
60741W        W20002  43.497   5.845   0.747
60742W        W20003   2.357  12.261   0.848
60743W        W20004  31.955  31.039   4.248
60744W        W20005  28.026  34.881   0.273
60745W        W20006  19.649   3.747  14.938
60746W        W20007  31.906  14.804  14.825
60747W        W20008  33.990   5.717  12.534
60748W        W20009  25.600  42.832  11.430
60749W        W20010  40.935   9.306   4.170
60750W        W20011  17.245  10.815  13.971
60751W        W20012  27.632  18.643  12.577
60752W        W20013  16.238  11.365  12.573
60753W        W20014  36.470   1.899   3.789
60754W        W20015  14.323  18.559   5.299
60755W        W20016  28.074  10.153   0.287
60756W        W20017   7.243  31.510   3.700
60757W        W20018  22.097   4.754   0.291
60758W        W20019  21.544  14.302   0.954
60759W        W20020  18.272  20.258   0.297
60760W        W20021  40.517   6.310  13.886
60761W        W20022  22.013  22.144   1.409
60762W        W20023  34.891   8.746  10.133
60763W        W20024  36.058   3.794   4.615
60764W        W20025  40.328  14.820  10.910
60765W        W20026   5.694  38.859  12.915
60766W        W20027  26.464  16.678   1.919
60767W        W20028  33.880  12.116  14.870
60768W        W20029  25.046  40.827   4.344
60769W        W20030  10.279  13.728  10.910
60770W        W20031  27.054  23.655   3.225
60771W        W20032  21.731   8.666  14.025
60772W        W20033  36.466  28.500  11.125
60773W        W20034  20.638  38.824  11.894
60774W        W20035  16.240  19.146   4.294
60775W        W20036  44.371  27.977   4.217
60776W        W20037  19.560   4.312   3.724
60777W        W20038  30.159  26.669  10.893
60778W        W20039  31.450  30.046  13.058
60779W        W20040  41.984  30.446   2.691
60780W        W20041  19.667  19.193  12.029
60781W        W20042  10.241  37.381  13.346
60782W        W20043  16.605  14.700   2.298
60783W        W20044   3.277  26.577  10.517
60784W        W20045  31.102   2.951  10.634
60785W        W20046   9.327  17.774   4.192
60786W        W20047  27.575  19.723   0.409
60787W        W20048  21.551   0.263  12.900
60788W        W20049  38.863  36.038   3.710
60789W        W20050  19.587   2.842  12.850
60790W        W20051  26.676  37.351  14.493
60791W        W20052  10.790   7.295  13.841
60792W        W20053  25.144  17.602  11.438
60793W        W20054  21.088  20.214  12.535
60794W        W20055   9.279  26.965   4.641
60795W        W20056  16.747  30.567  14.301
60796W        W20057  27.537  37.349  12.401
60797W        W20058  16.588  33.475   0.284
60798W        W20059  19.549   2.249  14.375
60799W        W20060  31.953  44.259  13.803
60800W        W20061  24.667  10.772  14.298
60801W        W20062   8.860  19.586  11.870
60802W        W20063  17.088  26.488   1.893
60803W        W20064   9.655  17.207  14.861
60804W        W20065   9.866   2.291   1.702
60805W        W20066  44.908  27.546   3.158
60806W        W20067  40.830  14.116  14.864
60807W        W20068   2.877  28.503   3.774
60808W        W20069  18.078  40.051   2.724
60809W        W20070  24.689  33.482   3.361
60810W        W20071  33.068  24.020   2.238
60811W        W20072   8.318  33.615   2.793
60812W        W20073  41.470   6.895  14.425
60813W        W20074  37.994  33.099  10.568
60814W        W20075  34.929  41.315   2.192
60815W        W20076  10.195  18.578  13.428
60816W        W20077   8.361  25.191   3.676
60817W        W20078  39.015  25.472  13.795
60818W        W20079   8.270  13.661   0.282
60819W        W20080  22.079  17.220   1.295
60820W        W20081   4.759   6.751   3.665
60821W        W20082   0.340   9.757   3.267
60822W        W20083  14.105  40.804  12.954
60823W        W20084  10.674   5.917   3.262
60824W        W20085  23.020   7.839   4.688
60825W        W20086  39.539  27.535  11.515
60826W        W20087  25.095   6.774   0.271
60827W        W20088  36.926  34.579   4.239
60828W        W20089  43.007  24.127   0.259
60829W        W20090  43.837  37.843  13.913
60830W        W20091   1.268  22.708  11.382
60831W        W20092  41.528  11.154   4.644
60832W        W20093   6.419  10.637   1.765
60833W        W20094  26.474  18.224  13.502
60834W        W20095  30.003  38.867   2.832
60835W        W20096  27.664   4.323  12.522
60836W        W20097  42.436  42.493   1.790
60837W        W20098  12.830  26.694   9.661
60838W        W20099  22.191  15.817   1.823
60839W        W20100  36.572   4.840   2.398
60840W        W20101  28.140  26.571   4.143
60841W        W20102   5.893   2.904   2.839
60842W        W20103  44.865  36.543   3.282
60843W        W20104  29.092  18.062  12.381
60844W        W20105  30.461   0.879   3.638
60845W        W20106  35.060  29.460   2.403
60846W        W20107  43.434  34.502  14.309
60847W        W20108   3.322   2.391   3.202
60848W        W20109   2.239  43.405   0.894
60849W        W20110  36.080  11.204   3.868
60850W        W20111   0.798  30.520  10.120
60851W        W20112  26.491  18.289   0.321
60852W        W20113   6.685  13.745  11.486
60853W        W20114  12.198  14.262  13.922
60854W        W20115  35.552  26.019  12.848
60855W        W20116  21.737   6.854  12.991
60856W        W20117  22.640  18.762  13.999
60857W        W20118  13.797   2.734  11.095
60858W        W20119  16.729  16.256   2.267
60859W        W20120  16.162  40.936   2.783
60860W        W20121  11.758  29.653   3.346
60861W        W20122  41.468  11.267  11.987
60862W        W20123  35.486  17.680  13.965
60863W        W20124  17.560  15.083  12.521
60864W        W20125  12.352  24.166  14.791
60865W        W20126  27.035   1.742  11.595
60866W        W20127   5.733  40.526  13.945
60867W        W20128  19.761  42.470   2.180
60868W        W20129  12.234  11.355   1.795
60869W        W20130   4.361  16.726  14.395
60870W        W20131  15.662  27.070   0.878
60871W        W20132  42.964  23.121   5.275
60872W        W20133  29.567   8.828   4.794
60873W        W20134  10.159   1.423  10.893
60874W        W20135  19.679  40.810   3.323
60875W        W20136  20.692  21.629  14.941
60876W        W20137   4.800   9.179  13.811
60877W        W20138  38.484  13.637  13.860
60878W        W20139  22.030  13.183   3.799
60879W        W20140  29.510   7.762   0.832
60880W        W20141  22.690  10.846   2.886
60881W        W20142  28.937  43.423   3.665
60882W        W20143  30.044  28.151  12.384
60883W        W20144  25.691  17.774  13.477
60884W        W20145  12.121   4.397  11.561
60885W        W20146   1.374  13.671  14.765
60886W        W20147  12.297  21.722  10.628
60887W        W20148  37.450  26.165   3.345
60888W        W20149  13.825  23.084   4.238
60889W        W20150  21.544   4.419   0.368
60890W        W20151  24.197   6.347  13.980
60891W        W20152  28.653  40.857   1.786
60892W        W20153  22.520   6.768  11.513
60893W        W20154  17.687  25.047  12.955
60894W        W20155   9.336  39.813  14.396
60895W        W20156  30.051  12.237   2.281
60896W        W20157   4.394  43.501  14.280
60897W        W20158  33.427   1.809  11.020
60898W        W20159  15.112   7.403  13.918
60899W        W20160  36.980  44.463   0.417
60900W        W20161  31.959   4.878   2.844
60901W        W20162  25.048  29.665  13.806
60902W        W20163   1.322  26.490  14.352
60903W        W20164  28.501  17.592  13.544
60904W        W20165  24.642  17.642   1.788
60905W        W20166  31.055   9.739  11.460
60906W        W20167  21.131  43.007  11.384
60907W        W20168  28.634  22.152  11.010
60908W        W20169  30.529  42.448  14.431
60909W        W20170  31.571  35.436  12.446
60910W        W20171  33.041   4.441   0.907
60911W        W20172  19.668  24.656   3.293
60912W        W20173   3.424   7.234   4.798
60913W        W20174  41.478  20.684  12.922
60914W        W20175  28.142  14.640   2.329
60915W        W20176  34.521  20.637  12.075
60916W        W20177  12.204  14.313   0.251
60917W        W20178   2.238  27.652   1.723
60918W        W20179  33.880  10.774  14.302
60919W        W20180  14.609  21.147  11.128
60920W        W20181  15.182  38.485   3.853
60921W        W20182  30.066  30.480   1.437
60922W        W20183  40.943  23.494  12.396
60923W        W20184  31.039  42.415  11.551
60924W        W20185  41.530  24.528  14.964
60925W        W20186  19.748  43.415   1.335
60926W        W20187  10.847  15.708   2.861
60927W        W20188  33.612  19.694  13.544
60928W        W20189  39.017   6.313  13.033
60929W        W20190   6.410  28.438  10.463
60930W        W20191   1.377   5.884   4.302
60931W        W20192  38.480  35.931   4.260
60932W        W20193  27.013  12.736  14.374
60933W        W20194  31.111  21.124  11.390
60934W        W20195  31.593  16.260   4.266
60935W        W20196  29.634  12.631   0.882
60936W        W20197  39.962  39.953   0.414
60937W        W20198  41.838   9.343  14.965
60938W        W20199   9.703  15.647   3.798
60939W        W20200  13.245  38.360   4.659
60940W        W20201   5.357  23.085   3.384
60941W        W20202  20.224   0.949  11.865
60942W        W20203   5.228  43.511  10.405
60943W        W20204   8.838  30.913   0.864
60944W        W20205   5.694  14.745   4.806
60945W        W20206   9.262  36.035   1.823
60946W        W20207  32.543  23.555  12.377
60947W        W20208  21.143  29.109   0.416
60948W        W20209   7.365   4.820  11.410
60949W        W20210   4.229   1.268  13.862
60950W        W20211   7.180  31.113   2.812
60951W        W20212  43.289  31.040   4.186
60952W        W20213  28.595  27.077  11.033
60953W        W20214  19.218  24.185  13.973
60954W        W20215   0.366  30.525  12.497
60955W        W20216  44.904  38.931   3.632
60956W        W20217  37.066  23.669   4.739
60957W        W20218  44.998   3.269   1.438
60958W        W20219   4.718  38.562  10.621
60959W        W20220  32.946   8.230  14.453
60960W        W20221  31.490  44.994   2.901
60961W        W20222  30.468   0.805   0.477
60962W        W20223  23.548   3.820   3.783
60963W        W20224  11.727  26.579   0.364
60964W        W20225  30.082   7.280   2.250
60965W        W20226   7.213   6.376   3.695
60966W        W20227  11.700  41.898  14.883
60967W        W20228  29.132  25.471  11.066
60968W        W20229  27.514  17.684  13.974
60969W        W20230  41.939  13.646   3.763
60970W        W20231  44.468   7.875   3.227
60971W        W20232  17.647  13.134   0.905
60972W        W20233  13.313  38.511  14.017
60973W        W20234  32.135  42.798  10.898
60974W        W20235  43.883  13.348   4.742
60975W        W20236  31.538  13.150  13.353
60976W        W20237   9.680  40.498  11.101
60977W        W20238  31.111  38.492   0.282
60978W        W20239  42.298   0.855   3.254
60979W        W20240  23.567  11.264   3.656
60980W        W20241  30.478  23.171   1.316
60981W        W20242   6.285  13.350   4.685
60982W        W20243  29.466  31.607  10.473
60983W        W20244   4.814  32.115  13.951
60984W        W20245  43.274  38.500   0.259
60985W        W20246  19.621  11.810  13.354
60986W        W20247  30.937  18.188   1.335
60987W        W20248   5.310  14.244   0.271
60988W        W20249  15.199  12.236   3.154
60989W        W20250  40.413  15.308  11.013
60990W        W20251  11.717  31.026  12.501
60991W        W20252  35.980  42.001   2.794
60992W        W20253  20.123  27.010  13.944
60993W        W20254  20.636   0.840  12.565
60994W        W20255  44.504  34.403   0.755
60995W        W20256  31.910  22.561  10.497
60996W        W20257  28.626  14.217   0.930
60997W        W20258  21.714  25.689  13.967
60998W        W20259   9.263   5.911   3.713
60999W        W20260   2.452  10.759  14.445
61000W        W20261   6.832   8.179   2.860
61001W        W20262  31.918  32.393   3.362
61002W        W20263  42.337  17.233  13.499
61003W        W20264  36.438  34.070   4.119
61004W        W20265  13.334  10.340  14.376
61005W        W20266  32.445  39.435   0.343
61006W        W20267   8.747  32.103  10.921
61007W        W20268   2.757  22.215  13.796
61008W        W20269  44.428   2.333   4.187
61009W        W20270  15.687   4.362   9.581
61010W        W20271  29.581  39.880   1.735
61011W        W20272  24.644   4.768  13.016
61012W        W20273  37.936  30.505  11.535
61013W        W20274  29.165  10.284   2.292
61014W        W20275  22.734  28.035   4.648
61015W        W20276   6.291   4.446   9.458
61016W        W20277  36.436  15.280   0.415
61017W        W20278  27.672   6.213  10.134
61018W        W20279  14.150  14.333  10.031
61019W        W20280  17.233  17.745   0.917
61020W        W20281  28.075  19.143   3.788
61021W        W20282  40.946  25.996   3.225
61022W        W20283  32.492  29.038   0.845
61023W        W20284   9.374  40.953  11.542
61024W        W20285  28.645   2.450  12.475
61025W        W20286  43.896  27.106  11.089
61026W        W20287  32.887   3.895   3.328
61027W        W20288  41.463  27.539  13.501
61028W        W20289  24.696  24.545   0.801
61029W        W20290  27.505  35.915   4.343
61030W        W20291  24.516  22.677  12.839
61031W        W20292  31.097   2.268  11.921
61032W        W20293  26.979  13.154  10.562
61033W        W20294  39.385   8.276  12.982
61034W        W20295   4.445  15.779  12.373
61035W        W20296  13.247   7.800   5.236
61036W        W20297  38.546  38.926  14.498
61037W        W20298  14.103  42.868   4.195
61038W        W20299  20.245   6.375   2.851
61039W        W20300  16.176  28.502   9.972
61040W        W20301  15.217  16.614  10.584
61041W        W20302  26.489   0.394   4.304
61042W        W20303  29.487  19.152  13.799
61043W        W20304  37.040  24.137  11.423
61044W        W20305  30.984  42.891  10.110
61045W        W20306  10.700  25.473   0.344
61046W        W20307  43.848   6.706   1.893
61047W        W20308   1.754   1.949   3.246
61048W        W20309   7.386  15.806   2.349
61049W        W20310  21.028  23.053  13.530
61050W        W20311  31.011  34.109   1.309
61051W        W20312  19.130  36.992  14.809
61052W        W20313  35.050  14.150   0.792
61053W        W20314   9.287  29.025  14.346
61054W        W20315   1.794  11.671   2.254
61055W        W20316   7.882  37.420   5.285
61056W        W20317   1.433  11.824  14.372
61057W        W20318   6.875  33.598   4.668
61058W        W20319   4.410  42.328  11.909
61059W        W20320   2.390  36.963  14.282
61060W        W20321  22.635  15.596   2.886
61061W        W20322  44.312   6.919   2.818
61062W        W20323  39.459   5.797  13.365
61063W        W20324  43.479  20.648   3.258
61064W        W20325  25.974   6.798   3.695
61065W        W20326  44.488  44.952  10.926
61066W        W20327  13.832  27.991   0.844
61067W        W20328   2.772  24.529  13.797
61068W        W20329  15.232   9.751  10.973
61069W        W20330  31.559   6.319  11.473
61070W        W20331   0.942  38.446  14.292
61071W        W20332  41.491   9.355  14.810
61072W        W20333   5.750   0.289  11.065
61073W        W20334  14.318  19.226  10.927
61074W        W20335  12.688   3.789   2.731
61075W        W20336  24.118   5.314   3.778
61076W        W20337  43.293   0.447  12.860
61077W        W20338  34.468  31.153  14.008
61078W        W20339  23.601  35.021   0.455
61079W        W20340  38.074   7.301   4.210
61080W        W20341  35.457  29.104  10.955
61081W        W20342  25.061  42.496  11.998
61082W        W20343  34.436  10.822   2.350
61083W        W20344  37.415  13.179  10.452
61084W        W20345  28.675  21.053   0.407
61085W        W20346  16.254  35.027  13.998
61086W        W20347  11.748  23.217  11.556
61087W        W20348  19.593  28.607  13.460
61088W        W20349  33.441  12.293   0.853
61089W        W20350   3.912  38.430   1.413
61090W        W20351  44.476  27.485   3.251
61091W        W20352   5.934  30.640  13.011
61092W        W20353  23.699  26.075  11.523
61093W        W20354  16.801  26.972   2.181
61094W        W20355   9.283  22.699   1.428
61095W        W20356   2.281  40.499  10.963
61096W        W20357  36.992  37.885  11.097
61097W        W20358  23.660   1.782  13.800
61098W        W20359   1.910  33.004  12.067
61099W        W20360   8.190   7.753   2.339
61100W        W20361  43.472  11.168  13.970
61101W        W20362   0.768   8.777   2.375
61102W        W20363  36.938  25.626  13.978
61103W        W20364  23.685  29.131  14.898
61104W        W20365  16.747  25.153   4.721
61105W        W20366  37.472  44.410   0.467
61106W        W20367  30.972  28.437  14.030
61107W        W20368  13.120   1.272  13.922
61108W        W20369  30.603  37.571   5.291
61109W        W20370  19.113  17.789   1.707
61110W        W20371  31.586  22.136   4.290
61111W        W20372  18.749   6.871  11.609
61112W        W20373  20.028  23.674   0.760
61113W        W20374  32.052  24.620  12.344
61114W        W20375  43.899  14.631   1.704
61115W        W20376  13.112   2.870  12.916
61116W        W20377  41.000  11.136   3.371
61117W        W20378  42.893   0.957   1.830
61118W        W20379  26.654  36.494  13.035
61119W        W20380   2.462   3.820  12.065
61120W        W20381   2.434  26.647   3.198
61121W        W20382  41.994  11.836   4.780
61122W        W20383  36.055  17.732   4.659
61123W        W20384   6.731  19.203   4.225
61124W        W20385  14.713  22.740   2.870
61125W        W20386  25.087  23.194  13.397
61126W        W20387   7.876   3.802   1.410
61127W        W20388  30.070   4.731  12.846
61128W        W20389  14.669   2.850  13.473
61129W        W20390   7.193  17.154   2.310
61130W        W20391  20.210  23.712  10.527
61131W        W20392  21.523   6.695   3.646
61132W        W20393  43.876   1.771   3.675
61133W        W20394  39.006  41.839  14.901
61134W        W20395  42.811  17.100   2.265
61135W        W20396   2.855   8.762   2.826
61136W        W20397   1.856   5.214  14.292
61137W        W20398  16.805   9.368   4.268
61138W        W20399   2.839  32.404  14.841
61139W        W20400  36.403  38.944  11.972
61140W        W20401   0.751   2.267  14.427
61141W        W20402  14.202  23.694   1.847
61142W        W20403  42.413  17.076  10.985
61143W        W20404  20.231   9.293   3.374
61144W        W20405  32.455  43.499   0.411
61145W        W20406  28.543  33.926   0.256
61146W        W20407   5.202   7.290   4.126
61147W        W20408  12.203  25.034  13.382
61148W        W20409  41.039  42.026   4.115
61149W        W20410  18.757  41.850   4.135
61150W        W20411  21.086   5.327   2.895
61151W        W20412  27.066  36.049  12.465
61152W        W20413  17.588  27.493   0.363
61153W        W20414  24.645  29.541   3.777
61154W        W20415  33.977  19.749  10.994
61155W        W20416  29.158   1.802   9.611
61156W        W20417  39.910  18.690   0.397
61157W        W20418  43.913  12.276  10.522
61158W        W20419  38.934  23.522   3.262
61159W        W20420   3.789  22.224  12.825
61160W        W20421  11.845  23.655   4.795
61161W        W20422  39.861  19.606  12.029
61162W        W20423  14.251   9.782  13.454
61163W        W20424  35.587  15.117  12.068
61164W        W20425  15.754  41.819  12.885
61165W        W20426  23.232   6.337   1.411
61166W        W20427  42.497  44.444   4.285
61167W        W20428  18.124   4.887   0.329
61168W        W20429   0.833  34.392   3.340
61169W        W20430   8.747  39.034   2.356
61170W        W20431  32.517   5.416  14.328
61171W        W20432  27.595  27.467   2.692
61172W        W20433   9.378  17.282  11.026
61173W        W20434  10.708   1.280  12.350
61174W        W20435  31.005  15.176  10.957
61175W        W20436  40.906  13.685  13.433
61176W        W20437  25.080  18.188   2.188
61177W        W20438   7.193   2.735  12.890
61178W        W20439  22.059  36.491   2.395
61179W        W20440  17.715  13.203  11.091
61180W        W20441  36.518   4.866  13.308
61181W        W20442  33.929   6.428   2.848
61182W        W20443  20.257  36.383   1.239
61183W        W20444  31.512  31.980   3.698
61184W        W20445  20.755   0.804  13.849
61185W        W20446   0.466  31.568   1.792
61186W        W20447  21.163   7.178   3.225
61187W        W20448  36.443  12.144   4.836
61188W        W20449  32.426  30.517   4.284
61189W        W20450  39.361  40.844   2.672
61190W        W20451  42.967  10.254   2.233
61191W        W20452   2.961  37.521   3.201
61192W        W20453  19.112  19.614   0.418
61193W        W20454  35.922   2.457   5.143
61194W        W20455   6.323  25.041  10.046
61195W        W20456  21.513  41.999   4.242
61196W        W20457  19.073  11.147  11.992
61197W        W20458  12.246  19.725   1.410
61198W        W20459  32.887  16.634   0.464
61199W        W20460  43.292  13.160   0.736
61200W        W20461  20.696  37.023  13.381
61201W        W20462  42.470  22.572   5.261
61202W        W20463  32.976  17.618  10.909
61203W        W20464  31.042   7.708  12.844
61204W        W20465  35.097  20.268  11.022
61205W        W20466  16.723  27.154  12.053
61206W        W20467  38.056  37.929  12.480
61207W        W20468   6.722  29.070  13.509
61208W        W20469  18.659  30.610   4.295
61209W        W20470  18.067  26.970   5.183
61210W        W20471  35.554  25.998   0.392
61211W        W20472  38.831  40.849   0.868
61212W        W20473   8.856  14.172  11.025
61213W        W20474  40.411  17.762   0.795
61214W        W20475  30.632  35.009   4.207
61215W        W20476  42.358  42.447  13.048
61216W        W20477   6.873   4.719  12.083
61217W        W20478  28.115  23.012  13.378
61218W        W20479  43.313   8.838  11.986
61219W        W20480  34.902   3.239  14.404
61220W        W20481  31.974  38.504  12.407
61221W        W20482  15.096  31.459   1.280
61222W        W20483  10.671  14.323   1.289
61223W        W20484   7.327   8.341   1.764
61224W        W20485  37.966  31.945  10.521
61225W        W20486   9.287   1.924   1.280
61226W        W20487  25.031  16.604   3.684
61227W        W20488  13.159  42.924  13.856
61228W        W20489  32.106  40.975   3.305
61229W        W20490  12.621  21.647   2.881
61230W        W20491  21.546  34.896   2.297
61231W        W20492  22.195  32.052  10.972
61232W        W20493   2.733  22.126  14.324
61233W        W20494   6.240   1.251  11.886
61234W        W20495  42.999  24.494  12.847
61235W        W20496  11.720  15.263  14.354
61236W        W20497  32.455  35.864   4.317
61237W        W20498  18.078  24.580   3.201
61238W        W20499   6.252  17.746   4.697
61239W        W20500  29.038  27.557  13.955
61240W        W20501   0.293  33.937   3.695
61241W        W20502  43.826   9.355   4.166
61242W        W20503  30.463  43.966  14.759
61243W        W20504  33.433  10.728  14.278
61244W        W20505  11.338   5.418   3.771
61245W        W20506  24.621   5.291  10.101
61246W        W20507   0.404  27.632   3.230
61247W        W20508   0.883   7.232  10.483
61248W        W20509  16.762  34.529   2.779
61249W        W20510  37.575  32.422  14.812
61250W        W20511  25.127  41.395   4.277
61251W        W20512  35.922  14.768   2.281
61252W        W20513  21.074  40.869   4.734
61253W        W20514  30.414   5.917   2.268
61254W        W20515  31.640  19.644  12.936
61255W        W20516  25.073  30.108  12.886
61256W        W20517  12.284   6.860   3.667
61257W        W20518   2.351  30.054  14.381
61258W        W20519  14.677  15.722  14.430
61259W        W20520  25.030  25.996  13.937
61260W        W20521  33.578  20.748   5.252
61261W        W20522   3.953  32.010   2.392
61262W        W20523  34.880  30.551   0.260
61263W        W20524   0.823  26.964  11.123
61264W        W20525  37.507  26.992  11.129
61265W        W20526   7.298  33.529   0.836
61266W        W20527  29.424   6.877   3.791
61267W        W20528  41.478  22.524   3.297
61268W        W20529  14.600  26.134   0.737
61269W        W20530  41.446  33.582   9.988
61270W        W20531  24.060  25.134  10.573
61271W        W20532  29.648  15.122   2.413
61272W        W20533  44.870  13.170  11.567
61273W        W20534   4.311  29.572   0.292
61274W        W20535  38.822  29.500  10.482
61275W        W20536  29.626   2.392  12.953
61276W        W20537  33.408   6.846   1.301
61277W        W20538  10.683  18.603  13.429
61278W        W20539  34.484  44.274   0.926
61279W        W20540  11.289  44.945  12.882
61280W        W20541  35.377  28.147  12.391
61281W        W20542  30.562  11.662   3.780
61282W        W20543  42.899  24.484  14.011
61283W        W20544  16.724  17.084  11.115
61284W        W20545   2.423   6.378   3.771
61285W        W20546  31.068  43.462   4.197
61286W        W20547  21.072  10.253  12.969
61287W        W20548  12.653  25.216   0.756
61288W        W20549  28.060  25.684   0.893
61289W        W20550   2.820   9.832   1.881
61290W        W20551  11.249  15.103  14.353
61291W        W20552   1.458  19.752   0.358
61292W        W20553  19.558  31.126  11.896
61293W        W20554   4.400  24.681   4.353
61294W        W20555  10.377  17.232   1.396
61295W        W20556   1.387  32.019   5.145
61296W        W20557  30.133  35.525   3.183
61297W        W20558  36.566   1.363  11.588
61298W        W20559  41.858  11.344   2.398
61299W        W20560  23.164  31.626   2.883
61300W        W20561  40.404  14.778  13.371
61301W        W20562  39.449  20.654  11.898
61302W        W20563  42.355  42.855  13.879
61303W        W20564   2.273   6.345   4.321
61304W        W20565   4.824   1.835   4.620
61305W        W20566  33.613  12.845   0.826
61306W        W20567  23.058  41.845  12.063
61307W        W20568  12.307  34.564  11.929
61308W        W20569  43.272  19.130   0.265
61309W        W20570   2.898   8.735   4.323
61310W        W20571  33.614  29.928  13.328
61311W        W20572  27.612  38.945  12.956
61312W        W20573   8.358  19.173  11.861
61313W        W20574  32.495   1.357   0.355
61314W        W20575  31.933  15.690  10.482
61315W        W20576  27.670  21.247  11.432
61316W        W20577  13.756   7.369   2.854
61317W        W20578  35.005   4.414   4.193
61318W        W20579  20.201  11.351  14.316
61319W        W20580   8.720  40.311  11.474
61320W        W20581  37.079   8.360   1.294
61321W        W20582  27.955  35.484  13.037
61322W        W20583  23.189  25.607  10.967
61323W        W20584  33.989  17.715   0.822
61324W        W20585   7.908  41.514  11.062
61325W        W20586   3.427  34.421  14.804
61326W        W20587  40.475  31.086  12.370
61327W        W20588  28.435  36.858   3.845
61328W        W20589   3.735  12.239  14.867
61329W        W20590  35.528   1.345   2.884
61330W        W20591  17.597  10.215   3.827
61331W        W20592  10.300   2.804   2.261
61332W        W20593   8.387  35.915   2.180
61333W        W20594  21.633  21.105  11.010
61334W        W20595  34.879  39.918  10.995
61335W        W20596  28.991  18.698   2.802
61336W        W20597   4.233   4.765   4.338
61337W        W20598   6.760  20.047   0.946
61338W        W20599  44.850  44.276  14.395
61339W        W20600   0.751  24.596  10.602
61340W        W20601   8.237  14.653   0.849
61341W        W20602  33.897  35.872   0.313
61342W        W20603  20.134  29.144   1.347
61343W        W20604  32.992   8.827  14.996
61344W        W20605   7.341  14.276   3.265
61345W        W20606  23.608  38.954  10.903
61346W        W20607  25.504  10.686   2.179
61347W        W20608  33.962  29.451  12.875
61348W        W20609  16.272   6.921   0.862
61349W        W20610  30.478  39.440  12.464
61350W        W20611   6.183  44.894  11.432
61351W        W20612  28.023  20.756  11.935
61352W        W20613  35.535  24.690   2.343
61353W        W20614  36.909   2.250   4.308
61354W        W20615  17.264  44.814  11.874
61355W        W20616  33.575  25.603   2.258
61356W        W20617  28.481  30.422   4.707
61357W        W20618  18.129  22.058   4.199
61358W        W20619  44.370  12.288  10.575
61359W        W20620  39.940  18.246   4.602
61360W        W20621  27.033  20.616   4.209
61361W        W20622   4.356  35.934   0.746
61362W        W20623  22.710  42.465  10.456
61363W        W20624  22.624  33.125  11.031
61364W        W20625  14.107   4.748  10.625
61365W        W20626   8.773  41.972  14.380
61366W        W20627  19.572  32.898   0.891
61367W        W20628  33.993  44.975   3.655
61368W        W20629  25.530  18.228   1.928
61369W        W20630  22.563   6.835  11.946
61370W        W20631   7.677   6.752   4.140
61371W        W20632   5.325  13.145   3.746
61372W        W20633  26.696  28.589  13.825
61373W        W20634  36.841  32.999  10.439
61374W        W20635   8.844   5.717   2.845
61375W        W20636  25.678   9.376   1.767
61376W        W20637   6.310   8.739  14.298
61377W        W20638  26.675   1.885   1.351
61378W        W20639  21.029  30.907  10.414
61379W        W20640  31.021   5.782  11.608
61380W        W20641  40.921  26.126  10.893
61381W        W20642  23.123  14.716   4.341
61382W        W20643  27.015  43.873   0.752
61383W        W20644   4.868   4.880  12.425
61384W        W20645  43.815   1.823  12.886
61385W        W20646  24.991  10.382   1.403
61386W        W20647  33.968   8.299  12.416
61387W        W20648  10.193  44.772   0.948
61388W        W20649  39.953  15.107   1.333
61389W        W20650  35.393   7.860  12.375
61390W        W20651  24.593  28.617   3.149
61391W        W20652   4.825  24.172  13.019
61392W        W20653  11.686   2.335  13.536
61393W        W20654   4.941  37.930   2.850
61394W        W20655   5.341  16.792  13.529
61395W        W20656   3.833  31.970   0.935
61396W        W20657  40.519   5.925  11.116
61397W        W20658  13.264  25.113  10.941
61398W        W20659  16.792   0.968   1.930
61399W        W20660  39.555  25.040   1.798
61400W        W20661   7.280  14.335   2.860
61401W        W20662   5.356  15.246  11.606
61402W        W20663  10.162  24.121  11.412
61403W        W20664  37.888   4.385  12.984
61404W        W20665  23.092  23.046   2.803
61405W        W20666   1.849  41.387  13.960
61406W        W20667  21.062  36.013   5.231
61407W        W20668   4.940  25.098  13.504
61408W        W20669  20.643   3.849  13.955
61409W        W20670  20.055  19.056  12.369
61410W        W20671   0.941  11.200  11.052
61411W        W20672  12.755  30.071  12.501
61412W        W20673   8.333  24.692  12.900
61413W        W20674  12.610  37.974  14.342
61414W        W20675   5.320  39.346  13.480
61415W        W20676  18.206   6.295  14.915
61416W        W20677  41.478   6.342   0.754
61417W        W20678   7.254  25.602   4.756
61418W        W20679  37.919  14.119  11.127
61419W        W20680   5.714  20.666   3.379
61420W        W20681  29.484  17.289  13.335
61421W        W20682  33.106   3.223  13.819
61422W        W20683  36.886  25.032   2.288
61423W        W20684   0.776  43.913  14.971
61424W        W20685   1.952  39.868   2.695
61425W        W20686  36.901  33.463   0.276
61426W        W20687  14.113  25.635  13.923
61427W        W20688   0.853  16.181  14.444
61428W        W20689  38.387   6.301   2.406
61429W        W20690  19.647  32.935  14.974
61430W        W20691  11.653  18.060  10.907
61431W        W20692  34.417  42.306   1.220
61432W        W20693  31.630  28.968   1.869
61433W        W20694   5.350  13.681   0.454
61434W        W20695   6.365  42.405   4.248
61435W        W20696  29.002  33.527   1.785
61436W        W20697  15.132  34.490  12.006
61437W        W20698   5.417  22.176  13.007
61438W        W20699  41.979   7.834   0.865
61439W        W20700  33.460  44.374  12.574
61440W        W20701  19.134   6.889  14.490
61441W        W20702  34.566  31.517   1.378
61442W        W20703  25.167  11.224   0.785
61443W        W20704  30.562   7.858   0.384
61444W        W20705   8.228  18.559   0.952
61445W        W20706  14.148  23.638   0.727
61446W        W20707  12.189  12.801   1.895
61447W        W20708  44.465  35.883  14.992
61448W        W20709  21.239  36.967   0.962
61449W        W20710  17.242   9.159  14.028
61450W        W20711  21.231   2.435  10.937
61451W        W20712  24.645  39.954  12.912
61452W        W20713  16.201  12.756  12.924
61453W        W20714   4.894  37.357   3.352
61454W        W20715  28.570  12.815   0.927
61455W        W20716  37.050  27.580   3.344
61456W        W20717  13.158  24.044   4.269
61457W        W20718  19.274   0.977   4.626
61458W        W20719  39.876  13.145   1.216
61459W        W20720  26.951  43.949  12.064
61460W        W20721  17.206  27.541   0.413
61461W        W20722  39.861  21.229   4.231
61462W        W20723  28.574  36.955  11.867
61463W        W20724  22.645   8.785   3.256
61464W        W20725   3.299  13.260  14.463
61465W        W20726  36.841  15.108  12.499
61466W        W20727   5.405   9.236   2.897
61467W        W20728  19.663  11.769   2.336
61468W        W20729  29.153  34.485   0.899
61469W        W20730  26.563  26.100  12.354
61470W        W20731   3.722   0.317   1.227
61471W        W20732  11.216   4.315  11.861
61472W        W20733  29.938  25.056   4.642
61473W        W20734  41.006  14.775   3.189
61474W        W20735   7.304   7.807  11.977
61475W        W20736  40.798  43.900  14.958
61476W        W20737   7.697   6.373   0.418
61477W        W20738   2.298  30.648  12.414
61478W        W20739   2.777  40.019   3.788
61479W        W20740  31.014  30.513   5.149
61480W        W20741  35.510  35.510  12.932
61481W        W20742   0.380  18.191   2.318
61482W        W20743  25.043  25.623   4.803
61483W        W20744  23.114  10.367   3.857
61484W        W20745  35.903  19.058  14.925
61485W        W20746  17.084  17.212   0.424
61486W        W20747  21.523  36.492  11.568
61487W        W20748   2.437  18.109  13.997
61488W        W20749  39.323  10.878  13.882
61489W        W20750  28.153  12.765  10.607
61490W        W20751  18.636  37.544   1.706
61491W        W20752  19.767   7.225  10.429
61492W        W20753  41.802  32.623  14.952
61493W        W20754   3.216  35.555   4.654
61494W        W20755  12.362   8.404  11.063
61495W        W20756  15.268  34.940   2.232
61496W        W20757  36.982  28.573  12.987
61497W        W20758   1.469   7.245   4.704
61498W        W20759  40.883   9.672  13.938
61499W        W20760  26.556   2.335  11.555
61500W        W20761  44.946  28.643  12.896
61501W        W20762   3.373  23.051  11.496
61502W        W20763  12.829   5.391  10.615
61503W        W20764   9.172   3.946  12.961
61504W        W20765  19.646  34.455  14.516
61505W        W20766  19.118  16.690   3.745
61506W        W20767  31.608  40.354   3.636
61507W        W20768   4.226  28.107  14.758
61508W        W20769  20.604  17.640   1.784
61509W        W20770  17.118   1.317   1.760
61510W        W20771  29.598  40.992  14.804
61511W        W20772  31.573  22.554   3.777
61512W        W20773  17.588  20.560  12.943
61513W        W20774  18.077  17.723   1.291
61514W        W20775  26.580  31.902  12.035
61515W        W20776   5.875  42.403  11.394
61516W        W20777   3.937  15.235   3.771
61517W        W20778  40.326  34.503  14.406
61518W        W20779  13.279  18.733   2.376
61519W        W20780  35.494  40.888  11.960
61520W        W20781  12.766  37.859   0.437
61521W        W20782  35.980   3.746   1.298
61522W        W20783  43.945  42.358   3.731
61523W        W20784  25.043   4.935   1.434
61524W        W20785  13.696   9.753   4.298
61525W        W20786  17.749  23.995  10.558
61526W        W20787   5.835  26.126  12.949
61527W        W20788   6.893  15.252  11.032
61528W        W20789   2.871  29.052   4.662
61529W        W20790  15.151  36.899  12.070
61530W        W20791  44.794  41.939   2.419
61531W        W20792   2.882  28.564  10.923
61532W        W20793   9.351  31.150   2.398
61533W        W20794   9.713  34.571   2.198
61534W        W20795   8.661   5.335  12.990
61535W        W20796  41.837  19.116  10.018
61536W        W20797  23.541  33.000  11.065
61537W        W20798  12.640  18.270   1.322
61538W        W20799  32.132  38.868  10.939
61539W        W20800  40.545  36.569  10.557
61540W        W20801  26.578  32.885  11.093
61541W        W20802   5.794  13.691  11.406
61542W        W20803  11.320  25.165   0.886
61543W        W20804  33.995  33.412  11.528
61544W        W20805  23.674  13.322   4.153
61545W        W20806  11.774  24.635  13.838
61546W        W20807  23.181   6.688  13.343
61547W        W20808  21.214  26.573  12.569
61548W        W20809  42.393  42.288  10.949
61549W        W20810  26.490  16.611   4.636
61550W        W20811   6.359  32.057   4.735
61551W        W20812   9.154   4.276   3.753
61552W        W20813   0.350  27.637  11.928
61553W        W20814  30.924  10.812  11.567
61554W        W20815  24.541  10.703  13.037
61555W        W20816  11.728  27.540   2.260
61556W        W20817  13.716  11.755   3.782
61557W        W20818  17.307  17.765  12.892
61558W        W20819  34.086  21.749   0.450
61559W        W20820  28.545   8.823   3.672
61560W        W20821  31.913  32.069   4.197
61561W        W20822  39.846   8.688  12.375
61562W        W20823   4.771  10.160   5.140
61563W        W20824   7.187  11.362  11.384
61564W        W20825  42.494  22.024  12.880
61565W        W20826   0.352  15.194  12.412
61566W        W20827  18.238   5.886  13.374
61567W        W20828  26.207  25.515  13.476
61568W        W20829   7.283  32.443   0.422
61569W        W20830  35.573   9.667   4.632
61570W        W20831  21.743   0.779  14.491
61571W        W20832   6.368   8.317  12.373
61572W        W20833  23.716   7.890  10.407
61573W        W20834  15.113   6.321   1.432
61574W        W20835   0.764  18.091   2.847
61575W        W20836  21.236  35.023   1.275
61576W        W20837  25.981  35.550   2.315
61577W        W20838  38.403  31.962  10.110
61578W        W20839  27.993   1.786   2.792
61579W        W20840   5.318   8.836   0.814
61580W        W20841   9.237   2.267   4.634
61581W        W20842  11.711  26.487   1.839
61582W        W20843   1.401  15.767  14.772
61583W        W20844  28.058  14.721   3.681
61584W        W20845  26.110  37.531  10.945
61585W        W20846  33.095  43.478  14.370
61586W        W20847  29.126   8.185   2.696
61587W        W20848  20.234   3.449  12.342
61588W        W20849  35.455  26.043   2.377
61589W        W20850  32.633  29.504  13.012
61590W        W20851  14.173  39.557   0.813
61591W        W20852  19.135   6.729   0.457
61592W        W20853   1.835   3.858  11.980
61593W        W20854   8.174  12.287  11.994
61594W        W20855  15.310   7.252   1.269
61595W        W20856  27.616   4.326   1.435
61596W        W20857  11.858  21.644  12.968
61597W        W20858  11.859  14.690   1.377
61598W        W20859   2.928   2.457   4.329
61599W        W20860   9.160   4.225  13.051
61600W        W20861  42.988   8.823  10.498
61601W        W20862  35.532  35.907   1.406
61602W        W20863  31.597  11.204   2.346
61603W        W20864  19.696  26.084   3.179
61604W        W20865  23.168  20.737  10.977
61605W        W20866  26.026  13.604  10.579
61606W        W20867  23.231  43.502  13.872
61607W        W20868  39.824  41.923  14.489
61608W        W20869  16.199  15.612   4.719
61609W        W20870  11.172  32.057  11.080
61610W        W20871  21.622  32.101  10.434
61611W        W20872  14.720  19.686   1.802
61612W        W20873  17.189  28.619  10.535
61613W        W20874   2.305  44.395  13.548
61614W        W20875  15.116  22.584  11.986
61615W        W20876  32.990   3.895  11.099
61616W        W20877  13.301  20.139   3.313
61617W        W20878  13.261  22.707   0.479
61618W        W20879  10.243  10.167  10.435
61619W        W20880  26.499  15.183   2.390
61620W        W20881   0.267   9.172  10.981
61621W        W20882  34.931  40.981   4.622
61622W        W20883  23.220  28.052  12.976
61623W        W20884  39.436  42.937   3.711
61624W        W20885  19.610  20.551  13.815
61625W        W20886   1.839   3.441  14.871
61626W        W20887  12.614  31.960   5.198
61627W        W20888  43.452  12.174  12.029
61628W        W20889   5.751  15.244  13.056
61629W        W20890  38.520   1.363   4.740
61630W        W20891  26.536  33.483   4.177
61631W        W20892  34.942  10.267   5.678
61632W        W20893  16.605   1.423   4.599
61633W        W20894  19.621  36.009   3.224
61634W        W20895  35.414  21.094  14.805
61635W        W20896  31.921  19.555  14.997
61636W        W20897  22.039  13.256   1.328
61637W        W20898   3.408  32.924   1.444
61638W        W20899   9.390  41.922  14.490
61639W        W20900  30.644  31.093   2.705
61640W        W20901  42.942  36.089   2.390
61641W        W20902   3.838   4.422   1.285
61642W        W20903  33.014   6.337   3.850
61643W        W20904  11.127  22.598  14.004
61644W        W20905  41.316   5.895   1.311
61645W        W20906   0.427   9.283  12.442
61646W        W20907  44.808  38.864  11.993
61647W        W20908  39.984  15.791   4.808
61648W        W20909  38.038  14.227   4.138
61649W        W20910  44.889   3.350  12.031
61650W        W20911  27.636  39.993   1.437
61651W        W20912  41.905   1.409   2.272
61652W        W20913  24.049  11.643  11.907
61653W        W20914  25.090  12.770  12.402
61654W        W20915  29.046   5.434  14.844
61655W        W20916  15.784  28.640  11.980
61656W        W20917   4.919   5.402   9.635
61657W        W20918   5.904   7.249   3.183
61658W        W20919   0.473   7.200   1.701
61659W        W20920  22.016  39.991  12.980
61660W        W20921  40.881   6.677   4.290
61661W        W20922  42.793  31.562   2.381
61662W        W20923   5.263  38.435   2.303
61663W        W20924   4.855  22.101  14.930
61664W        W20925  21.213  12.628   2.384
61665W        W20926  26.034  44.899  13.853
61666W        W20927  37.977  37.524  11.863
61667W        W20928  16.707  13.701  14.768
61668W        W20929  26.526   8.355  11.495
61669W        W20930  38.863  12.727  13.453
61670W        W20931  27.451  41.315  11.473
61671W        W20932  27.648  29.515  12.918
61672W        W20933   5.713  10.238   3.251
61673W        W20934  23.591  13.270  10.518
61674W        W20935  38.007  11.825  14.960
61675W        W20936  19.149  35.034  11.551
61676W        W20937  36.478  12.850  13.391
61677W        W20938  26.585  34.405   1.871
61678W        W20939  41.855   4.873  13.307
61679W        W20940   1.962  33.449   2.211
61680W        W20941   2.296  39.360   1.791
61681W        W20942  28.956  26.060  11.371
61682W        W20943  34.110  33.439   2.307
61683W        W20944  23.657   7.717   1.258
61684W        W20945  14.595   0.364  12.882
61685W        W20946   1.823  25.997   2.836
61686W        W20947  27.645  20.571  14.376
61687W        W20948  26.615  35.060   0.335
61688W        W20949  44.954  27.127   0.785
61689W        W20950  13.635  34.447  10.450
61690W        W20951  28.943  13.321  14.018
61691W        W20952  24.034  30.148  12.524
61692W        W20953  13.833  31.990  12.883
61693W        W20954  30.640  33.029   2.892
61694W        W20955  37.903   5.902  13.876
61695W        W20956  26.036   5.225   0.781
61696W        W20957  36.853   3.381  12.373
61697W        W20958  18.734  42.792   4.266
61698W        W20959  43.338  29.009   3.729
61699W        W20960  18.196  13.762  11.588
61700W        W20961   0.820  36.881  14.437
61701W        W20962  42.390  30.046   1.259
61702W        W20963  40.532  33.075  11.876
61703W        W20964   2.227  34.052   0.441
61704W        W20965  37.525  23.542   3.788
61705W        W20966  30.084  35.016  11.069
61706W        W20967  41.476   8.200   0.853
61707W        W20968  25.577  39.354   1.907
61708W        W20969  20.102  31.064   0.372
61709W        W20970  42.514   8.705   3.351
61710W        W20971  11.688  41.032   3.281
61711W        W20972  38.907  28.047  11.495
61712W        W20973  15.701  16.795  14.828
61713W        W20974  36.534  29.637  11.952
61714W        W20975  14.731  22.011   2.262
61715W        W20976  14.796   4.425   2.765
61716W        W20977   8.268  43.303  12.576
61717W        W20978  30.107  28.598  14.028
61718W        W20979   0.296  10.184   2.798
61719W        W20980   6.347  40.530  12.578
61720W        W20981  25.040  21.152  10.495
61721W        W20982  40.388  33.112  14.915
61722W        W20983  31.978  39.343  12.424
61723W        W20984  42.830   4.433   0.302
61724W        W20985  37.868  26.056   0.393
61725W        W20986  31.486  24.620   3.852
61726W        W20987  43.313  20.763   3.804
61727W        W20988  25.976  17.165  12.469
61728W        W20989  38.442  28.965   3.150
61729W        W20990  42.327   4.719  14.796
61730W        W20991  14.746   1.737  11.523
61731W        W20992  44.907   1.927  13.536
61732W        W20993  25.143   6.911  13.349
61733W        W20994  44.002  35.557  10.467
61734W        W20995   9.784  35.922  11.499
61735W        W20996   7.748   0.329  10.917
61736W        W20997   9.822   6.191   2.273
61737W        W20998  19.685   9.781  12.914
61738W        W20999   1.902   2.353   0.458
61739W        W21000  26.526  12.729   1.384
61740W        W21001  35.492  11.336  10.996
61741W        W21002   9.858   4.712  10.935
61742W        W21003  36.551  15.648   0.799
61743W        W21004   5.383  43.932  13.052
61744W        W21005   2.951  26.167   3.261
61745W        W21006   1.338  33.579  13.346
61746W        W21007   8.259  23.000   4.280
61747W        W21008  26.581   4.939  13.011
61748W        W21009  42.810  16.098   2.686
61749W        W21010  27.098  26.207   2.670
61750W        W21011  44.965  29.430  12.855
61751W        W21012  32.977  38.964   1.284
61752W        W21013  16.188  23.003  11.023
61753W        W21014  31.116   5.240  10.975
61754W        W21015   0.312   9.660  13.336
61755W        W21016  12.170  17.162   2.184
61756W        W21017  31.154  21.539   4.625
61757W        W21018   8.898  10.267  11.996
61758W        W21019  22.079  36.465  10.610
61759W        W21020   1.973  35.960  13.471
61760W        W21021  35.456  42.370  10.619
61761W        W21022  29.540  41.506  11.019
61762W        W21023   6.904  26.571   1.777
61763W        W21024  23.674  14.719  11.441
61764W        W21025  40.529  20.136   3.773
61765W        W21026   3.432   9.182  14.921
61766W        W21027  38.037  34.024  10.054
61767W        W21028  17.274   2.919   1.826
61768W        W21029  44.443  30.153   1.873
61769W        W21030  23.606  26.600  10.927
61770W        W21031  28.460   6.908  12.370
61771W        W21032  37.492  40.990   4.314
61772W        W21033  22.678  19.699   3.801
61773W        W21034  11.740  24.657  10.417
61774W        W21035  44.779  11.791   3.319
61775W        W21036  13.675   3.295   3.318
61776W        W21037  44.809  35.905  11.082
61777W        W21038  20.692  27.157  10.954
61778W        W21039  16.573  30.449  14.968
61779W        W21040   1.840  25.199   4.273
61780W        W21041  28.442   0.911   2.178
61781W        W21042  36.452  14.733   1.283
61782W        W21043  13.754  44.813   4.768
61783W        W21044   8.751  20.542   4.754
61784W        W21045   9.337  35.396  10.456
61785W        W21046  35.881   6.880  13.474
61786W        W21047  35.004  41.454  12.023
61787W        W21048   0.951  24.099   5.199
61788W        W21049  37.502   7.249  11.901
61789W        W21050  26.025   6.887  11.516
61790W        W21051  19.133  31.915  11.999
61791W        W21052   5.368   7.858   0.950
61792W        W21053  12.807  23.230   0.811
61793W        W21054   3.340  29.540  12.402
61794W        W21055  17.096  44.503  12.927
61795W        W21056  31.103  23.561   2.792
61796W        W21057  37.396  34.878   3.737
61797W        W21058  19.589  29.043   9.514
61798W        W21059  28.457   1.814   1.763
61799W        W21060  44.824  32.443   4.735
61800W        W21061  31.634  16.586  13.338
61801W        W21062  37.548  31.914   0.302
61802W        W21063  28.061  35.474  11.959
61803W        W21064  25.595  19.624   1.724
61804W        W21065  42.338  21.145   4.693
61805W        W21066  37.931  16.599  14.460
61806W        W21067  31.556  20.602   3.355
61807W        W21068  38.076  13.727   2.268
61808W        W21069   2.928  32.624  11.976
61809W        W21070  17.232   9.649  13.832
61810W        W21071  38.325  18.764   0.288
61811W        W21072  14.628  37.972  14.419
61812W        W21073   5.838   8.228  13.374
61813W        W21074  32.401  23.512   0.965
61814W        W21075   4.712  40.036   2.902
61815W        W21076  36.914  38.956   4.764
61816W        W21077  41.457  38.042  13.063
61817W        W21078  39.060  22.197  11.050
61818W        W21079  36.911  35.950   3.244
61819W        W21080  28.475  18.739  14.351
61820W        W21081   8.190  43.796   3.254
61821W        W21082  33.930  30.437   4.773
61822W        W21083  25.605  35.933   1.428
61823W        W21084  22.229  19.138  11.461
61824W        W21085  32.109   8.380  12.446
61825W        W21086   3.932   7.698   3.647
61826W        W21087  13.740  21.083  14.916
61827W        W21088  25.217  36.851  14.385
61828W        W21089  10.357  38.058  13.002
61829W        W21090   9.151  21.171   0.386
61830W        W21091   7.859  28.983  13.425
61831W        W21092  36.447  39.045  10.473
61832W        W21093  20.145  15.656  13.355
61833W        W21094  10.662  24.016  12.461
61834W        W21095   9.786   8.834   1.299
61835W        W21096  35.476  43.285   3.842
61836W        W21097  42.890   5.258  13.991
61837W        W21098  19.580  36.371  14.380
61838W        W21099  11.812  32.553  12.564
61839W        W21100  30.520   6.272   0.303
61840W        W21101   2.420  10.225   4.678
61841W        W21102   6.832   1.757  10.964
61842W        W21103  43.863  18.288  14.462
61843W        W21104   5.703  13.696   2.304
61844W        W21105  19.153  31.597  11.962
61845W        W21106  39.978  41.349   1.229
61846W        W21107  42.448  29.431   0.348
61847W        W21108  26.464  41.479   0.353
61848W        W21109  32.990  36.975  10.527
61849W        W21110  24.493  20.129   4.267
61850W        W21111   2.805  23.113  14.332
61851W        W21112  28.951   8.335  12.049
61852W        W21113  39.004  29.999   1.858
61853W        W21114  25.654  42.780  10.966
61854W        W21115   4.872   7.400  11.910
61855W        W21116  22.664  28.674   3.372
61856W        W21117  13.682  33.613   3.310
61857W        W21118   1.735  15.141   2.250
61858W        W21119   2.433   8.394   4.617
61859W        W21120  37.520   9.823   3.320
61860W        W21121  23.143  36.366   2.734
61861W        W21122  40.334  39.014  14.387
61862W        W21123  28.183  36.473   1.782
61863W        W21124  32.982   8.735  14.413
61864W        W21125  14.260  29.650   4.675
61865W        W21126  17.146  44.755   0.278
61866W        W21127  11.188  11.356   2.687
61867W        W21128   0.455  27.689  13.047
61868W        W21129  43.921  17.694   0.858
61869W        W21130  23.578  41.923  10.967
61870W        W21131  31.115   4.741  10.939
61871W        W21132   3.878  25.055  12.899
61872W        W21133   8.756  10.679   4.321
61873W        W21134  33.556   3.407   1.811
61874W        W21135  42.283  13.791  10.447
61875W        W21136  30.431  32.120  14.759
61876W        W21137  13.273  21.720  13.455
61877W        W21138  35.892  18.067   4.307
61878W        W21139  39.896   1.446   3.244
61879W        W21140   0.904   3.860  12.048
61880W        W21141   0.908  20.095   2.711
61881W        W21142  10.219  44.964  14.472
61882W        W21143  21.606  41.035  10.594
61883W        W21144   3.305  14.175  12.937
61884W        W21145  10.327  19.572  14.847
61885W        W21146  42.454  21.179   0.781
61886W        W21147  40.984  24.655  13.541
61887W        W21148  33.129   3.894   1.853
61888W        W21149  11.776  25.115  14.320
61889W        W21150   2.919  17.167  13.817
61890W        W21151  18.187   4.811   1.224
61891W        W21152  35.060  30.480   2.866
61892W        W21153  30.006  31.047   2.316
61893W        W21154  14.335   6.703  12.035
61894W        W21155   9.854   9.173   1.375
61895W        W21156  27.124  34.598   1.431
61896W        W21157  20.663  15.215  11.916
61897W        W21158  22.737  35.413   1.707
61898W        W21159  23.728  15.608   4.159
61899W        W21160  29.509  25.575  13.899
61900W        W21161  31.481  16.189   1.817
61901W        W21162  10.371  17.304  13.429
61902W        W21163  15.298  25.085   3.181
61903W        W21164  21.094  31.469   0.752
61904W        W21165  23.584   7.237   0.752
61905W        W21166  11.173  28.939  14.765
61906W        W21167  25.545  24.212   2.790
61907W        W21168  37.500   5.737  10.614
61908W        W21169  21.661   5.427   2.671
61909W        W21170  42.463  29.446  10.055
61910W        W21171  11.720  10.316   4.337
61911W        W21172  43.880  27.972  12.961
61912W        W21173   0.433  19.219   1.781
61913W        W21174  39.062  16.213  14.489
61914W        W21175   7.313   9.759  13.917
61915W        W21176  21.699  25.219  12.876
61916W        W21177  29.095  11.148   1.305
61917W        W21178  15.323   0.253  14.006
61918W        W21179   9.724  44.881   1.845
61919W        W21180  40.397   7.194   0.731
61920W        W21181  36.966  27.162  14.381
61921W        W21182   6.203  42.432  13.381
61922W        W21183  28.944   0.965   3.311
61923W        W21184  30.907  31.106   4.658
61924W        W21185  43.438  39.383   1.299
61925W        W21186  34.375  13.845   4.346
61926W        W21187  16.073  40.798   1.741
61927W        W21188  44.325  43.325  13.879
61928W        W21189  20.600   9.681   0.934
61929W        W21190  29.948  21.630  10.608
61930W        W21191   0.445  21.128  12.854
61931W        W21192  28.442   2.291   0.811
61932W        W21193  39.322  23.046  12.451
61933W        W21194  39.986   5.240  14.796
61934W        W21195  11.289  29.029  12.922
61935W        W21196  13.336  14.626   3.856
61936W        W21197  12.773  33.984   0.243
61937W        W21198  22.023   7.350  11.529
61938W        W21199  11.715  18.222   4.628
61939W        W21200  10.695  22.202  14.417
61940W        W21201  13.644   4.339  12.899
61941W        W21202  43.485  17.673  11.065
61942W        W21203  22.612  19.722  11.005
61943W        W21204  36.470  16.604   0.341
61944W        W21205   7.307  23.607   3.824
61945W        W21206   4.260   9.369  13.502
61946W        W21207  33.022   3.321  11.912
61947W        W21208   5.862  41.035  11.924
61948W        W21209  33.049  43.921   0.246
61949W        W21210  14.272  43.874  13.031
61950W        W21211  23.542  41.533   4.261
61951W        W21212  35.891  31.152  11.471
61952W        W21213  20.052  37.043  10.971
61953W        W21214  41.845   3.813   4.831
61954W        W21215  27.554  36.872   1.275
61955W        W21216   9.203   9.377  14.858
61956W        W21217   5.818  38.325  14.938
61957W        W21218  20.582  17.569   4.293
61958W        W21219  40.546  37.377   4.249
61959W        W21220  42.850  40.371  14.423
61960W        W21221   0.802  42.285  10.905
61961W        W21222   3.883  20.181  13.051
61962W        W21223   5.779  13.119  12.093
61963W        W21224  29.667   7.402   3.863
61964W        W21225  13.338   8.266   2.852
61965W        W21226  12.611  18.771   2.742
61966W        W21227  37.549  10.686  12.522
61967W        W21228  15.778   2.918   9.959
61968W        W21229  10.166   6.905  11.117
61969W        W21230  18.685  44.768   3.299
61970W        W21231  17.205   7.185  14.442
61971W        W21232  12.633  27.019   1.356
61972W        W21233  39.525   5.377  14.495
61973W        W21234   5.193  16.221  10.476
61974W        W21235  24.995  33.590  13.438
61975W        W21236  29.467  23.158   3.383
61976W        W21237  35.582  27.030  14.466
61977W        W21238  10.779  22.575  14.293
61978W        W21239  35.423  24.048   0.738
61979W        W21240  21.088  33.075   0.324
61980W        W21241  28.986  13.138  13.042
61981W        W21242  14.245   7.414  14.819
61982W        W21243  34.445  38.513  13.340
61983W        W21244  43.363  30.144  12.871
61984W        W21245  25.526  16.186   1.246
61985W        W21246   1.377  11.369  14.342
61986W        W21247  24.173  26.159   0.325
61987W        W21248  21.567  38.949   2.220
61988W        W21249  23.571  29.527  14.965
61989W        W21250   5.806  43.286  10.565
61990W        W21251   0.259  16.249  10.623
61991W        W21252   0.872   5.257   2.308
61992W        W21253  33.606   0.333  13.871
61993W        W21254  25.669  40.850   2.712
61994W        W21255  13.721   9.174  14.322
61995W        W21256  29.618   7.395  11.989
61996W        W21257  33.509  41.412  10.532
61997W        W21258  11.220  32.460   2.759
61998W        W21259  16.139   3.730  13.005
61999W        W21260  25.989  27.520  14.882
62000W        W21261  38.968  29.594   2.707
62001W        W21262   2.336  19.055   3.642
62002W        W21263   7.353  42.911   4.649
62003W        W21264  38.440  15.278  13.501
62004W        W21265  24.196  29.959  11.544
62005W        W21266   1.840  30.431  13.918
62006W        W21267  42.296  37.441   4.247
62007W        W21268   8.896  29.162   3.194
62008W        W21269  42.949  37.860   5.680
62009W        W21270  37.405  13.840   3.332
62010W        W21271  36.481  38.468  11.600
62011W        W21272  38.916  25.503   0.384
62012W        W21273   5.242  16.122   3.647
62013W        W21274  18.749  43.350   1.377
62014W        W21275   4.871  43.506   4.125
62015W        W21276  25.193  21.032   4.327
62016W        W21277  23.109  29.951   1.212
62017W        W21278  37.066   1.282   4.140
62018W        W21279   3.297  41.864  12.871
62019W        W21280  36.488  22.212  11.480
62020W        W21281  27.158   6.384  14.419
62021W        W21282  29.133  42.378  13.847
62022W        W21283  20.716  44.324   1.264
62023W        W21284   0.264   9.307   2.892
62024W        W21285  18.116  10.866  13.536
62025W        W21286  24.712   3.729  10.562
62026W        W21287   5.770  28.461   2.798
62027W        W21288   7.714  14.166   3.305
62028W        W21289   4.292  43.292  13.852
62029W        W21290  31.524  11.724  14.353
62030W        W21291  11.766  28.608   1.384
62031W        W21292  10.818  42.525  11.511
62032W        W21293   9.176  34.019   1.221
62033W        W21294  13.625  18.583  12.921
62034W        W21295  34.382  21.520  12.980
62035W        W21296  38.422   6.314  14.905
62036W        W21297  36.913  25.688   4.154
62037W        W21298   8.798   9.789   1.737
62038W        W21299   8.389  16.268   1.796
62039W        W21300  17.165  32.063   3.817
62040W        W21301  17.167  24.008  11.973
62041W        W21302  22.190   3.895   4.329
62042W        W21303  37.466   9.289  12.377
62043W        W21304   4.787   1.792  13.966
62044W        W21305  31.053  11.719  10.412
62045W        W21306  16.635  23.688   1.757
62046W        W21307  44.501  42.778   4.753
62047W        W21308   0.250  43.915   4.815
62048W        W21309  21.181  36.591   4.806
62049W        W21310   8.756  12.705   4.605
62050W        W21311  38.029  33.030  12.998
62051W        W21312  37.906  35.963  10.585
62052W        W21313  42.473   3.907   0.726
62053W        W21314  26.482  27.030   2.865
62054W        W21315  24.058  13.709  14.345
62055W        W21316  37.996  20.720   2.734
62056W        W21317  17.154  36.407   1.381
62057W        W21318  22.730  28.977   2.202
62058W        W21319   8.336  14.727  14.858
62059W        W21320   7.185  39.487  12.867
62060W        W21321  10.334  39.434   3.766
62061W        W21322  39.887  27.100   2.282
62062W        W21323  34.590  42.895  13.338
62063W        W21324   9.811  25.603   1.767
62064W        W21325  17.089  32.946  10.518
62065W        W21326  20.274  27.952  14.812
62066W        W21327  22.636  22.195  11.536
62067W        W21328  42.305  15.257  13.430
62068W        W21329  18.550  24.989  14.783
62069W        W21330  40.949  14.642  11.976
62070W        W21331   2.784  12.126   4.309
62071W        W21332  15.669  22.685  12.969
62072W        W21333   8.254  33.523  13.880
62073W        W21334  14.769  18.093  10.049
62074W        W21335  11.656  38.888  11.032
62075W        W21336   4.938  41.307  10.571
62076W        W21337   5.705   6.839  11.399
62077W        W21338  28.154  31.499   9.946
62078W        W21339  34.465   7.406   3.187
62079W        W21340  10.157  32.892   3.820
62080W        W21341  11.197  28.495   0.435
62081W        W21342  25.528  29.062   9.937
62082W        W21343  12.781  22.571  13.992
62083W        W21344   7.766  24.669  14.775
62084W        W21345  40.027   8.898   1.356
62085W        W21346  24.501  12.144   2.675
62086W        W21347  34.066  39.326   4.626
62087W        W21348  38.483  11.738  14.936
62088W        W21349  27.193   4.331  13.803
62089W        W21350   5.208  22.717   3.780
62090W        W21351  31.916  36.587  13.056
62091W        W21352  26.665  29.496   9.958
62092W        W21353  27.565  39.827  11.524
62093W        W21354  36.023  30.431   3.311
62094W        W21355  36.468   1.911   1.238
62095W        W21356  37.336  26.071  13.345
62096W        W21357  30.570  32.394  12.470
62097W        W21358  14.806  14.793  12.869
62098W        W21359  44.460  44.330   1.233
62099W        W21360   4.879  12.196  11.891
62100W        W21361  16.301  23.637   2.412
62101W        W21362  24.585  15.140   1.781
62102W        W21363  32.054  36.050  12.914
62103W        W21364  17.252  21.227   0.266
62104W        W21365  32.008   1.341  13.022
62105W        W21366  10.689   9.351   4.705
62106W        W21367  24.215   1.259  13.486
62107W        W21368  30.424  35.104   0.299
62108W        W21369  17.085  25.147   2.856
62109W        W21370  15.790  37.972  13.791
62110W        W21371  31.050  29.105   1.899
62111W        W21372  17.107   7.202   2.345
62112W        W21373  18.634  37.911  14.924
62113W        W21374   6.833  42.835  13.035
62114W        W21375  37.989   2.752  13.052
62115W        W21376  25.979  12.151  13.845
62116W        W21377  28.984  29.466   1.230
62117W        W21378   7.886   2.962  10.890
62118W        W21379  32.489  17.107   2.854
62119W        W21380  14.798  26.590  12.507
62120W        W21381   9.287  12.312  10.408
62121W        W21382  42.447  12.794  12.493
62122W        W21383  19.639  43.482  12.383
62123W        W21384  27.483  34.467   3.819
62124W        W21385  30.926  20.086   2.734
62125W        W21386  24.084   3.324   1.446
62126W        W21387   4.260  22.025   4.341
62127W        W21388  27.980  44.333  11.477
62128W        W21389  41.371  25.085   1.434
62129W        W21390  19.680   1.771  14.295
62130W        W21391   9.368  27.483   4.671
62131W        W21392  10.821   5.691  13.950
62132W        W21393  40.345  34.398  12.529
62133W        W21394   3.871  41.986   0.244
62134W        W21395  29.554  25.515  12.400
62135W        W21396  40.952  19.551   3.666
62136W        W21397  34.503  11.715  12.924
62137W        W21398  37.373  16.680   0.808
62138W        W21399  15.313  33.127  13.446
62139W        W21400  15.208  43.008  13.010
62140W        W21401  15.782  11.821  11.888
62141W        W21402  16.591   9.212   1.846
62142W        W21403   1.968  26.200  13.370
62143W        W21404  36.045   7.729   0.763
62144W        W21405  24.720  43.965  12.051
62145W        W21406   0.918   4.319   0.329
62146W        W21407  24.036   4.894  11.556
62147W        W21408   6.323   0.896   1.832
62148W        W21409  18.733   0.980   4.651
62149W        W21410   2.420  41.888  11.578
62150W        W21411  25.054  26.136   4.195
62151W        W21412  21.721  14.822  11.973
62152W        W21413  21.712  28.050   3.255
62153W        W21414  36.593   1.812   2.663
62154W        W21415  15.144  44.461   4.803
62155W        W21416   3.905  40.943   3.739
62156W        W21417  17.161  22.558   5.209
62157W        W21418  42.508  33.965  13.829
62158W        W21419   0.270  16.104   0.447
62159W        W21420   6.771  33.972   1.368
62160W        W21421   2.857  21.611   1.357
62161W        W21422  36.008  29.941  10.491
62162W        W21423  43.277  33.061  11.084
62163W        W21424  31.958  25.641  11.503
62164W        W21425  32.534  29.068   2.781
62165W        W21426  18.669  23.563  13.962
62166W        W21427  20.149   3.335  10.894
62167W        W21428  10.287  34.560   2.844
62168W        W21429  30.942  32.520  13.816
62169W        W21430  37.836  39.892  12.829
62170W        W21431  29.629  34.996  12.018
62171W        W21432  40.850  15.141  11.483
62172W        W21433  11.635  14.737  13.058
62173W        W21434   0.822  33.024   1.263
62174W        W21435  16.281  19.178  13.389
62175W        W21436  10.205  21.075  10.478
62176W        W21437  44.836  38.940  13.337
62177W        W21438  36.923   9.286   3.859
62178W        W21439  42.297  32.136  13.866
62179W        W21440  18.651  10.799   3.709
62180W        W21441  34.489  30.616   4.179
62181W        W21442   0.437   5.843   0.955
62182W        W21443   9.740  28.599   0.787
62183W        W21444   7.806  43.386  12.564
62184W        W21445  34.946  44.847  13.961
62185W        W21446  39.919  15.209  12.898
62186W        W21447  36.916   8.866  13.854
62187W        W21448   9.393  34.369   0.765
62188W        W21449  41.822   0.850  10.557
62189W        W21450  28.647  20.708  11.981
62190W        W21451  38.496   5.797  13.449
62191W        W21452  20.228  40.029  14.474
62192W        W21453  28.932  15.578   3.685
62193W        W21454  39.864  12.219  11.863
62194W        W21455   5.869  44.468  11.018
62195W        W21456  29.503  17.153   2.330
62196W        W21457  13.166  40.941   4.136
62197W        W21458   6.224  12.160  11.560
62198W        W21459   4.340  15.241   2.871
62199W        W21460  38.874  15.226   4.207
62200W        W21461  38.467  43.819  13.372
62201W        W21462  44.773  27.618  11.909
62202W        W21463  17.217   1.782  10.033
62203W        W21464  29.652  20.641   1.774
62204W        W21465  25.690   9.376  13.928
62205W        W21466   2.348  41.864   2.704
62206W        W21467  11.160  32.401   1.231
62207W        W21468  43.494  40.446  10.602
62208W        W21469  16.075   3.460  13.920
62209W        W21470  26.080  33.469   3.649
62210W        W21471  13.651  16.099  13.850
62211W        W21472  28.133  36.893   1.837
62212W        W21473  26.661  40.992  11.924
62213W        W21474  17.108  29.995  14.303
62214W        W21475  26.550   5.201   0.438
62215W        W21476  29.476  12.348   2.865
62216W        W21477  20.267  42.988   2.864
62217W        W21478  41.820  35.577  10.908
62218W        W21479  19.591  43.992   2.362
62219W        W21480  41.791  35.398  12.997
62220W        W21481  16.788  11.691   4.736
62221W        W21482   8.392   3.830  14.014
62222W        W21483   5.802  24.647   4.250
62223W        W21484   6.359  26.533  11.855
62224W        W21485  43.002  24.010   4.658
62225W        W21486  41.996  11.167   0.311
62226W        W21487   1.803   3.946  12.995
62227W        W21488  25.530  41.431  12.033
62228W        W21489  17.687  24.508  12.431
62229W        W21490  21.140  15.624  14.983
62230W        W21491  31.017   5.824  14.964
62231W        W21492  37.025  38.046  13.542
62232W        W21493   6.423  42.852   2.721
62233W        W21494   6.252  27.093   2.784
62234W        W21495  43.337  33.455  14.777
62235W        W21496  36.070  25.709  12.936
62236W        W21497  25.618  12.126  10.565
62237W        W21498  26.978  31.131   3.266
62238W        W21499  19.138  18.075  10.545
62239W        W21500  24.615  12.614   0.767
62240W        W21501  20.095   3.824   0.447
62241W        W21502  39.358  14.163  13.962
62242W        W21503  27.545  16.107  14.345
62243W        W21504  43.784  36.905   3.350
62244W        W21505  18.764  33.129  14.450
62245W        W21506  36.453  11.129  12.374
62246W        W21507  38.327  44.948   2.851
62247W        W21508  32.629  10.269   4.778
62248W        W21509   4.400  40.003  13.370
62249W        W21510  19.208  32.070   1.830
62250W        W21511  19.697   1.844  13.830
62251W        W21512  27.134  40.807  12.072
62252W        W21513  20.718  12.117   1.729
62253W        W21514  18.644  36.405   4.795
62254W        W21515   6.213  18.234  14.870
62255W        W21516  10.686  22.124  13.912
62256W        W21517  14.106   4.430   1.270
62257W        W21518   2.369  14.826   3.260
62258W        W21519  16.762  20.548  12.436
62259W        W21520  37.967  14.233  12.029
62260W        W21521  35.091  10.232   0.363
62261W        W21522   6.301  37.432  11.421
62262W        W21523   8.778  42.818  12.396
62263W        W21524  43.283   9.275  12.392
62264W        W21525   8.803  17.073  13.410
62265W        W21526   4.436  13.771   3.679
62266W        W21527  26.081  23.134  14.278
62267W        W21528  33.555  32.451  13.848
62268W        W21529   5.212  32.088  12.378
62269W        W21530  32.516   3.375  12.057
62270W        W21531  43.794  33.997  10.907
62271W        W21532  21.567  23.186  12.484
62272W        W21533  34.421  26.634   3.196
62273W        W21534  21.071  18.579  12.382
62274W        W21535  13.178   9.833   4.272
62275W        W21536   4.910  28.021   4.269
62276W        W21537  22.724  33.588  13.325
62277W        W21538  23.682   1.817   4.746
62278W        W21539  31.426   4.779   3.702
62279W        W21540  38.434  39.055  10.932
62280W        W21541  36.065  35.040  14.789
62281W        W21542   3.321  19.183  10.558
62282W        W21543  30.529  42.388  10.439
62283W        W21544  29.978   2.738  10.913
62284W        W21545  38.055  26.528  12.888
62285W        W21546  17.779  41.303   2.857
62286W        W21547  13.798  12.710   4.247
62287W        W21548  26.694  15.593  11.603
62288W        W21549  28.583  22.668  14.276
62289W        W21550  20.203  21.110   3.223
62290W        W21551  28.535  22.224   1.424
62291W        W21552  16.813  41.378   1.761
62292W        W21553  30.150  37.903  14.779
62293W        W21554  22.066  14.595  13.813
62294W        W21555  43.372  10.190  10.594
62295W        W21556  25.482   6.187  10.434
62296W        W21557  44.272  31.608   1.366
62297W        W21558   5.346  39.836   1.796
62298W        W21559  43.856   1.317   3.178
62299W        W21560  26.662  10.172  12.497
62300W        W21561  12.621  42.840   1.838
62301W        W21562   2.424  23.634   4.320
62302W        W21563   7.412  16.223   3.205
62303W        W21564   6.904  21.092  13.382
62304W        W21565  13.719  38.483   1.318
62305W        W21566  43.327  34.511  11.495
62306W        W21567   4.799  26.067  10.912
62307W        W21568   3.955   6.217   1.318
62308W        W21569  38.014  12.226  11.117
62309W        W21570   2.303  26.685  12.935
62310W        W21571  13.138   1.390   2.342
62311W        W21572  33.125  39.919  10.981
62312W        W21573  13.716  17.731  10.569
62313W        W21574   4.299  18.752   0.355
62314W        W21575   6.402   0.942   5.315
62315W        W21576   8.320  13.204  14.321
62316W        W21577   2.228  31.515  10.998
62317W        W21578  35.497  14.111   3.719
62318W        W21579  35.013   5.428  14.945
62319W        W21580  23.597  34.008   2.332
62320W        W21581  23.556   7.681  12.073
62321W        W21582  33.394  32.593   2.680
62322W        W21583   5.794  23.588   1.853
62323W        W21584   4.413   2.938  11.517
62324W        W21585  34.979  29.109  14.810
62325W        W21586  10.341  11.710   2.183
62326W        W21587  12.156  33.983   1.715
62327W        W21588  22.198  12.811  14.943
62328W        W21589  34.035   6.299   0.470
62329W        W21590   9.885   4.907  13.490
62330W        W21591  36.967  13.244  13.419
62331W        W21592  16.716  40.804  14.927
62332W        W21593   3.749  36.428  12.579
62333W        W21594  28.961  29.155   0.252
62334W        W21595  15.612  13.105   0.869
62335W        W21596   7.305  21.678   1.711
62336W        W21597  20.252  33.619   1.860
62337W        W21598  42.455  44.285   1.791
62338W        W21599  22.629   2.280   4.138
62339W        W21600   7.176   5.888   4.819
62340W        W21601  19.238  39.981   0.864
62341W        W21602  12.753  44.922   2.192
62342W        W21603  12.782  37.531   2.268
62343W        W21604   1.316   8.273   0.394
62344W        W21605  10.342   7.270  11.085
62345W        W21606   3.341  21.654  11.603
62346W        W21607  17.257  10.643  14.978
62347W        W21608  13.239  12.742   4.130
62348W        W21609  29.033  13.815   2.869
62349W        W21610  30.977  39.843   0.268
62350W        W21611   6.885  16.141   4.670
62351W        W21612  24.594  14.300  14.493
62352W        W21613   6.229  20.158   4.730
62353W        W21614  40.917  22.700  13.535
62354W        W21615  14.640  25.215   0.919
62355W        W21616  44.801  20.657   0.745
62356W        W21617  43.284   2.760   4.270
62357W        W21618  17.184  31.442   5.170
62358W        W21619  14.664  19.766   3.215
62359W        W21620   2.441  37.933   4.781
62360W        W21621  15.288   4.439   0.829
62361W        W21622  31.967  19.059  12.461
62362W        W21623  20.565  30.053  11.397
62363W        W21624  43.449  35.396   0.333
62364W        W21625  37.892  24.110   2.683
62365W        W21626  21.234  41.334   3.315
62366W        W21627  38.341  33.018   3.325
62367W        W21628  17.125  13.315   3.189
62368W        W21629  20.611  39.529  14.011
62369W        W21630  32.138  18.218  10.425
62370W        W21631   4.438  11.240  10.626
62371W        W21632  18.744   8.224   0.284
62372W        W21633  10.228  13.263   2.316
62373W        W21634  18.775  29.062   4.819
62374W        W21635  33.006  14.682   2.413
62375W        W21636  23.692  37.366   0.248
62376W        W21637  41.386  27.952  14.379
62377W        W21638   7.239   1.425   3.267
62378W        W21639  35.573   2.331   0.399
62379W        W21640  43.852  37.944  14.883
62380W        W21641   5.199  10.800   2.683
62381W        W21642   9.182   3.306  13.497
62382W        W21643  21.533  10.742  11.400
62383W        W21644  22.626  42.413   2.243
62384W        W21645  20.208   6.363   4.732
62385W        W21646  31.597   8.888  12.576
62386W        W21647  18.764  35.393   2.347
62387W        W21648  21.018  18.050  11.420
62388W        W21649  10.746  11.201   3.182
62389W        W21650   6.768  26.991   3.151
62390W        W21651  30.612  44.371   0.846
62391W        W21652  27.121  16.737  11.932
62392W        W21653  41.007   1.855   1.700
62393W        W21654  43.922   9.225  12.464
62394W        W21655  41.362   0.424  14.964
62395W        W21656   0.775  27.986   2.741
62396W        W21657  20.177  34.927   3.768
62397W        W21658  18.684  34.879  13.832
62398W        W21659   6.257  20.274  12.867
62399W        W21660  12.739  26.082  12.990
62400W        W21661   2.385  31.093  10.471
62401W        W21662  15.688  35.470  11.889
62402W        W21663  29.100  18.667  10.616
62403W        W21664   0.942   8.900  10.964
62404W        W21665   0.432  20.112   3.207
62405W        W21666  37.925  42.970  14.875
62406W        W21667  29.120  12.634  10.433
62407W        W21668   9.158  40.962  13.362
62408W        W21669   8.824   2.960  11.562
62409W        W21670  29.124   4.330  14.840
62410W        W21671  42.887   7.748   2.832
62411W        W21672   7.696  38.846  11.051
62412W        W21673  44.315  25.713  14.937
62413W        W21674  10.736  25.519  14.832
62414W        W21675  29.558  31.948  11.096
62415W        W21676   9.204  38.393  13.814
62416W        W21677  44.766  26.030  12.000
62417W        W21678  33.125  22.728   3.386
62418W        W21679  19.271  42.843   3.369
62419W        W21680  26.456  16.625   2.733
62420W        W21681  18.268   1.788  11.023
62421W        W21682   6.202  31.959  13.439
62422W        W21683   4.751  36.561   0.369
62423W        W21684  10.743  37.055  11.095
62424W        W21685   2.753  34.479  10.996
62425W        W21686  22.060  25.480  12.847
62426W        W21687   4.409  19.153  12.897
62427W        W21688  13.734   1.834   0.374
62428W        W21689  26.180  23.067  11.929
62429W        W21690  28.621  41.808   4.819
62430W        W21691  41.460  11.699  12.049
62431W        W21692  27.989  13.721  12.366
62432W        W21693  13.158   5.331  14.844
62433W        W21694  25.711  39.927   1.279
62434W        W21695  30.163  36.442   1.800
62435W        W21696  30.497  40.032  13.060
62436W        W21697  31.612  34.435  11.963
62437W        W21698  33.491  17.212  10.001
62438W        W21699  17.294  22.054   0.356
62439W        W21700  39.891  23.620   0.271
62440W        W21701  14.678  40.505  12.841
62441W        W21702   5.395  19.070  11.082
62442W        W21703  21.607  24.152  11.551
62443W        W21704  44.926  41.870   0.937
62444W        W21705  34.936   4.911   3.352
62445W        W21706  12.237   0.384   2.832
62446W        W21707  44.981   8.895   4.767
62447W        W21708  11.261   6.229  10.616
62448W        W21709   3.738   3.338  12.363
62449W        W21710  11.264  21.698   3.235
62450W        W21711   3.449  36.511  13.366
62451W        W21712  26.030  12.659   1.263
62452W        W21713  43.298  16.719  12.845
62453W        W21714  17.760  23.656  11.029
62454W        W21715  35.979  24.070  11.492
62455W        W21716  37.962   6.344  10.151
62456W        W21717  20.221   5.709  14.003
62457W        W21718  31.917  44.404  12.553
62458W        W21719  17.129  28.042  13.467
62459W        W21720   3.920  37.460   3.666
62460W        W21721  21.584  30.915   2.230
62461W        W21722  36.571  44.341  10.548
62462W        W21723   3.315  25.069   0.399
62463W        W21724  20.188  18.675  11.568
62464W        W21725   0.939  22.152  13.951
62465W        W21726  26.018  41.345   3.310
62466W        W21727  37.948  43.966   2.784
62467W        W21728  44.311  14.220   1.898
62468W        W21729   0.965   2.235  11.036
62469W        W21730  28.659  12.790  12.042
62470W        W21731   1.255  35.072   3.760
62471W        W21732  27.066  19.648  13.901
62472W        W21733  30.534   4.435  11.505
62473W        W21734  38.362  33.034  14.000
62474W        W21735  22.136   2.383   1.854
62475W        W21736   1.435  40.454   2.774
62476W        W21737  19.109  38.374  11.463
62477W        W21738  12.613   0.844   1.841
62478W        W21739  21.193  20.736  12.488
62479W        W21740  11.784  40.988   1.890
62480W        W21741  30.595  44.415   4.148
62481W        W21742   3.932  38.461  11.103
62482W        W21743  20.170  39.372  12.498
62483W        W21744  35.465  14.646  11.592
62484W        W21745   6.228  17.224   4.263
62485W        W21746  42.920  30.554  12.961
62486W        W21747  11.323   2.943  13.887
62487W        W21748  41.997  20.221  14.782
62488W        W21749   5.842  39.517   3.738
62489W        W21750  33.442  23.529  11.862
62490W        W21751  21.215  40.469   4.130
62491W        W21752  33.511  24.555   1.281
62492W        W21753  31.933  32.635  11.917
62493W        W21754   1.408  25.654   2.220
62494W        W21755  39.929  39.483  10.496
62495W        W21756   1.318  12.720  12.888
62496W        W21757  34.900  23.622   4.134
62497W        W21758  30.912  13.193   1.734
62498W        W21759  40.046  12.281   0.881
62499W        W21760   7.748   7.238   0.348
62500W        W21761  43.326  20.596  14.975
62501W        W21762  37.489  12.657   2.675
62502W        W21763   4.872   4.385  11.433
62503W        W21764   6.348  11.189  10.916
62504W        W21765  34.571   8.869  13.504
62505W        W21766   1.766  30.572  11.507
62506W        W21767  43.778  41.394  13.487
62507W        W21768  44.933  43.924   4.636
62508W        W21769  36.019   1.956  14.767
62509W        W21770  13.137  12.854  11.864
62510W        W21771  29.055  35.397  10.988
62511W        W21772  36.876   3.403   4.233
62512W        W21773  12.344  31.122  11.014
62513W        W21774  13.812  25.030   0.808
62514W        W21775  19.742   3.808  11.581
62515W        W21776  29.140  12.849  14.320
62516W        W21777   2.941   2.917   3.686
62517W        W21778   0.907  40.497  11.546
62518W        W21779   8.690  39.427  11.372
62519W        W21780  12.324  31.106  12.017
62520W        W21781   8.656  12.274  11.006
62521W        W21782   0.418   1.778   4.714
62522W        W21783  20.565  23.718  12.071
62523W        W21784  18.724  26.669   3.386
62524W        W21785  41.011  30.111  12.473
62525W        W21786  29.014   9.755  13.809
62526W        W21787   3.715  34.513  11.125
62527W        W21788  34.013  39.877  12.375
62528W        W21789   3.292   5.759   1.864
62529W        W21790  29.162   6.682  11.411
62530W        W21791  13.714  43.441   3.366
62531W        W21792  44.469  39.427  14.298
62532W        W21793  30.626   4.383   1.836
62533W        W21794  25.555   9.378  11.072
62534W        W21795  29.092  14.148  10.622
62535W        W21796   0.267  16.711   0.287
62536W        W21797  28.933  36.024   1.420
62537W        W21798  30.534  19.559  12.861
62538W        W21799  44.915  43.475  13.794
62539W        W21800  27.456  24.501   1.337
62540W        W21801   9.152  38.528  12.495
62541W        W21802  41.979  42.806  11.893
62542W        W21803  38.554   8.671   0.322
62543W        W21804  11.203  34.110  12.412
62544W        W21805   6.717  37.058  14.921
62545W        W21806  20.261  35.083  12.362
62546W        W21807  36.492  13.844   3.710
62547W        W21808   7.297  13.798  13.002
62548W        W21809  17.726   4.262   0.810
62549W        W21810  41.908  26.674   3.171
62550W        W21811  40.492  11.206  14.781
62551W        W21812  14.654   9.181  10.563
62552W        W21813  30.596  26.675   3.244
62553W        W21814  23.124   2.235  13.475
62554W        W21815   3.925   2.308  14.464
62555W        W21816   9.217   4.347   0.306
62556W        W21817   1.770   1.735  12.536
62557W        W21818   0.832   2.322  11.561
62558W        W21819  43.411   4.230   1.741
62559W        W21820  39.386  43.512   3.857
62560W        W21821  25.146  35.473   2.701
62561W        W21822  26.001  34.574  12.397
62562W        W21823   0.863   5.725   2.723
62563W        W21824  14.758  43.975   1.756
62564W        W21825  25.086   8.813   1.889
62565W        W21826  28.042   2.388   1.789
62566W        W21827  10.319  15.590   4.683
62567W        W21828  32.951  16.096  12.572
62568W        W21829   1.918  41.297   2.346
62569W        W21830  30.022   2.742   5.266
62570W        W21831  29.561  18.609   3.844
62571W        W21832   3.262  36.910  10.904
62572W        W21833  18.647  12.661  10.624
62573W        W21834  44.377  42.819   1.877
62574W        W21835  20.614  22.094  10.992
62575W        W21836  16.313  25.996  14.990
62576W        W21837  41.325   8.286   2.730
62577W        W21838  20.599  17.677  12.493
62578W        W21839   2.826  32.610  11.073
62579W        W21840   9.770  33.967   2.220
62580W        W21841  40.841  28.625   4.743
62581W        W21842  15.274   3.862   2.396
62582W        W21843  17.282  32.632   1.347
62583W        W21844  17.586  20.584   2.734
62584W        W21845   7.262   2.348  12.967
62585W        W21846  27.526  30.633   3.263
62586W        W21847  43.440  40.812  11.435
62587W        W21848  38.991  25.047  13.485
62588W        W21849  26.993   0.892   4.326
62589W        W21850  20.697  38.917  12.951
62590W        W21851  30.011  17.164  10.532
62591W        W21852  22.631  38.866   4.636
62592W        W21853  23.635  30.441  11.389
62593W        W21854  15.795  11.662   2.303
62594W        W21855  21.754  17.783   0.852
62595W        W21856  31.456   4.700  11.591
62596W        W21857  25.699  38.551   3.737
62597W        W21858  18.616   5.308  13.397
62598W        W21859  22.568  42.319   3.730
62599W        W21860  19.170  13.265  14.793
62600W        W21861  38.958  10.138   1.231
62601W        W21862  25.207  12.788  14.414
62602W        W21863  21.163  30.625  13.932
62603W        W21864  16.074   8.761  13.974
62604W        W21865   9.661  25.995  13.014
62605W        W21866  25.689  34.462  12.373
62606W        W21867   2.335   5.777  13.863
62607W        W21868  31.946  32.059   5.100
62608W        W21869   7.402   7.752  13.531
62609W        W21870  26.173  14.194   4.680
62610W        W21871   3.923  36.024   3.259
62611W        W21872   7.895   8.726  11.872
62612W        W21873  34.599  16.102   4.659
62613W        W21874  27.187  20.707   0.260
62614W        W21875  38.959  15.262  10.526
62615W        W21876  43.305  43.966  10.532
62616W        W21877  21.238   4.383   2.189
62617W        W21878   5.232  24.498   4.228
62618W        W21879  41.943  20.269  13.850
62619W        W21880  15.288  13.672  14.441
62620W        W21881  31.084  23.635  12.911
62621W        W21882   7.740  18.156   3.722
62622W        W21883  36.483  35.416  13.845
62623W        W21884  15.606   9.329  14.395
62624W        W21885  33.985   3.827  10.503
62625W        W21886  28.944  26.598  13.488
62626W        W21887  41.338  14.604  10.928
62627W        W21888  31.963  13.129  11.093
62628W        W21889  15.611  25.140  12.340
62629W        W21890  29.567  21.631   3.647
62630W        W21891  39.352  44.414  10.418
62631W        W21892  40.031  11.677   2.338
62632W        W21893   5.838  10.175  10.472
62633W        W21894  39.372   9.725   4.632
62634W        W21895  37.401  39.442  14.801
62635W        W21896  40.333  42.949  14.396
62636W        W21897  35.022   7.301   4.728
62637W        W21898   5.214   0.264   0.242
62638W        W21899  38.838  16.616   5.173
62639W        W21900  18.060  40.510   0.945
62640W        W21901  10.193  17.198  11.604
62641W        W21902  35.484  31.088   3.858
62642W        W21903  18.136  42.358   3.710
62643W        W21904  37.416  17.595  13.002
62644W        W21905  12.215   9.251   3.163
62645W        W21906  43.814   8.345  14.883
62646W        W21907  33.518  21.698   1.384
62647W        W21908  26.082  30.656  11.916
62648W        W21909   9.694  28.438  13.431
62649W        W21910  20.148  34.403   0.814
62650W        W21911  21.544  38.553  14.018
62651W        W21912  26.153  20.617   2.282
62652W        W21913  40.989  43.986   1.753
62653W        W21914  10.863   5.292  11.947
62654W        W21915  35.943   1.361  10.623
62655W        W21916  11.188  41.459   2.800
62656W        W21917  33.431  18.149   4.826
62657W        W21918  34.531  20.252   3.671
62658W        W21919  35.591  41.809  12.944
62659W        W21920  13.649  14.642  14.356
62660W        W21921  16.278  17.092   3.310
62661W        W21922  35.984   8.273   0.342
62662W        W21923  20.217  28.555   4.803
62663W        W21924   1.339  15.689  12.959
62664W        W21925  10.218   9.333   3.196
62665W        W21926  22.211   2.866   1.433
62666W        W21927   4.745  43.766   1.867
62667W        W21928  25.595  10.634   2.876
62668W        W21929   3.880  23.115  12.841
62669W        W21930   2.807  30.551   3.283
62670W        W21931  43.343  12.206   1.778
62671W        W21932  30.454  19.266  13.044
62672W        W21933  18.570   1.780  11.574
62673W        W21934   6.342  30.494  10.407
62674W        W21935  41.857  27.522   0.898
62675W        W21936  10.188   9.731   2.764
62676W        W21937  42.868  19.272  14.781
62677W        W21938   1.811  40.458  12.864
62678W        W21939   7.837   2.395   0.343
62679W        W21940  22.707  35.057   4.124
62680W        W21941  34.402  26.475   4.271
62681W        W21942   1.977  43.901  13.976
62682W        W21943  36.959  28.988   2.819
62683W        W21944  20.762  15.173   3.236
62684W        W21945  27.545  43.380  11.374
62685W        W21946  22.242  43.334  10.624
62686W        W21947  17.607  10.657  14.855
62687W        W21948  34.604   2.340   1.237
62688W        W21949  15.150  16.578  13.340
62689W        W21950  15.619   1.403  12.962
62690W        W21951  39.324  27.585   2.784
62691W        W21952  18.122  36.486  11.487
62692W        W21953   5.366   4.941  11.518
62693W        W21954  36.917  43.884   2.371
62694W        W21955  39.383  12.645  13.792
62695W        W21956  37.416  39.840  12.889
62696W        W21957  31.100  10.353  12.955
62697W        W21958  15.123   0.313  11.048
62698W        W21959  30.915   7.762   3.235
62699W        W21960  30.932   4.379  11.056
62700W        W21961  39.376  10.662   4.669
62701W        W21962  40.480  42.816   0.925
62702W        W21963   0.949  34.370   1.793
62703W        W21964  16.176   5.730  10.942
62704W        W21965   5.264   2.745   0.803
62705W        W21966  36.501   3.346  11.463
62706W        W21967  14.792   2.463  12.834
62707W        W21968  16.088   7.756  12.968
62708W        W21969  29.653   2.722  12.087
62709W        W21970  37.993  24.707  12.521
62710W        W21971  31.143  43.301  10.590
62711W        W21972  35.893  22.641  12.547
62712W        W21973  33.387  24.629   3.191
62713W        W21974  10.267   2.829  12.557
62714W        W21975  40.309   7.285  13.334
62715W        W21976  16.568  42.864   2.375
62716W        W21977  31.628  36.951   2.805
62717W        W21978  35.924  28.028  12.869
62718W        W21979  23.710  14.682  12.092
62719W        W21980  11.800  38.390  11.090
62720W        W21981   5.791  44.361   3.750
62721W        W21982   1.899  39.862   4.247
62722W        W21983  44.956   4.377   0.763
62723W        W21984  25.644   0.911   9.466
62724W        W21985  17.179   8.694  14.854
62725W        W21986  43.332  29.036   1.295
62726W        W21987  15.292  40.827   4.286
62727W        W21988  29.034  30.945   1.871
62728W        W21989  38.915  11.228  14.017
62729W        W21990   8.318  19.548  12.005
62730W        W21991   3.363   8.401   1.735
62731W        W21992  13.109   3.882  12.059
62732W        W21993  35.034  17.125   5.081
62733W        W21994  39.475  11.180   0.292
62734W        W21995  10.287   2.938  14.988
62735W        W21996   2.864  20.067  12.343
62736W        W21997  17.614  32.038  14.425
62737W        W21998  44.919  29.537   0.404
62738W        W21999   7.317  43.318   3.241
62739W        W22000  20.266  31.919   3.386
62740W        W22001  19.199   6.186   3.381
62741W        W22002   6.739  35.600  14.381
62742W        W22003   6.808  30.063  13.973
62743W        W22004  15.102   8.669   4.137
62744W        W22005  25.218   4.254   0.941
62745W        W22006  30.549   3.248   3.349
62746W        W22007   9.264  35.423   0.828
62747W        W22008   6.195  42.408  10.639
62748W        W22009  22.164  42.339   3.735
62749W        W22010  19.107  26.677   2.721
62750W        W22011   7.212   2.461  13.850
62751W        W22012   6.296  34.091   4.241
62752W        W22013   5.886  24.000  14.951
62753W        W22014  28.936  26.644   4.256
62754W        W22015  29.443  43.927  14.412
62755W        W22016  37.034  16.293   0.390
62756W        W22017  42.510  44.778   1.353
62757W        W22018  17.275  15.280  12.420
62758W        W22019  11.670   4.330   2.768
62759W        W22020  15.265  19.269  13.832
62760W        W22021  40.400  25.074   1.707
62761W        W22022  10.820   8.278   3.250
62762W        W22023  40.351   8.729   0.287
62763W        W22024  34.049   5.913   2.343
62764W        W22025  24.478  12.302  11.461
62765W        W22026  22.726  12.313  14.394
62766W        W22027  39.872   6.763   2.215
62767W        W22028   5.878   8.751  11.464
62768W        W22029  20.257   0.901   4.258
62769W        W22030  17.571  14.122  13.805
62770W        W22031  27.583  15.777  10.010
62771W        W22032  29.104  18.135  13.448
62772W        W22033  44.458  33.993  11.040
62773W        W22034  40.339   1.835  11.542
62774W        W22035  35.458  14.156  10.956
62775W        W22036  21.543  12.635  14.877
62776W        W22037   2.367  36.894  10.978
62777W        W22038   6.284  25.591   2.273
62778W        W22039  11.743  41.393  11.869
62779W        W22040  37.551  10.647   9.557
62780W        W22041  17.188  36.081   0.824
62781W        W22042  10.672  29.487   0.398
62782W        W22043  34.447  33.046   1.783
62783W        W22044  42.320  20.236  10.483
62784W        W22045  34.415   0.757   3.639
62785W        W22046   1.414  39.926   3.634
62786W        W22047   5.213   8.682  10.919
62787W        W22048  40.531   9.336  12.445
62788W        W22049   3.894  16.288   0.375
62789W        W22050  16.277  18.658   0.861
62790W        W22051  15.198   6.898  14.380
62791W        W22052  22.670  31.494  13.529
62792W        W22053  19.121  24.586   4.599
62793W        W22054  34.873  20.179   1.342
62794W        W22055  10.234   3.830   1.864
62795W        W22056   4.833  27.152   2.275
62796W        W22057  32.435  32.058   4.726
62797W        W22058  39.413  17.638  13.970
62798W        W22059   5.269  15.179   1.398
62799W        W22060  15.631   2.236   5.252
62800W        W22061  21.021  33.394  10.897
62801W        W22062   4.869  28.661  12.004
62802W        W22063  15.179   6.795  10.044
62803W        W22064  39.419  30.088  14.864
62804W        W22065  10.196  38.499   4.680
62805W        W22066  28.479  11.151   4.642
62806W        W22067  37.350   8.777  10.597
62807W        W22068   2.785  23.656   1.335
62808W        W22069  37.393  42.513  14.764
62809W        W22070  18.143  21.161  13.428
62810W        W22071  19.271  26.954  14.822
62811W        W22072  34.605  12.230   4.242
62812W        W22073  13.167   5.852  13.511
62813W        W22074  13.171  28.568   2.781
62814W        W22075  34.486  25.548  14.856
62815W        W22076  25.083   8.767  12.475
62816W        W22077  40.511  21.243   0.878
62817W        W22078   4.435   6.769  11.600
62818W        W22079   4.810  31.991   4.710
62819W        W22080  44.852  28.040   4.150
62820W        W22081  11.317  36.903  14.280
62821W        W22082   8.172  34.973   0.371
62822W        W22083  39.403   9.363  11.516
62823W        W22084  29.138  13.691   0.863
62824W        W22085  28.103  43.337   3.270
62825W        W22086   7.863  10.210   4.749
62826W        W22087  15.197  19.595  14.771
62827W        W22088  18.074  14.124   1.431
62828W        W22089  14.663  14.265   3.214
62829W        W22090   6.770  20.764  12.444
62830W        W22091  39.900  41.999   4.279
62831W        W22092  38.855  18.663   2.787
62832W        W22093  17.160  27.198  12.850
62833W        W22094  38.521  23.104   3.373
62834W        W22095  23.118  31.414   0.810
62835W        W22096  38.379  37.969   2.385
62836W        W22097  16.579   5.436   1.872
62837W        W22098  43.811  12.790  12.471
62838W        W22099  11.157  37.934  14.465
62839W        W22100  38.843  16.741  10.454
62840W        W22101  36.494  16.566  14.870
62841W        W22102  18.292  26.963   2.366
62842W        W22103  44.495  15.715   3.704
62843W        W22104  14.601  30.482   3.249
62844W        W22105   7.326  32.585  13.938
62845W        W22106   6.252  39.369  14.899
62846W        W22107  24.152  33.408   5.124
62847W        W22108  29.117  42.810   3.241
62848W        W22109  22.209   4.392  14.292
62849W        W22110   6.187   8.227  13.493
62850W        W22111  11.837  42.798  13.428
62851W        W22112   7.765  25.686   0.903
62852W        W22113  30.599   2.323   4.294
62853W        W22114  14.256  32.469   4.802
62854W        W22115  12.185  43.990  13.951
62855W        W22116  14.681  21.713   4.180
62856W        W22117  44.499   2.401  11.920
62857W        W22118  35.953  29.618   2.716
62858W        W22119   6.782  29.003  12.531
62859W        W22120  43.405   9.238   0.483
62860W        W22121   4.845  31.591  12.404
62861W        W22122  41.480  39.364  11.999
62862W        W22123  18.271  21.223  11.546
62863W        W22124   1.245  27.633  14.973
62864W        W22125  44.491   0.907  10.574
62865W        W22126   7.822   7.765  11.029
62866W        W22127   7.691  31.606  10.584
62867W        W22128  17.628  30.031   3.836
62868W        W22129  33.594  24.550   2.731
62869W        W22130  32.892  11.136  12.002
62870W        W22131  23.110   1.337   1.317
62871W        W22132   8.306  28.981   2.883
62872W        W22133   6.904  39.870  13.886
62873W        W22134   9.355   9.741   3.815
62874W        W22135  14.696  29.027  13.050
62875W        W22136   8.864  22.019  10.629
62876W        W22137  33.034   0.816  12.502
62877W        W22138  44.971  42.779   0.398
62878W        W22139   1.924   6.422  14.408
62879W        W22140  28.526  26.194  12.830
62880W        W22141   2.359  37.949   2.220
62881W        W22142   8.827   5.898   3.217
62882W        W22143  42.474  39.021  14.489
62883W        W22144  35.037  12.803   2.847
62884W        W22145  26.006  19.761   4.721
62885W        W22146  30.086  35.086  14.838
62886W        W22147  16.288  14.252  14.485
62887W        W22148  42.022   7.831  12.895
62888W        W22149  41.939  41.018  11.099
62889W        W22150  15.799   9.239  14.766
62890W        W22151  11.239  17.213  14.897
62891W        W22152  34.095  28.533   3.358
62892W        W22153  20.120  30.503   0.811
62893W        W22154   7.700  44.863   1.904
62894W        W22155  23.081  19.059  13.952
62895W        W22156  11.647   3.829  13.474
62896W        W22157  13.284  35.083  14.764
62897W        W22158  21.673   8.196  13.440
62898W        W22159  14.111  24.648   4.741
62899W        W22160  31.509  18.607  13.477
62900W        W22161  32.399  43.399  11.915
62901W        W22162  12.206  38.894   4.720
62902W        W22163   9.191  34.931  14.022
62903W        W22164   9.887  26.582  13.036
62904W        W22165  15.606   8.708   4.691
62905W        W22166   4.362   6.763   9.531
62906W        W22167  40.025  26.521   0.472
62907W        W22168  33.436  26.614   2.208
62908W        W22169   4.785   6.863  12.972
62909W        W22170  32.051   4.421   1.309
62910W        W22171   6.824  43.805   3.746
62911W        W22172  30.421  44.432   1.338
62912W        W22173  25.624  13.733   0.450
62913W        W22174  23.557   5.204   2.328
62914W        W22175  43.371  31.639   0.935
62915W        W22176  17.210   3.421   0.887
62916W        W22177  14.608   9.673   2.209
62917W        W22178  12.122   0.983  13.419
62918W        W22179   5.385  19.535   3.719
62919W        W22180  10.236  34.879  13.849
62920W        W22181  25.567   8.207  11.128
62921W        W22182   9.181  42.943  12.007
62922W        W22183  33.034  11.254  12.372
62923W        W22184   3.738   6.335  13.537
62924W        W22185  38.909   9.859  13.454
62925W        W22186  27.532  39.368   0.391
62926W        W22187  34.438  41.868  10.479
62927W        W22188  33.026  39.018   3.163
62928W        W22189  11.163  41.839  12.399
62929W        W22190  30.018  15.101  14.784
62930W        W22191  30.475  21.136  13.838
62931W        W22192  32.560  43.306   1.730
62932W        W22193  28.496  33.504  12.871
62933W        W22194  24.662  42.971   4.145
62934W        W22195  14.137  42.946   3.701
62935W        W22196  40.449  39.037   4.273
62936W        W22197  31.420   2.358  12.506
62937W        W22198  41.977  19.096   5.190
62938W        W22199  14.760  42.378   3.767
62939W        W22200  12.222  13.743   3.676
62940W        W22201   4.391  24.627   0.897
62941W        W22202  16.300  13.282  12.891
62942W        W22203  29.595  43.843  14.994
62943W        W22204  31.984  31.594  11.937
62944W        W22205  14.333  19.624  12.457
62945W        W22206  23.494  34.900  13.348
62946W        W22207  30.602  19.119   2.220
62947W        W22208  38.483  10.291  11.414
62948W        W22209  44.963   9.192  14.448
62949W        W22210  24.708  38.902   0.903
62950W        W22211  16.267   7.303   2.739
62951W        W22212  43.925  13.602  13.997
62952W        W22213  21.585  25.041  14.409
62953W        W22214  34.896   2.842  14.511
62954W        W22215   6.395  43.901  10.555
62955W        W22216   4.733  35.472  14.498
62956W        W22217  23.196  22.025  14.812
62957W        W22218  36.086  40.441   2.881
62958W        W22219  30.622  27.596  14.513
62959W        W22220   2.227  17.095   2.209
62960W        W22221  36.032  32.006   0.270
62961W        W22222  38.457  29.477  10.630
62962W        W22223  28.658   1.854  14.391
62963W        W22224  35.075  42.390   3.319
62964W        W22225   9.648   6.337   1.278
62965W        W22226   6.333   7.862   4.346
62966W        W22227  20.574  29.515   2.786
62967W        W22228   9.333   0.384   2.302
62968W        W22229  21.733  27.540  10.609
62969W        W22230  25.054  41.899   0.812
62970W        W22231   3.761   7.670  12.508
62971W        W22232  40.412  37.951  11.531
62972W        W22233  23.517   4.354   1.893
62973W        W22234  10.691  29.502  10.624
62974W        W22235  11.148   4.876  10.407
62975W        W22236  29.016  34.397  11.898
62976W        W22237  14.701  36.865  12.883
62977W        W22238   4.798  34.389   1.832
62978W        W22239   4.271  22.706   2.867
62979W        W22240  38.530  23.684   1.306
62980W        W22241  21.084  43.823   4.314
62981W        W22242  27.967  35.882  14.866
62982W        W22243   7.869  27.940  13.922
62983W        W22244  11.189   1.264  10.507
62984W        W22245  37.446  38.077  12.022
62985W        W22246   2.466  37.379  13.442
62986W        W22247  44.367  34.968  13.517
62987W        W22248   7.417  37.070  11.589
62988W        W22249  24.989   0.475   3.254
62989W        W22250  18.609   4.943   3.750
62990W        W22251  24.164  39.953   2.380
62991W        W22252  24.610  26.601  12.829
62992W        W22253  40.322   7.815   1.889
62993W        W22254   3.903  41.880   1.853
62994W        W22255  14.177  40.034  13.334
62995W        W22256  11.137   6.704   2.251
62996W        W22257  36.431  35.094  13.308
62997W        W22258  39.549   9.821   3.834
62998W        W22259  39.486  39.459  14.335
62999W        W22260   2.914  31.094   4.763
63000W        W22261  11.635  30.533  10.451
63001W        W22262   0.966  20.181   3.778
63002W        W22263   1.471  16.180  14.967
63003W        W22264  23.588  36.559   4.158
63004W        W22265  24.004  29.046   2.305
63005W        W22266  44.474  23.098  12.398
63006W        W22267  28.129  41.358  12.836
63007W        W22268   8.805   1.271  13.481
63008W        W22269  42.965  29.592   3.218
63009W        W22270  23.102  20.231  12.551
63010W        W22271  43.406  36.551  12.369
63011W        W22272   5.870  34.043  12.426
63012W        W22273  33.590  18.682   3.161
63013W        W22274  19.221  42.798   0.448
63014W        W22275  35.908  18.192  12.524
63015W        W22276  18.061  34.418   4.789
63016W        W22277  32.505  17.557  14.919
63017W        W22278  42.418  37.861  12.366
63018W        W22279  43.799  42.415   4.609
63019W        W22280  42.452  25.660  12.550
63020W        W22281   7.881  18.699  14.488
63021W        W22282  21.539  17.064  14.856
63022W        W22283  43.514  41.985   4.263
63023W        W22284  44.909  27.948   2.188
63024W        W22285  33.611  40.967   1.778
63025W        W22286   9.282   8.749  13.961
63026W        W22287  22.692  18.173   3.846
63027W        W22288  31.975   2.235   4.802
63028W        W22289   6.311  13.279   2.701
63029W        W22290   1.461  14.751   1.409
63030W        W22291  43.967  27.644  11.601
63031W        W22292  26.659  36.487  14.418
63032W        W22293   0.901  29.639  13.805
63033W        W22294  15.651  38.460  14.397
63034W        W22295  18.264  26.201  14.906
63035W        W22296  19.221  44.908  12.095
63036W        W22297  19.745   0.848   5.266
63037W        W22298  37.488  37.920   1.239
63038W        W22299  39.499  41.815   2.691
63039W        W22300   8.753  14.691   3.335
63040W        W22301  29.426   8.850  14.503
63041W        W22302   4.942  19.743   0.907
63042W        W22303   3.221  14.828   2.411
63043W        W22304   5.198  22.606  13.818
63044W        W22305  10.722  32.584   1.375
63045W        W22306  32.527  23.010  14.825
63046W        W22307   5.280  20.160  11.507
63047W        W22308  38.558  18.563  11.480
63048W        W22309  44.492  30.578  11.983
63049W        W22310  33.130  42.493   4.269
63050W        W22311  20.647  13.686   2.802
63051W        W22312  36.979  43.959   3.201
63052W        W22313  29.110  19.614   0.375
63053W        W22314  13.611  33.010  14.476
63054W        W22315  17.639  38.045   1.796
63055W        W22316  26.511  43.954  12.533
63056W        W22317   1.351  17.305   4.120
63057W        W22318  10.183  29.474   3.712
63058W        W22319  24.489  39.858  10.414
63059W        W22320  42.858  10.334  11.896
63060W        W22321  19.150   0.492   0.482
63061W        W22322  26.002  25.625  13.054
63062W        W22323  25.150  22.106  14.003
63063W        W22324  29.924  36.511  10.451
63064W        W22325  33.003  27.114   1.910
63065W        W22326  40.976  13.706  12.968
63066W        W22327  32.564  15.803   1.801
63067W        W22328  31.427  39.991  12.849
63068W        W22329  33.038  23.065   3.293
63069W        W22330   2.758  28.678   0.442
63070W        W22331  22.204  44.823   0.914
63071W        W22332   3.763  31.115  13.414
63072W        W22333  13.780  19.708  11.986
63073W        W22334   5.910  35.547  14.421
63074W        W22335  18.113  20.255   2.816
63075W        W22336   1.894  30.511   1.772
63076W        W22337  19.197  44.462  12.359
63077W        W22338  32.130   9.782   2.738
63078W        W22339  33.569  33.416   1.240
63079W        W22340  36.529  40.421  13.832
63080W        W22341  31.590  28.544   3.290
63081W        W22342  34.491  16.132   4.282
63082W        W22343  37.382  32.002  11.072
63083W        W22344  40.478  12.279  12.960
63084W        W22345  22.613   7.229  11.050
63085W        W22346  33.580   3.864  10.448
63086W        W22347   9.251  41.450   2.220
63087W        W22348  13.786  36.560  11.043
63088W        W22349  14.590  23.632  12.343
63089W        W22350  25.086  33.026  12.943
63090W        W22351  37.941   1.238  13.479
63091W        W22352  12.692   2.404   2.679
63092W        W22353   0.487  26.654   3.782
63093W        W22354  42.498  10.337   2.885
63094W        W22355  22.597  36.091   1.392
63095W        W22356   8.258  42.907   3.229
63096W        W22357  12.643  14.217  13.498
63097W        W22358  44.486  11.293   1.816
63098W        W22359   6.804  18.784  11.078
63099W        W22360  38.356  33.059   4.773
63100W        W22361  14.738  27.615  12.920
63101W        W22362  25.522  26.584   0.735
63102W        W22363   0.463  42.512   1.811
63103W        W22364  11.715  14.134  10.151
63104W        W22365  39.991  11.329  12.975
63105W        W22366  18.576  16.601   0.940
63106W        W22367   7.394  13.315   3.856
63107W        W22368   8.858  38.355  13.983
63108W        W22369  33.952  16.228  10.550
63109W        W22370  22.695   2.400   0.421
63110W        W22371  38.424  36.069  14.977
63111W        W22372  29.946  11.139   4.282
63112W        W22373  24.079  12.732   2.786
63113W        W22374  38.407   4.287   4.761
63114W        W22375   5.439  23.723   1.696
63115W        W22376  18.243   8.300   9.470
63116W        W22377  18.687  12.707   4.691
63117W        W22378  39.366  13.679   2.345
63118W        W22379  42.438   7.802  13.484
63119W        W22380  13.135  25.629  12.030
63120W        W22381  32.454  11.765  12.507
63121W        W22382  18.746   9.654   4.813
63122W        W22383   9.379  17.076  13.308
63123W        W22384  28.006  38.060  10.430
63124W        W22385  35.984  20.681   0.472
63125W        W22386  42.494  13.340   2.336
63126W        W22387  44.392   3.266   0.859
63127W        W22388  33.056  35.478  14.871
63128W        W22389  10.217   9.375   1.795
63129W        W22390  40.329  21.240   0.420
63130W        W22391  39.014  40.841  12.847
63131W        W22392  35.373  26.988   1.450
63132W        W22393  19.575  28.615   0.833
63133W        W22394  39.434  36.871   2.396
63134W        W22395   8.299  38.511  13.890
63135W        W22396  28.058  28.115  12.575
63136W        W22397   5.395  42.886   1.721
63137W        W22398   0.821  22.163   3.149
63138W        W22399  20.578   3.340  11.550
63139W        W22400  27.691  11.175  14.019
63140W        W22401  15.104   0.384   1.262
63141W        W22402  14.797  32.942   2.236
63142W        W22403  28.979  32.600   3.332
63143W        W22404   2.346  11.192   2.785
63144W        W22405  43.390  15.610   1.734
63145W        W22406   9.691  24.052  11.938
63146W        W22407  13.684   4.715   4.324
63147W        W22408  32.993   8.301   2.817
63148W        W22409  13.226  43.339  11.002
63149W        W22410   5.421  19.594   0.262
63150W        W22411  35.028  20.111  14.829
63151W        W22412  40.454  16.585   1.331
63152W        W22413  31.902  17.091   1.343
63153W        W22414  34.469  23.204  13.478
63154W        W22415  37.410   0.323  12.841
63155W        W22416   4.345  11.199  10.930
63156W        W22417  38.423  39.908  10.946
63157W        W22418  39.361  31.105  11.020
63158W        W22419  17.163  27.148  12.492
63159W        W22420  34.101   2.731   0.285
63160W        W22421  35.904  37.396   3.702
63161W        W22422  17.260  12.307   3.812
63162W        W22423  28.542  19.678  13.943
63163W        W22424  37.347  14.611   3.314
63164W        W22425  10.869   9.674   2.265
63165W        W22426   7.379  42.357  12.072
63166W        W22427  36.030   7.351  10.426
63167W        W22428  41.314  24.643   1.227
63168W        W22429  31.104  34.583   2.286
63169W        W22430  35.004  28.109  13.423
63170W        W22431  33.392  43.363  11.610
63171W        W22432  27.051  10.271  10.142
63172W        W22433  27.958  37.850  11.982
63173W        W22434   6.418  16.293  13.812
63174W        W22435  33.616  44.916  11.037
63175W        W22436  35.446   9.272   5.752
63176W        W22437  17.624  29.576  13.368
63177W        W22438  28.177  28.438   0.910
63178W        W22439  43.910  26.623   4.796
63179W        W22440  25.973  32.995  12.357
63180W        W22441  35.018  13.310   0.382
63181W        W22442  21.645  34.985  11.013
63182W        W22443  25.184   5.213   2.710
63183W        W22444   9.688  31.955  11.040
63184W        W22445  30.540  41.838   1.826
63185W        W22446  36.481   5.932   2.205
63186W        W22447  16.317  35.489   2.737
63187W        W22448  34.577  42.463   2.354
63188W        W22449   6.836   7.797   1.724
63189W        W22450  35.531  37.018  11.955
63190W        W22451  39.550   7.300  14.849
63191W        W22452  40.002   2.299  14.370
63192W        W22453  38.390  35.995   2.193
63193W        W22454  38.471  13.290  11.088
63194W        W22455  18.718  10.287   0.271
63195W        W22456  35.084  23.123   3.344
63196W        W22457   7.837  19.101  12.953
63197W        W22458   8.213   6.879   0.322
63198W        W22459   0.854  30.580   0.752
63199W        W22460  39.995  27.486  10.947
63200W        W22461   0.927  35.106  11.507
63201W        W22462  33.028  34.049  14.381
63202W        W22463  42.339  12.215   3.181
63203W        W22464  35.578  10.714   1.436
63204W        W22465  26.020  33.941  10.453
63205W        W22466  12.344  12.175  10.558
63206W        W22467   6.742  34.504  13.828
63207W        W22468   8.212  34.559  12.562
63208W        W22469  21.040  42.010  14.936
63209W        W22470  15.194  17.608   2.203
63210W        W22471  18.563  25.112   1.771
63211W        W22472  10.716  40.397  14.860
63212W        W22473  29.512   8.304   3.855
63213W        W22474   3.423  18.603  13.504
63214W        W22475  24.121   3.291  11.066
63215W        W22476   5.234  13.841  11.009
63216W        W22477   5.870  41.039  12.429
63217W        W22478  11.653  11.746  12.466
63218W        W22479  33.997  32.446   3.231
63219W        W22480  35.550  16.117   3.864
63220W        W22481  19.070  34.562   0.920
63221W        W22482   3.767  41.856   4.669
63222W        W22483   1.767  13.686  13.029
63223W        W22484   5.430  11.128  14.278
63224W        W22485  35.387  20.046   0.857
63225W        W22486  40.875  34.406   0.963
63226W        W22487  24.085  12.155  10.901
63227W        W22488  11.664  34.574  12.538
63228W        W22489  17.250  15.140  12.933
63229W        W22490  40.421  18.587   2.698
63230W        W22491  28.127   9.755  10.020
63231W        W22492  11.296  28.670  13.924
63232W        W22493  18.777  13.263  14.409
63233W        W22494  35.511  22.130  11.481
63234W        W22495   1.944  42.788  10.905
63235W        W22496  25.200  20.653  11.479
63236W        W22497  14.156  38.558   4.678
63237W        W22498  39.472  12.701  14.910
63238W        W22499  12.701  16.270  10.966
63239W        W22500  27.658  33.021   0.291
63240W        W22501  41.985   1.737  11.982
63241W        W22502   0.374  12.213  11.935
63242W        W22503  20.182  27.176   5.671
63243W        W22504   0.864  15.186  14.785
63244W        W22505  20.563  15.179   0.741
63245W        W22506  38.555   3.868  14.394
63246W        W22507  43.767  28.172   9.977
63247W        W22508  35.564  34.514  14.863
63248W        W22509  22.506  12.205  10.614
63249W        W22510  44.814  38.942   3.263
63250W        W22511  16.121  22.034  13.881
63251W        W22512  27.180  12.848  14.791
63252W        W22513  41.393  18.288  10.595
63253W        W22514  26.115  19.135  13.420
63254W        W22515  37.972  32.029  12.391
63255W        W22516  41.481  37.984   4.837
63256W        W22517  12.723  35.357   3.637
63257W        W22518   7.187  30.073  14.911
63258W        W22519  18.157  18.098   0.361
63259W        W22520  27.960   2.751  13.050
63260W        W22521   6.700  14.724   0.866
63261W        W22522  18.706  11.858   2.747
63262W        W22523  44.969  29.556  14.861
63263W        W22524  38.352  34.023  10.989
63264W        W22525  40.867  32.110   3.240
63265W        W22526  29.451   6.901  13.932
63266W        W22527  13.172  25.131   4.262
63267W        W22528   7.733  12.282   3.333
63268W        W22529  14.260  34.025  14.982
63269W        W22530  43.987  28.597   9.526
63270W        W22531  28.975  20.580  10.948
63271W        W22532   8.832   0.921   2.312
63272W        W22533  37.358  37.581   5.261
63273W        W22534  42.996  31.029   4.609
63274W        W22535  41.865  30.954  14.390
63275W        W22536  31.931  19.776  14.282
63276W        W22537  38.410  14.332   1.802
63277W        W22538  10.335  27.167   4.756
63278W        W22539  44.869   0.811   0.413
63279W        W22540  18.693  12.159  11.862
63280W        W22541   6.329  39.043   0.737
63281W        W22542  18.753   1.348  10.609
63282W        W22543  24.710  28.993   4.304
63283W        W22544  43.426  22.665  13.969
63284W        W22545   2.452   7.322   1.275
63285W        W22546  30.097  15.821  13.496
63286W        W22547   4.317  40.445   2.810
63287W        W22548  41.419   4.273  11.871
63288W        W22549  32.536  23.573   1.713
63289W        W22550  12.198  39.555  13.834
63290W        W22551  37.083  39.849  13.451
63291W        W22552  29.134  38.884  12.920
63292W        W22553  15.729  28.085   0.298
63293W        W22554   7.215  17.721   1.778
63294W        W22555  14.712   1.328   2.181
63295W        W22556  25.982  15.778  12.828
63296W        W22557  34.409  13.110   9.563
63297W        W22558   4.774  10.741   4.653
63298W        W22559   1.897  40.539   0.395
63299W        W22560  38.013  13.147  12.056
63300W        W22561  10.224   2.856  10.460
63301W        W22562   4.756  40.945   0.359
63302W        W22563  38.021  22.065   3.658
63303W        W22564  12.667  15.715  13.827
63304W        W22565  17.206   5.804   1.724
63305W        W22566  22.009   8.333   3.341
63306W        W22567  11.218   9.165   1.712
63307W        W22568  34.554  34.952   2.835
63308W        W22569   7.254   6.868   4.625
63309W        W22570  15.259  29.000   1.897
63310W        W22571   5.199  38.002  10.539
63311W        W22572  11.733   7.720   1.311
63312W        W22573  18.194   8.324  13.355
63313W        W22574  28.969   3.295  11.867
63314W        W22575   6.915  44.473  10.575
63315W        W22576  43.292  34.605  13.357
63316W        W22577  25.199   6.776  10.609
63317W        W22578  37.459  18.606   0.781
63318W        W22579  31.049  27.138  11.879
63319W        W22580  41.971  24.050  10.564
63320W        W22581  15.697  41.523   0.313
63321W        W22582   2.799  17.608  14.320
63322W        W22583   5.868  42.444   1.802
63323W        W22584  16.177  11.271  13.451
63324W        W22585  42.442  42.916   3.850
63325W        W22586   2.354   8.313  12.394
63326W        W22587  38.325  38.918   1.246
63327W        W22588  35.854  31.142  10.466
63328W        W22589  26.127  43.329   5.669
63329W        W22590   6.201   5.876  12.556
63330W        W22591  13.252  43.308   2.201
63331W        W22592  44.857  21.629   1.715
63332W        W22593  42.916  13.178  14.371
63333W        W22594  20.171  26.953  12.375
63334W        W22595  21.707  23.238   2.685
63335W        W22596  44.859  35.540  10.940
63336W        W22597  39.811  40.466  12.936
63337W        W22598   0.880   5.301   4.199
63338W        W22599   3.941  34.109   1.220
63339W        W22600  30.111  26.969   3.376
63340W        W22601   3.838   8.337  12.469
63341W        W22602   7.707  15.103   2.206
63342W        W22603  27.519   4.721  14.336
63343W        W22604  14.747   2.884   4.278
63344W        W22605   3.710  32.502  10.593
63345W        W22606   2.405  38.040  12.503
63346W        W22607  10.371  35.081  11.562
63347W        W22608  32.576  11.718   0.313
63348W        W22609  27.986  25.514   3.215
63349W        W22610  16.135  36.555  12.397
63350W        W22611   2.292   1.361  11.997
63351W        W22612   7.346  21.621  12.574
63352W        W22613  18.091  34.926   1.714
63353W        W22614  29.558   5.711   4.263
63354W        W22615   3.755  27.494  13.420
63355W        W22616  12.171  29.942  12.445
63356W        W22617  26.141  28.159   3.721
63357W        W22618   1.906  25.082  10.603
63358W        W22619  10.303   0.842  14.968
63359W        W22620  41.328  26.088  10.025
63360W        W22621  20.723  29.558   1.871
63361W        W22622  32.892  32.454   2.721
63362W        W22623  37.841  35.904   5.238
63363W        W22624  31.648   0.770  13.913
63364W        W22625  33.024  25.048  10.930
63365W        W22626  26.031  16.076  10.940
63366W        W22627  29.105  34.926  14.490
63367W        W22628  17.692  44.904   4.320
63368W        W22629  25.091  29.601  14.458
63369W        W22630   1.482  36.051  10.929
63370W        W22631  12.237   1.972   4.709
63371W        W22632  43.414  27.997  13.373
63372W        W22633   9.828   3.383   4.260
63373W        W22634   9.775  25.562   4.286
63374W        W22635  16.724  33.586  10.919
63375W        W22636   2.835  20.617   0.312
63376W        W22637  12.300  37.391  14.918
63377W        W22638  30.564   7.789   2.767
63378W        W22639  14.791   3.378   0.260
63379W        W22640  31.609  41.300   0.841
63380W        W22641  23.078  44.967  13.431
63381W        W22642  34.011  43.459  12.885
63382W        W22643  13.745  21.545   0.444
63383W        W22644  27.970   8.183  12.527
63384W        W22645   9.875  14.198   4.726
63385W        W22646  26.632  10.244   3.669
63386W        W22647  25.199  25.185   3.679
63387W        W22648   9.643  17.229   1.424
63388W        W22649   9.341  38.491   2.290
63389W        W22650  15.275   8.286  11.060
63390W        W22651  35.469  33.110  10.592
63391W        W22652  44.954  21.105  10.996
63392W        W22653  43.279  17.620   2.385
63393W        W22654   5.325  18.238   1.322
63394W        W22655  20.709  31.612  12.470
63395W        W22656  28.124   4.792  10.013
63396W        W22657  41.334  27.025   2.854
63397W        W22658  10.314  40.474   3.154
63398W        W22659  27.647  32.010   1.366
63399W        W22660   0.820  19.258  11.930
63400W        W22661  20.119  36.024  13.441
63401W        W22662  34.457  44.953  11.479
63402W        W22663  30.651  40.914  13.803
63403W        W22664   5.777  20.716   4.700
63404W        W22665  27.657  27.019   1.245
63405W        W22666  32.414  41.907  10.571
63406W        W22667  29.532  39.832   3.667
63407W        W22668  42.320  10.678  13.802
63408W        W22669   6.335  10.846  12.046
63409W        W22670  30.039  11.323   0.354
63410W        W22671  29.040   7.410   4.740
63411W        W22672  11.790  15.092  13.413
63412W        W22673  43.965   1.783  11.591
63413W        W22674  32.610  32.612   0.472
63414W        W22675  28.179  28.597  11.066
63415W        W22676  40.305  11.220   3.710
63416W        W22677  28.132  25.078   1.768
63417W        W22678  27.122  10.154   1.762
63418W        W22679  21.729  40.903  12.054
63419W        W22680  33.612  41.038   4.749
63420W        W22681  44.368  40.399  13.516
63421W        W22682  36.430  21.254  11.002
63422W        W22683  43.330  17.735  12.926
63423W        W22684  19.609  38.537   3.838
63424W        W22685  13.200  41.940   0.389
63425W        W22686  25.139   8.678  11.595
63426W        W22687   9.171  40.472   4.295
63427W        W22688  41.363  19.196   2.205
63428W        W22689   0.761  34.072  11.900
63429W        W22690  36.573  10.745   0.910
63430W        W22691   3.795  32.034  13.325
63431W        W22692   8.288  37.410   1.876
63432W        W22693  30.983  37.470  13.454
63433W        W22694  40.359   7.901   4.784
63434W        W22695   6.916  42.429  14.469
63435W        W22696  22.148  40.999  12.849
63436W        W22697  25.095  21.531  13.493
63437W        W22698  41.376  33.109  14.403
63438W        W22699  40.454   9.291   0.748
63439W        W22700   5.257  23.039  12.905
63440W        W22701  38.000  40.797   3.749
63441W        W22702   4.292  28.561   2.802
63442W        W22703  21.532  34.956   4.630
63443W        W22704  38.950  39.985  10.957
63444W        W22705  22.133  35.562  13.341
63445W        W22706  26.565  42.302  11.535
63446W        W22707  29.013   0.960  11.096
63447W        W22708   6.895   5.276  12.064
63448W        W22709  15.620  31.064  10.571
63449W        W22710  28.594   3.786  13.442
63450W        W22711  35.854  10.179   4.807
63451W        W22712  34.013  14.184  10.527
63452W        W22713  15.604   8.727   2.252
63453W        W22714  32.568  25.159  11.613
63454W        W22715  31.995  20.226  11.109
63455W        W22716   9.782  26.557   4.797
63456W        W22717  24.200  25.580   4.769
63457W        W22718   9.317   1.438  13.905
63458W        W22719  12.790   3.453   1.774
63459W        W22720  13.676  38.498  10.515
63460W        W22721   1.769  36.418  10.606
63461W        W22722  28.474  23.597   4.314
63462W        W22723  30.941  41.403   2.798
63463W        W22724  11.861  35.081   9.986
63464W        W22725  12.162  18.079   3.692
63465W        W22726  22.223   3.902   0.786
63466W        W22727  21.641  22.520   1.812
63467W        W22728   1.763  20.574  13.536
63468W        W22729  36.989  10.828   1.756
63469W        W22730  15.776  30.147  12.077
63470W        W22731  13.673  28.538  13.011
63471W        W22732  24.050  39.340   2.809
63472W        W22733   6.813  14.112  13.044
63473W        W22734   0.383   1.362   3.355
63474W        W22735   6.289   1.929   1.916
63475W        W22736  29.010  12.786   3.781
63476W        W22737  44.285  23.152   5.141
63477W        W22738  29.465  32.971  14.451
63478W        W22739   2.448  31.905   0.358
63479W        W22740  13.119  34.374  13.909
63480W        W22741  36.890  35.075   0.430
63481W        W22742  13.697  16.717  13.972
63482W        W22743  33.494  40.422  10.452
63483W        W22744  29.033   2.863   5.191
63484W        W22745  18.607  27.536  10.931
63485W        W22746  17.187  18.731   4.223
63486W        W22747  12.249   9.854  14.933
63487W        W22748  36.350  19.130  13.327
63488W        W22749  16.616  35.571   3.762
63489W        W22750  15.789  27.169  12.902
63490W        W22751  35.078  26.694   4.343
63491W        W22752  17.305  36.559  11.583
63492W        W22753   4.312  35.587   3.701
63493W        W22754  38.973  34.527   2.320
63494W        W22755  38.896  38.337   3.694
63495W        W22756  41.850  44.378  12.864
63496W        W22757  29.442  19.539  14.355
63497W        W22758  19.775  36.000   4.826
63498W        W22759  19.536  28.010   5.310
63499W        W22760  32.411  18.770   2.326
63500W        W22761  14.197   5.233   1.214
63501W        W22762  24.566  18.753  13.464
63502W        W22763  26.526  28.562  13.051
63503W        W22764  39.378  19.636  12.580
63504W        W22765  22.685   3.239  11.902
63505W        W22766  23.112  18.231  11.028
63506W        W22767   2.768  23.241   1.700
63507W        W22768  17.724  17.272   4.266
63508W        W22769   5.828   0.864  11.999
63509W        W22770  17.280  16.676   4.798
63510W        W22771  27.484  32.503  14.460
63511W        W22772   2.733  22.130  12.339
63512W        W22773  21.619  25.649  11.107
63513W        W22774   3.766   3.379  14.308
63514W        W22775  16.244   2.266  12.442
63515W        W22776  25.556  39.560  11.598
63516W        W22777  16.089  42.902  13.343
63517W        W22778  42.951   6.892  12.353
63518W        W22779   0.324   8.264   0.292
63519W        W22780  26.133  39.002   3.235
63520W        W22781  15.155   3.352  10.509
63521W        W22782  41.334  20.259   1.433
63522W        W22783  43.481  16.156   4.311
63523W        W22784  36.979  43.791   3.643
63524W        W22785  40.905   8.253   4.221
63525W        W22786  10.756  24.067   3.780
63526W        W22787  36.513   7.751  10.997
63527W        W22788  44.491  26.963   5.637
63528W        W22789  18.102  14.098   3.251
63529W        W22790   3.287  10.292   4.299
63530W        W22791  44.409  18.628  10.589
63531W        W22792   2.394  22.730  13.485
63532W        W22793  17.636  36.402   4.326
63533W        W22794  24.059  32.404  13.449
63534W        W22795  16.225  23.511   3.677
63535W        W22796  28.469  36.582   3.171
63536W        W22797  14.594  10.278  11.589
63537W        W22798  32.450  35.437  11.127
63538W        W22799  14.593  38.846   3.777
63539W        W22800  33.414  10.157  11.948
63540W        W22801  10.871   7.192   0.283
63541W        W22802   8.721  15.690  11.884
63542W        W22803  34.000   8.265  13.881
63543W        W22804  12.352  18.289  11.945
63544W        W22805  35.960  22.617   3.842
63545W        W22806  16.103  18.613  14.355
63546W        W22807  36.043   5.736  10.896
63547W        W22808  26.650  14.790   4.197
63548W        W22809  40.401  36.356  12.463
63549W        W22810  39.878   3.902  10.422
63550W        W22811  24.039  14.206  13.815
63551W        W22812  17.204  19.748  14.949
63552W        W22813  41.461  11.356  14.850
63553W        W22814  32.006  26.053  10.491
63554W        W22815  24.148  24.021  12.355
63555W        W22816  29.037   8.724  14.285
63556W        W22817   4.314  18.052  12.576
63557W        W22818  40.958   7.766   0.858
63558W        W22819  30.617  29.025   3.683
63559W        W22820   8.210  36.882   3.848
63560W        W22821  34.417  10.263   0.918
63561W        W22822  23.059  13.310  10.991
63562W        W22823   6.896   7.378  11.989
63563W        W22824  21.104  16.295  10.425
63564W        W22825  36.921  17.290   0.321
63565W        W22826  42.454  42.803  12.899
63566W        W22827  30.475  17.075   1.296
63567W        W22828  43.501  24.069  12.086
63568W        W22829  24.115  25.044   2.814
63569W        W22830   5.921  35.391  13.014
63570W        W22831  17.592  40.028  14.352
63571W        W22832  21.147  16.117   0.904
63572W        W22833  18.730  31.475  14.492
63573W        W22834   4.209   3.943   1.909
63574W        W22835  15.127   1.933  10.623
63575W        W22836  38.965  14.128  10.025
63576W        W22837  15.301  43.401  11.959
63577W        W22838  11.867  27.976  10.480
63578W        W22839  17.177   4.938   4.248
63579W        W22840  28.055   8.368   4.278
63580W        W22841  26.140  37.832  12.916
63581W        W22842   0.839  21.653   3.181
63582W        W22843  37.049  40.897  13.923
63583W        W22844   0.255  16.672   4.661
63584W        W22845  33.122  20.076  10.600
63585W        W22846  43.771   1.966   1.253
63586W        W22847  37.407  42.886   2.716
63587W        W22848   7.243  26.021  12.038
63588W        W22849   7.678  41.956  13.489
63589W        W22850  17.241  42.988  10.516
63590W        W22851  37.582  11.719   2.730
63591W        W22852   7.769  14.652  14.973
63592W        W22853  26.045   9.824  12.033
63593W        W22854  29.494  12.196   3.778
63594W        W22855  37.060   2.821  10.606
63595W        W22856   3.375  13.606   0.895
63596W        W22857  24.518   4.865   4.830
63597W        W22858  34.069  30.541   1.436
63598W        W22859   5.816   7.870  12.970
63599W        W22860  37.082  37.995   2.814
63600W        W22861  24.115  13.120  10.469
63601W        W22862  14.283   8.760  12.934
63602W        W22863  22.148   1.868   0.279
63603W        W22864  24.124  43.789   2.242
63604W        W22865  24.519  32.016   4.266
63605W        W22866  30.958  38.343   2.742
63606W        W22867  21.190  16.088  14.471
63607W        W22868  37.930   2.395  14.016
63608W        W22869  18.107  16.699  12.995
63609W        W22870  44.766   4.710  13.801
63610W        W22871  13.233   4.710   4.685
63611W        W22872  29.983   0.877  14.923
63612W        W22873  25.129  37.021  10.935
63613W        W22874  42.946  37.385   1.888
63614W        W22875  22.722  23.621   3.842
63615W        W22876  11.760  14.833  13.545
63616W        W22877   9.376  26.624  13.365
63617W        W22878  42.024  15.137  11.072
63618W        W22879  27.494  38.562  14.005
63619W        W22880  41.821  26.952   2.784
63620W        W22881   4.386  20.188  13.051
63621W        W22882  26.492   9.312   3.812
63622W        W22883  31.527  34.003  12.036
63623W        W22884   5.710  40.852  14.953
63624W        W22885  13.351  16.593  12.340
63625W        W22886  39.409  24.075  10.516
63626W        W22887  25.602  21.178   1.260
63627W        W22888  43.382   7.223   4.771
63628W        W22889  10.645  42.857  13.025
63629W        W22890  11.213  18.083   2.227
63630W        W22891  24.595  21.682  13.984
63631W        W22892  17.068  31.039   4.261
63632W        W22893  23.542   3.453   0.289
63633W        W22894  14.817  40.380  10.953
63634W        W22895  11.337   9.676   4.625
63635W        W22896  40.392   7.852   2.187
63636W        W22897   8.796  24.571   3.366
63637W        W22898  37.945  21.090  13.952
63638W        W22899   0.945  44.852   2.372
63639W        W22900  15.106  12.624   2.262
63640W        W22901  18.632   1.426   2.375
63641W        W22902  23.208  25.712   0.728
63642W        W22903  31.647  18.173   3.192
63643W        W22904  32.562  28.537   0.827
63644W        W22905   8.782  11.844  10.482
63645W        W22906  32.015  22.726   2.804
63646W        W22907  14.706  15.678  12.066
63647W        W22908  15.697  19.282  10.036
63648W        W22909  42.370  37.003   1.785
63649W        W22910  31.537  15.200  12.465
63650W        W22911  41.925  28.599  13.922
63651W        W22912  42.783  16.190   3.631
63652W        W22913   7.666  12.692  10.541
63653W        W22914  18.165  41.465   0.345
63654W        W22915  41.026   7.414  10.611
63655W        W22916   1.463   5.853   1.414
63656W        W22917  33.385  32.605   1.750
63657W        W22918  19.261  10.767  12.837
63658W        W22919   0.783  14.260   3.285
63659W        W22920  15.680   0.431   1.920
63660W        W22921  20.194  13.695   4.672
63661W        W22922  37.435   8.254  14.811
63662W        W22923   2.381   9.353   1.699
63663W        W22924  38.038  44.339  12.033
63664W        W22925   2.323  33.112  13.818
63665W        W22926  25.037  33.099  13.885
63666W        W22927  36.973  32.095  11.967
63667W        W22928   0.961  44.443  11.100
63668W        W22929  21.155  18.580   1.779
63669W        W22930  21.601  29.457   4.670
63670W        W22931  38.407  37.971  13.012
63671W        W22932  43.466  27.140  12.568
63672W        W22933  13.273   4.356  11.375
63673W        W22934  42.362   7.416   1.882
63674W        W22935  35.376  33.950   4.149
63675W        W22936  29.937  15.179  11.102
63676W        W22937  18.680   1.393  13.872
63677W        W22938  35.941  23.596   0.849
63678W        W22939  20.739  25.104   0.903
63679W        W22940   4.818  35.551   3.862
63680W        W22941  38.822  31.090   5.123
63681W        W22942  40.404   3.752  12.386
63682W        W22943  20.585  21.210   1.788
63683W        W22944  37.026  25.056  14.443
63684W        W22945  13.691  10.182  10.901
63685W        W22946  43.953  32.906  12.988
63686W        W22947  17.264  12.653   2.871
63687W        W22948  37.507  17.075   0.772
63688W        W22949   1.817  12.629   4.762
63689W        W22950   0.873  16.187  11.095
63690W        W22951  13.602  24.662   4.662
63691W        W22952  15.746  32.046   1.429
63692W        W22953  38.565  32.117   2.354
63693W        W22954   5.225  38.532  12.393
63694W        W22955   6.873  36.045  14.288
63695W        W22956  10.149  15.776  10.631
63696W        W22957  27.602   9.158  10.466
63697W        W22958  44.406   4.448   1.736
63698W        W22959  10.696   7.367  14.945
63699W        W22960  38.834  23.144  10.930
63700W        W22961  15.741   9.663   2.377
63701W        W22962  42.296  17.755   2.671
63702W        W22963  16.185   1.265   1.272
63703W        W22964  16.225  37.385  13.526
63704W        W22965  30.989  42.340   2.692
63705W        W22966   2.953  33.905   2.315
63706W        W22967  21.247  31.471   3.221
63707W        W22968  32.977  12.195   0.744
63708W        W22969  44.373   8.165   2.356
63709W        W22970  35.445  24.719  10.445
63710W        W22971  27.011  12.748   3.656
63711W        W22972   1.477  20.732  14.398
63712W        W22973  18.768  12.360  14.004
63713W        W22974   0.899  34.615  13.986
63714W        W22975  10.878  29.155  11.876
63715W        W22976  23.146  15.767  12.992
63716W        W22977  17.691  44.318   1.442
63717W        W22978  10.834  33.546   3.762
63718W        W22979   6.267   4.334   3.735
63719W        W22980  21.199  13.747   1.441
63720W        W22981   2.937  27.595   0.261
63721W        W22982   0.792  34.947   2.795
63722W        W22983  10.366  33.098   4.264
63723W        W22984   9.238   7.272   1.773
63724W        W22985   9.218  15.792  11.487
63725W        W22986   5.313  44.343   3.836
63726W        W22987  38.958  38.878   2.265
63727W        W22988  38.929  15.248  14.859
63728W        W22989   6.722   6.734  12.035
63729W        W22990  34.466  42.375   1.732
63730W        W22991  34.872  15.820  12.943
63731W        W22992   0.784  37.946  13.048
63732W        W22993  23.036  38.823  13.959
63733W        W22994  37.002  35.977  13.987
63734W        W22995   6.764  17.101  11.374
63735W        W22996  31.509  25.622   4.748
63736W        W22997   7.338  36.489  14.766
63737W        W22998  30.914  21.602  12.388
63738W        W22999  14.770  10.313   4.284
63739W        W23000  33.484  30.630   0.880
63740W        W23001  42.288  11.360   3.155
63741W        W23002   6.244  29.964   0.804
63742W        W23003  44.475  31.458  13.499
63743W        W23004   7.208  11.361  12.939
63744W        W23005  22.169  38.416   2.841
63745W        W23006  40.853  43.965   0.289
63746W        W23007  21.586  43.879   1.220
63747W        W23008  42.302   6.357   0.796
63748W        W23009  36.362   1.780   3.171
63749W        W23010  44.280  44.793  11.602
63750W        W23011  42.479  43.458  13.800
63751W        W23012  40.547   2.365   1.318
63752W        W23013  25.989  39.375   0.423
63753W        W23014  21.144  15.696   4.681
63754W        W23015  34.099   1.776  14.488
63755W        W23016  39.369  15.175  13.794
63756W        W23017   4.216  37.014  13.374
63757W        W23018   3.891  44.975   3.175
63758W        W23019  20.091  22.567   3.195
63759W        W23020  19.139  15.328  13.505
63760W        W23021  10.245  38.525   2.320
63761W        W23022   3.245   2.236   2.670
63762W        W23023  34.433   5.804  14.476
63763W        W23024  27.192  21.097   3.847
63764W        W23025  23.013   3.888  10.420
63765W        W23026  43.798  36.523  11.414
63766W        W23027  41.372  44.832  12.502
63767W        W23028  11.686  16.121  14.857
63768W        W23029   9.873  41.475   1.393
63769W        W23030  29.932  21.054   4.120
63770W        W23031  41.936   1.762  13.359
63771W        W23032   3.819  35.925  14.812
63772W        W23033  40.426  20.169  11.462
63773W        W23034   0.409  36.907   1.400
63774W        W23035  17.152  19.698  13.505
63775W        W23036   3.295  24.061   5.219
63776W        W23037  16.251  43.320   0.263
63777W        W23038  34.029  10.345   2.817
63778W        W23039   2.841  42.346   2.416
63779W        W23040   5.310  12.662  11.929
63780W        W23041  11.761  35.455  11.087
63781W        W23042   0.438  17.606  12.826
63782W        W23043  24.157  34.007  14.866
63783W        W23044  20.253  25.591   1.269
63784W        W23045  28.631  18.278   1.284
63785W        W23046  33.604  21.583   2.872
63786W        W23047  36.936  31.489   0.922
63787W        W23048  25.125  41.974  13.509
63788W        W23049  15.675   7.720   1.260
63789W        W23050   7.200  13.262  13.309
63790W        W23051  43.956   1.468   4.801
63791W        W23052   8.705  12.622   1.721
63792W        W23053  40.945   6.832   3.829
63793W        W23054  34.006  44.934   1.866
63794W        W23055  19.103  19.560  12.423
63795W        W23056  16.688   5.820  13.419
63796W        W23057  28.121  31.484   3.376
63797W        W23058   1.293   7.243  12.988
63798W        W23059   7.341  41.485   0.444
63799W        W23060  19.189  44.970   1.387
63800W        W23061  24.593   1.795  12.985
63801W        W23062  14.317  14.123   5.292
63802W        W23063   1.784  30.135  12.964
63803W        W23064  38.502  41.894   1.228
63804W        W23065  10.288  35.396  12.521
63805W        W23066   9.828  37.027   0.840
63806W        W23067  22.223  40.530  12.492
63807W        W23068  14.681  21.560  14.319
63808W        W23069  16.096  30.519   1.451
63809W        W23070  26.146  13.156   3.696
63810W        W23071  21.074   5.922  14.506
63811W        W23072  10.294  24.049   1.245
63812W        W23073  14.656  30.616   0.245
63813W        W23074  14.695  10.843  14.864
63814W        W23075  29.521  31.437   5.166
63815W        W23076  21.083   4.324  10.138
63816W        W23077  30.645  13.159   3.260
63817W        W23078   0.834  29.169   1.843
63818W        W23079  15.156  19.660  13.366
63819W        W23080  40.872   8.167  10.918
63820W        W23081  27.016   7.290   1.369
63821W        W23082  37.854  13.172   2.306
63822W        W23083   3.952  14.726  14.279
63823W        W23084   7.263  41.382   1.310
63824W        W23085   1.335   2.902   4.623
63825W        W23086  25.160  44.787   3.845
63826W        W23087  35.024  25.977  14.905
63827W        W23088  20.133  36.510   0.956
63828W        W23089  24.037  24.567  14.004
63829W        W23090  23.093  22.728   0.365
63830W        W23091  37.083   6.862  13.495
63831W        W23092   2.841   8.901  11.900
63832W        W23093   0.864   8.240   3.798
63833W        W23094  26.048   4.398   4.175
63834W        W23095   7.212  11.660   4.353
63835W        W23096  44.811  16.646  13.048
63836W        W23097  22.187  32.914   2.859
63837W        W23098  16.312  30.463  10.974
63838W        W23099  34.072  43.388   4.623
63839W        W23100  19.080  23.177   2.345
63840W        W23101  16.317  40.506   3.757
63841W        W23102  20.229  42.327   4.616
63842W        W23103   1.312   9.887   0.765
63843W        W23104  18.239   2.469   4.614
63844W        W23105   6.726  29.039  13.810
63845W        W23106   1.320   3.352  10.416
63846W        W23107  38.455  38.054  13.353
63847W        W23108  13.667   9.757   2.700
63848W        W23109  41.862   7.245   0.830
63849W        W23110  27.040   8.764   1.340
63850W        W23111  42.440  41.900  12.928
63851W        W23112  17.783   1.796  14.292
63852W        W23113  28.518   2.374   2.397
63853W        W23114   4.231  14.163   0.751
63854W        W23115   7.241  13.762  14.455
63855W        W23116  12.661  11.805  12.897
63856W        W23117  26.529  44.283  14.874
63857W        W23118  36.861  40.516   4.656
63858W        W23119   0.458  25.076  11.055
63859W        W23120  19.546  12.203   1.814
63860W        W23121  10.244  34.489  13.829
63861W        W23122   0.885  27.500  11.010
63862W        W23123   0.892   6.907   1.720
63863W        W23124  41.930  33.387   0.896
63864W        W23125  10.729  32.016   0.270
63865W        W23126  42.960  39.464   2.826
63866W        W23127  35.876   5.391  14.900
63867W        W23128  24.014   0.821   4.697
63868W        W23129   3.827   1.914  11.031
63869W        W23130  37.578  32.037  10.405
63870W        W23131   6.234  17.567  13.467
63871W        W23132  37.470   1.855   1.335
63872W        W23133  34.986  38.073  14.859
63873W        W23134   1.944   3.272   4.340
63874W        W23135  17.745  44.814   3.334
63875W        W23136  31.962   5.249  12.438
63876W        W23137  31.146  43.318  11.018
63877W        W23138  30.655  43.513   5.284
63878W        W23139  20.069  42.329  12.047
63879W        W23140  16.690  29.630   4.681
63880W        W23141   7.410  20.200   2.350
63881W        W23142   2.931  38.998   1.902
63882W        W23143   9.849  35.023  10.469
63883W        W23144   0.790   8.793   9.977
63884W        W23145  42.920  22.234  10.548
63885W        W23146  22.604  29.538   9.972
63886W        W23147  22.562   5.741  13.827
63887W        W23148  23.221  14.225   2.347
63888W        W23149  34.556  27.994  11.045
63889W        W23150  33.006   6.286  12.374
63890W        W23151   0.425  28.017  10.984
63891W        W23152  23.062  34.920   3.192
63892W        W23153   3.830  19.116   1.379
63893W        W23154  14.334  42.834  10.007
63894W        W23155  31.054  15.276   0.905
63895W        W23156  17.109  21.676   3.276
63896W        W23157  25.030  12.765  14.991
63897W        W23158  32.106  22.145   0.455
63898W        W23159   1.865  11.693   1.401
63899W        W23160  10.825   7.686   2.771
63900W        W23161  42.468  44.863  11.903
63901W        W23162   9.162  32.012  13.889
63902W        W23163  22.625   4.779  10.898
63903W        W23164   6.895  18.294  10.636
63904W        W23165  18.609  43.005   2.833
63905W        W23166   1.464   5.704  10.421
63906W        W23167  41.981  22.198  10.590
63907W        W23168  41.861  17.167   3.681
63908W        W23169  37.464  26.192   0.421
63909W        W23170  40.881  35.533   3.673
63910W        W23171  29.582  36.066   4.760
63911W        W23172  14.311  38.958   4.751
63912W        W23173  27.670  21.156  12.576
63913W        W23174  18.053   4.827   3.813
63914W        W23175  27.002  39.520   0.298
63915W        W23176  19.202   2.897   1.766
63916W        W23177  16.731  31.468  10.975
63917W        W23178  38.353  10.808  11.400
63918W        W23179  36.068   5.762   3.216
63919W        W23180  19.048  22.995  14.384
63920W        W23181  26.521  16.079  14.506
63921W        W23182  12.203   3.809   0.475
63922W        W23183  12.349  31.578  12.902
63923W        W23184   4.307   4.732  11.400
63924W        W23185  23.496  14.798  10.640
63925W        W23186   6.420  22.704   1.790
63926W        W23187  19.117  20.028   0.938
63927W        W23188  21.542  33.557   4.775
63928W        W23189  12.135  26.615   2.377
63929W        W23190  21.256  42.366   4.168
63930W        W23191  33.975  23.702  13.871
63931W        W23192  43.976   7.324  13.869
63932W        W23193   1.736  28.079   1.237
63933W        W23194  44.903  14.240  10.456
63934W        W23195  10.689   8.818   1.836
63935W        W23196  20.602  34.948   4.811
63936W        W23197  16.778  21.726   3.322
63937W        W23198  15.624   6.787   2.247
63938W        W23199  39.865   8.169   0.433
63939W        W23200  15.584  15.243  14.775
63940W        W23201  11.757   9.375   1.749
63941W        W23202  16.806   6.786   5.646
63942W        W23203  43.396  34.058  12.006
63943W        W23204  23.137  17.752  11.061
63944W        W23205  12.806   3.932  13.493
63945W        W23206  33.019  31.581  10.465
63946W        W23207  16.792  36.847  12.056
63947W        W23208  23.215   4.213  14.452
63948W        W23209  35.480  44.425  12.363
63949W        W23210  41.945  22.547   3.274
63950W        W23211  24.588  33.460  13.361
63951W        W23212  37.561  15.287  12.388
63952W        W23213  12.659  42.288   3.770
63953W        W23214  23.607  41.962   4.802
63954W        W23215  20.761   7.200  10.545
63955W        W23216  16.162  23.551  14.477
63956W        W23217  17.230   8.372  12.933
63957W        W23218   0.867  27.057   3.788
63958W        W23219  13.188  33.961   2.181
63959W        W23220  41.438  22.601   1.403
63960W        W23221   3.755   6.416   0.840
63961W        W23222  15.263  24.596  14.838
63962W        W23223  28.607  11.158  12.096
63963W        W23224  14.794  38.505  13.015
63964W        W23225  15.641  15.095   1.448
63965W        W23226  31.411  32.119  13.995
63966W        W23227  11.155  27.007  11.517
63967W        W23228  25.174  14.249   0.254
63968W        W23229  37.923  29.539  11.916
63969W        W23230  44.833  36.862   9.935
63970W        W23231  11.190   1.380  10.939
63971W        W23232  44.819  33.950   4.243
63972W        W23233  25.565   4.944  13.455
63973W        W23234  28.018  14.187   1.240
63974W        W23235   4.419   2.341   2.888
63975W        W23236   9.804  22.220  13.035
63976W        W23237   7.857  21.741  13.809
63977W        W23238  37.343   6.872  11.612
63978W        W23239   5.899  20.679   2.259
63979W        W23240  13.736  24.097  13.335
63980W        W23241  24.499   5.851  10.497
63981W        W23242  44.395  25.566   0.746
63982W        W23243  43.348  33.400   0.802
63983W        W23244  10.210  28.468   2.225
63984W        W23245  21.158   9.279   3.776
63985W        W23246  42.006  26.602   2.807
63986W        W23247  33.938  14.670   2.198
63987W        W23248  23.650  32.121  10.136
63988W        W23249  33.618  40.546   4.810
63989W        W23250  39.412  42.828  14.374
63990W        W23251  24.095  43.960   0.291
63991W        W23252  35.885   0.318   1.448
63992W        W23253  10.857  41.380  14.027
63993W        W23254  35.879  27.562   1.928
63994W        W23255  10.298  32.635   4.649
63995W        W23256  34.494   0.985  11.376
63996W        W23257  34.058  22.118   3.248
63997W        W23258  33.539   3.341   0.900
63998W        W23259  12.684  26.115   3.705
63999W        W23260  23.035   4.867  11.871
64000W        W23261   8.205  42.792   0.755
64001W        W23262  30.505  37.438   1.789
64002W        W23263  29.936  27.534  14.399
64003W        W23264  16.607  21.198   1.224
64004W        W23265  11.216  28.674  11.471
64005W        W23266   2.911  28.636  12.958
64006W        W23267  15.212   0.466  14.455
64007W        W23268  16.112  23.562  12.077
64008W        W23269  40.477  30.554  12.013
64009W        W23270  31.484   7.844  11.940
64010W        W23271   7.237  36.929  12.498
64011W        W23272  42.476  43.375  11.029
64012W        W23273  35.497   4.260   4.672
64013W        W23274   2.286   5.381   2.802
64014W        W23275  38.916   8.888   2.670
64015W        W23276  31.631   1.310  10.541
64016W        W23277  11.829  42.881   0.471
64017W        W23278  34.582  31.468   1.884
64018W        W23279  22.139  34.093  11.968
64019W        W23280   3.711  24.011  14.763
64020W        W23281  38.567  38.892   2.696
64021W        W23282  15.283  16.185  12.485
64022W        W23283  34.590   5.342  11.490
64023W        W23284  25.550  17.304  13.917
64024W        W23285  24.515   6.341  13.047
64025W        W23286  25.207  38.503  12.961
64026W        W23287  36.522   7.356   4.773
64027W        W23288  17.571  13.678  14.935
64028W        W23289  35.011  35.958  10.496
64029W        W23290   6.224  35.458  13.918
64030W        W23291  18.761   1.763   4.813
64031W        W23292  34.388  25.037  14.885
64032W        W23293  36.994  38.542  13.030
64033W        W23294  10.169  14.336   4.597
64034W        W23295  18.139  40.850   4.654
64035W        W23296  22.594  14.682  11.100
64036W        W23297  16.705   7.856  14.304
64037W        W23298  12.631   5.790   0.475
64038W        W23299  23.595   7.733  13.977
64039W        W23300   1.457  14.714  12.480
64040W        W23301  29.553  29.969   1.808
64041W        W23302  35.877  21.617   4.297
64042W        W23303  27.677  24.523   3.298
64043W        W23304  37.038  37.049  12.838
64044W        W23305  35.543  38.439   0.464
64045W        W23306   7.790  37.072   2.287
64046W        W23307  39.433  25.671   1.823
64047W        W23308  39.499  19.582   4.783
64048W        W23309  12.325  35.364   1.410
64049W        W23310  35.917   7.274   1.414
64050W        W23311  12.718  33.985   1.896
64051W        W23312  37.857   1.957   4.323
64052W        W23313  41.009   8.886   1.914
64053W        W23314  42.931  30.452  10.930
64054W        W23315  35.050   6.423  13.987
64055W        W23316  24.113  34.555   1.722
64056W        W23317  21.053  16.573   0.448
64057W        W23318  35.888  34.865  10.406
64058W        W23319  13.331  15.816  12.091
64059W        W23320   7.857   8.204  14.343
64060W        W23321  22.071  11.202   1.302
64061W        W23322  40.457  24.139  13.495
64062W        W23323  21.646  24.537   4.167
64063W        W23324  25.628   6.695  14.510
64064W        W23325   0.873  39.345  13.445
64065W        W23326  28.958  15.604  13.862
64066W        W23327   9.254   8.361   2.376
64067W        W23328  22.118   9.356  13.003
64068W        W23329  37.036  25.475   2.295
64069W        W23330   3.898  22.502  13.974
64070W        W23331  33.402  20.247  13.451
64071W        W23332   5.823  32.119   3.840
64072W        W23333  10.270   0.742  11.973
64073W        W23334  31.502  38.031  14.487
64074W        W23335  21.056  37.995   3.310
64075W        W23336  14.184  21.565   1.253
64076W        W23337   0.401  40.816   0.743
64077W        W23338  17.579  44.503  14.944
64078W        W23339  23.647   2.862  13.520
64079W        W23340  36.354  32.043  11.385
64080W        W23341  20.165  33.600   2.871
64081W        W23342  39.831   6.309   3.870
64082W        W23343   3.856  27.169   0.277
64083W        W23344  20.566   9.182   3.742
64084W        W23345  36.453  29.923   3.798
64085W        W23346  14.747  36.044   4.702
64086W        W23347   8.882  13.720  11.915
64087W        W23348  26.686  30.561   2.336
64088W        W23349   0.386  33.561  13.799
64089W        W23350  15.679  14.254   4.818
64090W        W23351  33.543  10.778   2.281
64091W        W23352  24.534  28.161  12.923
64092W        W23353  10.690  44.324  10.619
64093W        W23354   7.232  33.078  14.025
64094W        W23355  38.541  17.693  11.563
64095W        W23356   4.774  24.127   2.193
64096W        W23357  21.220  32.422   0.939
64097W        W23358   0.976  33.398   2.285
64098W        W23359  17.164   8.261   1.343
64099W        W23360  43.481  35.093  14.851
64100W        W23361  22.196  35.940  13.990
64101W        W23362  28.102  12.301  14.279
64102W        W23363   2.895  40.403  11.997
64103W        W23364  38.487  36.931   2.388
64104W        W23365   2.354  16.138   1.722
64105W        W23366  24.222  33.028   2.869
64106W        W23367   6.731   6.240  12.078
64107W        W23368  39.933  31.597  12.855
64108W        W23369  26.998  34.891   1.368
64109W        W23370  25.518  18.294  10.558
64110W        W23371  32.031  12.184   1.815
64111W        W23372  40.908  28.519  11.400
64112W        W23373  24.070  31.110   1.830
64113W        W23374  26.121  19.727  10.438
64114W        W23375  31.991  29.145  14.346
64115W        W23376   8.885  43.443   2.381
64116W        W23377  33.537  15.668  10.508
64117W        W23378  13.192   5.389  12.086
64118W        W23379  12.729  42.464  11.490
64119W        W23380  24.712   0.831   5.311
64120W        W23381  31.610   8.865  10.613
64121W        W23382  42.364  19.094  13.055
64122W        W23383  41.895  18.273  12.931
64123W        W23384  15.657  33.404   4.784
64124W        W23385  32.988   2.439  14.433
64125W        W23386  42.927  34.476   9.980
64126W        W23387  29.670   2.805   2.742
64127W        W23388   8.815  16.659  12.977
64128W        W23389   1.754  38.359   1.820
64129W        W23390  11.292  40.324   4.608
64130W        W23391  28.967  32.890  14.970
64131W        W23392  31.152  31.643   3.249
64132W        W23393   5.823  11.687  12.022
64133W        W23394  15.697  13.720  14.315
64134W        W23395   2.330   7.321   4.651
64135W        W23396  16.093   9.710   2.747
64136W        W23397  18.568   6.413   2.260
64137W        W23398   3.911  40.948  10.956
64138W        W23399  28.452  22.555   0.883
64139W        W23400  23.529  35.086  14.793
64140W        W23401  30.117  18.281   3.248
64141W        W23402  32.587  34.462  13.015
64142W        W23403   3.894  26.475   3.838
64143W        W23404  32.618   8.832  12.945
64144W        W23405  38.384  24.595  11.050
64145W        W23406  44.409  36.905   3.694
64146W        W23407  13.640   4.699   2.743
64147W        W23408  10.306  34.611  13.449
64148W        W23409   9.273  26.629  12.932
64149W        W23410  39.482   5.299  10.447
64150W        W23411  31.488  41.972   3.794
64151W        W23412   0.286   2.370  10.983
64152W        W23413  23.509  38.042  13.957
64153W        W23414  28.519  21.160  14.006
64154W        W23415  23.120   6.276  10.963
64155W        W23416  42.397  33.539   2.195
64156W        W23417   6.216   4.802  13.048
64157W        W23418  12.734  38.497  11.085
64158W        W23419  32.142  17.140  10.595
64159W        W23420  16.717  28.951  13.048
64160W        W23421  43.969  35.559   2.415
64161W        W23422  27.465  25.674   3.664
64162W        W23423  14.302  21.086  11.534
64163W        W23424   4.346  11.815  10.449
64164W        W23425  32.445   4.789   1.875
64165W        W23426   8.688   0.770  14.359
64166W        W23427  32.958   5.283   0.956
64167W        W23428  30.441  30.553  12.833
64168W        W23429  33.004  37.014   0.247
64169W        W23430  40.341  12.639  10.641
64170W        W23431   2.273   4.347  11.460
64171W        W23432  27.538  41.422  13.039
64172W        W23433  25.590  32.568   0.386
64173W        W23434  43.396   3.756   1.846
64174W        W23435  37.004  19.127  12.964
64175W        W23436   7.892   1.735  13.056
64176W        W23437  33.094  19.045  13.012
64177W        W23438  38.412   1.893   4.177
64178W        W23439  22.236  25.583   3.736
64179W        W23440  39.351  33.447   2.369
64180W        W23441  11.258   4.296  11.531
64181W        W23442  40.007  38.391  14.428
64182W        W23443  29.493  38.533  11.039
64183W        W23444  23.611  20.753  12.477
64184W        W23445   3.310  18.190  11.499
64185W        W23446   8.779  11.844  11.893
64186W        W23447  18.162  39.360   2.213
64187W        W23448  32.543  27.544   0.863
64188W        W23449  27.193  22.121   1.895
64189W        W23450  40.970  19.600   1.790
64190W        W23451  19.254  14.769  12.063
64191W        W23452  40.867   3.281  13.993
64192W        W23453  39.456  41.444   4.343
64193W        W23454   7.399  23.711  11.573
64194W        W23455  44.375  26.994   1.916
64195W        W23456  24.153  11.717   2.385
64196W        W23457  21.703  36.463   4.675
64197W        W23458  43.857  29.989  12.950
64198W        W23459  24.013  14.340  14.989
64199W        W23460  13.791  29.039  10.583
64200W        W23461  19.550  34.948  10.563
64201W        W23462  19.277   5.805  12.497
64202W        W23463  20.629  22.044  12.859
64203W        W23464  17.680  36.454  13.513
64204W        W23465  14.819  23.504   5.091
64205W        W23466   6.292  12.289   1.829
64206W        W23467  16.076   8.387   3.189
64207W        W23468   5.306  42.483   4.718
64208W        W23469  31.973  13.258   4.340
64209W        W23470   6.283  15.748   5.173
64210W        W23471  41.427  12.831   1.905
64211W        W23472   9.697  44.879   1.218
64212W        W23473  11.714  29.045   1.277
64213W        W23474   6.845  32.550   2.720
64214W        W23475  36.090   9.685  12.030
64215W        W23476  35.463  38.546  14.505
64216W        W23477   7.857   4.828  14.814
64217W        W23478  32.562  28.470  10.507
64218W        W23479  29.664  13.166   5.100
64219W        W23480  26.087  18.062  12.981
64220W        W23481   0.336  16.108  11.866
64221W        W23482  35.424  15.785  13.531
64222W        W23483  36.463  36.352  13.929
64223W        W23484   0.441  35.988   0.457
64224W        W23485  13.184  19.741   1.447
64225W        W23486  10.780  33.942   4.679
64226W        W23487  15.183  36.433   0.782
64227W        W23488  35.939  43.830   4.257
64228W        W23489  10.711   1.917   4.667
64229W        W23490  18.679  17.112  13.369
64230W        W23491  17.280  28.169   3.753
64231W        W23492  35.357  37.364  10.451
64232W        W23493   7.362  29.088  12.011
64233W        W23494   1.965   2.441   4.804
64234W        W23495  21.542  37.927   4.125
64235W        W23496  19.658  13.310   1.895
64236W        W23497   2.237   9.673   2.886
64237W        W23498  42.888   8.281  14.350
64238W        W23499  32.442  24.587  12.915
64239W        W23500   0.827  23.514  14.404
64240W        W23501  33.900  41.389  14.929
64241W        W23502  34.031   4.890   4.189
64242W        W23503  37.907  37.382  11.386
64243W        W23504  20.640  32.505  10.997
64244W        W23505  22.659  20.549  12.097
64245W        W23506  44.335  15.202   5.171
64246W        W23507  40.526  10.688  10.544
64247W        W23508  40.416  20.614   9.987
64248W        W23509  10.208  18.656  14.892
64249W        W23510  10.667  19.578   3.286
64250W        W23511  34.007  33.968  13.796
64251W        W23512  13.792  29.515  13.895
64252W        W23513  24.160   7.720   2.269
64253W        W23514  32.413  15.773   4.602
64254W        W23515  41.452   1.881   4.656
64255W        W23516  16.244  20.084  12.027
64256W        W23517   8.312  15.170   1.419
64257W        W23518   2.889   8.749  14.475
64258W        W23519  43.355  32.962   5.165
64259W        W23520  21.209   0.388  14.850
64260W        W23521  44.482  30.118  10.525
64261W        W23522  37.877  19.575  11.013
64262W        W23523  15.166  15.159   3.793
64263W        W23524  19.264  37.088  10.513
64264W        W23525  20.724  10.840  14.973
64265W        W23526   7.667  24.175   3.261
64266W        W23527  40.307  26.626  11.017
64267W        W23528  41.405  20.696  14.331
64268W        W23529  13.697  34.612  12.520
64269W        W23530   1.422  14.232   2.738
64270W        W23531  10.184   7.201   4.158
64271W        W23532  35.506  34.571   2.771
64272W        W23533  20.538  44.957  10.583
64273W        W23534  32.568  12.718  12.433
64274W        W23535  30.656  38.354  10.926
64275W        W23536  38.820  33.398  13.409
64276W        W23537  36.877  23.185  11.562
64277W        W23538  37.860  25.021   1.238
64278W        W23539   3.719   7.736  14.417
64279W        W23540  42.508  28.061   9.606
64280W        W23541  36.949  21.551  12.000
64281W        W23542  25.704   6.852  11.565
64282W        W23543   8.831  21.223  13.441
64283W        W23544  25.707  10.747  11.087
64284W        W23545  21.043  16.693  11.446
64285W        W23546  21.518  30.158  11.387
64286W        W23547  18.604   2.316  13.849
64287W        W23548  18.096   9.661   1.863
64288W        W23549  37.386  42.899  11.960
64289W        W23550  23.010  34.071  12.370
64290W        W23551  27.026  21.658  13.989
64291W        W23552  11.715   4.776   1.901
64292W        W23553   6.315  17.246   2.685
64293W        W23554   7.840   0.293   2.209
64294W        W23555  19.090  10.641  11.976
64295W        W23556   9.678  36.489   4.826
64296W        W23557  11.267  22.085  12.540
64297W        W23558  42.402  25.633  12.009
64298W        W23559   0.934  44.762  13.322
64299W        W23560  39.435  11.369  12.957
64300W        W23561  12.723  25.552  12.575
64301W        W23562  35.393  32.071   0.374
64302W        W23563  20.195  24.199  10.957
64303W        W23564  22.653   8.350  12.341
64304W        W23565  21.161  13.115  10.488
64305W        W23566  13.660  32.580  13.384
64306W        W23567  15.201  38.830  10.570
64307W        W23568  44.468  42.792  12.832
64308W        W23569  27.624  30.007  12.365
64309W        W23570  12.139  23.658  14.910
64310W        W23571  43.780  43.018   1.315
64311W        W23572  39.333   5.781   1.920
64312W        W23573   1.750  44.962   0.304
64313W        W23574   4.251  26.049   0.376
64314W        W23575  33.430   6.808   2.207
64315W        W23576   8.289  42.989   4.801
64316W        W23577  35.560  25.471   4.774
64317W        W23578  19.685  43.824   3.698
64318W        W23579  24.495   2.823   2.756
64319W        W23580  31.520   8.814  11.986
64320W        W23581   2.862   0.984  12.547
64321W        W23582   9.178  32.002   2.692
64322W        W23583  19.570  11.236   1.731
64323W        W23584  25.113  23.229   1.929
64324W        W23585  18.702   8.327  11.546
64325W        W23586  16.735  19.063   0.300
64326W        W23587  40.460  15.118  13.862
64327W        W23588  41.042  19.768  11.500
64328W        W23589   8.177  16.680   1.377
64329W        W23590   4.373  29.469   3.778
64330W        W23591  15.789  17.141  12.096
64331W        W23592  20.628  41.450  12.353
64332W        W23593  44.828  16.669  10.516
64333W        W23594   0.416  28.655   4.662
64334W        W23595  31.520  12.206  11.445
64335W        W23596  29.066   6.876  10.406
64336W        W23597  13.672   4.235  12.055
64337W        W23598  20.574  22.720  14.980
64338W        W23599  23.230  35.864  10.894
64339W        W23600   0.893  29.119   0.744
64340W        W23601  21.673  18.782  11.987
64341W        W23602  25.013  19.197  12.413
64342W        W23603  25.025   9.373   1.820
64343W        W23604   5.434   2.928  10.405
64344W        W23605  13.733  11.751  13.856
64345W        W23606  30.925  20.600   4.703
64346W        W23607  41.917   1.351   1.769
64347W        W23608  39.524  29.927   4.815
64348W        W23609  16.173  24.217   3.204
64349W        W23610   8.195   3.407  14.355
64350W        W23611   6.732   8.744   0.778
64351W        W23612   8.845  39.460  10.526
64352W        W23613  11.271  11.849  12.410
64353W        W23614   2.863  20.636  14.866
64354W        W23615  24.980  34.098  14.951
64355W        W23616  16.140   1.362   2.725
64356W        W23617  11.241   1.355  13.542
64357W        W23618   3.809   1.929   4.678
64358W        W23619  22.017  12.340  12.900
64359W        W23620  14.341  37.438   1.717
64360W        W23621   2.827   6.919  11.494
64361W        W23622   1.970  25.219   3.740
64362W        W23623   7.271  19.553  14.004
64363W        W23624  17.696  22.099  12.930
64364W        W23625   6.790  19.079   1.800
64365W        W23626  39.353   7.306   0.871
64366W        W23627  10.715  44.002   2.681
64367W        W23628  42.378   2.257  14.020
64368W        W23629  37.450  27.511   2.251
64369W        W23630   6.314   8.240  14.452
64370W        W23631  36.378   5.429  14.515
64371W        W23632  26.106  25.667  12.568
64372W        W23633   4.751  10.216   2.182
64373W        W23634  32.433  22.184  10.889
64374W        W23635  32.930  41.813  12.393
64375W        W23636  35.924  16.114   2.278
64376W        W23637  32.123  30.060   2.743
64377W        W23638  10.344  10.707  14.280
64378W        W23639  25.010  39.446  12.356
64379W        W23640  41.900  40.026   2.297
64380W        W23641  19.624  34.452   2.319
64381W        W23642  36.529  40.872  10.420
64382W        W23643  16.122  19.717   0.272
64383W        W23644  43.931  41.522  14.896
64384W        W23645  15.697  22.722   3.650
64385W        W23646  37.389  42.973   9.928
64386W        W23647  43.421  24.493  14.284
64387W        W23648  13.308  43.446  13.845
64388W        W23649  23.987  34.098   3.712
64389W        W23650  24.654  27.651  11.521
64390W        W23651  37.887  20.623   0.290
64391W        W23652  37.018  26.653  12.561
64392W        W23653  34.457   7.370  12.346
64393W        W23654  30.137  38.494  14.411
64394W        W23655  36.449  24.695   1.847
64395W        W23656  20.582  33.942  14.318
64396W        W23657  41.307  23.603  12.982
64397W        W23658  38.398  40.809   4.834
64398W        W23659  19.709   4.786   4.762
64399W        W23660  29.010  14.256   0.468
64400W        W23661  25.109  26.521   1.874
64401W        W23662   9.826  35.446  11.097
64402W        W23663  26.046   4.718  14.000
64403W        W23664  21.051  25.022  14.790
64404W        W23665  36.481  32.099  11.021
64405W        W23666   2.330  22.035  10.608
64406W        W23667   9.765  13.135   4.664
64407W        W23668  40.392  14.801  13.960
64408W        W23669   1.856  26.033   1.765
64409W        W23670  14.101  38.427   0.305
64410W        W23671   3.922  25.527   0.380
64411W        W23672  16.731  23.021  11.376
64412W        W23673  24.214  44.949  12.039
64413W        W23674  23.525  30.109  10.548
64414W        W23675  28.464  37.507  14.953
64415W        W23676  42.918  23.196  13.007
64416W        W23677  16.811  22.540   1.799
64417W        W23678  24.010   7.857  10.418
64418W        W23679  37.536  28.979   1.415
64419W        W23680  26.645   7.250   5.093
64420W        W23681  30.080  16.150   3.329
64421W        W23682  23.638  12.653   0.810
64422W        W23683   8.821   3.372   0.423
64423W        W23684  39.964   7.226   4.739
64424W        W23685  19.175  21.646  11.934
64425W        W23686  25.510  33.909  10.429
64426W        W23687  42.297  41.833  11.539
64427W        W23688  26.560  42.363  11.035
64428W        W23689  44.814  37.843  11.429
64429W        W23690  14.182  44.330   3.208
64430W        W23691  23.583  20.749  10.158
64431W        W23692   3.779  32.981  12.862
64432W        W23693   3.400  15.661   4.272
64433W        W23694   6.773  10.724  13.499
64434W        W23695  22.145  33.922  10.996
64435W        W23696   5.196  42.985  10.049
64436W        W23697   0.791  23.175  12.453
64437W        W23698  15.316   6.209  14.819
64438W        W23699   9.373   4.717   0.309
64439W        W23700   3.290  20.070  14.479
64440W        W23701  11.132  34.105   3.837
64441W        W23702  43.999  30.448  12.957
64442W        W23703  23.676  20.148  13.491
64443W        W23704   5.824  22.044   0.808
64444W        W23705  13.301  22.178  13.808
64445W        W23706  32.140  28.677   3.255
64446W        W23707  30.502  14.224   0.283
64447W        W23708  28.502   3.258  14.916
64448W        W23709   7.762  19.133   2.799
64449W        W23710  18.678  17.184   4.664
64450W        W23711  14.108   3.284   2.208
64451W        W23712   1.385  43.977  12.375
64452W        W23713  44.950  29.008  12.525
64453W        W23714  33.615  23.140   1.402
64454W        W23715  15.730   1.879  14.796
64455W        W23716  20.065  23.068   1.867
64456W        W23717  24.078  20.539  14.891
64457W        W23718  19.085  32.954  13.800
64458W        W23719  42.023  18.184   4.815
64459W        W23720   6.911   3.403   1.258
64460W        W23721  10.841  13.716   0.807
64461W        W23722  30.932  32.629  13.446
64462W        W23723  30.097  17.126   1.727
64463W        W23724  20.750  42.928  13.855
64464W        W23725   7.342   1.851  10.427
64465W        W23726  41.901  12.739  10.919
64466W        W23727  17.093  41.871   3.660
64467W        W23728  35.030   7.344   0.873
64468W        W23729   5.915   5.347  14.403
64469W        W23730  34.082  34.920  11.562
64470W        W23731  16.242   6.209   3.322
64471W        W23732  14.229  30.520  13.928
64472W        W23733   2.258  24.027   4.282
64473W        W23734  13.637  42.308   1.717
64474W        W23735  13.159  16.691  12.862
64475W        W23736  18.117  32.931  11.088
64476W        W23737   9.333  32.394  13.978
64477W        W23738  43.316   3.218   2.305
64478W        W23739  12.627  18.284  13.527
64479W        W23740  18.658  14.771   3.376
64480W        W23741  44.802  32.965   0.891
64481W        W23742  43.401  24.610  12.958
64482W        W23743   6.288   4.922  12.343
64483W        W23744  29.053  10.765   2.289
64484W        W23745  21.542  14.804  10.479
64485W        W23746   1.387  20.543  13.439
64486W        W23747  28.080  15.328   2.836
64487W        W23748  32.953  30.155  13.383
64488W        W23749  38.988  15.811  10.534
64489W        W23750   4.883  27.977  10.405
64490W        W23751  16.687  24.105   3.281
64491W        W23752  43.299   8.328   4.703
64492W        W23753   5.427  36.452  10.476
64493W        W23754  24.065  28.588  13.417
64494W        W23755   8.861  35.952  14.348
64495W        W23756  18.614  20.065  12.521
64496W        W23757  19.241  33.913   2.225
64497W        W23758  17.593  20.271  11.090
64498W        W23759  36.957  20.084  14.766
64499W        W23760  32.398  15.176  11.530
64500W        W23761  14.326  37.374   0.918
64501W        W23762  14.101  32.106  11.572
64502W        W23763  19.067  41.410   3.868
64503W        W23764   5.317  11.733  11.082
64504W        W23765  20.172  41.997  12.961
64505W        W23766  27.504   9.879  13.933
64506W        W23767   1.378  32.125   1.355
64507W        W23768  44.477  28.490  12.874
64508W        W23769   8.752  14.790   1.734
64509W        W23770  26.551  22.729  12.416
64510W        W23771  19.613  39.542   3.361
64511W        W23772  43.866  28.995  10.599
64512W        W23773  23.704   5.689  14.481
64513W        W23774  40.997  21.552  12.846
64514W        W23775  44.505  38.560  14.886
64515W        W23776  17.190  31.933  12.544
64516W        W23777  37.047  39.494   0.889
64517W        W23778   2.355  44.421   3.201
64518W        W23779  23.679  10.378   2.748
64519W        W23780  12.833  26.596   4.650
64520W        W23781  38.930  20.574   4.253
64521W        W23782  32.494  30.583   1.369
64522W        W23783  32.029   7.234   5.098
64523W        W23784  23.493  21.229  11.520
64524W        W23785  38.920  17.259   3.217
64525W        W23786   0.450  14.112  13.051
64526W        W23787  38.906  42.889  10.566
64527W        W23788   3.720  31.491  14.320
64528W        W23789  24.527  14.619   2.376
64529W        W23790  20.752  18.627  13.982
64530W        W23791  38.347  38.443   4.205
64531W        W23792  13.313  34.502   2.415
64532W        W23793  43.014  17.557  13.310
64533W        W23794  33.886  16.106  11.951
64534W        W23795  35.535  42.442   0.868
64535W        W23796   6.361  38.366  11.864
64536W        W23797   4.806  12.638   1.882
64537W        W23798  10.692  15.725  12.070
64538W        W23799  31.534  26.510   0.436
64539W        W23800  11.670  29.134  10.969
64540W        W23801  35.932  25.472  11.502
64541W        W23802  11.177  20.044  13.950
64542W        W23803   6.758  22.178   0.769
64543W        W23804  41.914   5.407   1.902
64544W        W23805  30.512  34.462  13.538
64545W        W23806   2.874  38.528   1.837
64546W        W23807  33.888  37.859  14.023
64547W        W23808  10.729   5.913   1.221
64548W        W23809  29.005  21.193  10.510
64549W        W23810  39.829  42.475  12.430
64550W        W23811  37.887   0.389   5.290
64551W        W23812   4.837  32.515  13.421
64552W        W23813  38.395  14.771   1.272
64553W        W23814  36.057   9.383   3.196
64554W        W23815  23.214   0.332   0.252
64555W        W23816  35.985   5.427  11.450
64556W        W23817  18.174  23.551   0.292
64557W        W23818  34.991  37.843   1.894
64558W        W23819   3.415  28.157   3.234
64559W        W23820   6.378  39.525   2.817
64560W        W23821  28.125  39.373  10.142
64561W        W23822  19.720  43.373   4.125
64562W        W23823  33.955  26.114   3.330
64563W        W23824  25.586  13.656  13.837
64564W        W23825  33.505  44.432   3.387
64565W        W23826  28.484  36.975   4.782
64566W        W23827  14.261  13.292   0.796
64567W        W23828  14.812  25.655   1.777
64568W        W23829   0.251   8.389  14.775
64569W        W23830   5.779  43.410  13.426
64570W        W23831  32.634   8.753  11.530
64571W        W23832  25.175   3.851  13.005
64572W        W23833  15.771   4.886   5.787
64573W        W23834  38.869  33.433   5.158
64574W        W23835  26.458  42.327  14.852
64575W        W23836  44.419  28.049   5.602
64576W        W23837  29.081  42.863   0.938
64577W        W23838  35.585  43.774   3.775
64578W        W23839  43.283  14.129  14.354
64579W        W23840  14.795  27.494  14.442
64580W        W23841   6.858  41.932  10.489
64581W        W23842  29.958  36.045   0.351
64582W        W23843  44.370  26.518   5.586
64583W        W23844  15.162  17.141   1.324
64584W        W23845  42.286   8.173   3.645
64585W        W23846  13.792  28.638   1.351
64586W        W23847  14.649  40.929   0.354
64587W        W23848  17.556  33.099  11.087
64588W        W23849  20.179  34.552  14.829
64589W        W23850  14.687   9.380   4.691
64590W        W23851  26.963   7.317  11.042
64591W        W23852   6.697   0.744  13.010
64592W        W23853   6.803  40.508   0.285
64593W        W23854   0.403  33.472  13.543
64594W        W23855  19.730  15.222   0.784
64595W        W23856  38.849  34.425  14.331
64596W        W23857  35.477  43.950   4.734
64597W        W23858  20.732  31.074  13.003
64598W        W23859  22.243   3.371   1.415
64599W        W23860   5.319  34.896  14.425
64600W        W23861  27.079  33.383   5.103
64601W        W23862   2.798  43.368  12.842
64602W        W23863  24.583  25.571  10.555
64603W        W23864  31.976  42.474   0.318
64604W        W23865  36.427   2.780  14.514
64605W        W23866   2.731  43.008  13.817
64606W        W23867  26.662  41.804   3.823
64607W        W23868  12.708  30.505   0.306
64608W        W23869  14.632  18.204   5.120
64609W        W23870  30.044   8.165   1.927
64610W        W23871   9.646   2.950  12.829
64611W        W23872  44.369  30.635  12.491
64612W        W23873  36.484  17.747  12.445
64613W        W23874  20.138  44.305   0.775
64614W        W23875   0.877  23.612   4.209
64615W        W23876  34.112  29.620  11.118
64616W        W23877  24.041  42.906  14.840
64617W        W23878  37.379  33.071  10.484
64618W        W23879  20.095  11.700  10.414
64619W        W23880  28.665  13.705  12.408
64620W        W23881  34.610  15.277  11.905
64621W        W23882  25.481  36.092   3.310
64622W        W23883  43.990   8.867   4.682
64623W        W23884  34.395   6.687  13.373
64624W        W23885  23.086  41.327  12.403
64625W        W23886   6.226  30.507  12.893
64626W        W23887  14.289  36.565  12.422
64627W        W23888  17.744  25.556  14.795
64628W        W23889  22.625  44.419   4.343
64629W        W23890   2.807  19.210  14.018
64630W        W23891  31.069  12.751   2.882
64631W        W23892  28.439  37.490   2.761
64632W        W23893  26.043  20.662  11.430
64633W        W23894  36.355   9.157   2.204
64634W        W23895  24.693  35.939  14.507
64635W        W23896  39.506  23.109   3.284
64636W        W23897  26.183   5.733   9.484
64637W        W23898   4.701  16.715   0.890
64638W        W23899  27.467  26.610  10.971
64639W        W23900   7.796  19.634   0.252
64640W        W23901  20.237  23.182   0.420
64641W        W23902  23.731  31.616  13.381
64642W        W23903  31.070  11.859  11.087
64643W        W23904  29.563  44.981  14.890
64644W        W23905  40.436  10.871   0.925
64645W        W23906  39.005  23.233  13.490
64646W        W23907  19.133   0.968   2.833
64647W        W23908   1.443  35.592   3.831
64648W        W23909   0.818  21.664  14.400
64649W        W23910  17.102   2.768  11.056
64650W        W23911   9.839  12.782  12.555
64651W        W23912  34.019  27.967   3.769
64652W        W23913   4.248  34.545   1.412
64653W        W23914  17.724  18.250  11.525
64654W        W23915  33.565  24.013  14.913
64655W        W23916   4.777   5.778  11.542
64656W        W23917  10.756  36.977   3.759
64657W        W23918  30.573  30.116   2.340
64658W        W23919  32.523   5.906  10.530
64659W        W23920  41.493  12.291  11.463
64660W        W23921  17.245  35.421   1.924
64661W        W23922  28.062  16.611   1.863
64662W        W23923  11.198  10.193   2.857
64663W        W23924  36.986   6.199  11.105
64664W        W23925  10.696  21.215  13.965
64665W        W23926   8.887  43.851  13.799
64666W        W23927  22.547  31.455   2.881
64667W        W23928  26.497  29.527  13.904
64668W        W23929  28.570  35.591   3.806
64669W        W23930  30.054  36.862  10.916
64670W        W23931  27.069  26.961   4.774
64671W        W23932  20.049  39.327  13.473
64672W        W23933  10.790   0.252   4.239
64673W        W23934  37.945  28.968   4.234
64674W        W23935  20.631  41.337  11.997
64675W        W23936  10.729   0.345   2.235
64676W        W23937  16.678   1.766  13.032
64677W        W23938  41.431  23.538  13.856
64678W        W23939  35.378  25.093  10.516
64679W        W23940  16.645  29.949   5.085
64680W        W23941  19.230  15.626   1.301
64681W        W23942   7.288  20.094   2.876
64682W        W23943  17.223  41.925   4.761
64683W        W23944  37.399  39.419  10.949
64684W        W23945  23.075  12.649   1.371
64685W        W23946  14.751   4.715   0.358
64686W        W23947  26.702  27.599   4.685
64687W        W23948  18.228  25.109  14.769
64688W        W23949   8.300  38.863  10.523
64689W        W23950  32.514  22.636  10.404
64690W        W23951  30.146  36.987   2.384
64691W        W23952  42.499   7.742   1.228
64692W        W23953  16.642  14.773   0.284
64693W        W23954  27.506  12.267  14.507
64694W        W23955  26.128  16.258  14.837
64695W        W23956  18.210  28.678  13.352
64696W        W23957  37.834  21.607  12.425
64697W        W23958  37.883  21.070  11.448
64698W        W23959  27.957   6.748   2.342
64699W        W23960  28.537  38.995   3.692
64700W        W23961  42.401  12.355  11.388
64701W        W23962  23.730  13.176  14.880
64702W        W23963  27.543  34.537  11.486
64703W        W23964  27.493  30.118  14.321
64704W        W23965  16.196  23.084   2.208
64705W        W23966  11.280  27.003  14.485
64706W        W23967  32.099  21.558  12.462
64707W        W23968  35.904  15.651   2.685
64708W        W23969  27.562   6.702   0.888
64709W        W23970  31.917  32.551   4.729
64710W        W23971  26.520  32.078  11.440
64711W        W23972  29.432  15.153  14.935
64712W        W23973  41.359  14.296   5.130
64713W        W23974  39.426   5.741  14.015
64714W        W23975  26.033  31.934   4.616
64715W        W23976  25.542  19.667   2.409
64716W        W23977  13.632   4.813  10.558
64717W        W23978   4.745   1.824   2.888
64718W        W23979  10.763  19.228   0.384
64719W        W23980  34.503  33.605  12.045
64720W        W23981   6.894  33.453  14.345
64721W        W23982  18.237   9.861   3.186
64722W        W23983  22.139  16.173   0.353
64723W        W23984  31.926  41.297  11.918
64724W        W23985  35.363  42.786   3.365
64725W        W23986  15.613  18.617  13.840
64726W        W23987  42.814   1.935  14.370
64727W        W23988  17.674  38.970  12.033
64728W        W23989  34.082  32.604  13.932
64729W        W23990  38.504  43.814  10.420
64730W        W23991  43.831  32.428  10.485
64731W        W23992  17.250  34.899  14.964
64732W        W23993   6.853  30.473  13.871
64733W        W23994  16.085   9.313   3.173
64734W        W23995   0.795  28.061  12.358
64735W        W23996   8.751  38.489  13.022
64736W        W23997  18.086  35.516  14.507
64737W        W23998  10.176  27.948   1.729
64738W        W23999  29.977  42.923   0.330
64739W        W24000  15.217  30.478  13.445
64740W        W24001  39.984  23.678   1.353
64741W        W24002  44.930  39.330  11.936
64742W        W24003  12.279  15.194   3.257
64743W        W24004  13.648   7.360  11.996
64744W        W24005  31.074   8.698  14.993
64745W        W24006  16.689   0.901  11.877
64746W        W24007  35.406  27.484   0.293
64747W        W24008   4.945  12.299  14.764
64748W        W24009  42.382   5.924   4.204
64749W        W24010  19.646  41.460  12.503
64750W        W24011   5.764   9.272  11.014
64751W        W24012  14.103  38.012   4.739
64752W        W24013  28.059  39.557  13.994
64753W        W24014   7.789  10.851  12.477
64754W        W24015   5.304   8.178   3.285
64755W        W24016   4.275  37.874   1.447
64756W        W24017  35.994  44.941  12.571
64757W        W24018   5.302  41.897  13.458
64758W        W24019  26.602  26.057  14.298
64759W        W24020  34.499  24.071  12.467
64760W        W24021  29.985  39.529   3.722
64761W        W24022  40.898  22.075  14.507
64762W        W24023  44.799  15.318   1.401
64763W        W24024  18.239  38.491   1.700
64764W        W24025  18.612  20.134  14.280
64765W        W24026  40.363   7.308  10.101
64766W        W24027  38.403  42.911  14.424
64767W        W24028  44.411   8.709  12.461
64768W        W24029  41.851  38.073   1.400
64769W        W24030  23.177  41.389  13.978
64770W        W24031  29.432   8.792  13.446
64771W        W24032  30.644   1.251  11.883
64772W        W24033   7.797  22.545   3.648
64773W        W24034  34.984  37.934  11.928
64774W        W24035  34.462   8.693  14.446
64775W        W24036  29.999  29.015  10.557
64776W        W24037  39.543  36.981  11.408
64777W        W24038   4.910  19.238   4.241
64778W        W24039  42.820  34.546   1.851
64779W        W24040  25.075  39.442   1.848
64780W        W24041   5.362   0.934  13.524
64781W        W24042  25.197  44.928  12.972
64782W        W24043   3.287  41.792  10.483
64783W        W24044   5.795  36.938  11.525
64784W        W24045  42.795  31.982   4.277
64785W        W24046  20.039  17.081  10.081
64786W        W24047  40.493  19.718  13.343
64787W        W24048  23.647   8.381  11.124
64788W        W24049  21.699  37.502   2.284
64789W        W24050   1.292  15.711   1.845
64790W        W24051   5.401  14.809   1.294
64791W        W24052  26.158  18.055   4.205
64792W        W24053   6.696  17.707  11.548
64793W        W24054  34.992   0.903   0.278
64794W        W24055  43.431  24.102   3.174
64795W        W24056  30.626   2.746   2.813
64796W        W24057  17.148  37.085  14.031
64797W        W24058  10.839   6.718  12.497
64798W        W24059   9.150  39.408  14.903
64799W        W24060   3.305  40.862  12.355
64800W        W24061  14.711  10.171   3.802
64801W        W24062  14.753  36.937   3.218
64802W        W24063  25.158   7.186  12.543
64803W        W24064   8.398  41.956   4.667
64804W        W24065  18.646  36.945   2.303
64805W        W24066  41.042  31.458   0.382
64806W        W24067  23.683   4.272  10.080
64807W        W24068   6.838  31.453  11.083
64808W        W24069  13.251  26.030  12.834
64809W        W24070  27.513  14.721   4.177
64810W        W24071  12.740  31.461   0.903
64811W        W24072  12.331  27.498  10.489
64812W        W24073  34.554   3.367  11.906
64813W        W24074  20.108  25.209  13.388
64814W        W24075   5.224  40.487   3.154
64815W        W24076  39.532  40.878  10.456
64816W        W24077  29.440  11.652   2.739
64817W        W24078  13.692   3.359  11.861
64818W        W24079  15.234  11.265  12.348
64819W        W24080   4.340  18.194   3.847
64820W        W24081  31.442  23.542   2.236
64821W        W24082  30.912  30.543   2.742
64822W        W24083  38.412  23.013  13.335
64823W        W24084  34.867  31.121   1.220
64824W        W24085  17.686  36.032  10.889
64825W        W24086  34.964   5.827   3.831
64826W        W24087  10.185  29.119  14.868
64827W        W24088  18.686  41.306   2.349
64828W        W24089  36.481  14.747  12.045
64829W        W24090   1.428  18.167   3.743
64830W        W24091  19.284   4.447  13.471
64831W        W24092  33.905  39.998  13.051
64832W        W24093  27.962  21.238   5.111
64833W        W24094   4.275  22.683  14.764
64834W        W24095   6.796  28.494  14.818
64835W        W24096   0.872   9.793  10.416
64836W        W24097  21.557  30.565  10.469
64837W        W24098   1.468  39.369  13.942
64838W        W24099  18.721  31.968  10.466
64839W        W24100   8.260  39.896  13.393
64840W        W24101  18.054  23.716  13.512
64841W        W24102  39.502  43.318  10.932
64842W        W24103  18.684  28.165  12.438
64843W        W24104  41.817  38.982   1.257
64844W        W24105  34.585  41.366   3.323
64845W        W24106  33.927  39.007   2.751
64846W        W24107  28.620   5.350   0.784
64847W        W24108  13.615  13.288  11.993
64848W        W24109  18.677   2.330   4.826
64849W        W24110  42.396  33.555  13.839
64850W        W24111  17.146  10.349   4.288
64851W        W24112  18.707  14.815  14.448
64852W        W24113  28.535   2.409   1.222
64853W        W24114  28.042  42.822  10.423
64854W        W24115  18.752  13.152  13.031
64855W        W24116  24.679  28.495  13.489
64856W        W24117   6.190  26.147  14.917
64857W        W24118  36.578   3.851  11.445
64858W        W24119  26.085   4.433   1.869
64859W        W24120  31.406   7.338  12.074
64860W        W24121  38.837  21.142   4.330
64861W        W24122  34.419  14.642  13.384
64862W        W24123  35.386  35.513  14.400
64863W        W24124  23.711  15.306   2.713
64864W        W24125  31.559  34.392   3.835
64865W        W24126  23.130   4.300  10.573
64866W        W24127  15.801  22.216  10.963
64867W        W24128  26.105  37.431   0.412
64868W        W24129  42.491  17.776  14.942
64869W        W24130  35.576  18.174  12.446
64870W        W24131  41.929  15.641   2.228
64871W        W24132   7.331  36.369  14.316
64872W        W24133  18.608  26.686  12.075
64873W        W24134  27.195   6.373  13.977
64874W        W24135  35.962  25.071   3.178
64875W        W24136  44.939  24.576  11.399
64876W        W24137  25.668  18.200   3.324
64877W        W24138  42.885  12.156  12.045
64878W        W24139  38.482  35.469  10.114
64879W        W24140   7.379  11.158  14.810
64880W        W24141  28.010  34.015   2.716
64881W        W24142  13.723  10.829  11.472
64882W        W24143   9.307  25.649   0.481
64883W        W24144  24.046  26.182  13.319
64884W        W24145  10.261   0.273   4.824
64885W        W24146   6.733  11.838  11.120
64886W        W24147  24.508   9.849  14.510
64887W        W24148  18.267  13.144   1.775
64888W        W24149  39.504  16.794   4.169
64889W        W24150  31.042   3.860   0.888
64890W        W24151  39.557   1.933  10.528
64891W        W24152  33.926  36.397  10.890
64892W        W24153   3.954  20.735  14.019
64893W        W24154   2.384  13.165  14.776
64894W        W24155  44.465  40.362   5.319
64895W        W24156  21.534  29.050   4.728
64896W        W24157  11.160  18.660  11.607
64897W        W24158  43.997  38.453   3.245
64898W        W24159  22.662  16.720   1.271
64899W        W24160  17.225  43.483  11.379
64900W        W24161  25.078  23.717  13.437
64901W        W24162   8.767  24.669   1.832
64902W        W24163  13.323  43.343   1.268
64903W        W24164  13.657  39.997   4.693
64904W        W24165  31.469   9.737  13.497
64905W        W24166  34.024  13.732  12.509
64906W        W24167  19.661  21.104   3.277
64907W        W24168  19.195  41.993   0.421
64908W        W24169  16.574  40.973   4.182
64909W        W24170   6.718   0.850   2.284
64910W        W24171  14.680  38.437   0.748
64911W        W24172  22.643   1.744   4.165
64912W        W24173  42.342  14.757   1.446
64913W        W24174  41.925   2.761  10.622
64914W        W24175  12.173  33.578  10.440
64915W        W24176  31.625  44.398  14.345
64916W        W24177  31.569  27.481  13.486
64917W        W24178  31.426  22.148   0.281
64918W        W24179  34.461  44.783   2.276
64919W        W24180  13.836  35.042  11.570
64920W        W24181  32.954  40.329   1.295
64921W        W24182  21.511  35.009   4.237
64922W        W24183  17.594  14.211   0.820
64923W        W24184  38.449   2.231  14.275
64924W        W24185  21.733  16.592  11.409
64925W        W24186  43.453  13.603   2.392
64926W        W24187  32.424  12.813   3.685
64927W        W24188  13.242   9.683  13.955
64928W        W24189  33.470   9.394  14.021
64929W        W24190  26.994  31.521   2.881
64930W        W24191   9.161  15.136  10.959
64931W        W24192  39.968  19.063   1.723
64932W        W24193  35.911   3.278  11.109
64933W        W24194  44.983  41.449  10.612
64934W        W24195  41.327  35.052  11.857
64935W        W24196  31.451  20.141  12.931
64936W        W24197  22.020  35.025  10.534
64937W        W24198   3.349  21.535  13.991
64938W        W24199   4.443  31.552   3.685
64939W        W24200  18.103  22.061   3.305
64940W        W24201  37.360  29.645   4.731
64941W        W24202  12.255  41.368  14.847
64942W        W24203  34.389  17.127   3.169
64943W        W24204  27.074  15.631   2.312
64944W        W24205  34.104  19.622  13.318
64945W        W24206   2.804  40.820   0.336
64946W        W24207  27.119  29.624  12.465
64947W        W24208  41.307   9.679   1.226
64948W        W24209   4.781  16.641  10.594
64949W        W24210  23.047  32.412   2.288
64950W        W24211  12.296  37.858  13.337
64951W        W24212   8.694  41.883  13.877
64952W        W24213  37.947  27.145  14.830
64953W        W24214  32.570  11.675  14.360
64954W        W24215   7.673  37.342  13.987
64955W        W24216  34.559  13.666  14.855
64956W        W24217  10.685  24.605   3.338
64957W        W24218  29.500   6.808   0.840
64958W        W24219   6.848   9.296  11.950
64959W        W24220   6.899  36.513   3.836
64960W        W24221  37.552  31.902   5.202
64961W        W24222  25.627  22.236  10.944
64962W        W24223   5.756   9.291   1.238
64963W        W24224  38.460   1.919   2.243
64964W        W24225   5.213  30.075   0.730
64965W        W24226  15.226   9.746   2.251
64966W        W24227  27.010   2.912   4.639
64967W        W24228  27.181   1.276   2.883
64968W        W24229  36.082  25.109  13.319
64969W        W24230  12.615  22.011  14.788
64970W        W24231  13.235   0.748   1.320
64971W        W24232  35.039  29.582   0.390
64972W        W24233  40.465  18.068   3.241
64973W        W24234  40.970  36.561  14.419
64974W        W24235   4.745  44.298  10.521
64975W        W24236  23.507  40.817   4.775
64976W        W24237  13.129  20.680   4.607
64977W        W24238  22.524  15.106   0.767
64978W        W24239  34.921   2.269  11.448
64979W        W24240   7.237  31.619  11.465
64980W        W24241   5.870  37.876   3.680
64981W        W24242   2.942  36.052   2.811
64982W        W24243  13.167  41.965   1.913
64983W        W24244   4.798   2.455   1.334
64984W        W24245  12.831  17.769   2.296
64985W        W24246   0.745  10.154   4.188
64986W        W24247  27.520  30.945  14.023
64987W        W24248  15.699   1.861   2.338
64988W        W24249  14.138  13.770  11.032
64989W        W24250  23.218  28.115   1.799
64990W        W24251  41.332  20.682   4.696
64991W        W24252  41.301   4.711   0.933
64992W        W24253  10.366  31.002   2.294
64993W        W24254   9.881   5.235  12.040
64994W        W24255  11.249   1.779  12.484
64995W        W24256  22.157  39.919   1.893
64996W        W24257  38.556  10.818   2.259
64997W        W24258  11.850  41.388  13.017
64998W        W24259  37.423  21.034  12.916
64999W        W24260   4.216   6.826   3.706
65000W        W24261  14.290  10.750   2.399
65001W        W24262  39.052  31.492  14.877
65002W        W24263  17.567  12.772  12.486
65003W        W24264  25.087   1.892  13.934
65004W        W24265  34.614  38.893  11.872
65005W        W24266   3.245  18.246   0.481
65006W        W24267  37.845   8.742  13.976
65007W        W24268  44.775  30.996   0.916
65008W        W24269   0.252   2.741  11.568
65009W        W24270  29.501  40.535   4.681
65010W        W24271  13.745  31.620   0.836
65011W        W24272  32.594  22.637   0.785
65012W        W24273   5.811   4.924  14.883
65013W        W24274  10.843  11.358   0.730
65014W        W24275  31.994  10.330   0.938
65015W        W24276  35.053  13.745   3.154
65016W        W24277  42.921  37.976   1.330
65017W        W24278   8.239  25.609  14.030
65018W        W24279  41.978  12.360   4.129
65019W        W24280  17.241   9.694  14.414
65020W        W24281   4.304  19.714  13.032
65021W        W24282  26.065  29.955  14.496
65022W        W24283  12.728  41.465  13.519
65023W        W24284   0.778  42.947   0.378
65024W        W24285  32.019  14.676  12.859
65025W        W24286  13.165  12.329   0.758
65026W        W24287   5.821  34.563   3.808
65027W        W24288   8.350  34.902   1.772
65028W        W24289  41.913  41.376  14.787
65029W        W24290  19.587  22.740   4.255
65030W        W24291  31.130  43.847  11.874
65031W        W24292  19.755   2.783   0.421
65032W        W24293  14.818  15.763  10.509
65033W        W24294  38.015  12.735  10.039
65034W        W24295  35.402   7.868  14.797
65035W        W24296  34.464  25.515   1.831
65036W        W24297  23.114  11.703  12.983
65037W        W24298  15.156   6.844   1.348
65038W        W24299  19.664  19.646   2.736
65039W        W24300  19.095  32.921   3.709
65040W        W24301  18.079  29.132   1.372
65041W        W24302  21.699  12.701   3.192
65042W        W24303   3.316  22.522  14.384
65043W        W24304   1.960   7.739  13.805
65044W        W24305   1.964  42.931  13.480
65045W        W24306  29.648   6.345  10.928
65046W        W24307  12.264  42.425   0.259
65047W        W24308  13.138  17.189   4.631
65048W        W24309  26.963   2.450   9.651
65049W        W24310  10.698  13.338  13.390
65050W        W24311  15.141  19.206  13.016
65051W        W24312  37.548  39.419  11.511
65052W        W24313  21.582  33.983  14.387
65053W        W24314  29.065   0.467  12.011
65054W        W24315  26.473  28.465  14.365
65055W        W24316  16.139  29.963   2.752
65056W        W24317  32.568  30.474  14.328
65057W        W24318  10.698   7.415  11.931
65058W        W24319  19.283   4.227  14.840
65059W        W24320  33.947   1.947   5.107
65060W        W24321  26.107   1.447  12.933
65061W        W24322  20.114   3.869   4.615
65062W        W24323  34.971  36.059  12.518
65063W        W24324  18.238  30.043   1.258
65064W        W24325  22.721  40.512   2.804
65065W        W24326  37.419  31.638  10.450
65066W        W24327  44.464  39.839   2.690
65067W        W24328  33.544  10.263   1.697
65068W        W24329  39.044  19.748  13.820
65069W        W24330  23.631  15.706   2.343
65070W        W24331  36.444  10.151   4.686
65071W        W24332  17.216  34.519   2.189
65072W        W24333  23.604  40.367   0.459
65073W        W24334  28.992   8.405   1.861
65074W        W24335  32.438  40.801  10.468
65075W        W24336  26.000  25.019  11.096
65076W        W24337  19.177  22.154   1.871
65077W        W24338  28.593   7.330  11.438
65078W        W24339  16.800  13.790  13.364
65079W        W24340  29.076   1.461  11.964
65080W        W24341  33.017  16.078  11.004
65081W        W24342   1.926  28.568   2.870
65082W        W24343  16.112  19.548  12.498
65083W        W24344  11.801   2.362  10.642
65084W        W24345   3.848  14.154  12.086
65085W        W24346  21.523  10.212  13.874
65086W        W24347  17.117  21.061  13.018
65087W        W24348  42.826  13.817  12.994
65088W        W24349  32.427   0.388  10.645
65089W        W24350  33.051  17.568   2.215
65090W        W24351  21.197  38.496   4.299
65091W        W24352  16.144  22.101   0.280
65092W        W24353  21.658   1.260  12.989
65093W        W24354  35.360  14.331  11.467
65094W        W24355   8.705  35.019  11.113
65095W        W24356  28.150  41.976  14.883
65096W        W24357   3.377   9.851   0.453
65097W        W24358  11.718  11.235  11.447
65098W        W24359   5.755  40.939   0.464
65099W        W24360   1.299   6.867   4.753
65100W        W24361  29.483  36.510  12.848
65101W        W24362  33.480  43.807   3.737
65102W        W24363   3.232  13.174  12.032
65103W        W24364  44.881   8.371  11.889
65104W        W24365   3.448  19.768  12.999
65105W        W24366   0.477  10.802   2.689
65106W        W24367  14.753  24.625   3.205
65107W        W24368  31.411  19.573   2.359
65108W        W24369   1.332  25.703  10.920
65109W        W24370  28.535   6.369   1.765
65110W        W24371   0.846  10.838   3.282
65111W        W24372  16.722  44.835  12.824
65112W        W24373  12.182   5.413   3.784
65113W        W24374  28.439   3.283   4.727
65114W        W24375  38.487   4.847   1.725
65115W        W24376  41.993  42.499  11.582
65116W        W24377  11.639  30.969   0.835
65117W        W24378   2.389  13.652  14.845
65118W        W24379  13.328  36.469   3.643
65119W        W24380  14.303  20.649  14.802
65120W        W24381  25.992   1.824   2.349
65121W        W24382  43.289  25.517  14.838
65122W        W24383   0.303  31.039  13.860
65123W        W24384   5.431   6.234   3.754
65124W        W24385  10.850   5.880  13.437
65125W        W24386  31.999   6.252  13.017
65126W        W24387  44.473  31.548  13.044
65127W        W24388  40.469  34.987   2.782
65128W        W24389   9.216  12.837  14.514
65129W        W24390  19.629  39.337  11.558
65130W        W24391  23.715  29.573  10.435
65131W        W24392  32.525   0.303  13.329
65132W        W24393  20.645   9.646  11.564
65133W        W24394  23.701  16.765   0.892
65134W        W24395  43.331   6.181  10.899
65135W        W24396  31.451   0.486   3.157
65136W        W24397   7.264  19.084  11.457
65137W        W24398  42.395  39.849   0.339
65138W        W24399   2.744  19.247  11.109
65139W        W24400   1.348   0.351   0.413
65140W        W24401   2.378  14.281  14.775
65141W        W24402   5.365  36.543  14.993
65142W        W24403  14.183   9.881  11.988
65143W        W24404  32.594  34.443  14.489
65144W        W24405  41.868  13.199   3.240
65145W        W24406   9.318  26.974   3.259
65146W        W24407   5.351   1.892  13.826
65147W        W24408  32.945  20.540   1.769
65148W        W24409  15.278  37.052  14.495
65149W        W24410  28.027  40.353  12.965
65150W        W24411   1.852  25.020  10.958
65151W        W24412   6.733  20.584  12.855
65152W        W24413  37.881  38.931  13.949
65153W        W24414  20.209  18.090  11.958
65154W        W24415  40.962  34.517   4.283
65155W        W24416  37.509  35.952  14.340
65156W        W24417   2.832  34.986   0.816
65157W        W24418  31.130  18.236  12.074
65158W        W24419  44.961  12.317   4.813
65159W        W24420  18.560  32.919  12.358
65160W        W24421  10.264   1.263   4.689
65161W        W24422  15.233   3.917   3.720
65162W        W24423  11.687  43.887  12.482
65163W        W24424  10.358  27.951  10.596
65164W        W24425  12.737  12.359   1.881
65165W        W24426  25.121  14.773   3.649
65166W        W24427   0.788   3.384   2.190
65167W        W24428  10.178   7.896  13.985
65168W        W24429   5.815  12.346   0.728
65169W        W24430   8.700  25.014   2.405
65170W        W24431  17.145  32.578  12.401
65171W        W24432   4.769  32.073  13.377
65172W        W24433  16.251  12.274  14.494
65173W        W24434  23.985  10.335   3.643
65174W        W24435  35.602   6.228  11.858
65175W        W24436  15.101  17.571  12.070
65176W        W24437  27.660  16.782   1.891
65177W        W24438  16.221  43.006  10.511
65178W        W24439  19.653  13.643  11.964
65179W        W24440  36.909   9.748   0.745
65180W        W24441  34.863   2.847   3.154
65181W        W24442   2.915   6.368  10.942
65182W        W24443  30.542  11.765   2.237
65183W        W24444  40.437   3.750  14.030
65184W        W24445  34.010  35.916   3.834
65185W        W24446   0.849  41.457   0.840
65186W        W24447   0.835  32.544  12.030
65187W        W24448  21.042  21.250   3.246
65188W        W24449  38.334  42.325   3.231
65189W        W24450   0.878  21.638   3.713
65190W        W24451  38.939   3.270   1.353
65191W        W24452  42.283  24.036   1.322
65192W        W24453  11.134  30.087  10.622
65193W        W24454   8.396  44.305  12.445
65194W        W24455   1.267  15.749   4.121
65195W        W24456  22.025  35.504  11.001
65196W        W24457   1.917  26.501   2.182
65197W        W24458  40.481  27.477   4.684
65198W        W24459  10.169   8.396   2.274
65199W        W24460  30.462   3.857  10.589
65200W        W24461  33.991  12.757  10.609
65201W        W24462  30.455  38.949  13.368
65202W        W24463  14.824   0.415  11.088
65203W        W24464   8.168  21.083  13.332
65204W        W24465  27.115  10.178   3.261
65205W        W24466  20.618  17.290  13.909
65206W        W24467  23.032  15.318   1.228
65207W        W24468   1.258  28.516   2.804
65208W        W24469  26.126  25.468   3.360
65209W        W24470  29.918   4.443   3.244
65210W        W24471  19.551  29.462  11.001
65211W        W24472  41.537   1.751   0.250
65212W        W24473  26.006   6.308   4.336
65213W        W24474  43.306   2.319  11.913
65214W        W24475  33.581   6.191  11.387
65215W        W24476  25.057   5.697   1.293
65216W        W24477  17.087  11.814  14.995
65217W        W24478  37.478  25.125  12.491
65218W        W24479  37.966  37.451   5.163
65219W        W24480   2.918  22.718  12.499
65220W        W24481  10.187   7.804   4.819
65221W        W24482  10.799   0.344  11.555
65222W        W24483  36.455   0.790  14.901
65223W        W24484  33.503  29.526   3.231
65224W        W24485   4.810  35.525  11.606
65225W        W24486  16.606  15.314   0.902
65226W        W24487  16.150  19.222  11.410
65227W        W24488  15.642  11.675   0.793
65228W        W24489   0.418  40.811  13.397
65229W        W24490   0.461  31.598   1.219
65230W        W24491  16.186  16.119  10.502
65231W        W24492   8.786  23.671   4.219
65232W        W24493  12.813  21.661  10.913
65233W        W24494   3.916  32.110   0.378
65234W        W24495  31.950  21.617  10.497
65235W        W24496  42.314   8.804   4.735
65236W        W24497   1.965   7.797   1.904
65237W        W24498   7.794  29.599  11.053
65238W        W24499  29.549  37.987   0.777
65239W        W24500  35.061  36.098   1.923
65240W        W24501  32.904   5.898  12.348
65241W        W24502   5.285  29.513  12.004
65242W        W24503  25.677  10.688   0.294
65243W        W24504   8.863   5.917   1.341
65244W        W24505   8.751  31.038   2.837
65245W        W24506  33.476  15.689  13.503
65246W        W24507  29.469  30.965  14.937
65247W        W24508   5.792  36.978   1.751
65248W        W24509  10.637  41.525   3.654
65249W        W24510  33.540  34.962   2.391
65250W        W24511  11.212  33.022   2.356
65251W        W24512  16.615  39.038   3.842
65252W        W24513  44.372  39.053   1.272
65253W        W24514  40.842  28.184  11.977
65254W        W24515   8.373  31.626  11.094
65255W        W24516  30.989  21.635  11.925
65256W        W24517  17.120  16.783  12.000
65257W        W24518  32.556  25.634   1.801
65258W        W24519  21.636  14.830  13.371
65259W        W24520   0.916  21.254   1.397
65260W        W24521  20.132  33.392  11.376
65261W        W24522  26.459  20.139   3.204
65262W        W24523   5.344  23.029  13.800
65263W        W24524   2.392   9.381   0.438
65264W        W24525  10.343   1.323  12.057
65265W        W24526  22.218  44.479  14.768
65266W        W24527  22.577  39.535  10.591
65267W        W24528  21.724  20.271   1.315
65268W        W24529  40.313  40.864  11.076
65269W        W24530   8.293  15.119  11.380
65270W        W24531  19.763  20.161  10.410
65271W        W24532  24.670   5.849   2.786
65272W        W24533  41.968  27.182   0.466
65273W        W24534   0.349  15.180  10.939
65274W        W24535  33.460  17.188  11.100
65275W        W24536  41.028  37.919  11.874
65276W        W24537   2.305  33.625   0.959
65277W        W24538  26.064   5.763  13.811
65278W        W24539   0.466  20.120  11.554
65279W        W24540   0.856  24.537   1.831
65280W        W24541  25.652  43.908  11.482
65281W        W24542  38.069  30.603   2.195
65282W        W24543   6.378  24.676   4.737
65283W        W24544  24.142  24.150  10.152
65284W        W24545   6.377  27.967  12.976
65285W        W24546   9.705  22.634   0.262
65286W        W24547  36.954  36.979  13.325
65287W        W24548  20.620   2.402   4.618
65288W        W24549  41.918  28.958  13.939
65289W        W24550   7.803  34.917   3.271
65290W        W24551  12.616  25.019  12.095
65291W        W24552  36.445  40.309   2.856
65292W        W24553  27.007  13.320  12.875
65293W        W24554  36.507  38.410   2.299
65294W        W24555  35.099  40.807   4.285
65295W        W24556  24.724  34.523   3.304
65296W        W24557  17.692  23.170   0.288
65297W        W24558  12.799   3.315  12.426
65298W        W24559  13.708  27.081  13.026
65299W        W24560  26.475  26.665   2.825
65300W        W24561  14.172  35.000   4.286
65301W        W24562  31.951  43.951  11.022
65302W        W24563  37.351  18.112   0.378
65303W        W24564  27.095  25.074   1.269
65304W        W24565  23.234   2.921  12.531
65305W        W24566  10.169  37.901   3.830
65306W        W24567   8.697  34.957  14.371
65307W        W24568   4.266  12.737   2.682
65308W        W24569  18.162  35.549  13.397
65309W        W24570  27.615   7.812  10.945
65310W        W24571  33.094   7.350   4.601
65311W        W24572  33.932  43.401   2.681
65312W        W24573  37.918   2.323  11.607
65313W        W24574  35.930  14.332  12.446
65314W        W24575  44.400  19.731  14.791
65315W        W24576  30.612   1.840  10.624
65316W        W24577  38.408  17.733   3.668
65317W        W24578   0.392  44.381  11.108
65318W        W24579  22.699  38.349  12.527
65319W        W24580   9.684   3.319  10.614
65320W        W24581  44.825  17.097  11.020
65321W        W24582  37.337   2.932   4.332
65322W        W24583  23.531   8.824   1.834
65323W        W24584   0.906  22.118   1.276
65324W        W24585  16.743  44.934   4.663
65325W        W24586   5.396   4.708  13.836
65326W        W24587  28.621  10.874   1.846
65327W        W24588  25.208  14.253  10.628
65328W        W24589  33.567  41.403   2.727
65329W        W24590  26.161  29.660   3.195
65330W        W24591  35.395   3.840  10.485
65331W        W24592  36.920  10.381   4.210
65332W        W24593   7.414   3.733  12.540
65333W        W24594  14.100   2.941   3.823
65334W        W24595  25.070  42.354   3.861
65335W        W24596  36.384  33.013  14.390
65336W        W24597  18.190  37.546  13.062
65337W        W24598  18.592  21.530   2.300
65338W        W24599  15.745  25.179  10.494
65339W        W24600  30.593  33.933   0.445
65340W        W24601  27.453   6.826   0.476
65341W        W24602  10.750  25.073  14.939
65342W        W24603  29.039   1.751  14.352
65343W        W24604  31.092   2.255  13.404
65344W        W24605  38.396  44.418  13.831
65345W        W24606  32.541   7.791  13.516
65346W        W24607  43.877  32.581  13.468
65347W        W24608  14.329  25.189  13.345
65348W        W24609  14.336  27.646   9.593
65349W        W24610  44.298  23.522   4.761
65350W        W24611  19.279  22.191   4.277
65351W        W24612  23.988   2.741  11.124
65352W        W24613   3.290  10.717   2.892
65353W        W24614  14.157  34.487   1.759
65354W        W24615   6.761   4.816   2.245
65355W        W24616  16.102  26.658  10.957
65356W        W24617  34.937  18.207  11.424
65357W        W24618  37.914   9.329  13.386
65358W        W24619  19.136  40.806  11.426
65359W        W24620  35.062  28.161   2.411
65360W        W24621  15.192   3.883  13.942
65361W        W24622  18.579   4.868   0.435
65362W        W24623  15.645   0.792  12.430
65363W        W24624  12.613  36.462   2.317
65364W        W24625  34.414  39.401  14.365
65365W        W24626  34.872  10.325   3.812
65366W        W24627  31.933  30.550   1.264
65367W        W24628  31.936  10.215   2.846
65368W        W24629  20.566  26.027   1.434
65369W        W24630   0.280   1.364   1.714
65370W        W24631   9.337  26.035   4.128
65371W        W24632  13.630  22.117   3.761
65372W        W24633  13.709  31.908  14.445
65373W        W24634  35.365  11.358  12.984
65374W        W24635  34.517  22.640  13.450
65375W        W24636  35.492  14.117   4.180
65376W        W24637   1.962  35.559  13.023
65377W        W24638  36.848  19.682   2.192
65378W        W24639  39.038   4.422   2.415
65379W        W24640  39.398   8.162  13.321
65380W        W24641  44.786  27.979  10.011
65381W        W24642   2.338  37.490   2.210
65382W        W24643  30.969   4.829   4.291
65383W        W24644  10.743  17.579   1.275
65384W        W24645  32.636   4.730  13.492
65385W        W24646  23.166  21.667  11.943
65386W        W24647  21.222  42.831  12.859
65387W        W24648  42.487  29.024   4.310
65388W        W24649  15.212  21.739   4.207
65389W        W24650  13.627   9.378   1.363
65390W        W24651  21.115  33.082   4.282
65391W        W24652   2.911  42.843   2.844
65392W        W24653  26.189   3.793  13.063
65393W        W24654  28.118  33.884  14.301
65394W        W24655  34.039   3.778   4.650
65395W        W24656  16.147  24.185   1.911
65396W        W24657  43.807  23.217  14.891
65397W        W24658  16.158   6.420  12.571
65398W        W24659  20.579  28.992  12.954
65399W        W24660  39.831  24.035  11.875
65400W        W24661  40.806  28.546   1.309
65401W        W24662   8.232  23.639  11.539
65402W        W24663   2.764   1.957  12.058
65403W        W24664  34.894   5.759   1.402
65404W        W24665  14.135  23.170  13.895
65405W        W24666  16.573   0.411   3.165
65406W        W24667  37.953  44.866   2.797
65407W        W24668  23.187  10.151   1.740
65408W        W24669  39.030  12.232   1.297
65409W        W24670   6.270  16.265  14.801
65410W        W24671  28.574  12.340   3.282
65411W        W24672  15.135  19.539   0.891
65412W        W24673  27.135  41.397   4.735
65413W        W24674  41.425   7.779   1.281
65414W        W24675  44.387  41.447   0.909
65415W        W24676   2.835  34.473  13.463
65416W        W24677  29.428   0.951   3.386
65417W        W24678  36.486  28.007  10.618
65418W        W24679  41.913  38.901  11.482
65419W        W24680  44.784   7.908   3.762
65420W        W24681  28.581  14.602   1.759
65421W        W24682   3.842  10.225  10.108
65422W        W24683  37.022  36.462  12.440
65423W        W24684  31.427  25.087   0.273
65424W        W24685   7.762  29.610  14.013
65425W        W24686   6.259  24.194  14.898
65426W        W24687  33.122  12.712  11.581
65427W        W24688  17.711  25.022   1.415
65428W        W24689  43.975   0.309  13.369
65429W        W24690  35.535   3.251   0.402
65430W        W24691  10.710  15.247   2.209
65431W        W24692  25.607  15.824  10.893
65432W        W24693  33.925  28.663   3.750
65433W        W24694  14.315  29.985  13.804
65434W        W24695  37.993   0.339   0.262
65435W        W24696   7.223  22.125   4.315
65436W        W24697  30.070   4.231   4.341
65437W        W24698  27.072  24.631   1.394
65438W        W24699   9.224  12.267   3.787
65439W        W24700  15.819  36.587  11.986
65440W        W24701  14.795  22.652   2.339
65441W        W24702  33.112   3.821   4.288
65442W        W24703  40.323  41.029   3.357
65443W        W24704   3.237  20.554  12.558
65444W        W24705  38.553  28.975  11.945
65445W        W24706   3.952  34.917  13.485
65446W        W24707  11.743  32.948  10.960
65447W        W24708  20.741  37.920   1.920
65448W        W24709  15.612  20.132  12.466
65449W        W24710  30.444  28.982  12.002
65450W        W24711   4.253   4.410  11.404
65451W        W24712  40.357   5.422   4.633
65452W        W24713  23.515  10.847   3.700
65453W        W24714  25.119  28.494  13.500
65454W        W24715  22.079  14.117  13.957
65455W        W24716  10.176  12.319  12.085
65456W        W24717  37.891  28.441  11.613
65457W        W24718  32.591  36.938  11.060
65458W        W24719   4.922  26.098   1.933
65459W        W24720  23.595  19.534  11.409
65460W        W24721  42.820   6.312   4.236
65461W        W24722  31.015  40.960  13.812
65462W        W24723  34.078   0.444  14.456
65463W        W24724  20.587  32.429   4.818
65464W        W24725  17.576  19.272  12.091
65465W        W24726  18.673   5.797  14.770
65466W        W24727  13.134  12.130   3.845
65467W        W24728  44.336  32.979  11.020
65468W        W24729   1.790   1.238   0.300
65469W        W24730   4.708  31.555   2.193
65470W        W24731  30.154   5.890   1.327
65471W        W24732  42.968  36.989   4.677
65472W        W24733  35.470  21.590  14.855
65473W        W24734   0.439   9.876  14.842
65474W        W24735  20.644   5.197  14.286
65475W        W24736   2.328  12.126  14.345
65476W        W24737  27.159   6.834  13.051
65477W        W24738  18.167  34.453   4.241
65478W        W24739  23.992  37.955  12.394
65479W        W24740   1.271  26.195  11.032
65480W        W24741  35.070  38.486  13.036
65481W        W24742  38.448   2.382  12.484
65482W        W24743  19.189  16.710  11.045
65483W        W24744  29.035  41.788   1.845
65484W        W24745  34.896  25.124   3.326
65485W        W24746  26.541  32.614  13.345
65486W        W24747  32.981   6.784  11.956
65487W        W24748  16.228  29.052   1.802
65488W        W24749  45.000  42.869   3.740
65489W        W24750  34.075  41.890   1.280
65490W        W24751  31.485  23.148   0.780
65491W        W24752  33.581  18.253  14.275
65492W        W24753  35.108  21.752   4.207
65493W        W24754   0.972   4.402  12.459
65494W        W24755  27.614  42.426   1.340
65495W        W24756  27.160  15.712   2.758
65496W        W24757  44.439  19.609  12.519
65497W        W24758  31.908   4.218  11.485
65498W        W24759  20.148  26.954   3.168
65499W        W24760  42.314  29.620   1.868
65500W        W24761  16.231  14.642  11.989
65501W        W24762   4.243  31.141   1.407
65502W        W24763   3.291  14.774   4.282
65503W        W24764  44.297  24.605  14.336
65504W        W24765  27.128  36.450   2.261
65505W        W24766  34.966  28.466   2.672
65506W        W24767  13.294   5.312   2.792
65507W        W24768   5.397  15.256   4.805
65508W        W24769   6.781  27.676   4.782
65509W        W24770  30.086  40.427  10.546
65510W        W24771  16.666  19.261   1.768
65511W        W24772   2.875  30.441   1.857
65512W        W24773  32.486  29.020   3.661
65513W        W24774  23.650  21.609   4.683
65514W        W24775  34.415  12.793   0.837
65515W        W24776  16.781  25.648  12.002
65516W        W24777   7.722  24.987   0.767
65517W        W24778   8.844  22.036  11.492
65518W        W24779  27.159  29.542   3.688
65519W        W24780  32.498  38.454   0.840
65520W        W24781  25.637   0.811  13.849
65521W        W24782   5.270  25.983  12.993
65522W        W24783   3.841   8.801   2.752
65523W        W24784   6.905  13.798  13.364
65524W        W24785  11.718  34.891  12.543
65525W        W24786  15.653   8.670   0.862
65526W        W24787  39.393  12.610  10.516
65527W        W24788  23.527   6.312  14.486
65528W        W24789  12.688   7.278  11.005
65529W        W24790  15.644  39.434   1.768
65530W        W24791   1.245  38.467   0.298
65531W        W24792  35.955  36.960  13.405
65532W        W24793  41.963  21.138   4.152
65533W        W24794   2.450   3.421   2.354
65534W        W24795  23.535   2.258   1.345
65535W        W24796   5.727   8.719  11.962
65536W        W24797  12.262   8.725   1.918
65537W        W24798  25.685  12.646  11.581
65538W        W24799   7.901  35.497  10.448
65539W        W24800  37.010   7.322   1.910
65540W        W24801  44.478   9.880   4.132
65541W        W24802  10.330  26.003  10.524
65542W        W24803  41.425   9.190  11.502
65543W        W24804  34.508  12.199  14.299
65544W        W24805  38.865  39.452  11.112
65545W        W24806  29.148  39.336  13.911
65546W        W24807  16.569   2.353   0.877
65547W        W24808   4.417   4.307   2.701
65548W        W24809  17.578  29.982   3.273
65549W        W24810  25.147   4.857  11.515
65550W        W24811  42.302   9.228   3.662
65551W        W24812   0.320  19.222  13.471
65552W        W24813  28.959  19.243   2.238
65553W        W24814   3.359  30.127   2.184
65554W        W24815  32.526  17.573  11.503
65555W        W24816  41.312  39.372   1.350
65556W        W24817  29.498  40.937   3.761
65557W        W24818  31.580  14.821   1.864
65558W        W24819  22.602   0.866  12.461
65559W        W24820  10.228   8.256   0.813
65560W        W24821  34.976  40.414   4.669
65561W        W24822  33.393  15.813   1.819
65562W        W24823  19.055  15.298   4.189
65563W        W24824  19.117  26.113   4.250
65564W        W24825  34.883  39.475  12.354
65565W        W24826  21.725   0.326  13.484
65566W        W24827   3.823  15.706   0.327
65567W        W24828  30.615  39.367   1.808
65568W        W24829  43.409   3.854   4.302
65569W        W24830  44.843  41.901  12.375
65570W        W24831   0.263   8.884  10.476
65571W        W24832  41.450  14.834   2.809
65572W        W24833  21.064   0.884   4.286
65573W        W24834  21.159  29.995   1.859
65574W        W24835   6.357  39.870   3.312
65575W        W24836  29.084  24.609  14.908
65576W        W24837   2.746  11.818  10.456
65577W        W24838   9.718  38.895  13.970
65578W        W24839  27.100  24.618   3.296
65579W        W24840   4.298  21.200  12.400
65580W        W24841  38.485  41.415   4.817
65581W        W24842   1.827  15.737   0.906
65582W        W24843  26.628  22.179   1.437
65583W        W24844  44.922  30.431  14.770
65584W        W24845  43.273  31.406  13.453
65585W        W24846  37.882  31.927   4.193
65586W        W24847  32.089  38.370  10.554
65587W        W24848  37.339   2.390  12.062
65588W        W24849  37.458  34.520   0.784
65589W        W24850  28.559  19.163   3.672
65590W        W24851   4.902  44.297  13.360
65591W        W24852  27.192  12.270   3.754
65592W        W24853  43.792  32.103   1.897
65593W        W24854   8.823  36.559  13.416
65594W        W24855  20.133  19.674  12.502
65595W        W24856  10.166  24.705   4.314
65596W        W24857   1.827   1.433  12.870
65597W        W24858  14.740   8.665  13.463
65598W        W24859  44.423  36.529   1.361
65599W        W24860  30.505   5.755  13.376
65600W        W24861  10.799  39.478  14.290
65601W        W24862  42.889  43.326   3.797
65602W        W24863   0.983  21.564  13.837
65603W        W24864  26.593  25.624   3.228
65604W        W24865  41.790   6.250   2.266
65605W        W24866  20.673  17.287  12.844
65606W        W24867  30.163   5.782   4.629
65607W        W24868  13.121  25.135  12.485
65608W        W24869  30.420  12.148  13.333
65609W        W24870   3.746   5.206   1.735
65610W        W24871  13.292  14.751   4.222
65611W        W24872  42.451  30.610  11.982
65612W        W24873   0.818  18.079   2.244
65613W        W24874  38.349  31.619   4.836
65614W        W24875  14.670  32.539  12.976
65615W        W24876  24.191  10.298   5.185
65616W        W24877   1.290  14.160  12.347
65617W        W24878  12.702  31.133   3.721
65618W        W24879  29.542   3.246   0.954
65619W        W24880   0.962  42.777  13.547
65620W        W24881  39.326  44.321   2.715
65621W        W24882   1.733  31.911   0.834
65622W        W24883  35.883  12.637  10.468
65623W        W24884  34.992  36.525   3.266
65624W        W24885  36.005  29.648  13.806
65625W        W24886   4.305  10.279  12.870
65626W        W24887  34.513  44.971  11.928
65627W        W24888  22.112   9.748   3.259
65628W        W24889  18.154  13.139   2.231
65629W        W24890   6.691  37.413   3.270
65630W        W24891  42.940   0.329  13.061
65631W        W24892  16.275  29.015   3.333
65632W        W24893   5.894  36.002  14.302
65633W        W24894   9.183  16.779  13.472
65634W        W24895  40.479  42.821  10.991
65635W        W24896   7.214   3.461  12.549
65636W        W24897   7.735  15.590   3.741
65637W        W24898  27.163  41.889   1.732
65638W        W24899   5.734  19.095   4.153
65639W        W24900  13.335   0.300   4.281
65640W        W24901  23.691   0.824   2.304
65641W        W24902  44.488  36.405  12.528
65642W        W24903  42.427  28.056  14.958
65643W        W24904  18.750  44.469   0.906
65644W        W24905   6.247  44.951  13.368
65645W        W24906  41.538  41.432  11.469
65646W        W24907   3.298   2.837  13.954
65647W        W24908   2.821   4.847   3.178
65648W        W24909  32.069  23.030  13.491
65649W        W24910   2.429  36.082   3.859
65650W        W24911  43.839   7.884  11.936
65651W        W24912   1.850  38.445   1.416
65652W        W24913  36.593  36.376  14.408
65653W        W24914  11.214   7.188  13.345
65654W        W24915  31.437   4.266   2.717
65655W        W24916   2.293  30.134   4.766
65656W        W24917  13.180  20.684  11.022
65657W        W24918   3.842  39.871   1.773
65658W        W24919  17.790  11.804   3.371
65659W        W24920   7.721   4.325  11.523
65660W        W24921  21.642   5.880  12.522
65661W        W24922  13.735  24.560   1.402
65662W        W24923  44.454  12.683  14.279
65663W        W24924   9.856  29.102   3.753
65664W        W24925  19.115  34.885  14.465
65665W        W24926   5.280  18.050  14.404
65666W        W24927  21.181  20.759   1.767
65667W        W24928  29.470  32.924   2.200
65668W        W24929  33.506  35.475  13.993
65669W        W24930   2.938  13.630  12.458
65670W        W24931  41.334  41.955  13.466
65671W        W24932  38.883  23.682  12.880
65672W        W24933  12.354  22.057   1.374
65673W        W24934  10.715  34.118   2.224
65674W        W24935  12.755   3.797  10.989
65675W        W24936  11.177  29.013  14.001
65676W        W24937  17.240  23.032  13.961
65677W        W24938  17.102  20.537   4.277
65678W        W24939  17.564  23.007   2.897
65679W        W24940  13.653  14.287   3.742
65680W        W24941  21.074  32.605  11.969
65681W        W24942  34.885  35.528  12.087
65682W        W24943  30.991   5.765  13.794
65683W        W24944  30.581  24.224  10.919
65684W        W24945  10.351  10.160   0.310
65685W        W24946  18.063  24.699  11.100
65686W        W24947  15.675   0.770   1.902
65687W        W24948   5.258   3.345  14.779
65688W        W24949   5.925  37.019  14.292
65689W        W24950  20.241  42.001   0.885
65690W        W24951  24.659  36.892  11.977
65691W        W24952   0.746  42.340   2.832
65692W        W24953  29.664   5.274  14.468
65693W        W24954  17.654   7.848  14.437
65694W        W24955  13.744  38.988   3.692
65695W        W24956  40.374  31.479   4.193
65696W        W24957  34.889  22.996  12.853
65697W        W24958  17.237   6.243  10.906
65698W        W24959   5.897  11.687  10.467
65699W        W24960  14.219  17.669   4.772
65700W        W24961  37.515  37.542  14.872
65701W        W24962  42.803  34.381   0.811
65702W        W24963  34.026  25.539  13.857
65703W        W24964  32.392   0.779   1.418
65704W        W24965   2.878  31.406  14.481
65705W        W24966  23.705  24.184  13.960
65706W        W24967   2.266  21.120   4.655
65707W        W24968  14.325  42.943  12.410
65708W        W24969  37.426  42.001   5.260
65709W        W24970  19.540  37.438  14.365
65710W        W24971  44.845  30.126   1.720
65711W        W24972  15.577  18.765  14.315
65712W        W24973  24.540  28.168   4.696
65713W        W24974  16.114  12.659  14.947
65714W        W24975   7.245  28.626   0.346
65715W        W24976  28.663  29.592  12.054
65716W        W24977   6.411  39.503  12.442
65717W        W24978  14.835  16.240  11.109
65718W        W24979  15.823  30.649   0.877
65719W        W24980  30.570  12.330   0.881
65720W        W24981  21.205  18.249   5.284
65721W        W24982  13.623  14.222  14.768
65722W        W24983  15.242  24.013  12.440
65723W        W24984  31.641  34.051  12.514
65724W        W24985  25.058  18.116  11.511
65725W        W24986  38.922  39.320   3.659
65726W        W24987  41.334  40.050   4.164
65727W        W24988  33.434   3.439   2.320
65728W        W24989  35.423  21.053   0.849
65729W        W24990  14.597  32.106   3.765
65730W        W24991  12.731  43.997   2.217
65731W        W24992   1.481   7.804   4.340
65732W        W24993   0.766  30.115  11.541
65733W        W24994  13.323   9.797   4.607
65734W        W24995   4.838   9.667   2.877
65735W        W24996  29.142  29.096  11.049
65736W        W24997  43.826  22.583  13.384
65737W        W24998   3.237   0.449   4.812
65738W        W24999   9.368  28.501  11.914
65739W        W25000  14.696  44.834  14.852
65740W        W25001   7.343   8.362  12.898
65741W        W25002  16.752  24.991  13.006
65742W        W25003  11.825   2.752   4.695
65743W        W25004  15.675  32.572  12.849
65744W        W25005  40.962  19.065   3.359
65745W        W25006   2.940   7.749   0.823
65746W        W25007   0.469  25.115  13.992
65747W        W25008  17.130  24.126  11.511
65748W        W25009   7.727  43.451  12.046
65749W        W25010  44.828  31.479   0.738
65750W        W25011  34.470  28.929   4.796
65751W        W25012  26.045  26.668  12.001
65752W        W25013  13.338   4.746   0.293
65753W        W25014  22.199  22.596  12.406
65754W        W25015  13.683  21.541   4.205
65755W        W25016  12.714  15.756   3.677
65756W        W25017  39.912  37.976   4.268
65757W        W25018  19.168  33.456  13.540
65758W        W25019  21.237  30.082   2.690
65759W        W25020  39.351  29.440   9.923
65760W        W25021  12.618  44.937   3.741
65761W        W25022  34.089  16.742   0.863
65762W        W25023  37.072  21.234   3.749
65763W        W25024  29.016   5.201   5.250
65764W        W25025   7.880  24.089  14.006
65765W        W25026   9.806  39.338   2.415
65766W        W25027  35.539  44.922   2.261
65767W        W25028   2.740  41.482  10.934
65768W        W25029  31.126  20.080   3.289
65769W        W25030  40.034  25.106  12.072
65770W        W25031   4.321   2.814   4.613
65771W        W25032  13.695   1.238  14.959
65772W        W25033   0.983  26.145   0.862
65773W        W25034  12.804  16.686  11.965
65774W        W25035  33.943  33.486   2.815
65775W        W25036  18.769  16.218   0.352
65776W        W25037  40.870  39.452   4.255
65777W        W25038  24.661  17.266  12.388
65778W        W25039  28.537  10.337   3.353
65779W        W25040  25.671   5.349   0.270
65780W        W25041  41.859  42.854  10.510
65781W        W25042  15.711  20.734  14.412
65782W        W25043  42.872  32.027  13.009
65783W        W25044  40.302   0.326   3.764
65784W        W25045  32.937  16.745  14.922
65785W        W25046  36.542  18.552   0.735
65786W        W25047  28.107  11.723   4.775
65787W        W25048  35.085  19.754  11.475
65788W        W25049  24.223  40.406   0.318
65789W        W25050   2.911   9.874  10.633
65790W        W25051   2.365  39.029   1.364
65791W        W25052   0.432  21.035  12.031
65792W        W25053  25.104  37.429   4.260
65793W        W25054   7.697  16.203   1.416
65794W        W25055  19.147  20.167  13.370
65795W        W25056  38.541   6.900  14.965
65796W        W25057  39.961  31.441  13.871
65797W        W25058  41.883  27.136   4.220
65798W        W25059  40.489  10.242   2.823
65799W        W25060  39.825  15.160   2.672
65800W        W25061  26.007  21.109  12.834
65801W        W25062   4.323  27.957   0.892
65802W        W25063  14.225  20.555   0.863
65803W        W25064  35.436  20.170  12.865
65804W        W25065  15.174  15.273  12.049
65805W        W25066  35.436   8.314  13.455
65806W        W25067   7.878  44.955  11.543
65807W        W25068  23.690  25.612  13.310
65808W        W25069  41.959  33.880  10.896
65809W        W25070  20.599  19.181   1.802
65810W        W25071  25.059  12.263  12.942
65811W        W25072  21.113  24.538  14.821
65812W        W25073  44.790  27.596   0.929
65813W        W25074  13.349   6.792   1.266
65814W        W25075  31.060  38.036  13.511
65815W        W25076  37.442  43.955   4.597
65816W        W25077  15.760  36.950  13.488
65817W        W25078  16.678  35.553  14.030
65818W        W25079  37.939  26.065  10.419
65819W        W25080  17.604  39.549  12.066
65820W        W25081  28.574  23.111   3.381
65821W        W25082  19.734  14.669   1.226
65822W        W25083  35.599  41.478   0.475
65823W        W25084   1.249  44.947  12.530
65824W        W25085  26.590  20.028  13.861
65825W        W25086  23.657  31.909   1.451
65826W        W25087  29.936  40.370  12.409
65827W        W25088  34.477   4.741   3.716
65828W        W25089  33.526  34.118  11.419
65829W        W25090  39.525  31.583  12.912
65830W        W25091  39.050  33.571  13.810
65831W        W25092  38.567  26.195  13.495
65832W        W25093  39.331  24.640   4.270
65833W        W25094  27.536   2.858   0.341
65834W        W25095  22.607  35.523   3.260
65835W        W25096   0.813  18.154  12.828
65836W        W25097  28.537  15.659  11.868
65837W        W25098  34.603   4.773   0.420
65838W        W25099  20.747   7.848  10.547
65839W        W25100  33.085   5.932   0.409
65840W        W25101  27.468  31.480   0.302
65841W        W25102   4.344  19.181  12.502
65842W        W25103  40.396  43.880  10.417
65843W        W25104  41.858  19.050  11.920
65844W        W25105  16.191  28.618   2.220
65845W        W25106  25.177  43.353  11.978
65846W        W25107  16.226   8.777   0.795
65847W        W25108  19.118  33.406   1.259
65848W        W25109  14.701  34.463  12.081
65849W        W25110  23.090  10.827  10.965
65850W        W25111  33.435   1.897   3.253
65851W        W25112  35.457  15.672   3.864
65852W        W25113  27.653  29.544  13.455
65853W        W25114  44.364  36.021   5.136
65854W        W25115   7.331   8.215  14.450
65855W        W25116  35.934  22.198   4.326
65856W        W25117  27.485  32.073  14.786
65857W        W25118  32.479  15.796  11.422
65858W        W25119  43.864  21.128   0.874
65859W        W25120   3.712  26.025  14.377
65860W        W25121  32.990  23.181  10.900
65861W        W25122   6.794  23.226  12.564
65862W        W25123  15.113  40.043   0.451
65863W        W25124   2.941  30.136  10.459
65864W        W25125  18.055   8.865  13.944
65865W        W25126  12.333  14.694   1.910
65866W        W25127  21.613  11.282  12.503
65867W        W25128   2.462  17.128   0.389
65868W        W25129  42.870  43.299  12.372
65869W        W25130  41.485  24.597   1.808
65870W        W25131  10.266  25.499  14.846
65871W        W25132   6.687  28.133   1.894
65872W        W25133  10.658  34.014   4.326
65873W        W25134  40.024  34.920  12.896
65874W        W25135   2.367   7.217  13.959
65875W        W25136   5.711  21.064   1.420
65876W        W25137   4.227   2.906   0.930
65877W        W25138  39.843   5.281  13.439
65878W        W25139  38.855  35.593   9.983
65879W        W25140  33.934  30.572   0.439
65880W        W25141  34.541  41.291   0.907
65881W        W25142  37.841  21.537   0.349
65882W        W25143  39.340  30.982   3.386
65883W        W25144  39.014   9.259  14.307
65884W        W25145  25.512  18.595  12.016
65885W        W25146   0.383  25.700   4.307
65886W        W25147  14.727  10.651  13.042
65887W        W25148  36.369   9.733  10.633
65888W        W25149  28.964   6.275  12.867
65889W        W25150  26.634   3.336  14.002
65890W        W25151  33.400  24.978  11.608
65891W        W25152  21.681  15.127  13.000
65892W        W25153  29.435  22.056  11.440
65893W        W25154  24.119  12.857  12.079
65894W        W25155   6.809  24.527   3.642
65895W        W25156  11.249  43.861   0.458
65896W        W25157  38.470   7.235   3.774
65897W        W25158   8.216  21.036   4.192
65898W        W25159   7.872  18.567   4.694
65899W        W25160  18.732  20.528  10.031
65900W        W25161   4.285  38.852  12.972
65901W        W25162  39.867   2.858  10.577
65902W        W25163  32.994  14.251  13.794
65903W        W25164  22.248  38.027  13.317
65904W        W25165  19.656  27.196  12.572
65905W        W25166  24.052   3.348   0.481
65906W        W25167   5.254  43.954   2.269
65907W        W25168  25.665  36.093  14.882
65908W        W25169   6.736   6.883  12.417
65909W        W25170   2.792  17.642   3.304
65910W        W25171  24.064   0.748  11.451
65911W        W25172  17.303  11.164  13.926
65912W        W25173   8.729  21.654  11.510
65913W        W25174  20.168  21.678  11.963
65914W        W25175   1.367  22.505   2.234
65915W        W25176  25.483   0.963   5.107
65916W        W25177  38.502  15.609  13.945
65917W        W25178  33.103  23.523   3.747
65918W        W25179  31.078  34.877   1.759
65919W        W25180   3.335  40.411  12.032
65920W        W25181  39.038  21.691   1.396
65921W        W25182  10.202  15.209  13.062
65922W        W25183  42.837   1.478   2.696
65923W        W25184   6.380  24.200   0.321
65924W        W25185  10.872  18.631   3.256
65925W        W25186   6.426  15.295  12.548
65926W        W25187  13.704  35.910  11.987
65927W        W25188  25.025  39.842   2.409
65928W        W25189  26.069  11.790  11.863
65929W        W25190  25.154   3.368  13.450
65930W        W25191  24.539   7.380  10.507
65931W        W25192   7.387  29.522  14.844
65932W        W25193  27.447  35.517   2.787
65933W        W25194  32.987  38.846   0.883
65934W        W25195  19.547  18.164   5.717
65935W        W25196  21.649  35.474   4.153
65936W        W25197  24.506  22.553  12.486
65937W        W25198  22.509  14.673   1.705
65938W        W25199  14.145  18.278  11.586
65939W        W25200  29.120  21.639  14.337
65940W        W25201  23.591   1.770  14.393
65941W        W25202   9.661  19.733   4.300
65942W        W25203   4.342  30.058   0.818
65943W        W25204  37.503  35.447   1.706
65944W        W25205  25.504  24.037   1.793
65945W        W25206  31.135  11.665  14.322
65946W        W25207  37.863   1.844   0.897
65947W        W25208  21.545  11.736   2.766
65948W        W25209  18.666  16.788  14.488
65949W        W25210  20.724  24.984  12.031
65950W        W25211   8.247  32.980  14.428
65951W        W25212  40.501  41.308  14.344
65952W        W25213  38.475  35.603   0.766
65953W        W25214  39.022  15.312   3.708
65954W        W25215  41.457  19.062  13.418
65955W        W25216  31.641  37.062   4.836
65956W        W25217   5.881  33.467  11.377
65957W        W25218  42.287  22.184  12.477
65958W        W25219  12.213  11.805  13.475
65959W        W25220  30.952  31.085  14.424
65960W        W25221  35.411  42.828  12.903
65961W        W25222  44.478   7.786  11.034
65962W        W25223  31.582  10.193   1.787
65963W        W25224  44.320  38.374  11.015
65964W        W25225  26.564   4.290   1.923
65965W        W25226  37.915  26.973   9.594
65966W        W25227   2.283  38.422   2.273
65967W        W25228  19.656   7.331   2.715
65968W        W25229  32.539  26.041   2.675
65969W        W25230  36.888  18.583  13.508
65970W        W25231  20.037  42.857   1.894
65971W        W25232   4.230  11.368   2.815
65972W        W25233  31.449   1.423  12.498
65973W        W25234  24.113   2.810  12.866
65974W        W25235  26.514   7.698   2.190
65975W        W25236  18.585   6.221  12.499
65976W        W25237  22.042  31.944  14.870
65977W        W25238   0.743  17.777   1.354
65978W        W25239   8.820  25.541   4.334
65979W        W25240   7.760   6.893   1.730
65980W        W25241  16.637  33.465  10.437
65981W        W25242  28.462  21.546  14.978
65982W        W25243  40.539  33.607  12.071
65983W        W25244  15.725  11.697   3.296
65984W        W25245  10.216  35.577  10.501
65985W        W25246  38.511  35.107  14.806
65986W        W25247   3.219  37.996   0.267
65987W        W25248  16.211  14.170   1.746
65988W        W25249  16.749   6.841  11.428
65989W        W25250  22.086  13.609  11.903
65990W        W25251   0.383  19.699   0.862
65991W        W25252  33.575  16.614  14.354
65992W        W25253  12.808  42.841  13.806
65993W        W25254  44.831  42.383  10.588
65994W        W25255   2.408  19.732   9.996
65995W        W25256  14.243  40.958  11.886
65996W        W25257  12.283  22.222   4.199
65997W        W25258  44.367   6.725   3.838
65998W        W25259  44.990  41.388  12.023
65999W        W25260  12.732  29.957  14.892
66000W        W25261  20.664   3.358   4.351
66001W        W25262  25.599  13.723   3.753
66002W        W25263  29.525  30.947   1.786
66003W        W25264  17.602  20.571  11.381
66004W        W25265  43.420  41.398  11.011
66005W        W25266  36.582  36.053  11.877
66006W        W25267  17.229  42.494  14.791
66007W        W25268  17.698  16.200   3.778
66008W        W25269   4.445  17.133   3.232
66009W        W25270  28.662  10.748  12.891
66010W        W25271  10.215   7.319  13.385
66011W        W25272  13.599  43.993  10.506
66012W        W25273   7.288  27.461   3.333
66013W        W25274  32.979   6.312  10.995
66014W        W25275  34.371  15.645   4.687
66015W        W25276  30.948  42.865  10.520
66016W        W25277  17.185  11.144  14.284
66017W        W25278  29.576  21.573   3.314
66018W        W25279  32.000  13.352   3.296
66019W        W25280  12.624  22.165   1.814
66020W        W25281   1.959   6.269   4.726
66021W        W25282  24.499  21.750  10.918
66022W        W25283  19.043  10.172   2.273
66023W        W25284  22.734   4.940   0.920
66024W        W25285  37.086  32.391   4.272
66025W        W25286   3.307  35.906  11.914
66026W        W25287  23.178  21.597   2.737
66027W        W25288  41.924  24.583  11.913
66028W        W25289  43.916  29.463  11.919
66029W        W25290   8.227  28.145  10.492
66030W        W25291  41.370  43.020  11.478
66031W        W25292  43.490  43.947  12.406
66032W        W25293  37.489   3.771   3.793
66033W        W25294  16.723  36.989  13.024
66034W        W25295   9.355  32.997   1.443
66035W        W25296  34.537  12.361  12.578
66036W        W25297  43.426  36.585   9.969
66037W        W25298  10.815  28.513   4.130
66038W        W25299   2.864  18.636  13.352
66039W        W25300   8.303   3.803  13.347
66040W        W25301   9.837  27.479  13.803
66041W        W25302  44.337   5.236   4.823
66042W        W25303  23.662  44.306   4.758
66043W        W25304  36.505  21.093   3.265
66044W        W25305  33.618   5.364  13.925
66045W        W25306  22.187  13.768  14.383
66046W        W25307  11.707  16.708   0.428
66047W        W25308   9.737  10.144   3.370
66048W        W25309  33.087   1.266  12.919
66049W        W25310  18.597  31.539  10.982
66050W        W25311  25.182  27.192  13.804
66051W        W25312  26.627  44.938  13.438
66052W        W25313  38.057  36.931   0.436
66053W        W25314  28.487   4.328  12.933
66054W        W25315   6.206  24.591   4.159
66055W        W25316  44.770  23.104   2.187
66056W        W25317  43.817  34.074   4.172
66057W        W25318  25.660  38.965   0.340
66058W        W25319  40.808  30.161  14.399
66059W        W25320  44.759  34.989   0.902
66060W        W25321  23.157  39.869   0.898
66061W        W25322  35.060  14.829   4.156
66062W        W25323  44.431   9.182   3.854
66063W        W25324   3.724  27.094  11.551
66064W        W25325   1.373  18.571   4.187
66065W        W25326  34.902   0.468   1.399
66066W        W25327  28.167  21.547  11.898
66067W        W25328   8.319   6.763   1.803
66068W        W25329   0.800  30.425  12.516
66069W        W25330   9.844  44.010  11.462
66070W        W25331  36.501  27.453  12.930
66071W        W25332  20.117  13.198   3.338
66072W        W25333  20.106  33.937   1.244
66073W        W25334   1.278  10.306   4.118
66074W        W25335  15.233  34.514  13.352
66075W        W25336  12.161  28.667  14.820
66076W        W25337  41.917  34.614  12.916
66077W        W25338   6.316  16.207  12.580
66078W        W25339  24.103  28.061  12.981
66079W        W25340  33.974  17.189  11.116
66080W        W25341  33.014  36.417  12.342
66081W        W25342   0.399  21.017  13.996
66082W        W25343  41.814  36.512  13.323
66083W        W25344  37.883  34.068   2.811
66084W        W25345   1.771   3.321  12.568
66085W        W25346  11.303  37.566   1.901
66086W        W25347  23.646  24.627  12.455
66087W        W25348   5.423  29.069   2.380
66088W        W25349   6.421  37.418   3.303
66089W        W25350   5.763  12.238  12.501
66090W        W25351   5.266  28.678   3.649
66091W        W25352  36.466   7.211  11.462
66092W        W25353  43.876  34.397   1.244
66093W        W25354  34.032  10.720   1.735
66094W        W25355  14.593  19.750  12.899
66095W        W25356  22.171  15.693  11.029
66096W        W25357  35.584  43.825  13.356
66097W        W25358  17.126  10.873  11.916
66098W        W25359   0.873  31.443  10.550
66099W        W25360  33.126  31.616   4.142
66100W        W25361  10.240  43.311  12.901
66101W        W25362  43.490  28.443   2.191
66102W        W25363  35.002  15.780  14.870
66103W        W25364  22.740  25.077   2.804
66104W        W25365  26.027  15.637   3.157
66105W        W25366  27.022   5.805   1.754
66106W        W25367   7.273  31.084   4.767
66107W        W25368   0.436   2.301   1.759
66108W        W25369   1.747  42.486   0.943
66109W        W25370  11.368  11.133  11.594
66110W        W25371   1.468   4.427  13.991
66111W        W25372   6.369  32.933  11.553
66112W        W25373  26.085  41.842   1.276
66113W        W25374  41.471   9.750   0.895
66114W        W25375  28.524  14.134  14.469
66115W        W25376  24.181   4.335  11.065
66116W        W25377  38.936  19.673   1.348
66117W        W25378  24.512  33.447  11.894
66118W        W25379  32.459  27.600   2.821
66119W        W25380  16.724   8.208   2.239
66120W        W25381  34.480  36.898   4.662
66121W        W25382  14.643   2.746   0.937
66122W        W25383  14.129   6.301   9.671
66123W        W25384  42.378  38.496   5.268
66124W        W25385  32.086  36.585   2.380
66125W        W25386  11.147   3.935  12.369
66126W        W25387  28.122  23.537   0.454
66127W        W25388   5.835  41.947  12.982
66128W        W25389  15.798  29.499  14.306
66129W        W25390  16.781  21.647  10.505
66130W        W25391   9.348   8.389   2.708
66131W        W25392   1.904  42.350   3.176
66132W        W25393  36.952  13.313   3.791
66133W        W25394  11.697   4.360  11.011
66134W        W25395  23.626  22.527   2.203
66135W        W25396  26.168  27.605   0.849
66136W        W25397  25.507  25.624  14.786
66137W        W25398  22.172  12.683  10.901
66138W        W25399  40.490  30.597  13.832
66139W        W25400  34.998  23.138  11.086
66140W        W25401  42.981  22.247   2.740
66141W        W25402  34.502  25.983  13.910
66142W        W25403   6.427   8.800  12.429
66143W        W25404  20.583  41.031  14.824
66144W        W25405  44.949  22.611  13.899
66145W        W25406  20.628  42.963  11.059
66146W        W25407  23.101  10.248  13.539
66147W        W25408   0.407  11.703  11.412
66148W        W25409  42.522   8.406   4.698
66149W        W25410  13.635  11.235  11.865
66150W        W25411  13.615  33.428   3.814
66151W        W25412   7.692  23.604   0.447
66152W        W25413  44.949  10.648   0.884
66153W        W25414   7.763  13.282   0.843
66154W        W25415  12.844  39.934  12.425
66155W        W25416  12.694  14.633   3.300
66156W        W25417  26.966  27.073  14.300
66157W        W25418  24.617  42.344   0.299
66158W        W25419  41.799  43.503  13.938
66159W        W25420  14.311  20.216   4.685
66160W        W25421  13.796  44.760   4.246
66161W        W25422  42.846  36.530  11.122
66162W        W25423  18.191  14.713   3.276
66163W        W25424  41.960   7.334  13.361
66164W        W25425  39.937  26.471  12.033
66165W        W25426  27.150   6.750   0.361
66166W        W25427  37.989  20.079   1.332
66167W        W25428  25.608  28.115  13.519
66168W        W25429   7.379  17.736  12.999
66169W        W25430   1.924  24.687   1.310
66170W        W25431  27.563  43.416   3.339
66171W        W25432   6.304  29.161   2.194
66172W        W25433  30.954  25.123  14.934
66173W        W25434   7.829  29.597   1.804
66174W        W25435  32.132  43.832   0.466
66175W        W25436  31.091  28.146  11.470
66176W        W25437   5.333  37.466   3.730
66177W        W25438   9.228  14.676   2.682
66178W        W25439   5.216  40.401  13.372
66179W        W25440   8.195  29.069   0.856
66180W        W25441  40.545  22.623   2.398
66181W        W25442  12.281  24.494  13.973
66182W        W25443  36.966  28.515  13.815
66183W        W25444  11.646  20.557  11.086
66184W        W25445   0.460  28.965   3.240
66185W        W25446   9.831  19.576  13.053
66186W        W25447   0.831  21.719   2.371
66187W        W25448  35.059  21.235  10.464
66188W        W25449   3.244  27.570  14.461
66189W        W25450  15.710  37.366  14.982
66190W        W25451  34.916   9.713   2.878
66191W        W25452   8.693   6.859   1.406
66192W        W25453   5.290   0.263   1.906
66193W        W25454  31.634  35.067  11.962
66194W        W25455   0.818   7.406   4.600
66195W        W25456  27.507   4.797   2.295
66196W        W25457  40.844   3.905   3.829
66197W        W25458  23.134  33.545   1.737
66198W        W25459  37.374  40.895   0.335
66199W        W25460  43.985  38.465   5.241
66200W        W25461   3.269   2.850  11.879
66201W        W25462  27.196  27.034   3.348
66202W        W25463  35.501  14.244  13.353
66203W        W25464   9.357   6.829  14.008
66204W        W25465  42.517  33.542  14.977
66205W        W25466  40.443   5.928   4.251
66206W        W25467  39.895  31.575  10.567
66207W        W25468   1.782  43.420   0.856
66208W        W25469  37.472  40.451   4.289
66209W        W25470  25.044   0.488   0.821
66210W        W25471  14.599  12.180  14.782
66211W        W25472  17.746  24.080  14.504
66212W        W25473   5.328  25.621  12.352
66213W        W25474  31.960  16.571   4.689
66214W        W25475   8.226  22.535   4.767
66215W        W25476  24.543  14.202  11.039
66216W        W25477  23.559  34.387  13.865
66217W        W25478  34.471  15.667  13.800
66218W        W25479  39.335  42.801  14.907
66219W        W25480   3.428  18.601   0.879
66220W        W25481   0.428  10.216   1.913
66221W        W25482  37.887  41.434  11.128
66222W        W25483   4.897  33.066   0.353
66223W        W25484  41.341   0.285  11.587
66224W        W25485  15.710  41.424  13.000
66225W        W25486  38.504  28.000  11.018
66226W        W25487  25.074  18.170   0.448
66227W        W25488   6.388  30.097  11.545
66228W        W25489  42.922  37.982   0.414
66229W        W25490  36.997   9.230  12.572
66230W        W25491  33.055  27.144   3.323
66231W        W25492  32.914  44.350   1.765
66232W        W25493  22.613   1.802  13.865
66233W        W25494   5.777  26.177  14.419
66234W        W25495  28.051  37.870   0.455
66235W        W25496  24.137  41.520  13.503
66236W        W25497  36.388  10.779   1.419
66237W        W25498  15.274  30.067  13.437
66238W        W25499  22.577  28.558  10.589
66239W        W25500  10.819  28.098   2.748
66240W        W25501  15.766  44.405   1.742
66241W        W25502   9.677  44.288   4.222
66242W        W25503  39.919  39.436   2.709
66243W        W25504   9.810  20.115  11.433
66244W        W25505  28.114   9.348  14.795
66245W        W25506  27.672  44.972  13.938
66246W        W25507  11.681  26.612  13.358
66247W        W25508  18.223  32.454  14.859
66248W        W25509  22.074  41.365   4.749
66249W        W25510  32.139  40.006   1.864
66250W        W25511  15.714   5.328  14.808
66251W        W25512   3.790  36.881  14.498
66252W        W25513  43.931   1.274  14.010
66253W        W25514  28.575  43.921  11.012
66254W        W25515   1.409  43.367   0.939
66255W        W25516  27.005   2.796   0.791
66256W        W25517  17.284  21.127   3.864
66257W        W25518   3.245  33.554   2.268
66258W        W25519  27.190  26.148   3.329
66259W        W25520  12.141  41.325   2.227
66260W        W25521  18.743   3.774  11.381
66261W        W25522   4.917   0.855  11.608
66262W        W25523  40.317   4.857   2.676
66263W        W25524  30.532  14.222   3.304
66264W        W25525  32.637  37.421  13.938
66265W        W25526  34.500  30.124   0.785
66266W        W25527  30.535  42.328  11.588
66267W        W25528  42.500  31.009  14.342
66268W        W25529   4.881   2.752  12.902
66269W        W25530  24.104   0.859  14.844
66270W        W25531  36.053   2.926  12.898
66271W        W25532  19.249   4.444   0.859
66272W        W25533  26.561   2.794   9.976
66273W        W25534  43.860  44.481  12.564
66274W        W25535  31.137   8.405  13.029
66275W        W25536  28.069  33.897  11.871
66276W        W25537  24.548   7.379   1.755
66277W        W25538  26.590   7.389   2.783
66278W        W25539  25.160  21.163  12.571
66279W        W25540  36.409   9.283  10.602
66280W        W25541   0.257  27.172   2.770
66281W        W25542  25.151  35.037  13.316
66282W        W25543  33.089   7.695  13.008
66283W        W25544   2.880  18.708  11.421
66284W        W25545   6.322  27.163   1.306
66285W        W25546   5.232   5.207  12.419
66286W        W25547  14.151  24.482  14.894
66287W        W25548  42.847   2.273  11.963
66288W        W25549  21.734   1.773  13.455
66289W        W25550   1.360   8.351  10.983
66290W        W25551  14.122  20.087  11.061
66291W        W25552  24.141  29.525  11.568
66292W        W25553   1.318  34.974   4.835
66293W        W25554  24.073  18.224  12.578
66294W        W25555  10.235   4.211   4.297
66295W        W25556  39.998  29.113   4.143
66296W        W25557  42.970  25.520  13.850
66297W        W25558  29.101   9.263  14.830
66298W        W25559  25.538  29.477   3.378
66299W        W25560  16.301  23.067   1.746
66300W        W25561   3.359  31.064  11.860
66301W        W25562  37.396  42.522  11.422
66302W        W25563  33.968  39.893   4.666
66303W        W25564  35.436  23.596   4.711
66304W        W25565  33.052  29.146  11.059
66305W        W25566  35.968   4.367   1.361
66306W        W25567  37.061  33.530  12.553
66307W        W25568  43.501  11.321  12.483
66308W        W25569   6.891   3.787   1.782
66309W        W25570  16.137   7.414   3.724
66310W        W25571   3.889  11.806  11.042
66311W        W25572  40.318  10.376   3.255
66312W        W25573  43.981   6.870   2.390
66313W        W25574  24.079  15.822  11.378
66314W        W25575   8.272   8.839   3.206
66315W        W25576   7.287  36.429  10.969
66316W        W25577  39.549  34.911   0.298
66317W        W25578  37.571  17.748   0.810
66318W        W25579   2.753  20.685   3.178
66319W        W25580  13.781  15.665  14.310
66320W        W25581  22.568   5.196  10.441
66321W        W25582  32.399   9.208   5.694
66322W        W25583  34.059  41.931  12.061
66323W        W25584  30.151  39.503   3.310
66324W        W25585   3.281  39.886   4.213
66325W        W25586   7.790  22.157  14.015
66326W        W25587   3.229  19.757   2.871
66327W        W25588  37.882  11.328  10.470
66328W        W25589  32.973  40.539  11.070
66329W        W25590  36.586  17.142   4.681
66330W        W25591  38.009   8.179  13.544
66331W        W25592  14.274  14.140   1.339
66332W        W25593  14.200   2.340   1.773
66333W        W25594  27.048  27.563   9.920
66334W        W25595  36.038  13.277  11.958
66335W        W25596  36.039   2.788   3.819
66336W        W25597   1.469   3.410   0.904
66337W        W25598  26.006  16.169   2.762
66338W        W25599  16.283  29.501   9.454
66339W        W25600  38.038  19.587  13.934
66340W        W25601  32.482  41.983  11.123
66341W        W25602   0.484  30.079  12.572
66342W        W25603  26.675   5.753  11.098
66343W        W25604  17.752  19.536  13.318
66344W        W25605   5.704  18.109   2.281
66345W        W25606   0.794  16.589   2.366
66346W        W25607  21.026  40.821  14.341
66347W        W25608  28.105   1.785   1.885
66348W        W25609   6.881   7.759   2.238
66349W        W25610  31.107  43.885  10.589
66350W        W25611   1.812  31.507   4.799
66351W        W25612  28.603  43.972   4.696
66352W        W25613  13.766  37.955   3.190
66353W        W25614   6.184  15.083  14.984
66354W        W25615  24.526  31.557   2.386
66355W        W25616  39.499  38.904  10.631
66356W        W25617  18.080  12.642  11.438
66357W        W25618  22.723  36.509  13.512
66358W        W25619   7.698   5.423   3.249
66359W        W25620  14.710  12.803  12.364
66360W        W25621  28.506  36.521   0.296
66361W        W25622  19.608  40.922   3.635
66362W        W25623   7.214  37.857   4.243
66363W        W25624  41.028  39.042  12.542
66364W        W25625  18.157  15.085  14.931
66365W        W25626   3.227  41.332   0.740
66366W        W25627  30.539  14.723  14.978
66367W        W25628  26.703  10.851  12.996
66368W        W25629  26.544  41.450   3.147
66369W        W25630   5.307   0.923   3.164
66370W        W25631  30.147  32.132   2.672
66371W        W25632  15.600  23.503   2.217
66372W        W25633  17.773  18.649   5.137
66373W        W25634  43.809  10.365   2.810
66374W        W25635  24.593  37.002   0.460
66375W        W25636   5.790   2.238  12.981
66376W        W25637  26.998  23.615  11.607
66377W        W25638  13.275  41.315   0.448
66378W        W25639   2.339   6.898   4.205
66379W        W25640   5.358   0.289  12.367
66380W        W25641   3.955   4.886   1.705
66381W        W25642  24.573  34.942  10.590
66382W        W25643  32.038   7.725   1.246
66383W        W25644   6.239  25.096  11.400
66384W        W25645  36.037  31.418   4.678
66385W        W25646  37.485   1.342   1.243
66386W        W25647  12.702  26.122   2.286
66387W        W25648   0.962  32.959   4.792
66388W        W25649  34.402  11.247  13.438
66389W        W25650  27.483   4.385   1.770
66390W        W25651  38.507  29.064   3.690
66391W        W25652  18.754   5.300  10.526
66392W        W25653  17.113  31.988  13.363
66393W        W25654  32.616  35.581  14.985
66394W        W25655  25.002  12.240   1.342
66395W        W25656  17.569   8.668  14.333
66396W        W25657  38.915  39.997  12.534
66397W        W25658  39.319  13.306   1.784
66398W        W25659  12.748   3.887   1.789
66399W        W25660  29.962  27.127  13.543
66400W        W25661  12.353  31.601   3.738
66401W        W25662  31.488   0.426  14.906
66402W        W25663  30.489  17.726  12.899
66403W        W25664  25.193  25.066  13.017
66404W        W25665  41.384   8.799  14.845
66405W        W25666  14.758   7.373   2.824
66406W        W25667  36.058  36.434   0.816
66407W        W25668  43.863  34.895  12.478
66408W        W25669  34.075   2.860  14.966
66409W        W25670  32.060  12.821  13.927
66410W        W25671  31.952  33.451  13.425
66411W        W25672  12.688  43.773   0.766
66412W        W25673  43.986  24.667  10.445
66413W        W25674  18.281  30.555  11.050
66414W        W25675  40.500  23.728   0.823
66415W        W25676   9.766   3.731   4.303
66416W        W25677  37.344  31.592  10.949
66417W        W25678   9.270  21.174   2.674
66418W        W25679  17.631  28.013  14.839
66419W        W25680  12.331  40.946  14.876
66420W        W25681  18.592   7.880  10.539
66421W        W25682   7.347  41.805   0.924
66422W        W25683  38.903  29.603  14.377
66423W        W25684  37.086  32.606  13.892
66424W        W25685  14.207  22.169   3.844
66425W        W25686  42.907  19.760   9.944
66426W        W25687  38.554  14.647  10.433
66427W        W25688  36.855   9.736  12.351
66428W        W25689  13.641  27.131  14.507
66429W        W25690   0.338   8.375  12.883
66430W        W25691   5.301  17.676  12.442
66431W        W25692  22.549   9.780   3.226
66432W        W25693   1.816  19.626   4.283
66433W        W25694  28.439  39.810  12.035
66434W        W25695  38.039   1.417  11.020
66435W        W25696  13.218  27.482  13.502
66436W        W25697  44.498  32.588  13.393
66437W        W25698  26.606  32.089  13.307
66438W        W25699  42.350  21.245   2.716
66439W        W25700  16.637   8.775   1.396
66440W        W25701  22.059   7.849   0.266
66441W        W25702  40.940  28.035  11.568
66442W        W25703  44.804  25.621  11.917
66443W        W25704  19.175  44.901   1.810
66444W        W25705   4.263  13.150   3.273
66445W        W25706  10.239  33.415  14.949
66446W        W25707  32.115  11.766   3.858
66447W        W25708   2.228  17.693   2.252
66448W        W25709  19.733  28.186  13.367
66449W        W25710  37.979   3.403  13.465
66450W        W25711  41.463   2.866  13.922
66451W        W25712  28.946  15.764   4.783
66452W        W25713   5.275  39.902  14.853
66453W        W25714  37.353  16.680   3.367
66454W        W25715   7.718  32.906  12.928
66455W        W25716  41.296  43.419   3.365
66456W        W25717  36.516   8.342  13.351
66457W        W25718   8.208  11.263   2.354
66458W        W25719  11.745  17.061   4.273
66459W        W25720  30.910   2.904   1.442
66460W        W25721  15.246  38.952   4.308
66461W        W25722  28.612  11.625   2.778
66462W        W25723  17.295  37.347   0.875
66463W        W25724  13.628  14.664   2.228
66464W        W25725  30.986  42.460   0.781
66465W        W25726  36.465   5.365  12.534
66466W        W25727  20.696   0.420   0.856
66467W        W25728   7.191  11.716   3.769
66468W        W25729  31.015  12.675  12.364
66469W        W25730  22.229  41.948   0.394
66470W        W25731  30.575  37.055  11.524
66471W        W25732  41.973   3.885   0.829
66472W        W25733   8.219  36.454  12.954
66473W        W25734  23.580  21.580  12.455
66474W        W25735  40.369  42.436   1.329
66475W        W25736  17.107  34.883  13.427
66476W        W25737  20.125   2.341   2.751
66477W        W25738  26.952  38.391   1.332
66478W        W25739  26.995  32.094   5.319
66479W        W25740   7.174  15.791   3.288
66480W        W25741   6.821  40.517  13.508
66481W        W25742  14.225  25.213  11.458
66482W        W25743  39.989  40.354   3.319
66483W        W25744  42.362  27.649  13.322
66484W        W25745  41.434  37.472   0.317
66485W        W25746  42.410   3.307   4.133
66486W        W25747  34.097  19.608   2.385
66487W        W25748  15.205  36.522  14.893
66488W        W25749   3.440  36.535   0.853
66489W        W25750  40.005  15.765   1.698
66490W        W25751  14.318  41.830  11.926
66491W        W25752  44.342   5.732  10.088
66492W        W25753   3.875  25.209   3.330
66493W        W25754  20.165  15.621   1.315
66494W        W25755  21.614  31.118  12.405
66495W        W25756   1.748  38.042   3.213
66496W        W25757  31.486   5.417  10.524
66497W        W25758  23.615  16.277  14.889
66498W        W25759   9.760  25.986   3.725
66499W        W25760  41.521  36.479  12.851
66500W        W25761  33.445   5.697   3.842
66501W        W25762  12.272  23.604   2.898
66502W        W25763   9.830   7.689   1.343
66503W        W25764  25.054  21.217  10.085
66504W        W25765   4.853  32.517   4.294
66505W        W25766  13.681  30.546   2.337
66506W        W25767  44.301  15.214  10.034
66507W        W25768   3.271  41.446   2.734
66508W        W25769  33.096  33.474   3.854
66509W        W25770  27.006  29.025   2.794
66510W        W25771   5.784  33.455   0.442
66511W        W25772  13.813  38.347   4.249
66512W        W25773   9.815   4.783  12.359
66513W        W25774   0.855  23.119  12.950
66514W        W25775  41.360  19.744  11.527
66515W        W25776  21.518  30.968  14.426
66516W        W25777  34.099  36.003   2.328
66517W        W25778   8.686   8.720  12.360
66518W        W25779   4.760  30.573  10.550
66519W        W25780  18.566  20.639  12.943
66520W        W25781  18.210  40.817   0.393
66521W        W25782  14.700  34.397   0.962
66522W        W25783  30.622  22.607   3.245
66523W        W25784  32.067  10.664   2.749
66524W        W25785  29.618  30.148  13.959
66525W        W25786   6.837  30.043   1.868
66526W        W25787  21.579  28.508  10.971
66527W        W25788  17.142  41.437   0.795
66528W        W25789  15.606  30.459  14.363
66529W        W25790  36.539  29.579   3.184
66530W        W25791  14.623  33.933   3.856
66531W        W25792  41.335   7.229  11.597
66532W        W25793   5.285  40.347   4.324
66533W        W25794  10.707   5.366   1.789
66534W        W25795   3.459  36.505   2.801
66535W        W25796  21.528   6.357  11.471
66536W        W25797   3.248   7.322   3.865
66537W        W25798  44.952  39.536   3.790
66538W        W25799  21.602  13.829   1.755
66539W        W25800  26.963   5.220  14.840
66540W        W25801  11.234  16.608  10.469
66541W        W25802  28.447   3.330  13.838
66542W        W25803  43.516   7.346  12.533
66543W        W25804  39.001   3.327  11.449
66544W        W25805  15.268  20.144  10.543
66545W        W25806  18.701  31.973  12.002
66546W        W25807  12.758   6.704  14.945
66547W        W25808  37.382  27.092   1.253
66548W        W25809  15.768  21.611   4.764
66549W        W25810   8.793  43.990   3.328
66550W        W25811  10.660  42.925   0.374
66551W        W25812  25.009   7.718   5.285
66552W        W25813  29.484   5.240   2.749
66553W        W25814  29.958  23.638  12.898
66554W        W25815  31.453  37.868   3.189
66555W        W25816  27.521   4.231   9.935
66556W        W25817  26.139  16.305   4.699
66557W        W25818   7.218  35.046   1.712
66558W        W25819   5.320   5.415  11.584
66559W        W25820   0.910   4.820  14.480
66560W        W25821  31.580  42.791   4.306
66561W        W25822  36.005  28.063   1.259
66562W        W25823  25.153  10.671   4.708
66563W        W25824  22.219  21.083   0.778
66564W        W25825  17.060   3.879  10.441
66565W        W25826  18.747  44.817  14.860
66566W        W25827  30.996  40.847   4.687
66567W        W25828  19.745  28.081  11.990
66568W        W25829  21.662  41.303   3.661
66569W        W25830   6.861  29.075  10.497
66570W        W25831  33.390  20.109   1.842
66571W        W25832  23.177   1.340  10.954
66572W        W25833  44.353  34.395   2.877
66573W        W25834   4.720  33.121  13.517
66574W        W25835  37.980  14.735  13.016
66575W        W25836  26.600  43.314   2.184
66576W        W25837  27.008  33.059  11.898
66577W        W25838  26.965  13.293   1.422
66578W        W25839  25.043  32.958   0.255
66579W        W25840   5.699   4.746  10.582
66580W        W25841  28.491  34.537  13.021
66581W        W25842  19.644   7.201  13.496
66582W        W25843  41.981  42.797   1.378
66583W        W25844   6.326   8.237  12.042
66584W        W25845  30.135  14.826   1.906
66585W        W25846  37.547  23.492   2.664
66586W        W25847   4.350  25.147  12.926
66587W        W25848  30.570  15.736   0.767
66588W        W25849  36.500  24.981  12.878
66589W        W25850   1.937  23.656  11.423
66590W        W25851   3.371  22.574  14.812
66591W        W25852   7.303  19.141   1.911
66592W        W25853   7.742  39.877   4.217
66593W        W25854  31.139  38.343   4.627
66594W        W25855  21.524  13.107  14.810
66595W        W25856   5.920  19.705   1.314
66596W        W25857  17.646  18.172  13.312
66597W        W25858  21.703  33.468   3.188
66598W        W25859  28.514  35.452  11.528
66599W        W25860  16.119  38.512   3.784
66600W        W25861  20.174  18.773   2.349
66601W        W25862   3.909   3.916   1.228
66602W        W25863  33.089   7.242  14.390
66603W        W25864  34.991  43.804  11.577
66604W        W25865  14.109  40.349  14.325
66605W        W25866  43.823  24.142  11.944
66606W        W25867  32.102  19.045   1.712
66607W        W25868  38.426   0.900  13.952
66608W        W25869   6.280  33.603   2.698
66609W        W25870   2.896  36.891  11.599
66610W        W25871   7.200   6.262  14.820
66611W        W25872  14.277  33.970  10.981
66612W        W25873  43.487  27.124   2.418
66613W        W25874  13.621  33.977  12.573
66614W        W25875  27.008  35.858   2.360
66615W        W25876   4.400   9.666   1.377
66616W        W25877   1.271  12.632   4.242
66617W        W25878  25.635  44.397  11.055
66618W        W25879  15.585   7.349  14.925
66619W        W25880  39.860   9.889  11.092
66620W        W25881  12.755  35.075  12.569
66621W        W25882  23.985  22.231   0.763
66622W        W25883   2.925  17.654   2.759
66623W        W25884  18.105   3.887   0.802
66624W        W25885   2.380   3.883   1.388
66625W        W25886  23.008  20.144   0.324
66626W        W25887   2.871  17.164  12.383
66627W        W25888  44.290  44.002   1.906
66628W        W25889  11.342  36.405   2.205
66629W        W25890  37.559   2.438   1.231
66630W        W25891  11.802   6.822  12.998
66631W        W25892  27.045  10.842   4.309
66632W        W25893  38.406  19.777   1.897
66633W        W25894   4.371  15.743  13.980
66634W        W25895  10.645  29.586  14.906
66635W        W25896  33.509  20.600  13.933
66636W        W25897   5.365  28.661   1.850
66637W        W25898   1.963  18.703   4.352
66638W        W25899  38.041   4.279  12.020
66639W        W25900  25.980  23.043   0.423
66640W        W25901  39.357  44.280  12.915
66641W        W25902   8.161  34.055   4.156
66642W        W25903   2.815  22.730   3.258
66643W        W25904  26.471   5.896  11.484
66644W        W25905  11.133   8.892  14.762
66645W        W25906  18.210   3.848   0.414
66646W        W25907  31.431  12.137  14.333
66647W        W25908   2.288  32.074   5.234
66648W        W25909   8.242  33.998   2.846
66649W        W25910   2.336  40.003  12.076
66650W        W25911   8.388  29.447   3.815
66651W        W25912  42.314  44.968   4.236
66652W        W25913  37.047  37.078  14.976
66653W        W25914  28.186  21.057  10.523
66654W        W25915  42.418   9.176  13.865
66655W        W25916  22.618  32.928   1.919
66656W        W25917  26.676   1.742   1.839
66657W        W25918  33.076  27.036  13.049
66658W        W25919  36.564   0.272   0.882
66659W        W25920  24.076  36.047  11.936
66660W        W25921   5.357   3.330   0.312
66661W        W25922  21.588  16.134   2.755
66662W        W25923  34.508  15.597   1.806
66663W        W25924   4.767  35.080   4.657
66664W        W25925   9.721  37.464   2.793
66665W        W25926  41.925  14.610   4.730
66666W        W25927  23.053   3.426   0.907
66667W        W25928  36.359   6.390  10.068
66668W        W25929  41.887  37.892  10.149
66669W        W25930  16.299  33.950  13.956
66670W        W25931  19.639  43.825  13.374
66671W        W25932  38.467  24.228  13.433
66672W        W25933  40.541  20.649   1.451
66673W        W25934  17.775   1.774  14.005
66674W        W25935  16.796  28.049  11.033
66675W        W25936  18.622  20.552   4.767
66676W        W25937  23.721   3.428   1.766
66677W        W25938  14.117   0.388   3.231
66678W        W25939  11.339  30.056  12.395
66679W        W25940  28.991  16.593   2.384
66680W        W25941  16.149  30.575  10.534
66681W        W25942  31.099  26.976  11.001
66682W        W25943  15.130  30.431   0.352
66683W        W25944  19.708  32.429  14.823
66684W        W25945  33.539  18.711  14.869
66685W        W25946   6.389   9.198  11.509
66686W        W25947   9.727  26.699  11.380
66687W        W25948  17.713  23.153   4.264
66688W        W25949  29.510   2.784   3.350
66689W        W25950  23.030  23.707   1.882
66690W        W25951  28.144  37.978   1.447
66691W        W25952  43.987  19.080  11.926
66692W        W25953  14.144  19.643   2.198
66693W        W25954  14.217   9.666   0.965
66694W        W25955  20.667  23.609  10.144
66695W        W25956   8.762  31.106   3.780
66696W        W25957  18.116  23.636  14.313
66697W        W25958  31.956  12.621   0.472
66698W        W25959   4.415  40.362  11.489
66699W        W25960  18.118  32.087   2.393
66700W        W25961  30.495  36.489  12.519
66701W        W25962   6.265  16.309  13.545
66702W        W25963   2.329  14.203   0.847
66703W        W25964  12.716  23.647   1.260
66704W        W25965  32.885   6.220   2.234
66705W        W25966   5.241  26.559  12.355
66706W        W25967   9.770  12.672  14.410
66707W        W25968  28.591  31.058   3.363
66708W        W25969  32.474  31.501   3.346
66709W        W25970  41.970  30.595  11.571
66710W        W25971  39.484  26.101  13.856
66711W        W25972   9.387  44.341   3.166
66712W        W25973  31.598  41.392   1.245
66713W        W25974  38.326   5.201  14.385
66714W        W25975  40.321  31.000  11.860
66715W        W25976  11.703   8.667   2.355
66716W        W25977  37.336  37.426   4.759
66717W        W25978  21.758  29.983  14.871
66718W        W25979   7.283  32.002  12.527
66719W        W25980  36.085  33.084   1.729
66720W        W25981  22.697  21.174  11.515
66721W        W25982  15.779  40.880   0.453
66722W        W25983  13.630   0.930   1.753
66723W        W25984   3.719  13.279   0.338
66724W        W25985  20.060  42.805  11.061
66725W        W25986  26.128  17.082   2.697
66726W        W25987  35.492   6.286   4.217
66727W        W25988  20.577  30.587   0.397
66728W        W25989   2.235   9.211  12.365
66729W        W25990  11.127  35.434   0.824
66730W        W25991  29.452   7.390   3.295
66731W        W25992  13.683  23.012   2.374
66732W        W25993   5.420   0.355   4.236
66733W        W25994  30.626   8.701   2.279
66734W        W25995   2.431  34.413   0.267
66735W        W25996   7.719  12.651  14.821
66736W        W25997  26.094  30.984  13.045
66737W        W25998  19.771   5.399  10.007
66738W        W25999  15.295  34.453   2.713
66739W        W26000   2.932  15.698  12.447
66740W        W26001   4.742  43.325  11.990
66741W        W26002  36.903  44.379  11.116
66742W        W26003  16.730  34.397  13.840
66743W        W26004  20.262  16.628   3.315
66744W        W26005   2.816  22.544  14.827
66745W        W26006  41.842  30.489   1.225
66746W        W26007  20.131  24.013   1.901
66747W        W26008  20.162  42.005  13.848
66748W        W26009   6.735  41.313  14.383
66749W        W26010   1.835  28.043  13.062
66750W        W26011   5.338  43.821   3.175
66751W        W26012  20.618  24.038  13.426
66752W        W26013  10.809  28.513  12.872
66753W        W26014  34.461  24.629  10.583
66754W        W26015  29.542  30.630   0.310
66755W        W26016  15.595  41.936  11.459
66756W        W26017  43.378  42.007  10.923
66757W        W26018   3.788  18.103  12.081
66758W        W26019  26.524  24.655  12.374
66759W        W26020  27.636   0.850  14.352
66760W        W26021   1.369  39.837  11.076
66761W        W26022  11.349  43.816  12.045
66762W        W26023  36.914  20.219  10.521
66763W        W26024  18.728  40.863  12.854
66764W        W26025  20.087  12.308   4.186
66765W        W26026  33.974  42.831   2.757
66766W        W26027  30.936  15.316   4.219
66767W        W26028  17.688  42.410  14.839
66768W        W26029  15.318   4.309  12.339
66769W        W26030  35.932  37.447   4.215
66770W        W26031  38.954  30.085  12.553
66771W        W26032  41.846  26.170  14.400
66772W        W26033   5.844  38.839   4.668
66773W        W26034  31.473   6.897   1.842
66774W        W26035  24.078  33.005  12.069
66775W        W26036  17.256  30.489   2.692
66776W        W26037  35.398  14.808   4.640
66777W        W26038  17.659  27.065   1.361
66778W        W26039  18.682  29.471  14.309
66779W        W26040   0.831  22.508  13.519
66780W        W26041  26.087  18.766  14.356
66781W        W26042  16.742  26.191  12.366
66782W        W26043  31.619  29.936  14.922
66783W        W26044   6.690   5.752   2.848
66784W        W26045  16.796  12.251   1.772
66785W        W26046  16.270  42.866  14.470
66786W        W26047  20.198  30.491   3.217
66787W        W26048  16.735  39.352   0.842
66788W        W26049  39.530  43.504  10.630
66789W        W26050  25.613  37.025   1.925
66790W        W26051  13.660  19.538   1.865
66791W        W26052  27.677  20.271   4.633
66792W        W26053  16.716  22.684  14.017
66793W        W26054  42.860   5.273  14.506
66794W        W26055  12.671  35.585  11.421
66795W        W26056  24.694  19.283   0.379
66796W        W26057  12.713  35.439   4.821
66797W        W26058  31.999  13.282  11.883
66798W        W26059  23.170   4.881   1.696
66799W        W26060   8.870   2.834   1.242
66800W        W26061  34.434   1.467   0.840
66801W        W26062  13.628  23.010  14.311
66802W        W26063  38.434  36.983   1.368
66803W        W26064  27.471  27.095  11.910
66804W        W26065  17.249  14.593  13.353
66805W        W26066   4.410  38.334   1.395
66806W        W26067   1.431  42.401  12.507
66807W        W26068  37.523   6.678   0.854
66808W        W26069  21.190  39.505  13.970
66809W        W26070   9.660  15.116   2.751
66810W        W26071   7.887  44.928   0.817
66811W        W26072  20.585   2.407  10.499
66812W        W26073  12.255  18.651   1.786
66813W        W26074  25.132   2.769   4.273
66814W        W26075  22.516   7.830   2.849
66815W        W26076  34.440   4.781  12.935
66816W        W26077  10.650   3.289  13.944
66817W        W26078  29.096  14.107  14.351
66818W        W26079   7.888  34.593  10.621
66819W        W26080   0.905  23.234  11.552
66820W        W26081  39.472   2.882  12.497
66821W        W26082  31.580  11.151  12.467
66822W        W26083  13.599   7.269   3.825
66823W        W26084  16.148  24.684   4.216
66824W        W26085  20.058   2.313  14.966
66825W        W26086  29.927  18.599  14.919
66826W        W26087  28.929   9.688   3.844
66827W        W26088  23.095  24.701  12.949
66828W        W26089   4.754  12.712  13.412
66829W        W26090   2.832  34.897  13.977
66830W        W26091  19.722  20.745   3.362
66831W        W26092  33.004  15.106   2.289
66832W        W26093  21.214   7.888  14.959
66833W        W26094   7.395  30.151  10.485
66834W        W26095   1.446  38.054  12.398
66835W        W26096  33.419  31.410  10.988
66836W        W26097  17.136  28.129   0.914
66837W        W26098  15.089  37.543   3.812
66838W        W26099   2.246  26.075  11.997
66839W        W26100  10.290  41.341   4.161
66840W        W26101  21.748  21.706  12.517
66841W        W26102   3.847  36.348   3.796
66842W        W26103  13.705  37.841   2.700
66843W        W26104   6.708  26.607   3.151
66844W        W26105  35.365  40.483   4.277
66845W        W26106  37.898  34.510   1.699
66846W        W26107  32.400  27.145   0.738
66847W        W26108  44.900  11.238   0.783
66848W        W26109  31.981  26.684  13.858
66849W        W26110  43.425  35.393  13.511
66850W        W26111  14.748  17.627   4.658
66851W        W26112   4.304   5.291  10.931
66852W        W26113  37.454  12.136   0.906
66853W        W26114  31.105  40.453  10.503
66854W        W26115   8.348  29.128  13.414
66855W        W26116  17.627   4.355  11.996
66856W        W26117  24.074  36.951   0.823
66857W        W26118  31.606  16.670  11.401
66858W        W26119  14.684  18.199   0.804
66859W        W26120  35.040  24.071  14.938
66860W        W26121   0.742  19.143   2.249
66861W        W26122   1.421  10.271  11.987
66862W        W26123   3.804  43.374   3.806
66863W        W26124   1.362  39.817   0.278
66864W        W26125  29.166  36.580  12.980
66865W        W26126  26.596  35.576   2.180
66866W        W26127  37.993   0.325  11.856
66867W        W26128  37.978  10.153   4.113
66868W        W26129  13.804   2.820  14.370
66869W        W26130  27.504  15.755  12.925
66870W        W26131  42.465  36.959   2.220
66871W        W26132  20.582  25.652   4.253
66872W        W26133   3.409   4.753   3.269
66873W        W26134  17.693  24.529   1.244
66874W        W26135  25.141   7.341   3.677
66875W        W26136  12.709  33.074  11.453
66876W        W26137  25.704  40.934  12.439
66877W        W26138  11.741  39.905   3.729
66878W        W26139  36.368  33.615  11.117
66879W        W26140  30.576  12.242  14.380
66880W        W26141  12.610  12.189   0.762
66881W        W26142   7.289  19.094  12.927
66882W        W26143   2.410  37.372  12.889
66883W        W26144  22.180   6.361   0.954
66884W        W26145  44.944   9.848  14.922
66885W        W26146  30.587   8.754  11.485
66886W        W26147  16.568  18.745   4.639
66887W        W26148  30.163  21.553   3.707
66888W        W26149  39.533  38.972  12.543
66889W        W26150   9.710  43.383  14.896
66890W        W26151  32.114  26.608   2.373
66891W        W26152   3.745  38.522  12.873
66892W        W26153   8.216  34.077  10.576
66893W        W26154   7.211  17.074  12.071
66894W        W26155   0.323  32.128  11.457
66895W        W26156  13.695  31.576   4.629
66896W        W26157  41.460  13.659  13.006
66897W        W26158   0.864  34.867   3.223
66898W        W26159  44.987  42.459   4.706
66899W        W26160  16.733  10.713   3.317
66900W        W26161  22.193  36.898  10.591
66901W        W26162  18.584  34.426   5.228
66902W        W26163  43.932  30.634  14.792
66903W        W26164   8.249  18.146   3.684
66904W        W26165  42.775  10.762   0.943
66905W        W26166  27.624  14.724   0.886
66906W        W26167  33.951  42.855  14.779
66907W        W26168   1.864  26.976   4.345
66908W        W26169   2.732  36.531  12.001
66909W        W26170  20.661  32.006   0.395
66910W        W26171  12.833  27.048  13.044
66911W        W26172   8.667  28.562   3.863
66912W        W26173  14.719  31.554   2.830
66913W        W26174  12.155  36.087  13.480
66914W        W26175  42.963   4.870  10.497
66915W        W26176   0.797  33.891  12.381
66916W        W26177  37.871  43.479   2.839
66917W        W26178  40.959   0.892  14.292
66918W        W26179  37.563  40.876   4.716
66919W        W26180  16.090  17.229  10.427
66920W        W26181  32.482  29.669   3.684
66921W        W26182  28.961  44.479   4.306
66922W        W26183  44.432  22.010   1.915
66923W        W26184  17.181  39.511  14.849
66924W        W26185  35.861   8.830   3.866
66925W        W26186  42.891  20.605  13.358
66926W        W26187  35.080  14.134   5.219
66927W        W26188  23.020   1.422   3.191
66928W        W26189  10.670  33.511   4.220
66929W        W26190  29.638  29.036  11.376
66930W        W26191  26.206  26.590   0.279
66931W        W26192  30.134  19.701  11.941
66932W        W26193  15.818  25.108  12.877
66933W        W26194  24.050  11.293  11.409
66934W        W26195  42.424  39.964   2.297
66935W        W26196  21.065  16.107  13.957
66936W        W26197  11.185  24.612   4.625
66937W        W26198  41.367  10.685  11.470
66938W        W26199  36.898  20.078   0.278
66939W        W26200  23.079  11.729  11.440
66940W        W26201  38.023   6.861   3.284
66941W        W26202  25.204  32.991   3.330
66942W        W26203  10.764   5.226   4.811
66943W        W26204  16.762  38.889  13.033
66944W        W26205  34.051  36.584  11.857
66945W        W26206  32.943  27.598  10.962
66946W        W26207  14.678  26.546  11.996
66947W        W26208  42.828  22.161  12.943
66948W        W26209  27.586  42.394  12.083
66949W        W26210  36.497  40.427  11.375
66950W        W26211  19.224  13.748   0.940
66951W        W26212  33.941  42.462   0.871
66952W        W26213   1.416  31.085  11.940
66953W        W26214   4.886  15.615  11.566
66954W        W26215  18.765   0.448   0.387
66955W        W26216  10.196  15.113  14.370
66956W        W26217  22.666  19.624   0.916
66957W        W26218  23.692  12.196   2.351
66958W        W26219  12.689  13.225   1.388
66959W        W26220  36.471   8.698   3.742
66960W        W26221  23.143  11.840  14.512
66961W        W26222  38.330   5.800  13.829
66962W        W26223  29.962  32.049   9.941
66963W        W26224  17.738  10.867   0.730
66964W        W26225  38.062  16.731  13.373
66965W        W26226  24.083  22.213   0.405
66966W        W26227  34.011  36.953   1.330
66967W        W26228  35.389   3.907   0.918
66968W        W26229  32.108  19.615   0.843
66969W        W26230  27.977   3.933   3.654
66970W        W26231   3.329   0.872  12.863
66971W        W26232  25.526   2.465   0.439
66972W        W26233  37.567   7.377  14.508
66973W        W26234  44.762   5.291  13.481
66974W        W26235  23.547  25.655  11.559
66975W        W26236  18.250   4.428   2.287
66976W        W26237  35.002  14.788  10.508
66977W        W26238   8.222  18.749   1.888
66978W        W26239  25.208   9.152  14.462
66979W        W26240  38.442  23.715  11.483
66980W        W26241  32.084  26.173  11.962
66981W        W26242  12.292   3.760   3.338
66982W        W26243  22.999   4.720  14.374
66983W        W26244  38.886   8.350   0.261
66984W        W26245  23.229  19.245   3.719
66985W        W26246  33.528  13.831   1.906
66986W        W26247  37.463  23.230   0.450
66987W        W26248  21.541  23.537   4.122
66988W        W26249  29.438  31.018  11.972
66989W        W26250  24.102  14.253   4.261
66990W        W26251   7.717   8.663  12.471
66991W        W26252  28.601  27.517   3.318
66992W        W26253  42.790  28.528  13.051
66993W        W26254  30.479  13.737  11.530
66994W        W26255  32.561  34.464   3.669
66995W        W26256  18.081  27.081   0.410
66996W        W26257  36.026  42.900  13.510
66997W        W26258  42.452  20.543   1.771
66998W        W26259  24.710  34.415  13.821
66999W        W26260  38.967  30.075   4.778
67000W        W26261   8.306   4.917  12.079
67001W        W26262  25.175   5.828  12.857
67002W        W26263  31.619  33.968   3.636
67003W        W26264  14.138  17.785   0.840
67004W        W26265  15.749  34.605   3.187
67005W        W26266  30.089  22.189  12.970
67006W        W26267   3.373  10.311  10.411
67007W        W26268  26.600  11.262  13.883
67008W        W26269  44.271  28.481  12.555
67009W        W26270  33.535  40.434  14.872
67010W        W26271   6.718  41.897  14.952
67011W        W26272  34.519  29.919  14.017
67012W        W26273   6.711  41.437   1.447
67013W        W26274  11.655  18.221   1.376
67014W        W26275   0.935   9.389  12.479
67015W        W26276  23.562  17.128  13.382
67016W        W26277   8.323  18.096   2.338
67017W        W26278  36.543   0.790  13.909
67018W        W26279  13.258  24.020  14.394
67019W        W26280   1.318  42.964  13.837
67020W        W26281  35.430  44.301   0.440
67021W        W26282  24.105  24.010   3.736
67022W        W26283   8.796  33.013  14.798
67023W        W26284  36.989  40.528   1.339
67024W        W26285   8.810  30.937  14.936
67025W        W26286  32.404   2.396  12.004
67026W        W26287   3.946  30.448   0.459
67027W        W26288  10.773  14.804   3.837
67028W        W26289   6.887  29.019   4.228
67029W        W26290   0.421  36.416   3.780
67030W        W26291  42.457   8.799   3.728
67031W        W26292  32.012  40.406  12.424
67032W        W26293  24.533  17.086  14.371
67033W        W26294  27.131  25.486  10.980
67034W        W26295  33.534  41.843  11.951
67035W        W26296  29.032  25.660  12.995
67036W        W26297  23.680   1.393  14.320
67037W        W26298  32.453  23.508  14.458
67038W        W26299  14.735  35.532   4.725
67039W        W26300  23.187  15.302  13.893
67040W        W26301  41.007  37.855  10.536
67041W        W26302  11.739  38.013   3.157
67042W        W26303  44.861  31.413  10.923
67043W        W26304  41.032  42.799   3.360
67044W        W26305  29.625  13.618   1.412
67045W        W26306  19.604  43.312   2.282
67046W        W26307  32.959  31.089   1.884
67047W        W26308  38.341   7.388  11.907
67048W        W26309  35.502   1.914  13.526
67049W        W26310  33.008  24.489   2.242
67050W        W26311  13.695  32.448  12.840
67051W        W26312   0.385  32.036  13.513
67052W        W26313  25.614   5.340  14.906
67053W        W26314   7.200  34.445  14.843
67054W        W26315  11.175  16.163  10.592
67055W        W26316  22.580  18.772   2.352
67056W        W26317  18.265   2.752   1.760
67057W        W26318   7.287  36.961  13.983
67058W        W26319  42.806  35.966  14.787
67059W        W26320  25.628  17.690   2.676
67060W        W26321  20.200  11.215  11.500
67061W        W26322  21.126   7.780   3.200
67062W        W26323  41.989   4.817   3.162
67063W        W26324  25.010  37.523   5.304
67064W        W26325  38.440   4.445   2.716
67065W        W26326  30.606  11.352   1.913
67066W        W26327  28.037  19.707   4.260
67067W        W26328  40.339  19.677  14.277
67068W        W26329   0.963  15.603  13.441
67069W        W26330   0.443  12.679   3.223
67070W        W26331  38.831  39.340   3.299
67071W        W26332   1.426  23.505   1.876
67072W        W26333   0.985  26.047  11.922
67073W        W26334  39.830  33.892   3.384
67074W        W26335  19.152   8.326   3.351
67075W        W26336  39.412   6.841  14.496
67076W        W26337  14.804  24.017  12.366
67077W        W26338   0.256  44.000   2.284
67078W        W26339  44.362  13.825   3.263
67079W        W26340  29.658  18.610  11.591
67080W        W26341  27.573  22.672   1.785
67081W        W26342  38.878  34.885   2.312
67082W        W26343   6.355   4.783   2.690
67083W        W26344  25.029   7.380   2.260
67084W        W26345  27.615  28.940   4.226
67085W        W26346  11.207  41.995   0.424
67086W        W26347  32.142  44.296  11.026
67087W        W26348  28.564   8.401  13.842
67088W        W26349  13.133   6.752   3.766
67089W        W26350  10.678  16.726  10.579
67090W        W26351  29.033  30.507  13.360
67091W        W26352  22.185  20.717  11.453
67092W        W26353   5.855   1.745  11.931
67093W        W26354  14.752  24.632  11.096
67094W        W26355   0.459  22.542  12.092
67095W        W26356  33.122  27.959   2.409
67096W        W26357  24.090  36.064  13.020
67097W        W26358  29.512   3.249  11.015
67098W        W26359  37.047  23.003  12.073
67099W        W26360   1.294  36.917  12.938
67100W        W26361  41.797  13.689   2.691
67101W        W26362  43.974  25.683  12.415
67102W        W26363  34.976   8.659   2.326
67103W        W26364  15.755   8.356  13.994
67104W        W26365  37.511   6.789  14.011
67105W        W26366  35.041  27.007  12.425
67106W        W26367  39.421  30.102   1.391
67107W        W26368  37.946  43.360  13.325
67108W        W26369  26.015   6.183  13.881
67109W        W26370  35.424  31.002   0.727
67110W        W26371   3.360  18.110  12.946
67111W        W26372  10.861  16.265   3.209
67112W        W26373  23.094  21.063  14.821
67113W        W26374   3.385  11.279   4.600
67114W        W26375  37.085  42.836  13.905
67115W        W26376  26.066  12.662   2.239
67116W        W26377  42.407  40.994   2.866
67117W        W26378  26.533   7.875  11.909
67118W        W26379  41.988  34.028  13.803
67119W        W26380  18.217  37.980   2.269
67120W        W26381  30.615  25.600  14.301
67121W        W26382  41.821  30.974   1.732
67122W        W26383  32.491  35.052  12.971
67123W        W26384  24.528  24.132   4.613
67124W        W26385   8.722   0.833  14.828
67125W        W26386  28.569  40.957   2.819
67126W        W26387  17.110  39.412  12.965
67127W        W26388  16.078  27.124   4.647
67128W        W26389   9.365  39.488  13.449
67129W        W26390  39.449  18.720   3.264
67130W        W26391  27.593  21.602  13.327
67131W        W26392  33.497  43.829  12.514
67132W        W26393  31.093  36.958   2.237
67133W        W26394  10.297   5.777   9.565
67134W        W26395   4.904  30.505  13.411
67135W        W26396  25.555  34.058   0.792
67136W        W26397  28.128  10.379  10.484
67137W        W26398  18.119  10.244  10.622
67138W        W26399  33.425  12.216  12.851
67139W        W26400   1.428  31.043  13.499
67140W        W26401  43.008   0.294   2.728
67141W        W26402   7.285   1.813  13.022
67142W        W26403   7.321  40.864   2.370
67143W        W26404  21.553   3.401  10.547
67144W        W26405  13.769  19.072  13.853
67145W        W26406  21.104  16.630  13.898
67146W        W26407   3.450  26.511   4.642
67147W        W26408   2.371   2.821  14.858
67148W        W26409  24.691  44.949  13.426
67149W        W26410   5.844   8.226  11.453
67150W        W26411  14.814  39.464   4.807
67151W        W26412  10.318  12.300  11.511
67152W        W26413  13.687  34.016   2.369
67153W        W26414   3.792  16.600  10.589
67154W        W26415  20.585   7.719  12.908
67155W        W26416  38.009   7.204  10.579
67156W        W26417  20.637  34.055  10.888
67157W        W26418  30.653   1.367   3.359
67158W        W26419  32.107   9.376  14.029
67159W        W26420   0.451  25.611   1.848
67160W        W26421  42.417  11.207  14.850
67161W        W26422  25.004  13.730   0.918
67162W        W26423  15.260  42.330  12.046
67163W        W26424   0.747  15.754  12.855
67164W        W26425  18.760  15.600   1.915
67165W        W26426  23.995  37.858   2.371
67166W        W26427  21.230   1.772  11.539
67167W        W26428  35.031   2.750   4.151
67168W        W26429  22.503   6.393  13.863
67169W        W26430  35.914  38.535   1.242
67170W        W26431  39.823  43.868   1.820
67171W        W26432  44.422  37.882  10.896
67172W        W26433   6.214   3.760   5.148
67173W        W26434  16.689  23.093  13.416
67174W        W26435  38.031  14.751  10.473
67175W        W26436  13.349   0.274  10.446
67176W        W26437  33.421  35.911   1.337
67177W        W26438  20.101   5.761  12.971
67178W        W26439  12.305  13.348   0.910
67179W        W26440   6.281  10.222   4.346
67180W        W26441   3.375  20.528  10.978
67181W        W26442  44.809  16.225  13.329
67182W        W26443  39.372  18.239   2.285
67183W        W26444  40.502  43.272  12.031
67184W        W26445  22.550  22.073  10.593
67185W        W26446  14.338   9.718   1.446
67186W        W26447  24.975  12.180  12.470
67187W        W26448  32.504  27.500   4.342
67188W        W26449  19.759   6.912   4.636
67189W        W26450  38.821  32.019   5.211
67190W        W26451   0.269   6.319   4.326
67191W        W26452   3.857  37.446   1.927
67192W        W26453  41.438  34.597   3.728
67193W        W26454  32.064  24.652  11.914
67194W        W26455  41.789  18.052   0.337
67195W        W26456  21.032  37.951   2.291
67196W        W26457  19.193   1.805  14.495
67197W        W26458  21.592  28.185  10.488
67198W        W26459  14.698  10.841   3.326
67199W        W26460  18.122  20.607  10.526
67200W        W26461  36.933  24.613  14.415
67201W        W26462   0.843  10.853   0.346
67202W        W26463  34.941  10.723  12.566
67203W        W26464  30.604  27.985  13.926
67204W        W26465   5.224  40.885  13.419
67205W        W26466  25.627  12.698   4.180
67206W        W26467  14.831  14.265  13.022
67207W        W26468  37.925  35.965   1.394
67208W        W26469  14.734   2.412   2.684
67209W        W26470  24.980   2.414  12.096
67210W        W26471  24.572  43.423   0.804
67211W        W26472  39.031  19.134  10.462
67212W        W26473   7.212  23.101  14.354
67213W        W26474  17.101   1.864   1.334
67214W        W26475  19.535  40.046  10.602
67215W        W26476  43.307   3.904   2.312
67216W        W26477  21.520  39.883  13.027
67217W        W26478  29.154  40.840  13.902
67218W        W26479  40.829  22.043   0.329
67219W        W26480  42.909  23.496  13.025
67220W        W26481  10.688   6.353   2.306
67221W        W26482  31.594  24.628  12.361
67222W        W26483  42.285  41.435   2.276
67223W        W26484   2.937  37.943  13.993
67224W        W26485  24.535  11.666  14.516
67225W        W26486  27.526  32.556  14.878
67226W        W26487   2.371  28.458  12.059
67227W        W26488  44.844  40.493  12.368
67228W        W26489   0.296  29.525   2.829
67229W        W26490  19.059  21.655   1.366
67230W        W26491  22.062  15.715  13.966
67231W        W26492  17.567   7.727   3.722
67232W        W26493   4.230   9.705   4.825
67233W        W26494  12.726  33.999   2.780
67234W        W26495  31.035  11.258  11.554
67235W        W26496  26.655  38.919   0.259
67236W        W26497  33.451  28.097  11.385
67237W        W26498   5.405  35.079   0.796
67238W        W26499  23.585  42.424   0.451
67239W        W26500  42.849  32.120  13.485
67240W        W26501  30.614  36.925  13.868
67241W        W26502  37.475  35.564  13.424
67242W        W26503   3.382  44.861   4.192
67243W        W26504  37.907  32.077   1.881
67244W        W26505  31.934  42.496   3.306
67245W        W26506  19.547  12.733  10.579
67246W        W26507  39.980  19.594   5.251
67247W        W26508  35.108  44.424   2.687
67248W        W26509   4.903  32.051  11.066
67249W        W26510   5.350  28.997   2.770
67250W        W26511  20.582   5.790  11.097
67251W        W26512  43.833  34.056   2.804
67252W        W26513   4.809  20.633   4.129
67253W        W26514  25.607  25.018   2.901
67254W        W26515  28.183  23.597  14.438
67255W        W26516  19.671  17.154  11.606
67256W        W26517  34.590  15.123   3.865
67257W        W26518  43.354   1.893  13.411
67258W        W26519  41.958   5.228   4.610
67259W        W26520  41.377  40.913   3.296
67260W        W26521  28.125  32.915  14.289
67261W        W26522  17.103  32.978  10.917
67262W        W26523  18.123  29.089  14.442
67263W        W26524   3.219  30.030  12.418
67264W        W26525  33.034   8.869   3.271
67265W        W26526  24.615  27.659   4.774
67266W        W26527  21.088  42.478   2.697
67267W        W26528  39.906  31.471   4.133
67268W        W26529   9.694  24.013  14.438
67269W        W26530  15.177   4.228  12.895
67270W        W26531  32.989  19.544  14.998
67271W        W26532  25.049  22.614   5.305
67272W        W26533  17.611  29.169  10.589
67273W        W26534  23.560  10.208   3.338
67274W        W26535  35.367  20.213   4.182
67275W        W26536   4.767  33.943   2.391
67276W        W26537  41.454   8.162   4.723
67277W        W26538   7.173  23.166   4.752
67278W        W26539  29.964  15.244   1.784
67279W        W26540  22.551  29.957   9.436
67280W        W26541  29.099  10.229   1.437
67281W        W26542  16.091  10.878   2.769
67282W        W26543   5.427   7.909  12.466
67283W        W26544  11.748  40.844   2.715
67284W        W26545  39.916  19.640   3.194
67285W        W26546  36.420   9.765   4.804
67286W        W26547  11.204  39.984  12.047
67287W        W26548  35.456  41.790   3.684
67288W        W26549  37.500   6.710  12.944
67289W        W26550  26.996  25.483  14.425
67290W        W26551   5.764   1.772  13.376
67291W        W26552  38.056  33.621  14.874
67292W        W26553  29.600  29.068   0.816
67293W        W26554  43.420  17.203  14.948
67294W        W26555   2.817  35.907   2.190
67295W        W26556  31.404  14.628   3.370
67296W        W26557   4.225  19.629   4.183
67297W        W26558  18.725  31.578  12.408
67298W        W26559  30.506  17.297   4.743
67299W        W26560  13.226  27.647   4.787
67300W        W26561  22.551  15.166  12.397
67301W        W26562  17.681  19.055   0.464
67302W        W26563  15.612  18.189   4.717
67303W        W26564  23.138  34.893  14.937
67304W        W26565  28.537   0.763  13.861
67305W        W26566  27.953  15.096   1.359
67306W        W26567  18.646  20.231   0.243
67307W        W26568  22.126  38.440  11.372
67308W        W26569  20.070  28.100   4.668
67309W        W26570  28.090  38.447   0.443
67310W        W26571  30.076  26.958  13.790
67311W        W26572  32.474  43.017   3.277
67312W        W26573  17.703  28.133  12.881
67313W        W26574  16.708  41.901  11.537
67314W        W26575  43.450  37.038  14.922
67315W        W26576  11.292  30.622  12.880
67316W        W26577  38.029  23.013   4.143
67317W        W26578  35.945  27.453  13.324
67318W        W26579   6.255   6.797  10.010
67319W        W26580  12.639   3.257   2.857
67320W        W26581  30.047  35.015   3.186
67321W        W26582  16.679  43.425  10.437
67322W        W26583   1.437   9.877  12.960
67323W        W26584  15.126  12.702   1.878
67324W        W26585  38.917  34.425   1.785
67325W        W26586  35.931  25.078   2.347
67326W        W26587  23.726  33.611   2.678
67327W        W26588  32.615  27.183   3.651
67328W        W26589   3.821  23.593   4.603
67329W        W26590  24.978  18.294  12.913
67330W        W26591  37.907   8.782  10.017
67331W        W26592  19.614  22.124  11.503
67332W        W26593  41.893   4.437   1.418
67333W        W26594  39.853   0.819   3.858
67334W        W26595  32.554  42.844   0.759
67335W        W26596  41.954  24.078   3.229
67336W        W26597  23.107  18.275   4.719
67337W        W26598  38.924   8.235   1.386
67338W        W26599  23.573  11.171   0.454
67339W        W26600   0.383  20.745  10.558
67340W        W26601  10.198  25.043   1.928
67341W        W26602  42.347  24.164  14.309
67342W        W26603  35.058  35.396   3.777
67343W        W26604  19.078  34.615   1.234
67344W        W26605  42.897  13.164   4.677
67345W        W26606  20.734  28.946  14.325
67346W        W26607  18.219  26.649  10.568
67347W        W26608   7.867  22.549   0.765
67348W        W26609  23.212  26.192   2.809
67349W        W26610  31.466  21.252   0.349
67350W        W26611   6.369  34.872   1.415
67351W        W26612  44.915  10.185   2.755
67352W        W26613  42.009   9.839  13.884
67353W        W26614   6.776  36.515   1.778
67354W        W26615  43.486  20.536   2.211
67355W        W26616  37.983  34.879  14.027
67356W        W26617  41.332  41.419  11.030
67357W        W26618  17.737  29.432  12.347
67358W        W26619  34.009  39.443  11.974
67359W        W26620   7.899   8.849   0.396
67360W        W26621   0.911  19.750  10.481
67361W        W26622  10.726  36.848  12.058
67362W        W26623   4.360  19.228  10.941
67363W        W26624   6.827   2.959  14.422
67364W        W26625   4.759   2.829  13.842
67365W        W26626  23.680   4.327   4.604
67366W        W26627  39.008  20.759  13.878
67367W        W26628  27.689  40.804   0.910
67368W        W26629  43.915  31.140   1.829
67369W        W26630  26.081  42.904   2.344
67370W        W26631  12.172  28.607  11.042
67371W        W26632  40.529  28.010  11.511
67372W        W26633  25.195  44.458   2.271
67373W        W26634  22.180  37.497  12.574
67374W        W26635  33.379   4.721  12.353
67375W        W26636  36.963  39.987  14.285
67376W        W26637  28.151  41.402   0.254
67377W        W26638  28.990   3.895  13.390
67378W        W26639  27.562  15.578  11.982
67379W        W26640  44.006   1.385   1.911
67380W        W26641  42.317  34.865   1.934
67381W        W26642  15.602  25.625   4.765
67382W        W26643   0.805  13.280  12.569
67383W        W26644  13.135   6.343  12.026
67384W        W26645   3.862  19.677  14.980
67385W        W26646  30.498  16.266  14.984
67386W        W26647   2.875  31.051  11.417
67387W        W26648  32.090  41.415   3.167
67388W        W26649   5.690  17.125   4.757
67389W        W26650  44.292  37.964   1.432
67390W        W26651  16.686  38.012   4.200
67391W        W26652  21.156  36.450   4.127
67392W        W26653  37.040  25.629  12.562
67393W        W26654  41.836  21.638  14.879
67394W        W26655  42.800  15.679  13.539
67395W        W26656  10.182  14.227   0.844
67396W        W26657  33.045   5.882   4.135
67397W        W26658  16.693  11.244   1.825
67398W        W26659  38.051  18.647   4.306
67399W        W26660  12.806  24.019   0.845
67400W        W26661  14.192  29.623  10.407
67401W        W26662   0.950  21.615   4.338
67402W        W26663   3.452   5.828   4.172
67403W        W26664  18.220  34.441   0.873
67404W        W26665  39.519  17.575  11.515
67405W        W26666  25.178  39.383  14.031
67406W        W26667  34.079  14.591   1.259
67407W        W26668  38.445  36.011   3.854
67408W        W26669  23.618   7.292   4.609
67409W        W26670  20.540  14.154   0.953
67410W        W26671  30.940  16.301  13.333
67411W        W26672   7.672   0.367  11.863
67412W        W26673  17.115  11.744   0.824
67413W        W26674  18.713  39.551  11.915
67414W        W26675  44.921   3.913   1.854
67415W        W26676  30.544  15.818  14.785
67416W        W26677   7.172   7.880   1.416
67417W        W26678  36.448  10.683  11.085
67418W        W26679   0.771  33.550   5.111
67419W        W26680  27.098  27.498  14.450
67420W        W26681  28.065  29.935  13.944
67421W        W26682   6.185  41.026   0.363
67422W        W26683  31.635  11.758  12.499
67423W        W26684  36.928  37.070   0.388
67424W        W26685   8.769  39.959   2.363
67425W        W26686  36.536  23.110   3.224
67426W        W26687  23.209  44.454  10.888
67427W        W26688  16.721   8.325  10.891
67428W        W26689  42.400  27.657  12.994
67429W        W26690  24.115  19.547  10.968
67430W        W26691  19.245  11.790   1.420
67431W        W26692  32.116  12.850   4.157
67432W        W26693  38.956  39.458  11.420
67433W        W26694  33.061  20.523  14.774
67434W        W26695  19.267   3.373   0.422
67435W        W26696  14.732  13.341  13.929
67436W        W26697  40.810  33.512   3.266
67437W        W26698   6.378  34.532   2.255
67438W        W26699  14.331  29.597  14.766
67439W        W26700   5.690  10.236   4.271
67440W        W26701  29.658  15.746   2.878
67441W        W26702   5.867   2.881   0.426
67442W        W26703  40.882  43.466   3.773
67443W        W26704  41.347  42.928  10.578
67444W        W26705  33.043   6.210  14.315
67445W        W26706  26.143  23.240   1.378
67446W        W26707  30.482   1.923   3.305
67447W        W26708   2.341  13.228  11.119
67448W        W26709  33.606   7.367   9.674
67449W        W26710  31.411  19.085   4.603
67450W        W26711  32.590  20.601   0.353
67451W        W26712  23.060  41.389  13.396
67452W        W26713  17.174  22.649  11.884
67453W        W26714  36.898  28.591   4.737
67454W        W26715  38.391   1.736  11.522
67455W        W26716  22.659  21.592   4.727
67456W        W26717  36.428  19.734   5.224
67457W        W26718   0.871   8.363  13.454
67458W        W26719  30.125  44.304   0.885
67459W        W26720  29.448  31.431   2.818
67460W        W26721  14.667  25.026  14.903
67461W        W26722  31.152  18.089   0.394
67462W        W26723  18.711  32.993   1.264
67463W        W26724   7.367  25.181   1.699
67464W        W26725   2.916  18.215  14.373
67465W        W26726  12.268   3.396  13.882
67466W        W26727  27.147   9.839   4.817
67467W        W26728  43.361  43.934  13.473
67468W        W26729  28.125  27.572   0.424
67469W        W26730  37.922  18.230   1.763
67470W        W26731  11.249  34.888  13.546
67471W        W26732   1.408  10.761  14.371
67472W        W26733  12.281  26.054  13.819
67473W        W26734  25.493  35.064   4.339
67474W        W26735  37.573  39.883   4.598
67475W        W26736  30.580  15.312   2.218
67476W        W26737   7.377  13.764  14.972
67477W        W26738  31.552   3.424   1.855
67478W        W26739  25.969  17.139   3.809
67479W        W26740   2.731  33.452  12.369
67480W        W26741   5.839  12.752   1.842
67481W        W26742  15.650  12.825  10.921
67482W        W26743   6.384  29.962   3.682
67483W        W26744   7.216   9.854  13.465
67484W        W26745  29.123   5.349  11.415
67485W        W26746  18.632  32.512  13.444
67486W        W26747  12.150  25.652  10.523
67487W        W26748  12.783   2.825   2.393
67488W        W26749  24.187  38.467   2.844
67489W        W26750   1.473   1.944   2.177
67490W        W26751  38.023  10.186   5.305
67491W        W26752  34.609  20.710   0.336
67492W        W26753  37.552   7.898  11.904
67493W        W26754  23.995   0.911  14.350
67494W        W26755  11.327  36.894   0.261
67495W        W26756  11.645  24.005   2.274
67496W        W26757  44.486  14.672  10.089
67497W        W26758   4.288  27.195   0.953
67498W        W26759  35.953  27.064  13.536
67499W        W26760  27.515  16.606   3.161
67500W        W26761  17.243   3.874  13.416
67501W        W26762  35.977  16.800   2.705
67502W        W26763  25.027  10.785  14.309
67503W        W26764   7.250  19.042   3.301
67504W        W26765  40.423  16.096   0.329
67505W        W26766  40.520   9.856  12.537
67506W        W26767  38.458  26.095  12.504
67507W        W26768  44.994   0.888  14.451
67508W        W26769   9.206   9.859   4.723
67509W        W26770   5.843  15.124   3.214
67510W        W26771  11.348   3.905   4.646
67511W        W26772  17.777  31.569  14.873
67512W        W26773   7.821  34.469   3.803
67513W        W26774  39.509  10.868  10.491
67514W        W26775  31.047  19.722  13.491
67515W        W26776  32.493   2.935  10.964
67516W        W26777  18.282   5.391   0.748
67517W        W26778  43.363  34.040  13.857
67518W        W26779  38.462  44.381   0.904
67519W        W26780  31.550  43.318  12.941
67520W        W26781  29.109   3.353   3.797
67521W        W26782   1.958  24.702  14.982
67522W        W26783  22.031  37.941   3.305
67523W        W26784   9.275   9.346   4.255
67524W        W26785  17.075  13.615  14.379
67525W        W26786  35.915  27.459   1.258
67526W        W26787  17.061   1.317   4.699
67527W        W26788  13.805   1.777   4.688
67528W        W26789  15.643   3.917   9.929
67529W        W26790   5.907  10.355   0.940
67530W        W26791   5.798  20.210  14.355
67531W        W26792  11.155  36.048  13.989
67532W        W26793  35.539  16.699  14.382
67533W        W26794   2.753   7.185   0.351
67534W        W26795  16.776  23.068   4.676
67535W        W26796  24.682  30.505  12.496
67536W        W26797  11.746  14.330  13.926
67537W        W26798  19.052  21.670   0.394
67538W        W26799  42.348  37.042  12.577
67539W        W26800  15.242   1.751   3.785
67540W        W26801   2.445  22.544  13.983
67541W        W26802  34.015  13.281  13.397
67542W        W26803   1.864   6.235   2.271
67543W        W26804  12.275   5.274  11.485
67544W        W26805   2.334  13.736  10.440
67545W        W26806  15.102   4.230   1.333
67546W        W26807  43.453  26.682  14.786
67547W        W26808  17.192  13.282  10.431
67548W        W26809  23.541  26.545   4.234
67549W        W26810  20.640   4.780   1.222
67550W        W26811   7.383  14.797   2.714
67551W        W26812   9.647  10.696   0.754
67552W        W26813  43.389  10.338   1.733
67553W        W26814  34.527  10.822   3.374
67554W        W26815  11.701  11.322  14.415
67555W        W26816  10.274   1.422   3.684
67556W        W26817  25.024  15.685   3.193
67557W        W26818  42.290   3.770   1.787
67558W        W26819  25.207  31.534   2.265
67559W        W26820   0.480  25.042   4.646
67560W        W26821  29.077  38.993   2.780
67561W        W26822  30.935  27.588  11.103
67562W        W26823  25.212  41.026  14.798
67563W        W26824  14.122  43.915   4.335
67564W        W26825  37.892  31.479  14.397
67565W        W26826   4.849   0.970  10.993
67566W        W26827  37.547   8.715  13.037
67567W        W26828   9.662  35.454   3.639
67568W        W26829  39.415  30.561  10.496
67569W        W26830  32.092  22.574   1.319
67570W        W26831  18.050  42.332  10.424
67571W        W26832  21.569  23.122   0.822
67572W        W26833   0.938  10.340   1.716
67573W        W26834   8.683  12.748  11.380
67574W        W26835   6.752  30.418   3.766
67575W        W26836  40.320  21.065   2.790
67576W        W26837  34.018  19.113  13.369
67577W        W26838  13.310   5.875   2.181
67578W        W26839  41.030  27.039   4.756
67579W        W26840  22.578  10.344   4.176
67580W        W26841   3.378  27.953   1.905
67581W        W26842  16.635  38.479  12.486
67582W        W26843  33.998  38.971   0.369
67583W        W26844  29.526  19.053  10.464
67584W        W26845  13.339   4.828  10.415
67585W        W26846  37.427  33.545   1.280
67586W        W26847  35.010  34.499  14.479
67587W        W26848  11.700  31.971  14.290
67588W        W26849  11.209  26.537   0.400
67589W        W26850  30.451  43.788   4.315
67590W        W26851   4.262  35.064  11.605
67591W        W26852  26.113  34.920  14.477
67592W        W26853  30.589  30.446  14.426
67593W        W26854   3.332  43.840   3.218
67594W        W26855  19.163  43.795   4.219
67595W        W26856  21.112  21.021  14.382
67596W        W26857   3.828  44.336   2.813
67597W        W26858  32.101  15.793   1.717
67598W        W26859  35.413  17.776   3.153
67599W        W26860  25.665  27.952  12.906
67600W        W26861  12.806  14.774   1.307
67601W        W26862  12.642  14.241   4.118
67602W        W26863  40.460   6.854   0.305
67603W        W26864  12.146  12.618   4.713
67604W        W26865  18.148  23.549  10.943
67605W        W26866  22.024   9.851   3.815
67606W        W26867  23.151  37.366   4.704
67607W        W26868  10.317  30.978  12.999
67608W        W26869  28.668  15.149   0.765
67609W        W26870   4.334  41.892   4.660
67610W        W26871  10.296  14.669   2.395
67611W        W26872  31.621  35.904  13.387
67612W        W26873   8.220  31.406  12.905
67613W        W26874  44.754   3.730  13.485
67614W        W26875  37.974  19.727  11.907
67615W        W26876  12.327  37.523   1.725
67616W        W26877  37.578  26.563   1.923
67617W        W26878  28.457  23.993  12.463
67618W        W26879  30.438  19.092   4.298
67619W        W26880  29.973  13.333  10.502
67620W        W26881  40.508   5.271  12.395
67621W        W26882  30.909  44.471   3.837
67622W        W26883  33.982  10.278   4.311
67623W        W26884  21.693  10.701   0.857
67624W        W26885  38.570   8.786   1.704
67625W        W26886  18.093  41.831   0.771
67626W        W26887  43.417  19.543  14.333
67627W        W26888  26.002  14.727   1.270
67628W        W26889  13.201  40.007  11.506
67629W        W26890  38.883   1.364  10.887
67630W        W26891  25.114  31.069  14.370
67631W        W26892   4.760  36.082   3.302
67632W        W26893  37.006  35.398   1.757
67633W        W26894  24.696  40.418   3.218
67634W        W26895  30.924  26.145   2.226
67635W        W26896  35.384  25.127  14.918
67636W        W26897  36.057   6.686   2.766
67637W        W26898  39.953  21.723   4.131
67638W        W26899  27.618  30.029   2.752
67639W        W26900  31.613  36.908   3.318
67640W        W26901  28.107  24.492   4.658
67641W        W26902  24.131  41.006   3.319
67642W        W26903   3.943  28.131  11.945
67643W        W26904  41.516  31.931   1.897
67644W        W26905  30.490  24.013   5.164
67645W        W26906  24.175  18.620  10.540
67646W        W26907  38.056   1.977   3.756
67647W        W26908  17.693   0.475  11.981
67648W        W26909   8.801  19.280  11.069
67649W        W26910  37.919  26.033  13.518
67650W        W26911  36.355  21.717  13.983
67651W        W26912  44.996  10.138   1.378
67652W        W26913  35.457   8.293   3.280
67653W        W26914  20.033  39.485   4.164
67654W        W26915   4.870  20.076  11.501
67655W        W26916   7.709  30.602  10.603
67656W        W26917  19.747  41.434   4.817
67657W        W26918   3.318  29.127   4.646
67658W        W26919   3.803  32.135  10.515
67659W        W26920  41.825  40.342  14.351
67660W        W26921   2.855  40.993  11.478
67661W        W26922  15.784   0.415  11.043
67662W        W26923  17.114  42.883  14.015
67663W        W26924  24.693  29.635   3.244
67664W        W26925  29.143  17.728  10.484
67665W        W26926  27.022  21.612   4.598
67666W        W26927   5.911  10.315  11.513
67667W        W26928  22.168  11.273   1.790
67668W        W26929  14.699  42.988  10.611
67669W        W26930  19.162  18.076  14.966
67670W        W26931  40.309  20.569  10.599
67671W        W26932  34.561  16.714  14.025
67672W        W26933  21.087  23.518  13.459
67673W        W26934  10.695   3.218   5.217
67674W        W26935  22.242  16.615   4.264
67675W        W26936  13.762  31.923   3.740
67676W        W26937   7.226  13.281   4.778
67677W        W26938  14.815   5.438   0.807
67678W        W26939  39.552  25.555   1.428
67679W        W26940  20.201  23.509   9.927
67680W        W26941  39.543  10.274   1.441
67681W        W26942  33.121   5.198   4.818
67682W        W26943  36.534  40.860   4.183
67683W        W26944   8.379   9.166  11.908
67684W        W26945  34.121  24.146   0.428
67685W        W26946  32.073  13.715  12.828
67686W        W26947  37.496   2.805  11.072
67687W        W26948  12.225  24.979   4.163
67688W        W26949  19.658  44.285   1.217
67689W        W26950   9.859  17.780  12.021
67690W        W26951  32.595  43.818   1.313
67691W        W26952   8.744   0.813  12.406
67692W        W26953  26.047  33.032   5.162
67693W        W26954  41.039  41.958   2.706
67694W        W26955  42.495  41.333  14.462
67695W        W26956  34.613  39.894   4.601
67696W        W26957  10.744  31.455   2.822
67697W        W26958  25.158   4.446  13.386
67698W        W26959  29.089  33.973  10.569
67699W        W26960  32.052   4.215  12.359
67700W        W26961  26.049  18.093   2.229
67701W        W26962  26.650  41.796  14.845
67702W        W26963   9.695   4.879   4.719
67703W        W26964   9.674  37.050   1.726
67704W        W26965  38.459  12.688   1.913
67705W        W26966  44.957  22.577   2.766
67706W        W26967  24.191  25.196   3.735
67707W        W26968  30.032  22.542   0.396
67708W        W26969  43.966  31.105   2.883
67709W        W26970  15.091   8.825   3.347
67710W        W26971  15.616   2.244   3.679
67711W        W26972  39.959  18.777   1.303
67712W        W26973  38.012  21.023  14.467
67713W        W26974   6.874   6.196   2.723
67714W        W26975  11.133  12.654  13.464
67715W        W26976  38.821  40.867   0.244
67716W        W26977  12.151  38.530  14.415
67717W        W26978  35.947  32.487   4.598
67718W        W26979   5.378  12.283   1.811
67719W        W26980  19.684  20.145   2.191
67720W        W26981   9.356  30.500  14.008
67721W        W26982  20.193  35.533   0.910
67722W        W26983  34.911  44.323  13.509
67723W        W26984   5.896   1.967  10.528
67724W        W26985  43.379  38.437   3.334
67725W        W26986  11.771  20.088   3.721
67726W        W26987  17.686   0.911   3.236
67727W        W26988   0.894  21.240   5.247
67728W        W26989  10.803   7.175  11.405
67729W        W26990  11.642   3.261  14.514
67730W        W26991  15.604  28.639   0.335
67731W        W26992  28.643  10.340  13.446
67732W        W26993  37.039  41.294   1.844
67733W        W26994  18.249  20.137   1.318
67734W        W26995   0.747  37.443   2.839
67735W        W26996  39.519   5.795  12.003
67736W        W26997  41.960   0.466   1.751
67737W        W26998   2.838  24.501  14.325
67738W        W26999  18.729  17.786  14.780
67739W        W27000  31.991   1.406   4.157
67740W        W27001  35.980   0.258   1.915
67741W        W27002  33.454  16.656  11.067
67742W        W27003   7.207  24.994   5.105
67743W        W27004  14.316   0.850   3.150
67744W        W27005  32.530  38.045  11.988
67745W        W27006  29.074  26.097  14.013
67746W        W27007   9.822  41.306  13.980
67747W        W27008  15.186  33.983   1.251
67748W        W27009  36.461  33.068   3.722
67749W        W27010  13.345  28.135  12.076
67750W        W27011   2.924  42.808   1.428
67751W        W27012   6.307  31.578   3.704
67752W        W27013  18.635  29.467  13.525
67753W        W27014   8.175  30.526  13.389
67754W        W27015  33.437  38.989  13.482
67755W        W27016   6.795  39.419  14.301
67756W        W27017  41.294  41.352   4.268
67757W        W27018  20.624   2.730   0.784
67758W        W27019  19.077  35.577   3.869
67759W        W27020   1.957   4.392  11.996
67760W        W27021  14.184  30.451  13.479
67761W        W27022  15.771  40.988  12.085
67762W        W27023  35.069  17.770  14.315
67763W        W27024   3.911  42.816  14.315
67764W        W27025   6.347  11.198   3.795
67765W        W27026  42.345  30.479   1.799
67766W        W27027  21.208  11.692   4.836
67767W        W27028   3.289   8.797   1.237
67768W        W27029  18.592   2.785  10.919
67769W        W27030  31.997  14.593   4.231
67770W        W27031  12.313  27.075   4.148
67771W        W27032  37.939  16.779   3.149
67772W        W27033   7.175  26.608   1.906
67773W        W27034   4.441  11.804  13.343
67774W        W27035  25.037  16.073   4.168
67775W        W27036  32.394  39.940  14.463
67776W        W27037   9.392  20.621   4.778
67777W        W27038   7.808  32.906   1.923
67778W        W27039   9.380   6.690   4.220
67779W        W27040  30.524  38.558  11.490
67780W        W27041   2.813   8.164   2.240
67781W        W27042  17.118   7.825   2.206
67782W        W27043   0.815   0.745   2.379
67783W        W27044   7.770  32.006   4.632
67784W        W27045   0.345  14.669   1.903
67785W        W27046  37.359  37.004   4.674
67786W        W27047  19.721  19.188   1.364
67787W        W27048   2.426   8.348   3.820
67788W        W27049  18.109   7.329  10.517
67789W        W27050  21.149  29.919  14.387
67790W        W27051  34.958  40.425   3.366
67791W        W27052   1.458  44.428   4.714
67792W        W27053  39.909  24.074  11.529
67793W        W27054   6.255  35.088   1.928
67794W        W27055   5.822  37.538   0.340
67795W        W27056  28.607   9.379  11.994
67796W        W27057  39.396  10.777   3.188
67797W        W27058   7.368  12.255   3.207
67798W        W27059  32.080   2.730   0.466
67799W        W27060  33.520   3.406   1.303
67800W        W27061  38.326  18.106  11.378
67801W        W27062  22.185  29.455  14.414
67802W        W27063  10.766  21.096  14.318
67803W        W27064   0.419  21.671   4.712
67804W        W27065  29.563  36.481   4.140
67805W        W27066  41.375  13.346  13.867
67806W        W27067  28.161   3.295   0.807
67807W        W27068  39.004  14.766  11.580
67808W        W27069  28.959  29.123   3.756
67809W        W27070  40.955   1.385   3.149
67810W        W27071  21.692  36.022  14.959
67811W        W27072  12.857  35.534   2.266
67812W        W27073   3.360  24.679  10.474
67813W        W27074   0.962  38.559   4.721
67814W        W27075  32.133   4.421  14.007
67815W        W27076  40.442  18.788   3.277
67816W        W27077  37.551   3.842   2.358
67817W        W27078  13.682  39.378   4.639
67818W        W27079  41.788  10.206   1.278
67819W        W27080  12.128   6.414   4.224
67820W        W27081  14.828  11.166   4.279
67821W        W27082  29.539  34.500   0.317
67822W        W27083   7.375  31.490  12.351
67823W        W27084  10.312  41.032  13.350
67824W        W27085   7.211  27.059   1.253
67825W        W27086   1.251  22.057  11.562
67826W        W27087  29.151  20.640  11.552
67827W        W27088   5.749   1.941  11.403
67828W        W27089  37.378  28.544   1.835
67829W        W27090  28.470  28.964   4.315
67830W        W27091  40.980  12.130   4.799
67831W        W27092  42.956  13.685  13.416
67832W        W27093  30.969  44.975  12.054
67833W        W27094  23.516  40.992   1.426
67834W        W27095  40.416  26.511  12.347
67835W        W27096  26.037  31.059  13.403
67836W        W27097  39.505  22.088  12.023
67837W        W27098  42.406  26.461   4.239
67838W        W27099  20.570  35.509   3.844
67839W        W27100   4.759  34.452  14.334
67840W        W27101  16.813  23.238   3.229
67841W        W27102  18.230  43.460   4.688
67842W        W27103  16.761   6.808  12.505
67843W        W27104  27.031  30.489  14.349
67844W        W27105  31.064  32.119   2.246
67845W        W27106  27.029  26.673  12.454
67846W        W27107   0.296   5.707  14.935
67847W        W27108  16.167  44.278  11.375
67848W        W27109   4.212  22.109  10.905
67849W        W27110  17.622  29.938  13.804
67850W        W27111  21.723   8.300   2.223
67851W        W27112  34.995   8.343   1.302
67852W        W27113   2.751  37.084   2.412
67853W        W27114   4.319  30.955   4.651
67854W        W27115  12.253  15.100   3.710
67855W        W27116  27.185  10.169  13.322
67856W        W27117  10.859  17.591   4.254
67857W        W27118  43.939  31.562   2.798
67858W        W27119  16.581  11.769  13.817
67859W        W27120  13.233   4.818  14.991
67860W        W27121  42.305  40.303   2.244
67861W        W27122  24.189   5.400  11.120
67862W        W27123   8.844  31.626   3.167
67863W        W27124  19.185   9.162   9.985
67864W        W27125  10.692  42.372  12.080
67865W        W27126  11.849  10.200  11.455
67866W        W27127  23.106   4.357  12.037
67867W        W27128   7.838  29.994  14.836
67868W        W27129  34.385  32.541  11.104
67869W        W27130  19.074  10.694  13.994
67870W        W27131  34.939   3.452  10.483
67871W        W27132  19.695   1.872   4.193
67872W        W27133  43.283  12.181  12.882
67873W        W27134   2.303  12.714   3.197
67874W        W27135  44.755  35.102  12.383
67875W        W27136  36.968  12.276  12.533
67876W        W27137  44.332   3.341   3.176
67877W        W27138  25.062  17.166  11.460
67878W        W27139   8.847  41.481   4.727
67879W        W27140  32.991   8.178   0.334
67880W        W27141  35.856  22.198   1.767
67881W        W27142  23.167  16.131  14.436
67882W        W27143  25.021  27.175  12.553
67883W        W27144  17.571   2.958  12.921
67884W        W27145  39.898  37.422   4.157
67885W        W27146   9.827  38.005  14.354
67886W        W27147  35.421  30.625   0.436
67887W        W27148  42.822  27.529  14.020
67888W        W27149  12.745  23.582   2.246
67889W        W27150  34.890  25.679   4.662
67890W        W27151  14.828   2.328   3.647
67891W        W27152  29.547  10.669   0.763
67892W        W27153  12.634  31.443  11.880
67893W        W27154  23.016  25.216   1.716
67894W        W27155  19.175  37.462  11.053
67895W        W27156  24.656   5.738  13.024
67896W        W27157  23.114   5.730   3.766
67897W        W27158  31.626   5.405   2.226
67898W        W27159   1.774  43.315  13.014
67899W        W27160  19.738  19.691   2.351
67900W        W27161  29.946  12.120   4.352
67901W        W27162  32.985  22.554  10.444
67902W        W27163  32.029   9.173   2.368
67903W        W27164  27.044   4.941   3.326
67904W        W27165  40.544  21.252   3.829
67905W        W27166  32.507  31.430   2.851
67906W        W27167   4.718  26.564  11.463
67907W        W27168  17.571  15.729  13.842
67908W        W27169   2.425  37.403   3.353
67909W        W27170   5.890  37.072   3.339
67910W        W27171  28.622   4.920  14.377
67911W        W27172  12.353  27.135  14.969
67912W        W27173  41.507  14.819   3.775
67913W        W27174  43.284  21.163  11.895
67914W        W27175  25.661   3.912  12.572
67915W        W27176  35.587  26.555  14.005
67916W        W27177  16.588  20.622  11.540
67917W        W27178  38.344  10.171   4.828
67918W        W27179   6.808  22.114  11.437
67919W        W27180  40.004  42.300  14.406
67920W        W27181  20.194  31.130   4.666
67921W        W27182  12.149  36.851   2.671
67922W        W27183  25.668  15.245   4.780
67923W        W27184  10.331   9.750   4.204
67924W        W27185  44.424  15.809  11.062
67925W        W27186  35.051  33.383  13.505
67926W        W27187  32.033  12.296  11.994
67927W        W27188  18.099  28.124   3.280
67928W        W27189  15.675   0.781  12.038
67929W        W27190  44.321  41.964   2.730
67930W        W27191  31.020  41.919  14.483
67931W        W27192  19.691   9.155   1.267
67932W        W27193  11.680   0.309   3.650
67933W        W27194  39.840   0.462   1.267
67934W        W27195  20.138  38.822  14.919
67935W        W27196  26.054   2.297   2.820
67936W        W27197  34.531  25.120  11.094
67937W        W27198  29.938  11.648   4.269
67938W        W27199  34.031  28.527   4.619
67939W        W27200   7.215  22.248   0.409
67940W        W27201   4.252  14.141  14.460
67941W        W27202  24.718  23.222  13.995
67942W        W27203  29.138  12.752  12.961
67943W        W27204  35.570   1.971   4.209
67944W        W27205  11.230  14.812  14.456
67945W        W27206   8.777  42.002   3.187
67946W        W27207   1.954  25.543  14.904
67947W        W27208  18.650  31.647   1.733
67948W        W27209  43.948  25.646  14.945
67949W        W27210  28.559  10.774   0.759
67950W        W27211  28.634  33.617   4.156
67951W        W27212   7.899  31.071   3.710
67952W        W27213  35.376  18.261   2.748
67953W        W27214  43.446   2.432   3.334
67954W        W27215  25.601  34.113  15.000
67955W        W27216   1.767   4.342   3.359
67956W        W27217  40.479  35.445   3.256
67957W        W27218  10.204  13.349  14.815
67958W        W27219   4.432  24.685   1.748
67959W        W27220  34.025  41.409  13.464
67960W        W27221   4.776  34.114   1.881
67961W        W27222   0.396  28.186   3.717
67962W        W27223  44.469  39.449  11.527
67963W        W27224   4.927  41.471   9.990
67964W        W27225   8.837  41.479   2.885
67965W        W27226  21.556  41.863  12.472
67966W        W27227  38.481   4.764  14.510
67967W        W27228  39.534  18.655   0.964
67968W        W27229   7.773  15.736   0.797
67969W        W27230  29.067  39.900  12.434
67970W        W27231  39.920  29.099   2.898
67971W        W27232   9.688   9.686   0.787
67972W        W27233  31.104  35.520  10.466
67973W        W27234  34.598  41.998  10.916
67974W        W27235   5.884   8.716   2.890
67975W        W27236  15.187  41.945  10.512
67976W        W27237   4.907  27.445   4.763
67977W        W27238  43.892  29.080   4.250
67978W        W27239   5.914  35.541   3.745
67979W        W27240  34.012   1.254   2.729
67980W        W27241  34.383  35.880  13.436
67981W        W27242   6.308  42.792   4.157
67982W        W27243  33.951  32.566  11.422
67983W        W27244  28.467  22.596   2.776
67984W        W27245   2.834   5.841  10.605
67985W        W27246  23.728  20.757  11.067
67986W        W27247  26.096  19.169   3.630
67987W        W27248  29.536   6.228  13.896
67988W        W27249  41.807  10.853   2.698
67989W        W27250  43.825  22.200  13.364
67990W        W27251  32.139  26.545  14.493
67991W        W27252  27.610  18.093   4.607
67992W        W27253  35.018  39.055   5.249
67993W        W27254  17.181  18.153  13.839
67994W        W27255   9.315  12.163  11.072
67995W        W27256  31.457  18.123   2.230
67996W        W27257   8.205  17.662  14.823
67997W        W27258   3.889  29.110  12.427
67998W        W27259  15.297  28.039   2.693
67999W        W27260  32.126  15.208  14.482
68000W        W27261  36.434  34.099   2.891
68001W        W27262  40.941  41.451  12.852
68002W        W27263  15.096  21.062  14.506
68003W        W27264  12.180  37.959   4.257
68004W        W27265   4.304   9.783  13.047
68005W        W27266  43.471  26.109  10.469
68006W        W27267  31.949  20.750   4.190
68007W        W27268  14.679  18.101  14.962
68008W        W27269  27.601  28.096  12.886
68009W        W27270  38.344  39.421   3.759
68010W        W27271  10.296  41.865   4.830
68011W        W27272  29.145  38.446  11.537
68012W        W27273   6.325  23.045   1.292
68013W        W27274  26.196   7.338  13.850
68014W        W27275  23.039  28.447  12.072
68015W        W27276  27.064  28.467  12.036
68016W        W27277   6.369  17.174  14.892
68017W        W27278  39.466  36.463   1.345
68018W        W27279   3.309   2.395  13.319
68019W        W27280  33.126  20.265  14.985
68020W        W27281  34.893  31.449   4.801
68021W        W27282  22.557  33.034   1.239
68022W        W27283  40.008  38.928   4.290
68023W        W27284  40.013  22.667   3.336
68024W        W27285  22.081  18.736   9.537
68025W        W27286  21.215   1.248   3.780
68026W        W27287   2.230  38.428  13.930
68027W        W27288  39.856   7.854  12.414
68028W        W27289  24.030  12.793   4.743
68029W        W27290  32.600  31.986  11.505
68030W        W27291   8.774  32.941  13.518
68031W        W27292   9.257  35.391  11.524
68032W        W27293  16.773  39.810  11.441
68033W        W27294   3.414  44.838  11.051
68034W        W27295  38.953   6.743  14.418
68035W        W27296  31.420  44.304   1.386
68036W        W27297  15.773  24.562  13.392
68037W        W27298  37.366   9.865   0.308
68038W        W27299   8.327  23.657  12.037
68039W        W27300  41.988  36.369  14.401
68040W        W27301   8.395  38.442   2.315
68041W        W27302  29.104  23.200  11.532
68042W        W27303  11.305  34.922   1.924
68043W        W27304   9.167  10.231  12.471
68044W        W27305  18.700  12.133  10.523
68045W        W27306   4.251  25.975   2.777
68046W        W27307  40.829   5.906   2.367
68047W        W27308  30.508  20.561  14.898
68048W        W27309   5.355  40.474  14.995
68049W        W27310  22.657   6.360  10.614
68050W        W27311  43.926  21.529  14.462
68051W        W27312  30.920  11.207  13.874
68052W        W27313  18.220  44.310   4.690
68053W        W27314  11.719  41.861  13.823
68054W        W27315   8.311  42.792   2.280
68055W        W27316  11.220  37.556   0.450
68056W        W27317   4.228  43.903   3.853
68057W        W27318  18.700  42.297  10.455
68058W        W27319  23.226  31.473  13.457
68059W        W27320  39.557  12.133  13.839
68060W        W27321  26.986  39.870  11.891
68061W        W27322  23.036   7.294  11.548
68062W        W27323  15.685   4.351   1.431
68063W        W27324  29.444   9.232   3.719
68064W        W27325  17.714  41.362   1.931
68065W        W27326  20.173   7.790  11.024
68066W        W27327  34.605  27.620   0.420
68067W        W27328  17.190  18.621   1.334
68068W        W27329  15.648  27.072   1.740
68069W        W27330   5.711   1.823   1.809
68070W        W27331   9.352  44.336   4.133
68071W        W27332  14.094  39.478   4.614
68072W        W27333  11.656   9.290  12.074
68073W        W27334   8.366   7.173   3.690
68074W        W27335  39.027   9.315   0.356
68075W        W27336  16.102   0.744   2.191
68076W        W27337  38.886  32.454   1.368
68077W        W27338  17.073  19.256  11.038
68078W        W27339   6.809  40.930   0.826
68079W        W27340  43.967  14.708   3.763
68080W        W27341  22.192   4.366   2.744
68081W        W27342   1.293  11.635   3.731
68082W        W27343   1.826  10.301   3.695
68083W        W27344   5.264  32.411   3.230
68084W        W27345  10.691  31.008  11.033
68085W        W27346  38.444  41.329   0.463
68086W        W27347  39.327  28.982  11.583
68087W        W27348  20.140  40.543  10.978
68088W        W27349  10.858   4.323   0.443
68089W        W27350  30.052  10.203  13.858
68090W        W27351   3.460  15.302  10.439
68091W        W27352  38.027   1.325   2.237
68092W        W27353  32.550  34.014  14.320
68093W        W27354   0.804  39.480  14.485
68094W        W27355   8.406  23.685   2.818
68095W        W27356   2.405  16.197  12.919
68096W        W27357  12.193  42.502   3.168
68097W        W27358  26.068  25.576  11.031
68098W        W27359  44.910  26.207  13.929
68099W        W27360  18.189  10.641   3.253
68100W        W27361  15.581  15.119  10.127
68101W        W27362  14.176  10.642  14.997
68102W        W27363  38.926  11.284  12.366
68103W        W27364   6.278   2.374   0.411
68104W        W27365  40.454  21.162   9.956
68105W        W27366  44.391   3.832  14.289
68106W        W27367  38.883  32.096  12.907
68107W        W27368   6.693  33.513   2.385
68108W        W27369  24.652  20.646   3.711
68109W        W27370  37.056  12.310  12.880
68110W        W27371  43.313  19.081   1.354
68111W        W27372  15.819  27.492  11.977
68112W        W27373  44.970  23.609  13.392
68113W        W27374  29.973  22.159  13.434
68114W        W27375  21.024  12.357   4.217
68115W        W27376  19.202   3.902  10.890
68116W        W27377  37.931  39.883  12.020
68117W        W27378  21.601  43.304  12.452
68118W        W27379   0.929   9.318  13.792
68119W        W27380   0.267  42.848  12.963
68120W        W27381   3.295  40.514   2.282
68121W        W27382  18.615   8.888   1.402
68122W        W27383  13.783   3.297  12.421
68123W        W27384  31.609   7.842  11.031
68124W        W27385  18.608   4.943   2.200
68125W        W27386  43.855  30.446  11.375
68126W        W27387  34.420   8.751   1.920
68127W        W27388  20.621   2.914  11.039
68128W        W27389  30.161  36.987   0.288
68129W        W27390   0.256  36.859  10.426
68130W        W27391  39.012   4.732  13.473
68131W        W27392   2.793  41.934  13.801
68132W        W27393  14.224   6.792   3.727
68133W        W27394   5.212  17.579  13.840
68134W        W27395  35.593   5.275   0.277
68135W        W27396  28.969   5.270   2.768
68136W        W27397  35.946  42.508  14.957
68137W        W27398   2.736  42.910   0.401
68138W        W27399   0.920   0.252  14.773
68139W        W27400  15.671  19.099  14.425
68140W        W27401  41.447   0.279   4.297
68141W        W27402  43.284   0.896  14.307
68142W        W27403   7.353  39.902  11.126
68143W        W27404  18.731  18.155   2.748
68144W        W27405  38.860  26.499  10.993
68145W        W27406   6.769  22.609   3.807
68146W        W27407  23.574  37.494   4.326
68147W        W27408  18.772   2.336  14.415
68148W        W27409  25.524   4.939   0.481
68149W        W27410   0.366   6.764   3.333
68150W        W27411  31.959   9.191  13.043
68151W        W27412  28.443   4.880   2.827
68152W        W27413   0.311  15.285   9.497
68153W        W27414  11.264  42.299  10.639
68154W        W27415  42.937  40.366   0.363
68155W        W27416  32.633   9.316  14.812
68156W        W27417  34.055  43.851  12.487
68157W        W27418  29.556  29.175  10.435
68158W        W27419   6.308  21.726  13.311
68159W        W27420  18.632  44.849  12.487
68160W        W27421   4.723  38.523  11.953
68161W        W27422  30.978  28.638  10.554
68162W        W27423  22.648  30.157   3.659
68163W        W27424   8.689  16.779  11.969
68164W        W27425  19.231  35.371  12.376
68165W        W27426  25.183   1.791  11.457
68166W        W27427  28.616  13.159   3.757
68167W        W27428   1.852   4.735   3.385
68168W        W27429   4.873   0.827   3.754
68169W        W27430  12.359  13.762  13.544
68170W        W27431  32.447  42.996   3.767
68171W        W27432  19.203  21.076   2.711
68172W        W27433  33.463   5.250   1.366
68173W        W27434  29.596  37.860  13.912
68174W        W27435  27.183  44.410  14.967
68175W        W27436  40.901  42.865   4.143
68176W        W27437  40.976  23.493   2.871
68177W        W27438   5.228   4.436  13.506
68178W        W27439  26.500  35.565   3.704
68179W        W27440  28.442  43.790  11.424
68180W        W27441  28.021  27.083  13.903
68181W        W27442  24.024  20.717  12.932
68182W        W27443  32.912  39.317   0.824
68183W        W27444  15.648   8.694   1.212
68184W        W27445   6.189   3.383  10.525
68185W        W27446   3.347  25.082  10.459
68186W        W27447  26.175  10.754  13.995
68187W        W27448  24.139  29.002  12.382
68188W        W27449   9.856   2.309   2.353
68189W        W27450  21.666  11.849   1.835
68190W        W27451  23.547  24.070   1.325
68191W        W27452  37.424  42.305   2.265
68192W        W27453  33.940  36.362   0.832
68193W        W27454  18.131  42.894  13.455
68194W        W27455  35.431  11.861   3.199
68195W        W27456  44.386   6.906  12.095
68196W        W27457  30.987  31.648  14.442
68197W        W27458  25.032   6.789   3.768
68198W        W27459   0.381  42.838  14.371
68199W        W27460  41.415  22.605  11.566
68200W        W27461   1.297  43.476   3.735
68201W        W27462  44.769  13.259  12.079
68202W        W27463  19.690  39.443  13.418
68203W        W27464  15.689   5.375   0.785
68204W        W27465  11.789  40.413  12.450
68205W        W27466   7.224  21.686   1.333
68206W        W27467  17.201  30.052   4.744
68207W        W27468  37.397  33.398   1.848
68208W        W27469  40.348  11.218  13.393
68209W        W27470  44.336  17.294  13.960
68210W        W27471   8.751  43.360   1.728
68211W        W27472   2.416  42.352   0.420
68212W        W27473  17.101  33.894   0.784
68213W        W27474  38.010  13.793  12.066
68214W        W27475  16.804  36.988   4.635
68215W        W27476  43.977  10.280   3.375
68216W        W27477  29.173  10.161  13.324
68217W        W27478  12.304   7.881   1.319
68218W        W27479  24.645  27.170   3.790
68219W        W27480  14.817   4.926  12.074
68220W        W27481  28.945  44.969  10.632
68221W        W27482   8.401  27.959   1.862
68222W        W27483  26.678  35.070  12.898
68223W        W27484  12.792  27.973   3.821
68224W        W27485   6.387  10.831  14.024
68225W        W27486  23.240   6.293  11.478
68226W        W27487  17.663  16.160  11.959
68227W        W27488  12.203  29.427  10.108
68228W        W27489   2.928  19.648   3.375
68229W        W27490   2.426  12.177   4.647
68230W        W27491  12.245  39.998   2.804
68231W        W27492  42.820  25.200  14.347
68232W        W27493   1.918  30.631  10.638
68233W        W27494  39.548  17.703  10.575
68234W        W27495   5.867  16.151  13.984
68235W        W27496  37.899  20.096   4.802
68236W        W27497  20.215   7.183  14.324
68237W        W27498  16.714  32.095   2.825
68238W        W27499  22.239  39.557  14.302
68239W        W27500  39.934  26.123   1.409
68240W        W27501  20.713  14.224  14.404
68241W        W27502  24.224  20.717  13.970
68242W        W27503  16.782   4.933  10.452
68243W        W27504   2.879  38.892   2.827
68244W        W27505  19.600   0.949  12.072
68245W        W27506   3.390  27.566   0.437
68246W        W27507  42.990  42.788  11.398
68247W        W27508  27.459  35.901  13.996
68248W        W27509   9.290  38.536  11.460
68249W        W27510   9.841  33.001  11.872
68250W        W27511  43.875  14.649  11.962
68251W        W27512  40.046  30.011  12.487
68252W        W27513  12.655   8.870   0.473
68253W        W27514  30.028  23.191  13.434
68254W        W27515   7.278  18.062  10.632
68255W        W27516  17.109  20.238   3.290
68256W        W27517  30.416  28.463   3.666
68257W        W27518  40.989  10.309  13.886
68258W        W27519  40.391   5.294  10.489
68259W        W27520   2.343  28.472  14.341
68260W        W27521  10.671  15.159   1.225
68261W        W27522   3.861  35.011  10.510
68262W        W27523   7.737  16.663  10.583
68263W        W27524  35.359  42.352   2.884
68264W        W27525  21.664  44.931  14.996
68265W        W27526  19.132  27.193   2.898
68266W        W27527  42.011   8.854   4.343
68267W        W27528   5.820  27.509   3.742
68268W        W27529   6.742   3.857   5.766
68269W        W27530  30.101  23.193  10.954
68270W        W27531  19.651  38.847   0.879
68271W        W27532  18.075  32.616  12.438
68272W        W27533  33.086  43.306  12.481
68273W        W27534  30.654  12.740   1.912
68274W        W27535  11.297  24.716  10.983
68275W        W27536   0.904  24.712   2.246
68276W        W27537  15.706  27.085   3.153
68277W        W27538  38.493   1.339   2.788
68278W        W27539  13.269  26.166  14.017
68279W        W27540  38.461   4.843  11.378
68280W        W27541  11.817  19.076   2.880
68281W        W27542  21.613  33.875   3.682
68282W        W27543  40.892  41.842  13.324
68283W        W27544   6.288  33.922   4.718
68284W        W27545  35.881  16.703  12.394
68285W        W27546  11.712  19.612   5.280
68286W        W27547  11.324  28.126   2.178
68287W        W27548  39.364   6.195  12.441
68288W        W27549  28.177  17.736   3.151
68289W        W27550  13.780   6.779  14.319
68290W        W27551   2.844  28.652   1.743
68291W        W27552  20.582  11.374   0.330
68292W        W27553  33.485   0.365  14.939
68293W        W27554  43.410   8.225  11.497
68294W        W27555  23.548   7.341   2.803
68295W        W27556  25.593  34.501   1.913
68296W        W27557  24.712  12.610  12.380
68297W        W27558  13.302  12.638  10.414
68298W        W27559  10.829  38.826  12.985
68299W        W27560  18.709  15.658  12.470
68300W        W27561  43.393  33.506  14.474
68301W        W27562   4.776  40.535   5.248
68302W        W27563  35.090  13.225  11.440
68303W        W27564  10.139   3.445  11.541
68304W        W27565   0.400  22.144   1.874
68305W        W27566  12.648  19.221  11.888
68306W        W27567  35.449  30.432  14.823
68307W        W27568  12.352  40.911   1.720
68308W        W27569  17.289   8.316   0.484
68309W        W27570  36.950  16.660  14.285
68310W        W27571  40.458  20.112  14.362
68311W        W27572  11.143   8.724  13.439
68312W        W27573   9.817  37.879  14.781
68313W        W27574  40.341  32.595  12.964
68314W        W27575  22.589  43.948  14.768
68315W        W27576  24.688  22.091  10.939
68316W        W27577  37.033   7.793  12.569
68317W        W27578  36.927  39.930  10.572
68318W        W27579  28.981  34.533   1.369
68319W        W27580  11.864   2.306   4.637
68320W        W27581  41.407  34.021  13.310
68321W        W27582  36.397  35.363   0.761
68322W        W27583  21.732  37.370  12.486
68323W        W27584  12.811  27.589  12.933
68324W        W27585  24.079  15.143   4.685
68325W        W27586  22.543  19.626   4.311
68326W        W27587  33.416  22.186  10.595
68327W        W27588  27.023  33.418   3.839
68328W        W27589  28.171   8.756   0.792
68329W        W27590  32.401   6.272   2.903
68330W        W27591  13.271  24.045  13.958
68331W        W27592   5.912   3.761  11.123
68332W        W27593  20.567   0.290   2.676
68333W        W27594  19.660   0.369  12.063
68334W        W27595   9.816  17.086   3.671
68335W        W27596  11.361  23.513  10.439
68336W        W27597   6.236  17.174   2.372
68337W        W27598  36.459  35.944   4.235
68338W        W27599   3.315   5.406   0.401
68339W        W27600  40.854  14.688   9.459
68340W        W27601   0.327  40.924   1.736
68341W        W27602  25.536   4.779  14.859
68342W        W27603  25.475  28.020  10.129
68343W        W27604  30.048  15.586   1.329
68344W        W27605   9.171  17.064   4.169
68345W        W27606   3.227   0.931   4.200
68346W        W27607   3.293  27.592  13.836
68347W        W27608  28.606  23.082   3.791
68348W        W27609  18.757  13.705   1.234
68349W        W27610  34.001  24.096   2.808
68350W        W27611  12.214  42.804   3.208
68351W        W27612  21.117  25.622   2.794
68352W        W27613  15.631  40.472   4.173
68353W        W27614   7.703  44.426  10.492
68354W        W27615  39.378  13.768   2.754
68355W        W27616  40.429   1.970  14.845
68356W        W27617  15.707   0.903  10.581
68357W        W27618  15.799  39.432   4.333
68358W        W27619  11.202  38.566   4.302
68359W        W27620   0.358  39.422  12.525
68360W        W27621  38.865   1.853  10.597
68361W        W27622  10.169  35.010   1.759
68362W        W27623  26.002  34.484   1.254
68363W        W27624  30.965  36.427  14.459
68364W        W27625  30.574  20.058   0.773
68365W        W27626  33.487  26.104  10.092
68366W        W27627  30.135  38.858   0.273
68367W        W27628  25.664  29.026  10.493
68368W        W27629  29.633  43.984  13.491
68369W        W27630  33.057   4.268   2.358
68370W        W27631   7.243  29.075   1.929
68371W        W27632  23.162  35.460   4.272
68372W        W27633  27.062   9.278  14.997
68373W        W27634  41.812  28.613   9.944
68374W        W27635  23.152  27.616   3.152
68375W        W27636  36.971  38.967  13.936
68376W        W27637  25.176  10.199  11.542
68377W        W27638  31.614  21.626  14.475
68378W        W27639  40.047   0.444  11.926
68379W        W27640  44.831  19.257  13.809
68380W        W27641  18.691  31.080  14.901
68381W        W27642  15.261  22.195   2.180
68382W        W27643  14.316  29.435   3.327
68383W        W27644   5.292   8.367   1.760
68384W        W27645   3.434   6.710   2.292
68385W        W27646  33.131  33.416   4.634
68386W        W27647  31.648  23.173  10.899
68387W        W27648   0.873  33.431  12.092
68388W        W27649   6.765  10.300   4.244
68389W        W27650  41.378  20.529   3.651
68390W        W27651  16.655  25.548  13.928
68391W        W27652  10.375  25.670  10.931
68392W        W27653  14.628   7.685   1.244
68393W        W27654  43.347  13.324   4.238
68394W        W27655  33.091  37.990   4.188
68395W        W27656  21.756  32.535   1.307
68396W        W27657  13.166  37.402   1.279
68397W        W27658  33.558   7.287  10.148
68398W        W27659  39.908   8.734  14.885
68399W        W27660   8.226   4.370   3.304
68400W        W27661  24.724   0.811  10.993
68401W        W27662  40.362  40.387   3.270
68402W        W27663  16.285   0.970   0.327
68403W        W27664  22.189  23.714   4.654
68404W        W27665  19.141  32.572   4.133
68405W        W27666   8.700  14.639  14.304
68406W        W27667  11.806  33.031  14.011
68407W        W27668   1.304  36.975  13.357
68408W        W27669   1.291  15.594   0.460
68409W        W27670  25.658   1.367  14.944
68410W        W27671  39.865   9.755  11.913
68411W        W27672  24.077  32.124   4.174
68412W        W27673   9.218   0.301  14.847
68413W        W27674  39.888   4.256  11.528
68414W        W27675  20.631  44.887  12.846
68415W        W27676  32.925   4.774  13.965
68416W        W27677   6.268   6.887  13.820
68417W        W27678   2.920  16.158  13.942
68418W        W27679  26.022   0.269  11.928
68419W        W27680  11.672  18.239  13.035
68420W        W27681   2.330  30.450   2.695
68421W        W27682  33.493  15.183   4.168
68422W        W27683  26.550  37.445   4.766
68423W        W27684  35.110  39.897   4.721
68424W        W27685   9.803  21.253  14.788
68425W        W27686  21.664  19.256   3.186
68426W        W27687  11.277  43.506  11.418
68427W        W27688  12.663   9.712   0.245
68428W        W27689  21.210  20.144   2.801
68429W        W27690  23.554  27.058   1.373
68430W        W27691  23.658  44.937  14.475
68431W        W27692  21.575   7.289  12.414
68432W        W27693  40.805   9.784  13.045
68433W        W27694  41.006  11.178   0.870
68434W        W27695  20.184  18.121   3.192
68435W        W27696  21.719  30.998   3.170
68436W        W27697  11.153   9.729   2.259
68437W        W27698  30.962  10.317  10.596
68438W        W27699   9.877  14.628   2.716
68439W        W27700  11.739  19.117   4.695
68440W        W27701  16.579  30.512  12.904
68441W        W27702  13.737  43.351  13.884
68442W        W27703   4.915  39.940  10.600
68443W        W27704  13.826  16.801   3.824
68444W        W27705  44.976  30.128   3.745
68445W        W27706  22.502  36.357  14.987
68446W        W27707  39.913  31.475  11.082
68447W        W27708   0.866  35.517  14.395
68448W        W27709  11.736  11.654   1.867
68449W        W27710  32.577   2.426   2.304
68450W        W27711  29.012  33.889  14.878
68451W        W27712  23.172  44.916  11.890
68452W        W27713  33.002  16.793   4.274
68453W        W27714  12.250  33.589  11.384
68454W        W27715  22.558  20.250  10.497
68455W        W27716   3.392   8.395  13.493
68456W        W27717   8.687   0.972  12.873
68457W        W27718  13.231   8.863  12.916
68458W        W27719  28.577  20.130   0.921
68459W        W27720   7.393  19.651  12.549
68460W        W27721  12.618  21.631   2.314
68461W        W27722  42.834  29.450  10.924
68462W        W27723  28.637   8.333   3.796
68463W        W27724  29.453  16.699   0.247
68464W        W27725  41.949  44.271  12.462
68465W        W27726  28.076  13.227   3.822
68466W        W27727  28.676   3.234   1.773
68467W        W27728  17.236  17.072   3.340
68468W        W27729  29.174  16.283   2.405
68469W        W27730   4.916  22.237   1.718
68470W        W27731  40.538  41.853   2.727
68471W        W27732   6.809   9.325   4.736
68472W        W27733   6.272  19.278  14.473
68473W        W27734   5.372  44.362  12.833
68474W        W27735   2.720  18.629   4.734
68475W        W27736   2.917  43.836   4.778
68476W        W27737  34.531  22.576  13.013
68477W        W27738  25.213  35.953   4.310
68478W        W27739   0.393  43.869  11.856
68479W        W27740  17.556  11.267  10.539
68480W        W27741  12.659  42.474  13.540
68481W        W27742   3.373  43.514   3.334
68482W        W27743  23.161  32.995   0.343
68483W        W27744   6.375   3.331   2.704
68484W        W27745  29.013  36.559   0.915
68485W        W27746  16.809  20.644  11.931
68486W        W27747  10.196  25.006  12.008
68487W        W27748   2.297   2.745  13.380
68488W        W27749   5.871  22.551   4.776
68489W        W27750  16.710   2.239  10.499
68490W        W27751  40.023  20.228  14.831
68491W        W27752  39.059   9.703   3.803
68492W        W27753  42.883  25.045   3.660
68493W        W27754  40.001  11.740  10.587
68494W        W27755   6.233  28.560   0.451
68495W        W27756  22.623  11.770  14.969
68496W        W27757  36.872  43.348  14.508
68497W        W27758   5.921   9.696  13.310
68498W        W27759  11.703  38.511   3.219
68499W        W27760  15.142   2.863   9.923
68500W        W27761   3.420  23.576  11.923
68501W        W27762  13.669  29.611  10.433
68502W        W27763  30.489  25.966   1.423
68503W        W27764   3.792   9.677   2.224
68504W        W27765  39.379  34.928  12.840
68505W        W27766   2.415  22.508  12.456
68506W        W27767  40.925  42.951   3.796
68507W        W27768  14.280  10.143   0.367
68508W        W27769  44.844  27.156   3.385
68509W        W27770  20.062  19.707   1.890
68510W        W27771  13.771  26.996  13.993
68511W        W27772  25.146  42.003  10.593
68512W        W27773  43.302  38.445   4.314
68513W        W27774  35.023   0.757   3.772
68514W        W27775  41.447  20.662  13.540
68515W        W27776  38.538  29.493  13.444
68516W        W27777   7.376  44.999   2.867
68517W        W27778   8.227  31.417  14.789
68518W        W27779  26.168  42.978  10.438
68519W        W27780  28.484  31.109  11.966
68520W        W27781  26.491  24.718  10.520
68521W        W27782   0.388  23.707   1.404
68522W        W27783  29.170  20.136   1.258
68523W        W27784  34.608  35.458  14.423
68524W        W27785  19.206  32.609   1.869
68525W        W27786  43.854  40.043  10.915
68526W        W27787  14.809  33.119  12.450
68527W        W27788  36.447  38.919   4.224
68528W        W27789   5.861  19.128  12.035
68529W        W27790  29.057   9.250  11.116
68530W        W27791  31.562   2.445   4.137
68531W        W27792  32.504  32.440   4.684
68532W        W27793  16.631  14.685  12.012
68533W        W27794   2.398   3.827  14.483
68534W        W27795  17.752   9.193   2.410
68535W        W27796  42.292  28.508   2.202
68536W        W27797  24.152  19.636   1.725
68537W        W27798   2.724   1.273  13.523
68538W        W27799  31.430   7.394   3.334
68539W        W27800  16.167  30.449  14.772
68540W        W27801  17.572  37.508   0.258
68541W        W27802  21.547  19.142  14.854
68542W        W27803  38.959  29.597  13.484
68543W        W27804  43.339  41.332   3.279
68544W        W27805  18.782  40.990   4.223
68545W        W27806  26.570   9.714  11.080
68546W        W27807  44.823  24.140   1.329
68547W        W27808  18.603   1.278   3.280
68548W        W27809  39.898  17.591   5.578
68549W        W27810  26.545  24.720   0.932
68550W        W27811   1.408  35.942  14.007
68551W        W27812   1.904  25.491  14.368
68552W        W27813  23.178  19.251  10.929
68553W        W27814   2.272  26.486  13.331
68554W        W27815   9.304  11.820  10.922
68555W        W27816  39.959  21.049  12.943
68556W        W27817  38.407  37.576  11.080
68557W        W27818   5.326  39.548  12.365
68558W        W27819   4.839  36.971  10.962
68559W        W27820  17.587  35.973  14.805
68560W        W27821  10.267  14.671  11.101
68561W        W27822   6.894  17.770   3.758
68562W        W27823  19.119  22.193  12.878
68563W        W27824  27.657  34.902  14.013
68564W        W27825  37.482   5.760  11.126
68565W        W27826  32.551  42.346   1.353
68566W        W27827  13.171  39.817  14.019
68567W        W27828  14.111  41.031  13.504
68568W        W27829  23.159   0.365   1.444
68569W        W27830  30.919  23.080  12.473
68570W        W27831  27.583   0.948   1.318
68571W        W27832  33.564  12.271   4.769
68572W        W27833  12.230  19.238  14.838
68573W        W27834  14.773   3.952   0.865
68574W        W27835  16.297  27.484   0.360
68575W        W27836  12.639  15.806  12.911
68576W        W27837   0.966  17.628  11.541
68577W        W27838  33.573  16.258  14.357
68578W        W27839  14.817   9.661  11.905
68579W        W27840  29.135  32.907   4.740
68580W        W27841  29.558  25.102   1.373
68581W        W27842  16.158   8.888   1.363
68582W        W27843  34.979  14.098   2.244
68583W        W27844  43.819  25.543  13.966
68584W        W27845  11.722  16.091   4.203
68585W        W27846  25.539  38.971   3.224
68586W        W27847  15.677   2.398  13.362
68587W        W27848  35.029  13.845  12.987
68588W        W27849  11.293  18.560   4.708
68589W        W27850  32.490  33.587  10.408
68590W        W27851   1.445  15.777   1.219
68591W        W27852  15.588  24.163  11.612
68592W        W27853  20.076  13.126  13.419
68593W        W27854  29.591  42.903   0.750
68594W        W27855  34.535   7.693   4.311
68595W        W27856  11.284   7.697  13.057
68596W        W27857  14.121  10.820  13.855
68597W        W27858  43.507  25.152   2.370
68598W        W27859   5.742  18.177   1.928
68599W        W27860   5.372  19.680  13.901
68600W        W27861  13.195  40.442  10.606
68601W        W27862  42.487  40.991   4.263
68602W        W27863  19.143  20.649  10.481
68603W        W27864   0.933   7.334   3.202
68604W        W27865  36.844  15.258  11.862
68605W        W27866  13.284  12.744  14.853
68606W        W27867  44.260  43.404   4.249
68607W        W27868  12.256  18.156  10.465
68608W        W27869  31.617  37.389   2.824
68609W        W27870  35.449   9.354  14.417
68610W        W27871  40.386   5.927  12.052
68611W        W27872  27.059  23.153  11.942
68612W        W27873  14.617  38.029   0.282
68613W        W27874  24.112   1.444   1.906
68614W        W27875   8.350  25.157  11.934
68615W        W27876   3.862  37.015   2.255
68616W        W27877  22.588   7.743  12.942
68617W        W27878  20.185  10.280   3.365
68618W        W27879  38.935   6.332  10.452
68619W        W27880  39.931  12.250   2.194
68620W        W27881  43.928  22.164   0.913
68621W        W27882  44.759  19.110  13.548
68622W        W27883  39.518  31.089   4.118
68623W        W27884  25.609   1.769   0.306
68624W        W27885  40.534  13.109   3.825
68625W        W27886   2.283   2.783  10.565
68626W        W27887   5.738   3.244  12.072
68627W        W27888  32.441  21.028  12.885
68628W        W27889  42.950  17.677   3.350
68629W        W27890  12.803  27.147   4.237
68630W        W27891  43.890  36.031   1.306
68631W        W27892  19.556   8.164  14.841
68632W        W27893  23.059  22.527   4.828
68633W        W27894  27.590  41.341   3.178
68634W        W27895  31.015  29.476   0.807
68635W        W27896   1.284   4.852  14.833
68636W        W27897   1.350  23.608  11.934
68637W        W27898  21.739   3.716  12.480
68638W        W27899  32.582  34.935   4.722
68639W        W27900   3.330  10.337  14.955
68640W        W27901  39.387   8.269   2.292
68641W        W27902  40.524  18.119   4.154
68642W        W27903  42.849  36.042   1.224
68643W        W27904  29.569  12.263   0.429
68644W        W27905  29.086  43.997  14.416
68645W        W27906  31.449  40.914  13.486
68646W        W27907   1.342  22.713  13.435
68647W        W27908   3.825  33.939  11.591
68648W        W27909  26.130  43.928  14.796
68649W        W27910  38.526  26.529  11.587
68650W        W27911   8.272  32.991   0.348
68651W        W27912  16.645   4.911  11.581
68652W        W27913  28.004   9.840  12.457
68653W        W27914  39.347  29.546  14.798
68654W        W27915  34.958  17.790   1.750
68655W        W27916  37.405  18.705   4.802
68656W        W27917   2.352  33.886   4.608
68657W        W27918  38.007  24.221   1.412
68658W        W27919  24.553  19.751  13.411
68659W        W27920   2.759  29.500  13.985
68660W        W27921   0.348  40.023  11.927
68661W        W27922   8.219  14.631   3.853
68662W        W27923  16.578  37.889   1.451
68663W        W27924  41.363   6.341  10.971
68664W        W27925  24.680  24.525  10.525
68665W        W27926  16.227  40.900   3.728
68666W        W27927  33.515  42.939   4.213
68667W        W27928  32.048  17.589   0.282
68668W        W27929  17.142  33.495   2.197
68669W        W27930   7.343   1.338  13.057
68670W        W27931   9.286  19.723   2.253
68671W        W27932   1.352  31.982  12.529
68672W        W27933  13.170  26.670   0.338
68673W        W27934   9.207  35.023  11.975
68674W        W27935  41.879  31.508   3.168
68675W        W27936  27.572  12.610  11.410
68676W        W27937  24.554  12.274  14.389
68677W        W27938  11.762  37.065  12.883
68678W        W27939  27.988   0.944  10.104
68679W        W27940  14.663  36.945   1.699
68680W        W27941   3.932  40.499  13.311
68681W        W27942   7.831   5.728  13.808
68682W        W27943  34.104   1.389  11.531
68683W        W27944  29.492  26.073  10.531
68684W        W27945  31.521   4.407   4.640
68685W        W27946  39.939  14.283   3.865
68686W        W27947  35.987  19.212   0.417
68687W        W27948  13.759  27.621   5.213
68688W        W27949   3.776  39.371   2.736
68689W        W27950  42.341  30.517  12.465
68690W        W27951   3.944  38.539   3.728
68691W        W27952   3.338  21.028   4.733
68692W        W27953   2.356  27.158  14.974
68693W        W27954  14.775  32.495   2.786
68694W        W27955  40.978   8.279  11.964
68695W        W27956  27.970  12.176  13.511
68696W        W27957  18.570   3.427  11.604
68697W        W27958   1.260  20.125   0.437
68698W        W27959   7.762  20.576   1.840
68699W        W27960  26.999  42.929   4.657
68700W        W27961  44.335  13.743   1.321
68701W        W27962  24.039  28.070  10.537
68702W        W27963  16.168  42.324   0.798
68703W        W27964  40.009  21.733   1.786
68704W        W27965  37.066  12.698   0.870
68705W        W27966  13.267  13.772  14.860
68706W        W27967   5.403  34.893  10.486
68707W        W27968   3.380  43.369  13.857
68708W        W27969  39.987  36.427   4.123
68709W        W27970  33.027  37.433   4.740
68710W        W27971  11.175  10.193  12.447
68711W        W27972  41.443  36.061   3.773
68712W        W27973   3.368  23.108   2.325
68713W        W27974  21.711  43.375   2.793
68714W        W27975  26.499  10.689  14.818
68715W        W27976  20.615  44.503   2.717
68716W        W27977   3.289  24.030  10.611
68717W        W27978   9.668  17.103   4.306
68718W        W27979  27.551   6.416  14.764
68719W        W27980   0.423   6.783  14.916
68720W        W27981  10.665  11.632  13.988
68721W        W27982  42.325  13.181   1.392
68722W        W27983  13.730   2.827   4.758
68723W        W27984  27.982  16.220  12.434
68724W        W27985  35.996  24.489   1.826
68725W        W27986   7.853  20.178  13.898
68726W        W27987   9.764   0.484  13.469
68727W        W27988  44.800  32.039   0.430
68728W        W27989  32.475  27.152   2.899
68729W        W27990  33.491  35.891   2.858
68730W        W27991  39.877   7.858  12.028
68731W        W27992   5.917   5.204  14.844
68732W        W27993  10.815  10.633   0.243
68733W        W27994  21.517  27.997  13.540
68734W        W27995  25.972  13.600  11.492
68735W        W27996  36.079  35.599   3.239
68736W        W27997  43.927  23.061  10.139
68737W        W27998  15.617   4.785   0.825
68738W        W27999  13.256  13.125  12.941
68739W        W28000  34.064  33.504   4.742
68740W        W28001  21.691   4.414  14.968
68741W        W28002  44.939  40.032  13.817
68742W        W28003  28.549  10.184   3.822
68743W        W28004   4.435   0.399   4.257
68744W        W28005   9.199   2.411   0.795
68745W        W28006  19.079  33.461   0.309
68746W        W28007  20.117  26.550  12.502
68747W        W28008  30.521  19.211  12.026
68748W        W28009  44.940  36.021   4.755
68749W        W28010  10.314  35.388  11.907
68750W        W28011   6.370  44.443   5.213
68751W        W28012  25.582  40.519   2.325
68752W        W28013   9.824  23.692  10.484
68753W        W28014  12.651  21.680   3.804
68754W        W28015   3.282  32.614   4.712
68755W        W28016  10.356  25.692  11.423
68756W        W28017  25.714  30.071   1.415
68757W        W28018  39.051  23.076   3.861
68758W        W28019  17.228  31.077   2.347
68759W        W28020  18.616  11.783  13.529
68760W        W28021   6.856  24.079  14.279
68761W        W28022   5.799   5.272  11.855
68762W        W28023  21.137  17.643   3.869
68763W        W28024  10.867  14.319   3.185
68764W        W28025  41.040  27.562  11.435
68765W        W28026  25.688  23.621  11.490
68766W        W28027  24.713  22.705  14.413
68767W        W28028  25.109  13.684  14.783
68768W        W28029  31.513  40.935  12.522
68769W        W28030  42.493   2.742   3.199
68770W        W28031  32.022  14.768   2.707
68771W        W28032  30.608  40.898  11.878
68772W        W28033  12.684  40.990  10.506
68773W        W28034  12.301  33.472   1.906
68774W        W28035  41.929  26.582   1.912
68775W        W28036  29.108  30.414  11.537
68776W        W28037  23.211  16.751   2.226
68777W        W28038  20.226  22.505   0.834
68778W        W28039  24.689   2.941  13.418
68779W        W28040  29.100   7.821  11.423
68780W        W28041  27.971  12.125   2.336
68781W        W28042  23.714  32.131  13.484
68782W        W28043  31.062  37.388   2.307
68783W        W28044  22.541  38.962  11.412
68784W        W28045  17.271  31.648  12.022
68785W        W28046  20.663  21.707  11.056
68786W        W28047  21.657  19.654   1.371
68787W        W28048  18.682  41.908   0.316
68788W        W28049  34.093  44.821  12.947
68789W        W28050  10.646  15.306  13.529
68790W        W28051  18.670  35.055  12.075
68791W        W28052  26.672  20.610   4.329
68792W        W28053  12.746  14.783   4.681
68793W        W28054   3.775  37.563  10.502
68794W        W28055  13.631   2.468   4.761
68795W        W28056   7.812  39.485   0.803
68796W        W28057  27.647   2.298  11.502
68797W        W28058  29.450  39.830  13.361
68798W        W28059  20.268   2.789  14.453
68799W        W28060   2.773  20.160  14.856
68800W        W28061  44.873  36.976   0.347
68801W        W28062   9.680  38.486   2.721
68802W        W28063  38.877  12.652   3.831
68803W        W28064  21.641  44.891  12.486
68804W        W28065  15.275  33.045  11.578
68805W        W28066  29.497  25.083  11.057
68806W        W28067  24.686   0.329   4.800
68807W        W28068  16.614  35.564   3.329
68808W        W28069  12.286  12.182  11.927
68809W        W28070  39.870  11.360   0.315
68810W        W28071  19.042  40.361  10.996
68811W        W28072  23.539  14.331   4.745
68812W        W28073  18.648   3.377  14.277
68813W        W28074  32.000   4.212   3.241
68814W        W28075  33.585  31.952   0.472
68815W        W28076  38.464  23.532   1.925
68816W        W28077  34.018  18.565  14.946
68817W        W28078  29.555  40.006  12.579
68818W        W28079  40.352  26.980  14.873
68819W        W28080  21.514  18.727  10.012
68820W        W28081  40.312   1.369  12.465
68821W        W28082   0.267  40.403   1.388
68822W        W28083  43.304  44.849   1.276
68823W        W28084  13.749  28.597  13.353
68824W        W28085  41.414  39.468  14.804
68825W        W28086  13.771  15.229  14.384
68826W        W28087  29.045   5.901   2.344
68827W        W28088  36.875  38.961   2.819
68828W        W28089  42.398  41.790   0.854
68829W        W28090  40.343  38.423   3.760
68830W        W28091  38.479  40.915  12.916
68831W        W28092  39.038  43.843   0.346
68832W        W28093  10.645  43.859   0.364
68833W        W28094   2.445  17.621   3.359
68834W        W28095  11.631  29.127  13.378
68835W        W28096  11.168  39.057   3.812
68836W        W28097   2.800  34.611   0.303
68837W        W28098  27.108  13.222   2.264
68838W        W28099  30.655  24.000  14.887
68839W        W28100  15.698  29.128   1.341
68840W        W28101   4.217  36.445  10.893
68841W        W28102  18.086   5.389  12.451
68842W        W28103   7.301  26.098   4.614
68843W        W28104  11.865  38.048  12.399
68844W        W28105  34.455   2.291  14.318
68845W        W28106  25.601  11.695  13.899
68846W        W28107  44.007  26.607  14.905
68847W        W28108   0.851  35.003   2.290
68848W        W28109   3.450  24.143   1.326
68849W        W28110  43.476  11.159  14.927
68850W        W28111   2.277  25.193   3.164
68851W        W28112  11.642  42.790   0.821
68852W        W28113  10.152  19.209   4.124
68853W        W28114  39.544  21.683  12.406
68854W        W28115   2.780  26.952  14.922
68855W        W28116   7.757   2.846  13.044
68856W        W28117  26.175   9.728   1.251
68857W        W28118  12.738  36.976   4.345
68858W        W28119  28.565  16.202  13.058
68859W        W28120   8.344  44.922   1.322
68860W        W28121  18.149  37.507   1.399
68861W        W28122   1.483  20.634   4.319
68862W        W28123  35.048  15.784   0.285
68863W        W28124  18.232  18.595   1.231
68864W        W28125  12.672  28.642  13.802
68865W        W28126  18.561  17.113   1.912
68866W        W28127  17.061  21.532  12.940
68867W        W28128  26.492  27.170   2.268
68868W        W28129  18.236   1.240   2.370
68869W        W28130  16.166  14.189   0.782
68870W        W28131  17.100  43.319   3.633
68871W        W28132  24.166  40.004   4.642
68872W        W28133  17.135  29.971   1.901
68873W        W28134  38.935  42.861  12.878
68874W        W28135  16.670  11.174  12.412
68875W        W28136  15.163  23.241   1.701
68876W        W28137  17.099  42.499   3.203
68877W        W28138  22.236  44.891   2.363
68878W        W28139   1.756   5.692  11.906
68879W        W28140  17.249  33.441   4.603
68880W        W28141  20.077  12.360  11.456
68881W        W28142  33.038  19.252   1.282
68882W        W28143   5.299  12.691  14.351
68883W        W28144  27.126   3.237  14.847
68884W        W28145  26.611  36.352   0.958
68885W        W28146  18.219   8.739   0.457
68886W        W28147  12.838  27.992   1.710
68887W        W28148  27.520  31.142   3.711
68888W        W28149  27.447  32.044  13.947
68889W        W28150   4.765   9.732   0.752
68890W        W28151   4.393  36.889  11.017
68891W        W28152   0.367  42.808   0.263
68892W        W28153   0.854  32.117  13.470
68893W        W28154  30.626  24.120  11.439
68894W        W28155  15.651  36.929   1.314
68895W        W28156  26.568  44.273   9.989
68896W        W28157  27.151  27.035  13.057
68897W        W28158  28.454   2.805  12.879
68898W        W28159  30.495  44.840  12.881
68899W        W28160  20.672  19.681  10.004
68900W        W28161  40.972  15.689  10.945
68901W        W28162   0.308   7.369  12.466
68902W        W28163  35.046  21.061   4.801
68903W        W28164  18.258  18.208  10.101
68904W        W28165  21.583  44.412   2.272
68905W        W28166  39.373  31.517  13.799
68906W        W28167  29.040  19.575   4.268
68907W        W28168  35.470  39.847   3.200
68908W        W28169  31.496   2.908  14.342
68909W        W28170  44.455  23.622   9.970
68910W        W28171  10.858   7.802   0.275
68911W        W28172  37.984  19.234  12.967
68912W        W28173  20.175  10.275   4.624
68913W        W28174   5.779  18.167  14.486
68914W        W28175  31.923  17.642  12.560
68915W        W28176  23.549  21.703  14.995
68916W        W28177  23.708   5.766  13.913
68917W        W28178  43.853  44.301   4.683
68918W        W28179  38.502  13.659  13.022
68919W        W28180  31.550   3.293  13.394
68920W        W28181  44.336   9.152  12.846
68921W        W28182   7.303  20.528   0.306
68922W        W28183  25.615  10.739  13.315
68923W        W28184  10.175  31.538   2.376
68924W        W28185  25.973  19.612  14.985
68925W        W28186  15.177  31.449  13.992
68926W        W28187  33.433  34.395   4.154
68927W        W28188   1.435  35.562  10.413
68928W        W28189  43.515   2.760  12.041
68929W        W28190   2.824   5.309  11.457
68930W        W28191  17.678   0.920  14.909
68931W        W28192  42.403  40.825  14.763
68932W        W28193  13.321  28.576   4.747
68933W        W28194   8.346  12.277  13.039
68934W        W28195  40.820  15.759  10.617
68935W        W28196  42.482  28.980   1.440
68936W        W28197  28.162  19.283  11.517
68937W        W28198  36.093  34.390  11.081
68938W        W28199  23.096  18.664   1.276
68939W        W28200   8.356   3.748   3.304
68940W        W28201  14.695  42.980  11.598
68941W        W28202  19.609  31.935   1.354
68942W        W28203   5.802  17.075  12.454
68943W        W28204  24.990  41.827  10.916
68944W        W28205   6.409  29.067   0.390
68945W        W28206   2.320  30.578   9.969
68946W        W28207  38.338  41.933   3.187
68947W        W28208   0.458  40.478   4.724
68948W        W28209  13.716  28.449  10.983
68949W        W28210  27.610   5.258  11.866
68950W        W28211  37.957  43.968   3.767
68951W        W28212   5.209   4.226   9.921
68952W        W28213  22.712  36.845  10.126
68953W        W28214  13.325  42.908   4.728
68954W        W28215   3.744  44.368  14.026
68955W        W28216  13.111  40.322  14.991
68956W        W28217  30.496  19.278  13.440
68957W        W28218  26.466  23.024  10.419
68958W        W28219  29.110  25.972  10.942
68959W        W28220  42.882  17.144  13.495
68960W        W28221  18.748  20.768  13.534
68961W        W28222  22.012   7.254  10.419
68962W        W28223  15.097   7.692   1.302
68963W        W28224  25.190  19.158   0.304
68964W        W28225   8.332  42.435  12.463
68965W        W28226  24.091   7.839  14.279
68966W        W28227  25.132  39.026   5.300
68967W        W28228  26.182  32.464   3.164
68968W        W28229  37.379  19.612   3.752
68969W        W28230  23.222  38.393   4.274
68970W        W28231  28.969  29.599   3.739
68971W        W28232   4.803  19.719  13.939
68972W        W28233   4.739  44.466  13.047
68973W        W28234  41.480   3.296   3.691
68974W        W28235  21.726  23.065   3.857
68975W        W28236  22.523  19.255   3.716
68976W        W28237   6.320  38.993   1.792
68977W        W28238  11.305  39.313   4.180
68978W        W28239  38.968  33.044   0.769
68979W        W28240   4.403  41.327  10.899
68980W        W28241  43.463  10.218   2.789
68981W        W28242  34.520  41.847   4.669
68982W        W28243  30.642   4.344   2.833
68983W        W28244  21.635  18.165   1.717
68984W        W28245  25.989   5.369  12.542
68985W        W28246  10.875  33.485   2.863
68986W        W28247   7.827  30.629  11.586
68987W        W28248  44.402  35.394  12.542
68988W        W28249  28.974  29.553   3.362
68989W        W28250  24.544  23.645  13.889
68990W        W28251  15.751   4.773  12.538
68991W        W28252   8.200  22.674  13.358
68992W        W28253   6.873  37.849  13.419
68993W        W28254   7.709  39.815  11.935
68994W        W28255  34.372  40.451   4.131
68995W        W28256  30.125  30.129   4.672
68996W        W28257  16.763  41.889   0.295
68997W        W28258  15.813   1.357  14.778
68998W        W28259  23.015  10.806  12.833
68999W        W28260  18.216  17.225  14.308
69000W        W28261   0.893   7.816  11.526
69001W        W28262   1.948   4.877  11.873
69002W        W28263  44.936  12.145  12.567
69003W        W28264  37.357  33.565   4.721
69004W        W28265  12.205  30.618  11.556
69005W        W28266  22.564  23.509   4.702
69006W        W28267   8.663  20.729  14.942
69007W        W28268  11.254  10.348  10.601
69008W        W28269  32.930  14.213  12.417
69009W        W28270  25.131  36.493   0.918
69010W        W28271  39.435   4.354   4.157
69011W        W28272   4.770  11.319   0.436
69012W        W28273  32.517  42.423   3.162
69013W        W28274   1.859  15.308  12.057
69014W        W28275  16.771  10.309  11.390
69015W        W28276  37.846   2.358  14.827
69016W        W28277  10.149  14.821  11.455
69017W        W28278  22.121  16.087   4.160
69018W        W28279  15.118   6.877   2.898
69019W        W28280  34.524  32.591   2.865
69020W        W28281  39.995  10.383   4.816
69021W        W28282   0.361  33.068  14.491
69022W        W28283  21.670  13.312  11.512
69023W        W28284  15.128  26.045  10.616
69024W        W28285  19.550  12.817  14.030
69025W        W28286  33.522  20.657   0.330
69026W        W28287  42.474  38.427   4.799
69027W        W28288  21.551   5.399   4.225
69028W        W28289  17.271   5.869  13.890
69029W        W28290   6.786  23.041   3.850
69030W        W28291  38.911  14.743   2.257
69031W        W28292  39.929  36.906   2.877
69032W        W28293  32.522   7.677   4.254
69033W        W28294  33.524  41.388  12.024
69034W        W28295  23.537  11.140  13.454
69035W        W28296  42.513  30.052   2.323
69036W        W28297  33.463  37.488   5.162
69037W        W28298  25.648  23.010  11.909
69038W        W28299  35.520  22.736  12.075
69039W        W28300  43.475  36.406  14.389
69040W        W28301  24.019   7.743   2.672
69041W        W28302   5.195  27.482  12.096
69042W        W28303  14.224  30.118   0.915
69043W        W28304  20.074   6.323   0.780
69044W        W28305  41.416  29.500  11.503
69045W        W28306  25.023  10.189   0.322
69046W        W28307  18.284  36.842   1.891
69047W        W28308  18.628  17.772   1.300
69048W        W28309  10.710  21.129   3.266
69049W        W28310  15.255  44.812   4.203
69050W        W28311  41.327   9.653  13.994
69051W        W28312  10.839  44.338   3.195
69052W        W28313  22.997  23.226   2.321
69053W        W28314   7.197  34.514  14.386
69054W        W28315  38.018  17.158  11.489
69055W        W28316  29.161  18.571  11.378
69056W        W28317  34.863  36.851   2.340
69057W        W28318  39.423  34.578   5.609
69058W        W28319  44.874  16.188   2.331
69059W        W28320  22.055  23.124  14.975
69060W        W28321  24.720   6.424   1.704
69061W        W28322  40.442  26.966  12.985
69062W        W28323   3.807  30.921   4.186
69063W        W28324  10.876   2.773   3.243
69064W        W28325  40.303  33.129   5.724
69065W        W28326  18.772  12.669  13.450
69066W        W28327   7.767  15.591   1.299
69067W        W28328  39.370  26.067  12.370
69068W        W28329  11.739   4.725   3.289
69069W        W28330  12.262  42.455  14.793
69070W        W28331  41.463  23.113  10.085
69071W        W28332  44.397   7.223   0.464
69072W        W28333  18.264  32.055   3.355
69073W        W28334  20.710  22.174  10.429
69074W        W28335  23.596  33.586  13.404
69075W        W28336  40.892  24.161  12.896
69076W        W28337  17.092  17.669   3.724
69077W        W28338   3.723   0.439  14.849
69078W        W28339   3.405  20.130  12.086
69079W        W28340   3.907  14.615   1.345
69080W        W28341  31.606  40.878  11.029
69081W        W28342  11.741  21.083  12.832
69082W        W28343  28.977  16.272  13.893
69083W        W28344   2.455  43.357   3.669
69084W        W28345  31.455   0.338  10.550
69085W        W28346  29.989  18.245  11.062
69086W        W28347  40.412   1.341  14.412
69087W        W28348  44.917   6.361  11.411
69088W        W28349   2.890  28.163   2.750
69089W        W28350  31.077  26.168   4.337
69090W        W28351  35.066  42.811   4.662
69091W        W28352   5.217  44.006  13.535
69092W        W28353  23.608  26.140   1.368
69093W        W28354  20.640  41.957   3.276
69094W        W28355  40.516  20.657  14.923
69095W        W28356  18.606   0.835   4.236
69096W        W28357  14.319  40.523  13.930
69097W        W28358  38.434   5.894   4.230
69098W        W28359  18.751   6.787  12.002
69099W        W28360  14.115   8.385   0.451
69100W        W28361  31.624   8.165  11.581
69101W        W28362  38.418  11.760  12.550
69102W        W28363   6.910   2.962   4.139
69103W        W28364  28.035  24.031  10.526
69104W        W28365   3.403  33.079  11.546
69105W        W28366  30.518  33.539  11.583
69106W        W28367  22.674   2.310  11.388
69107W        W28368  32.517  43.803   0.756
69108W        W28369  21.708   5.829   3.253
69109W        W28370  36.031  21.025  11.055
69110W        W28371  28.459  10.194   0.781
69111W        W28372  36.537   0.357   9.964
69112W        W28373  21.687  31.963  12.002
69113W        W28374  40.801   1.824   1.414
69114W        W28375   2.868  18.690   1.290
69115W        W28376  44.315  34.891   0.782
69116W        W28377   1.264  23.676   0.288
69117W        W28378  27.945   3.800  10.606
69118W        W28379  11.141  30.653   1.809
69119W        W28380  31.056  44.906   1.871
69120W        W28381   9.271   7.769   2.331
69121W        W28382  42.032  12.728  14.031
69122W        W28383  14.207   8.810  11.055
69123W        W28384  31.643  41.823   1.263
69124W        W28385  17.676  44.904  13.902
69125W        W28386  13.798  27.160   4.344
69126W        W28387  29.555  10.641   0.336
69127W        W28388   7.842  19.153   3.634
69128W        W28389  20.036  24.644   4.679
69129W        W28390  17.298  32.060  12.946
69130W        W28391  25.708  10.272   4.147
69131W        W28392   9.246  39.857  12.426
69132W        W28393  35.027  22.740  10.961
69133W        W28394  20.097  29.948   3.693
69134W        W28395  42.846   0.367  11.498
69135W        W28396  21.752  36.872  10.426
69136W        W28397  13.233   0.381  13.436
69137W        W28398  23.990  30.637   2.216
69138W        W28399   0.270   3.233  11.060
69139W        W28400  27.000  27.187  10.599
69140W        W28401  16.157  26.584  11.919
69141W        W28402  41.955   3.820   3.175
69142W        W28403  38.521  21.109   3.761
69143W        W28404  27.165  40.987   0.867
69144W        W28405  32.548  24.199  13.491
69145W        W28406  33.484  32.006  11.865
69146W        W28407  17.214   7.763   4.294
69147W        W28408   1.445  41.976  14.005
69148W        W28409  36.039   4.923  13.425
69149W        W28410  11.638  38.948   1.315
69150W        W28411  11.775  28.500   3.836
69151W        W28412   1.279  22.641   4.160
69152W        W28413  42.776  17.664  10.611
69153W        W28414  28.465  35.365  10.956
69154W        W28415   0.359  27.473  10.448
69155W        W28416   5.868   4.699   9.925
69156W        W28417  40.967  32.974   0.279
69157W        W28418  15.154  36.049   3.723
69158W        W28419  21.091  32.065   4.260
69159W        W28420  36.567  20.050  14.827
69160W        W28421   9.357   1.440  12.494
69161W        W28422   0.927  36.061  12.972
69162W        W28423  44.265   2.947   2.406
69163W        W28424  32.577  16.122   3.279
69164W        W28425  40.919  17.124   0.369
69165W        W28426   5.222  16.795  14.317
69166W        W28427  16.702  13.322  10.643
69167W        W28428  29.067  26.051  11.966
69168W        W28429  28.080  14.829   0.848
69169W        W28430   1.256  38.415  12.923
69170W        W28431   4.253   1.777  12.853
69171W        W28432  19.041  27.063   1.412
69172W        W28433  32.563   9.261   1.774
69173W        W28434  43.494  11.651   3.199
69174W        W28435  19.060  12.273  14.317
69175W        W28436  17.579  13.730   0.362
69176W        W28437  39.325  15.734  10.608
69177W        W28438  29.540  35.572  11.015
69178W        W28439   6.920  37.030  11.396
69179W        W28440  28.034  34.558  10.530
69180W        W28441  39.048  25.095  10.997
69181W        W28442  21.197  12.268   3.738
69182W        W28443  23.681  38.990   4.661
69183W        W28444  18.087   4.894  12.027
69184W        W28445  31.090  22.127  11.978
69185W        W28446  31.427  12.640   0.262
69186W        W28447  40.382  31.918   5.203
69187W        W28448   0.371  16.652  12.912
69188W        W28449   3.878  44.358   3.835
69189W        W28450   2.367   5.426  13.915
69190W        W28451  41.840   0.408  12.043
69191W        W28452  12.760   5.303  10.977
69192W        W28453   5.883  27.598  14.891
69193W        W28454  27.059   6.784  13.321
69194W        W28455  21.598   8.718   1.886
69195W        W28456  13.301   8.862   0.806
69196W        W28457  41.932  15.223  10.538
69197W        W28458  15.729  15.783   2.842
69198W        W28459   6.384  42.306   1.245
69199W        W28460  23.219  41.352  14.319
69200W        W28461  30.498  12.693  12.863
69201W        W28462  26.475  15.095  11.519
69202W        W28463   8.893  39.850  12.528
69203W        W28464  43.459  29.118  14.917
69204W        W28465  21.261  19.151   2.863
69205W        W28466   5.302  39.043   2.313
69206W        W28467  33.976   0.846   3.852
69207W        W28468  25.002  10.658  14.763
69208W        W28469   9.653  17.187   0.803
69209W        W28470  23.067   7.254   3.277
69210W        W28471   8.216  39.493   3.194
69211W        W28472  16.212  30.507  13.367
69212W        W28473   7.292  38.361   0.792
69213W        W28474  35.937  37.337  11.007
69214W        W28475  11.331  25.701   0.959
69215W        W28476  36.862  33.055  11.582
69216W        W28477  17.155  21.512  14.021
69217W        W28478  42.462  39.980  13.444
69218W        W28479  28.978  39.996   1.233
69219W        W28480  20.070  37.369  14.885
69220W        W28481   1.450  35.105   2.212
69221W        W28482  21.580   3.439  12.452
69222W        W28483  32.056  20.727  11.536
69223W        W28484   2.403   1.877   3.824
69224W        W28485  19.109  32.087  12.998
69225W        W28486  13.785   3.764  13.955
69226W        W28487  17.062   9.664  12.033
69227W        W28488   8.699  17.697   3.788
69228W        W28489  10.315  39.028  14.390
69229W        W28490   4.724  31.089  10.457
69230W        W28491   4.275  32.403   3.837
69231W        W28492   5.338  19.550   2.362
69232W        W28493  36.346  17.235  11.604
69233W        W28494   7.255  11.722   0.465
69234W        W28495  24.158  30.472   0.251
69235W        W28496   4.348  38.562   3.672
69236W        W28497  23.093   1.362   1.932
69237W        W28498  35.471  31.454  10.636
69238W        W28499   4.419  41.003   1.438
69239W        W28500  28.479  31.401   2.244
69240W        W28501  25.087  39.500  14.806
69241W        W28502   7.687  36.503   4.217
69242W        W28503  37.356  16.262   4.645
69243W        W28504  16.733  38.427   4.277
69244W        W28505  21.071  23.074   1.837
69245W        W28506  18.605  15.093  14.482
69246W        W28507  17.565  20.713   0.256
69247W        W28508   0.929  33.021  12.963
69248W        W28509  32.559  34.940   4.316
69249W        W28510  14.195  32.045  10.039
69250W        W28511  17.647  16.086   1.369
69251W        W28512   5.864  41.947  12.502
69252W        W28513  14.267  19.584   3.204
69253W        W28514  30.572  35.084   2.242
69254W        W28515   5.715  16.738   3.814
69255W        W28516  13.682   0.268  13.049
69256W        W28517  38.009  12.167  11.506
69257W        W28518  34.078   8.301   0.741
69258W        W28519  31.964  24.153   5.270
69259W        W28520   0.470  37.341   3.209
69260W        W28521  34.521  41.949   3.165
69261W        W28522  31.632   8.365   3.815
69262W        W28523  16.689   9.335  12.091
69263W        W28524  21.535  36.047  13.824
69264W        W28525  32.574  33.876  13.376
69265W        W28526   3.823   7.394  13.416
69266W        W28527  41.950  13.328  13.795
69267W        W28528  21.064   0.465  11.587
69268W        W28529  21.522  13.184   4.821
69269W        W28530  39.926   7.239   3.365
69270W        W28531  17.085  24.988  14.388
69271W        W28532  31.032  28.976  11.572
69272W        W28533   2.418   9.780   0.362
69273W        W28534   8.326  25.105   4.344
69274W        W28535   5.878  33.623   3.293
69275W        W28536  11.291  43.347  12.503
69276W        W28537  13.303  28.641  13.414
69277W        W28538   7.301  41.821  13.971
69278W        W28539   8.286  27.519   4.668
69279W        W28540  21.536  35.928  11.504
69280W        W28541  44.497  39.996   3.779
69281W        W28542  38.562  38.983  12.929
69282W        W28543  36.569  41.509   0.455
69283W        W28544   3.309  44.469   0.841
69284W        W28545   5.378   7.394  10.897
69285W        W28546  16.727   2.270   3.793
69286W        W28547  38.538  14.693  11.869
69287W        W28548  12.827   1.877   1.266
69288W        W28549  11.231  31.986  10.612
69289W        W28550  23.109  39.967   4.663
69290W        W28551  13.673  16.238   1.791
69291W        W28552  21.170   0.768   0.379
69292W        W28553   9.756   5.219   5.642
69293W        W28554  21.071  27.964   0.811
69294W        W28555   1.320  10.268  10.911
69295W        W28556  22.007  26.993  14.483
69296W        W28557  30.442   2.933   0.271
69297W        W28558  30.565  42.298   0.887
69298W        W28559  35.076  22.057   0.252
69299W        W28560   2.271  10.655  11.449
69300W        W28561  30.576  20.544  12.514
69301W        W28562  27.524  13.830  11.396
69302W        W28563  12.118   8.845   0.408
69303W        W28564  21.224   0.813   5.196
69304W        W28565  35.059  44.267   3.383
69305W        W28566  31.896  41.430   1.888
69306W        W28567   0.855  23.147   4.184
69307W        W28568  33.386  15.805   4.617
69308W        W28569  23.593  40.341   1.853
69309W        W28570  13.126  33.477   3.757
69310W        W28571  35.453  10.357  13.988
69311W        W28572   6.774  42.415   1.904
69312W        W28573  43.422  24.054  11.459
69313W        W28574   4.370  38.418  14.804
69314W        W28575  25.198  39.833  14.345
69315W        W28576   4.219  31.489  13.847
69316W        W28577  40.998   3.766   0.834
69317W        W28578  35.980   7.771  14.924
69318W        W28579  31.046  30.497   3.267
69319W        W28580  10.332  40.453   0.964
69320W        W28581  24.564  34.956  11.418
69321W        W28582  25.116  34.530   1.350
69322W        W28583  20.173   0.824  12.461
69323W        W28584  21.744  23.048   2.222
69324W        W28585  22.731  22.201   5.264
69325W        W28586  25.496  27.982  10.954
69326W        W28587  17.152  10.244  11.611
69327W        W28588  37.084  37.066   4.711
69328W        W28589  31.115  39.436  11.436
69329W        W28590   9.776   2.900   2.758
69330W        W28591  13.222   0.372  14.847
69331W        W28592   4.357  13.620  13.343
69332W        W28593  32.087  32.412  11.472
69333W        W28594  31.983  32.952  14.278
69334W        W28595  29.426  24.597  12.880
69335W        W28596  13.221  43.366  14.885
69336W        W28597  18.658  42.013   3.185
69337W        W28598  23.172  44.010  13.823
69338W        W28599  24.210   9.827  13.844
69339W        W28600  14.166   1.279  14.832
69340W        W28601  29.632   0.405  11.910
69341W        W28602  26.104   4.321  13.981
69342W        W28603   8.746  44.412   2.821
69343W        W28604   9.837  10.369   1.443
69344W        W28605   4.326  30.559  10.902
69345W        W28606  30.086  35.494  12.519
69346W        W28607  12.710  20.726   2.858
69347W        W28608  33.500   6.883  11.953
69348W        W28609  23.686   3.251   3.197
69349W        W28610  37.075   5.715  12.964
69350W        W28611  29.508   7.206  13.470
69351W        W28612   5.689  12.259  10.961
69352W        W28613  15.276  27.596  14.314
69353W        W28614   8.665   0.774   4.224
69354W        W28615   5.777  33.056  11.008
69355W        W28616  12.166  22.696   0.822
69356W        W28617  16.138  40.914  13.034
69357W        W28618  26.031  39.462  13.472
69358W        W28619   1.770  18.629   3.287
69359W        W28620  18.743  29.492  11.563
69360W        W28621  42.789  14.169   1.294
69361W        W28622  21.156  26.592   4.828
69362W        W28623  20.076  43.804  10.409
69363W        W28624  41.798  13.215  12.823
69364W        W28625  31.537  30.962   4.702
69365W        W28626  29.466  44.773  10.640
69366W        W28627  39.955  27.161  11.128
69367W        W28628   3.353  28.172  11.561
69368W        W28629  14.777  10.212  14.456
69369W        W28630  18.105  16.701   1.258
69370W        W28631  35.536  43.507  14.934
69371W        W28632  36.367  24.708  12.063
69372W        W28633  11.177  36.393  12.005
69373W        W28634  23.707   3.756   1.915
69374W        W28635   0.301  35.855  14.450
69375W        W28636  40.914  26.980  13.460
69376W        W28637  27.501  38.029  13.006
69377W        W28638  35.882   7.221  14.336
69378W        W28639  23.689  31.417  10.617
69379W        W28640  38.552  31.409   3.330
69380W        W28641  26.490   5.382  12.924
69381W        W28642  14.637  12.239  13.985
69382W        W28643   2.829  22.548  11.442
69383W        W28644  44.346   0.470  13.510
69384W        W28645  21.716  39.548  11.596
69385W        W28646  20.094  30.544  13.382
69386W        W28647  36.565  34.571   2.731
69387W        W28648   9.664  14.833   0.967
69388W        W28649   6.313  26.644  10.565
69389W        W28650  40.389  13.762   0.754
69390W        W28651   8.849   5.287  12.526
69391W        W28652  22.608   4.836  10.151
69392W        W28653  15.707   7.311  11.069
69393W        W28654  11.154   1.483   3.845
69394W        W28655  28.661   9.748  14.478
69395W        W28656  38.040   3.255   4.625
69396W        W28657   3.724   7.898  13.791
69397W        W28658  18.113  13.124   3.207
69398W        W28659  23.629   1.385  11.921
69399W        W28660  40.891  36.011   0.877
69400W        W28661  20.720  29.146   3.852
69401W        W28662   7.829  38.560   3.708
69402W        W28663  43.799  40.913  14.865
69403W        W28664  14.331  38.532  11.869
69404W        W28665   9.797  41.943  12.523
69405W        W28666   6.242  31.640  12.578
69406W        W28667  34.918  35.967   3.865
69407W        W28668  40.447  20.094  12.419
69408W        W28669   9.797  36.455  13.460
69409W        W28670   2.738  18.695   2.709
69410W        W28671  19.220  28.500  14.282
69411W        W28672  22.075   8.790   4.757
69412W        W28673  15.646  11.187  11.385
69413W        W28674   9.752   0.944  11.902
69414W        W28675  21.169   4.804  11.937
69415W        W28676  22.154  30.053  10.486
69416W        W28677   1.317  32.021  13.548
69417W        W28678   0.979  30.469   2.314
69418W        W28679  33.060  11.653   5.281
69419W        W28680  43.351  22.091   3.712
69420W        W28681  40.871  24.533   1.308
69421W        W28682   3.919  37.448   4.682
69422W        W28683   5.361  11.153   4.625
69423W        W28684  43.944  22.231   4.135
69424W        W28685   7.247  41.528   3.308
69425W        W28686  34.874  26.702   3.366
69426W        W28687   1.264   7.741  12.879
69427W        W28688  39.051  16.643   0.927
69428W        W28689   4.278  34.891  14.275
69429W        W28690   7.825  16.571  12.829
69430W        W28691  38.504  25.500  14.493
69431W        W28692   7.239  44.829   4.794
69432W        W28693  25.512  17.147   0.743
69433W        W28694  31.052  37.045   4.751
69434W        W28695  22.547  34.556   0.963
69435W        W28696  38.537  33.047  12.364
69436W        W28697  42.484  39.499   0.936
69437W        W28698  34.576  14.780  11.082
69438W        W28699  32.924  37.455   4.125
69439W        W28700   9.700  19.690  11.483
69440W        W28701  17.590  16.717   4.204
69441W        W28702  27.474  39.020   2.853
69442W        W28703  21.651  18.081  13.330
69443W        W28704  30.455  25.551  11.122
69444W        W28705   5.822  13.752  14.905
69445W        W28706   4.724  24.072   1.887
69446W        W28707  42.002   2.353  12.883
69447W        W28708  34.950   3.275   0.873
69448W        W28709  25.974  26.587   2.199
69449W        W28710  43.797  31.621   1.291
69450W        W28711   5.213  37.910  12.462
69451W        W28712  26.050   9.184  10.624
69452W        W28713  26.055  29.514  13.022
69453W        W28714  12.277   3.730  10.998
69454W        W28715  22.203  43.814  13.860
69455W        W28716  15.187  44.368   1.255
69456W        W28717  14.672  33.925  11.118
69457W        W28718  38.861  10.248  10.547
69458W        W28719  11.288  40.474   2.859
69459W        W28720   9.855   5.689   5.588
69460W        W28721  24.054   9.344   0.249
69461W        W28722   3.911  32.488   4.116
69462W        W28723  41.494  28.942  12.047
69463W        W28724  35.364  29.068   1.343
69464W        W28725  38.033  13.617  12.368
69465W        W28726  20.125  26.531   9.945
69466W        W28727  21.047  40.010   1.403
69467W        W28728  21.574  11.307  12.887
69468W        W28729  23.117  23.008   1.713
69469W        W28730  16.139  22.622  12.030
69470W        W28731   4.808  32.554   2.381
69471W        W28732  19.739  12.343  12.366
69472W        W28733  35.581  10.730   1.748
69473W        W28734  29.438  35.400  14.963
69474W        W28735   6.325  24.051  12.979
69475W        W28736  13.338  28.140  14.770
69476W        W28737   1.479   5.768  14.335
69477W        W28738  40.376  39.357  11.600
69478W        W28739  32.413  26.595   1.712
69479W        W28740   6.342   0.364   2.786
69480W        W28741  13.199  26.168   4.830
69481W        W28742  40.338  31.524   0.463
69482W        W28743  38.344  14.168  14.016
69483W        W28744  18.142  34.920  14.986
69484W        W28745  13.247  15.118   3.668
69485W        W28746  10.239  12.200   4.655
69486W        W28747   0.305  17.228   2.259
69487W        W28748  29.633  30.530  11.517
69488W        W28749  24.724  19.734  11.500
69489W        W28750  40.349   5.884  11.393
69490W        W28751  35.096  24.197   0.371
69491W        W28752  11.841  27.124  13.943
69492W        W28753  31.036   6.259  13.312
69493W        W28754  44.437   8.280   0.423
69494W        W28755  28.090  10.809   1.897
69495W        W28756  35.074  38.013   2.781
69496W        W28757   2.799  36.047  10.502
69497W        W28758  30.941  16.577  13.820
69498W        W28759  34.466  39.930   3.291
69499W        W28760  33.037   9.813  13.833
69500W        W28761   0.416  12.724   0.288
69501W        W28762  33.556  41.458   5.285
69502W        W28763  24.519  32.894   0.330
69503W        W28764  41.508   6.916   1.697
69504W        W28765  34.537  41.347   4.349
69505W        W28766   0.404  35.097  11.531
69506W        W28767  14.622  40.889  11.448
69507W        W28768   9.277  15.817  14.319
69508W        W28769   9.269  36.922   2.715
69509W        W28770   8.343   0.944  11.061
69510W        W28771  13.634  17.247   2.357
69511W        W28772  34.899   9.239   0.262
69512W        W28773  26.588  16.797  11.977
69513W        W28774  32.509   9.379  12.915
69514W        W28775  29.586  13.635  13.900
69515W        W28776   9.680  39.377   2.814
69516W        W28777  14.669  22.226   1.382
69517W        W28778  37.392  17.198  10.520
69518W        W28779   5.743  25.110   4.230
69519W        W28780  22.038  31.019   0.776
69520W        W28781  43.443   7.310  10.960
69521W        W28782  30.459  18.063   0.883
69522W        W28783  13.830  38.999  11.942
69523W        W28784  19.778  41.396   0.350
69524W        W28785   8.205  38.358  13.416
69525W        W28786   1.935  33.574  12.402
69526W        W28787   8.200  43.428   3.307
69527W        W28788   2.284  23.624  14.400
69528W        W28789   3.305  29.935  10.921
69529W        W28790   5.198  44.762  13.041
69530W        W28791   9.685   4.842  10.017
69531W        W28792  20.606  23.527   1.720
69532W        W28793   3.759  40.548   3.802
69533W        W28794  36.966   7.909   3.798
69534W        W28795   8.296  19.756   0.840
69535W        W28796  24.198  10.866   4.312
69536W        W28797  28.598   0.432   3.308
69537W        W28798   1.967  39.456  11.594
69538W        W28799   1.331  17.155   3.201
69539W        W28800   7.892  37.025  14.344
69540W        W28801   5.319  30.101  10.644
69541W        W28802   6.321  27.498  12.052
69542W        W28803  25.216  39.849  12.575
69543W        W28804  41.885   1.760   4.315
69544W        W28805   5.308  38.364  14.347
69545W        W28806  26.629   0.777  14.776
69546W        W28807   2.776  36.481   2.242
69547W        W28808  37.077   9.883   3.198
69548W        W28809  28.140  28.960   1.794
69549W        W28810  22.618   2.374  13.990
69550W        W28811  12.235  40.411   1.855
69551W        W28812  14.172  11.729  13.410
69552W        W28813  16.638  31.134   2.288
69553W        W28814  10.278  23.201   5.236
69554W        W28815  29.992   2.308  11.093
69555W        W28816  41.438  20.603  12.055
69556W        W28817   6.912  44.411  14.342
69557W        W28818  33.613   8.748   0.767
69558W        W28819  18.216  40.808  11.104
69559W        W28820  18.761  31.591  10.596
69560W        W28821  40.517  35.055   3.260
69561W        W28822  12.826  40.439  14.770
69562W        W28823  22.516  38.866  12.344
69563W        W28824  32.948  30.484  13.800
69564W        W28825  11.780   3.367  13.482
69565W        W28826  14.753   8.395   4.346
69566W        W28827  25.620   3.427   2.286
69567W        W28828  33.881  14.128   1.350
69568W        W28829  33.102  27.515  11.579
69569W        W28830  20.722  24.031  12.398
69570W        W28831  11.249  37.462  13.801
69571W        W28832  16.763  36.507  10.617
69572W        W28833  10.178  23.732  10.931
69573W        W28834  12.762  15.165  11.438
69574W        W28835  36.363  43.431  13.327
69575W        W28836  14.744   8.666   0.263
69576W        W28837  34.388  40.540   3.807
69577W        W28838  22.022   0.770   2.342
69578W        W28839   2.284   6.215  12.361
69579W        W28840  41.845  21.661  12.048
69580W        W28841  44.932  37.445   9.490
69581W        W28842   0.837  26.467  10.405
69582W        W28843  16.298  44.798   1.251
69583W        W28844  31.965  10.695  14.971
69584W        W28845  18.637  12.807  14.969
69585W        W28846  38.337  35.386  11.475
69586W        W28847   3.810  23.056   4.209
69587W        W28848  35.871  17.262   4.759
69588W        W28849   2.833  21.675  14.807
69589W        W28850  21.141   6.356  14.914
69590W        W28851  23.205  38.358  12.833
69591W        W28852   3.289   1.242   4.176
69592W        W28853  11.669  36.529   1.231
69593W        W28854  37.939  23.093   2.675
69594W        W28855  27.061  20.679   0.877
69595W        W28856  42.899  14.207  11.942
69596W        W28857  33.544  20.757  14.970
69597W        W28858  19.645  24.649   1.905
69598W        W28859  11.281   8.837   4.810
69599W        W28860  24.693  38.023   2.366
69600W        W28861  35.524  21.190  11.595
69601W        W28862   1.374  25.683   0.862
69602W        W28863   8.694  10.648   0.813
69603W        W28864   5.281  19.639   1.730
69604W        W28865  39.517  14.594   0.927
69605W        W28866  13.789  25.579  13.496
69606W        W28867   8.686  36.384   4.662
69607W        W28868   6.706  25.054   2.763
69608W        W28869  28.473  41.790  12.409
69609W        W28870  12.158  31.987  13.010
69610W        W28871  28.477  37.912   2.356
69611W        W28872   4.308  32.632  13.899
69612W        W28873  44.392   8.275  14.810
69613W        W28874   4.747  37.013   2.321
69614W        W28875  10.816  40.901  11.456
69615W        W28876  11.654  21.092   4.823
69616W        W28877  10.190  14.248   5.146
69617W        W28878   9.752  44.002   2.254
69618W        W28879  35.067  42.898   3.339
69619W        W28880  44.885  37.981  10.083
69620W        W28881  22.686   3.937   0.827
69621W        W28882  20.090  24.675  13.453
69622W        W28883  34.949  42.414  10.959
69623W        W28884  20.662   6.813  14.493
69624W        W28885  30.556  17.566  12.572
69625W        W28886  19.244  26.536  11.428
69626W        W28887  35.396   1.913   0.726
69627W        W28888  16.173  13.817  11.931
69628W        W28889  31.431  43.280   3.648
69629W        W28890  30.003  16.708   0.377
69630W        W28891  44.853  11.129  12.918
69631W        W28892  30.003  14.250  14.444
69632W        W28893  38.526  20.127  12.919
69633W        W28894  14.214  41.925   3.676
69634W        W28895  24.070   7.722  12.975
69635W        W28896   4.784  25.540   0.932
69636W        W28897   7.902  29.453   0.374
69637W        W28898  14.725  16.171   4.819
69638W        W28899  37.088  18.098  13.015
69639W        W28900  28.946  42.461  12.029
69640W        W28901  13.204  43.508   1.714
69641W        W28902  43.380  31.617  14.864
69642W        W28903   4.293  22.598  12.005
69643W        W28904  43.298   5.804  11.416
69644W        W28905  23.004   9.230  12.472
69645W        W28906  10.740  33.484  11.882
69646W        W28907  20.030   7.204   4.795
69647W        W28908  11.268   6.201   2.840
69648W        W28909  11.857  22.160  14.011
69649W        W28910  36.579   2.323  11.040
69650W        W28911  19.652  28.181   1.296
69651W        W28912  44.340   1.783   1.383
69652W        W28913  38.003  31.995  14.317
69653W        W28914  13.760  15.328   4.695
69654W        W28915   1.455  32.081  11.544
69655W        W28916  35.016  27.170  10.542
69656W        W28917  28.448  40.885   1.228
69657W        W28918   5.835  42.368   0.884
69658W        W28919  33.024  30.644  11.407
69659W        W28920  31.999  11.863  13.327
69660W        W28921  29.923  22.548  12.842
69661W        W28922  12.657  31.949   2.340
69662W        W28923  31.512   8.809   4.317
69663W        W28924   6.811  25.618  10.984
69664W        W28925  17.590   2.858  13.517
69665W        W28926  30.941  12.174  13.384
69666W        W28927  15.608  29.537  13.846
69667W        W28928  24.604   2.800   3.639
69668W        W28929  21.095  33.566  13.502
69669W        W28930  15.275   7.832   2.741
69670W        W28931  34.010  19.275   1.335
69671W        W28932  35.537  26.085  11.572
69672W        W28933  20.673  11.760   3.635
69673W        W28934   4.883  44.935   2.897
69674W        W28935  15.255  40.387   4.798
69675W        W28936  18.290   9.669  14.413
69676W        W28937  33.056   9.179  13.482
69677W        W28938  30.558  35.528   3.663
69678W        W28939   6.348  10.280   3.711
69679W        W28940  31.584  40.956   2.746
69680W        W28941  25.042  23.198  14.770
69681W        W28942  18.293   1.818   2.327
69682W        W28943  29.563  44.299  10.966
69683W        W28944   3.232  22.558   4.604
69684W        W28945   8.763   2.252   1.357
69685W        W28946   0.357  21.708  13.475
69686W        W28947  30.467  32.066  14.294
69687W        W28948  19.189   9.671  12.870
69688W        W28949  37.549  31.404  11.922
69689W        W28950  38.853  15.750   2.235
69690W        W28951   4.215  20.249   3.178
69691W        W28952  42.283   7.877  14.311
69692W        W28953  24.136  39.417   4.757
69693W        W28954  44.938  14.311  11.056
69694W        W28955  12.642  18.062  10.980
69695W        W28956  14.824  44.304  14.878
69696W        W28957  44.345  35.551   0.377
69697W        W28958   9.701  35.387   2.323
69698W        W28959  34.034  33.415  10.998
69699W        W28960  11.257  12.701   0.348
69700W        W28961   5.728  29.461   3.249
69701W        W28962  13.725  31.435   4.306
69702W        W28963   3.307  16.251  14.877
69703W        W28964  33.930  22.155  13.323
69704W        W28965  19.725  19.745  13.446
69705W        W28966  43.873  44.444   1.372
69706W        W28967  23.227  31.427  12.997
69707W        W28968  30.548  14.209   4.245
69708W        W28969   3.948   1.294   1.392
69709W        W28970   5.751  15.613  11.613
69710W        W28971   1.921  44.315   2.851
69711W        W28972  10.198  33.408  12.016
69712W        W28973  31.541  22.157  11.078
69713W        W28974  43.287  34.959  11.102
69714W        W28975  33.041  43.805   3.633
69715W        W28976   9.202  36.934  13.332
69716W        W28977   4.920  17.622  11.106
69717W        W28978  36.428  43.893   0.930
69718W        W28979  26.041  38.380   3.785
69719W        W28980  37.080  38.429  14.292
69720W        W28981  32.498   1.969  12.565
69721W        W28982   3.948  30.016  13.051
69722W        W28983  21.190   6.734   3.735
69723W        W28984  14.753   5.217  14.399
69724W        W28985   7.807  19.236  10.505
69725W        W28986   3.863   3.438   1.829
69726W        W28987  44.965  16.659  12.085
69727W        W28988  33.082  36.448   2.663
69728W        W28989  44.480  37.832   4.352
69729W        W28990   9.791  16.099  11.473
69730W        W28991   0.347  44.971   1.816
69731W        W28992  19.713  38.399  13.429
69732W        W28993  38.551   0.754   1.339
69733W        W28994  36.362  15.119  13.874
69734W        W28995   0.248  23.700   0.824
69735W        W28996  36.380  26.489   3.732
69736W        W28997  14.783  18.655   2.382
69737W        W28998  18.223  19.273   0.907
69738W        W28999  16.186  21.561   4.287
69739W        W29000  23.691  19.769  11.997
69740W        W29001  29.574   7.806  13.856
69741W        W29002  17.566  36.977   1.250
69742W        W29003  20.740   8.366   4.280
69743W        W29004  18.205   5.887   0.870
69744W        W29005  26.669  44.891  11.938
69745W        W29006  38.364   0.389  14.928
69746W        W29007  31.088  30.079   0.891
69747W        W29008  40.389  29.598   3.855
69748W        W29009   7.688  42.937   0.811
69749W        W29010  26.492  43.278  12.022
69750W        W29011  32.627  17.714  12.950
69751W        W29012  25.699  16.752   1.838
69752W        W29013  11.325  30.911   0.261
69753W        W29014  29.058  12.295  13.368
69754W        W29015   9.202  32.556   2.202
69755W        W29016  30.506  27.605  11.121
69756W        W29017   8.317  10.808  13.363
69757W        W29018   4.899   9.246  14.899
69758W        W29019  24.031   5.373   4.818
69759W        W29020   1.951   3.795  11.063
69760W        W29021  16.142  15.596   0.889
69761W        W29022  14.680  20.249   1.328
69762W        W29023  43.307   5.259  12.532
69763W        W29024  39.347   7.781   0.461
69764W        W29025  43.995  40.827   1.785
69765W        W29026   3.354   6.921   2.749
69766W        W29027   0.289  43.453  11.995
69767W        W29028  18.291  20.699  14.766
69768W        W29029  21.649  35.496  11.445
69769W        W29030  29.081   5.283   0.819
69770W        W29031  17.567  33.064  12.568
69771W        W29032   0.871   1.288  12.453
69772W        W29033  40.021   3.780  14.781
69773W        W29034  32.083  19.151  13.403
69774W        W29035  14.327  19.753   2.831
69775W        W29036   1.467  21.547  12.980
69776W        W29037   6.225  36.357   2.771
69777W        W29038  14.703   0.898   2.677
69778W        W29039  38.858   5.708  11.421
69779W        W29040  28.043  32.513  13.897
69780W        W29041  19.180   3.420  14.896
69781W        W29042  40.009  11.773  12.922
69782W        W29043  22.133  24.655  14.972
69783W        W29044  29.070  44.823  13.945
69784W        W29045   2.795  12.638   2.249
69785W        W29046  13.333  25.212   1.330
69786W        W29047  16.133   9.386   0.778
69787W        W29048  41.318  15.328  10.605
69788W        W29049  36.536  31.505   4.269
69789W        W29050  25.643   2.735  12.002
69790W        W29051  34.038  24.689  11.068
69791W        W29052  29.583  14.163   0.411
69792W        W29053  28.964  14.200   4.261
69793W        W29054   0.810  10.809   0.940
69794W        W29055  24.135  17.696   3.829
69795W        W29056  44.314  27.680   5.772
69796W        W29057   4.715  44.305  11.607
69797W        W29058  35.993   4.834  10.541
69798W        W29059  17.101   4.422   4.212
69799W        W29060  17.138  19.077   0.768
69800W        W29061  16.264  14.789   1.840
69801W        W29062  40.901   1.337   4.714
69802W        W29063  30.500  24.591  10.937
69803W        W29064  34.090  44.286   2.732
69804W        W29065   5.419  26.522   2.792
69805W        W29066  10.355  16.800  13.390
69806W        W29067  27.002  37.449   3.201
69807W        W29068  11.861  27.959   2.374
69808W        W29069  22.105   7.287  14.488
69809W        W29070   1.759  24.180  13.028
69810W        W29071  17.213  35.597   0.439
69811W        W29072   1.482  42.864   1.307
69812W        W29073  35.942   3.380   0.444
69813W        W29074   8.165  27.507  10.498
69814W        W29075  25.538  20.523  13.517
69815W        W29076  15.186  44.979   4.758
69816W        W29077  44.258   7.203  11.455
69817W        W29078  34.378  23.081   1.735
69818W        W29079  43.968  35.593  12.400
69819W        W29080  35.058  41.398  11.454
69820W        W29081  30.985  22.521   3.654
69821W        W29082  44.268  26.463   2.687
69822W        W29083  40.893  42.498  13.829
69823W        W29084   9.247  37.408  14.859
69824W        W29085  40.440  23.541   5.673
69825W        W29086   2.335  35.388  13.060
69826W        W29087  30.499  11.333  12.948
69827W        W29088  44.283  41.978   2.253
69828W        W29089   3.901  23.588   2.264
69829W        W29090  30.647  31.004   0.757
69830W        W29091  11.155   6.882   4.691
69831W        W29092  33.611  28.070   3.677
69832W        W29093  19.277  15.642  11.015
69833W        W29094  40.334  25.555  11.078
69834W        W29095  24.229  23.079   0.798
69835W        W29096  34.069  10.305  14.900
69836W        W29097  25.687  15.093   3.652
69837W        W29098  30.910  14.777  14.379
69838W        W29099   1.265   9.643   2.312
69839W        W29100  40.351   3.885  14.928
69840W        W29101  24.977  10.855   4.325
69841W        W29102  41.002   5.777  11.520
69842W        W29103  24.699   2.963   1.828
69843W        W29104   4.860  15.643  13.951
69844W        W29105  18.572  24.534   3.177
69845W        W29106  14.269   8.310   0.854
69846W        W29107  29.142  29.442   0.389
69847W        W29108  18.783  44.279  14.476
69848W        W29109  42.810  25.092   1.251
69849W        W29110  11.204  19.589   2.794
69850W        W29111  15.675  19.653   1.366
69851W        W29112  25.517   9.844  12.448
69852W        W29113  29.478  18.556   2.404
69853W        W29114   6.209   2.866   2.416
69854W        W29115   8.339  20.054   1.718
69855W        W29116  26.551  36.573   2.782
69856W        W29117   4.775  21.240  14.368
69857W        W29118  20.064  44.823   3.846
69858W        W29119  31.033   3.807  14.352
69859W        W29120   2.365  28.489   3.302
69860W        W29121  32.447  42.367  14.010
69861W        W29122  43.967  28.117   2.246
69862W        W29123  37.457  24.119   1.739
69863W        W29124  20.057  43.771  11.963
69864W        W29125  15.752  37.564   1.931
69865W        W29126  29.505  36.428  13.987
69866W        W29127  11.185  25.564  13.918
69867W        W29128   0.403  30.487   3.331
69868W        W29129  41.934  26.160   1.703
69869W        W29130  33.023  28.114   0.810
69870W        W29131  13.249  43.290  11.380
69871W        W29132  31.139  14.750  10.437
69872W        W29133  41.932  24.592   5.608
69873W        W29134  12.323  42.019   3.633
69874W        W29135  23.126   7.856  14.479
69875W        W29136  33.617  30.548   2.276
69876W        W29137  36.092  18.591  13.987
69877W        W29138  43.347  15.197  12.989
69878W        W29139  22.660  19.113   2.182
69879W        W29140  37.405  20.180   2.713
69880W        W29141  43.502  21.234   0.822
69881W        W29142  20.142  11.270  12.031
69882W        W29143   8.807  16.622   3.162
69883W        W29144  11.703  21.033   0.763
69884W        W29145   5.724  42.489   3.725
69885W        W29146  27.589  44.404   4.774
69886W        W29147  39.828  21.640   2.699
69887W        W29148  38.428   4.783   3.208
69888W        W29149  33.585  36.459  14.318
69889W        W29150   6.261  13.841  10.969
69890W        W29151  41.501  31.068   2.832
69891W        W29152  38.000   5.201   0.440
69892W        W29153  15.736  40.838  12.559
69893W        W29154  21.725  27.582  12.010
69894W        W29155  29.555  39.890  10.451
69895W        W29156  14.300  11.838   3.358
69896W        W29157   8.206  33.053   2.384
69897W        W29158  41.924  16.603   2.728
69898W        W29159  32.078   6.359  10.420
69899W        W29160  30.547  33.590  11.856
69900W        W29161  10.169   1.890   3.175
69901W        W29162  26.534  26.615  10.487
69902W        W29163  44.926  24.589  10.095
69903W        W29164  42.340   9.262   4.646
69904W        W29165  37.544   4.825   2.199
69905W        W29166  42.436  13.615   4.280
69906W        W29167  26.101   7.310   0.742
69907W        W29168  15.177  11.818   1.264
69908W        W29169  37.407  25.962   3.816
69909W        W29170  37.036  14.193   1.842
69910W        W29171  37.539  31.528  14.497
69911W        W29172  13.673  11.150  13.341
69912W        W29173   9.273  35.539  13.937
69913W        W29174  12.738  23.034   2.863
69914W        W29175  25.540  40.839  14.509
69915W        W29176   1.388  43.466  11.036
69916W        W29177  28.169  19.078   4.168
69917W        W29178  21.711  20.638  12.855
69918W        W29179  24.648  10.149   5.272
69919W        W29180  14.649  35.421   0.437
69920W        W29181   9.788  26.999  10.926
69921W        W29182  37.480  14.187  11.415
69922W        W29183  20.052  20.191  13.417
69923W        W29184  29.648  33.404  14.390
69924W        W29185   4.748  18.616  13.821
69925W        W29186  20.139  30.960  14.772
69926W        W29187  24.481   0.842   3.772
69927W        W29188  44.820  33.398  10.492
69928W        W29189  34.610  31.454  10.448
69929W        W29190  36.488  31.592   1.320
69930W        W29191  30.508  22.565  10.919
69931W        W29192  17.712  25.132  11.382
69932W        W29193  20.174  40.984   3.779
69933W        W29194  18.631  22.192   1.387
69934W        W29195   6.869  21.062   0.272
69935W        W29196  20.084  12.764   0.470
69936W        W29197  26.086  10.179   1.706
69937W        W29198  37.388  22.194   4.779
69938W        W29199  23.695  11.799  10.498
69939W        W29200  33.016   5.228   2.717
69940W        W29201  32.971  32.575  11.125
69941W        W29202   6.901  44.325  12.546
69942W        W29203  26.612   1.886   3.824
69943W        W29204  37.435   7.288   4.718
69944W        W29205  21.060  32.592   0.477
69945W        W29206  40.989   4.318  14.427
69946W        W29207  36.861  16.610   3.233
69947W        W29208   5.733  27.688   2.201
69948W        W29209   2.255  21.594   4.120
69949W        W29210  32.603  18.261   0.291
69950W        W29211  23.029  31.059  13.450
69951W        W29212  33.002   4.808   3.302
69952W        W29213  18.647   5.898   0.295
69953W        W29214   8.764  16.217   0.823
69954W        W29215  42.433  27.551  10.911
69955W        W29216  36.037  11.362   2.409
69956W        W29217  40.040  28.137  10.905
69957W        W29218  23.126   3.753   1.839
69958W        W29219  25.536  26.068  11.090
69959W        W29220  24.551  35.573  12.402
69960W        W29221   8.797  31.509   0.329
69961W        W29222   3.411  25.113  11.103
69962W        W29223  44.932  22.707   1.783
69963W        W29224  31.446   2.254   4.719
69964W        W29225  16.164  29.478  14.882
69965W        W29226  21.217  36.471  11.404
69966W        W29227  18.734  41.029  13.806
69967W        W29228   3.318  30.918  13.425
69968W        W29229  26.568   0.466  11.104
69969W        W29230  44.764  15.289   2.708
69970W        W29231  21.629   7.214   1.349
69971W        W29232  37.381  12.159   2.223
69972W        W29233  43.360  24.031  12.990
69973W        W29234  40.488  44.768  11.566
69974W        W29235  29.948   6.216  11.928
69975W        W29236  31.541   9.790   3.293
69976W        W29237   9.784  44.447  14.858
69977W        W29238   4.752   3.410   5.236
69978W        W29239  13.149  29.662   0.856
69979W        W29240  36.576  22.204  11.991
69980W        W29241   1.336  42.895   0.942
69981W        W29242  36.419  17.300  12.386
69982W        W29243   8.197  40.336   4.664
69983W        W29244  18.736  39.829   0.467
69984W        W29245  11.274   6.276  14.386
69985W        W29246  37.067  41.790  12.929
69986W        W29247   3.404   3.825   1.803
69987W        W29248  39.333  44.988   1.898
69988W        W29249  12.811  10.251   4.317
69989W        W29250   5.245  11.696   4.185
69990W        W29251  43.859  40.308   1.327
69991W        W29252  36.458  23.527  14.915
69992W        W29253  16.278  39.435  13.384
69993W        W29254  12.348  17.771   3.645
69994W        W29255  43.868  19.069  13.310
69995W        W29256  16.583   3.357  12.053
69996W        W29257  30.096  40.486   0.729
69997W        W29258  29.443  21.137   4.161
69998W        W29259  43.309  41.366  12.955
69999W        W29260  15.204  32.902   0.422
70000W        W29261   8.851  14.791  11.959
70001W        W29262   2.863  14.828  13.972
70002W        W29263  30.555  43.002  13.493
70003W        W29264   2.806  20.536  14.481
70004W        W29265  35.459  17.771  10.957
70005W        W29266  32.038  23.149   2.259
70006W        W29267  37.563  18.192   3.784
70007W        W29268  14.735  13.251   2.262
70008W        W29269  24.167  36.886   1.438
70009W        W29270  44.930  43.347   4.239
70010W        W29271   4.815   4.823   3.632
70011W        W29272  40.455  37.504   1.447
70012W        W29273  44.395  21.068  14.807
70013W        W29274  11.142   0.905   4.190
70014W        W29275  16.303  30.135  10.982
70015W        W29276  18.075  14.213  11.490
70016W        W29277   1.868  39.816   0.482
70017W        W29278  18.206  43.782  11.431
70018W        W29279  44.937  23.672   3.302
70019W        W29280  13.828   1.900  12.432
70020W        W29281  37.024  16.166   1.424
70021W        W29282   8.315  35.456  14.317
70022W        W29283  11.813  27.984   0.892
70023W        W29284  16.108  32.100   2.681
70024W        W29285  43.322  35.894   9.973
70025W        W29286  29.554  14.754   1.224
70026W        W29287   6.912  38.526   0.361
70027W        W29288  44.880  26.616  10.943
70028W        W29289  43.310   6.391   0.900
70029W        W29290   5.296   1.318  14.437
70030W        W29291   0.790  10.778  11.939
70031W        W29292   1.434  29.988  11.481
70032W        W29293   0.467  30.477   2.327
70033W        W29294   1.810   1.770   3.769
70034W        W29295  16.687  14.196   5.246
70035W        W29296  36.550  44.496   4.662
70036W        W29297  11.173  22.186   3.246
70037W        W29298  31.968  42.404  12.865
70038W        W29299  12.174  38.525   1.756
70039W        W29300  43.496  14.828  14.876
70040W        W29301  40.474   5.206   1.765
70041W        W29302  39.990  14.159  10.892
70042W        W29303  40.392  32.136  14.499
70043W        W29304  22.059  40.483   0.478
70044W        W29305  42.359  28.001  12.903
70045W        W29306  44.768  39.371  10.946
70046W        W29307   3.447   7.736  12.965
70047W        W29308  12.764   6.206   3.223
70048W        W29309  16.139  10.662   1.756
70049W        W29310  16.184  19.538  13.805
70050W        W29311  18.091  37.035  11.881
70051W        W29312  14.757  23.203   2.188
70052W        W29313   4.935  44.373   0.425
70053W        W29314  38.973  14.736  11.070
70054W        W29315   1.837  36.505   2.395
70055W        W29316   6.372  15.216   0.323
70056W        W29317  17.675   5.873   2.703
70057W        W29318   1.331  21.756   2.363
70058W        W29319  31.427  37.879  11.397
70059W        W29320  33.065  36.407  13.978
70060W        W29321  42.305   8.883   1.792
70061W        W29322  23.526  16.718  13.803
70062W        W29323   3.776  35.945   4.606
70063W        W29324   4.372  43.316  11.936
70064W        W29325   1.931   2.248  11.927
70065W        W29326  10.343   5.214   2.858
70066W        W29327  44.801  37.467  12.859
70067W        W29328  39.463   2.445  10.920
70068W        W29329  15.817   2.452   4.673
70069W        W29330  29.601  29.450   3.792
70070W        W29331  27.991  44.005  13.489
70071W        W29332  26.562  17.094  13.043
70072W        W29333  33.918  23.556  10.503
70073W        W29334  32.923  29.648  14.819
70074W        W29335  13.787  43.453  14.391
70075W        W29336  44.293  31.561   2.326
70076W        W29337  41.937  42.375  10.425
70077W        W29338  38.923  41.888   4.298
70078W        W29339   3.721  29.102   3.193
70079W        W29340  33.614  11.794   2.275
70080W        W29341  29.557  22.133  11.920
70081W        W29342  26.032  11.857  13.317
70082W        W29343   3.937  38.832   3.696
70083W        W29344  24.165  30.430  14.787
70084W        W29345  34.065  18.755  12.090
70085W        W29346  19.615  39.838  11.563
70086W        W29347   6.370  25.170  12.483
70087W        W29348  30.914  40.856   4.206
70088W        W29349  42.872   9.249  11.967
70089W        W29350   5.357  12.245  13.467
70090W        W29351  39.551  37.478  12.442
70091W        W29352  27.162  11.223   0.264
70092W        W29353  41.396   9.346  10.516
70093W        W29354   1.970  35.426  10.582
70094W        W29355  19.753  41.430   4.327
70095W        W29356  44.355  13.624   0.832
70096W        W29357   1.933   2.924   1.405
70097W        W29358  14.186  18.233  13.872
70098W        W29359   2.308  40.334   0.343
70099W        W29360  33.504  39.376  12.023
70100W        W29361  21.673  24.181   4.144
70101W        W29362  18.548  31.962  12.868
70102W        W29363  19.117  14.121  13.353
70103W        W29364  15.628  37.004  14.329
70104W        W29365  18.272  39.503  13.897
70105W        W29366  20.186  38.446   1.799
70106W        W29367  22.169  33.957   4.712
70107W        W29368  32.083  43.877   4.616
70108W        W29369  34.455  37.984   4.245
70109W        W29370  38.567  18.626   0.941
70110W        W29371  39.511  10.822   1.919
70111W        W29372   8.675  37.526  13.509
70112W        W29373  22.728  41.832  10.540
70113W        W29374  30.524  22.505   4.766
70114W        W29375  14.675   2.791  12.932
70115W        W29376  37.575  21.125   1.819
70116W        W29377  29.105  33.923  14.471
70117W        W29378  43.386  25.987   1.412
70118W        W29379  39.424   8.205   3.651
70119W        W29380  16.264   2.269  13.981
70120W        W29381   6.832  18.075  13.807
70121W        W29382  27.658  43.869  12.439
70122W        W29383  11.132  34.103   1.254
70123W        W29384  19.563  12.764   3.759
70124W        W29385  17.076  13.695   0.949
70125W        W29386  37.836  27.024  12.995
70126W        W29387  31.086  39.826  12.542
70127W        W29388  25.977   8.385   4.658
70128W        W29389  14.765   5.908  14.887
70129W        W29390  31.924   3.730  12.524
70130W        W29391  35.898  40.370  13.424
70131W        W29392  24.077  33.459   4.182
70132W        W29393  44.498  29.990  14.876
70133W        W29394  40.850  20.071   3.764
70134W        W29395  41.462  15.637   0.339
70135W        W29396  43.497  25.696  11.968
70136W        W29397  37.008  27.583   3.802
70137W        W29398   7.909  27.172   2.850
70138W        W29399  34.098  24.716   1.313
70139W        W29400  25.534   7.351  11.423
70140W        W29401   0.768  10.375   1.399
70141W        W29402   7.829   3.238  12.901
70142W        W29403  31.022   3.781   0.288
70143W        W29404  28.608  12.823  14.796
70144W        W29405  32.118  39.550   0.435
70145W        W29406  22.098   0.352  11.512
70146W        W29407  28.673  27.535   2.399
70147W        W29408   9.327  10.354   4.766
70148W        W29409  15.222  30.910   3.260
70149W        W29410  42.867   1.325  12.062
70150W        W29411  38.525   7.798   3.705
70151W        W29412  22.235  10.211  11.598
70152W        W29413  44.816   5.771   1.862
70153W        W29414  16.757  31.985   1.926
70154W        W29415  15.767  40.898  14.986
70155W        W29416   4.744   6.218   0.827
70156W        W29417  35.475  22.576  11.473
70157W        W29418  43.004   6.710   3.802
70158W        W29419  36.926  37.422  10.608
70159W        W29420  30.972  24.689   3.311
70160W        W29421  32.987  30.584  12.515
70161W        W29422   8.723  15.280  12.488
70162W        W29423  40.547  11.256   3.382
70163W        W29424   1.355  21.110   4.150
70164W        W29425  29.622   2.347  13.927
70165W        W29426  25.630  29.989   1.850
70166W        W29427  14.308  30.119   5.127
70167W        W29428  31.063   8.191  14.990
70168W        W29429  27.633  27.990  10.447
70169W        W29430   5.882  44.366  10.497
70170W        W29431  28.120  24.596   1.875
70171W        W29432  35.893  25.003  13.054
70172W        W29433   0.378   4.814   3.859
70173W        W29434  15.131  13.667  14.781
70174W        W29435  34.455  44.365   4.722
70175W        W29436  24.604   9.322  10.407
70176W        W29437  36.363  44.297  13.891
70177W        W29438  22.202  32.060  10.119
70178W        W29439   2.324  35.574   4.834
70179W        W29440  21.629  42.928   9.970
70180W        W29441  31.141   0.889   3.697
70181W        W29442  38.905   4.269   1.280
70182W        W29443  31.587  27.538  14.503
70183W        W29444  16.766  17.303   0.453
70184W        W29445  18.153  26.035   2.892
70185W        W29446  20.153  40.834   3.274
70186W        W29447  12.695  43.445  13.333
70187W        W29448  15.308  10.248   4.699
70188W        W29449  12.630  36.971  14.998
70189W        W29450  22.586  23.094  11.932
70190W        W29451   8.809  14.275   0.449
70191W        W29452  20.219   7.700  12.576
70192W        W29453  36.542  28.544   4.229
70193W        W29454  16.297  23.037  10.583
70194W        W29455  15.641  38.553  11.535
70195W        W29456  29.554  26.612  12.050
70196W        W29457  42.978  18.748   2.348
70197W        W29458  28.535  25.193  10.891
70198W        W29459  15.136  31.089  12.909
70199W        W29460  11.285  42.439   1.390
70200W        W29461  41.877  12.120  10.463
70201W        W29462   9.667  21.698   1.303
70202W        W29463  38.391  31.600  14.406
70203W        W29464  27.628   3.886  10.407
70204W        W29465  12.802  32.622   1.406
70205W        W29466  27.618  22.522   4.810
70206W        W29467  35.955  43.382   1.255
70207W        W29468  41.893  31.003   0.740
70208W        W29469  14.793  16.566   2.384
70209W        W29470  31.000  13.349  13.434
70210W        W29471  13.744  14.235  13.849
70211W        W29472  18.291   4.919   3.386
70212W        W29473   8.727  23.489   1.899
70213W        W29474  20.728  23.101   5.202
70214W        W29475   5.690   4.794  12.960
70215W        W29476  41.853   4.259   3.762
70216W        W29477  16.641  38.400   3.153
70217W        W29478   3.309  29.633  12.938
70218W        W29479  30.982  28.525   4.116
70219W        W29480   5.344  44.422   1.353
70220W        W29481   1.378   8.349  11.875
70221W        W29482  38.453   5.322   2.733
70222W        W29483  23.565  26.061  11.891
70223W        W29484  32.975  12.301  12.020
70224W        W29485  21.257   5.895   1.308
70225W        W29486   0.468  15.738   4.682
70226W        W29487   9.301  36.407  12.889
70227W        W29488  16.245   8.396  13.457
70228W        W29489  35.439  26.576  12.091
70229W        W29490  22.619   5.211   2.676
70230W        W29491  24.078  22.061   3.666
70231W        W29492  20.700  44.497   0.752
70232W        W29493  23.603   0.369   2.296
70233W        W29494  16.623  18.260   2.850
70234W        W29495  19.166   3.734  13.544
70235W        W29496  41.300   5.376  13.051
70236W        W29497  13.609  15.250  13.809
70237W        W29498  10.690   0.912  12.542
70238W        W29499  17.304  16.769   0.882
70239W        W29500   6.316  22.133  13.040
70240W        W29501  12.289  18.686   2.297
70241W        W29502  20.104  31.434  11.502
70242W        W29503  15.228   7.245  14.941
70243W        W29504  16.772  11.228   3.298
70244W        W29505  23.723  16.233   3.297
70245W        W29506   9.237  35.458   1.882
70246W        W29507   6.202   5.229   2.871
70247W        W29508   0.413   6.894   2.817
70248W        W29509  23.534   1.770   1.830
70249W        W29510   8.779  14.124   3.262
70250W        W29511   9.660  34.009   1.811
70251W        W29512  22.209  19.633  14.295
70252W        W29513  40.350  15.313   0.813
70253W        W29514  32.963  26.167   1.891
70254W        W29515  37.925  26.557   1.378
70255W        W29516  25.113   6.882   2.285
70256W        W29517   4.826   9.788  10.948
70257W        W29518  21.241  31.592  14.482
70258W        W29519  21.593   2.836   0.818
70259W        W29520  40.960  12.688   4.153
70260W        W29521  36.075   7.741   1.224
70261W        W29522  13.133  28.564  12.405
70262W        W29523  16.701  25.146  13.399
70263W        W29524  43.405  36.484  11.061
70264W        W29525   7.845  29.942  11.871
70265W        W29526  34.433   2.288   2.250
70266W        W29527  37.542  22.631  13.364
70267W        W29528  19.243  12.854  14.316
70268W        W29529  16.667  15.726   3.190
70269W        W29530  14.617   9.825   3.802
70270W        W29531  24.088  23.647   2.740
70271W        W29532   5.755  15.255   0.256
70272W        W29533  24.090   1.245  13.016
70273W        W29534  24.526  14.231   2.888
70274W        W29535  13.839   0.926   3.329
70275W        W29536  35.462   2.429   1.827
70276W        W29537   7.180   7.341  13.932
70277W        W29538   2.891  39.477   4.236
70278W        W29539  25.542  15.743  10.432
70279W        W29540   6.762  37.509  14.765
70280W        W29541  27.454  14.676   3.328
70281W        W29542  17.682  23.681   2.895
70282W        W29543  37.018  25.529  11.856
70283W        W29544  32.043  19.161   3.343
70284W        W29545  15.790  30.446   5.170
70285W        W29546   3.249  16.593   3.211
70286W        W29547   8.742   0.269  13.399
70287W        W29548  38.543  14.265  10.551
70288W        W29549  37.354  11.744   1.828
70289W        W29550  22.735  12.212   2.731
70290W        W29551  19.601   3.263   4.619
70291W        W29552  12.352  12.255  12.499
70292W        W29553  29.114  23.101  10.909
70293W        W29554  26.626  10.347  10.467
70294W        W29555   9.359  10.703  14.802
70295W        W29556   5.891  18.120   4.782
70296W        W29557  10.309  18.177   4.321
70297W        W29558  32.525  31.528  12.935
70298W        W29559   5.795  25.075  10.494
70299W        W29560  11.624   5.810  10.943
70300W        W29561  12.729  37.471  10.456
70301W        W29562  16.183  44.810   4.242
70302W        W29563  42.505  34.095  11.536
70303W        W29564  16.713  31.597  13.517
70304W        W29565  31.977  23.120   3.785
70305W        W29566   6.754  41.031  12.961
70306W        W29567  25.642   3.367  11.439
70307W        W29568  43.959  24.011  10.558
70308W        W29569  25.682  35.489   2.365
70309W        W29570  33.112  40.039  10.553
70310W        W29571  30.647  33.104   1.334
70311W        W29572  21.254  41.895   3.149
70312W        W29573  31.070  44.995   2.803
70313W        W29574  29.488   4.322  11.032
70314W        W29575  23.186  43.274  12.552
70315W        W29576  30.063  30.420   4.822
70316W        W29577   7.847  14.135   4.172
70317W        W29578  13.275   3.886  13.540
70318W        W29579  38.469   0.305  12.998
70319W        W29580  17.238  23.639  12.076
70320W        W29581  42.518  32.052   1.408
70321W        W29582   1.738   5.770   4.230
70322W        W29583  19.706  18.706  13.530
70323W        W29584   1.457   1.322  13.940
70324W        W29585  30.419   8.658  11.045
70325W        W29586  34.552   5.882  13.384
70326W        W29587   7.845   7.703   3.809
70327W        W29588  17.286  10.864  11.378
70328W        W29589  12.295   8.753   1.401
70329W        W29590  31.464  41.921   4.751
70330W        W29591  16.747  29.039  12.402
70331W        W29592  36.531   1.356  13.902
70332W        W29593  23.537   0.399   1.331
70333W        W29594  18.127   1.469   4.303
70334W        W29595  27.565  20.766  10.490
70335W        W29596  24.630  40.867  14.844
70336W        W29597  29.047   9.356  14.452
70337W        W29598  44.923  27.180   9.469
70338W        W29599  25.105   9.829   0.426
70339W        W29600  18.651   3.234  12.013
70340W        W29601  34.477  19.553  12.979
70341W        W29602  34.567  44.301  14.841
70342W        W29603  17.065  12.265   4.247
70343W        W29604  31.532   2.765   4.613
70344W        W29605  24.079  34.012  10.094
70345W        W29606   0.488  27.156   4.653
70346W        W29607  18.130  24.683   2.838
70347W        W29608  22.524  40.303  14.812
70348W        W29609  22.080  10.856   2.691
70349W        W29610  41.375  23.139  10.935
70350W        W29611  26.557  13.194   1.351
70351W        W29612  35.417  20.638   4.745
70352W        W29613   9.789  17.265  12.986
70353W        W29614  41.517  24.166   3.250
70354W        W29615  17.625  36.931   2.723
70355W        W29616  26.702   1.260   0.825
70356W        W29617  41.034  26.479   0.322
70357W        W29618   9.344  32.621  12.415
70358W        W29619  38.524  32.609   2.834
70359W        W29620  40.855  36.513   1.397
70360W        W29621  12.820  21.055   4.831
70361W        W29622  32.029   5.266  13.814
70362W        W29623  38.909  36.903   3.630
70363W        W29624  23.192  26.125  11.512
70364W        W29625  35.551   6.247  14.760
70365W        W29626  43.338  20.180   2.871
70366W        W29627  38.058  12.662   2.860
70367W        W29628  40.340  13.678   4.812
70368W        W29629  29.658  30.561   4.166
70369W        W29630  24.186  41.441  10.043
70370W        W29631  10.784  16.780  10.888
70371W        W29632   6.825  22.183  12.895
70372W        W29633  41.896   5.716  11.980
70373W        W29634  10.744   2.767  12.387
70374W        W29635  15.152  39.869  12.381
70375W        W29636  15.708   8.659   1.898
70376W        W29637  13.604  15.743   1.851
70377W        W29638  15.238  16.113   1.334
70378W        W29639   0.411   7.234  14.346
70379W        W29640  14.708  32.597  12.072
70380W        W29641   8.192  21.249  10.558
70381W        W29642   9.800   4.752   0.898
70382W        W29643  16.157   3.716  14.905
70383W        W29644  38.563  38.066  10.160
70384W        W29645  11.791  12.836   2.751
70385W        W29646  14.606  13.812  12.973
70386W        W29647  15.809  32.454   3.151
70387W        W29648  43.764  17.795   2.291
70388W        W29649  37.073   0.484   0.376
70389W        W29650   0.823   5.892  14.964
70390W        W29651  38.862  34.449   0.253
70391W        W29652  29.954  12.678  11.110
70392W        W29653  36.997  10.150  14.880
70393W        W29654  38.439  44.950  11.041
70394W        W29655  44.830  28.629   1.441
70395W        W29656  11.833   7.816   0.406
70396W        W29657   3.362  28.631   1.736
70397W        W29658  24.137  22.734   4.782
70398W        W29659  40.464  10.336   1.342
70399W        W29660  10.372  34.009  13.531
70400W        W29661   5.205  33.024   0.918
70401W        W29662   3.228  40.050  10.480
70402W        W29663  32.138   9.191   3.269
70403W        W29664  40.497  16.673   1.739
70404W        W29665  13.229   1.967   3.386
70405W        W29666   9.229  39.862   1.411
70406W        W29667  23.988   3.825  14.954
70407W        W29668  30.115  30.073   1.805
70408W        W29669  26.563  16.128  11.396
70409W        W29670  39.983  12.691   3.840
70410W        W29671  17.178  18.213   3.649
70411W        W29672   3.755  36.392  14.435
70412W        W29673  29.940  35.034   3.820
70413W        W29674  33.522  26.184   3.382
70414W        W29675   6.186  10.316  12.071
70415W        W29676  21.188   3.833   2.393
70416W        W29677  17.062  24.662   4.233
70417W        W29678  37.977  13.706   3.658
70418W        W29679   3.899  31.913  11.078
70419W        W29680   7.377   6.913  10.485
70420W        W29681  24.523  38.459  13.038
70421W        W29682   0.293  26.953  11.527
70422W        W29683   4.886  30.148  14.865
70423W        W29684  36.583   8.212   2.766
70424W        W29685   6.787  24.492  10.975
70425W        W29686  15.291  31.404  13.495
70426W        W29687  27.116  40.008   2.272
70427W        W29688  36.404   7.289   3.688
70428W        W29689  33.615  15.090   3.344
70429W        W29690  33.552  39.334   4.835
70430W        W29691   3.922  37.336  12.013
70431W        W29692  16.248  13.306  11.980
70432W        W29693  43.367  14.217   4.346
70433W        W29694  10.873  18.595   3.631
70434W        W29695  41.390  38.863   1.727
70435W        W29696   9.334  15.225  10.620
70436W        W29697  27.976   5.293  14.988
70437W        W29698   9.276   7.859   0.914
70438W        W29699   7.220  11.766   3.337
70439W        W29700  21.251  35.058   0.966
70440W        W29701  40.958  17.695  14.410
70441W        W29702  42.344  11.835  14.004
70442W        W29703  23.506   1.449   1.764
70443W        W29704  21.609  32.625   4.302
70444W        W29705   1.403   9.368  11.494
70445W        W29706  11.833  43.322  13.453
70446W        W29707  21.529  23.674  12.827
70447W        W29708  14.762  42.864  12.339
70448W        W29709   3.448  26.084   4.308
70449W        W29710  21.131  26.067   1.797
70450W        W29711  34.600   4.204  10.408
70451W        W29712  26.629   4.909   4.745
70452W        W29713   6.369   4.852   0.330
70453W        W29714   1.868  15.223  10.502
70454W        W29715  13.651  33.092  12.833
70455W        W29716  37.434  19.258   3.317
70456W        W29717   6.298  15.611  13.834
70457W        W29718  44.912  44.885  14.344
70458W        W29719  24.657  35.463  13.316
70459W        W29720  30.131  24.692  11.485
70460W        W29721   1.934  35.101  14.324
70461W        W29722   5.348  15.249   3.211
70462W        W29723  38.431   4.348   1.765
70463W        W29724  10.260   2.954   4.262
70464W        W29725  36.856  11.168  14.345
70465W        W29726  11.265  44.371   3.205
70466W        W29727  32.432  31.051  10.427
70467W        W29728   7.251  33.610   4.686
70468W        W29729  20.704   3.779  13.510
70469W        W29730   1.262  44.435   4.248
70470W        W29731   6.207   3.255  14.960
70471W        W29732   8.861  31.913  13.544
70472W        W29733   9.683   0.255  12.830
70473W        W29734  35.536   7.171  14.879
70474W        W29735  40.469  32.579  13.417
70475W        W29736  17.293  24.570  11.955
70476W        W29737  18.694   0.892  10.129
70477W        W29738  17.113  18.248  14.964
70478W        W29739  13.740  26.127   0.462
70479W        W29740  40.005  15.159  12.523
70480W        W29741   1.934  31.629   3.312
70481W        W29742  20.171  28.490   1.399
70482W        W29743  10.849  19.255  14.505
70483W        W29744  11.219   2.778   2.200
70484W        W29745  42.439  22.634  12.928
70485W        W29746  30.025   9.780   2.771
70486W        W29747  37.582  12.224  14.024
70487W        W29748  15.168  20.562   1.893
70488W        W29749  42.474  35.558  12.524
70489W        W29750   7.863   0.937  14.797
70490W        W29751  16.138  21.107  13.012
70491W        W29752  26.993   4.703  13.408
70492W        W29753  34.056  18.177  14.350
70493W        W29754  42.926  30.984  13.475
70494W        W29755  34.986   7.174  12.889
70495W        W29756  11.280  39.329   0.432
70496W        W29757  11.687  37.026   1.290
70497W        W29758   0.396   4.821  14.484
70498W        W29759  31.948  22.089  11.062
70499W        W29760   5.335  21.664  14.862
70500W        W29761  42.815  12.675   0.287
70501W        W29762  38.996  40.352   0.871
70502W        W29763  32.008  43.453   2.274
70503W        W29764  15.617   8.351   3.281
70504W        W29765  27.015  29.634  14.419
70505W        W29766  23.684  11.830  13.397
70506W        W29767  26.987  41.463  10.968
70507W        W29768  40.867  27.993   2.676
70508W        W29769  30.614  20.607  13.962
70509W        W29770  33.379  37.851   3.781
70510W        W29771  20.647   7.191   4.180
70511W        W29772  10.275  23.089   1.700
70512W        W29773  41.040  29.510   3.321
70513W        W29774  18.583  20.096   2.821
70514W        W29775  10.165  37.532   2.899
70515W        W29776  22.736  37.056  14.916
70516W        W29777  28.556  40.847  13.007
70517W        W29778   8.706  20.223   2.379
70518W        W29779  42.327   2.844   4.643
70519W        W29780  30.076  38.072   2.739
70520W        W29781   5.226  16.195  14.338
70521W        W29782  34.419  43.476   3.156
70522W        W29783  11.335  36.374  13.913
70523W        W29784   7.252  35.929   1.799
70524W        W29785  27.522   7.669   3.379
70525W        W29786   8.762  19.192   4.651
70526W        W29787  35.542  28.947  11.919
70527W        W29788  26.997  30.545  13.060
70528W        W29789   2.235  13.816   0.906
70529W        W29790   1.303   0.807   0.332
70530W        W29791  25.103  12.246  14.417
70531W        W29792   0.790  24.040  12.860
70532W        W29793   1.732   0.398  14.506
70533W        W29794  22.517  20.707  13.876
70534W        W29795  11.188  22.070   3.752
70535W        W29796  31.028  17.624  12.895
70536W        W29797  22.513  40.931   3.707
70537W        W29798  26.207  35.107   5.281
70538W        W29799  11.159  18.599   0.276
70539W        W29800  21.752   8.391  14.354
70540W        W29801  17.230  34.572  10.586
70541W        W29802  44.344   0.904   1.796
70542W        W29803  43.408   4.704  13.801
70543W        W29804  35.055   3.952   1.863
70544W        W29805  18.128  28.056   3.729
70545W        W29806  41.936  16.659   2.343
70546W        W29807  13.630   7.226   4.149
70547W        W29808  30.050  43.011  10.455
70548W        W29809   5.782  26.081   3.725
70549W        W29810  14.294   2.454  11.451
70550W        W29811  44.344   8.772   3.678
70551W        W29812  31.900  23.053   4.123
70552W        W29813   3.318  10.766  14.025
70553W        W29814  28.933  19.738  13.038
70554W        W29815  18.574  43.768  10.575
70555W        W29816  28.600  17.752   2.295
70556W        W29817   9.333  25.010  13.944
70557W        W29818  32.094   0.402   9.923
70558W        W29819  26.163  30.496   4.297
70559W        W29820  25.713  17.063   1.305
70560W        W29821  27.015  16.794  13.474
70561W        W29822  25.007  38.992   2.218
70562W        W29823  17.201  18.598  10.145
70563W        W29824  21.205   7.826   1.312
70564W        W29825  40.837  40.520   0.960
70565W        W29826   4.204  28.015   2.762
70566W        W29827  13.307  26.592   4.676
70567W        W29828  35.391   7.741   0.766
70568W        W29829   2.432  20.635   0.859
70569W        W29830  26.684  27.165  11.604
70570W        W29831   1.795  37.012   3.344
70571W        W29832  13.196  38.969   0.396
70572W        W29833  36.846  42.368  10.926
70573W        W29834   1.326  22.172  12.021
70574W        W29835   9.728   5.436  14.905
70575W        W29836  42.335   4.729   1.438
70576W        W29837   0.431  27.063  13.346
70577W        W29838  31.634   5.217  11.093
70578W        W29839  20.135   5.735  11.407
70579W        W29840  35.026  10.750   1.276
70580W        W29841  31.009  17.746   4.630
70581W        W29842   0.913   3.893  14.929
70582W        W29843   3.713  25.153   0.251
70583W        W29844  15.328  28.032  14.382
70584W        W29845   9.224  28.471  14.887
70585W        W29846   1.359   3.829  10.905
70586W        W29847  34.541  23.490  12.384
70587W        W29848   0.269  23.225   1.258
70588W        W29849  35.398  33.968   2.838
70589W        W29850   5.317   8.658   3.671
70590W        W29851  43.310  12.633   2.400
70591W        W29852  28.004   0.287   4.621
70592W        W29853  10.698   1.252   0.936
70593W        W29854  30.499  27.489   3.707
70594W        W29855  40.352  24.698   0.432
70595W        W29856  28.945  17.073   0.819
70596W        W29857  28.934  21.637   0.312
70597W        W29858  12.756   1.470  12.556
70598W        W29859  39.406   7.252  10.472
70599W        W29860  21.192  26.148  13.309
70600W        W29861   5.831  40.891   0.848
70601W        W29862  29.045  10.291  10.113
70602W        W29863  26.605   6.897   2.718
70603W        W29864   7.819  38.368  13.054
70604W        W29865  16.303  38.459   3.163
70605W        W29866  18.544  42.908   0.308
70606W        W29867  19.095   0.428  12.865
70607W        W29868   0.854   6.294  14.969
70608W        W29869  28.019  37.845  12.448
70609W        W29870  37.838  38.378   3.794
70610W        W29871  33.624  30.045  10.463
70611W        W29872   7.910  22.710  14.292
70612W        W29873  38.989  44.881  13.380
70613W        W29874  43.326  44.431  13.977
70614W        W29875  41.444   9.703  10.627
70615W        W29876  21.170  10.878  14.332
70616W        W29877   5.201   4.422   1.269
70617W        W29878  24.492   6.829  14.413
70618W        W29879   2.817  20.048  14.488
70619W        W29880   9.245  36.375   3.844
70620W        W29881  25.667  15.718   3.765
70621W        W29882  12.616  12.621   0.300
70622W        W29883  36.092  42.489   4.786
70623W        W29884  27.006  25.016  13.446
70624W        W29885  17.596  39.428  13.959
70625W        W29886  12.735   7.789  13.460
70626W        W29887   6.886  35.546   0.944
70627W        W29888  22.222  21.673  12.373
70628W        W29889   0.361  41.353   4.247
70629W        W29890  30.577  34.577   4.697
70630W        W29891  29.423  11.281   3.312
70631W        W29892   3.821  22.206   0.301
70632W        W29893  24.006  13.607   3.768
70633W        W29894  16.631  24.704   1.359
70634W        W29895  36.572   6.377   3.297
70635W        W29896  12.167   4.814  12.573
70636W        W29897   4.353  26.109  11.593
70637W        W29898  14.682  40.988   1.816
70638W        W29899   8.857  24.593  13.536
70639W        W29900   5.193   2.280  13.446
70640W        W29901  19.649  27.593  12.918
70641W        W29902   1.466  33.955  11.066
70642W        W29903  33.041  18.235   4.680
70643W        W29904  11.247  38.927   0.270
70644W        W29905  15.798   9.781  11.494
70645W        W29906  40.046  12.187  12.528
70646W        W29907  23.041   3.357  13.337
70647W        W29908  31.013  36.011   1.839
70648W        W29909  28.170   1.371  12.478
70649W        W29910  26.033  21.251  10.921
70650W        W29911  17.170   4.276  13.977
70651W        W29912  17.070  37.540   2.876
70652W        W29913  14.115   5.428  12.437
70653W        W29914  40.382  42.877   1.745
70654W        W29915  27.654  29.067   2.332
70655W        W29916  20.263  26.582   1.889
70656W        W29917  43.339  32.492  10.626
70657W        W29918  35.978  40.021   2.700
70658W        W29919  28.184   3.878  14.772
70659W        W29920  28.055  41.904  14.434
70660W        W29921  19.727  15.225  10.454
70661W        W29922  42.796   0.398  13.515
70662W        W29923  28.035   0.324  14.970
70663W        W29924  10.758   2.322  12.472
70664W        W29925  23.101  11.372   2.670
70665W        W29926  18.580  15.209   0.346
70666W        W29927   3.458  26.974   2.789
70667W        W29928   0.803  19.215   1.768
70668W        W29929   7.195  36.862   2.390
70669W        W29930  29.627   4.422  10.555
70670W        W29931  26.130  34.865   3.821
70671W        W29932  14.653  22.614   5.086
70672W        W29933  21.094  26.703  13.022
70673W        W29934  34.089  28.515   1.376
70674W        W29935  33.521  16.694   4.713
70675W        W29936  35.011  25.549   1.341
70676W        W29937  44.461  41.799  12.848
70677W        W29938  26.697  30.574   3.175
70678W        W29939  12.729   3.352  10.601
70679W        W29940   2.274  33.067   1.279
70680W        W29941  11.668   5.386  11.913
70681W        W29942  19.665  37.005   3.214
70682W        W29943  24.074  11.791  12.981
70683W        W29944  15.288  30.952  14.275
70684W        W29945  42.848   0.450   0.926
70685W        W29946  19.075  26.475  13.836
70686W        W29947  44.503  40.819   0.461
70687W        W29948  14.606  20.217  14.365
70688W        W29949  34.446  24.144  14.899
70689W        W29950  10.807  27.665   4.114
70690W        W29951  37.958  35.073   3.206
70691W        W29952  12.755  30.141  13.330
70692W        W29953   2.865  39.318  12.374
70693W        W29954  25.633  18.249  13.377
70694W        W29955  13.331  27.658   9.491
70695W        W29956  17.646  35.469  14.356
70696W        W29957   1.273   1.391  11.395
70697W        W29958  15.645  18.644   4.802
70698W        W29959  42.910  10.746  12.375
70699W        W29960  33.117  18.095  10.990
70700W        W29961  37.053  16.613  14.857
70701W        W29962  40.381  11.817   1.856
70702W        W29963  11.235  17.705   3.758
70703W        W29964  20.036   8.163   3.331
70704W        W29965  29.546  23.016  14.428
70705W        W29966  16.793   6.794  10.628
70706W        W29967  17.587  41.464   4.721
70707W        W29968  21.087  41.358  11.600
70708W        W29969  43.796  32.018  10.421
70709W        W29970  10.701  23.195   0.423
70710W        W29971   1.848   6.772  11.867
70711W        W29972  15.156  23.014  12.053
70712W        W29973  23.198  44.287   4.114
70713W        W29974   2.792   0.980  11.080
70714W        W29975  10.347  17.132  10.559
70715W        W29976  33.075  44.363  12.557
70716W        W29977  40.802   5.775  14.403
70717W        W29978   4.872   1.237  13.471
70718W        W29979  41.015  24.184  12.521
70719W        W29980  29.943  30.109   0.370
70720W        W29981  15.660  14.725  10.479
70721W        W29982   7.813  18.579   1.449
70722W        W29983  31.439  25.666   3.637
70723W        W29984  40.910  42.844  12.891
70724W        W29985  12.244  24.500   0.750
70725W        W29986  38.516  32.102   1.901
70726W        W29987  11.702  15.307  10.412
70727W        W29988  37.936   9.828  12.843
70728W        W29989  26.527   6.894  12.573
70729W        W29990  11.137   5.871  12.446
70730W        W29991  44.481   5.256  12.387
70731W        W29992  43.318  18.159  13.398
70732W        W29993  28.945  18.071   3.371
70733W        W29994   5.824  42.307   1.426
70734W        W29995  35.378  12.286  14.838
70735W        W29996  25.137  31.468  13.001
70736W        W29997  10.155  15.188  13.824
70737W        W29998  15.719  13.247  12.877
70738W        W29999  43.014  35.573   2.784
70739W        W30000  19.634  31.992   2.188
70740W        W30001   8.212  22.659   0.886
70741W        W30002  16.267  18.621   0.371
70742W        W30003  44.464  15.304   2.193
70743W        W30004   0.451  29.933  13.835
70744W        W30005  32.566   5.812   3.154
70745W        W30006  34.464  40.411  11.976
70746W        W30007   4.904  30.464  14.444
70747W        W30008  38.419  29.474  11.572
70748W        W30009   8.728  41.797  12.050
70749W        W30010   7.219  13.215  14.374
70750W        W30011  16.597   9.725  12.937
70751W        W30012  16.101   3.283   2.275
70752W        W30013  36.396  42.319  11.470
70753W        W30014  42.387  14.281  13.047
70754W        W30015   0.805  10.851  12.342
70755W        W30016  44.767  16.725  14.455
70756W        W30017  42.917  22.627  12.576
70757W        W30018  41.941  38.563   4.718
70758W        W30019   3.856   0.799   0.906
70759W        W30020  10.330  24.619   4.702
70760W        W30021  24.079  29.991  14.481
70761W        W30022  17.773  41.896   1.289
70762W        W30023  26.105  37.934   2.683
70763W        W30024   9.215  31.615   4.701
70764W        W30025  14.210  16.672  11.381
70765W        W30026  43.316   3.843   1.250
70766W        W30027  35.897  31.632   2.808
70767W        W30028  26.205  23.576  14.416
70768W        W30029  25.512  16.256  14.863
70769W        W30030  36.572  42.465   1.863
70770W        W30031  19.207  30.554  10.987
70771W        W30032  37.884  10.152   0.941
70772W        W30033   5.779  43.846  13.459
70773W        W30034   8.862  18.124  14.949
70774W        W30035   0.331  21.119  12.534
70775W        W30036  22.146  27.610   0.826
70776W        W30037  22.047  26.469   2.892
70777W        W30038   0.439  13.293  10.980
70778W        W30039  40.906  15.306   1.717
70779W        W30040  22.073  43.328  12.887
70780W        W30041  31.590  10.354   3.650
70781W        W30042   2.322  41.386  14.943
70782W        W30043  25.584  18.248  12.377
70783W        W30044   6.229  17.787  11.013
70784W        W30045  40.006  41.534  11.908
70785W        W30046   0.946   5.353  14.922
70786W        W30047   6.385  13.604   4.214
70787W        W30048  42.335  38.067  14.461
70788W        W30049   8.760  36.915   1.448
70789W        W30050  37.050   1.953  12.442
70790W        W30051  23.166  39.001  14.409
70791W        W30052  33.502  44.771  10.609
70792W        W30053  44.327  33.571   4.724
70793W        W30054  18.611   5.419   9.479
70794W        W30055  15.814  40.037   4.117
70795W        W30056  34.872  30.630   1.860
70796W        W30057  31.093  34.985   2.257
70797W        W30058  17.636  18.193  14.878
70798W        W30059  13.132  17.182   0.919
70799W        W30060  33.506  37.904  13.992
70800W        W30061  37.524  32.079   1.318
70801W        W30062  24.086  22.013  11.571
70802W        W30063  35.917  37.347   4.760
70803W        W30064   9.246  23.075  11.402
70804W        W30065  22.656   4.845   3.852
70805W        W30066  15.148  24.656   3.232
70806W        W30067  11.782  20.613  11.998
70807W        W30068  23.560  29.520   2.757
70808W        W30069  20.214  32.484  13.339
70809W        W30070  33.083  28.971  11.501
70810W        W30071  24.197  14.165  11.122
70811W        W30072  44.335   1.342   4.697
70812W        W30073   2.753   9.747   4.146
70813W        W30074  40.816   4.752   3.258
70814W        W30075  28.126  23.192   2.814
70815W        W30076  32.034  33.557  11.612
70816W        W30077  18.188  40.446  14.814
70817W        W30078  27.662  20.089   1.809
70818W        W30079  15.577   9.182  10.926
70819W        W30080  39.987  17.717   5.081
70820W        W30081  43.012   2.921  13.425
70821W        W30082  27.116   5.259  12.966
70822W        W30083  11.700  41.446  13.969
70823W        W30084  21.080  35.599   0.889
70824W        W30085   8.212   7.762   4.128
70825W        W30086  40.938  31.109  11.581
70826W        W30087  40.038  24.074   1.315
70827W        W30088  10.768  10.869   3.771
70828W        W30089  36.396   3.279  13.885
70829W        W30090  10.139  15.130   5.177
70830W        W30091  14.325  20.673  12.076
70831W        W30092  19.637   8.196   0.926
70832W        W30093  18.764  36.470  11.106
70833W        W30094  10.863  18.103  11.418
70834W        W30095  43.860  37.011  11.540
70835W        W30096  22.015  26.502   0.484
70836W        W30097  12.788  35.579   3.315
70837W        W30098   2.333  31.124   3.158
70838W        W30099  25.049  23.105  13.928
70839W        W30100  13.197  11.633  14.331
70840W        W30101  13.107  30.048   1.409
70841W        W30102   7.705  26.555  10.942
70842W        W30103  27.101   8.786   4.661
70843W        W30104  22.073  39.917  14.471
70844W        W30105   8.281  11.318  13.946
70845W        W30106  21.102  43.902  13.026
70846W        W30107  24.606   6.718   2.744
70847W        W30108   7.354  35.067   4.306
70848W        W30109  37.937  43.275   3.207
70849W        W30110   1.441  38.488  14.387
70850W        W30111   6.282  31.576  11.966
70851W        W30112  22.153   6.786   1.438
70852W        W30113   8.250  32.017  11.919
70853W        W30114  36.842  34.426  10.565
70854W        W30115  44.401  25.196  10.489
70855W        W30116  41.012  40.544   0.291
70856W        W30117  19.154   2.385  10.637
70857W        W30118  43.000  25.653   1.813
70858W        W30119   3.922  16.655  11.982
70859W        W30120  26.460  25.647   1.374
70860W        W30121  35.954  33.460  11.913
70861W        W30122  16.809   0.271   1.417
70862W        W30123  16.078  19.672  12.056
70863W        W30124  34.519  22.095  13.920
70864W        W30125  22.629   4.308   1.843
70865W        W30126  35.916  33.915  10.953
70866W        W30127   2.243   4.276   0.418
70867W        W30128  42.373  32.424  10.475
70868W        W30129  16.629  17.603  13.394
70869W        W30130  42.964   1.788  14.858
70870W        W30131  19.267  16.151   4.795
70871W        W30132   9.209  37.932   1.289
70872W        W30133  13.659  11.856  14.278
70873W        W30134  26.614  37.520  11.563
70874W        W30135  10.357   2.742   3.781
70875W        W30136  34.098   1.244  10.573
70876W        W30137  27.126  11.858  12.346
70877W        W30138  33.535  40.432  13.425
70878W        W30139  35.375   3.765   3.272
70879W        W30140  43.495  20.130  10.154
70880W        W30141  32.036  23.158   1.380
70881W        W30142  28.066  15.737   3.787
70882W        W30143  30.107   4.877   3.294
70883W        W30144   3.215  21.132  14.901
70884W        W30145  33.381  29.555   5.157
70885W        W30146   7.248   3.743  14.949
70886W        W30147  28.445   6.304   1.434
70887W        W30148  44.302  41.445   1.842
70888W        W30149   2.740   1.749   4.246
70889W        W30150  16.222  32.890  12.378
70890W        W30151  40.437   1.822  10.635
70891W        W30152  41.426   7.371  12.972
70892W        W30153  33.046  36.067   3.300
70893W        W30154  20.251  34.099  12.005
70894W        W30155  21.255   7.296   0.735
70895W        W30156  35.107  35.994   1.290
70896W        W30157  34.113   6.847  10.112
70897W        W30158  20.661  35.006  13.040
70898W        W30159  25.165  35.076  11.859
70899W        W30160  44.350  13.781  11.566
70900W        W30161  34.451  35.595   0.872
70901W        W30162  14.744  44.340   3.308
70902W        W30163  31.592   5.694   3.713
70903W        W30164  20.045  24.221  11.584
70904W        W30165   4.323   3.759   3.706
70905W        W30166  13.846  36.044  13.354
70906W        W30167  32.527  20.227  11.567
70907W        W30168   3.849  43.809   2.870
70908W        W30169  13.694  44.322   3.757
70909W        W30170   9.233  14.723   2.373
70910W        W30171  10.810   9.660   3.854
70911W        W30172   8.817  24.110   2.198
70912W        W30173  24.175  18.710  12.944
70913W        W30174  17.777  23.148  11.570
70914W        W30175  20.731  41.001  11.510
70915W        W30176   6.811   9.775   0.316
70916W        W30177   5.319  44.868   0.743
70917W        W30178  16.136  41.843  13.372
70918W        W30179  43.372  30.566   0.845
70919W        W30180  15.586  26.148   0.791
70920W        W30181  27.478  26.604   3.804
70921W        W30182   0.376  27.994  12.086
70922W        W30183  36.032   7.380   3.206
70923W        W30184  38.023  25.540   5.191
70924W        W30185   1.459  17.756  14.022
70925W        W30186  20.030   8.371  10.609
70926W        W30187   4.891  29.114  10.130
70927W        W30188  12.253   6.285  14.913
70928W        W30189  27.645  35.040   2.690
70929W        W30190  17.700  15.118  14.820
70930W        W30191   6.911  26.086   4.232
70931W        W30192   6.693  14.634  14.799
70932W        W30193  40.483  11.624   2.714
70933W        W30194  10.658  26.460  12.035
70934W        W30195  33.606  39.892   1.211
70935W        W30196   4.234   4.827   2.236
70936W        W30197  11.746   0.433   3.334
70937W        W30198  30.485  20.035  10.471
70938W        W30199  17.567  12.294   3.850
70939W        W30200  31.117  26.971  13.481
70940W        W30201  30.072  13.342   1.780
70941W        W30202  11.238  10.698  14.962
70942W        W30203  29.968  35.432  11.942
70943W        W30204  21.166  14.684  12.842
70944W        W30205  26.506  36.859  12.896
70945W        W30206  34.009   8.257  13.510
70946W        W30207  30.002  35.461   0.308
70947W        W30208  43.381  36.390   2.825
70948W        W30209   5.319  23.222   4.600
70949W        W30210  16.610   5.795   0.952
70950W        W30211   6.685  44.818   4.190
70951W        W30212  11.358   5.297  11.379
70952W        W30213  26.589  41.327   3.849
70953W        W30214  30.496   3.949   0.878
70954W        W30215  11.291  21.061  10.480
70955W        W30216  37.010   3.796  10.610
70956W        W30217  23.647  21.072   4.627
70957W        W30218  38.902  16.584  14.406
70958W        W30219  12.694   7.238  14.878
70959W        W30220  17.623  12.611   3.242
70960W        W30221  11.256  12.850   4.203
70961W        W30222  10.634  13.805   2.763
70962W        W30223  32.419  13.291   2.758
70963W        W30224  13.234  14.176  14.509
70964W        W30225  41.381  31.601  14.775
70965W        W30226   3.386  35.915   3.721
70966W        W30227   1.259  39.369   2.314
70967W        W30228  19.206  15.637  14.865
70968W        W30229  24.208  17.224   1.711
70969W        W30230  42.871  15.320   1.714
70970W        W30231  14.340  23.158   3.245
70971W        W30232   0.904  20.261   4.732
70972W        W30233  41.333  19.745  12.959
70973W        W30234   8.280  23.621   4.788
70974W        W30235  22.130   9.277  10.495
70975W        W30236   9.362   0.369  12.452
70976W        W30237  13.754  16.120   3.165
70977W        W30238  25.034  12.712  11.540
70978W        W30239  16.265  25.536  13.035
70979W        W30240  30.021  14.229  11.974
70980W        W30241  16.234  26.586   3.682
70981W        W30242   1.930  23.618  14.445
70982W        W30243  25.648  15.269   4.266
70983W        W30244  17.249  26.112   3.781
70984W        W30245   2.940  40.873   1.296
70985W        W30246  20.597   7.724  12.438
70986W        W30247  29.556   4.930   4.322
70987W        W30248  36.357  17.665  14.959
70988W        W30249   6.840  32.033  11.122
70989W        W30250  10.677  19.154   4.209
70990W        W30251   3.955   0.287   1.697
70991W        W30252   2.414   2.943  11.926
70992W        W30253  38.894  27.009   0.873
70993W        W30254  10.177  27.481   2.228
70994W        W30255  28.174   3.839   0.346
70995W        W30256  35.559  20.240  11.494
70996W        W30257   7.195  23.732  14.765
70997W        W30258  28.494  27.620  12.863
70998W        W30259   5.735  31.901   3.294
70999W        W30260  35.443  31.915   4.301
71000W        W30261  42.407  23.544  11.083
71001W        W30262   3.253   2.328  14.471
71002W        W30263  30.431  25.649   2.416
71003W        W30264  14.704  32.914   2.795
71004W        W30265  29.604  34.040  12.378
71005W        W30266  11.725  13.272   1.774
71006W        W30267  37.355   1.798   3.777
71007W        W30268  19.180  26.684  13.015
71008W        W30269  33.572  42.516  14.437
71009W        W30270  33.961  12.748  14.861
71010W        W30271   6.292  12.303   2.279
71011W        W30272  35.540  11.802  13.405
71012W        W30273  43.339  13.307   3.277
71013W        W30274  13.342  29.005   2.321
71014W        W30275   9.731  33.875   1.397
71015W        W30276  12.321  25.188   0.275
71016W        W30277  19.729  28.645  11.955
71017W        W30278  35.384  39.026  13.869
71018W        W30279  44.394  19.682  10.999
71019W        W30280   7.379   3.351   9.943
71020W        W30281  31.443  16.189  13.352
71021W        W30282  43.774  36.513  14.466
71022W        W30283  14.627  19.757   3.751
71023W        W30284  35.371  27.129   4.681
71024W        W30285  43.833  29.943   3.847
71025W        W30286  37.523  16.764  12.037
71026W        W30287   4.830  37.454  13.037
71027W        W30288  43.269  30.978  11.933
71028W        W30289   4.429  17.072   0.947
71029W        W30290  32.908  29.104   4.630
71030W        W30291  34.493   8.298   1.425
71031W        W30292  18.222  12.629  11.890
71032W        W30293  38.027  11.796   2.865
71033W        W30294  23.141  25.674  14.434
71034W        W30295  13.111  39.381  13.486
71035W        W30296  27.958  18.611   0.853
71036W        W30297  44.314   0.831   4.788
71037W        W30298  34.037  33.116  14.869
71038W        W30299  15.135  23.595  14.480
71039W        W30300   5.434   5.930  12.960
71040W        W30301  23.038  14.261   1.856
71041W        W30302   7.289  32.931  14.302
71042W        W30303  35.903  16.221  11.895
71043W        W30304  39.558  34.595   5.160
71044W        W30305  34.380   5.828  10.473
71045W        W30306   1.908  24.161   2.675
71046W        W30307  11.239  40.797  11.443
71047W        W30308  23.693  26.067  12.925
71048W        W30309  28.990  38.411  12.511
71049W        W30310  15.139  33.568   2.698
71050W        W30311  24.523   9.259  13.937
71051W        W30312   0.443  42.807  14.791
71052W        W30313   2.771  19.588   2.747
71053W        W30314  32.040  21.133   3.749
71054W        W30315   0.916  31.602  13.897
71055W        W30316  39.424  22.563  11.119
71056W        W30317  11.189   3.759   2.780
71057W        W30318  19.200  38.833   3.777
71058W        W30319  36.896  11.846   0.463
71059W        W30320   9.819  23.222  12.958
71060W        W30321  23.075  15.749   1.796
71061W        W30322  13.306  27.038   0.848
71062W        W30323  37.401  19.185   3.699
71063W        W30324  39.466   8.168   3.232
71064W        W30325  39.852  19.595   4.204
71065W        W30326  41.956  14.820  14.790
71066W        W30327  28.488  38.439  10.425
71067W        W30328   8.168  19.689   3.765
71068W        W30329  20.083  30.953   1.374
71069W        W30330  24.620  26.525  14.348
71070W        W30331  14.691  32.916   4.783
71071W        W30332  42.857  30.982  13.061
71072W        W30333  36.517  35.435  10.909
71073W        W30334   9.360  17.648  12.380
71074W        W30335  17.094   3.733   5.099
71075W        W30336  40.026  35.576  13.410
71076W        W30337  11.663  18.734  14.960
71077W        W30338  12.172  19.571  14.309
71078W        W30339   1.250   8.406   4.196
71079W        W30340  19.084  25.648  14.361
71080W        W30341   7.224  26.481  10.969
71081W        W30342  15.103  24.210  13.357
71082W        W30343  13.687   3.337   4.653
71083W        W30344   7.202   1.873  13.972
71084W        W30345  35.567  16.228   3.205
71085W        W30346  14.336   7.175   2.722
71086W        W30347  11.868  34.010   3.724
71087W        W30348  37.453   1.910   1.725
71088W        W30349  25.697  38.928  13.901
71089W        W30350  13.318  43.893   4.336
71090W        W30351  40.402  14.718   2.712
71091W        W30352  29.655  17.691  13.377
71092W        W30353  40.902  27.097  12.386
71093W        W30354  31.002  31.054   0.942
71094W        W30355   8.269  21.129  12.463
71095W        W30356  18.201  25.696  14.913
71096W        W30357   3.920  19.683  12.564
71097W        W30358  38.344  42.345  11.990
71098W        W30359  32.135  21.040   0.324
71099W        W30360  38.475  28.665  13.850
71100W        W30361  16.256  19.746   3.652
71101W        W30362  25.519  11.217  13.415
71102W        W30363  19.119  35.451   2.383
71103W        W30364   4.852  17.206   3.636
71104W        W30365  11.824  10.823   1.445
71105W        W30366  26.569  41.945   2.793
71106W        W30367  13.762  44.305  11.494
71107W        W30368  42.363  21.647   1.729
71108W        W30369   2.964  25.630  13.846
71109W        W30370  18.613  40.950   0.869
71110W        W30371   7.176  38.981   0.355
71111W        W30372  10.288  41.506  10.471
71112W        W30373  28.452  33.523  13.838
71113W        W30374  33.416  12.841   3.803
71114W        W30375  40.508  22.220   4.713
71115W        W30376  23.007  23.726  14.820
71116W        W30377   9.685  25.621  12.960
71117W        W30378  40.958  36.457   5.214
71118W        W30379  20.271  10.759  11.964
71119W        W30380   7.761  11.351   3.273
71120W        W30381  27.481  29.930   0.733
71121W        W30382  15.191  18.600   0.459
71122W        W30383   6.322  18.760  14.914
71123W        W30384  15.658  40.377   1.758
71124W        W30385  14.166   9.306   0.907
71125W        W30386   6.757   6.765  12.941
71126W        W30387  12.266  39.035  14.356
71127W        W30388  34.066  27.668  10.537
71128W        W30389  22.219  15.187   3.735
71129W        W30390  37.920  34.543  14.020
71130W        W30391  38.925  42.470  14.489
71131W        W30392   5.368  16.589   2.272
71132W        W30393  21.661  16.803   1.711
71133W        W30394  24.070  34.938  14.307
71134W        W30395  20.551  20.573   2.338
71135W        W30396  37.988  30.543   4.716
71136W        W30397  42.925  11.127  14.309
71137W        W30398   4.904  42.462  10.418
71138W        W30399  32.125  38.360  13.395
71139W        W30400  36.419  14.199   2.843
71140W        W30401  14.115  29.665   0.318
71141W        W30402   3.301  17.722  14.884
71142W        W30403   6.831  11.370  12.060
71143W        W30404  39.419  38.855  13.866
71144W        W30405   9.155   0.485   5.166
71145W        W30406  29.554  44.889  11.059
71146W        W30407   2.831   6.899   1.359
71147W        W30408  40.877  24.691   9.455
71148W        W30409  28.968  43.422   4.800
71149W        W30410  33.426  14.305   3.185
71150W        W30411  19.061  16.612   0.852
71151W        W30412  24.557  18.165  14.916
71152W        W30413  43.480  40.539   3.281
71153W        W30414   3.750  21.664  11.086
71154W        W30415   9.791  15.725  11.864
71155W        W30416  19.105   6.391   3.631
71156W        W30417  33.071  38.357  11.126
71157W        W30418  12.793  36.444  12.052
71158W        W30419   1.407  40.938   0.922
71159W        W30420  11.719  34.979  14.363
71160W        W30421   7.384  22.627   1.758
71161W        W30422  20.106  37.491  13.998
71162W        W30423  21.573  23.021  11.882
71163W        W30424  22.573  29.608  14.278
71164W        W30425  44.761   8.392   1.234
71165W        W30426  40.004   5.346  11.113
71166W        W30427  12.672  12.326  12.007
71167W        W30428   7.383  26.176  12.967
71168W        W30429   7.175  35.888  12.872
71169W        W30430  43.012  28.165  12.993
71170W        W30431  29.980  32.076   2.237
71171W        W30432  11.236  35.077   3.226
71172W        W30433   1.320  40.544  13.819
71173W        W30434  12.218  14.730  11.557
71174W        W30435  36.871  12.697  10.970
71175W        W30436  33.057   5.864  14.931
71176W        W30437  31.942  41.392   2.683
71177W        W30438  26.478  40.874   0.790
71178W        W30439  37.881   7.334   0.896
71179W        W30440  22.156  31.402   2.419
71180W        W30441  33.491  23.629   2.292
71181W        W30442  39.053  25.488  12.493
71182W        W30443  23.615   6.280  12.449
71183W        W30444  10.371  40.458  12.443
71184W        W30445  22.566   5.233   4.676
71185W        W30446  16.239  39.971   3.300
71186W        W30447  34.537  14.611  10.418
71187W        W30448  43.460  36.461  11.467
71188W        W30449   5.924  19.728   4.686
71189W        W30450  39.466   4.399   3.208
71190W        W30451  27.031  20.760  14.452
71191W        W30452  19.670  27.172   0.819
71192W        W30453  40.823  20.110   4.305
71193W        W30454  33.509   6.713  14.995
71194W        W30455  39.955  23.132   3.732
71195W        W30456  27.108  38.566  13.480
71196W        W30457   9.862  41.496   0.356
71197W        W30458  10.140  11.347   3.312
71198W        W30459  44.502   4.765  11.932
71199W        W30460  12.760   8.742   4.616
71200W        W30461  42.501  37.544   2.265
71201W        W30462  30.981   1.253   3.679
71202W        W30463  41.325  14.741   3.341
71203W        W30464  18.123  21.083   0.806
71204W        W30465  43.322   1.872  14.022
71205W        W30466  31.644  35.040  13.846
71206W        W30467  34.400  32.020  12.925
71207W        W30468   1.286   2.281  13.848
71208W        W30469  23.176   6.373  11.881
71209W        W30470  34.922  14.826   2.722
71210W        W30471  37.942  15.232   1.717
71211W        W30472   9.372   1.411   0.449
71212W        W30473  44.800  11.794  11.039
71213W        W30474  38.822  15.097  13.345
71214W        W30475  19.628  22.516  13.542
71215W        W30476  29.466   0.870  10.432
71216W        W30477  30.942  39.879   4.270
71217W        W30478   1.273  20.650  12.430
71218W        W30479  43.346  30.104   3.259
71219W        W30480  30.979  11.860   0.761
71220W        W30481   4.295  18.082  13.943
71221W        W30482  22.148   0.396   2.822
71222W        W30483   7.667  27.949  12.457
71223W        W30484  29.954  15.216  12.064
71224W        W30485  15.182   2.230   2.335
71225W        W30486  17.071  23.653   0.293
71226W        W30487  25.693  31.085   3.317
71227W        W30488  26.679  14.208   0.251
71228W        W30489  22.108   2.333   4.629
71229W        W30490  27.583   4.789  12.983
71230W        W30491   1.945  10.154  14.396
71231W        W30492  26.137  39.061  14.766
71232W        W30493  19.581  43.979  10.488
71233W        W30494  35.099   9.274   1.287
71234W        W30495  21.231  34.540  13.377
71235W        W30496  43.426   9.874  14.791
71236W        W30497   2.255  36.473  10.915
71237W        W30498  21.581   3.906  12.090
71238W        W30499  16.261  12.758  14.367
71239W        W30500  25.505  41.013  14.009
71240W        W30501  20.266  30.414   0.326
71241W        W30502  22.233  37.539   1.407
71242W        W30503  19.670  33.960   1.849
71243W        W30504  19.736  13.708   4.120
71244W        W30505  19.749  31.932  10.941
71245W        W30506  37.953  37.345   9.988
71246W        W30507  26.954   8.804  12.916
71247W        W30508  27.180  32.589  14.879
71248W        W30509  11.630  21.156   3.725
71249W        W30510  31.485   6.307  13.364
71250W        W30511   0.443  21.739  12.868
71251W        W30512  33.497  15.759  11.489
71252W        W30513  24.017   9.293   3.299
71253W        W30514   6.797  17.181  14.435
71254W        W30515  10.261  12.345  12.963
71255W        W30516  44.798  40.510  13.525
71256W        W30517   9.872  26.061   1.857
71257W        W30518  39.522   8.678   0.804
71258W        W30519  26.478  22.643   1.394
71259W        W30520  40.353   9.329  11.021
71260W        W30521   5.710  15.630   1.306
71261W        W30522  18.631  10.239   0.918
71262W        W30523   2.429  21.076  14.802
71263W        W30524  42.894  40.047   2.726
71264W        W30525  17.220   5.238   3.365
71265W        W30526  31.493  30.520   2.720
71266W        W30527   7.358   3.440  10.913
71267W        W30528  31.503   5.865   4.612
71268W        W30529  29.619  30.129  13.448
71269W        W30530   2.419  18.629  12.525
71270W        W30531  21.175  28.048  11.956
71271W        W30532  27.533   2.740   5.746
71272W        W30533  43.838  26.692   1.411
71273W        W30534  37.900  11.249  11.055
71274W        W30535  13.257  30.499   9.928
71275W        W30536  15.813   5.362  13.984
71276W        W30537  34.445  22.509   3.367
71277W        W30538  15.810  23.124  11.096
71278W        W30539  38.452   3.873   3.202
71279W        W30540  18.247  42.432   1.427
71280W        W30541  40.038  31.914   1.447
71281W        W30542   3.261  26.464  13.543
71282W        W30543  13.843  31.085  10.548
71283W        W30544  39.395  32.588   3.707
71284W        W30545  41.314  34.909   4.294
71285W        W30546  23.522   8.763   4.187
71286W        W30547   7.771   2.736  10.435
71287W        W30548   8.225  27.998  14.972
71288W        W30549  19.761  25.128  12.436
71289W        W30550  41.910  32.916   3.168
71290W        W30551  21.597   1.278   0.373
71291W        W30552  18.631  10.337  14.437
71292W        W30553  14.805   6.221   2.885
71293W        W30554   1.408   1.466  14.278
71294W        W30555   3.784  36.930   3.652
71295W        W30556   1.443  24.080   1.735
71296W        W30557  30.511  16.758   2.277
71297W        W30558  35.079   5.320   1.378
71298W        W30559   1.414   6.835  14.320
71299W        W30560  16.680  26.069  14.841
71300W        W30561   3.878  16.693   0.270
71301W        W30562  17.644  10.250   4.292
71302W        W30563  20.689  34.427  13.894
71303W        W30564  21.204  39.491   3.743
71304W        W30565  23.520  32.499  12.559
71305W        W30566  30.440  30.082   1.376
71306W        W30567  13.676  20.235   1.382
71307W        W30568  42.454  18.585   1.236
71308W        W30569  40.396  12.262   1.845
71309W        W30570  31.433  17.702  12.482
71310W        W30571  16.274  22.185   3.374
71311W        W30572  18.651  31.944   1.394
71312W        W30573  20.183   9.226   4.219
71313W        W30574   7.207  21.539  13.808
71314W        W30575  41.804   7.367   3.226
71315W        W30576  44.376  38.843  12.962
71316W        W30577  37.028  10.790   4.801
71317W        W30578  44.002   6.854  12.531
71318W        W30579  23.085  22.706  13.058
71319W        W30580  29.115   1.431   9.514
71320W        W30581  39.557  25.599   2.383
71321W        W30582   0.491  24.222   3.768
71322W        W30583  35.916  28.479  12.843
71323W        W30584  35.012  21.562  11.090
71324W        W30585  11.711  10.688   4.309
71325W        W30586  12.807  17.786   3.152
71326W        W30587  21.548  37.899   2.676
71327W        W30588  31.898  14.734   3.204
71328W        W30589  33.933  44.001   4.236
71329W        W30590  36.434  11.339  11.886
71330W        W30591  15.107  17.695   1.317
71331W        W30592  43.304  17.256   3.311
71332W        W30593  19.144   9.340  12.999
71333W        W30594  23.702  28.609   2.851
71334W        W30595  32.036  43.952   1.878
71335W        W30596  24.158  22.225   2.184
71336W        W30597  15.649  37.436  10.517
71337W        W30598  29.943  43.859  14.806
71338W        W30599  10.368  37.344   4.303
71339W        W30600  28.511  38.013  13.538
71340W        W30601   9.265  36.075  14.415
71341W        W30602   7.373  31.095  14.289
71342W        W30603  34.470  15.290  11.426
71343W        W30604  35.474  42.031   4.740
71344W        W30605  18.246  11.270  14.762
71345W        W30606  16.097   2.766   1.250
71346W        W30607  18.614  30.113   1.327
71347W        W30608  33.889   6.315  14.883
71348W        W30609   0.329  37.568  10.417
71349W        W30610  34.918  36.402   1.428
71350W        W30611  38.947  19.661   3.647
71351W        W30612   2.364  22.156  14.454
71352W        W30613   3.285  18.211   3.232
71353W        W30614  12.676  17.797  11.388
71354W        W30615  14.209  36.453   2.790
71355W        W30616  20.115  10.638   4.778
71356W        W30617   8.290   6.398   1.220
71357W        W30618   6.296  42.941  13.480
71358W        W30619  28.036  14.601   4.314
71359W        W30620  34.006   0.833  14.491
71360W        W30621   5.714  23.206   4.200
71361W        W30622  37.395  29.491   3.149
71362W        W30623   2.422  34.961  10.989
71363W        W30624  27.663  15.680  14.512
71364W        W30625  42.785  44.317  10.967
71365W        W30626  38.987  31.071  11.104
71366W        W30627   9.332  26.632   3.632
71367W        W30628  11.777  24.623  11.882
71368W        W30629  41.464  19.548  11.998
71369W        W30630  40.868  14.639  10.985
71370W        W30631  27.088  41.476   2.795
71371W        W30632   1.812   0.256   0.823
71372W        W30633  15.610  37.572   2.743
71373W        W30634  24.984  43.438   2.720
71374W        W30635  23.626  13.147   1.296
71375W        W30636  22.177   8.317  14.306
71376W        W30637  26.524  35.502  12.344
71377W        W30638   8.297   4.262  10.488
71378W        W30639  18.553  16.756  10.550
71379W        W30640  22.106  15.589  14.282
71380W        W30641  37.964  38.338  11.007
71381W        W30642  22.141   6.199   4.180
71382W        W30643  22.017  38.875   0.916
71383W        W30644  17.762  22.169  13.312
71384W        W30645  41.534  15.755   9.933
71385W        W30646  17.696  43.015  14.789
71386W        W30647   2.367  43.297  10.632
71387W        W30648  32.992   0.358  10.978
71388W        W30649  18.054  30.968   3.696
71389W        W30650   5.752  35.421  12.385
71390W        W30651  20.035  38.833   5.309
71391W        W30652  21.182  42.936   1.827
71392W        W30653  36.063  38.432   0.888
71393W        W30654   0.458  28.172  11.569
71394W        W30655  39.994  25.655  12.467
71395W        W30656  29.078  17.065   0.363
71396W        W30657  22.682  10.754  11.507
71397W        W30658  23.732  25.650  12.945
71398W        W30659  36.914  31.142  13.812
71399W        W30660  26.084  22.640  11.514
71400W        W30661   4.234  13.170  11.600
71401W        W30662  32.443  11.373  14.926
71402W        W30663   1.762   7.849  11.977
71403W        W30664  11.784  40.431  12.909
71404W        W30665  11.372  13.814  12.555
71405W        W30666  30.448  13.754  12.933
71406W        W30667  16.303  38.962  14.412
71407W        W30668  28.606   8.272  10.508
71408W        W30669  14.291  12.276   2.204
71409W        W30670   6.238  19.563  14.298
71410W        W30671  23.733  23.603  14.422
71411W        W30672  34.389  34.900  12.853
71412W        W30673  20.146  36.440   1.868
71413W        W30674   3.388   1.475  14.392
71414W        W30675  24.500  14.312   1.250
71415W        W30676  38.953  43.335   1.376
71416W        W30677  18.783  17.698   2.716
71417W        W30678  17.768  10.165  13.376
71418W        W30679  11.824  28.041   1.756
71419W        W30680   1.854  24.068  14.476
71420W        W30681  22.216  17.164   3.799
71421W        W30682  18.679  35.597  14.474
71422W        W30683  40.984  24.481  11.856
71423W        W30684  34.395   9.184   0.372
71424W        W30685  14.785   6.331  13.544
71425W        W30686  31.053   4.242  14.794
71426W        W30687  13.778  24.173  11.875
71427W        W30688  35.500  20.729  12.981
71428W        W30689   2.806  42.777  14.347
71429W        W30690   3.713  11.827  14.299
71430W        W30691  37.047  31.130  14.972
71431W        W30692   6.838  14.146  14.323
71432W        W30693  18.791  13.827  12.399
71433W        W30694   5.807  35.104   3.859
71434W        W30695  37.460  30.564  12.400
71435W        W30696   2.801   7.839  12.479
71436W        W30697  11.308  13.262  13.827
71437W        W30698  25.604  13.135  12.376
71438W        W30699  24.141   9.288  14.503
71439W        W30700  11.206  37.416  13.541
71440W        W30701  28.080   8.255   1.880
71441W        W30702  35.883  28.592  12.460
71442W        W30703  34.539   9.814   3.297
71443W        W30704  38.358  33.609  11.381
71444W        W30705  33.032  35.886   0.281
71445W        W30706  34.988  36.944   1.286
71446W        W30707  27.966  12.825  14.394
71447W        W30708   3.399   4.840   1.786
71448W        W30709  44.377   3.796   3.338
71449W        W30710   8.884   1.917   2.309
71450W        W30711  25.056   5.272   4.225
71451W        W30712  23.559   9.650   2.339
71452W        W30713  29.669   0.927   1.831
71453W        W30714  32.473  30.101  11.400
71454W        W30715  22.226  27.520   1.827
71455W        W30716  10.651  17.235   0.913
71456W        W30717   4.350  39.845  14.462
71457W        W30718  25.109  23.546  10.587
71458W        W30719  43.767  14.289   4.826
71459W        W30720   2.359   3.776   2.855
71460W        W30721  24.103  26.651   3.745
71461W        W30722   8.225   7.318  14.898
71462W        W30723  14.789   3.758  11.580
71463W        W30724  12.661  37.466   4.637
71464W        W30725  20.266   1.390  14.473
71465W        W30726   0.961  38.531   1.868
71466W        W30727   4.709   5.259  12.507
71467W        W30728  42.803  39.009  11.013
71468W        W30729  25.092  20.093  13.918
71469W        W30730  29.560  26.107   0.778
71470W        W30731   2.931  24.652  12.358
71471W        W30732  15.288  12.689  11.545
71472W        W30733  33.382   2.730   4.224
71473W        W30734  39.988   5.290   3.319
71474W        W30735  34.929  18.094   0.270
71475W        W30736  26.184  25.523   3.845
71476W        W30737  10.705  33.559  10.017
71477W        W30738  22.076   5.244  11.418
71478W        W30739  15.100  41.403  14.508
71479W        W30740  24.527  13.274  12.889
71480W        W30741  23.615  34.596  13.484
71481W        W30742  28.005   5.807  14.385
71482W        W30743   5.813   7.908  12.509
71483W        W30744   8.843  25.476  11.437
71484W        W30745  19.256   0.282  11.100
71485W        W30746  12.850  11.782   1.838
71486W        W30747   1.428  25.105  12.024
71487W        W30748  16.193  43.468  11.419
71488W        W30749  10.298   6.743   0.952
71489W        W30750  41.537   7.747   1.776
71490W        W30751  29.929  39.862   0.366
71491W        W30752   2.457   2.411  12.511
71492W        W30753  39.014  14.285  14.789
71493W        W30754  34.025  23.613   3.716
71494W        W30755  39.043  12.820   0.938
71495W        W30756  43.016  11.213  12.982
71496W        W30757   1.289  29.948   1.929
71497W        W30758  33.123  20.265   2.194
71498W        W30759   7.411  39.968   3.696
71499W        W30760  15.116  44.287   2.327
71500W        W30761  36.967  24.577  12.433
71501W        W30762   7.282  21.263  14.426
71502W        W30763  27.178   9.676   0.767
71503W        W30764  23.643  36.470   1.737
71504W        W30765   5.801  26.569   3.178
71505W        W30766   9.746  40.369  14.471
71506W        W30767  43.515  29.651  11.865
71507W        W30768  35.854  15.187   0.286
71508W        W30769   7.712  23.050  12.574
71509W        W30770  11.326   7.755  11.015
71510W        W30771   8.180   0.876   3.312
71511W        W30772   1.283  32.436  14.481
71512W        W30773   0.436   1.892   3.380
71513W        W30774   3.341  13.249   2.869
71514W        W30775  22.560  35.041  12.898
71515W        W30776  44.476  28.618   1.398
71516W        W30777  31.419  29.970  11.588
71517W        W30778   6.316  28.019   4.297
71518W        W30779  32.979   1.342  10.957
71519W        W30780  14.283  22.122  13.975
71520W        W30781  41.850  37.949   3.719
71521W        W30782  24.571  38.415  10.896
71522W        W30783   5.782  38.505  10.483
71523W        W30784   5.883  22.250   3.335
71524W        W30785   2.226  21.081   1.296
71525W        W30786  13.640   7.230  12.890
71526W        W30787  18.595   2.911  13.362
71527W        W30788  44.478  36.360   3.305
71528W        W30789   5.899   5.737   3.369
71529W        W30790  19.622  21.023   0.292
71530W        W30791  19.063  26.688   4.723
71531W        W30792   9.371  20.591   4.307
71532W        W30793  14.735  12.774   4.831
71533W        W30794  21.513  12.313  14.369
71534W        W30795  38.056  40.349  10.994
71535W        W30796  28.175  39.038  14.958
71536W        W30797  36.875  34.863  13.872
71537W        W30798  22.140  35.533  13.978
71538W        W30799   1.831  41.354  10.913
71539W        W30800   2.448  32.116  13.858
71540W        W30801   2.251  27.100  13.844
71541W        W30802   3.258  12.731  12.391
71542W        W30803   4.728  10.810  10.516
71543W        W30804  37.070  28.084   1.801
71544W        W30805  43.404  29.438   4.619
71545W        W30806  15.638  40.941   3.780
71546W        W30807   8.252  31.484   0.945
71547W        W30808  44.983   7.409   1.715
71548W        W30809   2.874   7.742   1.904
71549W        W30810  20.176  16.271   1.730
71550W        W30811  34.043  35.586  13.062
71551W        W30812   8.848   9.336   4.235
71552W        W30813  19.645   0.408   0.463
71553W        W30814   4.345   2.338  10.468
71554W        W30815  29.088  44.471  13.457
71555W        W30816  28.101  23.156  10.015
71556W        W30817  28.081   8.826   1.227
71557W        W30818   9.170  14.229   1.883
71558W        W30819  39.960  10.158   0.857
71559W        W30820  44.755  30.469  11.095
71560W        W30821   3.345  33.095   4.163
71561W        W30822   0.273  20.590  10.926
71562W        W30823   5.806  21.734   3.767
71563W        W30824   9.884  40.498  12.858
71564W        W30825   1.976  32.495   0.261
71565W        W30826  13.660  35.955  13.834
71566W        W30827  17.182  34.608   1.287
71567W        W30828   9.767   1.293   1.268
71568W        W30829   3.369  21.038  10.911
71569W        W30830  23.158   7.203  10.431
71570W        W30831  38.336  15.193   2.345
71571W        W30832  27.571  39.902  11.915
71572W        W30833  26.990   2.774   2.419
71573W        W30834  19.144  37.573   4.790
71574W        W30835  34.583  10.361   4.657
71575W        W30836   0.287  19.750   0.465
71576W        W30837  44.902  35.062  11.556
71577W        W30838  36.531  28.033  12.449
71578W        W30839  29.107  19.184  13.045
71579W        W30840  29.503  18.104   3.648
71580W        W30841  30.999  39.491  13.916
71581W        W30842   2.260   6.753   0.259
71582W        W30843   4.374  21.563   1.317
71583W        W30844  44.382   7.710  14.372
71584W        W30845  25.511  26.109   2.848
71585W        W30846   0.380  19.144   4.768
71586W        W30847   2.731  16.790   4.637
71587W        W30848  20.739  11.763  10.892
71588W        W30849   1.314  28.451   0.941
71589W        W30850   5.746   2.940  11.008
71590W        W30851  25.495  26.650   9.941
71591W        W30852  13.338   2.830  11.387
71592W        W30853  20.139  26.203   0.376
71593W        W30854  23.513  37.001   3.700
71594W        W30855  11.312  13.259   0.756
71595W        W30856  10.649  28.126  13.820
71596W        W30857   9.265  41.902  11.873
71597W        W30858  26.171  20.547  12.541
71598W        W30859  12.783  28.656  14.456
71599W        W30860  32.527  29.633   0.859
71600W        W30861   0.905  38.958   2.878
71601W        W30862  18.647  43.793  14.478
71602W        W30863  21.108  36.851   2.888
71603W        W30864  44.321  26.988   9.963
71604W        W30865  40.907  37.375   2.848
71605W        W30866   9.171  38.889  13.851
71606W        W30867  42.370  36.469   1.795
71607W        W30868  10.771  37.387  14.488
71608W        W30869  27.123   5.395  14.005
71609W        W30870  12.293  21.019  11.413
71610W        W30871  23.645  23.122  11.935
71611W        W30872  36.449  26.976  10.900
71612W        W30873  10.279  40.365  10.897
71613W        W30874  13.261  14.196   3.729
71614W        W30875   8.174  10.779  14.869
71615W        W30876   8.862  11.726   1.706
71616W        W30877  27.595  35.908  11.528
71617W        W30878  37.963  29.602   0.958
71618W        W30879  30.608  44.427   3.273
71619W        W30880   5.242  13.327   1.359
71620W        W30881  16.800  16.192  12.037
71621W        W30882  43.513  19.617   3.684
71622W        W30883  38.822   3.771  14.487
71623W        W30884  38.346  19.041   0.907
71624W        W30885  22.051   5.211   0.779
71625W        W30886  30.161   2.923  13.322
71626W        W30887  10.865  26.160   3.335
71627W        W30888  41.841  38.997  10.512
71628W        W30889  27.136  23.194  10.929
71629W        W30890  35.388  38.353   0.926
71630W        W30891  36.369  44.905  14.489
71631W        W30892   7.838   8.335  14.904
71632W        W30893  20.103  17.284   4.793
71633W        W30894  12.249  24.228  11.436
71634W        W30895   5.403  27.586   1.797
71635W        W30896  35.945  19.740  13.828
71636W        W30897  22.682  40.365  13.308
71637W        W30898  11.634  39.044   9.942
71638W        W30899   0.303  38.569  10.599
71639W        W30900   7.371  25.970  10.463
71640W        W30901  28.588  42.520  12.423
71641W        W30902  26.020  44.807  11.020
71642W        W30903  42.830  32.971   1.860
71643W        W30904  36.363  34.415   4.334
71644W        W30905  30.443   6.824  13.992
71645W        W30906  25.097  38.527  14.425
71646W        W30907  23.647  42.948   1.379
71647W        W30908  30.164  40.492   4.268
71648W        W30909  38.046  15.269   4.167
71649W        W30910  30.084  12.145   1.253
71650W        W30911   9.829  41.846   2.410
71651W        W30912  38.940  11.799   0.746
71652W        W30913  41.477  36.565   0.402
71653W        W30914  28.590  26.481   4.739
71654W        W30915  20.122  22.093   0.888
71655W        W30916  33.921  13.620   0.360
71656W        W30917  35.469  38.536   2.267
71657W        W30918  34.388   0.298   4.731
71658W        W30919  40.506  32.447  14.839
71659W        W30920  31.012   0.317  10.942
71660W        W30921   0.414  17.593   1.841
71661W        W30922  40.364  39.910  11.386
71662W        W30923   1.896  23.582  13.417
71663W        W30924  29.471  18.173  11.929
71664W        W30925   8.210  37.419   2.199
71665W        W30926   6.864  40.815   3.284
71666W        W30927  18.605  11.216  12.505
71667W        W30928  12.195  43.344   1.445
71668W        W30929  43.513   5.883  11.907
71669W        W30930  33.503  19.753  10.529
71670W        W30931  11.349  35.436  12.896
71671W        W30932  31.985  18.644   4.644
71672W        W30933   8.278  35.023   3.372
71673W        W30934  43.894  11.335  14.812
71674W        W30935  38.441  17.704   2.226
71675W        W30936  36.996  38.505  13.343
71676W        W30937  32.939  34.058   3.659
71677W        W30938  39.016   5.773   4.307
71678W        W30939   6.872   9.765   3.261
71679W        W30940  31.089  17.181  11.612
71680W        W30941  12.826   7.375   0.339
71681W        W30942  14.148  13.788   0.262
71682W        W30943  32.471  24.980   1.404
71683W        W30944  33.963  24.548  11.457
71684W        W30945  35.477  28.509   1.923
71685W        W30946  12.242   2.437  11.432
71686W        W30947   0.845  44.806  11.575
71687W        W30948   3.717  26.205  12.917
71688W        W30949  26.067  28.532   3.237
71689W        W30950  42.329  43.327   3.772
71690W        W30951   9.773  30.936  14.441
71691W        W30952  19.618  18.649  13.954
71692W        W30953  42.498   6.701  12.899
71693W        W30954  11.812   0.433   4.266
71694W        W30955  13.704   9.271  10.899
71695W        W30956  28.004  10.179  14.338
71696W        W30957  15.097  14.158  12.508
71697W        W30958  10.651  13.807   1.806
71698W        W30959   6.242  14.688   0.335
71699W        W30960   5.832  14.223  11.044
71700W        W30961   0.832  27.149  12.952
71701W        W30962  25.152  32.601  14.363
71702W        W30963  23.070  37.539   3.789
71703W        W30964   0.419  29.562   4.241
71704W        W30965  26.132   6.363   0.904
71705W        W30966  31.453  38.455  12.009
71706W        W30967   2.878   9.152   0.884
71707W        W30968   0.274  29.035  10.463
71708W        W30969   3.304  42.515  11.897
71709W        W30970  37.076  36.387  10.987
71710W        W30971   6.900   2.919   2.381
71711W        W30972  10.829  17.746   1.916
71712W        W30973  31.435  16.617   0.416
71713W        W30974  19.268  10.693   4.716
71714W        W30975  33.936   4.857  10.930
71715W        W30976  43.861  25.476   4.349
71716W        W30977  14.277  20.198   2.280
71717W        W30978  20.266  37.337  11.544
71718W        W30979  39.887   6.687  12.432
71719W        W30980  26.602  20.677  11.031
71720W        W30981   5.236   6.703   0.477
71721W        W30982   4.345  28.186  13.979
71722W        W30983   8.383  44.419   4.231
71723W        W30984  32.432  18.546  11.577
71724W        W30985  14.701  44.967  11.971
71725W        W30986  37.407  12.694  13.985
71726W        W30987  21.152  43.271   3.849
71727W        W30988  13.151  18.551  11.463
71728W        W30989  34.043  12.635   3.771
71729W        W30990   7.713  32.631   4.182
71730W        W30991  37.885  13.796   4.640
71731W        W30992  24.497  23.014   2.400
71732W        W30993  38.824  41.403  10.431
71733W        W30994   4.439  25.200  14.819
71734W        W30995  18.772  27.952  11.380
71735W        W30996  35.525  42.334   0.361
71736W        W30997  40.972  36.907   1.931
71737W        W30998  13.346   3.779   3.225
71738W        W30999  32.002  34.526   2.254
71739W        W31000  34.531  18.656  14.932
71740W        W31001  43.288   9.271  10.471
71741W        W31002  29.534  39.326  10.467
71742W        W31003  36.867  44.322   1.290
71743W        W31004  24.701  38.503  14.434
71744W        W31005   8.834  13.172   2.853
71745W        W31006  37.850  21.705  14.958
71746W        W31007  12.124  15.172  13.498
71747W        W31008  38.871  25.487   2.180
71748W        W31009  30.576  23.121   2.205
71749W        W31010  11.179  34.459  12.500
71750W        W31011  23.061  26.601   4.607
71751W        W31012  29.949  36.911   4.798
71752W        W31013  38.041  16.743   4.142
71753W        W31014  23.989  36.503  10.898
71754W        W31015  30.567  14.788   3.289
71755W        W31016  19.606  20.758  14.816
71756W        W31017   1.367  23.000   1.725
71757W        W31018   6.857  24.543   3.188
71758W        W31019  39.817   6.228  10.475
71759W        W31020  36.412  20.716  14.821
71760W        W31021  27.978   4.930   4.658
71761W        W31022  38.491  10.281   0.356
71762W        W31023  24.012  32.391   4.161
71763W        W31024  12.827  18.064  14.284
71764W        W31025  40.928  23.130  14.861
71765W        W31026  24.226  18.100   2.739
71766W        W31027  18.178   5.809  12.523
71767W        W31028  25.496  12.704   2.376
71768W        W31029   6.867  19.770   2.416
71769W        W31030  18.665   0.298   2.868
71770W        W31031  27.159  35.045  11.108
71771W        W31032  25.981  18.060   1.855
71772W        W31033  41.345   8.857   0.900
71773W        W31034   3.292  43.503  12.831
71774W        W31035  17.764  13.711   1.212
71775W        W31036   6.860  31.144  14.944
71776W        W31037   4.405  17.740  11.040
71777W        W31038  36.528  22.041  14.301
71778W        W31039  33.948   7.830   1.405
71779W        W31040   9.296  26.493   2.362
71780W        W31041  27.168   0.935  14.499
71781W        W31042  35.899  32.894  11.991
71782W        W31043  28.507  15.126  13.984
71783W        W31044  37.552  21.157   4.160
71784W        W31045  41.303  35.082  14.762
71785W        W31046   4.849  31.645   1.387
71786W        W31047  24.541  30.058  12.519
71787W        W31048   4.211  32.583   4.775
71788W        W31049  27.075   9.821   1.729
71789W        W31050   9.228  15.820   3.361
71790W        W31051  19.712  26.131   4.138
71791W        W31052  26.153  25.654  10.443
71792W        W31053  10.827   2.892  14.391
71793W        W31054  13.171  14.785  14.815
71794W        W31055  38.040  17.684   2.298
71795W        W31056  27.996  43.958   2.679
71796W        W31057   9.672  25.041  14.953
71797W        W31058  36.035  43.351  14.996
71798W        W31059   0.894  22.156  12.379
71799W        W31060  36.912   9.880  10.627
71800W        W31061  30.483  12.120  11.462
71801W        W31062  44.325  34.100   0.373
71802W        W31063  11.837  36.855   3.156
71803W        W31064  23.183   3.362   2.247
71804W        W31065  16.267   4.278  13.506
71805W        W31066  12.125  17.737   1.415
71806W        W31067  29.661  10.847   4.784
71807W        W31068   8.178  12.193   4.277
71808W        W31069  13.167  10.848  13.999
71809W        W31070  27.678  43.005   0.412
71810W        W31071   1.387  23.101  10.450
71811W        W31072  34.595  13.286   1.903
71812W        W31073   6.184  39.854  11.934
71813W        W31074  28.590  39.468   2.747
71814W        W31075  14.338   6.348   3.336
71815W        W31076  11.353   4.895  13.333
71816W        W31077  18.667  43.876   3.836
71817W        W31078  32.943  15.170  11.959
71818W        W31079  29.493  16.633  12.841
71819W        W31080  20.716  37.491  14.844
71820W        W31081  31.446  18.753   0.780
71821W        W31082  41.897  10.717   0.764
71822W        W31083  34.046   7.789   2.408
71823W        W31084  22.158  36.899   0.736
71824W        W31085  22.536  23.543  11.420
71825W        W31086  43.840  42.852  13.483
71826W        W31087  37.358  13.603  14.300
71827W        W31088  23.190  27.611  13.896
71828W        W31089  29.069   4.776   0.456
71829W        W31090  33.471   4.365  10.604
71830W        W31091   9.360   6.811   1.877
71831W        W31092   3.759  39.998  12.838
71832W        W31093  39.966   2.294   2.788
71833W        W31094  19.740   2.463  13.926
71834W        W31095  26.524  12.327   1.859
71835W        W31096  44.753  18.260   3.661
71836W        W31097  12.789  33.508   3.223
71837W        W31098  24.619   7.716  11.445
71838W        W31099  12.693  29.145   5.673
71839W        W31100  20.558  28.014   4.312
71840W        W31101   6.677  26.145  11.920
71841W        W31102  36.076  35.941   1.331
71842W        W31103  12.820  12.201   1.215
71843W        W31104   8.277  29.465  10.975
71844W        W31105   6.338  16.144   3.226
71845W        W31106  16.680   6.401  13.410
71846W        W31107  30.078  41.853  11.613
71847W        W31108  42.318  31.625  11.491
71848W        W31109  42.901   4.943   4.289
71849W        W31110   2.457  18.597   2.205
71850W        W31111  13.279  39.426  11.037
71851W        W31112  27.496  39.973  12.931
71852W        W31113  27.522  27.044  13.450
71853W        W31114  23.691  44.303  12.415
71854W        W31115   3.721  14.102  10.967
71855W        W31116   7.318  36.054   2.235
71856W        W31117  32.527   9.332   2.201
71857W        W31118  13.701  10.257  14.475
71858W        W31119   8.337  35.944  13.814
71859W        W31120  29.155  38.367   1.373
71860W        W31121  39.874  10.220  13.903
71861W        W31122  25.671  41.319   9.998
71862W        W31123  14.590  29.645   1.779
71863W        W31124  43.926  41.024   0.478
71864W        W31125  12.164  13.687  14.504
71865W        W31126   0.804  27.957  10.960
71866W        W31127   9.187  12.132  12.557
71867W        W31128   4.222  31.498  14.873
71868W        W31129  36.461  35.589   4.320
71869W        W31130  22.059  40.438   4.247
71870W        W31131  29.425   7.358  13.944
71871W        W31132  23.224  15.740   1.388
71872W        W31133  17.085  41.482   1.322
71873W        W31134  15.723  25.526  12.826
71874W        W31135   6.907  24.594  14.395
71875W        W31136  29.070   4.313  11.115
71876W        W31137  25.218   3.258   2.386
71877W        W31138  27.683   1.401  12.534
71878W        W31139  32.512  44.870  12.426
71879W        W31140  16.649   3.448   0.818
71880W        W31141  37.880   8.828  11.597
71881W        W31142  28.131  21.152  12.378
71882W        W31143   5.283  33.887   4.627
71883W        W31144  39.051  23.545   1.393
71884W        W31145  18.773  34.588   0.868
71885W        W31146  20.561   7.864   3.238
71886W        W31147   1.884  42.006  13.981
71887W        W31148   9.881  21.690   3.839
71888W        W31149  25.559   7.765  13.966
71889W        W31150  33.506  25.701   5.104
71890W        W31151  18.260  12.772   3.371
71891W        W31152  32.510  34.901  11.387
71892W        W31153  29.520  40.365  11.006
71893W        W31154  11.657  36.528  11.059
71894W        W31155  17.577  26.025   3.743
71895W        W31156   8.274  26.556   1.847
71896W        W31157  31.432  28.143   4.658
71897W        W31158   4.704   1.384   3.217
71898W        W31159   2.408  36.941  11.889
71899W        W31160  41.932  32.990   1.217
71900W        W31161  23.089  10.645  13.905
71901W        W31162   5.899  20.141   1.394
71902W        W31163  13.279  42.339   3.703
71903W        W31164  28.953  16.094   4.743
71904W        W31165  29.670  24.992   5.152
71905W        W31166  23.713  21.657   1.906
71906W        W31167  40.530  26.571   3.818
71907W        W31168  44.951   2.776  10.575
71908W        W31169  30.952  43.880  12.440
71909W        W31170  39.530  24.520   2.332
71910W        W31171  35.585  28.942  12.342
71911W        W31172  41.838   2.414   1.287
71912W        W31173   6.752   6.859   3.299
71913W        W31174   2.252   7.307   2.867
71914W        W31175  11.797   9.828   4.342
71915W        W31176  30.633  28.092   2.784
71916W        W31177  28.648   6.687  11.063
71917W        W31178   1.396   6.230   3.348
71918W        W31179  24.703  43.987  12.536
71919W        W31180  19.778   5.294  13.003
71920W        W31181  17.651  36.908  13.540
71921W        W31182  18.101  31.114   3.279
71922W        W31183  10.212  27.177  14.818
71923W        W31184   4.909   9.870  12.882
71924W        W31185  37.080  23.998  12.823
71925W        W31186  43.428  34.907  14.289
71926W        W31187  43.796  44.836  13.959
71927W        W31188   5.313  41.426   3.249
71928W        W31189   6.869  31.466   4.125
71929W        W31190   8.271  13.638   2.277
71930W        W31191  16.757  43.431   2.200
71931W        W31192  33.095  39.894  11.590
71932W        W31193  40.871  25.106   3.656
71933W        W31194  41.010  10.757  12.502
71934W        W31195  23.066  22.541   4.195
71935W        W31196  41.938   4.755  12.396
71936W        W31197   4.909  44.792  11.889
71937W        W31198  27.031  41.959   4.763
71938W        W31199  19.702  16.090  14.759
71939W        W31200  27.570  31.564  13.029
71940W        W31201   5.268   1.242  10.984
71941W        W31202  18.729  10.827   1.269
71942W        W31203  34.116  43.844   1.441
71943W        W31204  11.733   9.760   3.676
71944W        W31205   5.416  22.536  12.454
71945W        W31206  44.262   8.787   0.885
71946W        W31207   6.361  39.350  13.837
71947W        W31208  27.678  14.736   3.669
71948W        W31209  18.170  15.720  11.955
71949W        W31210  32.454   7.363  12.917
71950W        W31211  21.713   2.228   4.322
71951W        W31212  34.586   1.748   0.734
71952W        W31213  21.047  11.226  11.006
71953W        W31214  26.561  39.868   2.255
71954W        W31215  12.786  16.253  12.072
71955W        W31216   1.743  30.142   4.785
71956W        W31217  39.347   9.790  14.346
71957W        W31218  14.661  20.658  14.794
71958W        W31219  43.922  37.375   1.726
71959W        W31220   8.663  17.555   4.286
71960W        W31221  29.938  38.344   3.820
71961W        W31222  13.246   1.440  13.367
71962W        W31223  25.984  19.096   4.198
71963W        W31224  30.912  13.744   1.695
71964W        W31225  12.850   9.364  10.992
71965W        W31226  37.951  13.279  13.459
71966W        W31227  38.447   9.735  12.942
71967W        W31228  21.624  14.832  13.868
71968W        W31229  22.716  18.767   3.863
71969W        W31230  21.030  43.977   0.383
71970W        W31231   8.165  12.668   1.267
71971W        W31232  41.921  44.821  12.989
71972W        W31233  19.056  44.281  12.088
71973W        W31234  37.999  18.572   0.782
71974W        W31235  39.048   2.426  14.774
71975W        W31236  41.980  28.558   3.309
71976W        W31237  31.062  44.359   0.395
71977W        W31238  34.521  26.492  14.442
71978W        W31239  13.139  11.246   2.868
71979W        W31240  33.114   7.206   1.281
71980W        W31241   6.306   8.862   1.853
71981W        W31242  34.099  23.567   1.417
71982W        W31243  39.326   4.820   1.725
71983W        W31244  28.574  17.583  12.022
71984W        W31245  44.965  39.021   2.780
71985W        W31246  10.311  10.699   1.325
71986W        W31247  35.984  11.226  11.399
71987W        W31248  44.261   1.969  13.056
71988W        W31249  20.717   0.804   3.249
71989W        W31250  34.981  13.115   4.327
71990W        W31251  34.432  29.435  11.998
71991W        W31252  18.749  38.542  10.563
71992W        W31253  10.739  10.785   1.759
71993W        W31254  20.117  32.432  12.850
71994W        W31255  38.823  34.880   3.353
71995W        W31256  28.934  24.068  12.479
71996W        W31257   6.403  38.848   3.269
71997W        W31258  34.106   6.828   1.906
71998W        W31259  38.345  22.566  14.344
71999W        W31260   4.332  21.710   2.266
72000W        W31261  42.006  40.382   4.259
72001W        W31262  43.290  16.081   1.819
72002W        W31263  11.834  42.965   5.272
72003W        W31264  40.417  19.085  12.926
72004W        W31265  35.032  22.154   1.429
72005W        W31266  15.599  37.463  13.017
72006W        W31267  40.027  14.781  12.924
72007W        W31268  41.879  14.644  13.975
72008W        W31269   9.338  23.593  11.084
72009W        W31270  43.790  16.731   9.502
72010W        W31271  38.561  14.329   0.418
72011W        W31272  25.211  17.278   2.778
72012W        W31273  22.155   1.237  13.484
72013W        W31274   4.339   7.901  10.936
72014W        W31275  28.040  43.470  13.507
72015W        W31276  39.525  19.156  10.995
72016W        W31277   6.752  30.149   2.786
72017W        W31278  32.065  22.033   2.717
72018W        W31279  17.123  17.597  13.974
72019W        W31280  15.318   3.385  10.989
72020W        W31281  22.082  17.269  14.328
72021W        W31282  17.164  10.178   4.647
72022W        W31283   3.935   4.368   2.325
72023W        W31284  29.945  15.324   0.775
72024W        W31285   0.479  36.919   9.559
72025W        W31286  26.972  32.900   2.827
72026W        W31287  26.662  23.104  11.572
72027W        W31288  29.649  13.134   0.342
72028W        W31289   5.219  20.565   3.181
72029W        W31290  40.484  22.020   3.320
72030W        W31291   1.385  10.323   2.719
72031W        W31292  30.480  40.317   0.322
72032W        W31293  16.592  25.162   0.913
72033W        W31294  15.777  27.511  12.823
72034W        W31295  34.449   3.943   3.333
72035W        W31296  34.935  15.221  14.500
72036W        W31297  37.553  11.712  11.071
72037W        W31298  15.815  23.599  14.448
72038W        W31299  13.607  14.593   0.306
72039W        W31300  40.502   7.387   3.160
72040W        W31301  11.635   0.974  12.979
72041W        W31302   1.238  19.544  14.418
72042W        W31303  10.800  31.460  11.510
72043W        W31304  15.775  16.087  13.878
72044W        W31305  22.651   7.854   2.363
72045W        W31306  25.602  17.715  11.405
72046W        W31307   8.756  14.625   0.882
72047W        W31308  29.624  28.000  14.829
72048W        W31309   2.469  36.427   2.865
72049W        W31310  20.657  24.215  11.612
72050W        W31311  11.634  42.291  11.916
72051W        W31312   0.361  38.058   1.242
72052W        W31313  22.206  36.867   1.856
72053W        W31314  29.658  15.613   1.218
72054W        W31315  38.345  22.571   0.940
72055W        W31316  18.268  14.593   2.714
72056W        W31317   2.433  29.569   4.666
72057W        W31318  32.580  11.754  14.963
72058W        W31319  15.281  18.647   4.774
72059W        W31320  33.622  44.911  12.896
72060W        W31321  41.917  41.469   0.853
72061W        W31322   7.867  25.084  13.328
72062W        W31323  26.134  28.496   3.727
72063W        W31324  22.119  35.065  11.372
72064W        W31325  13.770  23.675  14.796
72065W        W31326  29.538  21.753  13.501
72066W        W31327   9.755  10.321  12.556
72067W        W31328  26.573   3.398   0.730
72068W        W31329   3.297  13.836  14.471
72069W        W31330  44.945  36.414   0.256
72070W        W31331  32.945  34.870  14.469
72071W        W31332  19.573  38.042   4.243
72072W        W31333  23.206  44.381   0.478
72073W        W31334   0.397  31.474  14.430
72074W        W31335  36.426  21.550  13.374
72075W        W31336  20.235   4.335  11.052
72076W        W31337  35.465  42.949   4.237
72077W        W31338  23.045  40.488   1.377
72078W        W31339  37.068  11.197   1.323
72079W        W31340  39.324   0.255  13.960
72080W        W31341  44.373   1.949  11.945
72081W        W31342  44.774  25.468   0.450
72082W        W31343  26.547  28.948  12.834
72083W        W31344  34.871  31.642  12.928
72084W        W31345  12.205   9.869   2.405
72085W        W31346  36.914   8.863  10.574
72086W        W31347   2.792  33.408  14.763
72087W        W31348  43.376   4.708   3.318
72088W        W31349  14.145  24.723   0.954
72089W        W31350   4.894  42.302   0.756
72090W        W31351  35.530   2.927  11.101
72091W        W31352   8.689   1.365  13.059
72092W        W31353  35.430   3.264   2.744
72093W        W31354   8.824  30.966  11.044
72094W        W31355  20.158  23.013  12.478
72095W        W31356  29.599  22.634   1.299
72096W        W31357  14.239  18.754   1.758
72097W        W31358  33.913   5.311   0.965
72098W        W31359   2.774  34.970   3.307
72099W        W31360  19.659  31.557  13.368
72100W        W31361  26.523  36.060  10.939
72101W        W31362  23.106  43.830  13.445
72102W        W31363  25.599  17.714  14.001
72103W        W31364  26.091  29.009  10.618
72104W        W31365   8.232  18.185  11.022
72105W        W31366  33.100   6.859   3.317
72106W        W31367  20.081  13.302   2.417
72107W        W31368  22.702  19.642  10.576
72108W        W31369   2.875  23.122  12.951
72109W        W31370  30.601  25.508  13.380
72110W        W31371   7.896  22.190   4.701
72111W        W31372  15.097  33.578  11.030
72112W        W31373  16.210  11.338   4.335
72113W        W31374  30.416  24.666   4.214
72114W        W31375  14.759  17.146   2.760
72115W        W31376  18.134  36.917   3.830
72116W        W31377  32.495  23.633   3.843
72117W        W31378  19.215  29.632   1.844
72118W        W31379  23.567  30.442  14.471
72119W        W31380  38.869  44.285   5.296
72120W        W31381  29.029  12.819   1.356
72121W        W31382   1.930  23.616   1.228
72122W        W31383  32.119  36.591  13.528
72123W        W31384  36.578  28.110  14.503
72124W        W31385  41.388  14.760  12.823
72125W        W31386  14.666  22.140   1.715
72126W        W31387  41.495  39.438  10.623
72127W        W31388  23.168  28.655  14.328
72128W        W31389  21.560   4.413   1.286
72129W        W31390  37.974  34.069  10.941
72130W        W31391  37.461   9.799  14.329
72131W        W31392  13.669  40.426   3.798
72132W        W31393   0.276  13.793   1.252
72133W        W31394   1.842  39.967   4.740
72134W        W31395   6.889  36.433  10.623
72135W        W31396  21.730  29.499   1.307
72136W        W31397   4.758  38.837  14.496
72137W        W31398  16.106   0.294  12.039
72138W        W31399   2.335  39.969   1.399
72139W        W31400  25.591  13.719  14.769
72140W        W31401  41.942  39.367  12.572
72141W        W31402   8.330   1.912   1.904
72142W        W31403  32.945  19.227   0.811
72143W        W31404  28.111  33.593   1.223
72144W        W31405  20.671  13.613   0.826
72145W        W31406  25.490   7.872   0.475
72146W        W31407   3.235  41.513  14.466
72147W        W31408   6.412  37.498  12.919
72148W        W31409  15.718  43.285  11.579
72149W        W31410   6.847  40.952   3.782
72150W        W31411  33.130  23.646  12.884
72151W        W31412  16.696   4.939   1.406
72152W        W31413   6.382  29.551   1.889
72153W        W31414  34.494  21.592   3.251
72154W        W31415  30.472  37.917   4.695
72155W        W31416  27.191  43.819   4.783
72156W        W31417  35.411  11.678   1.285
72157W        W31418  13.289  24.178   2.325
72158W        W31419  38.398  11.826   4.293
72159W        W31420  37.559  44.896   2.753
72160W        W31421  33.971   8.246  14.364
72161W        W31422  24.562   9.788   3.643
72162W        W31423  10.380  12.225  14.486
72163W        W31424   2.256  31.110   1.316
72164W        W31425  12.304  40.342  12.867
72165W        W31426  30.977  28.029  13.813
72166W        W31427  21.673   4.379  14.395
72167W        W31428  14.135  29.008   0.925
72168W        W31429   7.700  23.631  10.444
72169W        W31430  13.619  17.664  13.511
72170W        W31431  41.301  37.510  14.829
72171W        W31432   4.807  38.859   1.345
72172W        W31433  23.171  17.074  11.014
72173W        W31434   7.388  28.030   1.259
72174W        W31435   0.819   2.311   5.086
72175W        W31436   3.883  15.161  11.580
72176W        W31437   1.402  38.508  10.433
72177W        W31438  32.036  14.797   4.796
72178W        W31439  37.069  23.513  10.492
72179W        W31440  10.337  15.705  14.907
72180W        W31441  29.570  33.084  13.459
72181W        W31442  14.635  32.510  13.959
72182W        W31443  31.602  42.872   4.623
72183W        W31444  32.896  14.825   4.635
72184W        W31445  32.497   4.361   1.695
72185W        W31446  38.414  16.160  12.968
72186W        W31447   3.771  25.613   3.870
72187W        W31448   7.171  37.559   3.751
72188W        W31449  12.688  28.990  12.562
72189W        W31450  39.963  37.888   2.896
72190W        W31451   7.682   0.978  12.066
72191W        W31452  37.471  37.886   3.209
72192W        W31453  43.894  26.137   4.698
72193W        W31454  44.434  32.125   4.331
72194W        W31455  14.224  35.597  11.020
72195W        W31456  20.155  17.217   1.734
72196W        W31457   4.815  40.342   3.337
72197W        W31458  35.572  23.495   2.214
72198W        W31459   5.375  37.382  11.589
72199W        W31460  12.343   3.381  10.963
72200W        W31461  28.468  24.127  13.335
72201W        W31462  23.163  23.574  11.043
72202W        W31463   5.341  11.678   1.317
72203W        W31464  18.658   7.192  13.432
72204W        W31465   2.225  23.631  13.007
72205W        W31466  13.606  25.534  11.107
72206W        W31467  18.638   0.418   3.820
72207W        W31468   1.400  31.121   0.316
72208W        W31469  18.597  10.364  11.901
72209W        W31470  37.470  36.892  10.103
72210W        W31471  24.221  25.633  13.043
72211W        W31472  13.306   5.357   0.844
72212W        W31473   8.781   6.881   5.243
72213W        W31474   6.359  38.030   2.870
72214W        W31475  32.400  14.188   2.697
72215W        W31476  29.582  39.339  11.507
72216W        W31477  24.597  38.330   4.226
72217W        W31478  42.354  32.923   3.187
72218W        W31479   6.411  29.939   1.704
72219W        W31480  14.597  31.489   4.115
72220W        W31481   7.775   4.792   1.723
72221W        W31482   2.370  20.597   2.691
72222W        W31483  35.023  29.572   4.272
72223W        W31484  33.419  39.932  10.558
72224W        W31485  43.335   0.794  13.939
72225W        W31486   7.258  16.709  12.896
72226W        W31487  19.756  35.994  14.486
72227W        W31488  14.134   8.825  10.109
72228W        W31489  43.806  41.828   0.472
72229W        W31490   9.839  43.289   4.212
72230W        W31491  35.027  19.232  12.860
72231W        W31492  20.270  20.575   4.650
72232W        W31493  41.365  32.917   3.236
72233W        W31494  24.974  39.823   0.840
72234W        W31495  23.018   7.844  13.888
72235W        W31496  26.702   5.845  13.439
72236W        W31497   3.224  14.750  14.850
72237W        W31498  38.940  10.700  14.855
72238W        W31499  17.194  38.442   3.257
72239W        W31500  13.600  30.637  10.518
72240W        W31501   5.234  26.059   3.723
72241W        W31502  36.588   2.841  10.915
72242W        W31503   3.712  12.725   3.712
72243W        W31504  15.582  11.153  10.009
72244W        W31505  14.785  25.564  14.393
72245W        W31506   2.351  34.601   3.149
72246W        W31507  10.309  30.024   4.748
72247W        W31508  43.898  36.059   1.774
72248W        W31509  34.907  22.122  14.803
72249W        W31510  20.040  23.593  13.440
72250W        W31511   4.823  36.508  11.570
72251W        W31512  21.235  39.549   2.859
72252W        W31513   5.237   0.453   4.706
72253W        W31514  11.244  39.436  13.922
72254W        W31515  41.967  32.630  12.437
72255W        W31516   6.376  42.938   3.700
72256W        W31517  29.618  22.577   1.917
72257W        W31518  19.759   6.334  11.526
72258W        W31519  15.799  38.974   5.112
72259W        W31520  43.321  21.560   2.386
72260W        W31521  26.482  37.423   0.348
72261W        W31522   7.395  13.677   2.395
72262W        W31523  32.616   0.346   2.814
72263W        W31524  17.262  44.263   4.198
72264W        W31525  39.351  25.064   2.330
72265W        W31526  18.599  29.140  14.907
72266W        W31527  25.974  17.128   0.322
72267W        W31528  24.134   3.361  12.472
72268W        W31529   7.758  31.608   1.744
72269W        W31530  35.507  28.165   0.270
72270W        W31531  23.705  14.120  13.844
72271W        W31532  12.782  25.034  13.446
72272W        W31533  22.122  26.599   0.731
72273W        W31534  30.571  16.193  13.526
72274W        W31535   2.261  39.882  12.969
72275W        W31536  40.905  14.766  12.419
72276W        W31537  30.092  10.806  12.830
72277W        W31538  35.593  39.049  11.550
72278W        W31539   7.392  39.446   3.691
72279W        W31540  28.519  30.606   1.914
72280W        W31541  28.983  42.311  12.577
72281W        W31542  16.713  32.073   3.192
72282W        W31543   8.693  35.567   1.420
72283W        W31544  42.479   9.816  13.410
72284W        W31545   2.726  18.637  13.031
72285W        W31546  27.052   8.384  12.053
72286W        W31547  32.985  15.182   0.848
72287W        W31548   8.245  27.484   2.724
72288W        W31549  15.254  26.472  13.853
72289W        W31550  13.278  26.081   2.805
72290W        W31551  16.278  25.200   4.828
72291W        W31552  38.022  39.887  12.447
72292W        W31553  29.968  41.329   3.647
72293W        W31554  42.294  21.606  13.513
72294W        W31555  30.949   1.438  10.066
72295W        W31556  15.222  41.868  12.544
72296W        W31557   4.427  35.470  10.974
72297W        W31558  25.073   7.858  12.993
72298W        W31559  36.443  15.752  14.956
72299W        W31560  41.295  23.155  12.029
72300W        W31561  29.550  40.377  13.432
72301W        W31562  26.565  33.123  10.450
72302W        W31563  42.497  16.638  14.423
72303W        W31564  23.541  14.249   0.884
72304W        W31565  13.679   3.940  13.357
72305W        W31566  36.989  12.172   1.248
72306W        W31567  13.611  13.148  12.828
72307W        W31568  40.406  14.604  12.832
72308W        W31569  34.919   1.432   1.374
72309W        W31570   4.303   7.685   4.146
72310W        W31571   9.180  16.130  14.007
72311W        W31572  29.038  34.910  10.531
72312W        W31573  42.281  20.690   0.443
72313W        W31574  30.063  21.718   0.811
72314W        W31575  38.006  22.715   4.657
72315W        W31576  37.040  38.494  10.568
72316W        W31577  10.840   8.324  14.425
72317W        W31578  30.909  28.979  13.859
72318W        W31579  24.581   3.315  12.892
72319W        W31580  12.230   2.356  13.798
72320W        W31581  11.329  35.585   3.382
72321W        W31582  25.100   4.808  13.323
72322W        W31583   9.831  25.651   1.264
72323W        W31584  22.604   0.747  14.029
72324W        W31585   2.766   4.743   0.428
72325W        W31586  27.548  33.877   2.220
72326W        W31587  33.491  32.451  14.894
72327W        W31588  29.661   1.967   1.372
72328W        W31589   8.799  19.099  10.585
72329W        W31590   0.385   9.210  13.485
72330W        W31591  11.307  29.649   4.726
72331W        W31592  32.417  23.535   1.332
72332W        W31593   0.923  14.816   0.918
72333W        W31594  10.168   1.763   3.857
72334W        W31595  42.381  18.095   1.891
72335W        W31596  22.118  30.044   4.722
72336W        W31597  39.961   7.800  13.805
72337W        W31598   3.921  13.749  10.942
72338W        W31599  37.390  42.377   3.867
72339W        W31600  39.856  24.175   5.274
72340W        W31601  38.065   8.365  14.394
72341W        W31602  18.290  19.597  14.514
72342W        W31603  27.176  39.427  13.336
72343W        W31604  22.513  21.680   1.728
72344W        W31605   1.446   3.794   4.204
72345W        W31606  38.569   6.287   0.460
72346W        W31607  31.970  21.046  10.940
72347W        W31608  39.535   5.874  14.827
72348W        W31609  21.118  28.676   1.355
72349W        W31610  29.122   1.365   3.195
72350W        W31611   3.789  16.718  14.902
72351W        W31612  15.751  21.608   1.791
72352W        W31613  19.674  16.702  12.864
72353W        W31614   0.903   7.675  13.544
72354W        W31615  31.537  36.896   1.234
72355W        W31616  41.484  31.628   4.700
72356W        W31617  32.526  17.582   0.945
72357W        W31618  33.610  16.593   2.183
72358W        W31619  38.982  42.823   0.325
72359W        W31620   4.924  32.092   2.293
72360W        W31621   6.810   2.370   2.778
72361W        W31622  21.170  43.768  13.443
72362W        W31623  35.008  29.967   3.212
72363W        W31624  15.800   1.461  12.006
72364W        W31625  28.057  36.973  14.859
72365W        W31626   0.439  13.714  12.973
72366W        W31627   8.788  28.136   1.374
72367W        W31628  16.589  41.404  11.898
72368W        W31629  17.710  27.616  12.938
72369W        W31630  19.711  20.252  13.455
72370W        W31631  24.122  15.273  14.297
72371W        W31632  24.974   6.817  12.870
72372W        W31633  10.300  29.089  14.474
72373W        W31634  43.860  34.598   4.318
72374W        W31635  18.073   8.669  13.510
72375W        W31636  19.278  27.161   9.927
72376W        W31637  28.593  28.038   3.694
72377W        W31638  23.687   8.291   4.717
72378W        W31639  13.756  38.982   1.288
72379W        W31640  24.215  34.873  13.927
72380W        W31641  26.627  21.255   3.216
72381W        W31642   0.347  24.082  12.915
72382W        W31643  39.042  33.912   0.783
72383W        W31644  18.628  37.523  12.447
72384W        W31645  44.462   0.816  14.827
72385W        W31646  10.851  27.009  13.921
72386W        W31647  44.390   9.717  11.120
72387W        W31648  31.438  22.047   3.351
72388W        W31649  10.241  32.885   5.099
72389W        W31650   6.748  24.188  13.371
72390W        W31651  11.745  15.083  12.575
72391W        W31652  26.964   7.888   4.265
72392W        W31653   5.274  24.638   2.793
72393W        W31654  20.747   0.266  14.327
72394W        W31655  13.755   9.179   2.807
72395W        W31656  23.649  11.774  14.938
72396W        W31657  11.641  12.256   3.166
72397W        W31658  11.770  25.146  13.392
72398W        W31659  10.803  31.093   0.765
72399W        W31660  23.137   2.469  11.062
72400W        W31661  42.809   4.328  13.446
72401W        W31662  29.108  32.054  12.381
72402W        W31663  14.704  24.593  14.431
72403W        W31664  41.824  42.869  11.383
72404W        W31665  28.050  38.430  13.031
72405W        W31666  33.121   5.773   3.308
72406W        W31667  32.580  21.690  12.433
72407W        W31668  43.377   6.269   3.854
72408W        W31669  44.788  11.654  12.049
72409W        W31670  37.949  44.825   4.288
72410W        W31671  16.696  22.015  11.914
72411W        W31672   3.435  42.418  13.436
72412W        W31673  27.996   5.322   5.262
72413W        W31674  16.113   7.901  12.469
72414W        W31675  42.352   0.751   2.376
72415W        W31676  41.797   3.241   2.274
72416W        W31677  18.714   5.416   2.213
72417W        W31678   4.274  21.154  11.542
72418W        W31679   0.376  39.320   3.775
72419W        W31680  40.800  22.590  11.492
72420W        W31681   2.290  18.155  13.459
72421W        W31682  10.816   2.310   1.759
72422W        W31683  19.266  28.965   2.194
72423W        W31684   7.665   6.198  12.522
72424W        W31685  27.616  27.063   2.811
72425W        W31686  42.850  27.481  12.453
72426W        W31687  40.892   2.326  11.444
72427W        W31688   3.783  10.728  13.486
72428W        W31689  10.782   3.322  11.442
72429W        W31690  42.355  36.585   0.939
72430W        W31691  30.423   5.262   4.673
72431W        W31692   5.853   7.702   2.287
72432W        W31693   8.392  41.028   2.361
72433W        W31694  41.851  42.991   1.747
72434W        W31695  23.994   4.425   9.614
72435W        W31696  16.173  28.623   1.850
72436W        W31697  38.851  25.989   0.738
72437W        W31698  43.504   1.875   2.259
72438W        W31699  42.998  30.646   2.352
72439W        W31700   4.368  15.124  10.943
72440W        W31701   5.239   8.731   4.617
72441W        W31702  44.898  37.989   1.731
72442W        W31703  11.193  11.848   4.130
72443W        W31704   1.837  38.886   3.729
72444W        W31705  26.552  19.110  14.381
72445W        W31706   9.867  42.844  13.920
72446W        W31707  30.952  43.013  12.930
72447W        W31708  23.104  29.617   3.360
72448W        W31709  15.624  24.536   3.709
72449W        W31710  11.325  13.133   1.825
72450W        W31711  14.186  35.382  11.375
72451W        W31712  38.505  29.109   2.804
72452W        W31713  21.083   5.275  14.863
72453W        W31714  41.372  26.042  10.937
72454W        W31715  37.538  11.262   0.316
72455W        W31716  27.978  44.947   1.245
72456W        W31717   4.264  12.812  13.977
72457W        W31718  33.555  11.812   3.276
72458W        W31719   0.827  22.551  10.159
72459W        W31720  14.220  33.559   3.642
72460W        W31721  12.199  35.445   2.844
72461W        W31722  17.127  41.970  11.560
72462W        W31723   5.429  19.656  12.063
72463W        W31724   2.883  12.814   0.384
72464W        W31725   8.759  17.686  11.371
72465W        W31726  31.600  17.616  14.993
72466W        W31727  14.800  43.775  10.572
72467W        W31728  24.205  29.444   1.289
72468W        W31729  38.911  28.972   4.641
72469W        W31730  14.660  22.147  14.933
72470W        W31731  36.899   8.176  11.937
72471W        W31732   3.325  37.453   4.129
72472W        W31733  41.387  19.068  14.472
72473W        W31734  26.641  36.069  10.540
72474W        W31735  24.172  36.394   4.786
72475W        W31736  33.098  11.205  14.471
72476W        W31737  42.288   5.414  14.941
72477W        W31738  18.248  25.118  10.115
72478W        W31739   8.697  19.058   0.461
72479W        W31740  27.166  27.578   3.301
72480W        W31741  17.637  22.622   1.252
72481W        W31742  29.529  31.472  14.292
72482W        W31743   6.305   6.348  13.456
72483W        W31744  28.668  20.204  10.445
72484W        W31745  32.407  12.815  13.414
72485W        W31746  44.345   5.827   1.220
72486W        W31747  19.196   0.944  13.308
72487W        W31748   0.364  36.005   4.238
72488W        W31749  35.923  22.580  13.968
72489W        W31750   2.934   5.369  13.387
72490W        W31751   8.719  19.563  11.556
72491W        W31752   8.787  24.119   0.408
72492W        W31753  41.464  37.340  11.041
72493W        W31754  44.285   5.723   3.755
72494W        W31755  35.436  31.500   1.873
72495W        W31756  22.232  36.966   2.753
72496W        W31757  38.441  26.623  12.914
72497W        W31758  35.931  27.127   0.773
72498W        W31759  24.160  24.059  10.922
72499W        W31760  36.945   0.327  14.496
72500W        W31761  40.803  20.723  14.958
72501W        W31762  40.011   3.761   2.839
72502W        W31763  20.553   2.897  10.434
72503W        W31764  34.082  18.062   4.666
72504W        W31765  17.263  19.748   1.729
72505W        W31766  30.452  25.048  14.833
72506W        W31767  17.624   1.773   4.809
72507W        W31768  44.859   1.908   1.733
72508W        W31769  33.885  25.504  10.447
72509W        W31770  32.082  11.749   1.856
72510W        W31771  39.380  16.594   3.235
72511W        W31772  22.120  28.605  14.287
72512W        W31773   0.337   1.896   2.224
72513W        W31774  43.808  32.469   4.119
72514W        W31775  22.227  43.988  13.426
72515W        W31776  15.736  35.476   1.887
72516W        W31777  37.467   5.806   4.649
72517W        W31778  19.590   6.265  13.951
72518W        W31779  10.774  17.181   2.375
72519W        W31780  14.599  17.671  14.345
72520W        W31781  33.389  42.934  13.852
72521W        W31782   8.722  33.005   0.454
72522W        W31783  42.487  34.029  14.980
72523W        W31784  40.888  33.452   9.674
72524W        W31785   9.190  16.225  12.832
72525W        W31786  20.551  25.172   1.328
72526W        W31787  15.127  42.846   0.257
72527W        W31788  35.489  43.355   3.269
72528W        W31789  17.657  23.554  12.050
72529W        W31790   9.339  20.030  12.038
72530W        W31791  11.256  14.804   2.802
72531W        W31792  31.563  40.955  11.868
72532W        W31793   2.898   7.225  13.899
72533W        W31794  38.969  40.395   1.819
72534W        W31795   0.933   5.376  12.483
72535W        W31796  12.825  29.621   2.212
72536W        W31797  22.633  24.628   0.891
72537W        W31798   9.197  25.514  11.998
72538W        W31799  20.050  26.976   1.717
72539W        W31800  11.637  40.441   2.260
72540W        W31801  15.091  41.347  10.527
72541W        W31802  33.529  32.129   1.929
72542W        W31803  30.413  23.178   4.767
72543W        W31804  34.937  27.605   0.463
72544W        W31805  15.163  19.664   2.300
72545W        W31806  34.432  40.517   1.876
72546W        W31807  16.314  10.684   0.782
72547W        W31808  11.638  25.605   3.153
72548W        W31809  29.016  23.722  10.448
72549W        W31810  32.511  10.656   2.241
72550W        W31811  16.085  34.050   3.309
72551W        W31812  36.388  41.305  10.901
72552W        W31813  13.329  28.096  11.372
72553W        W31814   6.194  30.517  13.799
72554W        W31815  19.619  12.229   3.718
72555W        W31816  41.402  29.519  10.544
72556W        W31817  35.551   3.853  14.789
72557W        W31818  32.594   5.255   3.168
72558W        W31819   2.833  33.048   4.310
72559W        W31820   2.861  18.757   0.796
72560W        W31821  44.276   7.234   0.727
72561W        W31822  28.672  28.611   2.309
72562W        W31823  30.488  37.540  13.034
72563W        W31824  28.129   2.850  11.998
72564W        W31825  20.529  42.479  11.533
72565W        W31826  15.127  10.296  13.463
72566W        W31827  35.059   1.456  10.558
72567W        W31828  10.298  30.544  13.816
72568W        W31829  36.379  28.143   4.780
72569W        W31830   8.335   8.208   1.854
72570W        W31831  12.121  24.607   2.372
72571W        W31832  27.669  32.063   4.791
72572W        W31833  13.701  39.973  13.320
72573W        W31834  34.891  34.384   1.729
72574W        W31835   4.296  24.643  11.031
72575W        W31836  35.881   4.906  14.397
72576W        W31837   0.843  24.649   2.734
72577W        W31838   9.307   1.734  11.070
72578W        W31839   1.743  21.591   0.380
72579W        W31840   6.408  20.647   4.671
72580W        W31841  33.549  35.482  12.849
72581W        W31842  31.954  37.049  13.956
72582W        W31843  11.298  21.693   3.687
72583W        W31844  17.149   4.212   1.838
72584W        W31845  18.167  23.529  14.876
72585W        W31846  40.906  20.586   4.194
72586W        W31847  32.496   1.429  11.931
72587W        W31848  31.527  22.214  11.481
72588W        W31849   2.460  23.116  13.531
72589W        W31850  27.449  21.017  11.067
72590W        W31851  34.032  26.969  12.025
72591W        W31852  11.795  39.355  11.112
72592W        W31853  24.990  29.599  11.045
72593W        W31854   1.299  36.984  10.523
72594W        W31855   9.320  17.792  12.909
72595W        W31856  17.779   1.748  12.537
72596W        W31857  28.548  28.944  13.865
72597W        W31858  22.186  20.634   4.247
72598W        W31859  26.658  25.588   4.781
72599W        W31860  14.315  27.166  13.891
72600W        W31861  10.645  29.142  13.831
72601W        W31862  42.368  13.686   9.659
72602W        W31863  17.773  24.206  11.052
72603W        W31864  19.098  19.605   3.242
72604W        W31865  27.658  42.797   1.360
72605W        W31866   3.740   0.400  12.940
72606W        W31867   6.874   7.334   1.776
72607W        W31868  43.902  16.284   3.784
72608W        W31869  17.252   0.845   1.269
72609W        W31870  18.625  38.066  11.932
72610W        W31871  36.589  20.105   4.342
72611W        W31872  38.861  19.058  13.498
72612W        W31873  33.075  43.378  12.880
72613W        W31874  41.989  26.578   2.387
72614W        W31875   1.898  29.138   0.794
72615W        W31876  32.889  21.225  11.510
72616W        W31877  38.507   4.747  10.530
72617W        W31878   6.206  25.993   1.289
72618W        W31879  13.319  35.571   3.353
72619W        W31880   5.381  14.684   1.783
72620W        W31881  24.177  37.465  12.340
72621W        W31882  41.895  26.058  11.101
72622W        W31883   4.238  37.518  14.340
72623W        W31884  39.904  30.642  14.908
72624W        W31885   6.406  27.014   0.449
72625W        W31886  31.064   6.911  11.015
72626W        W31887   7.818  19.128  11.064
72627W        W31888  41.390  15.095  13.447
72628W        W31889  41.893  33.407   0.432
72629W        W31890   3.344   8.305  13.831
72630W        W31891  17.601  14.819  12.544
72631W        W31892  27.948  23.645  11.016
72632W        W31893  29.510  28.983   2.809
72633W        W31894   3.261  36.028   4.650
72634W        W31895  19.118   8.854  10.528
72635W        W31896  30.950  37.944  11.472
72636W        W31897  37.449  38.383  11.924
72637W        W31898  43.357  33.013   0.307
72638W        W31899  43.858  41.940  13.956
72639W        W31900  10.322   8.288   3.281
72640W        W31901  23.629  17.667   4.623
72641W        W31902  36.478   1.950  13.961
72642W        W31903  27.176   7.265  11.463
72643W        W31904  44.301  44.260  13.373
72644W        W31905  15.269  24.146   2.313
72645W        W31906  30.978  11.323   2.755
72646W        W31907  36.430  45.000  12.979
72647W        W31908  40.464  11.270  13.813
72648W        W31909   8.767  42.979  13.897
72649W        W31910  34.003  17.156   1.449
72650W        W31911  12.831  27.148   0.896
72651W        W31912  28.609  36.401   2.821
72652W        W31913   2.849  38.446   4.807
72653W        W31914  30.459  23.032   3.844
72654W        W31915  12.623   0.787  13.457
72655W        W31916  21.172  11.700  14.426
72656W        W31917  27.131  18.065   2.326
72657W        W31918  16.756   5.832   4.707
72658W        W31919  37.836  24.712  10.992
72659W        W31920  43.895  36.989  14.488
72660W        W31921  34.482   7.383   1.863
72661W        W31922   0.961  29.147  12.402
72662W        W31923  37.440  12.312   2.730
72663W        W31924   0.377  42.468  11.931
72664W        W31925   1.427   6.231  11.900
72665W        W31926  27.545   1.909  12.444
72666W        W31927  20.236  22.105   3.812
72667W        W31928  40.831   3.878  14.509
72668W        W31929   4.344  30.454  10.544
72669W        W31930  14.803  32.946   1.426
72670W        W31931  10.317  41.830   2.681
72671W        W31932  34.868   6.240   0.381
72672W        W31933  32.541   0.254   1.351
72673W        W31934  22.179   5.399   1.790
72674W        W31935  18.610  24.479   2.758
72675W        W31936  25.564  10.753   1.775
72676W        W31937  31.030  15.602  10.486
72677W        W31938   7.754  33.104  11.036
72678W        W31939  16.294  29.990  14.962
72679W        W31940  44.354  12.241   1.224
72680W        W31941  30.442  43.823  11.513
72681W        W31942   3.828  25.658  12.911
72682W        W31943  22.033   4.269   4.161
72683W        W31944   8.891  17.652   0.337
72684W        W31945  20.758   7.399  14.962
72685W        W31946  35.495  37.970  12.951
72686W        W31947   4.777  21.113  14.947
72687W        W31948  12.634  10.763   3.229
72688W        W31949  34.454  42.933   3.313
72689W        W31950  40.898  10.774  10.992
72690W        W31951  34.444  31.545   3.747
72691W        W31952   8.657  22.659   1.868
72692W        W31953   2.958  24.178   1.854
72693W        W31954  33.044  42.399  13.823
72694W        W31955  15.645  27.469  13.964
72695W        W31956   4.398  33.584  13.499
72696W        W31957  32.136   3.734  12.847
72697W        W31958  28.581  42.304  13.434
72698W        W31959  34.453   4.743   1.856
72699W        W31960  24.103   5.794  11.923
72700W        W31961  11.714  40.444   4.180
72701W        W31962  21.031  34.936   3.186
72702W        W31963  37.036  15.787  13.884
72703W        W31964  11.792  23.104  10.560
72704W        W31965   0.814  20.633   0.884
72705W        W31966  31.555  25.617  12.409
72706W        W31967  28.517  11.787  12.085
72707W        W31968  28.488  18.565   2.840
72708W        W31969  39.986  16.623  10.986
72709W        W31970   9.384   9.739   4.147
72710W        W31971   6.676   1.864  11.483
72711W        W31972  32.423  44.849   0.300
72712W        W31973  28.073  22.649   3.791
72713W        W31974   8.766  32.131   2.737
72714W        W31975  18.684  10.649   0.853
72715W        W31976  29.060  42.495   4.636
72716W        W31977  24.704  17.122   3.636
72717W        W31978  27.642  17.184  12.352
72718W        W31979  10.218   5.912  10.005
72719W        W31980  27.190   7.728  14.954
72720W        W31981   2.459  20.635   4.243
72721W        W31982  41.493  32.904   0.798
72722W        W31983  35.008  37.972  12.463
72723W        W31984  29.521   0.356   3.829
72724W        W31985  11.160  14.282   3.863
72725W        W31986  35.091  16.675   2.849
72726W        W31987  18.134   7.830   3.344
72727W        W31988  21.031   4.356   4.237
72728W        W31989  12.214  31.927  12.018
72729W        W31990  42.785  39.540  14.371
72730W        W31991  16.206  30.036  14.457
72731W        W31992   4.362  30.129   1.398
72732W        W31993   0.746  37.502   2.364
72733W        W31994  30.077  11.823   4.812
72734W        W31995  19.205  44.329  14.783
72735W        W31996  28.561  16.115   2.400
72736W        W31997  34.557   1.940   0.333
72737W        W31998  33.417  23.219   4.742
72738W        W31999  25.192   8.268   2.835
72739W        W32000   7.889  27.045  14.377
72740W        W32001  35.968  42.449   4.224
72741W        W32002   4.306  26.623  14.928
72742W        W32003  19.700   2.368   0.342
72743W        W32004   9.210  24.151  14.492
72744W        W32005  29.571  29.973   9.480
72745W        W32006   6.877  11.728   2.861
72746W        W32007  41.325   6.273  12.463
72747W        W32008  31.481  42.378   1.726
72748W        W32009  44.911  20.545   0.359
72749W        W32010  19.656  38.528  13.897
72750W        W32011  15.186   6.224   2.817
72751W        W32012  31.917  39.984  10.600
72752W        W32013  22.113  15.170   2.219
72753W        W32014  40.518  22.572   1.381
72754W        W32015  19.096  39.351  11.908
72755W        W32016  23.040  33.424   2.692
72756W        W32017  31.088  30.038  14.385
72757W        W32018   8.822  12.786  13.817
72758W        W32019  43.890   5.927  12.542
72759W        W32020  34.080  11.724  10.529
72760W        W32021  14.605  18.733  12.032
72761W        W32022  18.276   2.298   3.845
72762W        W32023   2.252  29.623   0.867
72763W        W32024  36.426  26.137  12.929
72764W        W32025  28.170  43.780  13.955
72765W        W32026  25.506  37.923   4.680
72766W        W32027  34.523   4.296   1.243
72767W        W32028  32.475  27.577  11.430
72768W        W32029   8.269   8.756   1.896
72769W        W32030  28.107  36.996  11.930
72770W        W32031  18.569  33.920   3.822
72771W        W32032  12.187  12.747   2.258
72772W        W32033  33.016   8.667   2.871
72773W        W32034  42.878  14.622   3.385
72774W        W32035  39.553  44.503   4.756
72775W        W32036  14.832  10.370  14.888
72776W        W32037  30.997  31.536   4.600
72777W        W32038  39.997  24.178   4.608
72778W        W32039   0.886  34.017   3.311
72779W        W32040  41.793  22.120   5.804
72780W        W32041  18.119  21.086  10.542
72781W        W32042  42.873  22.059  14.012
72782W        W32043  40.043  39.422   1.400
72783W        W32044  30.421  21.083   2.258
72784W        W32045  44.928  40.509   2.842
72785W        W32046  29.963   8.269   0.770
72786W        W32047  26.648  32.065   0.857
72787W        W32048  25.962  43.003   4.175
72788W        W32049  21.255  22.137  11.092
72789W        W32050  20.735  39.426   2.284
72790W        W32051  26.530  10.202  11.399
72791W        W32052   3.899  43.389   2.706
72792W        W32053  41.788  38.366   2.902
72793W        W32054  11.733  22.692   2.798
72794W        W32055  33.462   9.847   4.746
72795W        W32056   7.840  11.325  11.966
72796W        W32057  40.944  42.288   2.893
72797W        W32058  30.431  13.251  13.527
72798W        W32059  26.085  13.140   2.794
72799W        W32060   9.862  40.472  10.473
72800W        W32061  36.865   6.428  13.315
72801W        W32062  29.952  17.696  12.053
72802W        W32063  33.543  33.442   0.894
72803W        W32064  10.793  14.101   2.783
72804W        W32065  15.709  23.504   3.866
72805W        W32066  18.209  35.860   2.787
72806W        W32067   3.816  15.103   3.307
72807W        W32068  40.410  41.925   1.718
72808W        W32069   0.929  43.767  13.968
72809W        W32070   6.781  37.464   0.745
72810W        W32071   7.687  33.485  14.839
72811W        W32072  40.046   0.424   0.843
72812W        W32073  44.775  14.757  14.347
72813W        W32074   5.339  22.996   1.906
72814W        W32075  38.830  32.941  14.410
72815W        W32076   9.209  29.612   4.781
72816W        W32077  10.803  33.904   1.374
72817W        W32078  36.097  41.365   3.379
72818W        W32079  10.182   0.979   4.791
72819W        W32080  37.526   1.364   0.797
72820W        W32081  38.546  33.069  10.617
72821W        W32082   1.411  31.534   4.713
72822W        W32083  31.007  38.048  10.590
72823W        W32084  29.568   6.234   3.771
72824W        W32085  13.148  30.124   3.826
72825W        W32086  24.591  27.533  14.334
72826W        W32087  40.974  39.456  11.996
72827W        W32088  13.344  23.150  14.789
72828W        W32089  34.581  41.377  12.060
72829W        W32090  22.216  39.046  10.531
72830W        W32091  18.216  26.527   2.687
72831W        W32092   4.273  21.659   0.897
72832W        W32093  33.969   9.236  14.401
72833W        W32094  29.067  12.286  12.887
72834W        W32095   5.873  23.542   1.271
72835W        W32096   1.930  31.509   4.182
72836W        W32097  20.177   1.767   2.398
72837W        W32098  42.377  43.280  13.387
72838W        W32099  16.599  33.531  13.019
72839W        W32100  27.459  29.446   3.689
72840W        W32101  39.835  21.747   3.211
72841W        W32102  19.132   6.854  10.143
72842W        W32103  31.632  40.465  11.414
72843W        W32104  20.129  20.676  13.390
72844W        W32105  38.344   3.400  12.449
72845W        W32106  23.998  34.933   4.160
72846W        W32107  34.466  18.727  10.478
72847W        W32108  16.248  41.952  11.117
72848W        W32109   2.369  23.109  11.960
72849W        W32110   1.314   8.244  11.405
72850W        W32111  41.002  38.837   3.237
72851W        W32112  12.658   7.886  11.510
72852W        W32113  32.043  42.887   2.198
72853W        W32114  24.127  38.961   2.217
72854W        W32115  19.165  22.660  11.031
72855W        W32116  30.134  31.451  11.016
72856W        W32117  24.151   8.660   4.191
72857W        W32118   0.272  11.364  14.391
72858W        W32119  13.338  44.786  11.518
72859W        W32120  29.494  15.694   0.430
72860W        W32121  44.376  43.468  12.898
72861W        W32122   9.319  21.135  11.934
72862W        W32123  41.530  35.600   0.921
72863W        W32124  23.713   0.374   2.862
72864W        W32125   6.215  27.174   4.320
72865W        W32126  34.447  34.055  11.088
72866W        W32127  30.055  12.778  13.384
72867W        W32128  24.480   0.961   1.807
72868W        W32129  16.126   3.726   4.678
72869W        W32130  32.041   4.720   3.778
72870W        W32131   4.244   0.320   3.866
72871W        W32132  27.453  35.426   1.753
72872W        W32133   7.802  35.021  11.383
72873W        W32134  18.561  27.518  10.438
72874W        W32135  28.629  29.525   3.270
72875W        W32136   3.713  43.954   0.457
72876W        W32137   5.418  35.878  13.442
72877W        W32138   4.349  19.280   4.835
72878W        W32139  39.898  16.669  12.490
72879W        W32140  11.661  23.049   2.691
72880W        W32141  24.558   4.789  12.468
72881W        W32142   2.811  22.689  10.461
72882W        W32143  34.962  29.490  10.990
72883W        W32144  39.554   0.290   2.861
72884W        W32145  18.696  26.073  13.808
72885W        W32146   5.216  39.318   3.843
72886W        W32147  21.710  17.083   0.882
72887W        W32148  30.535  39.905   4.622
72888W        W32149   0.278  21.175   2.216
72889W        W32150  13.779  40.459   0.358
72890W        W32151  38.844  43.377  14.402
72891W        W32152  12.671  33.547   2.268
72892W        W32153  41.450  12.767   4.124
72893W        W32154  42.328  12.671   0.896
72894W        W32155  23.600  27.165   1.926
72895W        W32156  40.931  26.487   5.590
72896W        W32157  18.053   2.402   1.436
72897W        W32158  34.411  38.512  14.811
72898W        W32159  35.469  36.539   2.222
72899W        W32160  12.262  18.597   0.402
72900W        W32161  41.842  44.867  11.986
72901W        W32162  12.813  43.514   2.414
72902W        W32163   4.446  18.615   1.448
72903W        W32164  29.448   6.707   4.600
72904W        W32165   8.826  28.497   4.738
72905W        W32166   0.989  40.363  10.470
72906W        W32167  37.831   6.840   4.778
72907W        W32168   0.304  33.562   1.772
72908W        W32169  14.801  17.560  13.385
72909W        W32170  19.130  22.589   0.398
72910W        W32171   6.359  31.581   1.317
72911W        W32172  37.041   0.906  13.384
72912W        W32173  37.948   0.440  14.437
72913W        W32174  25.006  29.559  11.899
72914W        W32175  36.408  43.311   2.282
72915W        W32176   3.267  13.271   4.706
72916W        W32177   3.248  26.673   3.779
72917W        W32178  16.297   8.763  12.365
72918W        W32179   0.769  13.756   1.802
72919W        W32180  44.261   3.415  13.467
72920W        W32181  18.753  37.444  10.567
72921W        W32182  20.728  36.574  12.904
72922W        W32183  35.534  39.478  10.615
72923W        W32184  23.201  43.346  14.303
72924W        W32185   9.853   1.848  10.909
72925W        W32186  19.282  17.735   4.295
72926W        W32187  12.735  35.016   1.240
72927W        W32188  43.291   0.349  14.483
72928W        W32189  12.170  18.278  14.465
72929W        W32190  28.582  41.010   2.282
72930W        W32191  42.935   1.368   1.698
72931W        W32192  15.167  17.715  11.499
72932W        W32193  22.685  10.310  10.506
72933W        W32194  39.876  35.403  13.928
72934W        W32195  36.587   5.288   4.710
72935W        W32196   4.836  29.087  11.428
72936W        W32197  30.476   8.735  13.383
72937W        W32198  19.234  41.839   0.743
72938W        W32199  26.484  41.973  11.010
72939W        W32200  42.779  21.702   5.172
72940W        W32201   8.872  33.008   3.755
72941W        W32202  12.202  23.160   2.753
72942W        W32203  41.977  25.569   0.268
72943W        W32204  21.630  43.396   3.849
72944W        W32205   9.163  12.633   1.705
72945W        W32206  17.075  33.894   4.302
72946W        W32207   7.790  26.607   0.395
72947W        W32208  23.215  25.501   3.231
72948W        W32209  25.688  20.560   2.779
72949W        W32210  37.906  25.613   1.884
72950W        W32211  11.666   5.827   3.655
72951W        W32212  29.105  25.979   0.287
72952W        W32213  35.030   0.426  10.056
72953W        W32214   5.276   3.443  13.313
72954W        W32215  44.965  40.037   3.217
72955W        W32216  25.175  28.943  12.855
72956W        W32217  41.391   3.739   1.726
72957W        W32218  15.312  29.526  14.485
72958W        W32219   0.428  43.975  12.345
72959W        W32220  34.600  14.266  14.385
72960W        W32221   1.269  42.451   1.837
72961W        W32222  36.506  17.767   0.904
72962W        W32223  35.007   0.750   4.774
72963W        W32224  19.116  34.115  13.036
72964W        W32225   0.779   0.292   0.836
72965W        W32226  37.926  20.572  14.280
72966W        W32227  35.436   3.337   0.733
72967W        W32228  33.933  37.413  14.003
72968W        W32229  41.921  25.980   2.885
72969W        W32230  30.541  29.149   1.810
72970W        W32231  37.412   2.342   0.812
72971W        W32232  44.995  32.483   3.341
72972W        W32233  21.084  34.993   4.352
72973W        W32234  34.586  27.116   2.273
72974W        W32235  38.822  12.281  14.403
72975W        W32236   2.415  19.117   2.677
72976W        W32237   9.264   9.668  11.039
72977W        W32238  34.912  15.281   1.318
72978W        W32239   7.395  22.677   3.162
72979W        W32240  20.095  31.508   4.312
72980W        W32241  21.587  30.054   4.740
72981W        W32242  14.819   6.859  11.500
72982W        W32243  44.310  32.040  11.462
72983W        W32244  15.292  29.147   2.829
72984W        W32245  33.942  32.550   1.326
72985W        W32246   3.873  37.558   0.941
72986W        W32247   3.853  20.548   1.249
72987W        W32248   2.892  41.365  14.968
72988W        W32249  22.220   1.358  14.451
72989W        W32250   6.873  37.890   3.375
72990W        W32251  40.819  13.693  13.867
72991W        W32252  25.142  27.024   3.301
72992W        W32253  30.025  25.631  12.879
72993W        W32254  30.913  12.855  12.049
72994W        W32255  28.991   2.809  13.864
72995W        W32256  18.226  41.853  13.547
72996W        W32257  33.006  42.371   1.932
72997W        W32258  23.037  35.035   0.412
72998W        W32259  22.129  31.452  12.844
72999W        W32260   5.851  31.617   0.904
73000W        W32261  22.574  33.491   0.319
73001W        W32262  31.089   6.733   4.606
73002W        W32263   1.873  29.653   3.200
73003W        W32264  17.676  20.086  12.861
73004W        W32265  25.688  24.065  12.017
73005W        W32266  23.186  36.443  10.452
73006W        W32267   8.782  30.109  11.875
73007W        W32268  13.799   0.289   2.742
73008W        W32269   5.335   0.372   3.753
73009W        W32270  40.980  36.030   2.728
73010W        W32271   6.323  19.593   1.227
73011W        W32272  21.147  29.624  12.389
73012W        W32273  17.595  29.083   1.409
73013W        W32274  40.483  32.613   3.296
73014W        W32275  25.050  18.256  11.903
73015W        W32276  40.464  44.768   3.329
73016W        W32277  28.510  37.341   1.225
73017W        W32278  41.363  27.997  10.414
73018W        W32279   0.287  34.605   2.313
73019W        W32280   1.904  10.872  12.577
73020W        W32281  23.139  40.350  12.497
73021W        W32282  32.006   6.792  14.334
73022W        W32283  34.118  12.815  12.448
73023W        W32284  43.992  19.267   2.270
73024W        W32285  34.403  15.760   3.735
73025W        W32286   9.354  40.849   0.962
73026W        W32287  20.217  37.407  13.380
73027W        W32288   8.899  24.035   4.200
73028W        W32289   7.885  17.072   2.886
73029W        W32290   1.363  10.718   0.807
73030W        W32291  40.052  12.277  14.496
73031W        W32292  36.498   6.256   2.316
73032W        W32293  15.589  28.942   2.738
73033W        W32294  20.525  42.845   1.418
73034W        W32295   8.836  29.498  10.537
73035W        W32296  13.724   9.273  13.486
73036W        W32297  19.048  12.639   2.253
73037W        W32298  26.541  43.833  13.427
73038W        W32299  43.299   4.730   4.238
73039W        W32300  35.058  26.087   3.791
73040W        W32301  31.409  31.946  14.433
73041W        W32302   5.252  14.705  12.062
73042W        W32303  38.465  31.146  13.908
73043W        W32304  31.477  23.042   1.762
73044W        W32305  27.525  36.014  11.962
73045W        W32306   9.813  33.923  12.044
73046W        W32307  39.877  16.778  14.020
73047W        W32308  37.382   5.278   3.234
73048W        W32309  12.139   1.239  14.005
73049W        W32310   3.277  30.149  13.947
73050W        W32311  26.058  11.228  11.043
73051W        W32312  15.656  35.415  12.388
73052W        W32313   2.966  17.252  11.433
73053W        W32314  12.634  27.478   2.394
73054W        W32315  39.340  40.439   1.376
73055W        W32316  15.739  43.898   9.963
73056W        W32317  15.632  21.207  10.139
73057W        W32318  27.575  25.165  11.073
73058W        W32319  43.953  19.665   3.370
73059W        W32320  42.322   9.846   1.836
73060W        W32321   1.966  18.172   1.703
73061W        W32322   9.789  22.059  12.432
73062W        W32323  21.226  26.589  13.440
73063W        W32324  22.640  11.773   0.373
73064W        W32325  21.263  29.155   4.624
73065W        W32326  24.573  39.867   1.395
73066W        W32327  23.704  35.964   4.603
73067W        W32328  44.873  37.414  13.899
73068W        W32329   1.845  18.263  12.961
73069W        W32330  38.966  38.410   4.742
73070W        W32331  14.747  21.689   2.187
73071W        W32332   6.236  12.639   0.339
73072W        W32333  40.803  28.037  11.004
73073W        W32334  22.500  25.536   3.736
73074W        W32335  21.533  38.350   3.848
73075W        W32336  36.429   0.282   1.892
73076W        W32337  27.097  14.746   2.723
73077W        W32338  27.985  12.225  12.417
73078W        W32339   1.459  26.113   2.784
73079W        W32340  18.554  25.505   2.840
73080W        W32341  31.620  24.580  12.077
73081W        W32342  21.072   7.208   1.284
73082W        W32343  27.028  29.589   0.885
73083W        W32344   5.811  37.435   4.808
73084W        W32345   5.891  20.733  13.895
73085W        W32346  23.541  35.478   3.813
73086W        W32347  16.270   0.937   1.314
73087W        W32348   0.253  11.675   1.249
73088W        W32349  40.527  32.915  12.550
73089W        W32350  43.514  33.497  13.514
73090W        W32351  10.835  30.541  10.475
73091W        W32352  14.793  42.502  13.835
73092W        W32353   5.222   2.387   1.708
73093W        W32354   0.287   7.261  14.978
73094W        W32355  15.631  26.584  11.537
73095W        W32356  27.064  22.105  12.038
73096W        W32357   9.842  42.434   2.839
73097W        W32358  23.497  44.329   4.155
73098W        W32359   0.788  32.925  13.946
73099W        W32360  15.577  22.668   2.238
73100W        W32361   7.804   6.805  14.376
73101W        W32362  43.975  30.459  10.911
73102W        W32363  19.070  27.030  12.412
73103W        W32364  22.017   4.348   1.786
73104W        W32365   1.277  43.372  13.837
73105W        W32366  18.091  27.052  13.062
73106W        W32367  35.488   8.867  13.388
73107W        W32368  17.599  37.344   9.930
73108W        W32369   0.807  14.276  11.097
73109W        W32370   6.841  39.477   4.800
73110W        W32371  12.254  26.102   4.141
73111W        W32372  40.895  32.919  11.401
73112W        W32373  13.791  11.824   4.173
73113W        W32374  21.614  35.359  12.359
73114W        W32375  11.286   4.228   3.272
73115W        W32376  18.206   3.387   4.674
73116W        W32377  20.144   6.327   1.860
73117W        W32378  25.568  13.238   2.810
73118W        W32379  15.203  37.342  12.954
73119W        W32380  21.519  19.107   1.815
73120W        W32381  14.185   4.791   3.799
73121W        W32382  22.087   4.313  12.523
73122W        W32383  10.171  44.262   4.198
73123W        W32384   0.423  17.067  13.462
73124W        W32385  38.976  29.129   3.715
73125W        W32386  37.076  10.757   2.764
73126W        W32387  16.642  32.059  14.277
73127W        W32388  31.406   3.883   0.784
73128W        W32389  14.193  26.198   3.655
73129W        W32390  24.010  39.455  11.569
73130W        W32391  12.351  37.877  12.935
73131W        W32392  28.135  26.582  11.419
73132W        W32393   3.890  16.809  13.375
73133W        W32394  18.715  15.780  14.996
73134W        W32395  35.104  34.034   2.404
73135W        W32396  40.312  44.794   0.776
73136W        W32397  44.337  10.763   4.320
73137W        W32398  26.469  15.774   3.700
73138W        W32399  27.946  14.322   2.416
73139W        W32400  41.522  24.091  11.927
73140W        W32401   2.911  33.937   0.448
73141W        W32402   4.268  43.325  10.622
73142W        W32403  18.695  14.790  12.929
73143W        W32404   8.177  39.485  12.893
73144W        W32405  11.127  17.653   2.875
73145W        W32406   3.335  39.896  11.932
73146W        W32407   6.807  10.159   0.780
73147W        W32408  14.596  32.535  10.497
73148W        W32409  43.326  14.114   3.796
73149W        W32410  33.476  22.720  10.544
73150W        W32411   8.346  33.517  12.068
73151W        W32412  30.611  25.214  13.941
73152W        W32413  23.183  23.611  13.820
73153W        W32414  10.644  22.612  10.545
73154W        W32415  35.440  17.729  13.467
73155W        W32416  17.612  34.873   2.262
73156W        W32417  39.920  30.647   3.217
73157W        W32418  32.078  36.901   1.748
73158W        W32419  27.037  20.701   2.868
73159W        W32420  41.929   4.303  11.460
73160W        W32421  11.733   7.711   2.363
73161W        W32422  25.518  29.631  10.481
73162W        W32423  29.079  15.320   0.475
73163W        W32424  24.212  28.077  12.411
73164W        W32425  15.242   2.944  13.930
73165W        W32426  24.689  40.428   0.798
73166W        W32427   5.273  31.492   1.332
73167W        W32428  24.179  29.662  10.946
73168W        W32429  30.487  17.631   1.291
73169W        W32430  26.460  40.471  13.995
73170W        W32431  41.447  42.895   4.336
73171W        W32432  29.423  16.275  12.000
73172W        W32433  16.767  31.590  11.457
73173W        W32434  21.119  36.902  14.868
73174W        W32435  21.589  23.562  12.490
73175W        W32436  38.362  28.578  12.502
73176W        W32437  22.242  27.466   2.334
73177W        W32438  23.518  19.746   2.856
73178W        W32439   0.476  15.644  12.841
73179W        W32440   0.476  35.416  14.374
73180W        W32441  44.277  12.736  11.506
73181W        W32442  15.669  14.168  14.762
73182W        W32443  32.489  31.127  14.409
73183W        W32444  24.212  40.949  13.345
73184W        W32445  14.257   6.358   5.623
73185W        W32446  35.103  38.944  11.103
73186W        W32447  13.610  39.495   2.684
73187W        W32448  18.282  32.489   2.817
73188W        W32449  24.505  14.312  13.855
73189W        W32450  34.925  21.675  13.836
73190W        W32451  37.062  19.245   4.272
73191W        W32452   9.837  27.060  11.878
73192W        W32453   3.449  22.735   5.131
73193W        W32454   8.257   3.405  10.922
73194W        W32455  14.118  33.900   2.898
73195W        W32456   2.372  35.448  11.378
73196W        W32457  29.648  20.176  11.419
73197W        W32458   7.228  10.353   2.206
73198W        W32459  12.617  40.350   4.685
73199W        W32460  33.940  11.755  11.507
73200W        W32461  12.701  38.991  13.326
73201W        W32462  38.976  25.545   1.346
73202W        W32463  14.812   5.346  13.040
73203W        W32464  43.004  33.918   4.639
73204W        W32465  34.014  42.527   2.246
73205W        W32466   1.402  26.042   4.145
73206W        W32467  18.551   1.761   1.854
73207W        W32468   6.757  37.410   2.257
73208W        W32469   2.930   9.304   0.251
73209W        W32470  39.958   5.221   0.435
73210W        W32471  20.136   6.761  11.032
73211W        W32472  29.440  39.374   3.835
73212W        W32473   9.759   5.378   4.122
73213W        W32474  15.234  44.340   0.791
73214W        W32475  16.769  12.731   2.843
73215W        W32476  14.223  19.644  11.378
73216W        W32477  37.986  10.753  11.091
73217W        W32478  31.554  39.436  13.419
73218W        W32479   6.274  37.346   2.231
73219W        W32480  38.923  33.969   3.236
73220W        W32481  20.644  17.714  12.867
73221W        W32482  33.997   5.282   3.325
73222W        W32483  36.024  44.472   9.924
73223W        W32484   6.210  35.001   5.283
73224W        W32485   2.772  17.129   4.266
73225W        W32486  25.032  24.520  14.425
73226W        W32487  19.724  12.746  13.473
73227W        W32488  17.593  15.762  13.445
73228W        W32489   6.243  21.053   1.887
73229W        W32490  12.250  39.884   0.432
73230W        W32491  33.940  11.194  11.011
73231W        W32492  39.397  29.047  11.901
73232W        W32493  37.344  18.223   2.737
73233W        W32494  16.202  22.710  12.419
73234W        W32495  23.007  23.130  12.903
73235W        W32496   4.220   6.822  14.303
73236W        W32497  12.688  41.346   2.252
73237W        W32498   1.850  43.770   2.841
73238W        W32499  17.084  32.116   1.813
73239W        W32500  21.734  39.002   2.765
73240W        W32501  40.376   3.877  13.461
73241W        W32502  21.748  30.951   1.912
73242W        W32503  31.481   6.877   3.227
73243W        W32504   6.232  33.562  10.469
73244W        W32505  11.777  41.531   3.329
73245W        W32506  24.613  31.533   1.844
73246W        W32507   0.978   6.737   0.462
73247W        W32508  38.909   9.836  12.841
73248W        W32509  26.158   9.315  13.406
73249W        W32510  24.189   4.365  12.342
73250W        W32511   1.452  10.653  12.402
73251W        W32512   9.153  34.866   1.842
73252W        W32513  13.725  17.562   3.721
73253W        W32514   8.864  36.055   2.813
73254W        W32515  28.935  33.414  11.475
73255W        W32516  14.173  10.876  13.000
73256W        W32517  17.236  44.862   4.643
73257W        W32518  29.624  40.546   1.715
73258W        W32519  18.668  32.549   0.277
73259W        W32520   5.215  34.466  13.458
73260W        W32521  26.045  37.398   3.780
73261W        W32522  40.308  16.670  13.895
73262W        W32523  34.948  10.733   0.451
73263W        W32524   4.433  16.690   4.169
73264W        W32525  20.547   5.927   4.677
73265W        W32526  38.532  28.168  12.459
73266W        W32527  43.281  44.011   4.281
73267W        W32528  36.562   5.325  11.125
73268W        W32529  35.098  17.614   2.722
73269W        W32530   2.363  27.942  13.871
73270W        W32531  39.491  18.650  10.487
73271W        W32532  10.672  39.482  11.992
73272W        W32533  13.670  21.685  11.863
73273W        W32534  26.625  19.134   4.205
73274W        W32535  30.991   0.447   1.773
73275W        W32536  14.214   5.227  10.923
73276W        W32537  11.738  11.345  10.416
73277W        W32538  26.124  40.030  12.366
73278W        W32539   5.407   4.939   1.812
73279W        W32540  11.146  39.476   3.214
73280W        W32541  30.937  30.505   0.324
73281W        W32542  32.002  44.855  12.828
73282W        W32543  29.476   1.271   0.846
73283W        W32544   8.656  19.204   0.816
73284W        W32545  17.236  12.654   1.849
73285W        W32546  32.518  20.140  12.922
73286W        W32547  14.162  16.689   1.860
73287W        W32548  30.126  34.058   1.385
73288W        W32549  38.543  16.624   0.333
73289W        W32550  40.507  30.973  11.003
73290W        W32551   4.742  13.124  13.836
73291W        W32552  43.346  17.787  12.039
73292W        W32553  31.632  31.476   3.743
73293W        W32554  27.526  26.465  13.807
73294W        W32555  44.371   7.381  10.945
73295W        W32556  33.517  30.961  13.373
73296W        W32557  34.940  14.097  14.871
73297W        W32558   8.324  16.566  13.790
73298W        W32559  34.467  15.190  14.830
73299W        W32560   0.883  24.036   0.897
73300W        W32561  38.053  27.151  11.395
73301W        W32562  34.409   6.357  10.590
73302W        W32563  33.059  27.680  13.875
73303W        W32564  22.191   8.181   0.859
73304W        W32565  37.879  20.564  13.403
73305W        W32566   5.837  22.113  13.385
73306W        W32567  10.196  33.065  13.491
73307W        W32568  24.698  24.610  11.402
73308W        W32569  42.821  37.086  13.474
73309W        W32570  29.511  20.612   4.335
73310W        W32571  20.117  36.435  14.816
73311W        W32572  39.538  11.820  11.007
73312W        W32573  39.442  10.273  12.507
73313W        W32574  35.941  17.157   0.244
73314W        W32575  29.557  14.249   3.865
73315W        W32576  44.332  33.929   1.265
73316W        W32577  18.724  44.989  11.879
73317W        W32578   9.235  22.131   2.388
73318W        W32579  14.161  13.611   3.854
73319W        W32580   0.769   7.362  13.027
73320W        W32581  25.627  41.365   0.895
73321W        W32582  15.793  13.836   3.227
73322W        W32583  23.127  32.121  14.459
73323W        W32584  44.414  24.088  13.015
73324W        W32585   0.767  21.025  13.330
73325W        W32586  18.774  32.484  12.981
73326W        W32587  33.056  11.140  11.387
73327W        W32588  28.965  43.287  13.836
73328W        W32589  22.017  16.181   1.809
73329W        W32590   1.262  25.977  10.458
73330W        W32591  20.585  40.928  13.343
73331W        W32592  38.887   2.372  14.390
73332W        W32593  19.761  16.571   2.691
73333W        W32594  11.169  30.987  14.503
73334W        W32595  43.427  43.486  11.865
73335W        W32596  18.071   4.375  12.898
73336W        W32597  29.139  24.218   0.353
73337W        W32598  37.475  43.378  13.842
73338W        W32599  16.262  10.787  12.844
73339W        W32600   2.270  22.154  13.918
73340W        W32601  41.992  15.607  12.463
73341W        W32602  25.577  43.927   1.815
73342W        W32603  27.008  23.040  13.379
73343W        W32604  20.757  43.786   0.330
73344W        W32605   8.804  32.536   3.699
73345W        W32606  16.784   9.149  13.435
73346W        W32607   6.325  26.199  11.408
73347W        W32608   1.321   7.743  14.771
73348W        W32609  10.771  18.699   2.396
73349W        W32610  18.717  30.578  11.539
73350W        W32611  29.959  34.097   4.798
73351W        W32612  23.575  21.689  13.442
73352W        W32613  11.192  24.515  14.864
73353W        W32614  12.219  44.841  13.488
73354W        W32615   4.355   8.883   1.379
73355W        W32616  34.431  34.606  13.872
73356W        W32617  11.822  11.789   2.699
73357W        W32618  17.557  39.039   4.685
73358W        W32619  29.137  32.037   1.227
73359W        W32620  13.316  42.871   2.310
73360W        W32621  24.085  36.443   2.691
73361W        W32622  32.907  43.392  10.517
73362W        W32623  43.339  15.725   2.288
73363W        W32624  37.016  41.524   0.393
73364W        W32625  31.071   8.215   9.439
73365W        W32626   4.216   5.712   4.660
73366W        W32627  44.267   0.745   2.885
73367W        W32628  31.634  28.146   3.146
73368W        W32629  24.536  30.107  11.971
73369W        W32630  30.489  25.962  11.984
73370W        W32631   2.305  28.062   4.251
73371W        W32632  28.047  37.460  12.094
73372W        W32633   9.812  39.001   1.768
73373W        W32634   5.257  41.965  13.922
73374W        W32635  43.814  33.570  14.484
73375W        W32636   9.750  38.028   1.801
73376W        W32637  41.039  14.721   4.290
73377W        W32638  27.950   0.871  10.475
73378W        W32639   7.413  30.552   0.272
73379W        W32640  26.101   7.774  11.063
73380W        W32641   7.869   2.267   4.351
73381W        W32642  24.667  32.073   3.852
73382W        W32643  23.567  39.374  13.399
73383W        W32644  20.663  20.257  12.462
73384W        W32645  11.770  20.765  14.813
73385W        W32646   5.348  15.669   3.371
73386W        W32647  39.517  30.547   3.855
73387W        W32648  25.611  23.004  11.040
73388W        W32649  14.652  18.716   1.842
73389W        W32650  13.618  14.193  14.315
73390W        W32651  17.756   3.405   0.439
73391W        W32652  43.766  27.680   2.220
73392W        W32653  39.461   5.429   1.703
73393W        W32654   7.177  21.667  13.405
73394W        W32655  12.165  37.415  12.407
73395W        W32656   3.870  25.533   0.950
73396W        W32657  39.017  23.129  12.496
73397W        W32658   9.829  40.019   1.739
73398W        W32659  22.659  25.520   0.251
73399W        W32660  30.602  21.063   0.940
73400W        W32661  28.661  31.495   0.320
73401W        W32662  30.975   4.823   0.478
73402W        W32663  43.471   1.739   3.340
73403W        W32664   9.840  39.515   3.289
73404W        W32665   7.827  39.050  13.971
73405W        W32666  42.369  17.068   3.791
73406W        W32667  14.604   4.220   2.381
73407W        W32668  11.648  35.975  12.046
73408W        W32669  43.390  24.035   0.730
73409W        W32670  23.083  43.399   2.312
73410W        W32671  33.116  19.664   4.795
73411W        W32672  25.487  13.161   1.718
73412W        W32673  27.990  37.579   0.768
73413W        W32674  19.049  43.837   4.624
73414W        W32675  31.486  38.357   2.746
73415W        W32676  30.141  19.135  10.568
73416W        W32677  13.290  13.754   0.777
73417W        W32678  34.089  11.189   1.918
73418W        W32679  19.714  33.479   5.166
73419W        W32680  13.780  18.720   1.322
73420W        W32681  34.070  28.650  11.581
73421W        W32682   8.275  37.855   2.337
73422W        W32683  19.134  33.520  11.929
73423W        W32684   9.824  40.489   1.735
73424W        W32685  44.369  24.015  12.458
73425W        W32686   1.256  35.019  11.592
73426W        W32687  27.630  11.627  12.398
73427W        W32688  37.045  17.169  14.901
73428W        W32689  29.039   0.960   1.291
73429W        W32690  20.154  12.205   3.735
73430W        W32691  27.031  19.559   1.826
73431W        W32692  37.874  35.909  12.957
73432W        W32693  21.046   1.344   4.750
73433W        W32694   9.860  15.208  13.977
73434W        W32695   8.814  16.634  14.771
73435W        W32696  40.042   4.304   0.859
73436W        W32697   5.761  40.873   2.898
73437W        W32698  30.109   0.750   0.450
73438W        W32699   5.403  31.621  12.512
73439W        W32700  29.928  22.538  13.474
73440W        W32701   4.306  32.635   1.293
73441W        W32702  11.152   2.384  10.618
73442W        W32703  32.413   5.688   4.134
73443W        W32704   8.339  38.445  14.281
73444W        W32705  20.036   7.857   2.700
73445W        W32706  33.564  39.824   4.776
73446W        W32707  40.034   6.740  10.548
73447W        W32708  26.142  40.829  12.378
73448W        W32709  17.272  11.322  12.030
73449W        W32710  37.041  19.604   4.322
73450W        W32711  30.069  13.144  12.483
73451W        W32712  20.135   7.344  10.013
73452W        W32713   1.412   5.281   0.424
73453W        W32714   9.713  18.770   4.785
73454W        W32715  20.083   6.743  12.576
73455W        W32716  14.325   1.439   4.313
73456W        W32717  10.373  42.836   2.745
73457W        W32718   4.881  37.876   3.721
73458W        W32719   1.760  25.984  11.061
73459W        W32720  28.643  22.079   2.680
73460W        W32721  26.650  12.159   0.311
73461W        W32722  16.602   8.363  11.979
73462W        W32723  21.661   5.259   1.312
73463W        W32724  20.697  19.613  12.506
73464W        W32725  13.843  41.991   1.354
73465W        W32726  38.508   5.208   3.152
73466W        W32727  14.307  28.456  13.963
73467W        W32728  35.065  39.986  14.761
73468W        W32729  36.881  25.055  13.845
73469W        W32730  21.087  22.588   4.638
73470W        W32731  15.769  25.016  11.064
73471W        W32732   7.691  15.683  12.441
73472W        W32733  31.998  39.516   3.709
73473W        W32734  19.567   3.874  13.055
73474W        W32735  37.981   3.332   4.123
73475W        W32736  12.755   8.183  11.120
73476W        W32737  25.605  17.219  10.948
73477W        W32738  41.417  34.384  14.335
73478W        W32739  43.765  25.059  12.865
73479W        W32740  30.999  12.215  11.037
73480W        W32741  44.470  13.254  12.977
73481W        W32742   2.897   4.275  11.504
73482W        W32743  43.814  22.234   0.280
73483W        W32744  21.594  23.166  10.892
73484W        W32745   6.885  15.266  14.767
73485W        W32746  41.020   8.317   1.253
73486W        W32747  18.598   5.874   3.204
73487W        W32748  18.058  33.892  14.454
73488W        W32749  25.690  15.658  12.932
73489W        W32750  32.039  31.032  13.047
73490W        W32751  26.525  11.233   4.314
73491W        W32752  23.636  15.808  13.328
73492W        W32753  20.160  30.149   2.343
73493W        W32754  33.990  22.689  13.040
73494W        W32755  11.311  34.491  13.364
73495W        W32756  31.087  40.464   2.861
73496W        W32757  26.117   7.362   4.677
73497W        W32758  26.099  11.745  11.082
73498W        W32759  41.892  19.759   9.937
73499W        W32760  16.132  44.364  13.540
73500W        W32761   7.825  25.583   4.689
73501W        W32762  37.572  15.209  12.064
73502W        W32763   5.221  15.289   2.732
73503W        W32764   2.320  19.674  13.427
73504W        W32765  39.322  28.660  13.992
73505W        W32766  18.587   6.727   0.949
73506W        W32767  42.501  37.411  14.292
73507W        W32768  17.661   0.953  10.480
73508W        W32769   8.382  26.659   1.272
73509W        W32770   5.877   7.394  13.526
73510W        W32771  11.216  23.114  13.336
73511W        W32772  16.711  26.643   4.826
73512W        W32773  20.766  44.376  10.896
73513W        W32774  15.755   9.680   4.760
73514W        W32775  30.624  17.185  12.847
73515W        W32776  36.086  29.666   4.119
73516W        W32777  14.305   4.869  12.979
73517W        W32778  44.312  33.465  14.851
73518W        W32779  39.545  23.199  13.416
73519W        W32780  19.241  32.902  11.509
73520W        W32781  44.474   2.470  10.077
73521W        W32782  16.783   6.229  12.468
73522W        W32783  32.499  40.455   4.794
73523W        W32784  22.559  43.463   4.689
73524W        W32785  32.438  13.302  11.002
73525W        W32786  36.870  44.430  14.403
73526W        W32787  10.712  31.497  12.941
73527W        W32788  29.613   7.405  14.334
73528W        W32789  20.536  30.464  11.030
73529W        W32790  14.686  13.800  13.822
73530W        W32791  23.527   3.461  11.510
73531W        W32792  42.346  21.148  14.942
73532W        W32793  23.179  15.300  14.476
73533W        W32794  33.889  44.409   0.762
73534W        W32795  28.525  43.956   0.766
73535W        W32796  40.888  20.219   1.251
73536W        W32797   2.324  23.040  14.866
73537W        W32798  24.650   7.403   3.349
73538W        W32799   4.207  38.391   2.385
73539W        W32800  21.636   2.842  10.967
73540W        W32801  42.923  42.011   2.195
73541W        W32802  37.527  37.474  11.611
73542W        W32803  43.450  15.091   4.194
73543W        W32804  40.485   7.290   4.738
73544W        W32805   8.876  37.047   2.379
73545W        W32806  37.580  23.044  14.284
73546W        W32807   1.341  10.774  14.775
73547W        W32808  28.118  21.566   1.696
73548W        W32809  18.141  43.767  12.404
73549W        W32810   6.755  33.569  10.453
73550W        W32811  10.771  22.578  13.449
73551W        W32812  41.320   3.247  14.398
73552W        W32813  37.476  40.973   2.827
73553W        W32814   2.458  39.022  12.029
73554W        W32815  36.474  43.835   2.817
73555W        W32816  10.209  29.972   1.433
73556W        W32817   1.448  35.905  10.591
73557W        W32818  11.203  32.003   9.971
73558W        W32819  27.195  12.694  10.538
73559W        W32820   7.856  24.600   3.355
73560W        W32821   8.731  14.328  13.355
73561W        W32822  25.030   3.726  13.463
73562W        W32823  44.830  27.120  12.997
73563W        W32824  32.963  33.970  10.492
73564W        W32825  41.038  14.749  14.824
73565W        W32826   0.455  26.502   1.369
73566W        W32827  32.440   6.321  11.450
73567W        W32828  44.481  21.113  12.419
73568W        W32829  12.692  43.815  12.520
73569W        W32830  18.184  41.902  14.824
73570W        W32831  26.994   0.304   1.915
73571W        W32832  35.587  35.107   2.708
73572W        W32833   5.269  10.248   4.148
73573W        W32834  29.976  43.390  14.934
73574W        W32835  36.578   4.284   2.817
73575W        W32836  16.298  23.037   2.701
73576W        W32837  41.334   9.235   4.295
73577W        W32838  26.167   4.749   4.212
73578W        W32839   9.644   0.462  14.442
73579W        W32840  19.615  17.738   1.421
73580W        W32841   5.416  10.254   1.278
73581W        W32842  21.021   6.208  14.399
73582W        W32843  15.701  11.237  12.056
73583W        W32844  19.189  23.560   3.299
73584W        W32845  21.516  17.211   4.304
73585W        W32846  10.380  26.083   2.244
73586W        W32847  37.392  31.430  11.488
73587W        W32848  39.846   3.940  13.360
73588W        W32849  34.063   7.860   0.352
73589W        W32850  10.669  15.748   0.287
73590W        W32851  25.610  14.102  10.899
73591W        W32852  29.037  44.388   0.345
73592W        W32853  41.991   0.895   4.174
73593W        W32854  43.897  40.493   2.808
73594W        W32855   2.373  38.861  12.912
73595W        W32856  34.090  27.060  14.496
73596W        W32857   0.436   9.167   2.179
73597W        W32858  40.376  18.238  11.078
73598W        W32859  37.833  25.099  13.948
73599W        W32860  19.546   1.314   4.813
73600W        W32861  41.510   8.190  12.977
73601W        W32862   2.442  39.867  13.953
73602W        W32863  18.687  27.579  11.858
73603W        W32864  10.653  15.596   1.882
73604W        W32865  33.957   0.747   0.921
73605W        W32866  20.698  17.161   3.206
73606W        W32867  35.966  35.939   3.259
73607W        W32868  22.686  30.059   4.763
73608W        W32869  38.398   0.404  14.299
73609W        W32870  34.518  22.145   2.329
73610W        W32871   2.940  26.104   0.960
73611W        W32872  41.898  18.095   0.818
73612W        W32873  19.746  32.904   4.694
73613W        W32874   5.824   4.812   0.799
73614W        W32875   0.353   9.681   2.854
73615W        W32876  44.823  36.429   3.724
73616W        W32877  33.946  19.164   2.206
73617W        W32878  21.714  13.243  14.302
73618W        W32879  33.577  31.014   4.660
73619W        W32880  16.614  38.058  13.960
73620W        W32881  24.595  28.085   2.701
73621W        W32882   7.735   3.253   3.277
73622W        W32883   1.821  25.550   1.750
73623W        W32884  19.556   8.767  12.964
73624W        W32885  34.433  19.631   3.807
73625W        W32886  30.919   6.696   3.800
73626W        W32887   7.701  41.330  11.920
73627W        W32888   7.857   2.313   4.633
73628W        W32889  13.298  33.609  14.962
73629W        W32890  14.668  26.495  11.564
73630W        W32891  32.922  25.220  10.409
73631W        W32892  16.697  32.408  12.484
73632W        W32893   6.350   8.690  13.365
73633W        W32894  39.883  22.654   4.270
73634W        W32895   8.280  12.162  14.922
73635W        W32896  40.931  36.406  13.977
73636W        W32897  26.011  40.516  12.954
73637W        W32898  27.150  38.821  14.819
73638W        W32899  24.184   2.327   0.308
73639W        W32900  27.626  27.038   4.327
73640W        W32901   1.258   3.804  10.556
73641W        W32902  16.296  20.639  10.489
73642W        W32903  43.948   0.955  14.481
73643W        W32904  44.925   3.716  12.962
73644W        W32905  32.083   6.426   4.199
73645W        W32906  13.272  23.619  13.909
73646W        W32907  15.699  22.711   3.343
73647W        W32908  35.086  26.070   4.203
73648W        W32909   5.820  41.852   3.792
73649W        W32910  28.930  38.324  14.384
73650W        W32911  11.291  35.995  11.088
73651W        W32912   6.877   9.743  12.502
73652W        W32913  36.376  33.119   0.467
73653W        W32914  22.548  20.662  11.429
73654W        W32915  12.326  18.658   4.321
73655W        W32916  34.498  15.729   1.318
73656W        W32917  17.715  17.706  11.034
73657W        W32918  14.332  13.321   1.718
73658W        W32919  23.036   0.967   4.115
73659W        W32920  28.596  32.457  13.887
73660W        W32921  23.551   2.724  11.450
73661W        W32922  12.698  44.379  10.522
73662W        W32923  11.134  21.732  12.916
73663W        W32924  30.010  38.549  11.391
73664W        W32925  11.197   1.473  12.572
73665W        W32926  44.458  18.138   4.659
73666W        W32927   6.868  12.722  13.064
73667W        W32928  41.902  29.526  11.400
73668W        W32929   1.833  17.581   2.880
73669W        W32930  39.009  44.294   0.285
73670W        W32931   3.904  44.890   2.824
73671W        W32932  17.102  29.954   3.655
73672W        W32933  31.463  26.025  11.509
73673W        W32934  24.522  18.100  10.456
73674W        W32935  36.916  33.588  14.980
73675W        W32936  42.320  43.369   1.226
73676W        W32937  30.925  39.023   1.260
73677W        W32938  15.745  20.235   4.217
73678W        W32939  29.999  10.235   0.342
73679W        W32940  18.681  36.499  11.484
73680W        W32941  37.897  43.915  12.517
73681W        W32942  38.834   0.925  10.550
73682W        W32943  21.724  40.397   0.748
73683W        W32944  14.289  31.116   0.323
73684W        W32945  11.293  43.287   4.626
73685W        W32946   5.194   2.720  12.397
73686W        W32947  23.676  11.719  11.567
73687W        W32948  17.655  44.487   2.358
73688W        W32949   1.817  30.442  12.438
73689W        W32950  30.604  44.943   0.822
73690W        W32951   9.202  10.690   2.664
73691W        W32952  32.103  36.010   2.305
73692W        W32953  42.821  41.444  14.418
73693W        W32954  21.024  34.570   2.373
73694W        W32955   9.278  22.713   3.846
73695W        W32956  16.683  43.897  12.038
73696W        W32957   0.878  17.674  14.829
73697W        W32958  32.057  27.124   1.251
73698W        W32959  16.724  39.553   3.849
73699W        W32960  33.578  17.783  12.027
73700W        W32961  44.970  16.109   3.690
73701W        W32962  41.985  42.282   2.400
73702W        W32963   2.303  34.446   9.999
73703W        W32964  22.011  18.229   4.212
73704W        W32965  11.163  26.193  10.434
73705W        W32966  37.523  44.942  14.420
73706W        W32967  28.043  13.626   4.122
73707W        W32968  11.287   8.329  12.924
73708W        W32969  16.243  37.579   0.907
73709W        W32970  31.964  42.930  14.450
73710W        W32971  28.947  37.067   4.837
73711W        W32972  30.580  32.446   3.189
73712W        W32973  11.228  24.546  14.348
73713W        W32974  40.997   4.806  13.852
73714W        W32975  44.862  41.361   1.319
73715W        W32976  11.306  20.744  14.403
73716W        W32977   7.198   1.381  13.843
73717W        W32978  26.172  10.346   0.875
73718W        W32979  24.680  31.634   0.245
73719W        W32980  25.124  41.850  11.874
73720W        W32981  21.568  26.503   2.355
73721W        W32982  24.512  41.911   4.252
73722W        W32983   6.214  22.672  13.469
73723W        W32984  27.452  41.307   2.280
73724W        W32985  40.916  14.694   4.833
73725W        W32986  22.625  13.629   3.823
73726W        W32987  36.587  16.773   1.396
73727W        W32988  42.510  18.210   1.344
73728W        W32989  35.890  28.595  13.373
73729W        W32990  33.414   6.416  13.321
73730W        W32991  42.856  34.519   3.833
73731W        W32992  40.835   8.254   3.780
73732W        W32993   1.408  42.031   2.692
73733W        W32994   2.381  11.153  11.510
73734W        W32995  14.621  38.062   4.815
73735W        W32996   0.346  32.901   1.907
73736W        W32997  18.056  36.429   0.392
73737W        W32998  16.781  13.644  10.989
73738W        W32999  19.565  26.603   0.812
73739W        W33000  33.080  37.847   3.239
73740W        W33001  25.063   9.784   0.865
73741W        W33002  24.059   3.944  12.349
73742W        W33003  12.732  31.115   1.345
73743W        W33004  22.998  26.505  14.840
73744W        W33005  24.093  40.473  13.021
73745W        W33006  32.522  33.988   3.858
73746W        W33007  15.694  25.703  11.530
73747W        W33008   9.291  11.291  12.392
73748W        W33009  36.554  14.590   1.870
73749W        W33010  15.184  25.681  12.382
73750W        W33011   2.828  20.633  12.345
73751W        W33012   3.799  28.094   4.674
73752W        W33013   8.327  20.612   1.280
73753W        W33014  17.156  11.627  13.897
73754W        W33015  31.958  42.333  11.889
73755W        W33016  26.993   2.461   3.178
73756W        W33017   7.893  28.102   9.998
73757W        W33018  28.482  14.728  11.440
73758W        W33019  36.541  20.548   2.691
73759W        W33020  30.525  20.717  12.857
73760W        W33021  11.680  33.403   3.867
73761W        W33022  13.282   8.247   3.217
73762W        W33023  15.309  39.828  10.435
73763W        W33024  35.051  18.708   1.402
73764W        W33025  32.571  33.964  14.011
73765W        W33026  40.847  16.276  14.004
73766W        W33027  44.374   0.279   2.743
73767W        W33028  36.047  41.369  14.400
73768W        W33029  24.203   5.762  12.998
73769W        W33030  40.923  10.168   0.475
73770W        W33031  40.325  11.127  10.130
73771W        W33032  38.845  41.477  13.527
73772W        W33033  40.858  17.167  13.415
73773W        W33034  18.726  26.954   4.635
73774W        W33035   0.860  22.729   3.707
73775W        W33036  16.243  12.856   1.283
73776W        W33037  13.673  43.451   3.800
73777W        W33038  23.713   6.697  12.579
73778W        W33039  40.511  35.088   1.868
73779W        W33040   7.898  21.730   1.777
73780W        W33041  29.164  10.796  11.510
73781W        W33042  24.227   7.730  13.902
73782W        W33043   8.374  10.728   2.385
73783W        W33044   3.820  12.736   9.993
73784W        W33045   8.874   8.725  13.026
73785W        W33046   7.836  31.437   4.140
73786W        W33047  43.471   8.859   0.751
73787W        W33048  22.733  31.453  12.878
73788W        W33049   1.313  27.139   0.436
73789W        W33050   3.338  42.477   0.409
73790W        W33051  19.684  17.681   5.596
73791W        W33052  17.061  19.078  13.841
73792W        W33053   5.220  32.592  10.457
73793W        W33054  31.948  35.853  14.870
73794W        W33055   3.301  35.857  14.898
73795W        W33056  39.519  37.937   0.248
73796W        W33057   0.382  20.679   1.760
73797W        W33058  26.678  33.471  14.767
73798W        W33059  44.929  12.761   1.315
73799W        W33060  22.017  26.189   2.350
73800W        W33061  14.266  21.674  14.429
73801W        W33062  22.201   1.403   2.358
73802W        W33063  33.939  36.549   1.805
73803W        W33064  35.904  36.073  12.965
73804W        W33065   3.357  42.809  11.565
73805W        W33066  33.993  17.201   3.650
73806W        W33067  13.655  23.109  10.438
73807W        W33068  28.620  33.939  11.882
73808W        W33069  16.208  44.844  14.983
73809W        W33070  27.959  11.223   2.698
73810W        W33071  18.574  10.873  14.493
73811W        W33072  23.166  22.251   0.318
73812W        W33073  31.598  32.600  10.633
73813W        W33074  11.630   3.314  14.794
73814W        W33075  28.179  42.949   0.466
73815W        W33076   7.853   4.316   0.737
73816W        W33077  44.494   5.794  10.585
73817W        W33078  16.163  12.820  11.498
73818W        W33079  18.584  29.066   3.732
73819W        W33080  37.018  20.145   0.927
73820W        W33081  19.640  16.133  10.911
73821W        W33082  19.546  28.142  12.416
73822W        W33083  43.406   9.848  13.872
73823W        W33084  33.053  14.707   2.797
73824W        W33085   6.308  27.501  12.468
73825W        W33086   7.387  18.165   1.732
73826W        W33087  29.504   6.400   1.909
73827W        W33088  33.613  23.216   2.294
73828W        W33089  31.452  37.579  12.922
73829W        W33090  35.963  30.566  11.476
73830W        W33091   4.443  40.526  12.844
73831W        W33092   7.323  12.742   1.841
73832W        W33093  19.274  25.153   2.861
73833W        W33094   8.222  18.101   0.807
73834W        W33095  43.873  27.080   3.675
73835W        W33096  33.087  26.603  14.931
73836W        W33097  43.321  33.878  10.423
73837W        W33098   1.301  11.680  10.589
73838W        W33099  22.581  36.976   1.904
73839W        W33100  14.111  31.089  14.310
73840W        W33101  15.251  40.485   0.768
73841W        W33102  13.201  15.204   0.446
73842W        W33103  12.159  12.849   2.715
73843W        W33104  32.011  30.074   1.909
73844W        W33105   6.870  39.873  14.832
73845W        W33106  29.440   6.425   0.856
73846W        W33107  37.402  27.197   3.375
73847W        W33108  18.121   1.768  12.887
73848W        W33109  22.738  37.910  12.867
73849W        W33110  40.403  34.012   2.415
73850W        W33111  26.683  19.096  12.444
73851W        W33112  20.125   6.297  13.489
73852W        W33113   9.309  26.643   1.918
73853W        W33114  12.810  36.495  11.116
73854W        W33115  13.252  13.696  12.408
73855W        W33116  39.373  30.949  13.402
73856W        W33117  39.515  24.684   0.251
73857W        W33118  10.672  30.646  14.849
73858W        W33119   6.840  26.071  12.860
73859W        W33120  36.572   3.827   4.696
73860W        W33121  40.411  39.815  14.938
73861W        W33122  10.800  18.284  11.068
73862W        W33123  30.908  19.583  10.081
73863W        W33124  15.085  27.967   3.262
73864W        W33125   4.876  39.352   1.437
73865W        W33126   7.220  25.619   3.147
73866W        W33127  41.902  10.324  10.556
73867W        W33128  44.355   8.363  11.952
73868W        W33129   8.666  17.140   1.297
73869W        W33130  26.131  11.623   0.752
73870W        W33131   6.818  19.730  13.502
73871W        W33132  41.924  41.386  10.906
73872W        W33133   2.877  35.539  12.063
73873W        W33134  41.467  34.383  12.878
73874W        W33135  36.570  20.122   0.905
73875W        W33136   5.727  34.556  12.549
73876W        W33137  38.429  38.839   4.235
73877W        W33138   7.751   5.723  10.055
73878W        W33139   6.684  36.855  10.480
73879W        W33140   7.724  39.018  12.557
73880W        W33141   6.217  22.555   4.201
73881W        W33142  41.416  18.583  14.767
73882W        W33143  23.515   7.178   1.717
73883W        W33144   5.325  23.539  12.565
73884W        W33145   7.665  20.251  14.382
73885W        W33146  36.421  16.614  12.872
73886W        W33147  44.455  31.065  14.494
73887W        W33148  15.121  43.359  12.419
73888W        W33149  42.843  44.808   0.924
73889W        W33150  26.498  40.987   3.326
73890W        W33151  31.989   1.844   3.276
73891W        W33152  17.740  22.077   4.764
73892W        W33153  38.521  10.712   0.326
73893W        W33154   2.868  34.918   2.180
73894W        W33155  43.276  34.970   1.210
73895W        W33156  27.078  40.830   4.735
73896W        W33157  17.619   6.807  12.960
73897W        W33158  38.044  37.897  11.990
73898W        W33159  22.586  42.835  13.435
73899W        W33160   3.454  31.132  14.423
73900W        W33161  24.719  38.361   0.883
73901W        W33162  37.366  23.644   3.334
73902W        W33163   1.741  21.743  12.358
73903W        W33164  31.641   0.471  12.529
73904W        W33165  27.177  25.673  13.450
73905W        W33166   6.703  44.404  12.899
73906W        W33167  38.471   8.692  14.399
73907W        W33168  21.665  24.213  11.869
73908W        W33169  34.384   6.255   2.832
73909W        W33170  33.048  43.354   1.781
73910W        W33171  33.918  40.841  11.483
73911W        W33172  42.902  23.096  13.524
73912W        W33173  28.052  33.562  14.440
73913W        W33174  36.533  13.186  10.546
73914W        W33175  25.171  22.558  13.404
73915W        W33176  24.031  18.554  12.537
73916W        W33177   0.423  26.532   0.430
73917W        W33178  30.637  44.956   0.258
73918W        W33179  15.822  34.408   2.797
73919W        W33180  25.008  34.091   0.946
73920W        W33181   5.930  35.518   4.259
73921W        W33182  29.031  34.456  10.961
73922W        W33183  42.282  32.479  14.291
73923W        W33184   4.221  43.386   1.849
73924W        W33185  22.656  22.025   2.679
73925W        W33186  38.440  28.507  13.490
73926W        W33187  32.034  43.492   0.469
73927W        W33188  34.596   4.234   3.175
73928W        W33189  24.619  37.951  12.553
73929W        W33190  13.806  21.754   2.793
73930W        W33191  35.441  42.410   4.120
73931W        W33192  32.579   3.360  12.420
73932W        W33193  22.559  24.591   4.670
73933W        W33194  39.917  23.724   5.316
73934W        W33195  27.500  14.775   1.249
73935W        W33196  22.016   7.385   2.264
73936W        W33197  35.599  29.641   3.716
73937W        W33198  12.176   4.412  14.771
73938W        W33199  26.132  30.920   3.204
73939W        W33200  16.724  30.002   0.385
73940W        W33201  22.078  22.516  10.636
73941W        W33202   9.221  42.425   3.680
73942W        W33203  44.997  18.688  14.289
73943W        W33204  35.056  11.223  11.390
73944W        W33205  23.215  21.548   4.345
73945W        W33206  43.297   2.846  14.366
73946W        W33207   0.815  35.537   4.207
73947W        W33208  20.541  37.848  11.061
73948W        W33209  42.438   8.755  14.835
73949W        W33210   8.161  11.854  10.464
73950W        W33211  13.197  19.261   2.191
73951W        W33212   5.263  20.043  14.023
73952W        W33213  34.085   5.271   4.681
73953W        W33214   1.391   6.201  12.441
73954W        W33215  29.051  19.059   4.240
73955W        W33216  23.078   9.654  10.636
73956W        W33217  20.652   6.349  13.546
73957W        W33218   2.430  27.554   3.262
73958W        W33219  12.163   8.705  13.446
73959W        W33220  13.814   9.773   3.704
73960W        W33221  17.580  17.072  10.956
73961W        W33222   9.374  10.757  12.491
73962W        W33223  28.987  31.146  13.965
73963W        W33224  15.279  35.867   1.373
73964W        W33225   9.760  44.786  10.950
73965W        W33226  19.119  30.460  10.538
73966W        W33227  30.030  18.230   3.756
73967W        W33228   5.230  31.111  13.898
73968W        W33229  38.038  38.963   2.391
73969W        W33230   7.760  25.561   1.323
73970W        W33231  37.017  25.007   0.475
73971W        W33232  17.281  21.166   2.903
73972W        W33233  24.587  41.429  11.933
73973W        W33234  33.044  16.626   2.329
73974W        W33235  30.600   0.322  12.975
73975W        W33236  35.424  19.262  13.921
73976W        W33237   0.391  33.053   2.793
73977W        W33238  35.588  39.894   0.405
73978W        W33239  32.085  42.938  13.512
73979W        W33240  13.772  11.695  12.531
73980W        W33241  32.995  27.960  13.808
73981W        W33242  14.278   6.328  12.946
73982W        W33243  20.120  35.378  10.580
73983W        W33244  20.222  36.374  11.949
73984W        W33245  18.561  43.310  10.988
73985W        W33246  34.920  39.528   4.264
73986W        W33247  14.197  17.111  11.528
73987W        W33248   1.258  19.248   4.245
73988W        W33249  40.375  12.748   9.991
73989W        W33250   4.441   1.404   3.290
73990W        W33251  27.485  39.489   2.858
73991W        W33252  33.446  31.442   4.144
73992W        W33253  32.071   2.297  14.415
73993W        W33254  36.003  11.251   3.339
73994W        W33255  38.045  26.468  13.538
73995W        W33256   9.167  29.003   4.164
73996W        W33257  21.063   3.897   0.775
73997W        W33258  13.689  19.618   2.379
73998W        W33259  34.441  42.315  11.381
73999W        W33260  14.755  28.582  14.798
74000W        W33261  32.072  23.097  11.608
74001W        W33262  30.515   0.368   2.716
74002W        W33263  28.574   4.348  13.966
74003W        W33264  39.406  32.449   2.848
74004W        W33265  42.376  30.978  14.967
74005W        W33266  12.164  43.438   4.801
74006W        W33267  27.973  37.061  12.485
74007W        W33268  26.077  13.713   3.647
74008W        W33269  44.888  25.019   1.223
74009W        W33270  33.500  22.533  13.368
74010W        W33271   0.378   4.358   3.709
74011W        W33272   0.902  35.905   4.322
74012W        W33273  33.545  25.583   3.276
74013W        W33274   4.737  44.929  14.949
74014W        W33275  33.953  21.539   1.896
74015W        W33276  17.113  36.962   0.737
74016W        W33277  44.926  26.202  13.384
74017W        W33278  36.531  44.898   0.941
74018W        W33279  39.543  35.553  13.794
74019W        W33280   0.458  39.987  13.913
74020W        W33281  31.082   1.352  13.515
74021W        W33282  32.536  14.336   3.850
74022W        W33283  28.648  19.098   0.726
74023W        W33284  23.187   8.371  14.403
74024W        W33285  40.919  41.950  14.493
74025W        W33286  32.484  34.045   1.717
74026W        W33287  44.334  25.690   2.368
74027W        W33288  30.433  30.076  10.991
74028W        W33289  30.610  21.057   0.455
74029W        W33290  37.920  17.764  11.025
74030W        W33291   6.391  43.780   0.364
74031W        W33292   4.921  35.377   2.321
74032W        W33293  35.401   9.353   9.941
74033W        W33294  41.309  14.711  13.527
74034W        W33295  43.985  25.657  10.570
74035W        W33296  11.331  42.821  12.865
74036W        W33297  12.218  30.944   1.851
74037W        W33298  39.354  11.368  11.436
74038W        W33299  40.817  11.719  11.464
74039W        W33300  14.820  29.095  14.961
74040W        W33301  44.407   0.481   0.479
74041W        W33302  13.817  19.234  13.441
74042W        W33303  15.802  20.523  12.983
74043W        W33304   3.242  38.966  13.444
74044W        W33305  39.882   7.721   2.673
74045W        W33306  29.112  10.179   0.942
74046W        W33307   6.289  17.260   3.855
74047W        W33308   4.809  30.154   0.932
74048W        W33309   4.311  12.230   1.854
74049W        W33310  37.985   8.317   2.271
74050W        W33311  23.089  37.377  12.911
74051W        W33312   4.824  10.786   3.677
74052W        W33313  10.733  16.205  11.977
74053W        W33314  27.103  13.170   4.115
74054W        W33315  22.672  17.561   0.379
74055W        W33316  31.455   8.258   3.324
74056W        W33317  22.550  32.123   1.285
74057W        W33318   7.894  39.965  14.968
74058W        W33319  16.800  29.159   0.437
74059W        W33320  39.428  42.886   4.721
74060W        W33321  15.723  35.010   5.092
74061W        W33322  21.231  13.811  14.296
74062W        W33323  23.551  32.070   0.452
74063W        W33324  40.984  31.995   3.826
74064W        W33325  39.527  25.148  12.839
74065W        W33326   2.948  35.418  11.404
74066W        W33327  34.593  22.538  12.426
74067W        W33328   7.715  38.002   3.665
74068W        W33329  30.428   2.745   3.727
74069W        W33330  33.557   0.794   0.465
74070W        W33331  28.121   7.805  13.403
74071W        W33332  16.161  13.218   2.211
74072W        W33333  13.844  26.039   4.772
74073W        W33334  14.245  37.353   2.310
74074W        W33335  12.611  25.026  12.515
74075W        W33336  37.985  13.121  11.480
74076W        W33337   5.865   6.695   0.409
74077W        W33338  41.988  27.153   1.436
74078W        W33339  28.105  22.075  13.838
74079W        W33340   8.858   4.826   9.599
74080W        W33341   8.685  24.608  12.446
74081W        W33342  19.181   7.199  12.520
74082W        W33343  34.507  34.421  12.579
74083W        W33344  34.866  11.347   1.436
74084W        W33345  23.035  20.739   3.791
74085W        W33346  26.093   4.345  11.865
74086W        W33347  40.377  25.667  11.555
74087W        W33348  23.554  26.475  14.931
74088W        W33349  23.493  39.937  11.549
74089W        W33350  20.099  20.677   5.086
74090W        W33351  32.894  11.315  13.544
74091W        W33352  21.080  43.413  12.001
74092W        W33353  27.521  26.630  12.992
74093W        W33354  26.121   3.377   1.706
74094W        W33355  12.771   6.401  13.544
74095W        W33356  35.491  34.548  13.055
74096W        W33357  23.237  36.549   1.442
74097W        W33358  22.162  15.605   0.281
74098W        W33359   7.333  15.642   2.747
74099W        W33360  40.544  37.015  14.868
74100W        W33361  13.208  13.169  11.107
74101W        W33362  29.451  13.819   3.807
74102W        W33363   3.805  24.678   1.732
74103W        W33364  41.029  20.065  13.521
74104W        W33365  30.943  23.620  13.522
74105W        W33366  10.765   9.265  12.021
74106W        W33367  25.651  27.994  12.472
74107W        W33368  41.472  33.525   1.803
74108W        W33369  38.827  15.254   3.249
74109W        W33370   6.701  10.248   1.846
74110W        W33371  30.942  20.734   1.289
74111W        W33372  33.464   5.386  13.541
74112W        W33373  11.846   4.882  14.881
74113W        W33374  21.567   4.337   3.761
74114W        W33375  23.216  18.639   0.450
74115W        W33376  12.786  17.240  11.016
74116W        W33377   1.824  36.514  11.509
74117W        W33378  41.884   9.266   4.292
74118W        W33379  13.681  33.998  14.275
74119W        W33380  25.003  10.312  10.905
74120W        W33381  13.209  20.262   1.711
74121W        W33382   7.349  31.129   0.458
74122W        W33383  15.107  13.150  11.524
74123W        W33384  27.007   3.734   5.246
74124W        W33385  37.531  33.399  14.349
74125W        W33386  19.653  12.282   4.336
74126W        W33387   6.411   4.301   4.298
74127W        W33388   6.757  18.280   3.254
74128W        W33389  10.866  38.386   1.826
74129W        W33390  27.613   1.241  14.422
74130W        W33391  11.747  16.671   4.352
74131W        W33392  25.198  40.850  11.955
74132W        W33393   4.784  40.909   1.919
74133W        W33394   5.812  16.233  12.469
74134W        W33395  18.119  30.990   0.431
74135W        W33396  41.441  24.109   1.786
74136W        W33397  31.027   4.745   1.312
74137W        W33398  42.504  21.232  14.013
74138W        W33399  30.979   5.281   4.217
74139W        W33400  39.329   7.350   4.787
74140W        W33401  14.623  31.503   4.756
74141W        W33402  30.911   8.668  10.945
74142W        W33403  10.875  28.934   3.325
74143W        W33404  34.023   2.306   0.879
74144W        W33405  12.761  36.357   1.387
74145W        W33406  26.694   0.809  14.371
74146W        W33407  33.612  36.892  11.045
74147W        W33408  28.486  41.485   3.779
74148W        W33409  34.593  43.878   0.243
74149W        W33410  42.843  34.063   3.347
74150W        W33411  14.148  25.007   1.400
74151W        W33412  33.875  17.572   1.370
74152W        W33413   3.360   5.286  10.066
74153W        W33414  15.660  21.725   3.296
74154W        W33415  35.459   0.295   1.752
74155W        W33416  38.410  43.831   4.265
74156W        W33417  38.325   1.311   2.308
74157W        W33418  15.153   4.227  14.483
74158W        W33419  24.584   4.838  11.405
74159W        W33420   4.257  22.581  10.544
74160W        W33421  37.912  16.096  13.855
74161W        W33422  10.645  40.498   1.858
74162W        W33423  22.194  37.560  14.283
74163W        W33424  16.722  14.819   2.750
74164W        W33425   9.797   1.931  11.556
74165W        W33426   4.740   7.185  11.605
74166W        W33427  41.448   6.802  13.411
74167W        W33428   2.238  37.036   1.227
74168W        W33429  28.975  38.434   3.237
74169W        W33430  11.198  19.102   0.790
74170W        W33431  15.805  15.231  12.091
74171W        W33432   1.307  35.904  12.573
74172W        W33433   1.909  10.755  13.370
74173W        W33434  37.023   9.665   4.269
74174W        W33435  23.078  33.389   4.160
74175W        W33436  16.281  24.589   0.454
74176W        W33437  21.060   0.375   4.710
74177W        W33438  12.693  13.658  10.556
74178W        W33439  13.791   0.844  12.987
74179W        W33440  23.147  30.562   5.262
74180W        W33441  42.827  22.538   1.871
74181W        W33442  21.657  13.717   2.855
74182W        W33443  21.195  10.637  10.610
74183W        W33444  11.715  17.681  14.503
74184W        W33445  29.455  33.519  13.530
74185W        W33446  35.602   1.974  13.971
74186W        W33447  16.184  32.407   2.322
74187W        W33448  15.587  15.578  12.493
74188W        W33449  39.426  28.978   4.248
74189W        W33450  44.346  25.555  12.896
74190W        W33451  10.355   8.364  14.032
74191W        W33452  17.699  40.503  12.519
74192W        W33453  29.977  33.398   4.684
74193W        W33454   4.436   5.793   3.710
74194W        W33455  41.393  20.206  12.070
74195W        W33456  17.672  23.139   1.260
74196W        W33457   2.237  14.771  12.370
74197W        W33458  18.632   9.226  12.456
74198W        W33459   8.315  23.524   0.315
74199W        W33460  15.785  13.743  11.552
74200W        W33461  28.068  21.708   3.785
74201W        W33462  27.152  44.864   2.229
74202W        W33463  12.687  25.569  11.955
74203W        W33464   2.921  21.729  13.846
74204W        W33465   0.765   5.199  10.542
74205W        W33466  31.554  19.760  12.554
74206W        W33467  35.872  26.119   1.861
74207W        W33468  44.470  42.287   1.708
74208W        W33469  15.677  24.979  13.965
74209W        W33470   9.159  32.993  13.823
74210W        W33471   8.213  28.680   0.848
74211W        W33472  32.999  16.675  12.498
74212W        W33473  29.973  24.721   1.710
74213W        W33474   9.805  33.086   3.292
74214W        W33475  17.702  11.740  14.466
74215W        W33476  37.432  28.438   2.684
74216W        W33477   8.245   8.244  13.888
74217W        W33478  13.697  27.682  11.941
74218W        W33479  32.577  27.166  13.513
74219W        W33480  10.862  36.572   1.297
74220W        W33481  15.294  20.752  12.063
74221W        W33482  42.485  17.116  14.023
74222W        W33483   8.897  28.662   0.914
74223W        W33484  44.261  11.829   5.134
74224W        W33485  42.469  39.351  14.967
74225W        W33486  19.276  18.784   2.273
74226W        W33487  26.581  31.038  13.836
74227W        W33488  25.095  29.068   2.229
74228W        W33489   0.442  35.887   3.667
74229W        W33490  38.883  32.429   2.773
74230W        W33491  25.984  42.339  13.990
74231W        W33492  40.963   7.320   4.668
74232W        W33493  29.598  35.951  13.386
74233W        W33494   2.280  38.435  14.322
74234W        W33495   1.744   6.223  13.899
74235W        W33496  24.649  34.564  14.292
74236W        W33497  10.860  34.571  12.546
74237W        W33498  27.984  30.117   0.967
74238W        W33499  26.594  38.984   2.835
74239W        W33500  39.055  16.804  10.019
74240W        W33501   1.254   2.431  12.986
74241W        W33502   8.211  30.141   3.669
74242W        W33503  10.853  29.564  13.840
74243W        W33504  10.192  13.800   2.376
74244W        W33505  44.319  18.244  11.915
74245W        W33506  34.614   4.785  14.851
74246W        W33507  21.044   2.871  13.020
74247W        W33508  30.076  31.592   0.276
74248W        W33509  29.067  33.925   2.703
74249W        W33510  30.426  13.197  11.944
74250W        W33511  26.610  38.408   1.438
74251W        W33512  22.007  18.122  10.410
74252W        W33513  31.920  25.131   4.786
74253W        W33514   2.920  20.654  13.345
74254W        W33515  28.580  34.395   1.768
74255W        W33516  20.233   4.892  11.025
74256W        W33517  41.309   0.374  12.887
74257W        W33518  33.463  44.876   2.859
74258W        W33519  19.711  28.580   2.206
74259W        W33520   2.919  18.597  13.867
74260W        W33521  42.961  26.649  10.499
74261W        W33522  34.017   4.889   1.405
74262W        W33523  39.880  34.034  11.965
74263W        W33524  31.456  28.081   1.414
74264W        W33525  32.615  42.282  11.004
74265W        W33526  42.902   7.332  14.952
74266W        W33527  36.543  29.582  14.503
74267W        W33528  23.673  44.491   1.817
74268W        W33529  20.175   6.676   0.813
74269W        W33530   0.250  10.713   0.274
74270W        W33531  23.612   2.443  12.046
74271W        W33532  21.121  31.110  11.570
74272W        W33533  38.519  42.393   1.914
74273W        W33534   9.645  22.501  12.435
74274W        W33535  32.110   1.265  14.921
74275W        W33536  13.640  44.978  11.490
74276W        W33537  42.776  17.131   1.770
74277W        W33538  15.128  10.872  10.956
74278W        W33539  11.687  12.213  11.081
74279W        W33540  34.431  40.333   0.467
74280W        W33541  17.130  42.873  14.813
74281W        W33542  10.794  16.146  12.405
74282W        W33543   5.234  35.391  14.888
74283W        W33544   8.356  44.444  10.112
74284W        W33545  27.107  14.795   1.878
74285W        W33546  43.485  36.571   0.846
74286W        W33547   1.248   7.399  11.908
74287W        W33548  30.100  23.189   3.726
74288W        W33549  10.837  19.655   2.319
74289W        W33550   8.877  19.051   3.636
74290W        W33551  11.291  37.425  12.031
74291W        W33552  43.840  43.957  13.449
74292W        W33553   4.734  34.873  11.073
74293W        W33554  40.501   4.295   4.647
74294W        W33555  41.407   8.170   0.349
74295W        W33556  43.905  24.022  13.798
74296W        W33557  31.976   1.373   0.262
74297W        W33558  12.781  35.420  13.443
74298W        W33559   6.260  43.911  11.478
74299W        W33560  43.331  40.014   2.257
74300W        W33561  26.039  33.038   2.844
74301W        W33562  16.685   9.816   1.302
74302W        W33563  26.163  39.910   4.726
74303W        W33564   2.822  33.415   2.689
74304W        W33565  27.612  42.405   4.246
74305W        W33566  16.716  34.396   3.271
74306W        W33567  37.959  15.628  13.491
74307W        W33568  16.198  26.014   1.815
74308W        W33569  37.076  43.379   3.358
74309W        W33570  39.975  18.110   5.141
74310W        W33571  39.902  18.225   1.331
74311W        W33572  16.150  17.761   0.356
74312W        W33573  39.846  15.637  10.422
74313W        W33574  33.608  19.628  14.954
74314W        W33575   6.310  32.403   4.720
74315W        W33576  12.712  29.611   4.175
74316W        W33577  18.166  34.985   4.325
74317W        W33578  25.980  24.187  11.995
74318W        W33579  35.997  37.844   0.449
74319W        W33580  26.572   7.353  10.555
74320W        W33581  40.830  10.180  11.081
74321W        W33582  31.595  15.752   2.785
74322W        W33583  34.997  12.643   0.301
74323W        W33584  32.027  38.865  14.316
74324W        W33585   5.918  17.783  13.840
74325W        W33586  37.077  10.733  12.889
74326W        W33587  40.861  32.543  10.945
74327W        W33588   4.426   0.862   1.840
74328W        W33589   9.205  12.258  13.398
74329W        W33590  40.434   4.831   3.156
74330W        W33591  42.967  20.184  11.858
74331W        W33592   0.857  13.292  14.855
74332W        W33593  20.102  27.128   4.604
74333W        W33594  38.024  23.600  10.593
74334W        W33595  44.265  14.672  11.557
74335W        W33596   2.412  17.168  13.837
74336W        W33597  17.680  14.810  13.991
74337W        W33598  31.456  38.019  10.440
74338W        W33599  36.486  30.078   4.783
74339W        W33600   9.869  35.094   1.805
74340W        W33601  33.039  42.965  12.448
74341W        W33602  26.679  27.495  12.367
74342W        W33603  41.796  26.010  13.930
74343W        W33604  23.106  44.869   1.224
74344W        W33605  24.650  14.169  12.558
74345W        W33606  14.792  26.146   0.293
74346W        W33607   3.337  21.546  11.946
74347W        W33608  18.705  19.089  14.849
74348W        W33609  24.986   0.797  11.510
74349W        W33610   3.233  37.905   2.901
74350W        W33611  41.033  16.166  12.091
74351W        W33612   5.909  17.723  14.817
74352W        W33613  26.093  10.687   0.342
74353W        W33614   7.342  41.966   4.795
74354W        W33615   9.180  25.157   3.812
74355W        W33616  21.084  15.153   4.634
74356W        W33617  14.335  18.717   2.725
74357W        W33618  33.550   6.704   3.684
74358W        W33619  35.941   5.925  13.953
74359W        W33620  15.694  40.976   1.832
74360W        W33621  19.051  29.153   3.194
74361W        W33622  39.328  21.630   4.242
74362W        W33623  11.835  29.008   4.299
74363W        W33624  24.140  28.006   2.832
74364W        W33625   7.385  15.594  12.508
74365W        W33626  18.107  42.404   2.692
74366W        W33627  17.798  14.168   4.626
74367W        W33628  15.231  18.064  13.315
74368W        W33629  41.396  41.850   3.246
74369W        W33630  17.193  37.339   2.227
74370W        W33631  38.488  41.828   2.269
74371W        W33632   8.847  29.507  11.010
74372W        W33633  29.536  15.804   4.133
74373W        W33634  33.465  38.408  13.916
74374W        W33635   6.336  33.053   2.261
74375W        W33636  38.452  26.162  11.873
74376W        W33637  12.799  10.836   0.772
74377W        W33638   6.759   3.402  10.083
74378W        W33639  10.704   9.209   1.933
74379W        W33640  16.105  42.501   0.411
74380W        W33641  28.562   7.396   1.736
74381W        W33642  30.413   3.411  14.356
74382W        W33643   5.297  11.734  14.829
74383W        W33644  13.139   3.732   0.315
74384W        W33645  18.742  17.238   3.171
74385W        W33646  32.975   0.923  14.833
74386W        W33647  11.636  19.154  13.486
74387W        W33648  10.321  11.825   1.798
74388W        W33649   2.882  30.574  14.953
74389W        W33650  31.479  14.240  13.919
74390W        W33651  34.375  27.973   4.345
74391W        W33652  32.617  28.544   2.400
74392W        W33653  13.811  38.407  13.029
74393W        W33654   2.327  20.694   3.158
74394W        W33655  28.438  25.194   4.330
74395W        W33656  20.643  21.676  13.939
74396W        W33657  18.752  16.252  11.931
74397W        W33658   9.284   4.793  14.864
74398W        W33659   9.282  20.158   0.882
74399W        W33660  20.248   3.910  11.543
74400W        W33661   5.267  30.939  10.442
74401W        W33662   1.798  17.071  12.967
74402W        W33663   6.822  17.644  14.968
74403W        W33664   6.902  31.512   0.818
74404W        W33665  41.470  37.368   4.225
74405W        W33666  42.370   0.388   0.941
74406W        W33667  25.526  34.938   0.372
74407W        W33668  29.946   3.392   4.115
74408W        W33669   9.723  29.116  12.420
74409W        W33670  23.028  33.937  13.886
74410W        W33671  44.396   3.935   2.686
74411W        W33672  16.197  36.865   4.266
74412W        W33673  28.583  34.567   0.413
74413W        W33674  28.020  17.687  10.922
74414W        W33675  27.970   3.805   2.397
74415W        W33676   8.678  12.180   4.748
74416W        W33677   0.488  29.463  12.872
74417W        W33678  20.194  10.785   2.738
74418W        W33679  31.973  40.474  13.444
74419W        W33680  21.138  13.815   4.337
74420W        W33681  13.756  29.509  11.547
74421W        W33682  15.206  29.647  13.462
74422W        W33683  31.111  39.921  12.960
74423W        W33684  19.193  28.166  12.998
74424W        W33685  12.721  43.407   0.775
74425W        W33686  29.989   2.770   9.563
74426W        W33687   3.788  27.447   0.758
74427W        W33688  39.960  19.080  12.508
74428W        W33689   4.346  40.475   4.814
74429W        W33690  29.455  38.402   3.727
74430W        W33691  28.144  41.918  12.077
74431W        W33692  16.185  42.328  13.058
74432W        W33693   5.727  10.757   2.780
74433W        W33694  38.431  17.240  11.919
74434W        W33695   3.272  23.131   3.161
74435W        W33696  10.814  10.766   2.354
74436W        W33697  13.227  30.096   3.324
74437W        W33698  16.591  18.135   1.798
74438W        W33699  39.459  20.270   4.234
74439W        W33700   9.170  27.649  12.385
74440W        W33701  32.564  22.132   2.901
74441W        W33702   8.836  41.382   3.804
74442W        W33703   5.733  41.990   1.436
74443W        W33704  15.664  35.875   4.300
74444W        W33705  36.480  33.584  13.426
74445W        W33706   0.796  31.641   4.181
74446W        W33707  23.585  11.338  14.864
74447W        W33708  18.281  18.710  10.951
74448W        W33709  15.690  17.081  13.971
74449W        W33710  16.136  19.177  14.334
74450W        W33711  38.549  35.367   2.232
74451W        W33712  14.153  42.374  12.922
74452W        W33713   2.470   0.970  14.932
74453W        W33714   2.264  39.979  14.867
74454W        W33715   4.796  17.673   4.612
74455W        W33716  18.092  16.653  13.819
74456W        W33717  14.705  32.937   3.785
74457W        W33718  36.942  21.201   0.467
74458W        W33719  29.975  26.673   2.334
74459W        W33720  10.301  27.177  11.975
74460W        W33721  31.143   1.452  14.467
74461W        W33722  33.600   0.304  11.988
74462W        W33723  21.607  34.411  10.915
74463W        W33724  34.064  37.079  11.562
74464W        W33725  29.999  40.405   0.300
74465W        W33726   1.842  34.400  11.434
74466W        W33727  33.599  26.530  14.322
74467W        W33728  26.490   7.259   2.268
74468W        W33729  25.219  14.765  12.455
74469W        W33730   2.782   5.246   2.879
74470W        W33731  11.180   1.901  11.121
74471W        W33732  23.026   0.814   0.243
74472W        W33733  14.140  27.167   2.349
74473W        W33734  30.576  42.832  12.856
74474W        W33735  40.033  43.270  11.997
74475W        W33736  22.525  44.325   3.773
74476W        W33737  43.327  30.470   4.711
74477W        W33738  37.016  39.010  12.381
74478W        W33739  36.026   2.744   1.770
74479W        W33740  14.325  26.117  13.418
74480W        W33741  44.839   6.772   4.275
74481W        W33742  12.763  22.223   4.618
74482W        W33743  34.068  42.355  14.007
74483W        W33744  14.172  24.657  14.447
74484W        W33745  36.576  24.624  12.522
74485W        W33746  41.405   8.679   4.142
74486W        W33747  44.384  27.449  13.060
74487W        W33748   7.740  28.599   3.713
74488W        W33749  28.667  14.644  11.056
74489W        W33750  17.306  40.338   1.844
74490W        W33751   8.742   8.202  13.350
74491W        W33752  14.794  18.666  12.355
74492W        W33753   2.414   9.788   3.387
74493W        W33754  33.520  41.303  11.613
74494W        W33755   6.871  33.050   1.876
74495W        W33756  32.570  35.993   0.940
74496W        W33757  41.368  44.897  10.516
74497W        W33758  34.452   1.771   3.248
74498W        W33759  37.435  26.548   0.433
74499W        W33760  42.431  20.664  14.963
74500W        W33761  25.495  34.515  14.359
74501W        W33762  15.179  37.998  13.000
74502W        W33763  19.737  27.198   4.688
74503W        W33764  15.708  10.869   0.312
74504W        W33765  38.567  11.323  11.385
74505W        W33766   1.382   1.237   1.407
74506W        W33767   0.887  25.003   9.960
74507W        W33768  14.246  14.115  14.434
74508W        W33769   0.387  17.256  10.889
74509W        W33770   7.412  35.077   4.647
74510W        W33771  34.460   9.280   4.781
74511W        W33772   7.844  22.537   1.785
74512W        W33773  18.748  40.338  14.452
74513W        W33774  27.594  18.081   0.396
74514W        W33775  13.221   3.284   2.759
74515W        W33776  16.186  11.337  11.547
74516W        W33777  44.357  37.533  12.489
74517W        W33778   1.882  36.410   3.215
74518W        W33779   1.405  30.441   1.397
74519W        W33780  41.923  16.721  10.139
74520W        W33781  35.564  31.593   4.672
74521W        W33782  28.038  42.331  11.522
74522W        W33783  15.137  10.733  10.577
74523W        W33784  41.419  32.977  13.830
74524W        W33785  33.055  14.195   2.386
74525W        W33786   8.832  35.103   3.716
74526W        W33787  22.206   9.150  14.347
74527W        W33788   4.350  38.946  13.916
74528W        W33789   4.710   9.806  11.521
74529W        W33790  13.198  39.845   3.177
74530W        W33791  38.380  15.730  10.412
74531W        W33792  20.609  21.609   1.897
74532W        W33793  29.643  10.259  14.373
74533W        W33794  26.536  22.148  14.969
74534W        W33795  41.982  21.729  12.890
74535W        W33796   7.815  13.821  14.507
74536W        W33797  14.159   5.855   5.234
74537W        W33798   1.281  11.209   0.424
74538W        W33799  38.956  17.307   0.788
74539W        W33800  15.757  29.123   3.841
74540W        W33801  36.506  27.585  11.473
74541W        W33802  17.187   4.940   0.463
74542W        W33803   0.869   3.937   3.209
74543W        W33804  17.752  14.127  14.354
74544W        W33805   6.424  14.173   3.651
74545W        W33806  27.575  33.509   1.255
74546W        W33807  43.947  35.575   2.843
74547W        W33808  35.861  14.684   4.745
74548W        W33809  37.839  16.144   4.787
74549W        W33810  31.410  11.196   1.403
74550W        W33811  42.402  44.004  12.996
74551W        W33812   6.685  11.287  11.096
74552W        W33813  14.122  37.901   4.227
74553W        W33814  44.505  18.766   1.809
74554W        W33815  36.891   9.870   1.415
74555W        W33816  22.669  37.071   0.476
74556W        W33817  16.233  19.145   1.335
74557W        W33818  41.499  37.477   1.877
74558W        W33819  44.282  33.603  13.391
74559W        W33820  38.353  12.821   0.346
74560W        W33821   4.210  37.534   2.732
74561W        W33822  36.953  42.370   0.370
74562W        W33823  13.344   5.314  11.045
74563W        W33824  24.525   8.206  13.812
74564W        W33825  39.527  37.941  12.980
74565W        W33826  43.339  11.862  13.922
74566W        W33827  34.369  18.241   2.687
74567W        W33828  14.600  32.469   0.286
74568W        W33829  10.741  42.353  14.323
74569W        W33830  11.802   9.359  11.071
74570W        W33831   7.834  27.116  13.373
74571W        W33832  19.075   7.668   1.431
74572W        W33833   9.310   5.231   0.864
74573W        W33834   2.945  18.564   0.461
74574W        W33835   0.477  19.170  12.979
74575W        W33836  42.499   3.278  13.406
74576W        W33837  22.052  10.275  11.954
74577W        W33838   0.446  32.101   2.358
74578W        W33839  35.561  40.523   3.701
74579W        W33840   8.670  30.476   4.186
74580W        W33841  13.314   6.690   3.194
74581W        W33842  13.263   9.853  10.940
74582W        W33843  44.962  15.095  10.123
74583W        W33844  26.479  31.069   3.168
74584W        W33845  41.311  20.668   2.677
74585W        W33846  28.042  31.473   0.397
74586W        W33847  29.493  34.398   3.165
74587W        W33848   2.234  40.997  10.922
74588W        W33849  39.403  17.093   4.759
74589W        W33850   3.728  37.987   4.735
74590W        W33851  40.457  42.476  14.292
74591W        W33852  36.036  13.146   3.846
74592W        W33853  36.871  39.421  13.888
74593W        W33854   6.714   0.417  11.982
74594W        W33855  24.644  33.561  12.472
74595W        W33856  32.922   7.794   0.814
74596W        W33857  26.584  16.812  11.427
74597W        W33858  43.327  34.602  12.992
74598W        W33859  29.144  33.387  13.931
74599W        W33860   5.864  15.313  11.975
74600W        W33861  15.630  29.429   0.756
74601W        W33862   7.413   9.150   1.270
74602W        W33863  17.198  32.128  14.290
74603W        W33864  22.510  23.632   2.858
74604W        W33865   4.420  12.677  12.360
74605W        W33866   5.405  23.578  14.813
74606W        W33867  23.579  36.094  12.053
74607W        W33868   7.324  26.653   0.277
74608W        W33869   4.775   6.755   2.710
74609W        W33870  30.006   8.685  13.032
74610W        W33871  40.910  25.612   1.329
74611W        W33872  14.289  28.529   1.415
74612W        W33873   3.883  35.913   0.384
74613W        W33874  26.477  41.888   4.791
74614W        W33875  18.691  21.128   3.313
74615W        W33876   4.234  44.370   0.935
74616W        W33877   8.878   5.818  12.442
74617W        W33878   4.725   0.901  11.890
74618W        W33879   5.830  35.490   1.925
74619W        W33880   1.353  44.333  14.356
74620W        W33881  37.579  18.547  12.033
74621W        W33882  40.929  43.346   2.816
74622W        W33883  42.972  43.277  14.759
74623W        W33884  31.910   2.883  12.071
74624W        W33885  37.563  10.867   4.275
74625W        W33886  17.614   5.271   1.860
74626W        W33887   1.427  43.390  12.409
74627W        W33888  12.744  30.602   3.311
74628W        W33889  11.219   3.373  11.943
74629W        W33890  15.672  43.861  10.988
74630W        W33891  25.610  35.095   3.340
74631W        W33892  28.950  35.019   1.859
74632W        W33893  36.462  24.039   0.734
74633W        W33894   5.910  19.240  14.913
74634W        W33895  17.084  23.161  10.041
74635W        W33896  36.554  10.157   0.355
74636W        W33897  36.379  33.030  14.791
74637W        W33898  28.946  25.971  14.780
74638W        W33899  15.117  44.499  11.880
74639W        W33900  23.024  30.480  12.997
74640W        W33901  20.636   7.224  14.436
74641W        W33902   6.789   8.284   4.647
74642W        W33903  17.223  41.024   1.309
74643W        W33904  16.578  12.280  13.832
74644W        W33905  12.181  28.008   1.401
74645W        W33906  24.581  22.589  13.875
74646W        W33907  42.978   3.420   0.282
74647W        W33908  38.916  11.176  10.511
74648W        W33909   0.256  26.459  12.580
74649W        W33910  24.663  41.954  10.901
74650W        W33911  14.785  31.009   0.306
74651W        W33912   0.394   4.700   2.261
74652W        W33913  29.157  26.568   1.330
74653W        W33914  14.702   3.367  11.545
74654W        W33915  40.814  32.440   3.745
74655W        W33916   4.825   2.404   0.333
74656W        W33917   9.172  40.025   0.300
74657W        W33918  31.027  38.478  10.523
74658W        W33919  15.761   7.260  12.970
74659W        W33920  40.808  36.921   2.746
74660W        W33921  42.870   9.316  14.942
74661W        W33922  33.878  16.734   2.185
74662W        W33923  32.473   3.430   4.214
74663W        W33924  17.285  37.376   1.724
74664W        W33925  14.195  41.803  12.891
74665W        W33926  10.202  42.371  12.021
74666W        W33927  37.351  32.068   1.905
74667W        W33928  22.502   7.810  10.625
74668W        W33929  18.776  17.169  11.098
74669W        W33930  28.973  10.813  13.494
74670W        W33931   0.248  29.642   2.308
74671W        W33932  20.738  34.084   4.311
74672W        W33933  20.644  37.063   4.711
74673W        W33934  17.694  36.944   3.219
74674W        W33935  31.139  26.175  10.606
74675W        W33936   4.883  17.098  11.863
74676W        W33937  38.872   5.869   0.407
74677W        W33938   3.286  23.701  10.530
74678W        W33939   5.806  10.298  13.025
74679W        W33940   1.375  39.497   0.748
74680W        W33941  31.503  31.958   2.354
74681W        W33942  21.051   4.399  11.068
74682W        W33943  41.990  27.579  14.934
74683W        W33944   4.320  29.589  11.466
74684W        W33945  35.431  28.091   4.633
74685W        W33946  12.300  40.009   1.699
74686W        W33947  40.920  29.175   0.292
74687W        W33948   8.890  25.060   0.947
74688W        W33949  32.573  34.451   4.752
74689W        W33950  12.222  38.541  13.956
74690W        W33951  22.240  26.128   0.756
74691W        W33952  26.587   2.756  13.540
74692W        W33953  28.942  23.601   3.735
74693W        W33954   7.889  29.463   2.823
74694W        W33955  13.703   7.733  11.889
74695W        W33956  44.474  37.838   2.396
74696W        W33957  30.489  22.178  14.341
74697W        W33958  18.617  14.779  14.964
74698W        W33959  23.112  30.613   2.372
74699W        W33960  42.918  32.970   2.340
74700W        W33961  23.642  10.764   0.952
74701W        W33962  27.005  44.974  13.383
74702W        W33963  14.768  42.004   3.251
74703W        W33964  29.924  38.963  10.456
74704W        W33965  33.413   1.367  12.492
74705W        W33966  14.662  27.018   5.100
74706W        W33967  15.639  38.934   1.818
74707W        W33968  23.102  28.964   0.414
74708W        W33969  40.525  29.921   0.847
74709W        W33970  38.468  15.644   1.867
74710W        W33971  42.907   6.285   0.462
74711W        W33972  29.944  22.186   4.777
74712W        W33973  24.203   3.373   1.917
74713W        W33974  44.345  35.910   1.250
74714W        W33975   3.824  14.149  13.943
74715W        W33976   6.742  34.916  11.387
74716W        W33977   9.813  30.014  12.079
74717W        W33978  11.677  17.299   1.355
74718W        W33979  39.946  36.347  12.987
74719W        W33980  25.487  16.607  13.371
74720W        W33981  29.974  35.038  13.431
74721W        W33982  34.393  13.801  12.080
74722W        W33983  23.610  30.617  10.952
74723W        W33984  44.960  13.626  13.956
74724W        W33985   2.804  29.174   0.325
74725W        W33986  11.673  44.849  10.595
74726W        W33987   0.854   4.794  11.438
74727W        W33988  28.955  23.996   1.286
74728W        W33989   3.858   2.813  11.499
74729W        W33990  20.098   2.779   1.332
74730W        W33991  23.141  44.909   2.894
74731W        W33992  29.071   0.808   4.265
74732W        W33993  26.176  31.917   1.759
74733W        W33994  20.583  17.213   2.282
74734W        W33995  26.534  32.594   4.618
74735W        W33996  20.725  11.851   3.344
74736W        W33997  22.656  36.950   1.288
74737W        W33998  11.739  39.412   3.711
74738W        W33999  41.387  13.773   2.754
74739W        W34000  34.567  43.864   1.286
74740W        W34001  11.273  35.001   2.210
74741W        W34002  26.989  27.540  13.319
74742W        W34003  18.218  27.491  14.908
74743W        W34004  13.730  22.218   3.383
74744W        W34005  44.995  17.677  10.099
74745W        W34006   5.826  17.191  10.911
74746W        W34007  10.857   8.859  14.848
74747W        W34008  25.107  37.562  12.570
74748W        W34009  20.611  13.725  11.029
74749W        W34010  33.412  14.268  10.042
74750W        W34011  30.126  11.814  13.545
74751W        W34012  29.567  25.208   1.849
74752W        W34013  13.747  31.052  14.814
74753W        W34014  29.003  33.086  12.426
74754W        W34015  37.980  12.612  11.406
74755W        W34016  32.042  13.802  13.344
74756W        W34017  26.021  27.170   4.149
74757W        W34018   8.240   8.174   0.413
74758W        W34019  28.983  15.649   0.455
74759W        W34020  18.295   1.338  10.476
74760W        W34021   6.921   8.660   4.646
74761W        W34022  30.004  14.754   0.429
74762W        W34023   1.851  16.641   1.296
74763W        W34024  38.898  31.637  10.465
74764W        W34025  31.933  12.128  13.009
74765W        W34026  35.465  43.014   0.330
74766W        W34027  25.607  42.025  14.312
74767W        W34028  13.277  11.339   4.829
74768W        W34029   9.371   6.868  10.085
74769W        W34030  11.829  39.874  11.947
74770W        W34031  29.467  10.142   0.890
74771W        W34032  23.671  19.702   1.788
74772W        W34033  28.084  16.211  11.581
74773W        W34034  33.398  10.771   3.152
74774W        W34035  21.686   7.207  11.462
74775W        W34036   4.843  23.709   2.735
74776W        W34037  40.518  21.188  13.032
74777W        W34038  22.554  24.137   3.250
74778W        W34039   4.721  25.069   1.419
74779W        W34040  14.274  33.599  11.418
74780W        W34041  37.414   5.305  12.860
74781W        W34042  22.137  14.337  11.005
74782W        W34043   2.881   8.851   4.621
74783W        W34044  17.137  25.046   0.829
74784W        W34045  24.214   8.827   3.190
74785W        W34046  19.543  11.246  10.542
74786W        W34047  21.647   4.785  14.368
74787W        W34048  39.022   7.694   0.332
74788W        W34049  39.941  34.094   1.891
74789W        W34050  36.922  32.082  14.394
74790W        W34051   9.687  31.479   2.858
74791W        W34052   9.670  25.007   2.673
74792W        W34053  15.285  24.680  11.096
74793W        W34054  18.553  14.321   1.370
74794W        W34055   3.287   4.903   2.189
74795W        W34056  24.643   0.884  10.009
74796W        W34057  40.537  40.468   4.665
74797W        W34058   7.705  24.586  12.897
74798W        W34059   0.881  10.323  12.909
74799W        W34060  11.711   0.344  10.989
74800W        W34061   9.240  28.146   0.379
74801W        W34062  24.704  23.103   3.371
74802W        W34063  16.651   6.403   9.999
74803W        W34064   6.876  25.050   2.261
74804W        W34065  14.805  23.606   0.410
74805W        W34066  20.120  20.109  14.837
74806W        W34067   7.905  37.556   1.926
74807W        W34068  17.065  26.147  10.439
74808W        W34069  33.403  21.185   0.895
74809W        W34070  12.275  14.793  14.851
74810W        W34071  34.373  44.269   4.132
74811W        W34072  13.186   0.839   5.166
74812W        W34073  29.116  31.484   3.287
74813W        W34074  40.934  15.255   9.511
74814W        W34075  38.332  31.904  13.883
74815W        W34076   1.454  35.996  11.454
74816W        W34077  39.343  14.132  14.912
74817W        W34078  29.545  29.077   0.390
74818W        W34079  26.558  23.183  11.867
74819W        W34080  40.008   3.378  13.890
74820W        W34081  30.512  39.056  12.058
74821W        W34082  36.052   3.284   4.131
74822W        W34083  31.080  38.890  10.504
74823W        W34084  14.707   1.790   0.313
74824W        W34085  34.388  12.857   3.693
74825W        W34086  24.498  27.968   0.841
74826W        W34087  19.153   6.194   2.374
74827W        W34088   4.905   2.331   2.190
74828W        W34089  16.292  21.034  11.449
74829W        W34090  11.752  30.517  12.846
74830W        W34091   7.256  30.543  12.515
74831W        W34092   7.360   2.873  11.411
74832W        W34093  28.437  32.454  10.541
74833W        W34094  30.117  24.214  14.947
74834W        W34095  30.520  33.034   0.738
74835W        W34096  15.182  21.198   2.850
74836W        W34097  39.001   5.350  11.112
74837W        W34098  34.874  31.434  10.996
74838W        W34099  22.613  26.474   2.680
74839W        W34100   4.349  27.510   1.337
74840W        W34101  15.764   3.871   3.374
74841W        W34102  44.917  13.844   3.357
74842W        W34103  41.870  31.579   1.926
74843W        W34104  14.595  24.724   0.483
74844W        W34105  31.418   4.310   1.450
74845W        W34106  17.642   0.833   0.825
74846W        W34107  41.397  40.960   2.677
74847W        W34108  39.452   9.357   4.757
74848W        W34109  38.462  31.999   4.121
74849W        W34110  15.588  36.853   4.611
74850W        W34111  23.067  16.283  11.462
74851W        W34112   9.386  17.798  11.461
74852W        W34113   3.800   1.483  10.566
74853W        W34114  24.095  37.401   2.211
74854W        W34115  13.812  21.671   3.725
74855W        W34116  42.846  20.223  10.110
74856W        W34117  11.359  29.014   4.133
74857W        W34118  16.195  42.466  13.393
74858W        W34119  41.369  17.170   1.934
74859W        W34120  36.585  33.954  10.965
74860W        W34121  28.129  31.479  12.978
74861W        W34122  17.750  22.090   0.772
74862W        W34123  25.560  23.055  13.340
74863W        W34124   5.860  24.716  13.975
74864W        W34125  17.680  10.139  11.497
74865W        W34126   6.311  23.592  10.482
74866W        W34127  10.647   6.837   0.390
74867W        W34128  11.821  37.933  11.887
74868W        W34129  30.629  38.361   4.152
74869W        W34130   6.364  43.951   4.188
74870W        W34131  23.177  12.123   3.658
74871W        W34132   6.770  40.546  13.828
74872W        W34133  19.223  32.012   0.964
74873W        W34134  26.668  27.123  13.369
74874W        W34135  17.159   3.289   5.211
74875W        W34136  16.699  15.639   3.645
74876W        W34137  12.803   3.857  14.778
74877W        W34138  32.011   6.394   0.762
74878W        W34139   5.825   6.830   2.400
74879W        W34140  12.782  25.584   1.304
74880W        W34141  42.393  34.553   1.429
74881W        W34142  44.881  12.807  12.411
74882W        W34143  16.685  15.704  11.597
74883W        W34144  31.996   1.295   1.707
74884W        W34145  14.279   7.208   0.951
74885W        W34146  12.737  25.968   4.685
74886W        W34147  26.088  18.122   2.759
74887W        W34148   9.880  28.110  14.511
74888W        W34149  43.507  41.416   4.681
74889W        W34150  17.624  12.270  12.487
74890W        W34151  22.526   2.826   1.817
74891W        W34152   7.348  19.054   3.682
74892W        W34153  17.745   1.480  10.533
74893W        W34154  16.294  17.590  11.419
74894W        W34155  20.151  27.578  10.463
74895W        W34156  40.849  20.620   4.749
74896W        W34157  12.819  18.658   3.367
74897W        W34158   9.809  10.259   4.633
74898W        W34159   3.304  34.948  14.410
74899W        W34160  19.185  31.414   2.716
74900W        W34161  44.408  43.387   1.238
74901W        W34162  43.967  11.150   4.302
74902W        W34163  36.913  38.046   3.775
74903W        W34164  24.029  32.446   3.684
74904W        W34165  22.019  20.100   2.237
74905W        W34166  13.290  32.000  14.371
74906W        W34167  29.114  33.029   0.728
74907W        W34168   9.668  29.603  12.995
74908W        W34169  15.601  13.193  14.027
74909W        W34170  17.791   2.846   3.249
74910W        W34171  29.170  17.113   3.678
74911W        W34172   7.194   8.171  13.333
74912W        W34173   2.443  31.510  12.056
74913W        W34174  38.986  29.007  11.969
74914W        W34175  34.615  23.194   0.271
74915W        W34176  12.673  31.435   2.826
74916W        W34177  27.054  14.712   3.631
74917W        W34178  32.096  40.458   1.916
74918W        W34179  41.469  32.989   3.719
74919W        W34180  43.507   1.942  10.585
74920W        W34181  21.202   2.935   4.132
74921W        W34182  14.119  18.270   0.276
74922W        W34183  24.554  31.143  11.952
74923W        W34184   6.260   9.872   3.717
74924W        W34185  11.770  24.067   2.780
74925W        W34186   6.720  30.019  14.784
74926W        W34187  17.777  41.466   3.770
74927W        W34188  44.881  10.165  12.866
74928W        W34189  14.814   3.801   2.369
74929W        W34190  18.761  40.359   3.213
74930W        W34191  25.588  36.418  11.904
74931W        W34192   4.266  23.050   0.869
74932W        W34193  24.133  36.583  13.802
74933W        W34194  44.502   6.239   3.844
74934W        W34195  11.264   7.288  12.496
74935W        W34196  11.335  31.425  14.813
74936W        W34197  22.717  34.020   0.481
74937W        W34198   8.850  38.910   2.730
74938W        W34199  40.549  17.559   0.313
74939W        W34200   0.934   7.782   1.297
74940W        W34201  26.580  21.186   0.450
74941W        W34202  24.066   8.740  11.399
74942W        W34203  12.318   0.986  13.797
74943W        W34204  18.189   6.807   2.208
74944W        W34205   0.780  18.547  11.560
74945W        W34206  11.350  32.050   4.334
74946W        W34207  40.866  21.138  12.431
74947W        W34208   8.303   1.420  11.978
74948W        W34209   6.416   9.305  11.120
74949W        W34210  31.604  36.881  13.449
74950W        W34211  11.282  20.622  12.095
74951W        W34212  39.993  20.129   2.190
74952W        W34213  20.205  30.010   1.373
74953W        W34214  42.948  22.103   4.823
74954W        W34215  23.998  38.452  14.921
74955W        W34216  42.334  21.152   2.178
74956W        W34217  44.358   6.877  14.926
74957W        W34218   4.708   4.844  10.981
74958W        W34219  33.048  26.651   4.119
74959W        W34220  14.686  35.866  14.793
74960W        W34221  21.584   9.293  11.858
74961W        W34222   9.711   3.879   2.667
74962W        W34223  34.375  18.284  14.833
74963W        W34224  34.396  26.031  10.437
74964W        W34225  32.023  20.163   2.244
74965W        W34226  22.602  33.386  11.403
74966W        W34227  30.554  41.363  13.368
74967W        W34228  19.739  13.233  14.308
74968W        W34229  35.852  23.634  11.916
74969W        W34230  36.437  32.539   1.719
74970W        W34231  21.176  24.702   0.350
74971W        W34232  33.509  19.095   4.237
74972W        W34233  44.755   7.284  10.953
74973W        W34234  18.643  24.066   0.761
74974W        W34235  21.090  34.114   1.401
74975W        W34236  13.217   1.265   4.129
74976W        W34237  42.295  29.045   2.862
74977W        W34238  44.949  18.281  12.386
74978W        W34239  16.584   4.296   2.712
74979W        W34240  24.105  32.065  14.507
74980W        W34241  17.631   0.896  12.543
74981W        W34242  31.152   1.331   5.796
74982W        W34243  32.554  41.408  13.023
74983W        W34244  24.722  37.576   4.711
74984W        W34245  20.192  21.747   3.803
74985W        W34246  34.566  15.154  13.946
74986W        W34247  18.768  18.771  14.482
74987W        W34248  29.633  42.316  12.082
74988W        W34249  26.518  19.245  13.388
74989W        W34250  15.648   8.664  12.469
74990W        W34251   3.288  21.242   2.703
74991W        W34252   2.965  16.150   3.831
74992W        W34253  34.917  24.168   4.761
74993W        W34254   3.294  15.645   0.833
74994W        W34255  19.583  14.285  11.049
74995W        W34256  11.644  25.974   3.189
74996W        W34257  38.381  42.946   2.829
74997W        W34258   9.223  11.825  10.529
74998W        W34259  24.203  25.015   3.315
74999W        W34260  25.614  24.560   3.656
75000W        W34261  22.567  13.145  13.316
75001W        W34262  37.908  21.612  11.441
75002W        W34263  12.210  35.045  10.644
75003W        W34264   4.874  14.258  12.901
75004W        W34265  44.753  11.143  11.100
75005W        W34266   3.792  27.042  13.431
75006W        W34267  36.571  29.079   0.332
75007W        W34268  18.202  40.975   3.291
75008W        W34269  33.617   4.700  11.553
75009W        W34270  32.137  18.287  14.854
75010W        W34271  27.076  40.912  13.511
75011W        W34272  30.029   0.777  13.950
75012W        W34273   9.321   6.342  11.398
75013W        W34274   5.204  39.909  12.437
75014W        W34275  41.825  27.570  10.967
75015W        W34276  23.038  20.091  10.917
75016W        W34277  12.280   0.439   1.803
75017W        W34278  42.436  22.504   2.868
75018W        W34279  27.956   9.861   3.782
75019W        W34280  13.284  38.942   9.983
75020W        W34281   3.912   1.377  14.474
75021W        W34282   2.879  13.259   2.670
75022W        W34283  10.165  20.178  11.586
75023W        W34284   8.863  42.470  13.431
75024W        W34285  10.823  29.175  14.886
75025W        W34286   9.170  16.676  14.494
75026W        W34287  18.620  34.025  14.455
75027W        W34288  19.186  43.477  13.495
75028W        W34289  33.394  29.491   4.622
75029W        W34290  19.730   2.878  14.280
75030W        W34291  19.172  34.996   1.229
75031W        W34292  17.757  10.258   3.338
75032W        W34293  41.402   1.808   1.921
75033W        W34294  33.417   6.300   0.403
75034W        W34295  20.122  14.791   2.368
75035W        W34296  11.192  25.143  14.926
75036W        W34297  23.529   5.720   2.805
75037W        W34298   4.356  12.325   4.719
75038W        W34299  13.672  36.593   2.771
75039W        W34300  32.421  17.658  12.454
75040W        W34301   5.924   7.733   3.803
75041W        W34302  40.023  44.863  13.828
75042W        W34303   2.909  33.516   3.170
75043W        W34304  23.242  37.352   3.274
75044W        W34305  31.111   1.816  11.094
75045W        W34306  26.645  39.025   5.305
75046W        W34307  37.561  29.108   2.306
75047W        W34308  36.071  16.083   3.727
75048W        W34309  23.564  10.734  13.940
75049W        W34310  21.162  22.161  14.928
75050W        W34311   4.399   0.968   2.419
75051W        W34312   9.835  23.117  11.454
75052W        W34313  26.987  36.368  11.121
75053W        W34314  20.097  28.995  10.972
75054W        W34315  23.554  44.324   3.172
75055W        W34316  36.549  31.514   1.894
75056W        W34317  31.544  22.636   3.180
75057W        W34318  12.854   7.369   0.873
75058W        W34319   6.860   5.743   3.868
75059W        W34320  40.530  43.348  10.972
75060W        W34321  21.541  13.833  13.508
75061W        W34322  23.640  11.812   2.878
75062W        W34323  12.810  34.046  12.854
75063W        W34324  44.470  18.766  10.896
75064W        W34325  38.912  20.644   2.388
75065W        W34326   4.742   6.334  13.487
75066W        W34327  39.823   8.724  14.466
75067W        W34328  36.404   8.189   4.249
75068W        W34329  10.271  16.595  13.865
75069W        W34330  26.083  44.491  10.536
75070W        W34331   7.242  43.982  11.012
75071W        W34332  18.118  24.198   0.924
75072W        W34333  38.064  16.663   2.856
75073W        W34334  42.860   8.310   4.819
75074W        W34335  31.483  19.225  10.532
75075W        W34336  16.593  23.499  10.486
75076W        W34337   2.409  32.043  14.405
75077W        W34338  21.722  28.566   3.287
75078W        W34339  28.641  21.043   1.814
75079W        W34340  18.102   4.762  13.442
75080W        W34341  33.520  16.198   2.339
75081W        W34342  39.822  12.279   4.622
75082W        W34343  25.614  33.983   2.238
75083W        W34344   8.662  11.284  11.121
75084W        W34345  22.528  18.570  13.031
75085W        W34346   6.259  12.688  12.512
75086W        W34347  18.173  27.191  14.899
75087W        W34348   8.825  15.199   4.154
75088W        W34349  10.155   1.435  11.539
75089W        W34350  16.107  34.006  14.496
75090W        W34351  16.590  27.106   0.395
75091W        W34352  25.002  20.138  11.968
75092W        W34353  34.423  44.777   4.740
75093W        W34354  18.126   2.756  14.444
75094W        W34355   1.869  26.087   3.370
75095W        W34356  17.075  37.461   3.162
75096W        W34357   7.398  21.023   4.353
75097W        W34358  28.183   5.402   1.437
75098W        W34359  26.540  20.594   4.638
75099W        W34360  13.266  42.014  12.545
75100W        W34361  18.559  19.093   1.741
75101W        W34362   8.275  10.815  11.941
75102W        W34363   5.254  34.489  12.522
75103W        W34364  28.493  26.687  14.852
75104W        W34365  24.077  15.692  14.397
75105W        W34366  22.721   3.755   4.255
75106W        W34367  22.229  40.431   1.451
75107W        W34368   7.667  38.464   3.191
75108W        W34369  17.119  39.322  11.990
75109W        W34370   5.933  21.031   1.896
75110W        W34371  42.998  11.770   1.450
75111W        W34372  15.651  17.747   2.759
75112W        W34373  36.999  31.039   1.875
75113W        W34374  12.819  17.206   2.902
75114W        W34375   0.256  26.598   2.206
75115W        W34376  12.744  15.662  14.827
75116W        W34377  16.572  12.629  11.506
75117W        W34378   7.314  37.015   0.829
75118W        W34379  40.937  37.831  12.573
75119W        W34380   2.397  15.269   4.287
75120W        W34381  14.716  14.195   5.303
75121W        W34382  21.742   3.271   2.255
75122W        W34383  38.032  14.275   0.449
75123W        W34384   9.713  37.472   1.782
75124W        W34385  28.569  16.808   3.646
75125W        W34386  34.567  19.117  11.546
75126W        W34387   3.445   0.484  10.959
75127W        W34388   7.233  40.408  13.009
75128W        W34389  19.613  34.004   0.382
75129W        W34390  12.652   1.764  11.527
75130W        W34391   0.787  14.130  14.853
75131W        W34392  30.481  42.521  10.901
75132W        W34393  44.346  25.164  11.518
75133W        W34394  22.630  38.822  10.512
75134W        W34395   7.323  17.570   4.234
75135W        W34396  17.590  34.945   4.127
75136W        W34397  15.753  31.096  13.380
75137W        W34398   3.225  13.210   1.408
75138W        W34399  18.576  18.574   1.441
75139W        W34400   4.743  39.367   0.316
75140W        W34401  32.606  16.166   0.350
75141W        W34402  33.115  42.843   2.396
75142W        W34403  32.126  28.606   2.194
75143W        W34404   2.893  15.642   2.742
75144W        W34405   8.882  17.220   3.320
75145W        W34406   6.275  42.984   4.642
75146W        W34407  29.958   3.938   0.932
75147W        W34408   8.864  37.384   3.746
75148W        W34409  27.471  39.510   4.258
75149W        W34410  21.740   3.324  12.028
75150W        W34411  29.622  37.075   4.757
75151W        W34412   1.789  40.443  14.410
75152W        W34413  42.280   8.242   3.291
75153W        W34414  35.990  31.429  11.560
75154W        W34415  19.226   9.176  13.813
75155W        W34416  16.812  21.241  12.008
75156W        W34417  25.190  18.165  13.344
75157W        W34418   5.817  19.760  13.363
75158W        W34419  43.888  23.573   9.940
75159W        W34420  37.922  33.530  13.482
75160W        W34421   3.797  23.189  14.509
75161W        W34422  44.499   1.291   1.884
75162W        W34423   3.843   7.752  10.456
75163W        W34424  33.564  28.617  12.574
75164W        W34425  44.756  33.382   1.827
75165W        W34426  35.404  30.512   3.861
75166W        W34427  40.977  29.947  10.462
75167W        W34428   8.246  13.692  11.915
75168W        W34429  22.578  28.974  10.938
75169W        W34430   4.854  36.886  13.516
75170W        W34431  13.738  18.695  13.319
75171W        W34432  31.559   7.218  10.961
75172W        W34433  35.067   6.228  12.069
75173W        W34434  17.629  38.475  12.348
75174W        W34435  18.775  31.020   5.163
75175W        W34436  41.343  25.513  13.464
75176W        W34437  42.402  32.449   0.410
75177W        W34438  25.692  10.689  11.448
75178W        W34439  23.504  33.033  13.541
75179W        W34440   2.953   7.794   3.798
75180W        W34441  31.024   9.806  12.090
75181W        W34442   9.284  38.923   3.321
75182W        W34443  33.387  27.526   1.229
75183W        W34444  11.754  44.875   4.232
75184W        W34445   6.922  11.215   1.379
75185W        W34446  20.614  35.061  14.351
75186W        W34447  16.089  43.006  14.784
75187W        W34448  27.573  28.957   2.805
75188W        W34449  40.051  35.528  10.949
75189W        W34450  33.446   1.932   4.345
75190W        W34451  15.182  30.589  13.858
75191W        W34452  16.783  36.858  13.858
75192W        W34453   5.778  21.114  14.817
75193W        W34454   8.667  16.180   2.364
75194W        W34455  35.089  13.213  13.395
75195W        W34456  19.574  23.673  13.887
75196W        W34457   8.277  42.989  12.894
75197W        W34458  27.641  22.244   4.628
75198W        W34459   5.832   1.248  11.013
75199W        W34460  35.530   7.174  12.539
75200W        W34461   2.796  43.406   2.213
75201W        W34462  10.649  41.519   1.340
75202W        W34463  25.553  44.363  12.449
75203W        W34464  32.015  33.430   1.385
75204W        W34465  38.954  29.099   0.416
75205W        W34466   8.182   8.717  13.009
75206W        W34467  24.213  29.559  10.641
75207W        W34468  32.456  10.761  11.956
75208W        W34469   6.182  33.612  13.396
75209W        W34470   2.315   8.794  11.560
75210W        W34471  12.686  31.104   2.254
75211W        W34472  17.213  23.631   2.357
75212W        W34473  20.686  29.017  10.913
75213W        W34474  38.368   2.250   4.675
75214W        W34475  17.256  32.413  11.454
75215W        W34476  30.988  21.749  11.435
75216W        W34477  26.571  42.423  12.540
75217W        W34478  22.666  16.605   3.211
75218W        W34479  34.094  10.162   1.932
75219W        W34480  39.407  37.052   0.856
75220W        W34481  43.281  20.214  14.923
75221W        W34482  19.135   4.221   1.695
75222W        W34483  18.135   0.981  10.450
75223W        W34484  36.918   2.425  11.050
75224W        W34485  39.557  14.620   1.784
75225W        W34486   3.778  33.465  12.842
75226W        W34487  33.095  23.562  11.118
75227W        W34488  20.602  16.575   1.390
75228W        W34489   7.230   5.783   3.303
75229W        W34490   6.393  36.485   3.184
75230W        W34491  35.047   1.400   3.785
75231W        W34492   9.671   8.736  11.012
75232W        W34493   9.786  43.450   2.181
75233W        W34494  39.494   2.914   2.711
75234W        W34495  11.642  28.119   2.824
75235W        W34496  14.607  28.021  13.019
75236W        W34497  26.499  43.832   2.716
75237W        W34498  25.985  43.424  13.439
75238W        W34499  31.989  15.722   2.265
75239W        W34500  44.874   2.249   2.333
75240W        W34501   6.815  32.062   0.898
75241W        W34502  33.994  32.934  14.420
75242W        W34503  43.507  32.577   0.765
75243W        W34504   1.348  26.136  12.532
75244W        W34505  16.808  21.212   3.638
75245W        W34506   6.220  30.117   2.757
75246W        W34507  38.063  17.104   3.210
75247W        W34508  38.833  43.464   3.761
75248W        W34509   1.789  14.233   4.331
75249W        W34510  37.004  28.445  12.478
75250W        W34511   1.331   7.729  12.553
75251W        W34512  25.677  43.937  12.969
75252W        W34513  41.898  13.339   1.344
75253W        W34514  34.422   1.432   0.368
75254W        W34515  16.165  23.630   4.157
75255W        W34516  12.236  28.102  14.318
75256W        W34517  24.132  21.196   3.359
75257W        W34518  33.971  27.006  14.815
75258W        W34519  28.155  13.247   5.301
75259W        W34520  15.204  18.169  11.909
75260W        W34521   8.762   4.935   5.154
75261W        W34522  26.538  34.907  10.903
75262W        W34523  35.604  37.525   3.821
75263W        W34524  24.013  22.725  10.018
75264W        W34525  17.235  40.375   2.725
75265W        W34526  37.839   3.441   5.281
75266W        W34527  15.750  34.992  12.475
75267W        W34528  27.056  26.543  13.875
75268W        W34529  33.095  25.015   0.957
75269W        W34530  40.851  15.721  11.953
75270W        W34531  11.337  39.867  14.451
75271W        W34532  16.590   9.838   2.380
75272W        W34533  15.762  34.605  10.927
75273W        W34534   4.298   1.407  11.934
75274W        W34535  17.793  43.339   1.815
75275W        W34536  33.550  15.797   3.291
75276W        W34537  42.893  19.692  13.933
75277W        W34538  18.607  29.097   0.805
75278W        W34539  20.542  15.265  10.563
75279W        W34540  11.255  36.889  11.609
75280W        W34541  17.766  39.533   3.213
75281W        W34542  31.112  21.057  10.618
75282W        W34543  26.064  24.487  13.410
75283W        W34544  19.045  25.207   3.376
75284W        W34545  16.186  18.170   2.876
75285W        W34546  34.920  30.005   1.268
75286W        W34547  36.413  20.608   4.787
75287W        W34548  26.662   9.164  11.575
75288W        W34549  13.158  40.430  12.566
75289W        W34550   5.889  29.160   1.886
75290W        W34551  40.865  21.137  10.993
75291W        W34552  33.989  23.986  12.857
75292W        W34553  22.203   2.922   4.599
75293W        W34554  32.105  37.844   4.155
75294W        W34555  25.159  24.661   4.796
75295W        W34556  13.609  37.083  12.902
75296W        W34557  19.594   5.834  11.499
75297W        W34558  24.110  20.630  11.070
75298W        W34559  40.507  23.137  13.525
75299W        W34560  22.642  30.941  14.880
75300W        W34561  35.529  19.772   2.832
75301W        W34562  13.127  35.583  13.857
75302W        W34563   5.436   7.755  14.377
75303W        W34564  43.438   9.684   0.877
75304W        W34565  19.692  41.004  10.645
75305W        W34566  41.490  29.551   3.239
75306W        W34567  33.491  17.753   1.452
75307W        W34568   8.215  27.602  10.888
75308W        W34569  28.144   4.444   0.811
75309W        W34570  19.592   0.830   2.859
75310W        W34571   3.307  42.988  13.944
75311W        W34572  22.124  29.986  13.333
75312W        W34573  28.036  21.631   0.382
75313W        W34574  40.811  44.825  10.456
75314W        W34575  28.139  31.100  13.476
75315W        W34576  23.997  12.293   2.700
75316W        W34577  19.277  38.541   3.368
75317W        W34578  20.074  23.062  13.420
75318W        W34579  13.135   4.938   1.422
75319W        W34580  35.522  38.529  12.044
75320W        W34581   2.792  10.649   1.827
75321W        W34582  34.380  39.544  14.775
75322W        W34583   1.957  16.612  11.952
75323W        W34584  41.446  16.243   2.212
75324W        W34585  13.204   2.357   1.338
75325W        W34586  13.827  27.564  12.864
75326W        W34587   4.838   5.757   0.253
75327W        W34588  10.788  13.290  11.905
75328W        W34589   7.358  14.158  12.376
75329W        W34590   8.240  20.612  14.903
75330W        W34591  20.149  37.008  12.443
75331W        W34592  40.900  31.091  10.469
75332W        W34593   4.292   5.299  12.900
75333W        W34594  15.811  11.184  13.411
75334W        W34595  11.679  36.049   0.925
75335W        W34596  41.790  38.512  14.903
75336W        W34597  17.101  32.409  13.315
75337W        W34598   8.333   9.822  10.031
75338W        W34599  38.423  40.936   4.122
75339W        W34600  29.972   0.331   2.751
75340W        W34601  20.644  19.671   3.265
75341W        W34602  29.145  21.678   4.283
75342W        W34603   6.314  37.054  12.027
75343W        W34604  31.451  25.149  11.883
75344W        W34605   4.367  24.984   0.837
75345W        W34606  20.695  29.574  14.406
75346W        W34607  14.117  32.039  13.852
75347W        W34608  20.104   5.275   3.835
75348W        W34609  35.990  27.948  11.608
75349W        W34610  33.978  20.096  11.088
75350W        W34611  21.204   9.325  12.041
75351W        W34612  43.956  28.495  13.792
75352W        W34613  42.367  13.791   3.770
75353W        W34614  15.795   1.800   1.259
75354W        W34615  42.467  18.723   3.858
75355W        W34616  19.103   7.260  14.882
75356W        W34617   4.339  17.221  14.772
75357W        W34618  40.517  21.216  13.407
75358W        W34619  35.090  34.873   1.235
75359W        W34620  19.231   7.727   4.126
75360W        W34621  22.548  41.428   4.249
75361W        W34622  21.538  19.204   3.744
75362W        W34623   7.363   3.726   3.711
75363W        W34624  21.730  20.247  11.097
75364W        W34625  39.944  31.949   3.676
75365W        W34626  34.057  40.896   0.964
75366W        W34627  17.095  41.990   3.258
75367W        W34628  25.709  15.730  14.404
75368W        W34629  12.828  39.976   1.788
75369W        W34630  26.482   1.346   4.234
75370W        W34631  23.075  10.180  13.824
75371W        W34632  43.972  15.776   0.428
75372W        W34633  39.051   0.281   3.208
75373W        W34634  37.467  35.947  10.545
75374W        W34635  29.515   9.306  10.563
75375W        W34636  26.992  24.716  11.437
75376W        W34637  37.957  19.119  14.847
75377W        W34638  28.041  12.347  13.964
75378W        W34639  43.287  15.670   4.339
75379W        W34640   9.265  34.470  13.797
75380W        W34641  43.836  11.204   2.871
75381W        W34642   3.891  42.815  12.356
75382W        W34643  12.161  10.738   0.751
75383W        W34644  11.743  35.586  14.512
75384W        W34645  41.309  15.816   1.345
75385W        W34646   0.375  38.508  14.837
75386W        W34647  16.308  16.094  10.965
75387W        W34648   7.284  23.047  12.573
75388W        W34649  25.707  18.615   2.389
75389W        W34650  13.271   9.795  10.498
75390W        W34651  31.931  15.199   1.783
75391W        W34652  16.176   4.387   2.815
75392W        W34653  43.426   5.843   2.336
75393W        W34654  13.292  42.896  14.286
75394W        W34655  42.339  41.874  10.428
75395W        W34656  43.944  13.328  11.496
75396W        W34657  18.118   5.908  13.958
75397W        W34658  27.039  22.135  14.861
75398W        W34659   2.334  29.111   3.145
75399W        W34660  23.683  21.755  10.929
75400W        W34661   9.754  18.655  12.919
75401W        W34662   1.398  24.130  12.369
75402W        W34663  16.778   3.952   0.400
75403W        W34664  15.780  14.130  13.956
75404W        W34665  20.201   8.380  13.449
75405W        W34666   8.835  37.938   4.705
75406W        W34667   2.845  16.659  14.879
75407W        W34668  35.513  22.140   1.873
75408W        W34669  34.957  36.858  10.437
75409W        W34670  36.025  25.497   4.698
75410W        W34671   2.924  21.028   4.224
75411W        W34672  25.172  21.584   0.900
75412W        W34673  10.256   3.774   0.839
75413W        W34674  40.966   2.859   4.677
75414W        W34675  31.569  26.656   2.410
75415W        W34676  26.110  23.152   4.215
75416W        W34677  26.640  24.193   0.906
75417W        W34678  35.054  14.593   4.761
75418W        W34679  26.173  18.099   1.381
75419W        W34680   1.323   6.284  13.529
75420W        W34681  12.844   1.745   1.797
75421W        W34682  21.185  35.011  11.105
75422W        W34683   7.748  32.018  10.473
75423W        W34684   4.830  28.478  11.471
75424W        W34685  15.165   9.274  14.829
75425W        W34686  20.634  25.127  14.310
75426W        W34687  43.425  27.555   4.729
75427W        W34688  20.203  40.990   2.881
75428W        W34689  18.625  33.410   1.276
75429W        W34690  36.477   1.343   0.946
75430W        W34691  37.374   7.733  10.931
75431W        W34692  35.958  28.035   2.340
75432W        W34693  19.547  16.764   4.130
75433W        W34694  12.272   7.246  11.063
75434W        W34695  14.236   2.232  14.964
75435W        W34696  28.494  42.784  13.380
75436W        W34697   2.958  26.974   1.748
75437W        W34698  34.565  14.654   3.763
75438W        W34699  40.502  31.022   2.377
75439W        W34700  43.963  19.278   3.805
75440W        W34701  32.637  43.508   1.239
75441W        W34702  35.506  34.552   3.362
75442W        W34703   9.184   9.878   3.268
75443W        W34704   0.937  12.357  13.514
75444W        W34705  40.302   2.797   4.789
75445W        W34706  38.464  41.323  12.564
75446W        W34707  21.628  29.087   0.483
75447W        W34708  36.529   0.953  10.440
75448W        W34709  14.297  27.152   9.616
75449W        W34710  32.635  19.160  13.484
75450W        W34711  12.243  12.297  13.523
75451W        W34712  14.687  22.219  13.987
75452W        W34713  16.140  32.392  11.490
75453W        W34714  40.344   0.810   0.870
75454W        W34715  19.220  23.237   4.793
75455W        W34716   0.411   7.819   2.750
75456W        W34717  15.748  15.232   1.696
75457W        W34718  20.741  36.492  11.491
75458W        W34719  35.032  23.548  12.411
75459W        W34720  17.668  41.986   0.352
75460W        W34721  34.589  24.516  13.898
75461W        W34722  41.033  21.104   4.797
75462W        W34723  19.750  15.242   2.832
75463W        W34724   5.266  39.856  12.036
75464W        W34725  24.667  15.646  12.489
75465W        W34726  13.182  23.522   2.236
75466W        W34727  18.157  17.734  11.931
75467W        W34728  15.667  19.095  12.908
75468W        W34729   1.946  26.032  10.489
75469W        W34730   3.804   8.754  11.527
75470W        W34731  42.019  16.096   9.620
75471W        W34732  31.935  23.643  10.565
75472W        W34733  30.165  26.014  12.508
75473W        W34734  39.874  39.365  11.049
75474W        W34735   8.834   9.255   0.966
75475W        W34736  28.620  31.950  12.044
75476W        W34737   7.768  21.639   4.155
75477W        W34738  24.062   1.937   3.719
75478W        W34739  16.590  14.198  14.929
75479W        W34740  42.846  34.605   4.795
75480W        W34741   7.734  23.131   1.289
75481W        W34742  17.798  33.567   2.187
75482W        W34743   0.483   7.884   0.340
75483W        W34744  40.014  37.913  14.508
75484W        W34745  27.075  42.958  12.084
75485W        W34746  30.013  35.857   4.183
75486W        W34747  23.204  43.317  11.973
75487W        W34748  43.902  34.096  10.590
75488W        W34749   7.822  27.600   0.783
75489W        W34750  26.589  17.113   1.349
75490W        W34751  36.350  21.035   4.820
75491W        W34752  39.490  44.983   0.943
75492W        W34753  18.743  41.293  11.465
75493W        W34754   5.747  23.098  12.958
75494W        W34755  24.195   4.214   0.265
75495W        W34756  16.129  35.424  11.125
75496W        W34757   5.837  17.079   1.249
75497W        W34758  16.755  10.161   1.335
75498W        W34759  25.993  40.507   0.463
75499W        W34760   0.755  30.139   4.234
75500W        W34761  33.116  25.017  11.462
75501W        W34762  10.678  44.272   0.891
75502W        W34763  23.035  27.540   2.222
75503W        W34764  39.969  20.041  12.381
75504W        W34765  27.674  28.176   3.669
75505W        W34766  20.115   4.873   2.782
75506W        W34767   7.342  21.731  14.403
75507W        W34768   0.415  14.232   0.809
75508W        W34769   0.836  37.451  10.102
75509W        W34770  35.985  40.417   5.254
75510W        W34771   8.787  23.240   4.235
75511W        W34772   3.905  21.574   1.365
75512W        W34773  32.598   9.271  12.014
75513W        W34774  35.365  18.120  14.277
75514W        W34775  20.254  34.462   1.319
75515W        W34776  10.669   5.304   3.376
75516W        W34777  34.602  12.282   3.153
75517W        W34778  32.611   1.445   2.804
75518W        W34779  30.642  28.664  10.939
75519W        W34780  33.572   8.801   0.280
75520W        W34781  22.598  13.825   1.699
75521W        W34782   3.876  23.187  12.382
75522W        W34783  26.617  44.788   4.647
75523W        W34784  13.285  21.189  10.982
75524W        W34785  23.081  10.767  14.326
75525W        W34786  34.379  14.199   2.295
75526W        W34787  17.601   8.855  10.010
75527W        W34788  20.769   4.846  10.955
75528W        W34789  20.229  26.516   0.454
75529W        W34790  16.270   7.178  12.458
75530W        W34791  39.927   1.915  11.906
75531W        W34792  35.577  39.365   1.876
75532W        W34793   8.857   1.738  14.389
75533W        W34794  27.044  17.106   0.413
75534W        W34795  37.366  40.514   2.894
75535W        W34796  32.064  40.822  11.101
75536W        W34797  24.627  24.126   2.859
75537W        W34798  14.729  24.122   4.692
75538W        W34799   7.352  38.937   2.313
75539W        W34800  23.035   3.374  10.621
75540W        W34801  32.891  31.527  10.988
75541W        W34802  18.757  12.708  12.489
75542W        W34803  34.094  10.207   2.281
75543W        W34804  28.493   3.415   3.225
75544W        W34805  41.376  23.089  12.559
75545W        W34806  20.212   1.309   3.772
75546W        W34807   7.232  21.211   2.833
75547W        W34808  15.758  29.163  12.541
75548W        W34809   4.418   2.449  11.961
75549W        W34810   5.877   5.693   1.844
75550W        W34811  14.593   6.795  10.415
75551W        W34812  18.791  27.048  14.276
75552W        W34813   6.708  12.681   1.788
75553W        W34814  12.140  36.516  11.447
75554W        W34815  13.163   4.874   3.659
75555W        W34816   6.426  37.040   3.315
75556W        W34817  27.598   7.680   4.165
75557W        W34818  22.638  16.305  11.593
75558W        W34819  43.862  17.758  13.440
75559W        W34820   5.308  26.170   4.624
75560W        W34821  28.173  41.505   4.181
75561W        W34822  10.867  22.517  11.403
75562W        W34823  36.456  15.667   4.213
75563W        W34824  27.152  34.086  12.454
75564W        W34825  25.017  26.550  14.974
75565W        W34826  42.800  19.173   1.354
75566W        W34827  35.489  37.975   0.876
75567W        W34828  12.798  38.058   4.748
75568W        W34829  25.107  20.134   0.831
75569W        W34830   4.269   6.904   5.084
75570W        W34831  25.585   0.449  10.458
75571W        W34832  37.063  11.718  11.899
75572W        W34833  29.040   3.414   0.307
75573W        W34834  24.618  24.479   4.195
75574W        W34835  19.171  22.222  14.319
75575W        W34836  34.606  29.075  10.509
75576W        W34837  29.547  15.199  11.084
75577W        W34838  13.296  42.281   2.264
75578W        W34839  33.105  26.143   2.698
75579W        W34840  34.482  39.364   4.209
75580W        W34841  14.178  32.539   2.380
75581W        W34842  39.911  44.311   0.348
75582W        W34843  22.702  25.529  13.910
75583W        W34844  27.075   7.291   1.885
75584W        W34845   6.841   7.673  13.479
75585W        W34846  32.456  18.581  10.456
75586W        W34847  12.147  12.118  11.536
75587W        W34848  32.962  19.053   3.209
75588W        W34849  29.125  30.630   4.147
75589W        W34850  28.097   4.277   0.281
75590W        W34851  35.379  44.960   0.472
75591W        W34852   9.780   1.389  13.835
75592W        W34853  13.217  11.739  11.007
75593W        W34854  33.045   6.850  11.489
75594W        W34855  11.846  11.731   1.275
75595W        W34856  26.502  42.955  10.992
75596W        W34857   2.345  38.919   9.961
75597W        W34858  34.110  37.081  14.472
75598W        W34859  10.771   0.355   0.947
75599W        W34860   7.178  42.406  13.867
75600W        W34861  37.873   4.853  10.914
75601W        W34862  18.767  32.064   4.704
75602W        W34863   3.714  18.679  14.289
75603W        W34864  13.290  32.538   1.448
75604W        W34865  14.310  30.040  13.507
75605W        W34866  40.050  24.169  11.029
75606W        W34867  12.201  29.605  13.463
75607W        W34868   4.893   3.941   3.182
75608W        W34869   7.376  38.358   4.207
75609W        W34870  26.522  33.039  12.426
75610W        W34871  15.135  31.581   0.438
75611W        W34872  27.533   8.341  13.444
75612W        W34873  18.621  16.668   3.794
75613W        W34874  21.221   0.351  10.501
75614W        W34875  15.291  27.445   3.304
75615W        W34876  33.076   4.231   4.797
75616W        W34877  37.858  10.164  12.877
75617W        W34878  40.363  29.988  10.416
75618W        W34879  13.746  44.488   2.671
75619W        W34880  36.014  26.489   3.173
75620W        W34881  38.346  15.601  13.051
75621W        W34882   9.284   0.452  12.998
75622W        W34883  27.163  31.441   1.395
75623W        W34884  32.568  42.368   2.241
75624W        W34885  10.839  34.983   0.375
75625W        W34886   9.212   8.670   0.862
75626W        W34887  43.993   0.359  11.900
75627W        W34888  43.363   6.825  11.953
75628W        W34889   7.837  42.304   3.721
75629W        W34890   6.395  35.456  12.028
75630W        W34891  16.117   1.849   4.297
75631W        W34892  37.896  30.937  10.436
75632W        W34893  42.382  39.508   5.692
75633W        W34894  25.626  39.463   3.727
75634W        W34895  27.456  17.667  12.890
75635W        W34896  17.797  18.145  13.957
75636W        W34897  12.698   2.802   3.175
75637W        W34898  39.054  42.976  14.943
75638W        W34899  33.521  23.199   5.083
75639W        W34900  27.479  38.376  12.837
75640W        W34901  38.536  14.645  14.800
75641W        W34902  21.572   9.799   2.390
75642W        W34903  23.723   2.423   4.756
75643W        W34904   7.688  10.182  10.466
75644W        W34905  33.494  14.747   2.387
75645W        W34906  37.506   7.367   2.672
75646W        W34907  12.197  33.126   2.262
75647W        W34908   0.473  20.265  13.523
75648W        W34909  41.970  10.655  10.493
75649W        W34910   1.265  13.666  11.448
75650W        W34911   1.281  40.419   4.835
75651W        W34912   6.276  10.191  14.956
75652W        W34913   3.803  14.164   3.871
75653W        W34914  14.196  25.127   0.762
75654W        W34915  32.940  28.118   4.272
75655W        W34916  26.133  15.102   0.794
75656W        W34917  10.375   4.306   3.793
75657W        W34918   2.776  16.661   1.846
75658W        W34919   1.929  22.538  11.009
75659W        W34920   9.268   8.240  12.885
75660W        W34921  24.668  27.137   0.421
75661W        W34922  29.547  34.063   2.798
75662W        W34923  18.761  37.482  10.981
75663W        W34924  36.480  13.741  11.492
75664W        W34925  14.221   2.285  12.401
75665W        W34926  25.505  13.756  13.497
75666W        W34927  21.110  23.163   5.156
75667W        W34928   7.774   6.869  13.533
75668W        W34929   2.939  40.338   3.207
75669W        W34930  18.632   3.261   0.462
75670W        W34931  39.929  16.649   9.569
75671W        W34932   5.263  32.586   3.827
75672W        W34933  39.534  44.438   1.827
75673W        W34934   8.704  31.024  10.478
75674W        W34935  17.297  37.479   4.671
75675W        W34936  37.567   8.313   1.807
75676W        W34937  33.874  23.214   0.824
75677W        W34938  39.479  16.699  10.143
75678W        W34939  10.723  23.617   2.886
75679W        W34940  35.934  26.029   2.693
75680W        W34941  12.160  20.212   1.246
75681W        W34942   3.794  33.487   1.803
75682W        W34943   8.680   9.165  13.360
75683W        W34944   6.677  27.661   1.223
75684W        W34945  22.130  27.095  14.832
75685W        W34946  19.596  27.614   2.211
75686W        W34947  40.945  30.412   3.251
75687W        W34948  25.668  28.460   0.259
75688W        W34949   0.364  36.987  13.056
75689W        W34950  25.198  26.599  14.470
75690W        W34951  33.986  40.432  12.550
75691W        W34952  10.272  10.204   4.309
75692W        W34953  28.945  36.969  13.026
75693W        W34954  26.065  35.022   0.467
75694W        W34955  21.639  39.524  13.532
75695W        W34956   1.735   6.895  10.996
75696W        W34957  15.768  20.762  13.531
75697W        W34958   6.383   5.928   2.301
75698W        W34959  26.976   7.303   2.330
75699W        W34960  15.240  41.884   0.313
75700W        W34961  32.551  36.920   0.780
75701W        W34962   0.825   8.706  13.957
75702W        W34963  26.679  20.695  12.071
75703W        W34964  28.110  22.230  14.457
75704W        W34965  16.693  15.783   1.775
75705W        W34966  41.403  44.426  13.418
75706W        W34967   5.396  34.975  12.885
75707W        W34968  33.957  33.106   2.801
75708W        W34969  35.016  19.158   1.447
75709W        W34970  43.448  12.774  11.577
75710W        W34971  15.137  16.164  10.505
75711W        W34972  33.100  38.918   4.251
75712W        W34973  18.643  40.367   2.284
75713W        W34974   2.441   0.787  10.954
75714W        W34975  39.457  37.549   1.323
75715W        W34976  35.379  33.103   0.445
75716W        W34977   2.926  28.178  12.963
75717W        W34978  24.492  27.140  14.311
75718W        W34979  25.642   7.875  13.534
75719W        W34980   8.677  40.030   4.790
75720W        W34981  29.578  41.027   1.306
75721W        W34982  12.292  36.498   0.936
75722W        W34983  16.620  42.502  10.917
75723W        W34984  28.613   1.426  11.389
75724W        W34985  34.923  40.361  14.856
75725W        W34986   4.382  31.431  13.061
75726W        W34987  23.151  16.123  10.963
75727W        W34988   3.899  22.045   3.228
75728W        W34989  32.948  28.434  10.492
75729W        W34990  22.149  31.539  10.641
75730W        W34991  11.361   0.434  11.047
75731W        W34992  20.268  43.370   1.832
75732W        W34993  24.659  24.177   3.171
75733W        W34994  27.108  23.194   3.314
75734W        W34995  37.448  14.110   3.858
75735W        W34996  31.029  16.140  12.452
75736W        W34997  41.332   3.934   0.940
75737W        W34998  19.660  25.581   4.737
75738W        W34999  13.795  30.976   3.685
75739W        W35000  16.643  37.561   4.810
75740W        W35001   9.374  22.619   3.331
75741W        W35002  25.540  26.088   4.226
75742W        W35003  41.448  21.239   1.317
75743W        W35004  44.430  21.071  11.075
75744W        W35005  10.708   5.308  12.837
75745W        W35006   2.894  29.433   3.812
75746W        W35007   0.317   8.233   1.806
75747W        W35008   3.272  22.223   4.738
75748W        W35009  22.642  13.746  14.332
75749W        W35010  39.893   3.445   4.604
75750W        W35011  13.836  10.712   3.204
75751W        W35012  16.607  16.161   0.479
75752W        W35013  22.150   0.819   3.725
75753W        W35014   7.881   3.220   5.584
75754W        W35015   9.815  19.208   0.471
75755W        W35016  30.926  33.057  11.003
75756W        W35017  29.465   5.239   1.335
75757W        W35018  41.428  28.989   0.908
75758W        W35019  20.152   3.444  11.600
75759W        W35020  13.841  28.155  10.156
75760W        W35021  11.177  36.909   2.330
75761W        W35022  28.483  30.086  10.913
75762W        W35023  35.494  32.506  12.890
75763W        W35024   1.272  11.203  14.854
75764W        W35025   8.759  13.822   3.285
75765W        W35026   4.829   5.881  10.480
75766W        W35027   2.776  41.421  12.372
75767W        W35028  42.776   6.247   0.801
75768W        W35029  26.158  32.419  12.519
75769W        W35030  28.086  13.297  12.948
75770W        W35031  21.056  13.127   0.894
75771W        W35032  40.412  32.059  14.015
75772W        W35033  18.052   3.296   1.290
75773W        W35034  43.935  10.256   2.327
75774W        W35035   7.808   8.200  12.840
75775W        W35036   9.848  37.857   0.348
75776W        W35037  29.946  34.935   4.710
75777W        W35038  12.841  25.668  10.973
75778W        W35039   4.373   3.864   2.819
75779W        W35040  40.037  23.113   0.259
75780W        W35041   3.877  43.452   0.809
75781W        W35042  22.126  41.430  12.563
75782W        W35043  31.466   1.473   0.842
75783W        W35044  25.499  15.153   1.287
75784W        W35045  29.541  17.271   0.336
75785W        W35046  21.020  35.077   0.352
75786W        W35047  16.107  17.583  10.134
75787W        W35048  41.460   5.385   1.424
75788W        W35049  28.465  43.931  12.569
75789W        W35050  28.961   7.182  12.572
75790W        W35051   5.897  21.141  13.542
75791W        W35052  26.045   4.818   4.684
75792W        W35053  30.123  15.255   0.396
75793W        W35054  40.333  27.049   0.407
75794W        W35055  35.990  13.722   3.192
75795W        W35056  20.595  22.126  12.487
75796W        W35057  39.345  28.564   9.993
75797W        W35058  13.755   1.341   2.304
75798W        W35059   7.277  35.869  11.457
75799W        W35060  17.792  28.542   1.428
75800W        W35061  36.531   4.339  13.967
75801W        W35062  20.190   3.831  11.875
75802W        W35063  36.980  30.499  14.828
75803W        W35064   8.277  25.533   1.782
75804W        W35065  16.710  20.099  11.495
75805W        W35066   8.179  26.096   0.936
75806W        W35067  23.000  38.881  11.065
75807W        W35068  19.191   1.337  13.359
75808W        W35069   1.474  27.492  13.399
75809W        W35070  38.332   3.918  11.104
75810W        W35071  10.682  39.992  11.047
75811W        W35072   1.915  30.986  10.476
75812W        W35073  13.165   3.362   3.634
75813W        W35074  40.908   3.449  11.116
75814W        W35075  38.406   0.398  10.932
75815W        W35076  34.375  30.941   3.368
75816W        W35077  27.546  43.410   4.202
75817W        W35078  40.401  36.889   1.698
75818W        W35079   7.806  22.572  14.774
75819W        W35080  25.147  38.434  14.847
75820W        W35081  15.751   4.310  11.994
75821W        W35082  22.596  38.000   2.828
75822W        W35083  37.521   2.840   4.806
75823W        W35084  21.224   3.941  11.995
75824W        W35085  18.224  16.756  12.357
75825W        W35086  24.187   0.983   0.447
75826W        W35087  38.531   8.834  11.080
75827W        W35088  32.463  28.001   2.240
75828W        W35089  25.085  35.083  14.962
75829W        W35090  14.603  22.588  13.851
75830W        W35091  34.555  14.325  11.425
75831W        W35092  42.862   7.843   3.284
75832W        W35093  28.117  33.406  11.569
75833W        W35094  39.450  28.638  11.902
75834W        W35095   8.272   9.791   5.568
75835W        W35096  22.158  24.990  12.435
75836W        W35097   9.864  15.813  12.505
75837W        W35098  34.490  10.752   1.300
75838W        W35099  27.451  37.454   3.352
75839W        W35100  36.890  37.008   3.195
75840W        W35101  40.402  35.924  12.384
75841W        W35102   8.299  40.428   1.853
75842W        W35103  44.267  29.540   2.259
75843W        W35104  31.474  37.541  12.451
75844W        W35105  41.439  31.425   1.438
75845W        W35106  26.127   2.743  12.893
75846W        W35107  37.895  24.590   1.228
75847W        W35108  23.617  30.005   4.141
75848W        W35109  41.387  25.675   1.768
75849W        W35110  24.113  14.825  14.331
75850W        W35111  35.870  10.722  13.493
75851W        W35112   1.925  42.881   0.245
75852W        W35113  27.169  29.042   0.816
75853W        W35114  20.250  24.634   2.397
75854W        W35115  43.355  25.981   1.839
75855W        W35116   6.251  22.705  13.853
75856W        W35117  38.495  43.010   3.831
75857W        W35118  44.811  31.019  13.869
75858W        W35119  30.051   6.683  14.461
75859W        W35120  40.408   1.905   1.812
75860W        W35121  39.934  13.318   3.774
75861W        W35122  26.975  27.628  11.567
75862W        W35123  42.849   2.272  10.958
75863W        W35124  38.954   3.237  10.160
75864W        W35125  11.168  22.588  11.396
75865W        W35126  11.139  41.857  14.946
75866W        W35127  40.349  23.504   2.732
75867W        W35128  44.954  32.073  11.579
75868W        W35129  13.227  13.316   1.412
75869W        W35130  41.419  21.191  13.895
75870W        W35131   7.856  37.555   4.345
75871W        W35132  39.473  30.492   4.301
75872W        W35133   7.374   9.734  12.942
75873W        W35134   7.730  22.640   3.354
75874W        W35135  28.663  16.247   3.708
75875W        W35136  26.614  19.772   2.793
75876W        W35137  31.429  22.217  13.052
75877W        W35138   8.891  37.507   4.221
75878W        W35139  43.890  40.467  10.464
75879W        W35140   8.784  25.164  11.067
75880W        W35141  11.767  32.452   1.411
75881W        W35142  22.590  40.347   3.854
75882W        W35143  24.029  24.613  13.527
75883W        W35144  25.471  22.732  14.904
75884W        W35145  26.557  33.481  12.397
75885W        W35146  40.359  23.063   3.833
75886W        W35147   7.304  18.722  12.491
75887W        W35148  26.020   9.732  14.019
75888W        W35149   0.820  13.279   3.773
75889W        W35150  42.419  42.478  12.378
75890W        W35151  44.432  19.217  11.608
75891W        W35152  27.649  19.217   0.821
75892W        W35153  14.336   4.816   3.374
75893W        W35154  35.500   8.764  14.822
75894W        W35155  13.765  32.141  12.408
75895W        W35156  29.093  20.144  11.937
75896W        W35157  22.624  32.080  11.423
75897W        W35158  38.958  12.613  11.376
75898W        W35159  38.978   9.646   0.443
75899W        W35160  30.573  33.554  10.623
75900W        W35161  17.129  17.135   5.299
75901W        W35162  20.115  23.697  12.385
75902W        W35163  25.572   1.949  12.984
75903W        W35164  10.639  38.549   1.298
75904W        W35165  17.224  12.789  10.009
75905W        W35166  10.689  38.845   0.388
75906W        W35167  10.173  43.453   3.649
75907W        W35168  20.716  11.837   1.291
75908W        W35169  31.427  18.586  11.560
75909W        W35170  28.093  44.814  12.521
75910W        W35171  43.458  30.508  13.001
75911W        W35172  11.245  34.036   4.229
75912W        W35173   8.206   7.315   5.257
75913W        W35174  18.770  35.960  14.413
75914W        W35175  24.197  44.387   3.806
75915W        W35176  42.005  18.271   3.830
75916W        W35177  29.475  38.919  11.385
75917W        W35178   6.741  21.028  11.440
75918W        W35179  36.843  40.984   0.340
75919W        W35180  23.705  32.597   0.963
75920W        W35181  35.903  19.584  11.944
75921W        W35182  26.158   5.792   3.341
75922W        W35183  14.287   9.284  14.321
75923W        W35184  13.315  26.588   2.852
75924W        W35185   9.764  39.893   0.460
75925W        W35186  24.574  25.183  12.408
75926W        W35187  23.553  31.580   1.726
75927W        W35188   7.775  36.404  10.494
75928W        W35189   9.366  15.736  13.986
75929W        W35190  32.537  32.925  12.826
75930W        W35191  24.514  18.198  13.449
75931W        W35192  10.811  25.494   1.213
75932W        W35193  24.695  40.906   4.746
75933W        W35194  32.032  14.329   4.771
75934W        W35195  28.457  25.983   3.190
75935W        W35196   7.339  22.729  10.523
75936W        W35197  38.968  32.487  12.478
75937W        W35198   0.896  40.033   4.765
75938W        W35199   0.466  21.740   3.813
75939W        W35200  25.024  34.597   0.412
75940W        W35201  13.107  25.524  11.402
75941W        W35202  35.103  24.133  11.480
75942W        W35203  38.867  33.457  11.592
75943W        W35204   7.285  34.060   4.718
75944W        W35205  33.058  24.054   3.655
75945W        W35206  27.089  12.221  14.776
75946W        W35207  27.141  36.430  12.522
75947W        W35208  39.453  41.398  13.973
75948W        W35209  10.238  18.561  10.944
75949W        W35210  29.038  42.911   1.709
75950W        W35211  40.843  37.072   3.703
75951W        W35212  10.272  30.979   4.297
75952W        W35213  26.079  44.487   0.266
75953W        W35214   8.303   3.310   4.617
75954W        W35215   2.358  10.732   4.303
75955W        W35216  17.661  15.211  10.523
75956W        W35217  11.268  28.049  11.921
75957W        W35218  18.604   0.893   1.904
75958W        W35219  11.225  12.298   2.386
75959W        W35220  36.574  28.145  14.768
75960W        W35221   6.732  31.465  12.086
75961W        W35222  19.608  32.934   1.798
75962W        W35223  42.285  25.616   3.696
75963W        W35224  43.973   7.270   4.752
75964W        W35225  19.079  39.337  13.852
75965W        W35226  41.293  37.838   1.315
75966W        W35227   7.806   8.207  13.546
75967W        W35228  35.025   7.220  14.840
75968W        W35229  12.764   4.791  13.508
75969W        W35230  14.300  30.947  14.808
75970W        W35231   9.846  44.373  12.556
75971W        W35232  19.045  34.951   3.707
75972W        W35233  22.599  13.272  13.861
75973W        W35234  29.120   0.775   3.798
75974W        W35235  40.312   1.844   2.818
75975W        W35236  41.808  22.700  11.940
75976W        W35237  17.662   2.952   2.666
75977W        W35238  10.674  41.337   4.806
75978W        W35239  14.297  38.917   5.125
75979W        W35240  16.763  24.656   0.916
75980W        W35241   2.892  30.946  14.800
75981W        W35242  27.043   9.666  11.053
75982W        W35243  35.365   4.240   3.864
75983W        W35244  33.609  22.035  11.997
75984W        W35245  27.963  22.088  13.037
75985W        W35246  38.916  18.586  11.465
75986W        W35247  27.524  33.996   0.261
75987W        W35248  20.135   0.469   9.930
75988W        W35249  26.038  16.095   3.749
75989W        W35250  30.004  24.155  12.502
75990W        W35251  12.628   8.189  12.892
75991W        W35252  22.249   8.311   4.232
75992W        W35253  16.293  22.220   4.191
75993W        W35254   7.852  38.960   2.883
75994W        W35255  33.064  11.819   2.193
75995W        W35256  28.028  37.422   5.102
75996W        W35257  38.052  20.096   0.410
75997W        W35258   3.354   3.908   4.160
75998W        W35259  36.502   1.837   2.221
75999W        W35260   5.705  12.248   4.188
76000W        W35261  27.445  22.181   0.847
76001W        W35262  24.646  28.044   3.240
76002W        W35263   7.873   9.686   3.746
76003W        W35264  25.164  34.907   4.331
76004W        W35265  41.361  35.055   4.827
76005W        W35266  37.474  28.108  11.397
76006W        W35267   6.905   3.345   1.789
76007W        W35268  29.587  33.600  13.997
76008W        W35269  12.213  41.375   1.293
76009W        W35270  18.194  21.107  12.904
76010W        W35271  23.218  41.854  12.869
76011W        W35272  29.939  42.321   2.248
76012W        W35273   3.776  20.223   2.242
76013W        W35274   0.981  25.661  11.112
76014W        W35275  32.014   7.812   5.157
76015W        W35276  13.730   3.447  14.796
76016W        W35277  41.874  32.393  10.959
76017W        W35278  29.155  29.950  13.047
76018W        W35279  10.756  15.144  12.896
76019W        W35280  21.544  10.165   3.302
76020W        W35281  27.503   4.326   0.772
76021W        W35282  10.786  13.218  10.426
76022W        W35283  27.088  41.367   1.779
76023W        W35284  10.751  32.470   3.857
76024W        W35285  17.239  44.502  13.498
76025W        W35286  40.473  18.187   1.846
76026W        W35287  26.558  32.405  11.040
76027W        W35288  17.666  34.561   3.359
76028W        W35289  37.876   6.279  14.352
76029W        W35290  39.947   5.235  14.401
76030W        W35291   1.379  26.198  13.347
76031W        W35292  10.349   2.749  13.959
76032W        W35293  10.690  34.914  14.784
76033W        W35294  33.923  43.354   0.877
76034W        W35295  28.443  12.337   4.641
76035W        W35296  28.627  14.200   3.183
76036W        W35297  26.191   8.248   4.113
76037W        W35298  25.214  10.293  12.010
76038W        W35299  11.707   2.314  14.481
76039W        W35300   2.835  29.585   3.255
76040W        W35301  28.986  14.280  12.406
76041W        W35302  21.579  15.088   0.839
76042W        W35303  27.127   1.945  10.133
76043W        W35304  42.491  38.039   2.889
76044W        W35305   5.819  26.024  10.473
76045W        W35306  22.221  29.475   2.738
76046W        W35307  17.146   5.734   1.341
76047W        W35308  13.784  20.737   1.249
76048W        W35309   2.725  28.460   4.823
76049W        W35310   3.258  39.994  12.562
76050W        W35311  24.599  24.590   1.316
76051W        W35312  15.124  38.976  11.935
76052W        W35313  10.150  18.237   1.825
76053W        W35314  19.262  17.638   5.124
76054W        W35315  11.778  12.205  13.520
76055W        W35316  16.758  10.735  11.525
76056W        W35317  13.253  21.637   1.241
76057W        W35318  39.047   0.904   3.685
76058W        W35319  18.671  42.303  12.525
76059W        W35320  37.957   7.756  13.833
76060W        W35321  37.870  19.644   1.216
76061W        W35322  31.976  10.168   4.320
76062W        W35323  30.429  30.417  11.892
76063W        W35324   0.804  12.339   3.822
76064W        W35325   3.776  23.714  10.539
76065W        W35326  22.134  31.147  11.080
76066W        W35327  10.221  23.234   0.336
76067W        W35328  10.210  33.893  10.608
76068W        W35329  31.526  11.260   0.895
76069W        W35330  21.067  27.643  10.635
76070W        W35331   8.237  29.101   1.274
76071W        W35332  21.587   9.276   0.783
76072W        W35333  10.783  30.452   2.185
76073W        W35334  21.197  31.513  12.342
76074W        W35335  27.165  17.123  10.061
76075W        W35336  37.551   9.744   2.833
76076W        W35337  37.050  20.631  14.904
76077W        W35338   8.339  34.119  13.868
76078W        W35339  11.797  20.693  14.303
76079W        W35340  10.228   9.150   4.120
76080W        W35341  11.792   1.365   3.647
76081W        W35342  17.112  22.514  13.329
76082W        W35343  13.200  31.521  14.768
76083W        W35344  38.935  42.817  11.045
76084W        W35345   9.780  21.650   4.597
76085W        W35346  42.961  37.034   1.783
76086W        W35347  29.123  23.102  13.871
76087W        W35348   1.378  19.119   4.697
76088W        W35349  39.454  39.036   9.966
76089W        W35350  17.751  28.623   4.785
76090W        W35351  18.187  41.887  10.901
76091W        W35352  15.686   8.171   1.245
76092W        W35353  16.087  12.182  13.896
76093W        W35354  21.063   8.719   2.696
76094W        W35355  33.442  10.724   0.962
76095W        W35356   9.814  43.878  13.797
76096W        W35357  24.485  41.042  14.278
76097W        W35358  27.606  30.615  13.533
76098W        W35359  20.136  39.407  14.440
76099W        W35360   7.705  36.419  11.122
76100W        W35361  27.660  26.955   0.275
76101W        W35362  35.465  39.443  14.956
76102W        W35363  29.967  44.495   3.257
76103W        W35364  16.258   9.368  13.004
76104W        W35365  36.482  20.565   3.691
76105W        W35366  42.780  34.578  12.996
76106W        W35367  44.933  31.122  13.364
76107W        W35368  36.498  35.943  10.568
76108W        W35369   7.791  11.200  14.862
76109W        W35370  13.795  10.251   1.807
76110W        W35371  26.074  24.566  12.368
76111W        W35372  25.984  39.543  13.921
76112W        W35373  18.081  23.700   3.151
76113W        W35374  13.239  19.671   0.963
76114W        W35375  11.657  13.817   3.733
76115W        W35376   6.317  26.608   2.291
76116W        W35377  39.902   0.251   3.850
76117W        W35378  26.618   2.905   0.948
76118W        W35379  33.474  33.058  12.462
76119W        W35380  13.811  37.988  11.560
76120W        W35381  43.506  39.064  10.602
76121W        W35382   0.834   1.752  12.498
76122W        W35383  21.648  39.972   3.301
76123W        W35384  10.875  13.696  14.996
76124W        W35385  31.091  36.954   0.918
76125W        W35386  33.057  44.993   1.864
76126W        W35387   8.742  38.541   0.786
76127W        W35388   3.460  37.495  12.865
76128W        W35389  37.973  32.537  12.581
76129W        W35390  29.107  13.779   1.930
76130W        W35391  29.022   6.327  14.452
76131W        W35392  44.845  33.996   9.512
76132W        W35393  15.693   3.939   0.925
76133W        W35394  23.596  33.597   0.909
76134W        W35395  36.570  11.138   1.213
76135W        W35396  14.802   3.871   1.327
76136W        W35397  21.602  37.491   5.199
76137W        W35398  21.705  35.397  10.892
76138W        W35399  31.918  28.944  14.925
76139W        W35400  22.115   8.839  13.825
76140W        W35401  43.375  11.841  11.436
76141W        W35402  24.205  21.213  13.837
76142W        W35403   2.745  35.991  10.999
76143W        W35404  10.215  44.960   1.222
76144W        W35405  16.209  29.649   2.410
76145W        W35406  17.269   6.364  14.944
76146W        W35407   4.942   6.764   5.697
76147W        W35408  19.244  34.568  13.328
76148W        W35409  21.036  31.440   3.653
76149W        W35410  14.340  18.544  12.973
76150W        W35411  19.715  41.922  13.916
76151W        W35412  29.460  44.002   2.308
76152W        W35413  19.057  21.526  13.512
76153W        W35414  39.049   5.375  10.087
76154W        W35415  39.955  41.516  14.511
76155W        W35416  13.767  39.433   2.307
76156W        W35417  28.565  17.615  14.281
76157W        W35418  43.505   2.829  10.643
76158W        W35419   0.917  30.931   2.841
76159W        W35420  19.723  14.633   2.415
76160W        W35421  40.420  34.027   0.745
76161W        W35422   1.864  19.710   1.727
76162W        W35423  28.993  39.879   1.699
76163W        W35424  13.350  28.635  12.008
76164W        W35425  38.961   9.305  13.471
76165W        W35426  21.083  18.697  14.487
76166W        W35427  13.228  41.410  12.901
76167W        W35428  13.788  11.635  11.396
76168W        W35429  11.349  35.583   0.396
76169W        W35430   2.766  23.530   2.262
76170W        W35431  12.210  29.168  10.466
76171W        W35432  31.023  14.817   3.308
76172W        W35433  10.234  15.704   5.135
76173W        W35434  33.542  30.939   4.310
76174W        W35435  32.026  21.751  13.955
76175W        W35436   9.783  42.905   4.219
76176W        W35437  34.114  21.160  10.567
76177W        W35438   3.371  24.040   3.304
76178W        W35439  29.937   0.457   4.138
76179W        W35440  36.001   5.356   1.422
76180W        W35441  14.829  26.512   4.778
76181W        W35442  25.213  12.338   2.252
76182W        W35443  37.448  28.095  14.302
76183W        W35444  37.882  35.093  13.341
76184NA+    NA+35445  36.078   5.692   3.792
76185NA+    NA+35446  40.984  36.567  11.425
76186NA+    NA+35447  35.910  42.993   0.282
76187NA+    NA+35448  35.914  34.373  12.898
76188NA+    NA+35449  33.397  40.941  10.541
76189NA+    NA+35450  22.021  38.524  10.909
76190NA+    NA+35451  36.963  17.206  12.017
76191NA+    NA+35452  39.013  22.660  13.548
76192NA+    NA+35453  11.138   9.295  14.929
76193NA+    NA+35454  29.573  33.919   4.606
76194NA+    NA+35455  36.581   6.395  13.830
76195NA+    NA+35456  32.402  10.768  14.393
76196NA+    NA+35457   7.276  35.479   1.899
76197NA+    NA+35458  21.658  42.831  11.032
76198NA+    NA+35459   3.276   3.851  14.002
76199NA+    NA+35460  26.475  16.238   3.750
76200NA+    NA+35461  17.616   0.472   2.401
76201NA+    NA+35462  24.540  36.562   1.278
76202NA+    NA+35463  21.524  37.414  13.397
76203NA+    NA+35464  21.033  24.045   2.716
76204NA+    NA+35465  36.967   6.699  14.810
76205NA+    NA+35466  23.199  19.152  11.375
76206NA+    NA+35467   7.212  29.519   3.232
76207NA+    NA+35468   7.393  13.261   0.334
76208NA+    NA+35469  14.604  34.423  14.841
76209NA+    NA+35470   3.452   6.914  14.983
76210NA+    NA+35471   9.668  33.012  13.458
76211NA+    NA+35472  43.824  38.412  11.566
76212NA+    NA+35473  40.991   6.711   1.860
76213NA+    NA+35474   0.919  37.994  11.005
76214NA+    NA+35475  36.045  42.806  11.117
76215NA+    NA+35476  30.450  11.708  12.428
76216NA+    NA+35477  19.558  24.188   2.792
76217NA+    NA+35478  31.093   9.308   4.340
76218NA+    NA+35479  18.076  10.148   2.888
76219NA+    NA+35480  28.497  40.326  13.818
76220NA+    NA+35481  30.463   2.799  14.311
76221NA+    NA+35482  35.547  29.175   4.621
76222NA+    NA+35483  25.559   8.744   3.673
76223NA+    NA+35484  34.915  26.162   0.750
76224NA+    NA+35485  41.316  43.386  14.892
76225NA+    NA+35486  18.050  22.206  14.849
76226NA+    NA+35487  34.609  43.397  12.455
76227NA+    NA+35488  14.256  35.042   3.193
76228NA+    NA+35489   1.807  37.071  10.992
76229NA+    NA+35490  24.499   7.757   4.265
76230NA+    NA+35491  20.565  12.660   2.839
76231NA+    NA+35492  10.672  22.706   2.720
76232NA+    NA+35493  22.530  16.149   2.749
76233NA+    NA+35494  16.623   3.927   9.646
76234NA+    NA+35495   3.884   9.370   0.931
76235NA+    NA+35496  40.903  34.444  10.562
76236NA+    NA+35497  42.817   3.427   3.366
76237NA+    NA+35498  39.410  37.925  12.408
76238NA+    NA+35499  17.121  25.562  11.392
76239NA+    NA+35500  25.662  42.335  11.969
76240NA+    NA+35501   8.204  35.388  12.342
76241NA+    NA+35502  33.996   5.765   2.847
76242NA+    NA+35503  29.454  13.612   2.280
76243NA+    NA+35504  37.844  18.152   0.411
76244NA+    NA+35505  26.127  21.739   3.807
76245NA+    NA+35506  16.247  19.780   0.862
76246NA+    NA+35507  11.694  13.730  11.408
76247NA+    NA+35508  36.577  25.068  14.812
76248NA+    NA+35509  34.601  27.663  13.999
76249NA+    NA+35510  18.102   0.911  12.068
76250NA+    NA+35511   6.415  14.153   4.609
76251NA+    NA+35512  16.794  39.516  13.947
76252NA+    NA+35513  34.538   8.732  14.880
76253NA+    NA+35514   8.366  32.402   4.152
76254NA+    NA+35515  19.703  38.916   4.205
76255NA+    NA+35516  43.513   3.325  14.330
76256NA+    NA+35517  39.330  35.863   0.902
76257NA+    NA+35518  44.318  19.156  11.880
76258NA+    NA+35519  13.113  33.986  11.551
76259NA+    NA+35520  40.431  38.471   4.291
76260NA+    NA+35521  29.054   6.725   4.139
76261NA+    NA+35522  36.922  12.644   0.401
76262NA+    NA+35523   8.721  12.634  10.932
76263NA+    NA+35524  25.693  13.150  11.392
76264NA+    NA+35525  29.085  32.433  14.954
76265NA+    NA+35526  20.075  10.862   2.400
76266NA+    NA+35527  14.215  42.945   2.718
76267NA+    NA+35528  19.174  31.619   4.787
76268NA+    NA+35529   9.265   7.672   2.787
76269NA+    NA+35530  42.429  30.165   4.302
76270NA+    NA+35531  18.712  13.283  12.064
76271NA+    NA+35532  30.520   8.892   2.764
76272NA+    NA+35533  12.304  11.313  13.398
76273NA+    NA+35534  25.153  35.068   1.820
76274NA+    NA+35535  36.860  39.851   0.466
76275NA+    NA+35536   6.694  31.495  14.964
76276NA+    NA+35537  12.698  36.437   1.883
76277NA+    NA+35538  43.423  39.934   9.986
76278NA+    NA+35539  40.921  44.388  14.323
76279NA+    NA+35540   3.767  18.068  12.538
76280NA+    NA+35541  13.330  12.662   1.708
76281NA+    NA+35542  28.611  16.649   4.253
76282NA+    NA+35543  34.588   8.799  10.468
76283NA+    NA+35544  29.147   3.457   2.365
76284NA+    NA+35545  33.958  30.415  14.923
76285NA+    NA+35546  33.429  24.516  12.916
76286NA+    NA+35547  37.338  28.446   1.292
76287NA+    NA+35548  43.010  20.597   9.498
76288NA+    NA+35549  42.009  34.046   0.920
76289NA+    NA+35550  24.071   4.708   0.856
76290NA+    NA+35551   5.771  39.030  14.296
76291NA+    NA+35552  22.995  38.419  10.417
76292NA+    NA+35553   1.897  39.348   4.644
76293NA+    NA+35554   2.249   1.901   2.351
76294NA+    NA+35555  15.166  21.244   1.358
76295NA+    NA+35556  23.676  15.286  12.064
76296NA+    NA+35557  27.102  40.339   1.413
76297NA+    NA+35558  25.199   2.916  12.838
76298NA+    NA+35559  16.195  21.595   4.615
76299NA+    NA+35560  12.753  23.124  13.796
76300NA+    NA+35561  27.546  39.444  14.334
76301NA+    NA+35562  39.419  44.010   1.819
76302NA+    NA+35563  28.062  39.537  10.918
76303NA+    NA+35564  25.065  20.274  11.488
76304NA+    NA+35565  38.071  28.016  11.570
76305NA+    NA+35566   9.282  38.438  11.010
76306NA+    NA+35567   3.833  43.484  14.765
76307NA+    NA+35568  44.916  31.078  14.495
76308NA+    NA+35569  37.581  38.044  11.503
76309NA+    NA+35570  33.922  28.439  13.858
76310NA+    NA+35571  41.940  12.659   4.138
76311NA+    NA+35572  38.872  43.781  13.529
76312NA+    NA+35573  18.668  13.262   2.371
76313NA+    NA+35574  23.719  26.500   2.901
76314NA+    NA+35575  28.067   5.271  12.053
76315NA+    NA+35576  39.402  43.915  14.418
76316NA+    NA+35577  16.716  16.596   1.751
76317NA+    NA+35578  22.060  28.956   2.800
76318NA+    NA+35579  13.220  32.949   0.459
76319NA+    NA+35580  24.509  23.990  11.125
76320NA+    NA+35581  32.491   2.368   1.222
76321NA+    NA+35582  10.298  15.316  10.552
76322NA+    NA+35583  36.081  21.698   3.811
76323NA+    NA+35584  38.532  20.057   0.459
76324NA+    NA+35585   4.415  14.779  10.908
76325NA+    NA+35586  43.330  33.457  12.875
76326NA+    NA+35587  19.534  23.989  13.488
76327NA+    NA+35588  29.641  30.915  10.922
76328NA+    NA+35589  34.030  30.988   3.782
76329NA+    NA+35590   5.365  17.241   0.396
76330NA+    NA+35591   6.316  20.231   0.737
76331NA+    NA+35592  38.994  38.886   2.871
76332NA+    NA+35593  22.068   9.646  14.770
76333NA+    NA+35594  20.673  18.553   3.170
76334NA+    NA+35595  14.274  21.084  10.488
76335NA+    NA+35596   7.346  28.444   3.158
76336NA+    NA+35597  41.528  19.046  14.818
76337NA+    NA+35598   2.965  43.364   0.473
76338NA+    NA+35599  40.880   1.356  10.906
76339NA+    NA+35600  18.636  34.016  14.817
76340NA+    NA+35601  19.102  17.150   2.343
76341NA+    NA+35602  44.333  29.537  14.308
76342NA+    NA+35603  39.925  44.786   0.730
76343NA+    NA+35604  15.236  16.081   4.189
76344NA+    NA+35605   6.712  26.478  14.826
76345NA+    NA+35606  19.192  29.161  14.771
76346NA+    NA+35607   5.740  31.992  11.096
76347NA+    NA+35608  26.066  11.207   1.370
76348NA+    NA+35609   6.227  17.752  11.876
76349NA+    NA+35610  34.376  41.004   0.884
76350NA+    NA+35611   0.845  19.120  10.615
76351NA+    NA+35612  10.681  32.133   1.795
76352NA+    NA+35613  17.647  39.520  13.354
76353NA+    NA+35614   6.194  22.166   0.276
76354NA+    NA+35615   0.757  18.564  10.917
76355NA+    NA+35616  24.079  31.923   1.695
76356NA+    NA+35617  19.064  21.091   1.853
76357NA+    NA+35618  33.891  33.404  10.000
76358NA+    NA+35619  29.491  27.969  13.907
76359NA+    NA+35620  40.961  43.292  12.360
76360NA+    NA+35621  10.743  21.656  11.107
76361NA+    NA+35622   2.868  19.240  12.361
76362NA+    NA+35623   2.421   0.255   0.336
76363NA+    NA+35624  42.431  37.969   4.817
76364NA+    NA+35625   3.823   1.967   2.769
76365NA+    NA+35626   7.216   5.862   4.346
76366NA+    NA+35627  27.195  18.226  10.540
76367NA+    NA+35628  29.471  14.804   0.753
76368NA+    NA+35629  18.277  10.779   0.271
76369NA+    NA+35630  27.590  38.937   3.669
76370NA+    NA+35631  10.383  14.306  10.017
76371NA+    NA+35632   1.961  14.326  10.902
76372NA+    NA+35633  34.370   6.877   2.686
76373NA+    NA+35634  22.220  22.225  12.042
76374NA+    NA+35635  27.155  14.735   0.817
76375NA+    NA+35636  27.037  17.251  11.502
76376NA+    NA+35637  36.575  26.164   4.172
76377NA+    NA+35638  16.781  18.566  13.308
76378NA+    NA+35639  25.468  44.368  11.992
76379NA+    NA+35640  40.959   0.472   1.800
76380NA+    NA+35641  11.741   9.795   1.225
76381NA+    NA+35642  37.946  32.632   0.345
76382NA+    NA+35643   3.806  41.328   2.347
76383NA+    NA+35644  25.558   0.834  11.881
76384NA+    NA+35645   0.967  33.426  13.980
76385NA+    NA+35646  42.357  25.183   1.700
76386NA+    NA+35647  20.177  15.626  12.422
76387NA+    NA+35648  16.593  36.350   1.847
76388NA+    NA+35649  31.086  39.411  11.077
76389NA+    NA+35650   7.325  27.076  11.502
76390NA+    NA+35651  40.548  16.155  10.160
76391NA+    NA+35652  15.689  21.640  14.768
76392NA+    NA+35653  21.520  36.842  11.496
76393NA+    NA+35654   7.719  22.187  12.341
76394NA+    NA+35655  34.971   2.350  13.439
76395NA+    NA+35656  21.536  39.452   1.810
76396NA+    NA+35657  27.057  34.370   2.871
76397NA+    NA+35658  39.516   7.175   2.822
76398NA+    NA+35659  42.450  19.097  14.457
76399NA+    NA+35660  26.637  29.077  13.383
76400NA+    NA+35661   6.760  12.340  12.535
76401NA+    NA+35662  40.491   8.327   2.302
76402NA+    NA+35663  27.653  30.967   0.324
76403NA+    NA+35664  37.353   1.838   4.790
76404NA+    NA+35665  10.273  33.920  11.023
76405NA+    NA+35666  37.918  31.121  12.907
76406NA+    NA+35667   9.851   4.798   5.568
76407NA+    NA+35668   9.350  44.799  12.010
76408NA+    NA+35669  37.861  27.989   4.801
76409NA+    NA+35670  32.980  22.250  10.926
76410NA+    NA+35671   1.838  40.054  13.443
76411NA+    NA+35672  32.528  19.644  14.875
76412NA+    NA+35673   7.875  26.630  12.420
76413NA+    NA+35674  19.773  43.853  11.062
76414NA+    NA+35675  27.194  25.136   2.230
76415NA+    NA+35676  16.775  11.713  12.838
76416NA+    NA+35677  39.333   0.448  12.572
76417NA+    NA+35678  27.513  10.310  10.631
76418NA+    NA+35679  23.028  37.344   2.360
76419NA+    NA+35680  36.922   2.821  14.298
76420NA+    NA+35681  35.410  19.617  10.450
76421NA+    NA+35682  12.699  44.357   1.318
76422NA+    NA+35683  41.896  38.533   4.290
76423NA+    NA+35684  10.367  24.669  13.342
76424NA+    NA+35685  22.013  34.989  11.975
76425NA+    NA+35686  40.484  43.301  11.447
76426NA+    NA+35687  34.413  25.200  12.349
76427NA+    NA+35688  18.692   4.940   3.146
76428NA+    NA+35689  40.952  13.165  13.416
76429NA+    NA+35690  28.065  11.330   4.271
76430NA+    NA+35691  22.149  38.485   4.643
76431NA+    NA+35692  31.943   9.824   3.664
76432NA+    NA+35693   3.360  40.857   4.259
76433NA+    NA+35694   7.334  30.062  11.481
76434NA+    NA+35695  22.533  43.420   1.270
76435NA+    NA+35696  29.990  13.687  10.508
76436NA+    NA+35697  11.841  27.517   2.703
76437NA+    NA+35698  43.331  13.823   4.154
76438NA+    NA+35699  30.137  26.700   0.311
76439NA+    NA+35700  44.829  37.453   2.178
76440NA+    NA+35701  17.566  29.499   0.869
76441NA+    NA+35702   7.379  31.587   3.268
76442NA+    NA+35703  17.110   1.743  12.437
76443NA+    NA+35704  12.340  19.566   4.770
76444NA+    NA+35705  21.253   3.840  14.304
76445NA+    NA+35706  13.605  26.526   3.700
76446NA+    NA+35707  20.189  10.697  14.822
76447NA+    NA+35708   9.689  32.592  13.054
76448NA+    NA+35709   6.218  25.136  10.516
76449NA+    NA+35710  39.882  12.124  11.577
76450NA+    NA+35711  24.577  35.082  12.556
76451NA+    NA+35712   5.787   0.303  12.455
76452NA+    NA+35713  36.860  34.540  10.952
76453NA+    NA+35714  16.655  25.132   2.362
76454NA+    NA+35715  17.075   1.429   3.271
76455NA+    NA+35716  44.758  31.973   1.916
76456NA+    NA+35717  28.122   0.493  11.538
76457NA+    NA+35718  26.177  17.781   2.241
76458NA+    NA+35719  25.041  26.973  14.797
76459NA+    NA+35720  16.153  36.867  13.546
76460NA+    NA+35721  16.730  20.667  10.903
76461NA+    NA+35722   1.323  17.102  10.914
76462NA+    NA+35723  36.877   0.765  12.416
76463NA+    NA+35724  36.492  13.307  11.422
76464NA+    NA+35725  41.915  13.641   1.425
76465NA+    NA+35726   1.837   5.750  13.026
76466NA+    NA+35727  16.150  28.657  10.942
76467NA+    NA+35728  13.230  28.954   4.667
76468NA+    NA+35729   9.242  43.875   0.423
76469NA+    NA+35730   9.281  20.204   2.358
76470NA+    NA+35731   7.735  35.407   2.226
76471NA+    NA+35732  24.004   4.873  14.934
76472NA+    NA+35733  16.705  21.076  10.939
76473NA+    NA+35734   7.334  34.497   2.257
76474NA+    NA+35735  33.616   8.361   0.798
76475NA+    NA+35736  44.386  19.751   5.228
76476NA+    NA+35737  38.445  42.809   1.381
76477NA+    NA+35738  36.415  28.541  13.034
76478NA+    NA+35739   0.327  40.860   3.213
76479NA+    NA+35740  27.591  23.679   0.334
76480NA+    NA+35741   8.360  16.314  12.510
76481NA+    NA+35742  33.993  34.518  11.889
76482NA+    NA+35743   1.956  27.671   3.177
76483NA+    NA+35744   0.386  21.204  14.833
76484NA+    NA+35745  40.838  34.474   3.315
76485NA+    NA+35746  25.218  13.613  10.935
76486NA+    NA+35747  13.776  14.779   3.803
76487NA+    NA+35748  18.721  39.882   2.308
76488NA+    NA+35749  20.074  27.540   1.897
76489NA+    NA+35750  36.356  34.875   1.280
76490NA+    NA+35751  31.986  12.245  14.459
76491NA+    NA+35752  35.416  40.497  11.457
76492NA+    NA+35753  35.569  29.625  13.052
76493NA+    NA+35754  15.682   6.818   3.150
76494NA+    NA+35755   9.779  31.995  14.822
76495NA+    NA+35756  34.380  41.380   4.809
76496NA+    NA+35757  36.914  18.147  12.408
76497NA+    NA+35758   6.726  10.279   4.816
76498NA+    NA+35759  32.900   5.224   4.350
76499NA+    NA+35760   8.209   1.754  13.058
76500NA+    NA+35761   9.151   6.361  14.022
76501NA+    NA+35762  36.038  43.325   4.207
76502NA+    NA+35763  22.528   7.678  12.551
76503NA+    NA+35764  18.675  25.109   1.341
76504NA+    NA+35765  35.429  36.968   1.278
76505NA+    NA+35766   0.358  23.614  10.899
76506NA+    NA+35767  18.670  16.086  14.315
76507NA+    NA+35768  17.261   4.274   0.476
76508NA+    NA+35769   2.275  19.683   2.684
76509NA+    NA+35770  39.400  16.724  13.034
76510NA+    NA+35771  29.969  34.575  11.391
76511NA+    NA+35772   5.325  36.518   4.322
76512NA+    NA+35773   0.309  38.006   3.638
76513NA+    NA+35774  27.952  40.807  14.779
76514NA+    NA+35775  11.698   3.341   1.839
76515NA+    NA+35776  23.217   7.279   1.879
76516NA+    NA+35777  23.141  11.372  13.390
76517NA+    NA+35778  12.697   5.694  11.519
76518NA+    NA+35779  44.364  23.634   0.893
76519NA+    NA+35780  35.868  10.373   1.735
76520NA+    NA+35781  11.273  36.003   0.470
76521NA+    NA+35782  18.657   3.283   1.912
76522NA+    NA+35783  42.814  12.656  11.120
76523NA+    NA+35784  17.249  10.808   1.296
76524NA+    NA+35785   7.668  31.647  14.820
76525NA+    NA+35786  44.272  23.541   3.196
76526NA+    NA+35787   1.958   9.848   2.882
76527NA+    NA+35788  16.264  12.300   0.858
76528NA+    NA+35789  30.571   3.896  12.856
76529NA+    NA+35790   4.326   2.247   1.309
76530NA+    NA+35791  30.464   6.698   2.387
76531NA+    NA+35792  25.200  39.819  14.987
76532NA+    NA+35793  21.658  40.950   0.288
76533NA+    NA+35794  43.344   5.313  11.035
76534NA+    NA+35795  24.016  38.391  13.036
76535NA+    NA+35796  24.609  10.645   1.763
76536NA+    NA+35797  17.248   2.278   1.750
76537NA+    NA+35798   2.803  43.863  12.911
76538NA+    NA+35799  36.434  14.623   3.285
76539NA+    NA+35800  23.631  43.318   2.721
76540NA+    NA+35801  43.917  33.086   3.780
76541NA+    NA+35802  28.016  26.046  11.871
76542NA+    NA+35803  26.538  29.127   0.954
76543NA+    NA+35804  30.578  21.576  13.538
76544NA+    NA+35805   0.890  17.718  13.996
76545NA+    NA+35806   4.782  18.157   1.284
76546NA+    NA+35807   6.378  36.579  11.984
76547NA+    NA+35808  18.673  43.887  11.415
76548NA+    NA+35809   7.259  31.528  11.869
76549NA+    NA+35810  16.184   2.732  12.877
76550NA+    NA+35811  10.213  21.175   1.363
76551NA+    NA+35812  13.624  23.515  11.485
76552NA+    NA+35813  43.475   3.418  11.434
76553NA+    NA+35814  43.322  34.467   3.381
76554NA+    NA+35815  17.729   9.252  13.039
76555NA+    NA+35816  29.568  17.269  11.881
76556NA+    NA+35817  12.170  10.680  13.454
76557NA+    NA+35818  38.865  43.455  14.006
76558NA+    NA+35819   4.255  23.507  13.356
76559NA+    NA+35820  37.965  23.540  14.952
76560NA+    NA+35821   6.364   7.818   2.769
76561NA+    NA+35822  30.975  37.860  12.838
76562NA+    NA+35823   8.390  29.991  14.788
76563NA+    NA+35824  16.297  10.876   4.699
76564NA+    NA+35825   7.707  30.163   2.348
76565NA+    NA+35826  39.903  30.485  14.407
76566NA+    NA+35827   8.292  11.254   0.396
76567NA+    NA+35828   2.782  10.687  10.463
76568NA+    NA+35829   8.806   9.880  11.107
76569NA+    NA+35830  30.051   1.948   2.330
76570NA+    NA+35831  24.720  36.585  12.006
76571NA+    NA+35832  18.776  30.579   4.618
76572NA+    NA+35833  21.684  34.098   4.278
76573NA+    NA+35834  27.457  30.563   1.709
76574NA+    NA+35835  15.668  19.068   2.253
76575NA+    NA+35836  40.914  34.086   1.426
76576NA+    NA+35837  44.937  34.387   4.794
76577NA+    NA+35838  43.449  17.722  12.541
76578NA+    NA+35839  31.642  11.642   4.665
76579NA+    NA+35840  42.315  18.071   0.350
76580NA+    NA+35841   1.860  36.450  14.922
76581NA+    NA+35842  16.222  12.647  10.435
76582NA+    NA+35843  23.671  19.158   3.369
76583NA+    NA+35844  20.130  26.531   5.248
76584NA+    NA+35845   1.751  35.604   0.384
76585NA+    NA+35846  40.854   3.271  14.865
76586NA+    NA+35847   9.153  42.991   1.772
76587NA+    NA+35848   1.238  37.867  11.009
76588NA+    NA+35849  24.658  29.618  12.936
76589NA+    NA+35850  44.885   7.853  14.432
76590NA+    NA+35851   5.254  37.948   1.395
76591NA+    NA+35852   1.366   3.780   3.864
76592NA+    NA+35853  17.125  35.103  11.038
76593NA+    NA+35854  32.946  38.044   3.658
76594NA+    NA+35855  34.091   7.896   4.639
76595NA+    NA+35856  41.027  35.096   1.287
76596NA+    NA+35857  21.710  10.269  11.428
76597NA+    NA+35858  32.482  44.801   0.926
76598NA+    NA+35859  22.202  12.151   2.388
76599NA+    NA+35860   3.737  12.233   1.785
76600NA+    NA+35861  41.976   7.195   2.898
76601NA+    NA+35862   5.391   3.926   2.836
76602NA+    NA+35863   7.318   7.727  12.512
76603NA+    NA+35864  14.102   3.343   1.422
76604NA+    NA+35865  25.203  15.277   0.470
76605NA+    NA+35866  32.619  30.609   1.736
76606NA+    NA+35867  23.081   4.809   4.817
76607NA+    NA+35868   9.161   0.764  13.839
76608NA+    NA+35869  18.194  20.679   3.186
76609NA+    NA+35870   6.771  24.479   0.755
76610NA+    NA+35871   7.865  21.756  11.886
76611NA+    NA+35872  33.514  18.757  10.456
76612NA+    NA+35873  17.223  33.125   0.943
76613NA+    NA+35874   0.943  24.514   5.130
76614NA+    NA+35875  21.589  13.830   1.385
76615NA+    NA+35876   3.748   4.276  10.007
76616NA+    NA+35877  14.151  16.681   3.185
76617NA+    NA+35878   4.842   8.300   0.733
76618NA+    NA+35879  40.464   3.731   4.627
76619NA+    NA+35880  17.124   3.724   2.211
76620NA+    NA+35881  15.143   3.417   0.768
76621NA+    NA+35882   6.772  30.646   2.340
76622NA+    NA+35883  35.941  18.584  10.510
76623NA+    NA+35884   3.940  42.359  13.423
76624NA+    NA+35885  37.075   0.884   0.429
76625NA+    NA+35886   1.911  40.974  12.382
76626NA+    NA+35887  23.607  38.076   1.318
76627NA+    NA+35888  36.452  32.508   1.388
76628NA+    NA+35889  12.680  20.751  14.024
76629NA+    NA+35890  26.663  27.565  13.526
76630NA+    NA+35891  38.910  17.270  12.446
76631NA+    NA+35892  30.051  37.564   0.429
76632NA+    NA+35893  10.840  28.479   0.364
76633NA+    NA+35894   3.346   1.315  12.936
76634NA+    NA+35895  14.240  32.497   0.752
76635NA+    NA+35896   4.841  17.713   4.230
76636NA+    NA+35897  32.573  14.108  11.474
76637NA+    NA+35898  11.235  18.709  10.931
76638NA+    NA+35899  30.432  40.986  14.938
76639NA+    NA+35900  39.018   2.404   4.782
76640NA+    NA+35901  29.519  37.946   3.852
76641NA+    NA+35902   7.667  25.975  12.937
76642NA+    NA+35903   3.246   7.761  10.629
76643NA+    NA+35904  31.961  26.205  14.875
76644NA+    NA+35905  23.514  24.116  12.521
76645NA+    NA+35906  23.095  25.047   1.299
76646NA+    NA+35907  22.633  16.077  12.971
76647NA+    NA+35908   2.888  15.295  11.036
76648NA+    NA+35909  38.522  11.155   4.165
76649NA+    NA+35910  26.993  32.984  10.887
76650NA+    NA+35911   1.881  43.970  12.567
76651NA+    NA+35912   8.896   3.724   0.968
76652NA+    NA+35913   0.257  39.379   3.280
76653NA+    NA+35914  26.132  36.474   2.228
76654NA+    NA+35915  10.270  34.420   3.278
76655NA+    NA+35916  18.294  15.697   4.827
76656NA+    NA+35917  17.121  14.756   1.886
76657NA+    NA+35918  40.047   3.808  11.889
76658NA+    NA+35919  28.179  17.580   1.792
76659NA+    NA+35920  38.394  37.858   3.649
76660NA+    NA+35921  43.344   9.776   3.263
76661NA+    NA+35922  41.434  39.328  11.558
76662NA+    NA+35923  36.350  22.585   0.895
76663NA+    NA+35924  25.535  23.130   3.747
76664NA+    NA+35925  13.243   8.732   1.409
76665NA+    NA+35926  42.478  38.443   1.322
76666NA+    NA+35927  41.509  20.616   5.222
76667NA+    NA+35928  30.581   1.298  13.895
76668NA+    NA+35929   7.414  29.664   1.410
76669NA+    NA+35930  16.697  21.577   4.137
76670NA+    NA+35931  25.108  36.906   0.251
76671NA+    NA+35932  15.619  15.181   4.712
76672NA+    NA+35933  26.106  27.192   4.658
76673NA+    NA+35934   3.303  23.496  14.478
76674NA+    NA+35935  40.424  31.133  10.488
76675NA+    NA+35936   5.268  23.665   2.799
76676NA+    NA+35937  24.029  26.012  10.943
76677NA+    NA+35938  40.952  33.593  12.074
76678NA+    NA+35939  26.589  10.659  14.512
76679NA+    NA+35940  28.528  37.957   1.881
76680NA+    NA+35941   0.972  41.449  11.448
76681NA+    NA+35942  22.022   9.800   4.216
76682NA+    NA+35943  14.169  28.442  12.364
76683NA+    NA+35944  22.537  28.133   2.340
76684NA+    NA+35945  31.958   7.205   3.187
76685NA+    NA+35946  12.239  25.597   3.635
76686NA+    NA+35947  14.266  39.832  11.417
76687NA+    NA+35948   2.351  11.806  11.539
76688NA+    NA+35949   9.727  41.366  14.853
76689NA+    NA+35950  21.656  12.729  11.512
76690NA+    NA+35951  34.495  22.053  12.035
76691NA+    NA+35952   1.740  41.852  12.877
76692NA+    NA+35953   5.196  21.115   1.826
76693NA+    NA+35954  11.857  44.269   3.314
76694NA+    NA+35955  13.159  33.399  14.293
76695NA+    NA+35956  36.585   9.649  12.879
76696NA+    NA+35957  41.532   7.814   2.179
76697NA+    NA+35958  24.114  12.628  13.045
76698NA+    NA+35959  15.646  22.066  12.017
76699NA+    NA+35960  29.637  28.165  14.313
76700NA+    NA+35961  38.359  19.630   4.687
76701NA+    NA+35962  27.524  25.664   0.351
76702NA+    NA+35963  18.771  37.907   0.310
76703NA+    NA+35964   2.335  11.721  13.476
76704NA+    NA+35965  15.748  25.529  14.404
76705NA+    NA+35966  10.184   5.868  10.575
76706NA+    NA+35967   2.751  10.812  14.340
76707NA+    NA+35968  36.576  39.952  13.871
76708NA+    NA+35969  26.203   5.409  12.903
76709NA+    NA+35970  25.207  32.109  13.976
76710NA+    NA+35971  28.616  27.067   4.300
76711NA+    NA+35972  28.629   1.928  13.408
76712NA+    NA+35973  10.344  42.895  12.579
76713NA+    NA+35974  13.782   5.860  13.461
76714NA+    NA+35975  41.413  12.317  11.996
76715NA+    NA+35976  32.562   1.746   0.424
76716NA+    NA+35977  34.373  14.717  12.503
76717NA+    NA+35978  44.811   2.903   3.746
76718NA+    NA+35979  43.354  20.231   9.583
76719NA+    NA+35980  19.123  12.750  11.612
76720NA+    NA+35981  36.944   0.401   3.204
76721NA+    NA+35982  12.204   1.757   2.402
76722NA+    NA+35983  22.667  16.590   3.704
76723NA+    NA+35984   7.259   6.298  13.948
76724NA+    NA+35985  37.391  16.571  13.014
76725NA+    NA+35986  23.115  21.220  11.496
76726NA+    NA+35987  38.921   3.718   1.357
76727NA+    NA+35988  26.155  35.861  12.458
76728NA+    NA+35989  29.972  19.109   4.665
76729NA+    NA+35990   9.334   9.381  11.912
76730NA+    NA+35991  13.819  29.114   1.286
76731NA+    NA+35992  24.042  28.065  10.005
76732NA+    NA+35993  32.061  36.569  10.482
76733NA+    NA+35994  17.187  16.812   9.949
76734NA+    NA+35995   1.929  15.707  10.108
76735NA+    NA+35996  39.919  22.071   0.792
76736NA+    NA+35997  26.661  30.936  12.881
76737NA+    NA+35998   2.341  18.269   2.892
76738NA+    NA+35999  43.804  25.474   0.914
76739NA+    NA+36000  43.502  20.217  13.884
76740NA+    NA+36001  33.561   0.958   2.883
76741NA+    NA+36002   1.403  42.344  12.871
76742NA+    NA+36003  31.990  28.072   2.875
76743NA+    NA+36004  38.965  19.245   2.777
76744NA+    NA+36005  25.540  35.542   2.815
76745NA+    NA+36006  16.204  29.507   4.114
76746NA+    NA+36007  34.443  44.267  12.954
76747NA+    NA+36008  37.836  19.674  12.561
76748NA+    NA+36009   2.945   3.803  11.985
76749NA+    NA+36010  20.038   7.869  10.124
76750NA+    NA+36011  12.222  31.942  14.377
76751NA+    NA+36012   7.295  22.712   3.648
76752NA+    NA+36013  23.735   8.730   2.369
76753NA+    NA+36014  15.196  22.709   1.380
76754NA+    NA+36015  42.880   0.750  10.903
76755NA+    NA+36016  40.042  21.637  11.441
76756NA+    NA+36017  27.691   6.839  12.853
76757NA+    NA+36018  31.638  36.553   1.804
76758NA+    NA+36019  31.619  29.001   4.115
76759NA+    NA+36020  20.187  21.736   5.140
76760NA+    NA+36021   4.416  34.922  12.982
76761NA+    NA+36022  39.459  11.246  14.003
76762NA+    NA+36023  20.731  39.043   2.714
76763NA+    NA+36024  18.174  23.600   1.879
76764NA+    NA+36025   0.438  35.593  10.891
76765NA+    NA+36026   2.451   8.801  10.533
76766NA+    NA+36027   6.185  18.660   0.279
76767NA+    NA+36028   7.791  44.436   1.368
76768NA+    NA+36029  39.431  25.675  13.505
76769NA+    NA+36030   8.161  19.107   3.203
76770NA+    NA+36031  28.464  36.525  14.803
76771NA+    NA+36032   5.914  27.511   1.891
76772NA+    NA+36033  24.688  35.459   1.400
76773NA+    NA+36034   9.800  23.094  14.315
76774NA+    NA+36035  43.811  23.111   2.246
76775NA+    NA+36036   6.911   3.921   3.801
76776NA+    NA+36037   0.779  10.338   0.391
76777NA+    NA+36038   1.437  12.634   4.630
76778NA+    NA+36039  28.057  40.392   4.136
76779NA+    NA+36040  12.191  26.052   3.699
76780NA+    NA+36041   7.884  20.640   2.677
76781NA+    NA+36042  23.689  32.007  11.995
76782NA+    NA+36043  22.052  23.561  10.583
76783NA+    NA+36044  34.460  28.003  14.386
76784NA+    NA+36045  28.532   8.295   0.274
76785NA+    NA+36046  13.645   8.659  10.454
76786NA+    NA+36047  27.645  22.598   4.340
76787NA+    NA+36048  13.144   7.187  11.987
76788NA+    NA+36049  34.041  29.948   3.694
76789NA+    NA+36050   1.330  19.708   3.384
76790NA+    NA+36051   7.827   0.443   3.162
76791NA+    NA+36052   7.320  34.418  12.393
76792NA+    NA+36053   1.797   4.258  14.808
76793NA+    NA+36054  18.633  29.969   0.775
76794NA+    NA+36055  41.380  38.824  10.514
76795NA+    NA+36056  10.808  42.415   1.841
76796NA+    NA+36057  17.076  32.611   0.359
76797NA+    NA+36058  27.157  14.307  12.925
76798NA+    NA+36059   7.820  28.125  13.420
76799NA+    NA+36060  14.174   5.782  13.884
76800NA+    NA+36061  22.502  26.644   2.236
76801NA+    NA+36062  14.823   3.283  12.019
76802NA+    NA+36063  27.146  19.699  13.041
76803NA+    NA+36064   4.813   0.446  12.386
76804NA+    NA+36065   2.403  43.283  12.905
76805NA+    NA+36066  44.962  42.390   2.192
76806NA+    NA+36067  11.759  39.870   5.257
76807NA+    NA+36068  41.355  11.858  12.845
76808NA+    NA+36069  21.727  21.669   2.401
76809NA+    NA+36070  32.908   8.341  14.820
76810NA+    NA+36071  14.697  22.655  12.478
76811NA+    NA+36072   2.428  25.609  11.388
76812NA+    NA+36073  41.946  35.047  12.578
76813NA+    NA+36074  33.081   7.324   5.257
76814NA+    NA+36075   3.435  27.058   1.847
76815NA+    NA+36076   9.320  33.446   1.786
76816NA+    NA+36077  32.615  27.031   1.887
76817NA+    NA+36078   2.281  10.805  13.989
76818NA+    NA+36079   4.349   7.808   2.671
76819NA+    NA+36080  43.425   1.967  12.985
76820NA+    NA+36081   3.835   9.862   2.731
76821NA+    NA+36082   5.266  13.674   1.736
76822NA+    NA+36083  27.676  10.187   1.698
76823NA+    NA+36084   2.949  18.752  10.944
76824NA+    NA+36085  34.612  24.693   2.366
76825NA+    NA+36086  16.124  15.114   4.261
76826NA+    NA+36087   0.410  19.039   1.236
76827NA+    NA+36088  17.085   7.293  13.824
76828NA+    NA+36089  11.675  29.507  14.908
76829NA+    NA+36090  17.755  13.183   1.362
76830NA+    NA+36091  22.143   5.781  12.563
76831NA+    NA+36092   0.963  20.731   2.318
76832NA+    NA+36093  19.068  37.902   3.262
76833NA+    NA+36094   7.219  32.401   3.175
76834NA+    NA+36095   9.876  32.011   3.202
76835NA+    NA+36096   9.340  11.685   0.347
76836NA+    NA+36097   4.713  41.853  13.857
76837NA+    NA+36098  31.008  42.985   4.141
76838NA+    NA+36099  26.550   2.938  11.956
76839NA+    NA+36100  20.055   3.261   1.935
76840NA+    NA+36101  26.459  31.998  12.372
76841NA+    NA+36102  43.455   1.362   2.737
76842NA+    NA+36103  30.029  42.291   3.731
76843NA+    NA+36104  16.717   3.414  12.546
76844NA+    NA+36105   2.361  21.035  11.990
76845NA+    NA+36106  23.060  40.003  11.870
76846NA+    NA+36107  10.224  35.493  14.466
76847NA+    NA+36108  38.049  26.131   3.232
76848NA+    NA+36109   7.721  41.531  13.805
76849NA+    NA+36110  35.919   0.839   1.432
76850NA+    NA+36111  38.915  18.170   5.769
76851NA+    NA+36112  12.847  33.999  13.944
76852NA+    NA+36113  15.622  22.214   5.178
76853NA+    NA+36114  42.393  16.165  14.767
76854NA+    NA+36115   2.469  25.159   0.381
76855NA+    NA+36116  18.183   4.248   3.321
76856NA+    NA+36117  43.422  34.515   0.837
76857NA+    NA+36118  39.471  14.300  11.088
76858NA+    NA+36119  28.100  41.855  11.072
76859NA+    NA+36120   5.251  43.958   2.846
76860NA+    NA+36121  40.524  35.537  14.276
76861NA+    NA+36122  16.682   4.345   0.482
76862NA+    NA+36123  25.016  30.582  12.978
76863NA+    NA+36124  10.803   8.399  14.885
76864NA+    NA+36125   9.778   9.722  14.405
76865NA+    NA+36126  18.253   4.356  12.371
76866NA+    NA+36127  44.363  34.543   3.664
76867NA+    NA+36128  10.280  13.752   9.921
76868NA+    NA+36129  24.515  26.540  11.945
76869NA+    NA+36130  21.604  12.262  12.061
76870NA+    NA+36131  11.839   2.312  11.560
76871NA+    NA+36132  16.643  16.657  12.974
76872NA+    NA+36133  40.480  22.018  10.569
76873NA+    NA+36134  35.964  14.245   0.368
76874NA+    NA+36135  24.561  16.277  11.982
76875NA+    NA+36136  34.439  16.784   4.658
76876NA+    NA+36137  20.221   3.857  12.882
76877NA+    NA+36138  43.913  33.566   3.790
76878NA+    NA+36139  29.063  19.716  13.933
76879NA+    NA+36140  15.281  15.185  10.482
76880NA+    NA+36141   8.790  11.699   2.197
76881NA+    NA+36142  20.735  24.083   1.749
76882NA+    NA+36143  37.947   9.350  12.966
76883NA+    NA+36144  44.402  39.842  13.852
76884NA+    NA+36145  38.535   0.901  14.477
76885NA+    NA+36146   5.218   0.878  12.378
76886NA+    NA+36147   9.696  21.038  13.849
76887NA+    NA+36148   5.829  30.924  10.409
76888NA+    NA+36149  23.148  22.621  10.457
76889NA+    NA+36150   8.865  24.179   1.738
76890NA+    NA+36151  11.158  23.593  12.417
76891NA+    NA+36152  13.242  13.196   2.202
76892NA+    NA+36153  10.778   1.897   1.809
76893NA+    NA+36154  43.293  36.089  13.481
76894NA+    NA+36155  16.235  41.042   2.335
76895NA+    NA+36156  27.619   6.366   1.806
76896NA+    NA+36157  32.000  30.938  10.636
76897NA+    NA+36158  32.999  37.423  14.947
76898NA+    NA+36159  41.511  34.119   0.909
76899NA+    NA+36160  40.895   2.277   2.699
76900NA+    NA+36161  18.676  14.650   1.805
76901NA+    NA+36162  40.478  29.015  10.473
76902NA+    NA+36163  29.048  32.021   2.892
76903NA+    NA+36164  10.875   6.832   2.747
76904NA+    NA+36165   8.159  12.829  12.368
76905NA+    NA+36166  23.685  31.125   3.236
76906NA+    NA+36167   1.879  32.974   2.832
76907NA+    NA+36168  40.987   4.387   2.792
76908NA+    NA+36169  34.905  10.340   4.648
76909NA+    NA+36170  15.747   6.309  12.356
76910NA+    NA+36171  18.708   0.864   3.656
76911NA+    NA+36172  16.219  12.615  10.981
76912NA+    NA+36173  12.196   8.177   2.296
76913NA+    NA+36174  41.860  20.151  14.370
76914NA+    NA+36175  17.592  20.050   3.351
76915NA+    NA+36176   2.384   1.860  10.004
76916NA+    NA+36177  18.050   4.410  13.447
76917NA+    NA+36178  17.755  28.492  10.423
76918NA+    NA+36179  43.292   5.843  14.497
76919NA+    NA+36180  17.684  13.127  14.852
76920NA+    NA+36181  30.513  11.221   0.846
76921NA+    NA+36182  16.638  35.489  13.492
76922NA+    NA+36183   7.284  10.697   1.902
76923NA+    NA+36184  21.681  23.681   2.353
76924NA+    NA+36185  33.101  37.900   1.233
76925NA+    NA+36186  42.412  32.948   1.849
76926NA+    NA+36187  31.598   7.384  14.286
76927NA+    NA+36188  41.803  32.982   5.698
76928NA+    NA+36189  16.275  16.313   0.401
76929NA+    NA+36190  22.581  44.499  11.539
76930NA+    NA+36191  27.623   0.350   1.890
76931NA+    NA+36192   7.743  34.929   0.808
76932NA+    NA+36193  40.472  11.724   1.434
76933NA+    NA+36194   7.173  26.051   1.424
76934NA+    NA+36195  26.483   7.215  11.012
76935NA+    NA+36196  31.915  14.220   3.233
76936NA+    NA+36197  39.054  33.403  12.027
76937NA+    NA+36198  16.243  13.705  14.291
76938NA+    NA+36199  17.564  25.467  10.966
76939NA+    NA+36200  12.304  25.591  11.022
76940NA+    NA+36201   5.221   9.652   3.858
76941NA+    NA+36202  31.115  37.344  10.440
76942NA+    NA+36203  18.223   6.769  13.342
76943NA+    NA+36204  43.765  33.927  14.398
76944NA+    NA+36205  22.538  28.078  13.895
76945NA+    NA+36206  24.704  25.646   3.648
76946NA+    NA+36207   3.886  33.975  12.037
76947NA+    NA+36208  23.183  38.050   1.796
76948NA+    NA+36209  28.025  40.939   2.665
76949NA+    NA+36210  25.010   6.368  14.962
76950NA+    NA+36211   7.815   7.184  13.939
76951NA+    NA+36212  15.326  13.803   0.904
76952NA+    NA+36213  32.049  18.646   2.390
76953NA+    NA+36214  11.140  38.837  11.381
76954NA+    NA+36215  17.247  20.753   3.776
76955NA+    NA+36216  15.160  20.742   2.891
76956NA+    NA+36217  26.187  26.055  10.974
76957NA+    NA+36218  17.270  29.526   4.199
76958NA+    NA+36219   0.950  21.677   1.266
76959NA+    NA+36220  25.099  26.616   1.220
76960NA+    NA+36221  30.488   2.799  10.935
76961NA+    NA+36222  37.084  39.425   2.829
76962NA+    NA+36223  21.730  39.056  13.387
76963NA+    NA+36224  12.628   8.738  12.986
76964NA+    NA+36225  23.696  14.705  12.345
76965NA+    NA+36226   9.707  24.154   3.826
76966NA+    NA+36227  18.188  41.826  12.042
76967NA+    NA+36228  15.589  18.775   1.366
76968NA+    NA+36229  40.333  17.756  11.960
76969NA+    NA+36230   0.346  21.043   9.948
76970NA+    NA+36231   5.821  11.694   1.829
76971NA+    NA+36232  17.761  30.071  11.451
76972NA+    NA+36233   7.818   8.294   0.751
76973NA+    NA+36234  38.329  32.531   0.924
76974NA+    NA+36235  35.872  15.769  12.917
76975NA+    NA+36236  21.205   3.338   4.784
76976NA+    NA+36237   3.437  16.601  12.093
76977NA+    NA+36238  23.027  26.141  13.355
76978NA+    NA+36239   2.467  19.114  12.867
76979NA+    NA+36240   8.389  41.365   4.286
76980NA+    NA+36241  23.176  36.383   4.723
76981NA+    NA+36242  22.714  15.326  10.532
76982NA+    NA+36243  18.689   7.213  10.598
76983NA+    NA+36244  43.414  40.990  12.070
76984NA+    NA+36245   7.680  17.102   0.289
76985NA+    NA+36246  36.995  15.084  10.901
76986NA+    NA+36247  19.637   7.784   1.280
76987NA+    NA+36248   9.205  35.521   1.315
76988NA+    NA+36249  12.208  25.049  10.429
76989NA+    NA+36250  13.688  35.535  10.927
76990NA+    NA+36251  13.631  40.369  14.891
76991NA+    NA+36252  12.352  15.137  12.089
76992NA+    NA+36253  21.600  35.457   0.764
76993NA+    NA+36254  42.446  33.552   0.400
76994NA+    NA+36255  20.219  15.180   0.765
76995NA+    NA+36256  10.860  44.327   2.697
76996NA+    NA+36257  21.705   9.299   3.722
76997NA+    NA+36258   2.736  16.172   2.681
76998NA+    NA+36259  40.457  38.854   0.278
76999NA+    NA+36260   9.688  23.534   1.804
77000NA+    NA+36261  41.503  23.510   0.741
77001NA+    NA+36262  44.809  43.933   3.867
77002NA+    NA+36263  33.912  14.695  11.989
77003NA+    NA+36264  27.970   0.448  14.468
77004NA+    NA+36265  44.365  42.501   0.842
77005NA+    NA+36266  14.115  34.870  10.612
77006NA+    NA+36267  28.999   3.918   0.366
77007NA+    NA+36268  21.617  12.257  12.977
77008NA+    NA+36269  15.227  37.523  13.871
77009NA+    NA+36270  26.662   1.262   3.372
77010NA+    NA+36271  43.936  38.926   0.888
77011NA+    NA+36272  15.601  16.117  12.932
77012NA+    NA+36273  10.341  10.138   3.189
77013NA+    NA+36274   0.454  39.980   3.244
77014NA+    NA+36275   7.758  40.946  14.471
77015NA+    NA+36276  28.437  32.964  10.417
77016NA+    NA+36277   6.326  43.290   2.672
77017NA+    NA+36278  26.595  17.218  11.006
77018NA+    NA+36279  39.512  24.570  13.412
77019NA+    NA+36280   2.939  24.512   3.750
77020NA+    NA+36281   9.229  21.716  10.968
77021NA+    NA+36282  41.352  16.311  12.517
77022NA+    NA+36283  30.467  27.961  12.351
77023NA+    NA+36284  21.163   0.923  12.385
77024NA+    NA+36285   5.818  25.974   0.809
77025NA+    NA+36286  38.979  28.948   1.247
77026NA+    NA+36287  18.241  13.226   2.802
77027NA+    NA+36288  13.645  17.161   2.867
77028NA+    NA+36289  34.904  15.789  13.820
77029NA+    NA+36290   1.272  43.793   4.601
77030NA+    NA+36291  29.448  22.588  11.863
77031NA+    NA+36292  38.501   9.377   1.790
77032NA+    NA+36293   4.229  15.089  12.452
77033NA+    NA+36294  39.372   8.387  13.846
77034NA+    NA+36295  30.610   3.738  13.845
77035NA+    NA+36296  38.904  22.698   5.272
77036NA+    NA+36297  14.134   1.271   0.278
77037NA+    NA+36298   7.177  30.160   2.191
77038NA+    NA+36299  27.604   3.790   2.700
77039NA+    NA+36300  17.104  40.970  11.443
77040NA+    NA+36301   7.805   3.889   0.257
77041NA+    NA+36302  19.255  44.464   4.296
77042NA+    NA+36303   6.865  43.808  14.448
77043NA+    NA+36304  27.568  27.679   2.353
77044NA+    NA+36305  40.303   9.312  12.032
77045NA+    NA+36306  29.470  14.737   2.828
77046NA+    NA+36307  43.289  22.706  12.047
77047NA+    NA+36308  36.586  32.935  13.368
77048NA+    NA+36309  17.638  19.162   2.201
77049NA+    NA+36310  25.055   6.222  12.481
77050NA+    NA+36311  19.065  25.669  11.422
77051NA+    NA+36312  25.124  28.996  12.357
77052NA+    NA+36313  17.738  27.039   9.552
77053NA+    NA+36314  34.385   7.173   2.816
77054NA+    NA+36315  14.242  12.145  14.418
77055NA+    NA+36316  15.657  32.558  10.587
77056NA+    NA+36317  17.669   7.738   2.229
77057NA+    NA+36318  43.317  41.340  14.406
77058NA+    NA+36319  41.314  28.508  12.437
77059NA+    NA+36320  16.090  44.768   0.770
77060NA+    NA+36321   7.818  31.101   4.276
77061NA+    NA+36322  14.288  13.350  14.992
77062NA+    NA+36323  30.053  36.532   3.807
77063NA+    NA+36324  24.147  18.733   3.868
77064NA+    NA+36325   5.406  42.355  12.836
77065NA+    NA+36326  13.687  38.915   4.706
77066NA+    NA+36327  40.925  19.568  13.882
77067NA+    NA+36328   2.898  40.856  13.384
77068NA+    NA+36329  41.912  42.412   0.836
77069NA+    NA+36330  31.551  26.986   3.787
77070NA+    NA+36331  12.684   1.453   0.940
77071NA+    NA+36332  21.260  21.578  14.503
77072NA+    NA+36333  11.367  27.013   1.408
77073NA+    NA+36334  13.751  34.011   4.327
77074NA+    NA+36335   8.714  18.788  12.359
77075NA+    NA+36336  29.533   4.724  12.499
77076NA+    NA+36337  20.099  41.534   5.082
77077NA+    NA+36338  13.331  17.303  11.439
77078NA+    NA+36339  21.171  19.180   3.268
77079NA+    NA+36340  36.468  25.148  12.043
77080NA+    NA+36341  17.624  36.891  14.937
77081NA+    NA+36342  31.513  44.487  14.882
77082NA+    NA+36343  19.123  44.318   1.390
77083NA+    NA+36344   4.769  11.334  14.296
77084NA+    NA+36345  31.126  37.920   4.684
77085NA+    NA+36346  27.673  25.649  11.418
77086NA+    NA+36347  13.744  29.637  14.329
77087NA+    NA+36348  36.582  17.625  10.903
77088NA+    NA+36349  15.792  10.803  12.384
77089NA+    NA+36350   6.241   8.353  11.076
77090NA+    NA+36351   7.883  28.530  12.075
77091NA+    NA+36352  22.228  15.751  11.938
77092NA+    NA+36353  40.799  37.023   3.339
77093NA+    NA+36354  42.485  17.655  14.505
77094NA+    NA+36355  21.248  31.092   3.782
77095NA+    NA+36356  23.589  30.503   5.676
77096NA+    NA+36357  24.710  11.370  10.609
77097NA+    NA+36358  20.194   6.264  12.463
77098NA+    NA+36359  33.883  27.604  13.506
77099NA+    NA+36360  28.570  12.152  14.420
77100NA+    NA+36361  29.495   6.847   1.772
77101NA+    NA+36362  35.106  25.559   2.352
77102NA+    NA+36363  40.828  26.573   3.711
77103NA+    NA+36364  41.502  32.040  11.515
77104NA+    NA+36365   0.823  19.544   4.346
77105NA+    NA+36366   5.360   5.325   2.399
77106NA+    NA+36367  39.327  10.674   2.881
77107NA+    NA+36368  19.746  22.075   1.749
77108NA+    NA+36369  28.660  23.098   2.801
77109NA+    NA+36370  22.682  20.630   4.729
77110NA+    NA+36371  20.592   0.456  12.024
77111NA+    NA+36372  16.158  36.984   3.634
77112NA+    NA+36373  19.246  36.044   2.783
77113NA+    NA+36374   2.348  31.619   4.801
77114NA+    NA+36375  14.719  32.061  10.451
77115NA+    NA+36376  33.626  16.743  13.026
77116NA+    NA+36377  12.138   2.363  12.976
77117NA+    NA+36378  44.481  28.509  10.625
77118NA+    NA+36379  21.020  30.972   0.439
77119NA+    NA+36380  36.934  39.487   4.653
77120NA+    NA+36381   9.229  33.415  12.044
77121NA+    NA+36382  23.707  22.581  14.499
77122NA+    NA+36383   0.296  31.105   0.844
77123NA+    NA+36384   7.854  41.825  11.910
77124NA+    NA+36385  33.051  42.903   0.372
77125NA+    NA+36386  29.948  28.100   0.748
77126NA+    NA+36387  15.687  44.452   2.201
77127NA+    NA+36388  44.460  17.152   3.352
77128NA+    NA+36389  19.620  34.897  12.356
77129NA+    NA+36390   3.844  16.215  13.366
77130NA+    NA+36391  14.244   6.189  12.445
77131NA+    NA+36392   0.879  25.502   0.780
77132NA+    NA+36393  25.500   1.403  11.905
77133NA+    NA+36394  22.149   4.796  11.900
77134NA+    NA+36395  36.959  16.085  13.482
77135NA+    NA+36396  21.182  20.582  14.284
77136NA+    NA+36397  24.198  14.615  14.765
77137NA+    NA+36398  39.540  17.221  12.478
77138NA+    NA+36399   5.310  36.370  12.970
77139NA+    NA+36400  13.829  26.168  12.055
77140NA+    NA+36401  17.123  28.951   4.636
77141NA+    NA+36402  43.832   4.829   3.669
77142NA+    NA+36403  11.857  37.951  11.585
77143NA+    NA+36404   7.373  37.442  11.058
77144NA+    NA+36405  34.906  11.659  13.023
77145NA+    NA+36406  12.720   9.282  11.574
77146NA+    NA+36407  43.894  23.626   0.908
77147NA+    NA+36408   1.764  42.386   4.165
77148NA+    NA+36409  38.046  39.948   3.296
77149NA+    NA+36410   9.176   4.898   1.440
77150NA+    NA+36411  16.196  18.183  12.415
77151NA+    NA+36412   7.693  22.237  14.927
77152NA+    NA+36413  29.561   9.887   3.285
77153NA+    NA+36414  23.581  35.427   1.211
77154NA+    NA+36415  18.791  17.585   3.772
77155NA+    NA+36416  16.812  24.670   9.586
77156NA+    NA+36417  11.683  34.497   0.331
77157NA+    NA+36418   0.379  37.532   0.339
77158NA+    NA+36419   2.945  15.239   4.207
77159NA+    NA+36420  39.463  13.179   3.688
77160NA+    NA+36421   9.248  43.491  11.912
77161NA+    NA+36422  32.998  32.913   0.862
77162NA+    NA+36423  16.677  15.805   4.811
77163NA+    NA+36424  27.185  12.778   3.241
77164NA+    NA+36425   5.239  23.000  11.984
77165NA+    NA+36426  10.781  25.632  12.973
77166NA+    NA+36427  21.514  26.035  13.407
77167NA+    NA+36428  41.517  38.021  10.472
77168NA+    NA+36429  10.331  24.608  10.480
77169NA+    NA+36430  42.346   4.269   0.397
77170NA+    NA+36431   5.814   0.965   1.298
77171NA+    NA+36432  25.078  31.132   0.405
77172NA+    NA+36433  11.252  26.600   3.220
77173NA+    NA+36434  36.062  43.464  11.105
77174NA+    NA+36435  15.807  10.874   4.133
77175NA+    NA+36436  31.531  22.615  11.031
77176NA+    NA+36437  36.963  17.743  12.904
77177NA+    NA+36438   6.847  35.088   2.221
77178NA+    NA+36439  34.376  33.607  14.828
77179NA+    NA+36440  29.116  17.724   2.720
77180NA+    NA+36441  42.014  42.997   3.709
77181NA+    NA+36442  44.942  29.659   2.815
77182NA+    NA+36443  25.063   8.851   3.366
77183NA+    NA+36444   1.768  20.630   2.298
77184NA+    NA+36445   5.776   2.933  10.566
77185NA+    NA+36446  25.115   0.960  12.859
77186NA+    NA+36447   9.315  14.761   1.311
77187NA+    NA+36448  21.054  37.948   3.649
77188NA+    NA+36449  15.736  11.316   5.104
77189NA+    NA+36450  15.253  25.155   0.354
77190NA+    NA+36451  23.221  30.086  14.361
77191NA+    NA+36452   8.317  30.980  14.441
77192NA+    NA+36453  15.728  20.055   1.755
77193NA+    NA+36454  21.184   7.368   0.286
77194NA+    NA+36455  24.046  35.970  10.570
77195NA+    NA+36456  21.572   7.877  12.085
77196NA+    NA+36457  44.400  20.724   0.479
77197NA+    NA+36458  10.816   1.277   1.398
77198NA+    NA+36459  43.811  15.172  11.053
77199NA+    NA+36460  12.798  38.830   2.331
77200NA+    NA+36461  41.427  27.191   1.435
77201NA+    NA+36462  34.446  25.163   1.211
77202NA+    NA+36463  42.467   8.405  11.082
77203NA+    NA+36464  19.630   6.216   4.729
77204NA+    NA+36465  38.363  33.120  14.944
77205NA+    NA+36466   9.240  27.459   0.759
77206NA+    NA+36467  20.051  35.554   2.728
77207NA+    NA+36468  31.409  43.981  11.116
77208NA+    NA+36469  26.528  11.290   1.215
77209NA+    NA+36470  41.296  17.660  13.060
77210NA+    NA+36471   3.245  37.893  13.419
77211NA+    NA+36472  19.099  25.164  12.378
77212NA+    NA+36473  18.091   3.757   3.344
77213NA+    NA+36474  13.338  36.413  13.041
77214NA+    NA+36475   4.436  17.579   3.359
77215NA+    NA+36476  41.958  39.332  11.446
77216NA+    NA+36477  43.006  35.516   3.217
77217NA+    NA+36478   2.778  38.018  11.602
77218NA+    NA+36479   2.858   7.286   2.405
77219NA+    NA+36480   1.810  18.114  10.586
77220NA+    NA+36481  10.762  30.011   1.757
77221NA+    NA+36482  41.489  11.224   2.665
77222NA+    NA+36483  15.817  41.322   2.291
77223NA+    NA+36484   2.846  42.954   3.813
77224NA+    NA+36485  33.093   9.150   9.534
77225NA+    NA+36486  32.106  14.786   2.367
77226NA+    NA+36487  14.191  44.303   2.402
77227NA+    NA+36488   4.764  39.464   4.219
77228NA+    NA+36489  44.266  12.677  13.063
77229NA+    NA+36490  37.861  35.408   5.258
77230NA+    NA+36491  42.524  10.314   0.938
77231NA+    NA+36492  11.158  22.133  14.406
77232NA+    NA+36493   3.270  16.235   3.336
77233NA+    NA+36494  10.265  18.570  13.035
77234NA+    NA+36495  32.058  34.956   2.210
77235NA+    NA+36496  16.270   2.826   0.396
77236NA+    NA+36497  12.229  14.750   3.715
77237NA+    NA+36498  38.844  16.634  13.909
77238NA+    NA+36499   0.314  27.002  14.029
77239NA+    NA+36500  34.105  31.605  11.009
77240NA+    NA+36501  34.928  42.816   2.714
77241NA+    NA+36502  12.717  26.952   1.738
77242NA+    NA+36503  10.273  17.238   1.756
77243NA+    NA+36504  18.741  26.071   1.402
77244NA+    NA+36505  16.136  39.936  11.986
77245NA+    NA+36506  17.700  31.623   1.383
77246NA+    NA+36507  26.686  36.409   4.256
77247NA+    NA+36508  28.566  41.468  13.398
77248NA+    NA+36509  13.305  44.366  14.363
77249NA+    NA+36510  39.379  10.359  14.829
77250NA+    NA+36511  26.588  26.076   2.212
77251NA+    NA+36512  32.962  14.748  12.557
77252NA+    NA+36513  39.554  44.388   0.455
77253NA+    NA+36514  23.057  25.047   0.769
77254NA+    NA+36515  13.752   8.795  12.522
77255NA+    NA+36516  39.980  32.536  13.949
77256NA+    NA+36517  44.942   7.797   4.220
77257NA+    NA+36518  17.119  10.376  13.350
77258NA+    NA+36519  22.220   9.766   4.738
77259NA+    NA+36520  44.487  42.777  11.926
77260NA+    NA+36521  19.738   2.250  11.963
77261NA+    NA+36522  26.475   5.360   2.301
77262NA+    NA+36523  17.254   8.224   1.909
77263NA+    NA+36524  32.488  40.964  14.289
77264NA+    NA+36525  17.066  10.796  13.008
77265NA+    NA+36526   5.797  13.834   3.640
77266NA+    NA+36527  17.707  37.368   3.336
77267NA+    NA+36528  22.584  12.832  11.874
77268NA+    NA+36529   0.893  37.886  13.324
77269NA+    NA+36530  32.893   1.907  11.026
77270NA+    NA+36531  23.627  44.368   1.314
77271NA+    NA+36532  29.078  29.158   2.709
77272NA+    NA+36533   5.293  12.252  14.399
77273NA+    NA+36534  17.211   2.459   4.663
77274NA+    NA+36535  36.486  39.426  14.993
77275NA+    NA+36536  13.171  32.098  10.458
77276NA+    NA+36537  43.349  18.209   0.245
77277NA+    NA+36538   9.292  39.917   2.407
77278NA+    NA+36539   5.828  10.779   3.831
77279NA+    NA+36540  17.064  12.739  10.936
77280NA+    NA+36541  10.690  11.703  14.824
77281NA+    NA+36542  43.897   9.260   2.327
77282NA+    NA+36543   9.867  29.454   3.802
77283NA+    NA+36544  41.433   1.843  13.507
77284NA+    NA+36545  34.479  34.526   0.324
77285NA+    NA+36546  10.724  40.544   2.233
77286NA+    NA+36547  42.357  28.942  10.523
77287NA+    NA+36548  39.830   6.277  12.960
77288NA+    NA+36549  20.716  17.645  11.529
77289NA+    NA+36550  42.393   6.850   4.755
77290NA+    NA+36551  17.694  13.308  10.625
77291NA+    NA+36552  13.222   7.171  14.806
77292NA+    NA+36553   8.286  32.495  12.040
77293NA+    NA+36554  10.691  44.975   3.786
77294NA+    NA+36555  29.171  44.322   1.712
77295NA+    NA+36556  32.582  14.268   3.386
77296NA+    NA+36557   9.746  44.429   1.829
77297NA+    NA+36558   0.758  20.728   3.781
77298NA+    NA+36559   7.687   3.881   3.697
77299NA+    NA+36560   8.214  42.015   1.890
77300NA+    NA+36561   4.886   6.790  11.103
77301NA+    NA+36562  37.384  38.389   1.852
77302NA+    NA+36563  35.951  32.627   1.344
77303NA+    NA+36564   8.776  38.556  14.390
77304NA+    NA+36565  34.378  36.372  10.909
77305NA+    NA+36566   5.894  28.931  10.499
77306NA+    NA+36567  20.538  37.933   0.832
77307NA+    NA+36568  28.954  13.629  12.839
77308NA+    NA+36569  31.522  44.296  13.879
77309NA+    NA+36570   4.257   4.275   0.293
77310NA+    NA+36571   3.414  13.198   2.403
77311NA+    NA+36572   9.209  23.548   2.716
77312NA+    NA+36573  12.775  14.823   0.326
77313NA+    NA+36574  18.589  34.525   0.468
77314NA+    NA+36575   7.794  37.485  10.503
77315NA+    NA+36576  19.713  13.647  12.543
77316NA+    NA+36577  17.801   4.810  12.499
77317NA+    NA+36578   7.677  30.024  12.472
77318NA+    NA+36579   4.786  28.160  12.445
77319NA+    NA+36580  36.906  27.953  10.437
77320NA+    NA+36581  11.730  29.647  10.957
77321NA+    NA+36582   3.281   4.293   3.385
77322NA+    NA+36583  14.591   4.902   1.696
77323NA+    NA+36584  15.627  20.542   3.756
77324NA+    NA+36585  41.458  14.187   1.265
77325NA+    NA+36586  17.567  44.828   2.267
77326NA+    NA+36587   3.937  38.994   2.323
77327NA+    NA+36588  24.050   9.695   3.650
77328NA+    NA+36589  43.974  29.163  12.066
77329NA+    NA+36590  31.519  25.019  11.011
77330NA+    NA+36591  31.950   0.789   4.603
77331NA+    NA+36592  22.190  34.523  11.566
77332NA+    NA+36593  42.897   7.264   4.669
77333NA+    NA+36594  44.956  36.966  13.369
77334NA+    NA+36595  21.194  41.886   1.397
77335NA+    NA+36596  15.215   5.843   0.367
77336NA+    NA+36597   7.356   2.819  10.437
77337NA+    NA+36598  18.777  18.703  13.047
77338NA+    NA+36599  25.198  32.008   2.880
77339NA+    NA+36600   7.903  40.406   3.242
77340NA+    NA+36601  37.042  39.833   0.916
77341NA+    NA+36602  39.493   9.653  11.000
77342NA+    NA+36603   0.954  42.931   4.781
77343NA+    NA+36604  11.786  11.806  11.475
77344NA+    NA+36605  32.016  43.358  11.609
77345NA+    NA+36606  41.798  41.966   4.237
77346NA+    NA+36607  22.513  17.288   0.895
77347NA+    NA+36608  32.512  28.490   1.917
77348NA+    NA+36609  34.519   5.367  10.088
77349NA+    NA+36610   1.403  41.383   1.881
77350NA+    NA+36611   3.431  33.568   5.098
77351NA+    NA+36612  26.087  27.639   3.776
77352NA+    NA+36613  14.652  23.996   0.765
77353NA+    NA+36614  15.250  25.507   3.737
77354NA+    NA+36615  34.110   2.931  13.950
77355NA+    NA+36616  14.218  29.109  13.038
77356NA+    NA+36617  31.531  26.681   0.841
77357NA+    NA+36618   9.309  11.222  12.884
77358NA+    NA+36619  32.453   9.257   3.819
77359NA+    NA+36620  39.873  39.346   3.379
77360NA+    NA+36621  29.943  43.333   4.758
77361NA+    NA+36622  44.412  19.084  10.986
77362NA+    NA+36623  11.784  34.498   4.828
77363NA+    NA+36624   2.405  36.869  13.421
77364NA+    NA+36625  16.770  26.505   0.839
77365NA+    NA+36626  37.531  27.969   5.238
77366NA+    NA+36627   0.829   0.445  12.036
77367NA+    NA+36628  15.767  31.149  12.354
77368NA+    NA+36629  39.549  36.001   2.208
77369NA+    NA+36630  26.485  14.181  11.544
77370NA+    NA+36631  12.694  16.766   0.930
77371NA+    NA+36632  38.377  30.460  13.534
77372NA+    NA+36633  39.049  13.279   3.677
77373NA+    NA+36634  42.462  23.570   2.704
77374NA+    NA+36635  17.072  13.348  14.770
77375NA+    NA+36636   1.335   0.921   1.265
77376NA+    NA+36637  41.502  40.490  10.498
77377NA+    NA+36638  19.774  35.549  11.949
77378NA+    NA+36639  19.548   9.165   0.759
77379NA+    NA+36640  29.586  34.509  13.366
77380NA+    NA+36641  11.849  38.961  13.962
77381NA+    NA+36642   8.231   0.921  13.909
77382NA+    NA+36643  28.129  35.357   4.702
77383NA+    NA+36644  13.202  31.589   1.698
77384NA+    NA+36645  28.641  38.905   3.379
77385NA+    NA+36646   5.824  39.447  10.927
77386NA+    NA+36647  40.835  21.640  12.356
77387NA+    NA+36648  20.074  25.688  14.825
77388NA+    NA+36649  43.308   4.209  10.928
77389NA+    NA+36650  17.225   7.898   4.730
77390NA+    NA+36651  22.717   6.851   3.344
77391NA+    NA+36652   7.208   9.216   0.891
77392NA+    NA+36653  44.999  41.498   4.315
77393NA+    NA+36654  23.723  34.935   2.369
77394NA+    NA+36655   4.331  28.501   0.910
77395NA+    NA+36656  23.204   8.680   2.664
77396NA+    NA+36657  29.965  33.542  10.598
77397NA+    NA+36658  36.988  28.016   0.968
77398NA+    NA+36659  43.974  14.278  12.854
77399NA+    NA+36660   9.364  42.289  12.077
77400NA+    NA+36661  18.157  16.145   4.608
77401NA+    NA+36662  27.044  33.974   3.351
77402NA+    NA+36663  10.145  36.392   2.879
77403NA+    NA+36664  25.675  24.189  12.855
77404NA+    NA+36665   9.886  39.917  10.563
77405NA+    NA+36666  41.995  44.402   0.333
77406NA+    NA+36667  31.538  31.535   2.201
77407NA+    NA+36668  10.676  10.865   2.726
77408NA+    NA+36669  33.976  23.515  14.393
77409NA+    NA+36670  29.102  30.996  10.515
77410NA+    NA+36671  14.272   3.851  13.048
77411NA+    NA+36672  20.606  29.457  12.914
77412NA+    NA+36673  30.439  37.912  10.544
77413NA+    NA+36674  32.501  23.208   2.768
77414NA+    NA+36675  44.260   7.763   5.222
77415NA+    NA+36676  27.625  35.555   3.359
77416NA+    NA+36677   9.732  16.778  10.603
77417NA+    NA+36678  43.788  11.251  10.514
77418NA+    NA+36679  12.819  10.834  14.275
77419NA+    NA+36680  31.933  13.147   0.871
77420NA+    NA+36681  36.466  15.107  11.057
77421NA+    NA+36682  41.848  23.134   3.296
77422NA+    NA+36683  42.939  21.574  13.021
77423NA+    NA+36684  30.915  13.827   0.848
77424NA+    NA+36685  37.878  10.380  13.898
77425NA+    NA+36686  32.907  35.970   4.765
77426NA+    NA+36687  11.230  36.358   4.201
77427NA+    NA+36688  37.051   9.792   2.676
77428NA+    NA+36689  35.463  14.744  10.918
77429NA+    NA+36690  32.635  14.681   2.210
77430NA+    NA+36691  20.731  28.087   0.921
77431NA+    NA+36692   1.414  44.839  14.442
77432NA+    NA+36693   2.749   3.922  11.395
77433NA+    NA+36694  13.707  30.431  11.959
77434NA+    NA+36695  34.104  19.773  14.491
77435NA+    NA+36696   9.291  14.600  13.425
77436NA+    NA+36697   6.752  44.780   4.794
77437NA+    NA+36698  39.844  37.554   3.736
77438NA+    NA+36699  36.348  42.959   2.218
77439NA+    NA+36700  41.506  22.028   1.389
77440NA+    NA+36701  33.027   9.286   9.948
77441NA+    NA+36702  34.602  33.462  10.997
77442NA+    NA+36703  22.703  26.567   3.371
77443NA+    NA+36704  12.744  20.245   4.323
77444NA+    NA+36705  40.433   9.790   0.242
77445NA+    NA+36706  14.295  44.778  11.029
77446NA+    NA+36707  43.409  35.491  12.464
77447NA+    NA+36708  19.730  29.611   0.462
77448NA+    NA+36709  24.579   9.765  13.473
77449NA+    NA+36710  36.347  12.743   3.182
77450NA+    NA+36711  22.132   2.333  11.925
77451NA+    NA+36712  39.910   4.288  13.822
77452NA+    NA+36713   0.969   0.251  11.109
77453NA+    NA+36714  25.540  26.478  13.398
77454NA+    NA+36715  27.172  22.714  14.897
77455NA+    NA+36716   2.416  43.420   4.161
77456NA+    NA+36717  41.298  43.952  12.931
77457NA+    NA+36718  34.558  17.584  12.545
77458NA+    NA+36719  27.689   5.198   4.773
77459NA+    NA+36720   7.705  27.510   3.812
77460NA+    NA+36721  43.506  15.725   3.267
77461NA+    NA+36722  20.585  29.507  14.887
77462NA+    NA+36723  12.131  27.983   3.697
77463NA+    NA+36724  38.846  13.109   2.206
77464NA+    NA+36725  39.434  10.191  13.356
77465NA+    NA+36726  15.122  15.329  14.305
77466NA+    NA+36727  41.984  37.521   4.123
77467NA+    NA+36728  20.212  24.525   0.945
77468NA+    NA+36729  13.808  23.006  14.803
77469NA+    NA+36730  20.154  44.467  12.989
77470NA+    NA+36731   7.301  43.894  12.474
77471NA+    NA+36732  29.665   5.814   2.685
77472NA+    NA+36733  29.460  36.557   3.153
77473NA+    NA+36734   1.476  44.346   2.742
77474NA+    NA+36735  40.041  13.194   1.838
77475NA+    NA+36736   9.304   8.387  11.464
77476NA+    NA+36737  29.958   4.290  12.889
77477NA+    NA+36738  38.424  22.032  14.500
77478NA+    NA+36739   7.395  10.827   2.672
77479NA+    NA+36740  32.921  39.317  13.523
77480NA+    NA+36741  43.851  29.621  12.928
77481NA+    NA+36742  21.114  41.391   1.742
77482NA+    NA+36743  37.078  22.074  12.861
77483NA+    NA+36744  21.095  44.878  14.857
77484NA+    NA+36745  18.785  40.315  13.425
77485NA+    NA+36746  29.596   3.252  11.418
77486NA+    NA+36747  29.978   7.757  10.993
77487NA+    NA+36748   1.751   6.366  12.375
77488NA+    NA+36749  16.195   4.273   4.116
77489NA+    NA+36750  38.885  20.558  14.946
77490NA+    NA+36751  44.874   8.669  11.495
77491NA+    NA+36752  13.818   3.386  14.387
77492NA+    NA+36753  11.664   5.395   2.390
77493NA+    NA+36754  25.077  24.608  11.604
77494NA+    NA+36755  30.484  10.302   1.780
77495NA+    NA+36756  31.484  25.994  14.808
77496NA+    NA+36757  11.694  26.020   0.285
77497NA+    NA+36758  44.386  41.469   4.313
77498NA+    NA+36759  26.117  37.990  14.898
77499NA+    NA+36760  21.598  29.059  11.094
77500NA+    NA+36761  37.916   2.261   4.680
77501NA+    NA+36762  41.432  39.360   1.751
77502NA+    NA+36763   9.185  38.898   0.932
77503NA+    NA+36764  22.072  29.145   3.348
77504NA+    NA+36765   6.875  16.244   0.390
77505NA+    NA+36766  38.837   3.237  10.436
77506NA+    NA+36767  18.260   0.821  14.030
77507NA+    NA+36768  15.581  36.540  13.800
77508NA+    NA+36769  26.536  14.176   2.205
77509NA+    NA+36770   8.338  10.772   4.178
77510NA+    NA+36771  11.742  17.707   4.209
77511NA+    NA+36772  34.948  24.573   3.355
77512NA+    NA+36773   3.245  42.396  10.930
77513NA+    NA+36774   6.912  29.469  12.439
77514NA+    NA+36775  41.012  10.355   1.763
77515NA+    NA+36776   9.686  25.613   4.741
77516NA+    NA+36777  39.858  26.580   2.193
77517NA+    NA+36778  29.466  36.861  12.432
77518NA+    NA+36779  21.692  38.891   4.810
77519NA+    NA+36780  38.570   1.873   4.727
77520NA+    NA+36781   3.235  17.792  12.903
77521NA+    NA+36782  27.689  41.307   1.439
77522NA+    NA+36783  23.094  24.170   3.221
77523NA+    NA+36784  38.434  13.178   1.915
77524NA+    NA+36785  21.550  39.342  14.389
77525NA+    NA+36786  42.959   0.749  12.824
77526NA+    NA+36787  41.904   5.784  10.888
77527NA+    NA+36788  30.101  14.174  14.856
77528NA+    NA+36789  21.190  28.539  11.915
77529NA+    NA+36790  30.652   5.206   2.394
77530NA+    NA+36791  37.053   1.361   1.355
77531NA+    NA+36792   9.233  23.730   9.965
77532NA+    NA+36793  43.446  22.022  10.414
77533NA+    NA+36794  29.550   8.886   4.346
77534NA+    NA+36795  32.041   7.675   1.868
77535NA+    NA+36796  44.303  38.004   2.861
77536NA+    NA+36797  41.033   7.354   3.240
77537NA+    NA+36798  15.169  42.019  11.043
77538NA+    NA+36799  18.244  40.476  12.554
77539NA+    NA+36800  30.611  37.376  13.426
77540NA+    NA+36801  10.761  39.412  13.307
77541NA+    NA+36802  21.519  17.272  11.088
77542NA+    NA+36803  12.273  22.083  12.891
77543NA+    NA+36804   2.330   4.908  12.974
77544NA+    NA+36805  33.457  26.651  12.392
77545NA+    NA+36806  15.146  28.998   4.677
77546NA+    NA+36807  41.440   5.722  11.557
77547NA+    NA+36808  15.188   3.441  12.424
77548NA+    NA+36809  42.865  35.948   4.788
77549NA+    NA+36810  35.362  26.691  10.427
77550NA+    NA+36811  31.502   7.714  14.437
77551NA+    NA+36812  16.231  10.198   4.243
77552NA+    NA+36813  22.088  38.040  11.902
77553NA+    NA+36814  16.293  24.180  12.471
77554NA+    NA+36815  23.715  18.092  10.474
77555NA+    NA+36816   7.906  42.847  14.424
77556NA+    NA+36817  10.222  22.665   0.436
77557NA+    NA+36818  33.552  30.086   1.877
77558NA+    NA+36819  27.647   7.709  13.500
77559NA+    NA+36820  24.009  42.427  13.979
77560NA+    NA+36821  10.792  34.421  12.031
77561NA+    NA+36822   7.794   6.398  11.427
77562NA+    NA+36823  39.439  43.480  13.419
77563NA+    NA+36824  18.599  32.429  10.531
77564NA+    NA+36825  20.601  39.373   1.240
77565NA+    NA+36826  12.632  32.895   3.853
77566NA+    NA+36827  28.514   2.452   9.565
77567NA+    NA+36828  12.718  29.028   3.285
77568NA+    NA+36829  10.867   6.425  14.369
77569NA+    NA+36830  16.284  14.145  13.937
77570NA+    NA+36831  22.574  14.736   4.327
77571NA+    NA+36832  20.095   7.268  12.036
77572NA+    NA+36833   5.246  19.196  14.427
77573NA+    NA+36834  27.177   6.367   2.900
77574NA+    NA+36835   9.307  24.035   0.447
77575NA+    NA+36836  16.105  13.281  12.437
77576NA+    NA+36837   7.792  23.182  14.935
77577NA+    NA+36838   2.896   8.286   1.799
77578NA+    NA+36839  43.938  23.126   4.245
77579NA+    NA+36840  37.872  24.511   2.289
77580NA+    NA+36841  43.895  35.078  13.933
77581NA+    NA+36842  39.970   8.223   3.639
77582NA+    NA+36843  41.801  20.597  12.089
77583NA+    NA+36844   9.207  31.905  14.444
77584NA+    NA+36845   4.284  40.881   2.699
77585NA+    NA+36846  29.499  29.610  11.075
77586NA+    NA+36847   0.276  17.741   2.324
77587NA+    NA+36848  30.998   6.344   2.358
77588NA+    NA+36849  34.868   3.904  10.526
77589NA+    NA+36850  10.752  40.011   3.158
77590NA+    NA+36851  23.735   2.276  13.885
77591NA+    NA+36852   3.951   0.870   4.286
77592NA+    NA+36853  30.591  14.825  14.350
77593NA+    NA+36854   0.767  17.090   1.802
77594NA+    NA+36855  36.514  36.890  10.493
77595NA+    NA+36856   2.776   2.964  13.974
77596NA+    NA+36857  34.963  38.837  13.943
77597NA+    NA+36858   9.709  14.132   2.200
77598NA+    NA+36859   5.926  31.437  14.855
77599NA+    NA+36860  12.612  43.404  14.845
77600NA+    NA+36861  44.364  27.100   4.805
77601NA+    NA+36862   3.718  11.644  12.942
77602NA+    NA+36863  24.718  15.139   2.225
77603NA+    NA+36864  10.720   9.676   1.398
77604NA+    NA+36865  25.546  37.948  14.923
77605NA+    NA+36866  41.912   1.276  13.974
77606NA+    NA+36867  12.770  27.135   4.813
77607NA+    NA+36868  38.462  37.844   0.830
77608NA+    NA+36869  44.975   8.666  14.349
77609NA+    NA+36870   6.320   4.392  10.159
77610NA+    NA+36871  12.738  18.253   3.732
77611NA+    NA+36872  27.034  21.720  11.433
77612NA+    NA+36873  15.615  27.107  12.035
77613NA+    NA+36874   4.247  10.846  11.502
77614NA+    NA+36875  29.984  41.386   4.180
77615NA+    NA+36876  30.017  27.996   3.831
77616NA+    NA+36877  32.112  33.518   4.129
77617NA+    NA+36878  25.467  35.475  11.413
77618NA+    NA+36879  41.377   7.813  11.059
77619NA+    NA+36880  43.459  35.468  14.984
77620NA+    NA+36881  21.249  39.945  12.831
77621NA+    NA+36882  35.413  36.500  10.452
77622NA+    NA+36883  40.372  30.619   1.726
77623NA+    NA+36884   3.391  44.415   4.214
77624NA+    NA+36885  30.081   6.269  12.387
77625NA+    NA+36886  37.833  34.887  14.447
77626NA+    NA+36887  30.117  17.106  11.521
77627NA+    NA+36888  13.220  41.495   0.861
77628NA+    NA+36889  43.272   2.887   1.811
77629NA+    NA+36890  34.943   6.280  10.013
77630NA+    NA+36891  26.638   9.858  12.477
77631NA+    NA+36892  29.459  24.696   0.903
77632NA+    NA+36893  19.041   4.255   2.680
77633NA+    NA+36894  22.525  43.978  12.483
77634NA+    NA+36895  26.633   0.828  10.145
77635NA+    NA+36896  41.345  34.546   0.250
77636NA+    NA+36897  37.444  34.063   1.917
77637NA+    NA+36898  23.726   6.247  13.320
77638NA+    NA+36899  17.088  16.571   1.336
77639NA+    NA+36900  32.061  34.476   2.833
77640NA+    NA+36901  19.621  23.639   2.330
77641NA+    NA+36902  39.019  41.449   2.245
77642NA+    NA+36903  18.268  26.115  11.430
77643NA+    NA+36904  27.086  30.933   0.829
77644NA+    NA+36905   7.717  35.099  14.009
77645NA+    NA+36906   3.442  40.388  14.362
77646NA+    NA+36907  35.480  10.241  12.959
77647NA+    NA+36908  43.970  28.180  12.458
77648NA+    NA+36909   5.312  37.476   3.215
77649NA+    NA+36910  13.207  24.498   1.797
77650NA+    NA+36911   1.800  41.863   0.343
77651NA+    NA+36912  12.276   0.801   4.652
77652NA+    NA+36913  37.509  31.562  12.902
77653NA+    NA+36914  13.697   8.758   0.967
77654NA+    NA+36915  14.237  12.836   2.233
77655NA+    NA+36916  23.558  29.093   4.601
77656NA+    NA+36917  34.031  41.033  10.585
77657NA+    NA+36918  22.241  31.030   4.712
77658NA+    NA+36919  21.157  37.438   9.998
77659NA+    NA+36920  39.037   8.822  12.987
77660NA+    NA+36921  41.292   9.842   2.668
77661NA+    NA+36922  26.161  16.759  12.929
77662NA+    NA+36923  28.629   8.294   1.731
77663NA+    NA+36924  21.600  40.345   1.895
77664NA+    NA+36925  33.537   1.802  14.383
77665NA+    NA+36926  11.255   4.401   2.307
77666NA+    NA+36927  28.994  35.025   2.196
77667NA+    NA+36928  21.211  24.626   1.896
77668NA+    NA+36929  32.413   3.874  12.007
77669NA+    NA+36930  43.434  28.041  11.483
77670NA+    NA+36931  14.097  22.080  12.890
77671NA+    NA+36932   3.301   2.747   3.264
77672NA+    NA+36933   7.412  19.115   1.384
77673NA+    NA+36934  19.263  16.102  12.495
77674NA+    NA+36935   7.188   3.242   4.809
77675NA+    NA+36936  19.547  19.267  12.959
77676NA+    NA+36937  19.160  28.437   4.252
77677NA+    NA+36938  32.930  26.590   2.222
77678NA+    NA+36939   9.208  25.650  11.432
77679NA+    NA+36940  25.035   9.698  11.120
77680NA+    NA+36941  13.236  29.471  11.468
77681NA+    NA+36942   4.845  21.153   1.781
77682NA+    NA+36943   7.750  12.758   2.203
77683NA+    NA+36944  14.704  20.041   4.761
77684NA+    NA+36945   2.392  25.051  14.882
77685NA+    NA+36946  38.060  22.684  10.142
77686NA+    NA+36947  29.955  12.796   2.897
77687NA+    NA+36948  31.107  32.921   1.899
77688NA+    NA+36949  23.718   3.901  11.395
77689NA+    NA+36950  16.684  10.245  11.101
77690NA+    NA+36951  23.711  18.697   3.290
77691NA+    NA+36952   4.296  20.123  14.914
77692NA+    NA+36953   7.775   4.282  11.908
77693NA+    NA+36954   8.802  21.560  12.465
77694NA+    NA+36955  15.821   3.865   4.669
77695NA+    NA+36956  34.039  13.718   1.383
77696NA+    NA+36957  13.136  35.854   1.857
77697NA+    NA+36958   7.831  25.644  13.942
77698NA+    NA+36959  36.366  22.675   1.270
77699NA+    NA+36960   5.332  32.473  13.519
77700NA+    NA+36961  31.418  29.075   0.946
77701NA+    NA+36962  26.181  33.944   0.444
77702NA+    NA+36963  14.628  18.157  12.058
77703NA+    NA+36964  21.728  23.197  14.976
77704NA+    NA+36965  41.936  35.906  10.895
77705NA+    NA+36966  35.032  34.891   1.782
77706NA+    NA+36967   0.485  20.250   1.735
77707NA+    NA+36968   5.286  36.565  13.481
77708NA+    NA+36969  28.514  20.738  13.934
77709NA+    NA+36970  24.552   0.903  12.833
77710NA+    NA+36971  19.188  42.491  11.410
77711NA+    NA+36972  26.609  33.391   2.193
77712NA+    NA+36973  27.947  26.477  13.352
77713NA+    NA+36974  25.103  41.428  10.457
77714NA+    NA+36975  24.168  12.266   1.750
77715NA+    NA+36976  40.822  38.429  12.835
77716NA+    NA+36977  32.980  33.043  13.383
77717NA+    NA+36978  14.138  34.896  12.916
77718NA+    NA+36979  11.134   0.836  12.477
77719NA+    NA+36980  27.062  40.342  14.935
77720NA+    NA+36981  27.563  18.768   0.243
77721NA+    NA+36982  41.322  25.990  12.425
77722NA+    NA+36983   7.236  35.078   0.930
77723NA+    NA+36984  33.929  14.334   3.828
77724NA+    NA+36985  16.768   3.810  13.974
77725NA+    NA+36986  35.383  11.167   2.887
77726NA+    NA+36987  37.021  13.835  13.024
77727NA+    NA+36988  34.869  14.745   3.776
77728NA+    NA+36989  19.770  40.347   4.696
77729NA+    NA+36990  11.327  15.287   2.687
77730NA+    NA+36991  22.206  12.687   1.282
77731NA+    NA+36992  44.320   8.360   3.248
77732NA+    NA+36993  39.958  19.186  13.004
77733NA+    NA+36994  31.099  17.600   2.824
77734NA+    NA+36995  44.866  10.748  10.559
77735NA+    NA+36996  15.313  43.499   0.759
77736NA+    NA+36997  16.196  27.142   1.809
77737NA+    NA+36998   1.423  43.962   2.381
77738NA+    NA+36999  23.636  43.862   3.687
77739NA+    NA+37000  21.221  17.275   3.262
77740NA+    NA+37001  35.012  32.615   0.294
77741NA+    NA+37002  38.471   9.172  10.446
77742NA+    NA+37003  34.581  41.848  14.473
77743NA+    NA+37004  42.990  27.984  11.415
77744NA+    NA+37005   1.461  29.964  14.422
77745NA+    NA+37006  44.990  29.458  10.482
77746NA+    NA+37007  14.815  43.862  11.967
77747NA+    NA+37008  31.123  11.632   0.373
77748NA+    NA+37009  27.061  34.516  14.925
77749NA+    NA+37010  38.060  37.573  13.420
77750NA+    NA+37011   8.746  21.653  14.015
77751NA+    NA+37012  38.560   7.834  14.514
77752NA+    NA+37013  14.695  38.982  10.572
77753NA+    NA+37014   7.848   4.209  10.104
77754NA+    NA+37015   2.725  28.021   1.283
77755NA+    NA+37016  20.198  13.154  12.881
77756NA+    NA+37017   0.398   9.655   1.786
77757NA+    NA+37018   2.785   0.745  12.920
77758NA+    NA+37019  30.102  31.478   4.614
77759NA+    NA+37020  16.091   3.949   2.281
77760NA+    NA+37021   4.236   3.419   2.726
77761NA+    NA+37022  36.390  37.082  12.903
77762NA+    NA+37023   4.419  16.144  12.429
77763NA+    NA+37024  25.055  27.039  11.420
77764NA+    NA+37025  24.143   0.282   3.184
77765NA+    NA+37026  20.688  21.175  14.801
77766NA+    NA+37027  40.320   8.690   1.334
77767NA+    NA+37028   3.380  35.442   1.213
77768NA+    NA+37029   6.190  40.824   1.319
77769NA+    NA+37030  34.121  37.379  14.858
77770NA+    NA+37031  25.184  14.767  13.532
77771NA+    NA+37032  35.548  25.623  14.794
77772NA+    NA+37033  43.831  27.045  14.312
77773NA+    NA+37034  20.545  33.007  12.874
77774NA+    NA+37035  31.128   8.258  10.569
77775NA+    NA+37036  43.785  32.988   0.302
77776NA+    NA+37037   2.736  36.888  12.361
77777NA+    NA+37038  27.026  23.076   0.738
77778NA+    NA+37039  12.849   3.920   0.960
77779NA+    NA+37040  43.476   3.261   5.209
77780NA+    NA+37041  44.438  30.625   0.283
77781NA+    NA+37042  38.061  12.688   3.863
77782NA+    NA+37043   8.243  17.100  13.416
77783NA+    NA+37044  19.581  36.025   1.813
77784NA+    NA+37045  35.075  17.087   2.237
77785NA+    NA+37046  35.426  18.115   4.334
77786NA+    NA+37047   5.900   8.846   4.246
77787NA+    NA+37048   3.337  12.135   3.306
77788NA+    NA+37049   4.237   1.405   0.918
77789NA+    NA+37050  42.909  10.719   4.269
77790NA+    NA+37051   9.665  23.501   4.770
77791NA+    NA+37052   3.954  27.958   2.845
77792NA+    NA+37053  10.838   0.249  13.834
77793NA+    NA+37054   6.874  23.727  10.630
77794NA+    NA+37055  45.000  27.029  14.994
77795NA+    NA+37056   6.244  13.302  14.818
77796NA+    NA+37057  33.388  15.588  14.893
77797NA+    NA+37058   5.788   1.300  13.873
77798NA+    NA+37059  39.560  18.273   0.884
77799NA+    NA+37060  16.628  23.721  13.895
77800NA+    NA+37061  34.890  27.451  13.004
77801NA+    NA+37062  19.601  37.072  11.447
77802NA+    NA+37063  20.703   8.847   2.815
77803NA+    NA+37064   4.752   9.776   3.153
77804NA+    NA+37065  13.715  23.198   1.385
77805NA+    NA+37066  18.788   7.863  12.505
77806NA+    NA+37067  13.808  29.477  11.105
77807NA+    NA+37068  26.082  27.061   1.821
77808NA+    NA+37069  44.434  42.858   0.742
77809NA+    NA+37070  29.960  30.530  14.797
77810NA+    NA+37071  14.699  34.557  13.829
77811NA+    NA+37072  33.440  25.144   4.755
77812NA+    NA+37073  19.645  23.002   0.477
77813NA+    NA+37074  12.706   3.236   0.284
77814NA+    NA+37075  44.502  26.528  10.631
77815NA+    NA+37076  43.276  37.392   2.718
77816NA+    NA+37077  24.526   7.853   2.692
77817NA+    NA+37078   3.450   7.721   5.267
77818NA+    NA+37079  21.721  44.776   1.928
77819NA+    NA+37080  17.102  29.118   2.181
77820NA+    NA+37081  35.471  36.845   4.830
77821NA+    NA+37082  22.057  38.569   2.300
77822NA+    NA+37083  23.165  40.531  11.877
77823NA+    NA+37084  30.523  17.654   2.392
77824NA+    NA+37085  36.456  15.135  11.389
77825NA+    NA+37086   1.298  28.977  13.908
77826NA+    NA+37087  37.080  17.098   1.773
77827NA+    NA+37088  30.947  19.046  12.574
77828NA+    NA+37089  24.514  32.573  13.437
77829NA+    NA+37090   1.764  42.008  10.936
77830NA+    NA+37091  10.743  37.887   4.352
77831NA+    NA+37092  11.729  38.895  14.330
77832NA+    NA+37093   4.388  23.665   3.644
77833NA+    NA+37094   9.381   4.429   1.253
77834NA+    NA+37095  21.027  14.826   2.410
77835NA+    NA+37096   4.756  26.977  11.972
77836NA+    NA+37097  44.316  11.738  11.094
77837NA+    NA+37098  26.608  22.040  11.118
77838NA+    NA+37099  38.536   3.248   2.771
77839NA+    NA+37100  37.888   5.709   4.163
77840NA+    NA+37101  37.439   3.248   1.402
77841NA+    NA+37102   2.731  18.106   2.690
77842NA+    NA+37103  12.742   1.327  10.622
77843NA+    NA+37104  37.929  27.669  13.046
77844NA+    NA+37105  28.128  14.166   0.454
77845NA+    NA+37106  41.916   2.920  12.552
77846NA+    NA+37107   5.228   5.239   5.607
77847NA+    NA+37108  19.536  23.139   3.650
77848NA+    NA+37109  37.498  23.163  12.036
77849NA+    NA+37110  36.922  23.117   3.147
77850NA+    NA+37111  13.639  35.014  12.453
77851NA+    NA+37112  12.808   4.303   0.734
77852NA+    NA+37113  43.365   7.722   0.361
77853NA+    NA+37114  13.689   5.816   4.249
77854NA+    NA+37115  20.726  24.493   4.633
77855NA+    NA+37116  39.381  20.063   2.373
77856NA+    NA+37117  42.405   6.274   1.306
77857NA+    NA+37118  34.068  28.061  10.089
77858NA+    NA+37119  38.380  14.636   3.332
77859NA+    NA+37120  15.248   6.408  10.623
77860NA+    NA+37121  25.153  36.355   5.093
77861NA+    NA+37122  39.957  20.724  10.904
77862NA+    NA+37123  40.813  29.630   0.274
77863NA+    NA+37124  31.136   8.670   3.796
77864NA+    NA+37125  35.587  38.436  10.513
77865NA+    NA+37126   6.916   8.841  14.465
77866NA+    NA+37127  17.703  12.838   2.784
77867NA+    NA+37128  25.618  15.137  10.941
77868NA+    NA+37129  29.173   2.916   0.932
77869NA+    NA+37130  43.462  13.624   1.836
77870NA+    NA+37131  37.980  36.963   1.243
77871NA+    NA+37132   2.231   1.732   0.327
77872NA+    NA+37133   6.251  40.526   1.809
77873NA+    NA+37134  33.440  13.805   4.271
77874NA+    NA+37135  34.610  22.193  12.841
77875NA+    NA+37136  43.415  43.403   4.121
77876NA+    NA+37137  30.590  35.454  14.832
77877NA+    NA+37138  26.699  36.448  13.866
77878NA+    NA+37139  44.933  35.566   0.281
77879NA+    NA+37140  16.747  31.603   2.326
77880NA+    NA+37141  11.166  37.535  12.387
77881NA+    NA+37142   3.953  10.693  14.823
77882NA+    NA+37143  19.160  34.517   4.353
77883NA+    NA+37144  23.134  37.521   0.264
77884NA+    NA+37145  40.430  27.151   4.174
77885NA+    NA+37146   2.336  22.630   2.324
77886NA+    NA+37147  22.117  25.997  10.526
77887NA+    NA+37148   9.644  42.958  14.347
77888NA+    NA+37149  31.455  27.598  11.554
77889NA+    NA+37150  15.149  33.894  12.851
77890NA+    NA+37151   9.798  11.229   4.334
77891NA+    NA+37152  27.971  34.961  10.629
77892NA+    NA+37153  27.076  17.094   1.800
77893NA+    NA+37154   6.806  17.617  11.889
77894NA+    NA+37155  10.791  40.966   4.608
77895NA+    NA+37156  25.126  19.190   2.833
77896NA+    NA+37157  43.439  24.189  10.574
77897NA+    NA+37158  12.809  31.071  13.526
77898NA+    NA+37159  42.932  43.890   2.200
77899NA+    NA+37160  29.663  35.548   3.854
77900NA+    NA+37161  34.519  13.732   2.712
77901NA+    NA+37162  29.964  24.559   4.729
77902NA+    NA+37163   5.204  12.819  10.574
77903NA+    NA+37164  38.848  26.194  10.025
77904NA+    NA+37165  30.085   6.210   1.359
77905NA+    NA+37166  22.226  25.488  13.984
77906NA+    NA+37167  40.874  41.938   3.741
77907NA+    NA+37168  41.986  19.040   3.806
77908NA+    NA+37169   8.338  22.997  14.401
77909NA+    NA+37170  31.532  42.918   1.927
77910NA+    NA+37171  29.588  38.077   3.229
77911NA+    NA+37172   6.868   1.812   1.817
77912NA+    NA+37173   0.773  32.072   0.921
77913NA+    NA+37174  25.111  37.926   4.225
77914NA+    NA+37175  32.984  18.555  13.326
77915NA+    NA+37176  36.520  30.515   5.156
77916NA+    NA+37177   2.850   6.762   2.897
77917NA+    NA+37178   2.406   1.961  14.505
77918NA+    NA+37179  15.683  44.374  13.350
77919NA+    NA+37180  12.782  37.049  10.453
77920NA+    NA+37181   5.748  22.202   1.891
77921NA+    NA+37182  27.562  41.856  14.007
77922NA+    NA+37183  40.961  14.274   5.795
77923NA+    NA+37184  28.583  29.521   4.298
77924NA+    NA+37185  30.101  23.063  13.004
77925NA+    NA+37186  42.889  18.685   4.746
77926NA+    NA+37187  28.518  26.148   0.448
77927NA+    NA+37188   0.874  29.934  12.082
77928NA+    NA+37189  28.988   7.753  12.910
77929NA+    NA+37190  11.691  18.603   1.314
77930NA+    NA+37191  43.862  25.595   1.317
77931NA+    NA+37192  20.642  40.987   2.221
77932NA+    NA+37193   3.847  22.583   2.774
77933NA+    NA+37194  18.168  14.204  10.466
77934NA+    NA+37195  30.641  12.702  14.020
77935NA+    NA+37196  27.454  20.535   1.760
77936NA+    NA+37197  24.119  19.598   5.211
77937NA+    NA+37198  40.346   7.790   0.312
77938NA+    NA+37199  34.050  18.602   0.956
77939NA+    NA+37200  15.119  44.791  10.512
77940NA+    NA+37201  44.981  37.367  14.885
77941NA+    NA+37202  38.018   0.330   0.737
77942NA+    NA+37203  18.116  14.618  10.890
77943NA+    NA+37204  15.636  37.508  10.000
77944NA+    NA+37205  34.532  20.754   0.806
77945NA+    NA+37206  36.982  23.152  10.407
77946NA+    NA+37207   2.318  23.598  14.031
77947NA+    NA+37208  13.772  33.117   2.759
77948NA+    NA+37209  40.449  43.991  13.535
77949NA+    NA+37210   0.758  28.968   3.305
77950NA+    NA+37211  13.162  18.707   3.222
77951NA+    NA+37212  12.672  34.415  11.985
77952NA+    NA+37213  32.546   3.255  10.457
77953NA+    NA+37214   1.452  31.121   3.233
77954NA+    NA+37215  14.148  43.987  13.427
77955NA+    NA+37216  19.577  42.804   2.818
77956NA+    NA+37217  40.389  13.844   0.472
77957NA+    NA+37218  16.157  29.545  10.950
77958NA+    NA+37219  13.227   0.412   2.827
77959NA+    NA+37220  23.163  14.152   3.337
77960NA+    NA+37221  12.255  22.071   2.405
77961NA+    NA+37222  14.759  15.087   3.147
77962NA+    NA+37223  40.440   0.491  11.558
77963NA+    NA+37224   0.440  22.171  13.946
77964NA+    NA+37225  19.282  20.235   2.786
77965NA+    NA+37226  43.854  27.014   1.230
77966NA+    NA+37227   7.704  39.976   1.920
77967NA+    NA+37228  36.932   9.209  11.059
77968NA+    NA+37229  10.761  34.590  10.454
77969NA+    NA+37230  32.618   5.432  10.452
77970NA+    NA+37231   4.785   0.454  13.929
77971NA+    NA+37232  14.599  43.770   4.190
77972NA+    NA+37233  12.353  31.635  10.461
77973NA+    NA+37234  42.850  27.117  12.859
77974NA+    NA+37235  13.784  31.125   1.716
77975NA+    NA+37236  12.341   2.401   1.892
77976NA+    NA+37237   0.803  39.528   0.384
77977NA+    NA+37238  44.818  21.635   2.880
77978NA+    NA+37239  22.515  37.480   4.600
77979NA+    NA+37240   9.271  29.602   0.887
77980NA+    NA+37241  42.448   5.753   4.708
77981NA+    NA+37242   0.935   1.308  14.440
77982NA+    NA+37243  38.043  26.534  11.880
77983NA+    NA+37244  17.069  34.058   3.261
77984NA+    NA+37245  19.148  25.709  14.955
77985NA+    NA+37246  16.226   2.767  10.898
77986NA+    NA+37247  40.810   9.728   2.690
77987NA+    NA+37248   5.905  39.979  11.425
77988NA+    NA+37249  39.046   7.279  10.922
77989NA+    NA+37250  17.121  15.751  10.121
77990NA+    NA+37251  33.412  37.938   2.887
77991NA+    NA+37252  23.592  31.497  14.017
77992NA+    NA+37253  40.991  17.143  13.007
77993NA+    NA+37254  35.477  39.370   3.293
77994NA+    NA+37255  36.458  12.125   1.302
77995NA+    NA+37256   0.961   4.800   0.850
77996NA+    NA+37257  19.205  13.737   4.142
77997NA+    NA+37258  32.477  20.580   4.275
77998NA+    NA+37259  43.861  37.891   0.853
77999NA+    NA+37260   1.454  34.009   3.352
78000NA+    NA+37261  15.738  38.445   3.317
78001CL-    CL-37262  31.127  37.519   1.713
78002CL-    CL-37263  29.667  28.072   4.792
78003CL-    CL-37264  36.035  28.457   1.290
78004CL-    CL-37265  40.370  18.704   1.768
78005CL-    CL-37266  24.075  18.208  13.475
78006CL-    CL-37267  26.020  31.033   1.767
78007CL-    CL-37268  23.059  25.215  12.039
78008CL-    CL-37269  39.402  29.993  10.894
78009CL-    CL-37270  32.898  25.677  14.981
78010CL-    CL-37271  11.215   6.235   4.175
78011CL-    CL-37272  29.539  11.735  12.530
78012CL-    CL-37273  15.257  43.806  12.382
78013CL-    CL-37274  12.649  22.738   4.215
78014CL-    CL-37275  21.581  20.141  13.414
78015CL-    CL-37276  16.656  38.481   0.328
78016CL-    CL-37277  13.231  40.423   2.822
78017CL-    CL-37278  27.945  36.348  12.513
78018CL-    CL-37279  25.115  30.940  12.438
78019CL-    CL-37280  10.341   1.368  13.527
78020CL-    CL-37281  16.227  27.669  12.896
78021CL-    CL-37282  35.032  39.889  10.450
78022CL-    CL-37283  32.079  34.881  11.077
78023CL-    CL-37284  20.105  30.505  11.970
78024CL-    CL-37285  44.424  22.525  13.532
78025CL-    CL-37286  22.626  38.893   2.394
78026CL-    CL-37287  19.093   9.710  11.377
78027CL-    CL-37288   9.348  19.147   4.190
78028CL-    CL-37289   4.326   0.382  11.506
78029CL-    CL-37290  38.971   8.188   2.240
78030CL-    CL-37291  37.876  36.497  12.368
78031CL-    CL-37292   6.837  24.516  14.892
78032CL-    CL-37293   4.216  11.793  12.556
78033CL-    CL-37294   1.407  15.180  12.525
78034CL-    CL-37295  12.766  19.059   0.398
78035CL-    CL-37296  27.123  31.137   1.861
78036CL-    CL-37297  10.689  31.573  10.635
78037CL-    CL-37298  22.662  39.842  11.379
78038CL-    CL-37299   1.347  17.559   1.833
78039CL-    CL-37300   4.331  44.313   1.374
78040CL-    CL-37301  34.016  26.650   3.270
78041CL-    CL-37302   6.712  17.149  12.082
78042CL-    CL-37303  29.151  33.009  13.920
78043CL-    CL-37304  40.407  24.611  13.985
78044CL-    CL-37305   9.645  35.869   1.714
78045CL-    CL-37306  24.024  34.413  11.871
78046CL-    CL-37307  44.442  28.466   5.274
78047CL-    CL-37308  33.500  36.008  14.968
78048CL-    CL-37309  12.681  38.891   3.634
78049CL-    CL-37310  34.479  36.521  13.414
78050CL-    CL-37311  39.977   3.726  14.327
78051CL-    CL-37312   7.302  34.890  14.834
78052CL-    CL-37313  21.614  19.161  11.968
78053CL-    CL-37314  19.147  19.677  14.941
78054CL-    CL-37315  27.121   0.742  11.073
78055CL-    CL-37316  42.812  35.878  13.949
78056CL-    CL-37317  22.084  44.950   3.718
78057CL-    CL-37318   5.233  33.575  11.034
78058CL-    CL-37319  28.491  15.724   4.675
78059CL-    CL-37320  27.668  17.719   1.252
78060CL-    CL-37321  39.856  39.369  13.961
78061CL-    CL-37322  26.065  41.449  10.512
78062CL-    CL-37323  14.174  44.277   1.416
78063CL-    CL-37324  41.321   5.841  10.563
78064CL-    CL-37325  43.907  15.612   4.619
78065CL-    CL-37326   1.967  10.168  11.584
78066CL-    CL-37327  27.652  15.590   2.376
78067CL-    CL-37328   0.413  16.684  13.981
78068CL-    CL-37329  27.558  36.911   4.345
78069CL-    CL-37330  37.524  20.142   5.110
78070CL-    CL-37331   4.938  15.198  10.090
78071CL-    CL-37332  44.788  32.470  12.906
78072CL-    CL-37333  15.656  27.520   0.443
78073CL-    CL-37334  38.548   4.203  10.643
78074CL-    CL-37335  38.952   8.733   4.214
78075CL-    CL-37336  10.379  20.164   4.721
78076CL-    CL-37337  24.672  20.575   1.754
78077CL-    CL-37338   3.864  30.474   2.208
78078CL-    CL-37339  22.219  28.159  13.346
78079CL-    CL-37340  23.591  36.515  12.080
78080CL-    CL-37341  33.494  24.224   4.660
78081CL-    CL-37342  24.584  36.414  14.289
78082CL-    CL-37343  33.412  27.008  10.994
78083CL-    CL-37344  29.633   6.271  10.645
78084CL-    CL-37345  25.669  10.174   1.237
78085CL-    CL-37346  17.081  22.718   0.467
78086CL-    CL-37347  40.993   2.470   4.783
78087CL-    CL-37348  24.568  11.370   4.610
78088CL-    CL-37349  20.216  40.367   5.091
78089CL-    CL-37350   0.369  10.269   2.236
78090CL-    CL-37351  31.946   9.266  12.548
78091CL-    CL-37352   8.189  20.627   3.352
78092CL-    CL-37353  40.811  16.696   1.400
78093CL-    CL-37354   5.378   3.240  12.523
78094CL-    CL-37355  31.477   7.322  14.813
78095CL-    CL-37356  33.611  37.431   0.377
78096CL-    CL-37357  18.274  25.091   3.840
78097CL-    CL-37358  37.831  20.716  10.488
78098CL-    CL-37359  22.709   7.387  14.295
78099CL-    CL-37360  21.533  41.319   4.797
78100CL-    CL-37361   5.756  21.156  10.980
78101CL-    CL-37362  18.592  36.507  14.480
78102CL-    CL-37363  11.743   1.465  14.495
78103CL-    CL-37364  23.692   3.460  12.946
78104CL-    CL-37365  14.660  39.342   3.244
78105CL-    CL-37366  35.438  44.260   1.794
78106CL-    CL-37367  42.473   8.839   4.203
78107CL-    CL-37368  21.735  11.329   4.203
78108CL-    CL-37369  28.631  25.523  14.396
78109CL-    CL-37370   1.437   5.362   0.832
78110CL-    CL-37371  18.195  44.925   1.314
78111CL-    CL-37372   3.308  40.401  13.353
78112CL-    CL-37373  31.105  44.834  14.799
78113CL-    CL-37374   8.174  17.632   1.772
78114CL-    CL-37375  28.497  11.294   1.739
78115CL-    CL-37376  20.658  16.759  13.470
78116CL-    CL-37377  34.865  13.158   3.713
78117CL-    CL-37378  15.156  13.248   2.271
78118CL-    CL-37379  17.591   4.311   2.355
78119CL-    CL-37380   4.926  28.178  14.277
78120CL-    CL-37381   4.286   9.676  10.905
78121CL-    CL-37382  40.020  13.623  13.506
78122CL-    CL-37383  35.442  22.719   1.258
78123CL-    CL-37384   6.866   0.790  11.956
78124CL-    CL-37385  11.862  15.738  13.445
78125CL-    CL-37386  42.305  19.651   4.775
78126CL-    CL-37387  11.269  41.035  10.922
78127CL-    CL-37388  18.204   0.281  12.973
78128CL-    CL-37389  10.279  26.669   0.738
78129CL-    CL-37390  26.154  25.517  13.857
78130CL-    CL-37391  20.651  37.019   2.803
78131CL-    CL-37392  15.621  16.105   0.421
78132CL-    CL-37393   8.702  31.457  12.393
78133CL-    CL-37394  30.468  21.218  13.058
78134CL-    CL-37395  36.495  16.732  11.074
78135CL-    CL-37396  34.930  27.132  14.772
78136CL-    CL-37397  13.128   8.898   3.331
78137CL-    CL-37398  10.319   6.277   5.222
78138CL-    CL-37399  34.432  43.776  10.506
78139CL-    CL-37400  43.340  28.999  12.004
78140CL-    CL-37401  23.668  33.125   0.753
78141CL-    CL-37402  22.677  36.060  12.524
78142CL-    CL-37403  41.370  21.045  13.494
78143CL-    CL-37404  38.326  23.500  12.996
78144CL-    CL-37405  14.279   6.852  14.347
78145CL-    CL-37406   6.228  11.814   0.460
78146CL-    CL-37407  31.117  33.104  10.507
78147CL-    CL-37408  13.732  10.735  12.894
78148CL-    CL-37409  34.105   3.752   3.197
78149CL-    CL-37410  14.705  41.462  10.628
78150CL-    CL-37411  16.298  27.648  13.918
78151CL-    CL-37412  11.329  28.610  10.906
78152CL-    CL-37413  18.688   8.221   2.274
78153CL-    CL-37414  16.608  29.595   2.274
78154CL-    CL-37415  19.166  20.157   3.325
78155CL-    CL-37416  19.657  32.630   4.222
78156CL-    CL-37417  21.612  16.240   0.271
78157CL-    CL-37418  29.509   1.375   1.908
78158CL-    CL-37419  28.442  18.735  11.981
78159CL-    CL-37420   5.237  21.153   4.317
78160CL-    CL-37421   6.280  31.437  13.359
78161CL-    CL-37422   3.839   9.353   2.703
78162CL-    CL-37423   7.203   5.380  11.125
78163CL-    CL-37424  10.251   9.197  13.366
78164CL-    CL-37425   4.328  13.810   3.255
78165CL-    CL-37426  39.057   5.243   0.730
78166CL-    CL-37427  12.357   9.335   1.415
78167CL-    CL-37428  24.053  19.699  13.951
78168CL-    CL-37429   0.771  30.931  12.029
78169CL-    CL-37430  44.887   2.764   1.856
78170CL-    CL-37431  10.157  26.480  12.509
78171CL-    CL-37432  42.284   2.900  11.390
78172CL-    CL-37433  39.978  23.041  11.897
78173CL-    CL-37434   1.241   4.896   0.281
78174CL-    CL-37435   2.888  26.700  13.943
78175CL-    CL-37436  35.595  44.372  11.910
78176CL-    CL-37437   8.187  15.595  11.426
78177CL-    CL-37438  37.511   7.183   3.306
78178CL-    CL-37439   1.813   6.283   0.403
78179CL-    CL-37440   2.752  14.299  14.304
78180CL-    CL-37441  12.330  42.847  13.900
78181CL-    CL-37442  35.053   3.939   3.711
78182CL-    CL-37443  21.088  40.338   0.451
78183CL-    CL-37444  35.981  22.579   1.377
78184CL-    CL-37445  37.940  27.190   1.758
78185CL-    CL-37446  23.616  26.977  14.766
78186CL-    CL-37447  41.454  22.203  11.083
78187CL-    CL-37448  30.595  25.514  11.936
78188CL-    CL-37449  43.945  11.689  10.500
78189CL-    CL-37450  14.747  43.819  13.822
78190CL-    CL-37451   9.806  17.091  11.917
78191CL-    CL-37452  43.504  18.663  11.961
78192CL-    CL-37453  19.606  36.964   3.752
78193CL-    CL-37454  15.126  17.200  13.374
78194CL-    CL-37455  10.190  41.427  13.370
78195CL-    CL-37456  13.643  33.430   2.246
78196CL-    CL-37457   5.219  28.605  14.384
78197CL-    CL-37458  16.209   7.909   3.866
78198CL-    CL-37459  21.703  14.317  13.544
78199CL-    CL-37460   2.410  36.381   4.306
78200CL-    CL-37461  16.749  25.558   3.165
78201CL-    CL-37462  13.811  19.091   1.351
78202CL-    CL-37463  27.137  35.411  11.431
78203CL-    CL-37464   3.791  25.642  12.012
78204CL-    CL-37465  15.715   2.962   0.873
78205CL-    CL-37466  22.593   8.743   4.134
78206CL-    CL-37467  35.362   0.347   0.799
78207CL-    CL-37468  26.466   3.420   4.245
78208CL-    CL-37469  25.665  39.871  10.470
78209CL-    CL-37470  25.048  33.469  11.382
78210CL-    CL-37471   2.835  43.926  11.464
78211CL-    CL-37472  40.915  27.513  11.924
78212CL-    CL-37473   0.253  10.224   0.774
78213CL-    CL-37474  20.076  35.862  12.437
78214CL-    CL-37475  33.618  38.883   3.263
78215CL-    CL-37476  35.427  22.024   4.634
78216CL-    CL-37477  33.419  10.262   0.886
78217CL-    CL-37478  16.683  28.456   1.390
78218CL-    CL-37479  33.888  43.332  11.077
78219CL-    CL-37480  21.259  11.847  11.544
78220CL-    CL-37481  25.654  16.253   3.745
78221CL-    CL-37482  41.832   7.726  13.452
78222CL-    CL-37483  14.610  25.972   4.160
78223CL-    CL-37484  26.149  38.337  13.974
78224CL-    CL-37485  44.847  21.657  13.487
78225CL-    CL-37486  12.759  39.902  14.419
78226CL-    CL-37487   9.788   4.748   1.922
78227CL-    CL-37488  32.007  28.469  14.487
78228CL-    CL-37489  17.126   3.353   1.876
78229CL-    CL-37490   4.862   6.357   1.879
78230CL-    CL-37491   9.242  26.558   0.462
78231CL-    CL-37492  14.682  33.072  12.936
78232CL-    CL-37493  23.155  31.001  12.922
78233CL-    CL-37494  18.120  26.659  13.799
78234CL-    CL-37495   3.217  12.303  10.457
78235CL-    CL-37496  15.600  18.728  14.880
78236CL-    CL-37497  15.719  14.212  10.975
78237CL-    CL-37498  12.269  38.910  11.927
78238CL-    CL-37499  36.550  12.339   0.946
78239CL-    CL-37500  44.944  31.435   0.353
78240CL-    CL-37501   5.295  41.423  12.001
78241CL-    CL-37502  38.471   2.802  14.945
78242CL-    CL-37503  21.087   8.790   1.322
78243CL-    CL-37504  10.296  10.647  12.412
78244CL-    CL-37505   0.747   7.317  13.363
78245CL-    CL-37506  42.448  40.303   3.803
78246CL-    CL-37507   4.824  20.115  10.951
78247CL-    CL-37508  34.490  37.076   2.386
78248CL-    CL-37509  20.612  10.820   1.760
78249CL-    CL-37510  20.110   6.698  12.894
78250CL-    CL-37511  20.036  38.473   2.387
78251CL-    CL-37512  24.668  21.190  13.791
78252CL-    CL-37513  22.711   0.368   2.818
78253CL-    CL-37514  35.937  35.430  10.445
78254CL-    CL-37515  18.069  32.931   0.775
78255CL-    CL-37516   0.336   4.849  11.881
78256CL-    CL-37517   7.869   4.347  10.563
78257CL-    CL-37518  43.278  27.652  11.491
78258CL-    CL-37519  25.134  35.077   0.265
78259CL-    CL-37520   3.713  37.434  14.830
78260CL-    CL-37521  44.396   6.731  11.084
78261CL-    CL-37522  42.498  14.171   3.644
78262CL-    CL-37523  18.624  40.930  10.935
78263CL-    CL-37524  20.564   2.376  12.493
78264CL-    CL-37525  30.601  12.778   3.354
78265CL-    CL-37526  26.193  30.577  11.486
78266CL-    CL-37527   9.725  25.055  12.965
78267CL-    CL-37528  40.799  33.573  14.836
78268CL-    CL-37529   5.921   8.823  11.062
78269CL-    CL-37530  34.005  41.917  13.431
78270CL-    CL-37531  17.095  30.918  12.080
78271CL-    CL-37532  35.986  37.914   0.790
78272CL-    CL-37533  28.957   9.324  10.497
78273CL-    CL-37534  30.045  43.807  10.470
78274CL-    CL-37535  27.511   7.249  10.626
78275CL-    CL-37536  24.606  39.404   4.763
78276CL-    CL-37537  12.178   9.774  14.328
78277CL-    CL-37538   9.248  37.914  10.595
78278CL-    CL-37539  42.317  37.035  12.832
78279CL-    CL-37540   5.238  24.220   0.287
78280CL-    CL-37541  28.612  19.276  10.583
78281CL-    CL-37542  10.336  44.891   1.791
78282CL-    CL-37543   4.923  13.691   1.392
78283CL-    CL-37544  21.191   4.770   3.727
78284CL-    CL-37545   8.194  10.233   0.906
78285CL-    CL-37546  13.350  12.211   3.335
78286CL-    CL-37547   0.490  42.999   4.352
78287CL-    CL-37548  20.111  12.291  13.337
78288CL-    CL-37549  17.134   3.381  10.097
78289CL-    CL-37550  22.233   4.316  14.903
78290CL-    CL-37551  16.097   7.722   1.844
78291CL-    CL-37552  34.965   3.392  13.794
78292CL-    CL-37553  27.026  32.557   5.146
78293CL-    CL-37554   2.943   3.357  12.499
78294CL-    CL-37555  20.127  39.416   2.873
78295CL-    CL-37556  26.634  43.418  10.404
78296CL-    CL-37557  13.763   2.804   4.285
78297CL-    CL-37558   0.790  25.622  10.480
78298CL-    CL-37559  17.561  11.186  11.945
78299CL-    CL-37560  17.638  12.655   4.606
78300CL-    CL-37561  31.906   3.829   3.666
78301CL-    CL-37562  41.003  21.222  13.862
78302CL-    CL-37563   6.875  31.648  12.523
78303CL-    CL-37564   6.367  19.193   0.834
78304CL-    CL-37565  37.398  42.391  14.016
78305CL-    CL-37566  35.475  18.551  11.925
78306CL-    CL-37567  33.068  18.184  14.020
78307CL-    CL-37568  27.589  15.643   0.826
78308CL-    CL-37569  36.056  18.775   1.915
78309CL-    CL-37570   9.310  24.654  10.929
78310CL-    CL-37571   0.461  41.292  10.595
78311CL-    CL-37572  23.681   5.266   3.339
78312CL-    CL-37573  37.402  32.398   3.776
78313CL-    CL-37574  20.043  39.997   4.350
78314CL-    CL-37575  29.135  32.559   1.930
78315CL-    CL-37576  40.831   8.235  13.383
78316CL-    CL-37577  39.463   0.984  14.916
78317CL-    CL-37578  33.547  17.153   0.383
78318CL-    CL-37579  21.093   5.717   2.243
78319CL-    CL-37580  19.738  12.241  14.384
78320CL-    CL-37581  11.226  12.244  10.964
78321CL-    CL-37582   3.406  23.664   2.182
78322CL-    CL-37583  37.551   3.826  14.962
78323CL-    CL-37584  25.676  44.978   3.321
78324CL-    CL-37585  42.291   8.194  11.973
78325CL-    CL-37586  15.609  32.007  13.051
78326CL-    CL-37587  27.500  16.302  13.484
78327CL-    CL-37588  16.113  19.052  10.933
78328CL-    CL-37589  18.670  10.199  12.496
78329CL-    CL-37590  35.866  13.654   0.741
78330CL-    CL-37591  42.862  18.719   2.665
78331CL-    CL-37592   4.320  40.500  10.531
78332CL-    CL-37593  11.856  14.658   2.366
78333CL-    CL-37594   8.389  15.609  11.007
78334CL-    CL-37595  33.442  31.912   3.799
78335CL-    CL-37596  35.945  31.034  13.514
78336CL-    CL-37597  26.077  14.749   0.833
78337CL-    CL-37598  33.960  14.620   4.604
78338CL-    CL-37599  34.087   7.381   9.502
78339CL-    CL-37600  20.232  27.099   0.351
78340CL-    CL-37601  31.523  26.671   4.599
78341CL-    CL-37602   0.388  38.847   3.726
78342CL-    CL-37603   0.304   0.917  11.876
78343CL-    CL-37604  31.022  20.562   3.179
78344CL-    CL-37605  15.093   2.908  14.886
78345CL-    CL-37606  32.545  30.121  12.002
78346CL-    CL-37607  12.611  18.156   4.780
78347CL-    CL-37608  44.365  16.216   2.323
78348CL-    CL-37609  33.569  27.194  14.920
78349CL-    CL-37610  19.556  31.552   4.200
78350CL-    CL-37611  14.752  21.671   2.903
78351CL-    CL-37612  28.587  37.070   4.137
78352CL-    CL-37613  23.201  40.491  13.340
78353CL-    CL-37614  28.559  10.271  10.453
78354CL-    CL-37615  26.027  12.188   1.737
78355CL-    CL-37616  32.032   9.704   0.403
78356CL-    CL-37617  34.538  34.539  14.905
78357CL-    CL-37618  43.910  36.086   2.885
78358CL-    CL-37619  19.203  28.118  14.846
78359CL-    CL-37620  42.841  31.013   3.260
78360CL-    CL-37621  17.584  16.268   4.179
78361CL-    CL-37622   2.748  26.661  10.966
78362CL-    CL-37623  34.527   6.885   0.913
78363CL-    CL-37624  28.528   6.359  12.853
78364CL-    CL-37625  23.522   6.755   1.331
78365CL-    CL-37626  17.597  42.330  12.991
78366CL-    CL-37627   6.850   9.367   0.775
78367CL-    CL-37628  39.422  34.426  11.534
78368CL-    CL-37629   5.381  10.140  14.936
78369CL-    CL-37630   8.762   4.374   4.126
78370CL-    CL-37631  39.955   9.386   2.361
78371CL-    CL-37632  10.155  33.617  11.501
78372CL-    CL-37633  39.503  42.933   1.298
78373CL-    CL-37634   5.390  18.212  14.956
78374CL-    CL-37635  24.532  17.652  11.547
78375CL-    CL-37636  43.914   2.286   1.749
78376CL-    CL-37637  10.295   8.202  11.092
78377CL-    CL-37638  32.428   2.908   3.708
78378CL-    CL-37639  33.583   9.663   2.345
78379CL-    CL-37640  30.481  21.026  14.462
78380CL-    CL-37641  23.645  11.203  14.017
78381CL-    CL-37642  27.136   1.375  12.877
78382CL-    CL-37643  23.198  32.985   2.257
78383CL-    CL-37644  42.954  12.659   4.714
78384CL-    CL-37645  12.249  22.746  11.489
78385CL-    CL-37646   6.225  37.359   4.615
78386CL-    CL-37647  30.426  39.452  10.453
78387CL-    CL-37648  32.495  28.436   3.207
78388CL-    CL-37649  11.199   8.333   1.390
78389CL-    CL-37650  36.489   3.339   0.808
78390CL-    CL-37651  38.555  15.630   3.192
78391CL-    CL-37652  12.151  36.953  13.801
78392CL-    CL-37653  16.098  21.669  11.410
78393CL-    CL-37654  24.708  23.174  11.113
78394CL-    CL-37655  13.633  21.200   4.670
78395CL-    CL-37656  27.590   8.255  14.820
78396CL-    CL-37657  28.661  44.905   0.478
78397CL-    CL-37658  33.584  14.166  11.587
78398CL-    CL-37659  37.962  19.693  11.441
78399CL-    CL-37660  30.031  19.572  11.472
78400CL-    CL-37661  11.813  27.063   1.264
78401CL-    CL-37662  24.999  22.553   2.832
78402CL-    CL-37663  24.639   9.674   1.751
78403CL-    CL-37664  43.471  33.940   0.358
78404CL-    CL-37665  12.224  38.377  10.493
78405CL-    CL-37666   5.221  14.120   1.719
78406CL-    CL-37667  16.736   7.332  14.763
78407CL-    CL-37668   5.233  35.544  12.837
78408CL-    CL-37669  24.722   3.767   1.247
78409CL-    CL-37670  13.749  23.018   0.303
78410CL-    CL-37671  24.052  37.466   5.109
78411CL-    CL-37672  41.022  18.763   4.697
78412CL-    CL-37673  21.186   4.784   4.603
78413CL-    CL-37674  12.199  43.018   2.890
78414CL-    CL-37675   7.687   9.697   3.295
78415CL-    CL-37676  43.875  28.501   2.762
78416CL-    CL-37677  42.975   4.828   0.256
78417CL-    CL-37678  11.234  16.242  14.804
78418CL-    CL-37679  17.272  34.468   3.669
78419CL-    CL-37680  28.956  18.788   3.147
78420CL-    CL-37681  43.878  13.686   4.807
78421CL-    CL-37682  39.553  26.475   1.784
78422CL-    CL-37683  25.485   0.289   2.730
78423CL-    CL-37684  12.681  11.236   2.372
78424CL-    CL-37685  35.582  43.505   2.665
78425CL-    CL-37686  34.886  15.149  11.382
78426CL-    CL-37687   1.788  11.216   2.288
78427CL-    CL-37688  23.581   7.794   1.805
78428CL-    CL-37689  38.974   8.164  12.887
78429CL-    CL-37690  44.423   9.172   3.290
78430CL-    CL-37691  27.588   4.402   2.256
78431CL-    CL-37692  41.461  25.022   3.246
78432CL-    CL-37693  32.914   4.737   4.698
78433CL-    CL-37694   4.908  39.898   0.243
78434CL-    CL-37695   9.214  42.899   0.271
78435CL-    CL-37696   3.714   3.416   0.934
78436CL-    CL-37697  44.831   1.262  13.411
78437CL-    CL-37698  31.473  44.929  11.428
78438CL-    CL-37699  38.828  14.211   0.481
78439CL-    CL-37700  24.156   0.770  12.469
78440CL-    CL-37701  16.600  32.520   2.210
78441CL-    CL-37702  37.900   6.734  10.899
78442CL-    CL-37703  13.283  33.896   4.667
78443CL-    CL-37704  38.562   4.737   0.354
78444CL-    CL-37705  15.107  42.287   4.618
78445CL-    CL-37706  44.756  29.939  13.798
78446CL-    CL-37707   1.786  40.884   4.638
78447CL-    CL-37708   5.371  32.487  14.847
78448CL-    CL-37709   5.713  35.903   1.900
78449CL-    CL-37710   4.844  43.913  14.913
78450CL-    CL-37711   3.388  32.893   0.844
78451CL-    CL-37712  23.656  16.179  12.464
78452CL-    CL-37713  37.846  33.575   0.801
78453CL-    CL-37714   1.840  43.291   1.249
78454CL-    CL-37715  42.988  39.326  12.533
78455CL-    CL-37716  27.007  39.550  12.026
78456CL-    CL-37717  20.671  26.202  11.986
78457CL-    CL-37718  40.827   8.192  13.794
78458CL-    CL-37719  16.081   1.740   0.752
78459CL-    CL-37720  28.051  41.445  14.304
78460CL-    CL-37721  26.201  21.550   4.708
78461CL-    CL-37722  13.139   6.221  12.496
78462CL-    CL-37723  37.030  22.167  12.570
78463CL-    CL-37724  23.672   0.311   0.923
78464CL-    CL-37725  39.837  29.090   3.335
78465CL-    CL-37726  26.620  42.973   3.380
78466CL-    CL-37727  24.983  15.633  12.860
78467CL-    CL-37728  36.887  29.040  13.512
78468CL-    CL-37729   0.822  13.625  12.005
78469CL-    CL-37730  41.464   6.223   1.799
78470CL-    CL-37731   3.911  32.042  14.995
78471CL-    CL-37732  27.553  23.070  12.524
78472CL-    CL-37733   5.713  42.395  13.501
78473CL-    CL-37734  30.596  29.614   2.774
78474CL-    CL-37735  15.750  26.205  11.425
78475CL-    CL-37736  24.225   8.396   3.155
78476CL-    CL-37737  26.031   0.927  13.343
78477CL-    CL-37738  34.884  13.311  12.050
78478CL-    CL-37739  10.655   7.832  12.541
78479CL-    CL-37740  29.114  38.066  14.842
78480CL-    CL-37741   1.804  43.414   3.647
78481CL-    CL-37742  34.064   6.237   3.258
78482CL-    CL-37743  29.942  41.431   0.422
78483CL-    CL-37744  41.414  44.816   0.840
78484CL-    CL-37745  16.658  28.538  10.603
78485CL-    CL-37746  39.902  14.624   4.833
78486CL-    CL-37747  26.012  15.708  13.801
78487CL-    CL-37748  18.068  17.232   0.281
78488CL-    CL-37749  34.412  21.191   0.954
78489CL-    CL-37750   8.758   5.867   1.918
78490CL-    CL-37751  32.992   3.228   2.751
78491CL-    CL-37752   0.390  21.581   2.735
78492CL-    CL-37753  42.461  36.090   2.391
78493CL-    CL-37754   2.450  35.999  11.035
78494CL-    CL-37755  43.271  17.194  13.847
78495CL-    CL-37756  25.535  14.722  12.422
78496CL-    CL-37757   8.283  41.921  13.837
78497CL-    CL-37758  36.852  23.496   3.304
78498CL-    CL-37759   7.758   5.777  14.310
78499CL-    CL-37760  31.093  35.373   3.319
78500CL-    CL-37761  37.001  28.013  11.867
78501CL-    CL-37762  35.540   0.879   1.844
78502CL-    CL-37763  26.098  22.167  10.494
78503CL-    CL-37764   3.253  43.832  13.438
78504CL-    CL-37765  29.929   9.887   0.436
78505CL-    CL-37766  43.466  40.048   1.791
78506CL-    CL-37767  28.584  14.237  11.921
78507CL-    CL-37768  16.714  17.186   4.827
78508CL-    CL-37769  35.366   9.263   0.335
78509CL-    CL-37770   1.259  27.678   3.852
78510CL-    CL-37771   3.262  39.346   3.225
78511CL-    CL-37772  37.522   3.315  13.023
78512CL-    CL-37773   7.792   5.197  12.443
78513CL-    CL-37774  16.663   6.805   0.864
78514CL-    CL-37775  37.457  21.604  13.911
78515CL-    CL-37776  42.370   6.377  11.065
78516CL-    CL-37777  19.540   8.843   0.960
78517CL-    CL-37778  42.801  16.170  12.877
78518CL-    CL-37779   7.890  20.109   3.719
78519CL-    CL-37780  11.132  11.291  14.938
78520CL-    CL-37781  23.048   1.274  11.459
78521CL-    CL-37782  28.969  18.644   1.339
78522CL-    CL-37783  25.145  11.138   1.443
78523CL-    CL-37784  40.500   4.870  11.480
78524CL-    CL-37785   2.460  12.635   4.711
78525CL-    CL-37786   1.323  14.833  14.848
78526CL-    CL-37787  20.745  19.585  12.949
78527CL-    CL-37788  16.622  29.516   3.249
78528CL-    CL-37789  29.015   5.929   3.863
78529CL-    CL-37790  13.705  35.514  14.277
78530CL-    CL-37791  13.668  40.942   0.443
78531CL-    CL-37792   1.777  29.956   3.224
78532CL-    CL-37793   8.337  19.656  11.441
78533CL-    CL-37794  35.551  19.084   4.634
78534CL-    CL-37795  19.780  20.751   3.770
78535CL-    CL-37796  19.644  42.515  12.579
78536CL-    CL-37797  43.292   6.204  14.482
78537CL-    CL-37798   3.828  28.547  11.940
78538CL-    CL-37799  22.143  15.189   0.726
78539CL-    CL-37800  17.104  18.187  10.970
78540CL-    CL-37801  34.032   8.205  11.558
78541CL-    CL-37802   7.769  40.430  13.902
78542CL-    CL-37803  24.122  12.704   4.323
78543CL-    CL-37804  40.053  43.879  13.866
78544CL-    CL-37805  28.646  36.887  12.372
78545CL-    CL-37806  44.343   5.729   4.178
78546CL-    CL-37807   6.850  38.511  12.468
78547CL-    CL-37808  39.822  11.288  10.918
78548CL-    CL-37809  11.638  39.395  13.476
78549CL-    CL-37810  18.774  12.194   3.702
78550CL-    CL-37811  24.147  17.682   4.350
78551CL-    CL-37812   9.369   2.812   1.348
78552CL-    CL-37813  36.518  38.544  14.496
78553CL-    CL-37814  18.759  31.531   3.842
78554CL-    CL-37815  29.460  39.525   2.349
78555CL-    CL-37816  19.276  42.874   2.273
78556CL-    CL-37817  38.564  36.879   2.778
78557CL-    CL-37818  31.035  33.019  12.943
78558CL-    CL-37819  22.528  23.007   0.423
78559CL-    CL-37820  18.674  12.667   0.943
78560CL-    CL-37821  26.094  31.984  12.993
78561CL-    CL-37822  28.554  32.116   0.787
78562CL-    CL-37823  30.420  29.918   0.260
78563CL-    CL-37824  37.073  36.410   3.794
78564CL-    CL-37825  16.665  22.632  14.398
78565CL-    CL-37826  28.130  31.991   1.249
78566CL-    CL-37827   8.305  27.973   0.474
78567CL-    CL-37828  24.661  41.835  13.865
78568CL-    CL-37829   2.376  10.372   0.735
78569CL-    CL-37830  44.933  42.293   0.305
78570CL-    CL-37831  13.295  12.692   5.140
78571CL-    CL-37832   2.326   3.926   3.670
78572CL-    CL-37833  21.218   8.297  12.562
78573CL-    CL-37834  34.613   3.791   1.407
78574CL-    CL-37835  32.917  16.640  10.602
78575CL-    CL-37836  35.029   6.762  13.462
78576CL-    CL-37837  41.367  27.116   4.279
78577CL-    CL-37838  14.107  24.678  12.528
78578CL-    CL-37839  29.021  31.532   5.192
78579CL-    CL-37840   9.292   2.893  13.492
78580CL-    CL-37841  20.054  36.998   3.238
78581CL-    CL-37842  24.555  27.023  11.974
78582CL-    CL-37843   2.742  39.036  12.352
78583CL-    CL-37844  17.749  15.234  14.453
78584CL-    CL-37845  28.527  18.105  12.985
78585CL-    CL-37846  27.600  17.769  10.478
78586CL-    CL-37847  13.680  14.156  10.618
78587CL-    CL-37848   0.391  29.025  14.844
78588CL-    CL-37849   8.666  42.350  13.048
78589CL-    CL-37850  39.404  17.685  14.947
78590CL-    CL-37851  27.616  38.845   1.769
78591CL-    CL-37852  11.703  36.940   3.726
78592CL-    CL-37853  23.233  36.940   4.237
78593CL-    CL-37854  27.101  43.338  14.857
78594CL-    CL-37855  15.801  12.746  13.060
78595CL-    CL-37856  36.425  19.104  14.762
78596CL-    CL-37857  29.041   3.713  10.483
78597CL-    CL-37858  18.692  42.859  13.389
78598CL-    CL-37859  35.924  33.543   3.290
78599CL-    CL-37860  39.891   4.843  13.866
78600CL-    CL-37861   7.825   3.900  13.310
78601CL-    CL-37862  33.064   9.828   0.468
78602CL-    CL-37863  31.414  26.190   1.322
78603CL-    CL-37864   1.271   5.866  14.813
78604CL-    CL-37865  29.151  27.060  14.794
78605CL-    CL-37866  38.060  41.790   3.853
78606CL-    CL-37867  23.033  44.903  13.803
78607CL-    CL-37868  22.652   7.776   1.863
78608CL-    CL-37869  36.918  27.185  13.849
78609CL-    CL-37870  33.383  30.438  14.931
78610CL-    CL-37871   6.813  18.647   2.877
78611CL-    CL-37872  36.047  13.660  11.889
78612CL-    CL-37873  37.504  36.496   1.442
78613CL-    CL-37874  14.318  43.770  14.988
78614CL-    CL-37875  36.533  41.897  12.494
78615CL-    CL-37876   8.381  22.227  13.317
78616CL-    CL-37877  26.036  27.571   1.888
78617CL-    CL-37878  15.290  39.959  14.342
78618CL-    CL-37879  34.419   1.399  14.007
78619CL-    CL-37880   2.366  21.638   0.894
78620CL-    CL-37881  40.447   7.253   1.364
78621CL-    CL-37882  38.504  12.744  11.894
78622CL-    CL-37883  16.259  22.734   4.203
78623CL-    CL-37884   3.788   6.908   0.800
78624CL-    CL-37885  32.059  35.449   0.863
78625CL-    CL-37886  38.544  35.881   1.913
78626CL-    CL-37887  28.070  31.906   2.765
78627CL-    CL-37888  20.128  11.633  12.935
78628CL-    CL-37889  30.568  23.599  13.414
78629CL-    CL-37890  14.694  29.653   2.890
78630CL-    CL-37891  14.607  29.158   1.780
78631CL-    CL-37892  18.551   2.382   0.336
78632CL-    CL-37893  25.668  17.715   3.768
78633CL-    CL-37894  25.697  28.504  11.911
78634CL-    CL-37895  11.248   9.719   1.376
78635CL-    CL-37896  19.268   7.322  11.923
78636CL-    CL-37897  39.991  28.457   0.803
78637CL-    CL-37898  37.871   3.951  10.598
78638CL-    CL-37899  25.143  34.502   0.758
78639CL-    CL-37900   3.885  41.828   4.354
78640CL-    CL-37901  43.485  23.616  13.013
78641CL-    CL-37902  13.630   0.968  14.792
78642CL-    CL-37903   8.167  18.562  13.419
78643CL-    CL-37904  44.275  30.112   2.760
78644CL-    CL-37905   7.323  11.744   1.723
78645CL-    CL-37906   0.321  26.609  12.060
78646CL-    CL-37907   6.723  38.523  13.973
78647CL-    CL-37908  22.604  22.502   2.214
78648CL-    CL-37909   6.320   2.940   1.331
78649CL-    CL-37910  18.278   4.896  13.820
78650CL-    CL-37911  11.678  16.695  10.980
78651CL-    CL-37912  20.038  44.327  10.430
78652CL-    CL-37913  25.976  19.112  12.080
78653CL-    CL-37914  31.078  21.735   2.201
78654CL-    CL-37915  26.549  20.557   2.308
78655CL-    CL-37916   7.263   3.927   4.161
78656CL-    CL-37917  40.387   3.917  11.045
78657CL-    CL-37918  26.520  38.381  10.916
78658CL-    CL-37919  25.680   3.934   3.767
78659CL-    CL-37920  10.664  17.179  11.113
78660CL-    CL-37921  27.151  34.398  10.120
78661CL-    CL-37922  44.766  30.633  13.978
78662CL-    CL-37923  37.832  42.281   0.326
78663CL-    CL-37924   6.267  20.098   3.694
78664CL-    CL-37925  32.001  28.612   2.828
78665CL-    CL-37926  30.474  14.832  13.056
78666CL-    CL-37927  18.114  34.098  10.523
78667CL-    CL-37928  37.437  13.204   5.287
78668CL-    CL-37929  14.702  34.461   4.651
78669CL-    CL-37930  39.846  28.111   2.673
78670CL-    CL-37931   5.423  12.194   2.309
78671CL-    CL-37932  25.124  34.370   3.657
78672CL-    CL-37933  21.529   5.359   2.239
78673CL-    CL-37934  26.056  18.696  13.534
78674CL-    CL-37935  36.434   0.307  14.851
78675CL-    CL-37936   4.372  15.753   0.808
78676CL-    CL-37937  35.413  27.953   3.211
78677CL-    CL-37938   5.710  33.047   3.810
78678CL-    CL-37939  30.976   6.286  13.821
78679CL-    CL-37940  36.027  24.558  14.827
78680CL-    CL-37941  26.603  12.180   3.719
78681CL-    CL-37942   2.276  41.921  11.989
78682CL-    CL-37943  38.350  28.458   0.822
78683CL-    CL-37944  31.949  13.842  11.611
78684CL-    CL-37945  17.717  21.041  11.939
78685CL-    CL-37946  13.215  21.019  13.049
78686CL-    CL-37947  23.132  42.934  11.012
78687CL-    CL-37948   8.718  19.196   1.215
78688CL-    CL-37949  20.147  41.306   1.437
78689CL-    CL-37950  35.070  40.043   5.143
78690CL-    CL-37951  26.181  23.711   1.695
78691CL-    CL-37952  20.728  40.499  11.572
78692CL-    CL-37953  20.712  22.547  11.052
78693CL-    CL-37954  14.099  26.037   0.920
78694CL-    CL-37955  26.580  39.392  12.557
78695CL-    CL-37956  43.845   8.841  14.282
78696CL-    CL-37957  15.591  42.838  10.540
78697CL-    CL-37958  10.773  27.963   1.249
78698CL-    CL-37959  42.804  36.450   5.215
78699CL-    CL-37960  26.014  23.990  12.397
78700CL-    CL-37961  35.529  18.749  14.024
78701CL-    CL-37962  30.595  25.711   3.650
78702CL-    CL-37963  22.996  39.933   3.710
78703CL-    CL-37964  18.644  15.196   4.312
78704CL-    CL-37965  19.601  35.109  12.069
78705CL-    CL-37966   7.318   2.277   3.708
78706CL-    CL-37967   6.907   0.892  14.888
78707CL-    CL-37968  35.395  31.463   1.329
78708CL-    CL-37969  34.501  16.243   0.482
78709CL-    CL-37970  36.930  15.248  11.387
78710CL-    CL-37971   0.786  22.020  13.025
78711CL-    CL-37972   3.423  14.210  11.988
78712CL-    CL-37973  32.394   1.871  14.984
78713CL-    CL-37974  29.127  34.469   1.819
78714CL-    CL-37975  29.509  36.001   3.720
78715CL-    CL-37976   1.459  44.939   2.262
78716CL-    CL-37977  19.254   1.941  11.515
78717CL-    CL-37978  30.606  22.507  13.928
78718CL-    CL-37979   0.359  35.866   1.770
78719CL-    CL-37980  22.551  16.213  10.888
78720CL-    CL-37981   4.390  16.679   1.831
78721CL-    CL-37982  36.392  30.490  13.036
78722CL-    CL-37983  19.276  30.056  11.378
78723CL-    CL-37984  25.992   3.300   4.346
78724CL-    CL-37985  15.681  38.529  13.853
78725CL-    CL-37986   3.725  19.111  11.100
78726CL-    CL-37987  39.958  20.742  12.877
78727CL-    CL-37988  20.760  41.404   4.717
78728CL-    CL-37989   9.207  12.347   2.386
78729CL-    CL-37990  16.175  26.620  11.381
78730CL-    CL-37991  25.703  34.976  12.422
78731CL-    CL-37992   1.910   0.408  14.025
78732CL-    CL-37993  21.158  25.585  14.819
78733CL-    CL-37994  37.560  21.260   3.654
78734CL-    CL-37995  10.762  32.965   1.743
78735CL-    CL-37996  17.665  27.480  14.830
78736CL-    CL-37997  31.406  24.643  12.971
78737CL-    CL-37998   8.685  39.897   1.831
78738CL-    CL-37999  35.407  22.570   0.814
78739CL-    CL-38000   0.966  28.657  14.404
78740CL-    CL-38001  41.044  40.394  13.986
78741CL-    CL-38002  30.100  12.158  11.439
78742CL-    CL-38003  12.212  25.220  13.924
78743CL-    CL-38004  19.107  24.649  12.850
78744CL-    CL-38005  22.060  20.580   0.264
78745CL-    CL-38006  20.590  34.895  12.427
78746CL-    CL-38007  27.062  25.054   0.870
78747CL-    CL-38008  25.210  34.105  10.582
78748CL-    CL-38009  40.488   8.184  13.951
78749CL-    CL-38010  31.520   5.289  12.889
78750CL-    CL-38011   9.674  10.778   1.338
78751CL-    CL-38012  22.064  42.876  14.306
78752CL-    CL-38013  28.036  34.450   2.768
78753CL-    CL-38014  30.979   1.966  12.490
78754CL-    CL-38015  35.957  12.125   4.760
78755CL-    CL-38016  31.958  21.052   4.665
78756CL-    CL-38017  17.580  15.247  11.895
78757CL-    CL-38018  44.394  10.242  12.520
78758CL-    CL-38019  38.970  20.160  10.615
78759CL-    CL-38020  15.308  36.377   4.681
78760CL-    CL-38021   3.743  15.614   2.678
78761CL-    CL-38022  27.108  35.498   2.743
78762CL-    CL-38023  14.310  22.728  12.342
78763CL-    CL-38024  17.780   5.902   1.815
78764CL-    CL-38025  15.765  18.714  10.913
78765CL-    CL-38026  25.565  44.994   3.781
78766CL-    CL-38027  15.111  25.080   2.245
78767CL-    CL-38028  17.582  30.585  12.348
78768CL-    CL-38029  14.156  21.513  13.890
78769CL-    CL-38030  24.061  14.648   3.368
78770CL-    CL-38031  36.870  43.439   1.717
78771CL-    CL-38032  39.324  14.121   2.360
78772CL-    CL-38033  13.777  37.923  10.939
78773CL-    CL-38034  29.594  33.026   0.468
78774CL-    CL-38035  30.950  23.182   1.404
78775CL-    CL-38036  34.375  13.131  13.840
78776CL-    CL-38037  40.360  26.555   0.269
78777CL-    CL-38038  43.764   6.757  12.927
78778CL-    CL-38039  30.091  30.992   2.740
78779CL-    CL-38040  13.771   7.870  13.416
78780CL-    CL-38041   6.366  42.485  14.953
78781CL-    CL-38042  10.191  21.056   3.743
78782CL-    CL-38043   9.694   6.400  13.500
78783CL-    CL-38044  23.531   8.819  14.490
78784CL-    CL-38045  21.051   3.379   5.215
78785CL-    CL-38046  38.024  20.559   4.748
78786CL-    CL-38047  32.026  22.574   4.205
78787CL-    CL-38048   5.313  34.430   3.211
78788CL-    CL-38049  18.733  37.389   3.751
78789CL-    CL-38050   5.823  21.073   2.749
78790CL-    CL-38051  41.930  40.339  13.373
78791CL-    CL-38052   7.404   9.316  13.001
78792CL-    CL-38053  13.799   1.309  13.921
78793CL-    CL-38054  33.492  13.793  14.335
78794CL-    CL-38055  12.174  19.723  13.935
78795CL-    CL-38056   8.660  42.415   0.352
78796CL-    CL-38057  29.137  34.465   4.767
78797CL-    CL-38058  20.654  13.223  14.817
78798CL-    CL-38059  27.646  33.006  11.890
78799CL-    CL-38060  24.073   6.248  14.500
78800CL-    CL-38061  32.512  14.688  14.974
78801CL-    CL-38062  11.860  27.079  12.833
78802CL-    CL-38063  42.309   0.401  12.009
78803CL-    CL-38064   7.173   7.722   4.678
78804CL-    CL-38065   7.837  19.076   1.272
78805CL-    CL-38066  29.027  34.040  11.450
78806CL-    CL-38067  14.277  20.097  12.989
78807CL-    CL-38068  29.520   2.905  13.976
78808CL-    CL-38069  21.640  11.349   4.623
78809CL-    CL-38070   1.965  38.976   3.307
78810CL-    CL-38071  29.601  24.597  14.821
78811CL-    CL-38072  44.344  40.364   9.972
78812CL-    CL-38073  11.215   8.806  11.480
78813CL-    CL-38074  40.320  32.120  10.464
78814CL-    CL-38075  40.501   5.242   0.803
78815CL-    CL-38076  31.469  10.379  14.486
78816CL-    CL-38077   0.430  27.558  12.494
78817CL-    CL-38078   2.261  37.885  14.337
78818CL-    CL-38079   3.450   8.770   1.738
78819CL-    CL-38080  42.377  41.400   2.902
78820CL-    CL-38081  26.469  21.532   4.671
78821CL-    CL-38082  24.010  21.718   2.755
78822CL-    CL-38083  33.441  26.999   4.781
78823CL-    CL-38084  40.897  34.421  10.053
78824CL-    CL-38085   4.307  34.399  10.524
78825CL-    CL-38086  26.488  31.474  11.904
78826CL-    CL-38087  21.162  19.635  14.881
78827CL-    CL-38088  29.111   7.350  10.890
78828CL-    CL-38089   4.296  44.867   2.787
78829CL-    CL-38090  42.429  37.023   3.773
78830CL-    CL-38091  23.555  31.481  12.541
78831CL-    CL-38092   0.860  11.356  12.029
78832CL-    CL-38093  15.623  32.117  13.809
78833CL-    CL-38094  23.727  37.058   1.807
78834CL-    CL-38095  43.491  38.934   3.153
78835CL-    CL-38096  32.895   1.965  14.956
78836CL-    CL-38097   0.973  25.653  13.450
78837CL-    CL-38098  39.333  42.850  12.486
78838CL-    CL-38099  33.086  44.797  14.411
78839CL-    CL-38100   1.306  12.743  13.888
78840CL-    CL-38101  42.890  11.627   2.697
78841CL-    CL-38102  21.187  18.735  13.010
78842CL-    CL-38103  30.091   8.301  10.507
78843CL-    CL-38104  31.456  36.016  14.283
78844CL-    CL-38105   6.293  20.602   2.692
78845CL-    CL-38106  39.990  17.742   3.244
78846CL-    CL-38107  21.740  25.141  12.418
78847CL-    CL-38108  25.494  19.277  14.010
78848CL-    CL-38109  33.506  25.686  14.383
78849CL-    CL-38110  11.210  32.129   0.880
78850CL-    CL-38111  19.536  39.989  11.980
78851CL-    CL-38112   5.920  27.456  11.970
78852CL-    CL-38113   1.913  31.942   3.383
78853CL-    CL-38114  24.063  13.613   1.773
78854CL-    CL-38115   4.432  21.081   4.774
78855CL-    CL-38116  22.121   9.708   0.965
78856CL-    CL-38117  42.346  18.749  12.096
78857CL-    CL-38118  29.487  12.786  14.455
78858CL-    CL-38119   3.885  14.684  14.875
78859CL-    CL-38120   0.257  17.579  13.994
78860CL-    CL-38121  30.921  21.698   0.292
78861CL-    CL-38122  17.661  27.546  12.413
78862CL-    CL-38123  19.650   3.869   0.878
78863CL-    CL-38124  13.696  20.707  10.537
78864CL-    CL-38125  16.577  26.166   1.736
78865CL-    CL-38126  26.683  41.365   1.362
78866CL-    CL-38127  39.926  34.071  11.412
78867CL-    CL-38128   5.789   2.259   0.431
78868CL-    CL-38129  39.399  26.194  12.912
78869CL-    CL-38130  20.056  18.204  14.336
78870CL-    CL-38131   8.347  39.439   1.913
78871CL-    CL-38132  19.626  39.999  14.410
78872CL-    CL-38133   5.366  42.847   2.208
78873CL-    CL-38134  28.524  36.559   0.764
78874CL-    CL-38135   5.826  25.597  14.847
78875CL-    CL-38136   6.297   6.813  14.811
78876CL-    CL-38137  29.493  29.031  12.046
78877CL-    CL-38138  10.176  37.031   4.354
78878CL-    CL-38139  22.185  18.096  13.925
78879CL-    CL-38140  33.437  26.672   4.136
78880CL-    CL-38141  11.341   6.827  13.515
78881CL-    CL-38142   5.701  25.060  13.444
78882CL-    CL-38143  17.621  40.054   0.396
78883CL-    CL-38144  25.600  14.731   3.700
78884CL-    CL-38145   8.403  24.137   2.802
78885CL-    CL-38146  17.600  16.608  10.892
78886CL-    CL-38147   3.440   3.928  12.417
78887CL-    CL-38148  37.831  24.186  14.876
78888CL-    CL-38149  43.391  24.585   2.902
78889CL-    CL-38150  10.705   4.403  11.389
78890CL-    CL-38151  36.579  11.218  13.976
78891CL-    CL-38152  35.870  31.977   4.338
78892CL-    CL-38153  14.284  14.138  12.404
78893CL-    CL-38154   2.725  21.077   3.228
78894CL-    CL-38155   8.675   9.861   0.834
78895CL-    CL-38156  27.992  12.799   2.343
78896CL-    CL-38157  42.930  30.529   4.736
78897CL-    CL-38158  19.571  34.520   3.311
78898CL-    CL-38159  22.619  30.633  10.475
78899CL-    CL-38160   6.908  12.808   1.255
78900CL-    CL-38161   4.911  10.235   3.348
78901CL-    CL-38162  37.451  40.373  14.917
78902CL-    CL-38163  39.039   6.228   3.633
78903CL-    CL-38164  39.945  21.519  14.897
78904CL-    CL-38165  35.958  23.615  13.483
78905CL-    CL-38166  17.168  32.403   2.328
78906CL-    CL-38167  28.560  22.625   3.169
78907CL-    CL-38168  17.667  36.524   3.334
78908CL-    CL-38169  26.592   1.368  12.362
78909CL-    CL-38170  36.071   4.239   3.632
78910CL-    CL-38171  23.230  30.997   2.789
78911CL-    CL-38172  33.975  12.688  12.880
78912CL-    CL-38173  21.692  13.745   0.409
78913CL-    CL-38174  35.101  26.145   2.202
78914CL-    CL-38175  28.088  19.579   3.295
78915CL-    CL-38176   7.256   4.772   5.289
78916CL-    CL-38177  10.794   8.656   4.246
78917CL-    CL-38178  22.516  20.210   5.650
78918CL-    CL-38179  38.020  41.426  13.841
78919CL-    CL-38180  44.948  22.661   3.221
78920CL-    CL-38181  24.117  25.968  14.327
78921CL-    CL-38182  15.120  10.343   0.258
78922CL-    CL-38183  10.300   3.265   1.247
78923CL-    CL-38184  35.552  22.057   2.291
78924CL-    CL-38185   8.779  31.042  11.905
78925CL-    CL-38186  34.968  24.979   0.950
78926CL-    CL-38187  28.067   6.823   0.290
78927CL-    CL-38188  35.571  35.875  12.945
78928CL-    CL-38189  28.124   8.238   0.257
78929CL-    CL-38190  19.674   5.717  13.010
78930CL-    CL-38191  28.573  39.415  11.922
78931CL-    CL-38192  21.585  41.911   1.337
78932CL-    CL-38193   7.864  28.005   0.439
78933CL-    CL-38194   5.850  34.005  14.787
78934CL-    CL-38195  31.446  43.782   1.699
78935CL-    CL-38196  40.804  31.897  14.401
78936CL-    CL-38197  40.521   5.361   2.850
78937CL-    CL-38198  33.071  30.644  11.872
78938CL-    CL-38199  12.800  44.274   3.765
78939CL-    CL-38200  21.047  11.687  14.818
78940CL-    CL-38201  13.134  24.565   4.822
78941CL-    CL-38202  28.969  20.675  10.549
78942CL-    CL-38203   6.427  22.603  14.776
78943CL-    CL-38204  13.122  16.086  11.066
78944CL-    CL-38205  12.346   7.787  14.897
78945CL-    CL-38206   5.699  25.480  10.947
78946CL-    CL-38207  24.129   1.904  11.486
78947CL-    CL-38208   6.780   2.442   0.764
78948CL-    CL-38209  20.089  38.355  13.804
78949CL-    CL-38210   6.912  19.064   3.798
78950CL-    CL-38211  16.298  22.048  14.423
78951CL-    CL-38212  25.978  26.564  12.412
78952CL-    CL-38213  26.503  20.076  12.882
78953CL-    CL-38214   2.461   8.880  12.847
78954CL-    CL-38215  37.459  19.245  13.320
78955CL-    CL-38216  23.546  32.934  13.829
78956CL-    CL-38217  11.722  22.507  14.788
78957CL-    CL-38218  40.350  31.589  14.353
78958CL-    CL-38219  19.646   4.408   9.640
78959CL-    CL-38220  32.976  43.461   3.829
78960CL-    CL-38221  10.818  33.999  13.451
78961CL-    CL-38222  17.253  15.583   0.372
78962CL-    CL-38223  42.925  12.674  11.598
78963CL-    CL-38224  40.857  24.053  11.502
78964CL-    CL-38225  27.465  25.988  14.388
78965CL-    CL-38226  32.071  10.375  12.421
78966CL-    CL-38227  25.028  12.213  11.446
78967CL-    CL-38228  21.571  19.064   0.795
78968CL-    CL-38229   1.350   9.307  10.569
78969CL-    CL-38230  23.499  30.964  13.460
78970CL-    CL-38231  21.687  27.518  14.325
78971CL-    CL-38232  26.700  22.545  10.453
78972CL-    CL-38233  20.254   2.284   3.671
78973CL-    CL-38234   8.808  36.068   4.191
78974CL-    CL-38235   8.382  32.057   4.662
78975CL-    CL-38236  29.622  28.137   0.883
78976CL-    CL-38237  13.844  28.522   1.762
78977CL-    CL-38238  26.192   9.377   4.142
78978CL-    CL-38239   7.755  35.373   1.888
78979CL-    CL-38240  38.887  10.293   2.289
78980CL-    CL-38241  28.521  26.044   2.803
78981CL-    CL-38242   1.824  24.680   4.137
78982CL-    CL-38243  31.997  38.388  13.917
78983CL-    CL-38244  29.049   8.765   2.406
78984CL-    CL-38245  26.044  23.213   4.726
78985CL-    CL-38246  44.436  26.657   3.342
78986CL-    CL-38247   8.861  44.928  13.441
78987CL-    CL-38248  20.244  21.113   3.847
78988CL-    CL-38249  38.931  35.509  13.865
78989CL-    CL-38250  16.682  43.927   0.354
78990CL-    CL-38251   8.266   2.881  14.926
78991CL-    CL-38252  40.464  18.067  13.812
78992CL-    CL-38253  14.259  29.618   1.722
78993CL-    CL-38254  26.075  21.224   3.711
78994CL-    CL-38255  33.536  28.999   9.996
78995CL-    CL-38256   6.293  21.066   4.126
78996CL-    CL-38257  23.579  18.582  11.932
78997CL-    CL-38258  32.954   4.244  14.808
78998CL-    CL-38259   0.460   8.743  11.430
78999CL-    CL-38260  30.954  24.526  10.909
79000CL-    CL-38261  35.058  26.584   0.302
79001CL-    CL-38262  43.941   1.453  11.397
79002CL-    CL-38263  43.415  44.463   0.875
79003CL-    CL-38264   8.356   1.279  13.364
79004CL-    CL-38265   8.353  42.871   2.837
79005CL-    CL-38266  27.029  17.565  14.933
79006CL-    CL-38267   8.251  25.103   5.096
79007CL-    CL-38268  26.490  30.422   0.274
79008CL-    CL-38269  32.497  23.544  11.459
79009CL-    CL-38270  28.670  13.233  10.586
79010CL-    CL-38271  43.405   9.677  14.461
79011CL-    CL-38272  20.048  42.409  10.931
79012CL-    CL-38273  36.585   9.324  14.020
79013CL-    CL-38274  24.482  43.467   2.724
79014CL-    CL-38275  41.977  10.281  14.309
79015CL-    CL-38276  41.381  35.596   2.736
79016CL-    CL-38277  24.167   7.838   4.715
79017CL-    CL-38278  33.590  30.077  10.072
79018CL-    CL-38279  18.642  11.649   4.195
79019CL-    CL-38280   3.248  44.000   1.236
79020CL-    CL-38281  19.271  31.622   1.873
79021CL-    CL-38282  12.220  42.823  13.516
79022CL-    CL-38283  14.271  32.523   3.342
79023CL-    CL-38284  33.024  26.497   0.747
79024CL-    CL-38285  12.679  22.042   1.239
79025CL-    CL-38286  35.384   6.685  12.879
79026CL-    CL-38287  42.789  19.206  13.995
79027CL-    CL-38288  24.062  43.506   3.184
79028CL-    CL-38289  21.561  26.951  12.387
79029CL-    CL-38290  43.973  19.076   4.246
79030CL-    CL-38291  20.083  16.173  14.946
79031CL-    CL-38292   2.324  28.169  11.438
79032CL-    CL-38293  42.013   2.383   3.241
79033CL-    CL-38294  37.835  10.349   2.311
79034CL-    CL-38295  30.605   3.814   0.262
79035CL-    CL-38296  11.285  42.386  13.356
79036CL-    CL-38297  31.028  17.636   1.891
79037CL-    CL-38298  17.070   2.834   9.940
79038CL-    CL-38299   4.799  20.175   1.381
79039CL-    CL-38300  12.779  26.500   0.842
79040CL-    CL-38301   1.835  43.314   2.750
79041CL-    CL-38302  11.826   1.883  12.537
79042CL-    CL-38303  10.821  26.589   4.653
79043CL-    CL-38304  19.545  14.149  14.283
79044CL-    CL-38305  37.423  15.728   4.244
79045CL-    CL-38306   9.375  19.134   4.656
79046CL-    CL-38307  36.591  28.434  11.399
79047CL-    CL-38308   1.975  35.085  12.380
79048CL-    CL-38309  34.467   9.265  10.907
79049CL-    CL-38310  20.239  13.647   1.825
79050CL-    CL-38311  17.292  35.914  11.541
79051CL-    CL-38312  13.743  12.214   4.162
79052CL-    CL-38313  29.651  19.664   4.127
79053CL-    CL-38314   9.884  25.987   0.432
79054CL-    CL-38315  20.620  19.616   1.885
79055CL-    CL-38316  15.591  44.391  12.970
79056CL-    CL-38317  39.370  28.623   0.948
79057CL-    CL-38318   2.721   3.337   1.347
79058CL-    CL-38319  24.484  42.977  11.415
79059CL-    CL-38320  23.073   3.907   2.807
79060CL-    CL-38321  20.257   5.324   1.450
79061CL-    CL-38322   5.375  29.072  13.346
79062CL-    CL-38323  38.831  36.918   2.364
79063CL-    CL-38324   6.749   8.732   2.362
79064CL-    CL-38325  21.178  44.313   5.182
79065CL-    CL-38326  37.349  44.502  13.046
79066CL-    CL-38327  21.525   7.337  12.045
79067CL-    CL-38328  14.269  10.213  11.118
79068CL-    CL-38329  40.523   1.413   2.372
79069CL-    CL-38330  29.104   3.367  13.046
79070CL-    CL-38331  33.877  10.745   1.365
79071CL-    CL-38332  15.764  23.194   5.091
79072CL-    CL-38333  17.610   9.358   4.135
79073CL-    CL-38334   3.899  23.176  14.775
79074CL-    CL-38335  40.026  10.826   2.669
79075CL-    CL-38336  26.588  14.698   2.801
79076CL-    CL-38337  11.664  42.982   9.945
79077CL-    CL-38338  17.588  42.506  12.560
79078CL-    CL-38339  39.026  34.549   3.655
79079CL-    CL-38340  35.558  31.501  11.977
79080CL-    CL-38341  20.607   6.381  14.410
79081CL-    CL-38342  17.669  41.012  12.525
79082CL-    CL-38343  16.571  24.151  12.912
79083CL-    CL-38344  10.778  43.344   0.948
79084CL-    CL-38345  20.100  12.765   1.913
79085CL-    CL-38346  17.143   0.421  12.487
79086CL-    CL-38347  32.506  40.875  11.856
79087CL-    CL-38348   6.378  22.023   1.779
79088CL-    CL-38349  13.233  15.322  11.113
79089CL-    CL-38350   1.295  31.148   1.724
79090CL-    CL-38351  30.949  18.205   2.824
79091CL-    CL-38352   4.805  10.382   4.172
79092CL-    CL-38353   8.655  27.649  12.857
79093CL-    CL-38354  35.930  13.665   2.189
79094CL-    CL-38355  13.830   8.212  12.531
79095CL-    CL-38356  13.144  31.931   1.382
79096CL-    CL-38357   4.218  41.436   0.265
79097CL-    CL-38358  11.699  40.907  14.018
79098CL-    CL-38359  40.027  25.672   0.328
79099CL-    CL-38360  10.750  39.542   1.275
79100CL-    CL-38361  24.102   4.408  13.818
79101CL-    CL-38362  31.615  30.519  14.022
79102CL-    CL-38363  42.814  14.301  13.827
79103CL-    CL-38364   8.359  14.293  10.979
79104CL-    CL-38365  24.048  22.602   1.412
79105CL-    CL-38366  43.852  22.154  10.529
79106CL-    CL-38367  37.470  12.793   3.277
79107CL-    CL-38368  30.497   8.822   0.840
79108CL-    CL-38369  38.831  42.901   3.762
79109CL-    CL-38370  25.045  41.333  14.410
79110CL-    CL-38371  41.301   9.695   1.917
79111CL-    CL-38372  28.509   8.749   2.690
79112CL-    CL-38373  44.464  15.155  13.501
79113CL-    CL-38374  11.852   5.233  10.474
79114CL-    CL-38375   8.359  15.632  14.000
79115CL-    CL-38376  17.071  36.380   0.962
79116CL-    CL-38377  20.207  15.745   3.170
79117CL-    CL-38378  10.138  12.645  10.127
79118CL-    CL-38379  25.044  19.652  14.505
79119CL-    CL-38380   4.768   6.385   1.322
79120CL-    CL-38381  19.245   4.846  12.912
79121CL-    CL-38382  25.661  36.002  12.918
79122CL-    CL-38383   2.456   6.898  14.972
79123CL-    CL-38384  11.625  26.561   2.285
79124CL-    CL-38385  20.158  34.526   2.718
79125CL-    CL-38386  43.439   7.875  13.335
79126CL-    CL-38387  31.070  20.179  14.475
79127CL-    CL-38388   8.872  26.574   1.774
79128CL-    CL-38389  33.976  12.244  14.357
79129CL-    CL-38390  13.673  36.955  10.957
79130CL-    CL-38391  22.125  30.494   0.483
79131CL-    CL-38392  32.621  23.156  13.832
79132CL-    CL-38393  27.952   4.278  14.874
79133CL-    CL-38394  29.519   2.338   4.319
79134CL-    CL-38395   1.435  10.812   2.321
79135CL-    CL-38396  27.053  42.872   0.453
79136CL-    CL-38397  31.114  18.236  12.831
79137CL-    CL-38398  14.816  15.223  14.492
79138CL-    CL-38399   3.453  26.461  10.952
79139CL-    CL-38400  21.123  27.481  13.333
79140CL-    CL-38401   6.850  27.992  12.928
79141CL-    CL-38402  19.691  17.795  10.944
79142CL-    CL-38403  20.234  11.324   2.896
79143CL-    CL-38404   6.860  40.361   4.831
79144CL-    CL-38405  19.282  40.807  14.378
79145CL-    CL-38406  23.538   2.771   0.251
79146CL-    CL-38407  44.505  35.952  12.355
79147CL-    CL-38408  29.451  16.591   3.781
79148CL-    CL-38409   1.909  26.988   4.808
79149CL-    CL-38410   7.345  13.294   3.284
79150CL-    CL-38411  23.530  32.068  10.533
79151CL-    CL-38412   1.867  30.525  13.379
79152CL-    CL-38413   9.758  31.509   0.899
79153CL-    CL-38414  44.000  33.418   2.252
79154CL-    CL-38415  25.997  28.514  12.439
79155CL-    CL-38416  43.891  17.638   5.771
79156CL-    CL-38417  22.153  43.444   3.648
79157CL-    CL-38418  42.010  14.300   1.335
79158CL-    CL-38419  26.606   1.335   1.828
79159CL-    CL-38420  18.675  35.408   1.393
79160CL-    CL-38421  44.468  38.881   3.788
79161CL-    CL-38422  30.921  23.630   2.399
79162CL-    CL-38423   2.860  32.474  11.489
79163CL-    CL-38424   1.885  35.060  14.878
79164CL-    CL-38425  20.654  26.118   1.917
79165CL-    CL-38426  44.287   8.357  13.416
79166CL-    CL-38427  23.546  21.180   5.277
79167CL-    CL-38428  20.702   6.379   3.848
79168CL-    CL-38429  44.304  29.969  10.993
79169CL-    CL-38430  21.142   1.258   0.924
79170CL-    CL-38431  15.149  31.977   0.904
79171CL-    CL-38432  28.669  27.078   3.649
79172CL-    CL-38433  35.957   0.815  14.939
79173CL-    CL-38434  38.834  20.246  13.021
79174CL-    CL-38435   0.753  41.507   1.379
79175CL-    CL-38436  15.299  19.753  10.525
79176CL-    CL-38437  37.348  35.604  14.498
79177CL-    CL-38438  40.932  23.573  12.902
79178CL-    CL-38439   9.318  27.541  13.352
79179CL-    CL-38440  17.680   6.920   0.864
79180CL-    CL-38441  40.814  34.062  11.561
79181CL-    CL-38442  13.241  39.360  12.094
79182CL-    CL-38443   5.899  31.924  14.021
79183CL-    CL-38444  44.477  40.027   0.932
79184CL-    CL-38445  14.684  10.779  12.079
79185CL-    CL-38446   3.353   2.362  12.936
79186CL-    CL-38447  44.864  31.143   1.309
79187CL-    CL-38448   4.349   5.910  11.599
79188CL-    CL-38449  13.227  42.304   4.289
79189CL-    CL-38450   2.464  34.024   4.202
79190CL-    CL-38451   7.705  35.491  12.846
79191CL-    CL-38452  23.198  23.135   4.125
79192CL-    CL-38453  33.982   2.340   3.310
79193CL-    CL-38454   4.360   3.272  14.858
79194CL-    CL-38455  41.926  37.421  13.872
79195CL-    CL-38456  29.987  19.284  12.042
79196CL-    CL-38457  26.529   9.315  14.008
79197CL-    CL-38458  34.488  38.871   1.780
79198CL-    CL-38459   2.818  29.119  12.483
79199CL-    CL-38460   5.324  35.597  13.821
79200CL-    CL-38461  10.289  34.601   1.220
79201CL-    CL-38462  12.821  26.640   5.121
79202CL-    CL-38463   4.383  32.075   1.727
79203CL-    CL-38464  22.110   6.256  14.366
79204CL-    CL-38465  28.654   4.324  13.496
79205CL-    CL-38466  20.152  31.915  13.906
79206CL-    CL-38467  10.835  43.287   4.724
79207CL-    CL-38468  13.257   7.372  10.975
79208CL-    CL-38469  43.460  25.608  12.867
79209CL-    CL-38470  16.126   8.870   4.721
79210CL-    CL-38471  33.571  10.242  12.383
79211CL-    CL-38472  24.100  41.979  14.000
79212CL-    CL-38473  20.162  38.061  14.020
79213CL-    CL-38474  16.281   4.849   9.677
79214CL-    CL-38475  15.281   0.331   2.389
79215CL-    CL-38476  23.992   2.433   4.673
79216CL-    CL-38477  40.362  42.522   3.858
79217CL-    CL-38478  26.622   8.183  12.580
79218CL-    CL-38479   8.731   6.743  14.338
79219CL-    CL-38480  11.188  19.109   2.375
79220CL-    CL-38481  38.063  11.253   0.891
79221CL-    CL-38482   4.438   1.905  10.602
79222CL-    CL-38483   3.336   5.199   1.247
79223CL-    CL-38484  34.390  43.288  14.483
79224CL-    CL-38485  12.126  19.541  14.985
79225CL-    CL-38486  30.046  19.564   1.733
79226CL-    CL-38487  37.843   7.843   1.843
79227CL-    CL-38488   1.446  11.769  12.410
79228CL-    CL-38489  12.261  11.230   0.781
79229CL-    CL-38490   9.338  32.437  10.554
79230CL-    CL-38491  12.285   6.901   2.860
79231CL-    CL-38492  31.987  25.690   1.440
79232CL-    CL-38493  43.778  16.252  10.021
79233CL-    CL-38494  38.820  29.947  13.371
79234CL-    CL-38495  33.967  10.175   3.352
79235CL-    CL-38496  40.339  33.610   1.860
79236CL-    CL-38497  20.118  12.650  14.419
79237CL-    CL-38498  12.244  36.469   0.469
79238CL-    CL-38499  11.144  27.999   0.297
79239CL-    CL-38500  40.865  30.035  12.914
79240CL-    CL-38501  25.030  27.491  13.503
79241CL-    CL-38502  24.531   8.207  13.002
79242CL-    CL-38503   8.672   4.317  12.945
79243CL-    CL-38504  24.580  19.223   4.261
79244CL-    CL-38505   6.706  16.232  11.080
79245CL-    CL-38506  43.013   5.330  11.037
79246CL-    CL-38507  23.069  13.794  11.088
79247CL-    CL-38508  11.252  25.219   4.759
79248CL-    CL-38509  13.814  26.655   0.281
79249CL-    CL-38510   2.773  15.173  12.544
79250CL-    CL-38511  28.949  40.323  10.478
79251CL-    CL-38512   4.782  31.914   3.795
79252CL-    CL-38513   0.794   8.232  14.306
79253CL-    CL-38514  17.198  20.555   0.822
79254CL-    CL-38515  13.632  35.934   3.279
79255CL-    CL-38516  38.354  28.655   3.281
79256CL-    CL-38517   8.258  24.018   3.759
79257CL-    CL-38518  13.803  20.638   2.330
79258CL-    CL-38519  15.597  32.407   2.337
79259CL-    CL-38520  24.080   3.874   2.392
79260CL-    CL-38521  37.379  19.674   0.892
79261CL-    CL-38522  10.355  42.031  14.485
79262CL-    CL-38523  35.957  25.537  13.503
79263CL-    CL-38524  22.725  38.448  14.301
79264CL-    CL-38525  43.432  23.729   5.570
79265CL-    CL-38526  30.068  32.538  14.463
79266CL-    CL-38527  15.114   8.160  13.969
79267CL-    CL-38528  22.636  25.180   0.876
79268CL-    CL-38529   3.757  20.540  11.051
79269CL-    CL-38530  42.312  40.500  14.760
79270CL-    CL-38531  24.690  16.659  11.372
79271CL-    CL-38532   2.453  43.273   0.325
79272CL-    CL-38533  42.495  31.420  11.015
79273CL-    CL-38534  25.650  23.066  14.479
79274CL-    CL-38535  42.462   5.359   0.951
79275CL-    CL-38536  41.806   9.215  14.492
79276CL-    CL-38537  19.708  18.624  11.426
79277CL-    CL-38538  39.424  23.005  11.074
79278CL-    CL-38539  13.666   1.269  11.516
79279CL-    CL-38540   4.941   2.296   4.687
79280CL-    CL-38541  39.825  29.451   1.293
79281CL-    CL-38542   9.195   0.951   2.227
79282CL-    CL-38543   5.423   9.648  11.997
79283CL-    CL-38544   6.286  14.265  12.412
79284CL-    CL-38545  20.673  34.030   1.358
79285CL-    CL-38546   0.474   7.753   4.323
79286CL-    CL-38547  36.092   5.812   2.848
79287CL-    CL-38548  26.169  44.483  10.960
79288CL-    CL-38549  20.712  16.266  10.441
79289CL-    CL-38550  44.873  18.575   0.427
79290CL-    CL-38551  35.364  40.984   0.273
79291CL-    CL-38552  33.023  34.463  13.916
79292CL-    CL-38553   9.744   8.737   4.826
79293CL-    CL-38554  40.429  44.903  14.981
79294CL-    CL-38555  40.321  41.498   3.704
79295CL-    CL-38556  40.497   8.317  12.452
79296CL-    CL-38557  36.883  15.695   2.341
79297CL-    CL-38558  15.780   6.905   0.382
79298CL-    CL-38559  20.550  40.334   0.433
79299CL-    CL-38560  25.572  21.622  11.918
79300CL-    CL-38561  18.650  32.077   1.716
79301CL-    CL-38562  23.227  39.006   1.905
79302CL-    CL-38563  16.639  17.155  13.539
79303CL-    CL-38564  42.782  25.704  12.039
79304CL-    CL-38565  34.869  28.463   2.315
79305CL-    CL-38566  44.352  35.441  14.865
79306CL-    CL-38567  27.691  15.131  14.470
79307CL-    CL-38568   3.316  21.628   4.225
79308CL-    CL-38569  22.136  37.076   2.342
79309CL-    CL-38570  31.094  33.960   4.792
79310CL-    CL-38571   5.864  27.535  13.974
79311CL-    CL-38572  27.655  16.121   3.824
79312CL-    CL-38573  36.437  40.386  12.085
79313CL-    CL-38574   6.359  26.982  12.835
79314CL-    CL-38575  32.934  20.152  12.082
79315CL-    CL-38576   2.311  16.741  12.437
79316CL-    CL-38577  33.503  26.531  13.860
79317CL-    CL-38578  12.125  12.752  13.424
79318CL-    CL-38579  37.340  39.345  14.488
79319CL-    CL-38580   1.883  16.733  12.498
79320CL-    CL-38581   8.867   6.328   1.926
79321CL-    CL-38582  19.544  37.365   2.853
79322CL-    CL-38583   8.159  19.666  13.483
79323CL-    CL-38584  37.977  20.061   2.220
79324CL-    CL-38585  24.712  34.987   3.330
79325CL-    CL-38586   9.350  20.683  12.014
79326CL-    CL-38587  40.349  12.807   1.930
79327CL-    CL-38588  38.528  27.449   3.287
79328CL-    CL-38589  10.264   9.782  13.324
79329CL-    CL-38590  10.227   5.747  12.051
79330CL-    CL-38591  32.538  35.860   0.270
79331CL-    CL-38592  15.297   5.262  12.521
79332CL-    CL-38593  23.491  36.403   0.254
79333CL-    CL-38594  13.289  12.162  12.353
79334CL-    CL-38595  38.969  15.788   4.269
79335CL-    CL-38596  33.882  43.293  14.317
79336CL-    CL-38597  33.555   2.426  11.101
79337CL-    CL-38598  29.972  19.631  14.385
79338CL-    CL-38599  23.107  10.351  10.098
79339CL-    CL-38600   5.783   1.412   0.950
79340CL-    CL-38601   3.264   6.822  10.980
79341CL-    CL-38602  29.561   9.678   1.740
79342CL-    CL-38603   0.884  37.038  13.319
79343CL-    CL-38604   1.908  12.276   1.797
79344CL-    CL-38605  15.796  26.959   0.264
79345CL-    CL-38606  13.613  27.480  10.612
79346CL-    CL-38607  43.351  16.233  12.858
79347CL-    CL-38608  12.725  10.184  13.038
79348CL-    CL-38609  41.388   1.278  13.861
79349CL-    CL-38610   1.737  17.292  11.557
79350CL-    CL-38611  14.766  39.957   1.708
79351CL-    CL-38612  42.995   5.849   1.237
79352CL-    CL-38613  17.082  26.142  11.012
79353CL-    CL-38614  28.572  44.975   4.234
79354CL-    CL-38615  21.530  13.175  12.927
79355CL-    CL-38616  37.050  33.942   1.362
79356CL-    CL-38617  14.196   0.446   4.170
79357CL-    CL-38618   7.801  40.867  12.849
79358CL-    CL-38619   7.751   9.161   4.747
79359CL-    CL-38620  25.082  25.102  12.467
79360CL-    CL-38621  35.925  35.869  12.039
79361CL-    CL-38622  25.648  35.957   4.121
79362CL-    CL-38623   9.679  42.350  12.086
79363CL-    CL-38624  30.996   7.706   2.296
79364CL-    CL-38625  18.600  31.021  13.914
79365CL-    CL-38626   7.752  25.603  12.341
79366CL-    CL-38627  37.999  43.484  14.959
79367CL-    CL-38628  32.141  32.506  12.565
79368CL-    CL-38629   7.371  22.719  14.470
79369CL-    CL-38630  11.681  25.138   3.229
79370CL-    CL-38631  27.491  43.919  13.975
79371CL-    CL-38632  19.569  27.120  13.956
79372CL-    CL-38633  33.945  39.409   3.719
79373CL-    CL-38634  10.835  10.383  12.451
79374CL-    CL-38635  22.721  17.108   1.260
79375CL-    CL-38636  44.808  44.457   0.960
79376CL-    CL-38637  36.886  34.973  14.459
79377CL-    CL-38638  34.994   3.901   0.464
79378CL-    CL-38639  39.915   4.909   0.803
79379CL-    CL-38640  36.533   3.387  14.871
79380CL-    CL-38641  26.683  11.829  12.529
79381CL-    CL-38642  12.354  24.646  14.885
79382CL-    CL-38643  32.460  28.996  13.329
79383CL-    CL-38644  17.650  41.417  11.011
79384CL-    CL-38645  36.057  27.023  10.984
79385CL-    CL-38646  44.999  34.594  12.534
79386CL-    CL-38647  19.582  25.042   0.251
79387CL-    CL-38648  13.650  17.762   0.922
79388CL-    CL-38649  13.324   8.824  11.998
79389CL-    CL-38650  41.393  30.956  11.401
79390CL-    CL-38651  29.999  23.211   0.796
79391CL-    CL-38652  12.168  11.629   4.665
79392CL-    CL-38653   1.784  31.592  13.483
79393CL-    CL-38654  36.411  21.073   0.838
79394CL-    CL-38655  13.819   1.316  11.980
79395CL-    CL-38656  31.999  26.133   3.380
79396CL-    CL-38657  14.745  28.643   0.869
79397CL-    CL-38658  37.908   4.730   3.744
79398CL-    CL-38659  33.470  14.193   1.929
79399CL-    CL-38660  16.621   2.249  11.552
79400CL-    CL-38661  41.421  15.155  12.510
79401CL-    CL-38662  12.728  41.389  14.014
79402CL-    CL-38663   0.964   6.747   2.725
79403CL-    CL-38664  20.610  35.411  11.375
79404CL-    CL-38665  23.236   2.908   2.273
79405CL-    CL-38666  32.136  39.958  14.480
79406CL-    CL-38667  13.176  25.048  14.009
79407CL-    CL-38668  20.769   3.730  14.855
79408CL-    CL-38669  30.140  22.089   1.444
79409CL-    CL-38670  41.955  30.103  14.317
79410CL-    CL-38671   5.880  34.960   0.398
79411CL-    CL-38672   8.303   1.824  10.497
79412CL-    CL-38673  35.987  27.471   2.842
79413CL-    CL-38674  36.067   4.276   0.321
79414CL-    CL-38675   7.291  18.603  13.832
79415CL-    CL-38676  30.099  36.058   0.785
79416CL-    CL-38677  31.128   9.665  13.959
79417CL-    CL-38678  33.610   6.364   5.101
79418CL-    CL-38679  25.592  13.639  14.380
79419CL-    CL-38680  30.474  23.662  12.572
79420CL-    CL-38681  15.175   4.746   0.754
79421CL-    CL-38682  44.395   1.918  13.314
79422CL-    CL-38683  10.743  12.131  14.398
79423CL-    CL-38684  10.652  40.858   0.780
79424CL-    CL-38685  26.462  12.301   0.834
79425CL-    CL-38686  19.646  36.076   2.698
79426CL-    CL-38687  26.687  27.664  13.044
79427CL-    CL-38688  29.443   7.679  12.927
79428CL-    CL-38689   4.415  41.465  13.795
79429CL-    CL-38690   2.446  38.005   2.794
79430CL-    CL-38691  17.596   9.688   9.631
79431CL-    CL-38692  34.529   7.373   0.347
79432CL-    CL-38693  43.419  44.401  14.443
79433CL-    CL-38694   0.955  29.655  10.144
79434CL-    CL-38695  16.123   5.775   4.296
79435CL-    CL-38696   3.287  12.139   0.254
79436CL-    CL-38697  34.992  23.022   2.680
79437CL-    CL-38698  12.182  15.735   4.735
79438CL-    CL-38699  36.448  18.294  12.553
79439CL-    CL-38700  22.189  28.466  11.400
79440CL-    CL-38701  42.802  41.457  13.929
79441CL-    CL-38702  43.390  43.876  11.390
79442CL-    CL-38703  25.219  30.932  13.805
79443CL-    CL-38704  22.147  16.634  12.380
79444CL-    CL-38705  40.549   3.741  11.963
79445CL-    CL-38706  44.927  11.340   4.141
79446CL-    CL-38707  34.070  16.781   1.791
79447CL-    CL-38708  44.868  29.435  11.890
79448CL-    CL-38709  27.160   6.841   1.412
79449CL-    CL-38710  23.083  21.609   3.739
79450CL-    CL-38711  39.367  16.250  12.342
79451CL-    CL-38712  15.794  24.508   2.863
79452CL-    CL-38713   9.723  16.636   4.279
79453CL-    CL-38714   1.784  11.848  10.467
79454CL-    CL-38715  38.382  16.294   4.191
79455CL-    CL-38716  43.765  10.191  10.924
79456CL-    CL-38717  15.780  37.970   1.352
79457CL-    CL-38718  14.267  30.464   0.826
79458CL-    CL-38719  22.733  14.180  11.921
79459CL-    CL-38720  22.665  26.645  14.425
79460CL-    CL-38721  12.216  14.596  13.410
79461CL-    CL-38722  38.500  29.131  10.412
79462CL-    CL-38723  20.232  14.732   3.762
79463CL-    CL-38724   7.243   0.882  12.079
79464CL-    CL-38725  20.525  21.679  12.371
79465CL-    CL-38726  19.085  37.570   0.421
79466CL-    CL-38727  41.997  44.987  10.453
79467CL-    CL-38728  13.239  16.694   4.354
79468CL-    CL-38729  28.587  28.442  10.907
79469CL-    CL-38730   5.221  36.847   1.445
79470CL-    CL-38731  16.211  13.259   1.841
79471CL-    CL-38732   4.204  11.178  13.424
79472CL-    CL-38733  40.451   4.840   9.928
79473CL-    CL-38734  32.140  39.061   0.302
79474CL-    CL-38735  37.008  42.893  10.513
79475CL-    CL-38736  38.409   2.830   4.737
79476CL-    CL-38737  16.576   1.940  12.375
79477CL-    CL-38738  19.253  37.382  13.964
79478CL-    CL-38739   4.891  39.939   9.986
79479CL-    CL-38740   7.403  43.852   1.312
79480CL-    CL-38741  44.861  29.578  11.575
79481CL-    CL-38742   9.171  34.464  11.452
79482CL-    CL-38743  24.116  28.970  14.304
79483CL-    CL-38744  44.959  32.047   1.363
79484CL-    CL-38745  23.725  31.616   3.293
79485CL-    CL-38746   6.421  27.545  14.765
79486CL-    CL-38747  23.107  39.047   2.826
79487CL-    CL-38748  33.591  43.940  13.813
79488CL-    CL-38749  34.059  41.433  14.375
79489CL-    CL-38750  14.664   5.400  11.901
79490CL-    CL-38751   1.419  22.710   2.671
79491CL-    CL-38752  12.710   5.332   0.851
79492CL-    CL-38753   6.787  39.820   4.302
79493CL-    CL-38754  42.369  29.095   3.259
79494CL-    CL-38755  39.909  17.177  12.836
79495CL-    CL-38756  16.156  41.035   0.948
79496CL-    CL-38757  14.317   1.444   3.828
79497CL-    CL-38758  32.471  37.368   4.175
79498CL-    CL-38759  13.708  30.657  14.870
79499CL-    CL-38760  16.586   3.318   0.419
79500CL-    CL-38761   1.455  39.554   2.764
79501CL-    CL-38762   8.657  20.766   1.742
79502CL-    CL-38763  28.090  25.552   0.403
79503CL-    CL-38764  22.659  16.585   2.688
79504CL-    CL-38765  23.596  41.335   2.665
79505CL-    CL-38766   9.324   2.296   1.867
79506CL-    CL-38767  38.858   3.875  11.005
79507CL-    CL-38768  29.091  28.649  10.490
79508CL-    CL-38769  38.343  34.000   3.706
79509CL-    CL-38770   5.819  31.045   0.310
79510CL-    CL-38771  32.935  13.611   3.216
79511CL-    CL-38772   9.797  29.984   3.708
79512CL-    CL-38773  38.387  38.432  10.902
79513CL-    CL-38774  11.239  41.301   4.217
79514CL-    CL-38775  13.617  36.540  13.388
79515CL-    CL-38776   3.343  38.954  12.489
79516CL-    CL-38777  34.922  17.594  13.457
79517CL-    CL-38778   9.795  23.668   0.326
79518CL-    CL-38779  41.492  24.002  10.153
79519CL-    CL-38780  23.211   5.205   3.821
79520CL-    CL-38781  20.029  23.028  14.313
79521CL-    CL-38782  39.828  14.628  11.066
79522CL-    CL-38783  17.187  14.733   0.468
79523CL-    CL-38784  31.050  32.568  12.973
79524CL-    CL-38785  25.984  12.211   4.154
79525CL-    CL-38786  19.152  33.930   2.795
79526CL-    CL-38787  41.921  33.107   1.822
79527CL-    CL-38788  24.496  18.567   3.648
79528CL-    CL-38789  27.636   1.912   4.173
79529CL-    CL-38790   6.194  24.633  13.492
79530CL-    CL-38791  38.856  17.133   2.301
79531CL-    CL-38792  10.869  35.951   2.870
79532CL-    CL-38793   3.885  42.375  11.114
79533CL-    CL-38794  12.830   9.209  11.914
79534CL-    CL-38795  27.603  21.210  13.835
79535CL-    CL-38796   7.210  25.631   1.234
79536CL-    CL-38797  37.967  27.156   4.830
79537CL-    CL-38798   5.769  16.776  10.553
79538CL-    CL-38799  33.398  32.064  11.449
79539CL-    CL-38800  17.284  40.053   2.788
79540CL-    CL-38801  12.309  21.026  10.937
79541CL-    CL-38802  37.849   6.301  11.446
79542CL-    CL-38803   1.750  27.594   4.693
79543CL-    CL-38804   7.789  30.655  14.445
79544CL-    CL-38805  29.530   4.945  12.037
79545CL-    CL-38806  12.771  42.433  11.074
79546CL-    CL-38807  26.030  24.164   3.173
79547CL-    CL-38808  34.092   5.799  13.803
79548CL-    CL-38809  40.842  24.200   4.348
79549CL-    CL-38810   4.393  15.137  10.594
79550CL-    CL-38811  23.581  37.451  12.552
79551CL-    CL-38812  23.587  39.425   2.377
79552CL-    CL-38813  24.674  24.179   0.935
79553CL-    CL-38814  35.037   9.179  14.872
79554CL-    CL-38815  15.638  34.916   1.417
79555CL-    CL-38816   0.413  23.656  14.025
79556CL-    CL-38817  16.080  38.994   9.938
79557CL-    CL-38818   1.899   8.836   3.865
79558CL-    CL-38819  20.202  10.788  11.070
79559CL-    CL-38820  40.802  20.178   1.858
79560CL-    CL-38821  18.730  30.526  14.364
79561CL-    CL-38822  35.393  44.772  11.967
79562CL-    CL-38823  35.034   5.390  11.412
79563CL-    CL-38824  10.362  44.443   3.378
79564CL-    CL-38825  31.530   4.447   3.159
79565CL-    CL-38826   3.777  22.617   3.678
79566CL-    CL-38827  17.580   9.686  13.412
79567CL-    CL-38828   8.766  19.548   1.296
79568CL-    CL-38829  10.645   0.827  12.848
79569CL-    CL-38830   5.391  25.188   2.212
79570CL-    CL-38831   8.734  17.592  12.479
79571CL-    CL-38832  35.861  36.997   0.357
79572CL-    CL-38833   6.386  33.935  10.584
79573CL-    CL-38834  38.947   4.848   1.856
79574CL-    CL-38835  40.949  12.279   0.295
79575CL-    CL-38836  24.697  19.082   2.308
79576CL-    CL-38837  13.176   0.417  14.022
79577CL-    CL-38838  21.179  37.410   2.757
79578CL-    CL-38839  11.668  34.605   0.912
79579CL-    CL-38840   4.248  34.554  11.943
79580CL-    CL-38841  10.793  33.399  13.537
79581CL-    CL-38842  21.665  36.013  11.960
79582CL-    CL-38843   5.927  26.692  14.825
79583CL-    CL-38844  11.653  42.791  11.100
79584CL-    CL-38845  15.640   1.766   4.790
79585CL-    CL-38846   9.268  30.142  12.037
79586CL-    CL-38847  25.659   3.378   1.360
79587CL-    CL-38848  40.407  22.145  14.347
79588CL-    CL-38849  21.168  16.618  14.346
79589CL-    CL-38850   4.887   1.879  12.948
79590CL-    CL-38851  28.059   4.898   5.152
79591CL-    CL-38852   1.445  42.796   2.797
79592CL-    CL-38853  11.814  10.772  11.490
79593CL-    CL-38854   4.231  24.098   4.779
79594CL-    CL-38855  10.214  10.692  11.564
79595CL-    CL-38856  32.435  13.232  10.427
79596CL-    CL-38857  21.040  42.782   3.229
79597CL-    CL-38858  36.463  10.227  10.500
79598CL-    CL-38859  26.457  40.437  13.481
79599CL-    CL-38860   5.393   2.333  11.487
79600CL-    CL-38861   4.254   6.871   0.332
79601CL-    CL-38862   9.875  42.896  10.479
79602CL-    CL-38863  10.251  41.878  13.375
79603CL-    CL-38864  27.573   3.422   4.219
79604CL-    CL-38865  36.951  32.142   0.862
79605CL-    CL-38866  37.491  14.706   4.807
79606CL-    CL-38867  21.690  33.109   0.390
79607CL-    CL-38868  19.713  15.241  11.577
79608CL-    CL-38869   0.257   9.871   0.396
79609CL-    CL-38870  15.604  29.508   4.612
79610CL-    CL-38871   9.206  31.472   4.201
79611CL-    CL-38872  42.289  17.269   0.425
79612CL-    CL-38873  39.893  13.771   1.719
79613CL-    CL-38874  18.272  26.102  12.874
79614CL-    CL-38875  38.829  13.123  10.595
79615CL-    CL-38876  10.345  10.711   2.338
79616CL-    CL-38877   6.764   0.928  12.480
79617CL-    CL-38878  37.933  21.061   0.415
79618CL-    CL-38879  18.148  13.694   3.810
79619CL-    CL-38880  42.920  44.925  14.488
79620CL-    CL-38881  44.978   2.423   3.267
79621CL-    CL-38882   6.789  30.648   4.663
79622CL-    CL-38883  36.404   2.734   0.388
79623CL-    CL-38884  18.588  41.296   2.887
79624CL-    CL-38885  31.616  29.514   4.118
79625CL-    CL-38886  12.814  38.383  14.515
79626CL-    CL-38887  28.994  10.226   4.133
79627CL-    CL-38888  18.663  16.810  13.023
79628CL-    CL-38889   7.743  28.126   5.190
79629CL-    CL-38890  34.013  22.542   2.784
79630CL-    CL-38891  32.555  20.718   3.276
79631CL-    CL-38892  14.816  19.777  12.038
79632CL-    CL-38893   0.860   9.781  13.829
79633CL-    CL-38894  14.637  42.922   5.247
79634CL-    CL-38895  32.517   7.789   3.818
79635CL-    CL-38896  19.165   5.885   1.906
79636CL-    CL-38897   2.734  37.938  12.569
79637CL-    CL-38898  34.987  35.873   2.860
79638CL-    CL-38899  24.147  13.796  12.477
79639CL-    CL-38900  13.225  44.464   4.692
79640CL-    CL-38901  12.189  37.485  14.367
79641CL-    CL-38902   1.792  38.404  12.928
79642CL-    CL-38903  21.556   4.864  11.546
79643CL-    CL-38904  15.721  38.979  12.398
79644CL-    CL-38905  31.447  27.555  14.779
79645CL-    CL-38906  31.494   4.840  12.536
79646CL-    CL-38907  28.612  15.146   2.405
79647CL-    CL-38908  31.142  12.180  11.915
79648CL-    CL-38909  30.030  35.030   2.319
79649CL-    CL-38910  41.939  14.332  14.457
79650CL-    CL-38911  31.529  13.300  14.366
79651CL-    CL-38912  22.093  31.025   4.292
79652CL-    CL-38913   9.325   1.738   5.181
79653CL-    CL-38914  20.236  42.856  13.480
79654CL-    CL-38915   0.849  38.905  12.064
79655CL-    CL-38916  32.624  18.296  10.091
79656CL-    CL-38917   3.315  12.272   4.694
79657CL-    CL-38918  38.567  13.692   3.202
79658CL-    CL-38919  22.193  15.122  14.805
79659CL-    CL-38920  36.864  38.830  10.627
79660CL-    CL-38921  44.963  11.256   4.801
79661CL-    CL-38922  37.379  24.553   2.786
79662CL-    CL-38923  20.144  43.984   2.751
79663CL-    CL-38924   5.856  36.442  10.998
79664CL-    CL-38925  20.254  24.064  14.844
79665CL-    CL-38926   7.844  33.951  10.482
79666CL-    CL-38927   2.392  30.126   2.308
79667CL-    CL-38928  36.356  13.292   5.275
79668CL-    CL-38929  26.686  29.570  11.944
79669CL-    CL-38930  34.614  36.900  11.517
79670CL-    CL-38931  26.522  25.713  10.461
79671CL-    CL-38932   5.412   1.833   2.184
79672CL-    CL-38933  16.126  35.897   5.306
79673CL-    CL-38934  41.511  24.196  14.792
79674CL-    CL-38935   8.205  39.454  10.919
79675CL-    CL-38936  43.849  34.949  13.052
79676CL-    CL-38937  12.235  41.298  13.052
79677CL-    CL-38938  28.113  26.530   1.865
79678CL-    CL-38939  26.100  29.427  13.332
79679CL-    CL-38940  40.528  39.473  14.456
79680CL-    CL-38941  29.639  41.895  12.382
79681CL-    CL-38942  25.519  42.943   0.396
79682CL-    CL-38943  37.493  32.623  11.973
79683CL-    CL-38944  29.473  24.547   3.866
79684CL-    CL-38945  36.916  28.660  13.338
79685CL-    CL-38946  40.316  20.761  12.516
79686CL-    CL-38947  18.250  32.452   3.242
79687CL-    CL-38948  27.969  20.209   1.734
79688CL-    CL-38949  23.101  11.661  12.358
79689CL-    CL-38950  20.562   0.976  11.550
79690CL-    CL-38951  13.119  18.199  10.129
79691CL-    CL-38952  26.069  29.478   4.750
79692CL-    CL-38953   7.184  14.751   2.415
79693CL-    CL-38954  30.453   3.443  11.979
79694CL-    CL-38955   1.885  10.265  10.627
79695CL-    CL-38956  12.693  25.687  14.962
79696CL-    CL-38957  40.801   9.847   2.388
79697CL-    CL-38958   6.726  26.063   0.373
79698CL-    CL-38959  43.979  35.081  11.485
79699CL-    CL-38960  36.529  23.534   0.306
79700CL-    CL-38961  39.056  42.410   4.127
79701CL-    CL-38962  11.202   5.292  10.465
79702CL-    CL-38963  29.468  24.690   4.333
79703CL-    CL-38964  31.450  17.756  13.385
79704CL-    CL-38965  15.597   0.822  12.988
79705CL-    CL-38966  18.657  17.596  13.803
79706CL-    CL-38967  21.059  10.258   2.703
79707CL-    CL-38968  16.773  22.080  10.639
79708CL-    CL-38969  26.572  19.632   2.297
79709CL-    CL-38970  17.068  42.832  11.045
79710CL-    CL-38971  27.642   9.373  12.931
79711CL-    CL-38972  40.801  42.377   4.128
79712CL-    CL-38973  28.125  19.084  13.983
79713CL-    CL-38974   5.867  26.488  11.372
79714CL-    CL-38975  22.185   8.334   4.708
79715CL-    CL-38976   9.746   6.765  13.456
79716CL-    CL-38977  40.392  30.414   3.784
79717CL-    CL-38978   1.246  41.793   0.285
79718CL-    CL-38979   5.789   3.828  14.511
79719CL-    CL-38980  43.805   4.879  11.986
79720CL-    CL-38981   7.898  27.139   3.786
79721CL-    CL-38982  12.685  12.230  12.494
79722CL-    CL-38983  21.032   3.339   1.853
79723CL-    CL-38984  41.834  18.776  11.399
79724CL-    CL-38985  35.578  23.502  12.067
79725CL-    CL-38986  27.134  16.148  12.401
79726CL-    CL-38987   5.313   9.870  12.549
79727CL-    CL-38988  13.109   6.785  13.440
79728CL-    CL-38989  17.148  41.826  13.004
79729CL-    CL-38990  31.637   5.893  10.465
79730CL-    CL-38991   8.177  42.490   1.794
79731CL-    CL-38992  22.173  22.170  12.926
79732CL-    CL-38993  10.164  37.541  14.475
79733CL-    CL-38994  12.217   2.344  11.982
79734CL-    CL-38995  25.642  28.187  14.480
79735CL-    CL-38996  12.153  31.990   0.397
79736CL-    CL-38997  37.874  35.421   3.210
79737CL-    CL-38998  41.960   5.757  11.414
79738CL-    CL-38999  19.137  17.748   4.671
79739CL-    CL-39000   9.719   9.662   4.709
79740CL-    CL-39001  24.072  30.945   5.645
79741CL-    CL-39002  25.150  38.478   4.645
79742CL-    CL-39003  20.708  35.372   0.773
79743CL-    CL-39004  20.109  16.726  13.046
79744CL-    CL-39005  12.733   2.851   2.863
79745CL-    CL-39006  24.725  41.804   0.791
79746CL-    CL-39007   8.663  41.485   1.930
79747CL-    CL-39008  19.579  18.167   9.511
79748CL-    CL-39009  13.201  43.798  11.865
79749CL-    CL-39010  32.566  27.470   0.242
79750CL-    CL-39011  29.434   2.933   1.436
79751CL-    CL-39012  26.463   7.740   2.862
79752CL-    CL-39013  38.048   8.764  10.639
79753CL-    CL-39014  29.533  34.096   3.282
79754CL-    CL-39015   8.717   9.232   1.359
79755CL-    CL-39016   3.296   2.417  14.946
79756CL-    CL-39017  26.033  11.238  11.612
79757CL-    CL-39018  37.074  39.490  13.412
79758CL-    CL-39019  11.219   5.379   2.669
79759CL-    CL-39020   2.748  24.045   4.166
79760CL-    CL-39021  16.134  28.127   5.254
79761CL-    CL-39022  28.059  21.144  11.594
79762CL-    CL-39023   3.794  44.779   1.396
79763CL-    CL-39024  13.315  18.729   3.731
79764CL-    CL-39025  17.556   1.381  11.900
79765CL-    CL-39026  14.335   2.789  14.808
79766CL-    CL-39027   2.932  38.461   3.804
79767CL-    CL-39028  33.002  18.152   1.347
79768CL-    CL-39029  32.515  44.814  12.058
79769CL-    CL-39030   9.743  28.123   1.327
79770CL-    CL-39031  13.176  18.753  13.880
79771CL-    CL-39032  21.182   8.693  14.962
79772CL-    CL-39033  26.032   6.910   2.243
79773CL-    CL-39034  44.442  39.362  12.363
79774CL-    CL-39035   6.723  36.068   0.916
79775CL-    CL-39036  13.738  22.607  12.447
79776CL-    CL-39037  26.039   3.906  10.912
79777CL-    CL-39038  37.430  41.462   4.179
79778CL-    CL-39039  14.177  13.166   2.229
79779CL-    CL-39040  35.359   2.817  10.600
79780CL-    CL-39041  31.557  36.867  11.482
79781CL-    CL-39042  21.162  10.356  11.543
79782CL-    CL-39043   8.267  44.318  12.070
79783CL-    CL-39044  43.980  15.211   0.429
79784CL-    CL-39045  33.382   3.934  13.060
79785CL-    CL-39046  39.396  31.037   3.712
79786CL-    CL-39047   9.392  43.928   1.409
79787CL-    CL-39048  37.080  43.276   2.792
79788CL-    CL-39049  21.129  28.482  13.440
79789CL-    CL-39050  12.848  28.000   5.282
79790CL-    CL-39051  42.325  26.527  13.498
79791CL-    CL-39052  25.524  14.714  10.462
79792CL-    CL-39053  34.499  10.140  13.984
79793CL-    CL-39054   6.295  35.360   1.369
79794CL-    CL-39055  26.035  13.681   4.140
79795CL-    CL-39056  12.746  22.661   2.239
79796CL-    CL-39057  27.155  10.324   4.180
79797CL-    CL-39058  35.880  33.100   0.429
79798CL-    CL-39059  25.686  43.801   4.625
79799CL-    CL-39060  31.016  15.250  13.846
79800CL-    CL-39061  29.127  20.041  12.481
79801CL-    CL-39062  27.606   4.303  13.514
79802CL-    CL-39063  36.416  14.307   4.679
79803CL-    CL-39064   4.711  23.014   3.155
79804CL-    CL-39065   0.918  25.498  11.982
79805CL-    CL-39066  24.129  10.163  10.505
79806CL-    CL-39067   2.872  28.086  12.526
79807CL-    CL-39068  40.946  25.978  12.399
79808CL-    CL-39069  24.698   5.207   4.317
79809CL-    CL-39070  23.577   4.369   4.281
79810CL-    CL-39071  28.128  13.677  13.930
79811CL-    CL-39072  12.752  34.909  12.007
79812CL-    CL-39073   6.207   4.742   1.353
79813CL-    CL-39074   7.682  24.066  11.016
79814CL-    CL-39075  21.120  15.656  11.496
79815CL-    CL-39076  44.324  24.694   1.411
79816CL-    CL-39077   7.718  41.881   2.407
79817CL-    CL-39078  13.651  15.253   2.737
  45.00000  45.00000  15.00000   0.00000   0.00000   0.00000   0.00000   0.00000   0.00000

